/*--------------------------------*- C++ -*----------------------------------*\
| =========                 |                                                 |
| \\      /  F ield         | OpenFOAM: The Open Source CFD Toolbox           |
|  \\    /   O peration     | Version:  v2012                                 |
|   \\  /    A nd           | Website:  www.openfoam.com                      |
|    \\/     M anipulation  |                                                 |
\*---------------------------------------------------------------------------*/
FoamFile
{
    version     2.0;
    format      ascii;
    class       volScalarField;
    location    "570";
    object      alphat;
}
// * * * * * * * * * * * * * * * * * * * * * * * * * * * * * * * * * * * * * //

dimensions      [1 -1 -1 0 0 0 0];


internalField   nonuniform List<scalar> 
18258
(
0.00485637
0.00210946
0.00172776
0.00149663
0.000991792
0.00162277
0.0022539
0.00268352
0.00281574
0.00279207
0.00289113
0.0048788
0.00684688
0.00846203
0.00888873
0.00887359
0.00805339
0.00768977
0.00834493
0.0102676
0.00864261
0.00553488
0.00663487
0.00766348
0.00832802
0.00737161
0.00595887
0.00552077
0.00499897
0.00416645
0.00349117
0.0023735
0.00175571
0.00162902
0.00147512
0.00168074
0.00182971
0.00194978
0.00199398
0.00202546
0.0020116
0.00200028
0.00194647
0.00191431
0.00185917
0.00154068
0.00187703
0.00189652
0.00207633
0.00287631
0.00309376
0.00260365
0.00288248
0.00257206
0.0016956
0.00194059
0.00210648
0.00215199
0.00212449
0.00203644
0.00200683
0.00198175
0.00194991
0.00191208
0.00188902
0.00190798
0.00192776
0.00190681
0.00181311
0.00173723
0.00161441
0.00149129
0.00140001
0.0013293
0.001276
0.00121683
0.00115033
0.00101045
0.000936487
0.00123995
0.00155658
0.00166309
0.00235709
0.00287369
0.00289303
0.00216553
0.00154332
0.00160165
0.00178049
0.00179833
0.001524
0.00181179
0.00205217
0.00212707
0.0022167
0.00247764
0.00282171
0.00275136
0.00245041
0.00225804
0.00221193
0.0025352
0.00241065
0.00312677
0.0031491
0.00274608
0.00253475
0.00285217
0.00367856
0.00395627
0.00307362
0.00288713
0.00283017
0.00279385
0.00252699
0.00261564
0.00237559
0.00214056
0.00233206
0.00281827
0.00267306
0.00291949
0.00302549
0.0028385
0.00328911
0.0037929
0.00373819
0.00299146
0.00243911
0.00227366
0.00229097
0.00140117
0.00151307
0.0016303
0.00167025
0.00169831
0.00172213
0.00183639
0.00183225
0.00180536
0.00180138
0.00183301
0.00101016
0.00109442
0.00112163
0.00112948
0.0010728
0.00106172
0.00104186
0.00102574
0.00096728
0.000925553
0.00110744
0.0012435
0.00135439
0.00148406
0.00167751
0.00191423
0.00216304
0.00241448
0.00258081
0.00262821
0.0026761
0.00257896
0.00248126
0.00256967
0.00258451
0.00256777
0.0025332
0.00248959
0.00243068
0.00232264
0.00244702
0.00243991
0.00229213
0.00196479
0.00200845
0.00200482
0.00205707
0.00204691
0.00206797
0.00203916
0.00200536
0.00190917
0.00177497
0.00147789
0.00143726
0.00145609
0.00187072
0.00227181
0.00351011
0.0042834
0.00497515
0.00532546
0.00570212
0.0046113
0.00513115
0.00395362
0.0035499
0.00451257
0.00590463
0.00336843
0.00183799
0.00348537
0.00308996
0.00223958
0.00199291
0.00205296
0.00205837
0.00236797
0.00272958
0.00302744
0.00317146
0.00329906
0.00340072
0.00351299
0.00365571
0.00369497
0.00356995
0.00302251
0.00364134
0.00295604
0.00345171
0.00311594
0.0020994
0.00224409
0.00237434
0.00217031
0.00210984
0.00202171
0.00181691
0.00223061
0.00289655
0.00336228
0.0038434
0.00512282
0.00473946
0.00454648
0.00352102
0.00340466
0.00176831
0.00252353
0.00261153
0.00293475
0.0019516
0.00177931
0.00168744
0.00223914
0.00259444
0.0030616
0.00339425
0.00403157
0.00312366
0.00356681
0.00322601
0.00224553
0.002164
0.0031017
0.00334206
0.00274896
0.00246117
0.00308655
0.00291983
0.00207044
0.00166244
0.00255327
0.0026455
0.00189549
0.0047119
0.00500327
0.00477129
0.00581505
0.00729149
0.00831524
0.00773947
0.0068674
0.00767015
0.00609161
0.00589739
0.00628891
0.00528119
0.003704
0.00379806
0.00392872
0.00403601
0.00433394
0.00460448
0.00493439
0.00524824
0.00477025
0.00396089
0.00299732
0.00206164
0.00203345
0.00202321
0.00181679
0.0026925
0.00407375
0.0040463
0.00229928
0.00134023
0.00151562
0.00171132
0.00169452
0.00122968
0.000925521
0.00159443
0.00182327
0.00185284
0.00180693
0.00170612
0.00178291
0.00286327
0.00441112
0.00484702
0.00502032
0.00518432
0.0053002
0.00536473
0.00538521
0.00539655
0.00541039
0.00542244
0.00544082
0.00542364
0.00530777
0.00466822
0.00293465
0.00171541
0.00159357
0.00175875
0.00189016
0.00200489
0.0017059
0.00104302
0.00166602
0.00213326
0.00245189
0.00247274
0.00230769
0.00223858
0.00352975
0.00469302
0.00553149
0.00570102
0.00577623
0.00571235
0.00570353
0.0055784
0.00553881
0.00485624
0.00347652
0.00380118
0.00408147
0.00412874
0.0042245
0.00436816
0.00426689
0.00403037
0.00589213
0.00679797
0.00688487
0.00703135
0.00694798
0.00682765
0.00651703
0.00616227
0.00518757
0.00389018
0.00245446
0.00250558
0.00266723
0.0026416
0.00229943
0.002423
0.00262963
0.00265598
0.00274292
0.00307604
0.00349391
0.00333291
0.00286807
0.00243576
0.00226803
0.0022206
0.00213072
0.00159597
0.00161967
0.00157427
0.00160013
0.00214953
0.0025584
0.00295041
0.00418484
0.00373321
0.00303616
0.00481367
0.00493193
0.00529771
0.00585176
0.0059968
0.00664325
0.00462674
0.00417031
0.00428388
0.00349925
0.00323902
0.00327357
0.00328591
0.00306253
0.00335194
0.00332244
0.00320242
0.00353569
0.00389608
0.00513765
0.0062257
0.00656922
0.00676795
0.0068493
0.00682337
0.00668976
0.00673119
0.00591139
0.00590389
0.00565447
0.00549188
0.00543411
0.00516437
0.00591268
0.00613812
0.00621339
0.00636848
0.00661022
0.00643187
0.00623171
0.00607956
0.00596941
0.00585438
0.00591718
0.00602698
0.00614428
0.00630927
0.00652997
0.0065671
0.00633839
0.00616571
0.00604775
0.00593711
0.00594206
0.0060407
0.00615592
0.00631956
0.00652873
0.00641289
0.00625037
0.00610577
0.00598728
0.00588312
0.00567762
0.00581448
0.00596518
0.00608946
0.00617017
0.005331
0.00569826
0.0056002
0.0050703
0.00474571
0.00360402
0.0039003
0.00411279
0.00447958
0.00497238
0.00506911
0.00425369
0.00364527
0.00355214
0.00352346
0.00360644
0.00363632
0.00365395
0.00412878
0.00621973
0.00626181
0.00627935
0.00628159
0.00537185
0.00522017
0.00486385
0.0088868
0.00827365
0.00716959
0.00591044
0.00316884
0.00271637
0.00321796
0.00391313
0.00437475
0.00482771
0.00320517
0.00198498
0.00231308
0.00239796
0.00233893
0.00216185
0.00180116
0.0016626
0.00150896
0.00162393
0.00287597
0.0045906
0.00517179
0.00522763
0.00517668
0.00507683
0.00495527
0.00478567
0.00471981
0.0059463
0.00804412
0.00908768
0.00905233
0.00777698
0.00633608
0.00356879
0.00183196
0.00133763
0.0014597
0.0016024
0.00188435
0.00168217
0.00140268
0.00153752
0.00146024
0.00296054
0.00511487
0.00652238
0.00774528
0.00761958
0.00662089
0.00541784
0.0051372
0.00525718
0.00533696
0.00540515
0.00547517
0.00552289
0.00549119
0.00499705
0.00308626
0.00184239
0.00163686
0.00175992
0.00206264
0.00219189
0.00221457
0.00218408
0.00189367
0.00313245
0.00497412
0.00316344
0.00172573
0.00186434
0.00185049
0.00326424
0.00325962
0.00318992
0.00496343
0.00524886
0.00523622
0.0049195
0.00469582
0.00278013
0.00315562
0.00316638
0.00318321
0.00323545
0.00163447
0.00178164
0.00183715
0.00197786
0.00172794
0.00219591
0.000568283
0.000787771
0.000915178
0.000995264
0.00107238
0.00105204
0.00201285
0.00204244
0.00194878
0.00189747
0.00240819
0.00258423
0.0026413
0.0024328
0.00224483
0.00238944
0.00239467
0.00225679
0.00213771
0.00221643
0.00221803
0.0021257
0.00180806
0.00169426
0.00185988
0.00183982
0.00182511
0.00327721
0.00327156
0.00309648
0.00508751
0.00500566
0.00560703
0.00557058
0.00556367
0.00554041
0.0056006
0.0056322
0.00565603
0.0056837
0.00567302
0.00561768
0.00780068
0.00552756
0.00482303
0.00278908
0.0026866
0.00189743
0.00166297
0.00195814
0.00209428
0.00227046
0.00221909
0.00233934
0.00233647
0.00247925
0.00230112
0.00204321
0.00312926
0.00334295
0.00326513
0.00332974
0.00325158
0.00323248
0.00320884
0.00316332
0.00310839
0.0018509
0.00181561
0.00212604
0.00223171
0.00239795
0.00241962
0.0024721
0.00234444
0.0020618
0.00199585
0.00229863
0.00226768
0.00231185
0.00217971
0.00217063
0.00193368
0.00198259
0.00399523
0.00736359
0.00379641
0.0042162
0.00382097
0.00434471
0.00380651
0.00328366
0.00336084
0.00296053
0.00308819
0.00323913
0.00329762
0.00346568
0.00408515
0.00393303
0.00345239
0.00335232
0.00328643
0.00309896
0.00278951
0.00292188
0.00294798
0.00301114
0.00334657
0.00383815
0.00430194
0.00522553
0.00507088
0.00444347
0.00406232
0.00425938
0.00433426
0.00545427
0.00509515
0.00506536
0.00534367
0.00529097
0.00502097
0.00475767
0.00459241
0.00394411
0.00400886
0.00458633
0.00443822
0.00457393
0.00449407
0.00467244
0.00475727
0.00456586
0.00424372
0.00446218
0.00445336
0.00494482
0.00480863
0.00446133
0.00408062
0.004363
0.00431081
0.0049786
0.00468589
0.00438271
0.00403544
0.00386614
0.00438724
0.00430693
0.0048824
0.00502444
0.00502656
0.00438303
0.00428094
0.00508958
0.0048957
0.00473017
0.00492678
0.00408105
0.0041972
0.00516897
0.00527684
0.00500686
0.00418116
0.00424485
0.00363975
0.00427984
0.00532558
0.00502972
0.00412308
0.00342197
0.00478657
0.00503568
0.00532566
0.00503401
0.00548054
0.00590291
0.00481425
0.00523674
0.00683796
0.00522981
0.00606802
0.00620168
0.00623736
0.00623966
0.00626274
0.00629285
0.0066282
0.00644474
0.00410195
0.00490355
0.00476661
0.00398953
0.00339501
0.00373873
0.00402648
0.00408456
0.00418807
0.00434719
0.00427186
0.00412762
0.00604572
0.00690068
0.00704817
0.00718738
0.00707019
0.00689746
0.00649704
0.00600832
0.00499455
0.00372583
0.00232692
0.00237199
0.00252759
0.00250339
0.00217134
0.00163776
0.0010766
0.00159751
0.00165296
0.00155822
0.00142213
0.0012585
0.00130723
0.00237328
0.004433
0.00624766
0.00692275
0.0074702
0.00804849
0.0086001
0.00901906
0.00932358
0.00952861
0.00965293
0.00967673
0.0094861
0.00860896
0.00822136
0.00774252
0.00735037
0.00681371
0.00640619
0.00724362
0.00796081
0.00840456
0.00890258
0.00913399
0.00903861
0.00785268
0.00760521
0.00874705
0.0107817
0.00916573
0.01152
0.0135473
0.0105401
0.00948126
0.00948222
0.010603
0.0108082
0.0104217
0.009819
0.00912668
0.00825222
0.00868566
0.00908168
0.00946601
0.00981999
0.0107886
0.0109583
0.0108776
0.0107107
0.0104853
0.0101599
0.00965054
0.00894773
0.00814804
0.00735927
0.00644314
0.00451164
0.00221643
0.00248795
0.0024509
0.00253129
0.00251064
0.00119011
0.00131476
0.0013317
0.00134036
0.00126428
0.00143977
0.00208177
0.00338091
0.0024303
0.00200302
0.00137842
0.0016146
0.00269547
0.00456931
0.00516231
0.00526751
0.00535742
0.00689891
0.0079183
0.00842244
0.00881016
0.00909116
0.00897688
0.00868124
0.00815863
0.00749255
0.00724353
0.00683419
0.00647815
0.00628519
0.00609067
0.00571097
0.00446965
0.00431741
0.0045003
0.00444255
0.00425132
0.00454423
0.00470941
0.00470622
0.00475918
0.00480543
0.00494781
0.00511524
0.00526096
0.00533749
0.00536598
0.00537501
0.00538606
0.00539472
0.00541107
0.00539255
0.00527426
0.004631
0.0028956
0.00169007
0.00156208
0.00171262
0.00181097
0.00185291
0.00164539
0.00105928
0.00164598
0.00213059
0.00218554
0.00239857
0.00247493
0.00262441
0.00292251
0.00337661
0.00348409
0.00309154
0.00292792
0.0028657
0.00279315
0.00238987
0.00297948
0.00328474
0.00327821
0.00324701
0.00350961
0.00431909
0.00414886
0.00365851
0.00361795
0.00358159
0.00324104
0.00319279
0.00348562
0.00352393
0.00365511
0.00428579
0.00513962
0.00476839
0.00434323
0.00416462
0.00384622
0.00338833
0.00306305
0.00376144
0.0030845
0.0016346
0.00139165
0.00138053
0.00138713
0.00134047
0.00158985
0.00167303
0.00169541
0.00157579
0.00174793
0.00194475
0.00188101
0.00212652
0.00209947
0.00188123
0.001864
0.0020129
0.00212139
0.00217684
0.00223801
0.00366596
0.00378804
0.00293204
0.00424092
0.00488343
0.00483884
0.00513343
0.00422592
0.00379116
0.00449974
0.00519618
0.00595485
0.00470857
0.00445548
0.00455639
0.00209406
0.001102
0.00155444
0.00193024
0.00215313
0.00209002
0.00197491
0.00167039
0.00296374
0.00304388
0.00482933
0.00541828
0.00549038
0.0054581
0.00549413
0.00598396
0.00685788
0.0078599
0.00815954
0.00804634
0.00768473
0.00701105
0.00633228
0.00629634
0.00607974
0.0059228
0.00587685
0.00509827
0.00451856
0.0048452
0.00476167
0.0049231
0.00499876
0.00505383
0.00510984
0.0052029
0.0053151
0.00541733
0.00548688
0.00553306
0.00557173
0.00561107
0.00565046
0.00569299
0.0057156
0.00566073
0.00511535
0.00306754
0.00182854
0.00166771
0.00177941
0.00209137
0.00220209
0.00236666
0.00210097
0.00110649
0.00130068
0.00226074
0.0025078
0.00232061
0.00217189
0.00213299
0.0017869
0.00323802
0.00319624
0.00501907
0.00564595
0.00572587
0.00571082
0.00566742
0.005618
0.00556935
0.00552927
0.00549702
0.00546273
0.00541432
0.00535518
0.005301
0.00524612
0.00515198
0.00501869
0.00485752
0.00504763
0.00523288
0.00545594
0.00568944
0.00580355
0.00570003
0.00554932
0.00548732
0.00552479
0.00557311
0.0056224
0.00566664
0.00568849
0.00562403
0.00529913
0.0049705
0.00314734
0.00318852
0.00156829
0.00174195
0.00200989
0.00207579
0.00225401
0.00224269
0.00176264
0.0013743
0.00155091
0.00144967
0.00259
0.0028485
0.00315936
0.00312839
0.00169853
0.00174236
0.00181074
0.00204206
0.00189881
0.00183525
0.00453122
0.0043407
0.00454244
0.0055719
0.00479966
0.003313
0.0036279
0.00504918
0.00532612
0.00321863
0.00241615
0.00267712
0.00339011
0.00499296
0.00505583
0.00480424
0.00477606
0.00348436
0.00428485
0.00515964
0.00501897
0.00390884
0.00269257
0.00200811
0.000976883
0.00185802
0.00158829
0.00389284
0.0043083
0.00425879
0.00465684
0.00494746
0.00499794
0.00485656
0.00430694
0.00439259
0.00443602
0.00505472
0.00507734
0.00429805
0.00362689
0.00294627
0.00297274
0.00303034
0.00335777
0.00420411
0.00396106
0.00347192
0.0033667
0.0032941
0.00309838
0.00279607
0.00245234
0.00246938
0.00229848
0.00222445
0.00350652
0.00466757
0.00550418
0.00566256
0.00572007
0.0056326
0.00559313
0.00543362
0.00535131
0.00464921
0.00593829
0.00627687
0.00605646
0.00610051
0.00613783
0.00618391
0.00618418
0.00606738
0.00521368
0.00311353
0.00203371
0.0022955
0.00247758
0.00232645
0.00231335
0.00246569
0.00233978
0.00205527
0.00332996
0.00325488
0.00520452
0.00589429
0.00602127
0.00602945
0.00600609
0.00598682
0.00599499
0.00630991
0.00616383
0.00623943
0.00656243
0.00657524
0.00665649
0.00625075
0.00617233
0.00612265
0.00608968
0.00603525
0.00588799
0.00521128
0.00505263
0.00573692
0.00591264
0.00599003
0.00604345
0.00610754
0.0061922
0.0064374
0.00661902
0.00668675
0.006425
0.00633163
0.00618694
0.00597843
0.00592865
0.00591788
0.00591212
0.00588242
0.00572891
0.00504246
0.00324203
0.00332187
0.0019761
0.0019889
0.00229072
0.00240588
0.00236288
0.0021881
0.00213333
0.00367278
0.00418048
0.004446
0.0047896
0.00457526
0.00454857
0.00519796
0.00503066
0.00448197
0.00466442
0.00418534
0.00398804
0.00385767
0.00388004
0.00203968
0.00220099
0.00229587
0.00225788
0.00215911
0.00192587
0.00176612
0.00322333
0.00319973
0.00315812
0.00187784
0.00183661
0.00216371
0.0021012
0.00192212
0.0016385
0.00179628
0.00277404
0.00310257
0.00481155
0.00498397
0.00533488
0.00570605
0.00584765
0.00588705
0.00591121
0.00593799
0.00599397
0.00605929
0.00607599
0.00607044
0.00611392
0.00610402
0.00610484
0.00607195
0.00603466
0.00599162
0.00594591
0.00587073
0.00571519
0.00534126
0.00497415
0.00560865
0.00565994
0.00576484
0.00587338
0.0059196
0.00592714
0.00590642
0.00586471
0.00581545
0.00575797
0.00575725
0.00592654
0.00596687
0.00599681
0.00597964
0.00595935
0.00595215
0.00592506
0.0058814
0.00577132
0.00566106
0.00561403
0.00551995
0.00566797
0.0057339
0.00574454
0.00580128
0.00589172
0.00591808
0.00591756
0.00587372
0.00583628
0.00578828
0.00571085
0.00561032
0.00527116
0.00533891
0.00542869
0.00554588
0.00565917
0.00575084
0.00580243
0.00580605
0.00575297
0.00571755
0.00571925
0.00567105
0.00569667
0.00572247
0.00569321
0.00568968
0.00569406
0.00562969
0.00551207
0.00534828
0.00517479
0.00503073
0.00495615
0.00483605
0.0052291
0.00537887
0.00551288
0.00563209
0.00573944
0.0058465
0.00587897
0.00586626
0.0057994
0.00576081
0.00575816
0.00570203
0.00569978
0.00575407
0.00575732
0.00578954
0.00584681
0.00583144
0.00575331
0.00555188
0.00535544
0.00518437
0.00502085
0.00484669
0.00479288
0.00487129
0.00480709
0.00487619
0.00504682
0.00526015
0.00544443
0.0055619
0.00559909
0.00563404
0.00568547
0.00567994
0.00564948
0.00563264
0.0055632
0.0055027
0.00542853
0.00526665
0.00506004
0.00487744
0.00481831
0.00491581
0.00501356
0.00492305
0.00457851
0.00476094
0.00493423
0.00510689
0.00535069
0.00563092
0.00575312
0.00579639
0.00576773
0.00574488
0.00574098
0.00568957
0.0056719
0.00571922
0.00572392
0.00574699
0.0057835
0.00574797
0.00564767
0.00530448
0.00489465
0.00469779
0.00458156
0.00442566
0.00494792
0.00505078
0.00492611
0.00484194
0.0049729
0.00512594
0.00528502
0.00539131
0.00543403
0.00549351
0.00557143
0.00560885
0.00555353
0.00548901
0.00540936
0.00536782
0.00536578
0.00533808
0.00523566
0.00511549
0.00497745
0.0051455
0.00524306
0.00514913
0.00466808
0.00474526
0.00486163
0.00493051
0.00531478
0.00564858
0.00572655
0.00572867
0.00569263
0.00566874
0.00566858
0.00563861
0.00558322
0.00557353
0.0055694
0.00563605
0.00572325
0.00577359
0.00579908
0.00555009
0.00509028
0.00501076
0.00480142
0.00470347
0.00521852
0.00527736
0.00515719
0.00504508
0.00528803
0.00539154
0.00542036
0.00539924
0.00534376
0.00530724
0.00537569
0.0054832
0.00540155
0.00505098
0.00473922
0.00489894
0.00493765
0.00492511
0.00485833
0.00474669
0.00450408
0.00502904
0.00553983
0.00558184
0.00504187
0.00504998
0.00488907
0.00455263
0.00499931
0.00523465
0.00528571
0.00526318
0.00517993
0.00498157
0.00526129
0.00550798
0.00546056
0.00494281
0.00320827
0.00325234
0.00327565
0.00327858
0.00323552
0.00322345
0.00317644
0.00315208
0.00307905
0.00300454
0.0029339
0.003129
0.00329739
0.00352313
0.00354191
0.00363523
0.00347899
0.00329392
0.00307603
0.00239516
0.00303907
0.00362492
0.00385247
0.00414381
0.00420358
0.00485145
0.005106
0.00524403
0.00514386
0.00412794
0.00350207
0.00279873
0.00182011
0.00113397
0.00133089
0.00138403
0.00145289
0.00177437
0.00328704
0.00167281
0.00232314
0.0018152
0.00313013
0.00164578
0.00102886
0.000680875
0.000864941
0.00102386
0.00103246
0.000991599
0.000827836
0.000652848
0.000667435
0.000624037
0.000663313
0.000598506
0.000685822
0.000640974
0.00089542
0.00134672
0.00152739
0.00156102
0.00126162
0.00142245
0.00118833
0.00137044
0.00122354
0.00133359
0.00127921
0.00156471
0.00171493
0.00164218
0.00164708
0.00144149
0.00100834
0.0011687
0.000918239
0.00110241
0.000843585
0.00108963
0.000934414
0.0012142
0.00125173
0.0012482
0.00120191
0.000918307
0.00108879
0.000857045
0.00104909
0.000858352
0.000911402
0.000758052
0.00109733
0.00111707
0.00102981
0.00109413
0.00122747
0.00131701
0.0014542
0.00138081
0.00157764
0.00152835
0.00155564
0.00147334
0.00143261
0.00139978
0.00140247
0.0013793
0.00138678
0.0014314
0.00143354
0.00143914
0.00148467
0.00146287
0.00142772
0.00140666
0.00124953
0.00100797
0.0017557
0.00181061
0.00183715
0.00183643
0.00179443
0.00177453
0.0017136
0.00169733
0.00164422
0.00161282
0.00154164
0.00148287
0.00141612
0.00159171
0.000890549
0.00101113
0.00106752
0.00109912
0.00112133
0.0011315
0.00113989
0.00113359
0.00111964
0.00109189
0.00108234
0.00105215
0.00134651
0.00153168
0.00160094
0.00161945
0.00151807
0.0014455
0.00315907
0.00382255
0.00581529
0.00594436
0.00446126
0.00444821
0.00154009
0.00162409
0.00111079
0.00156105
0.00160963
0.00159333
0.00150534
0.00108588
0.0016295
0.00113488
0.00152923
0.00114427
0.00141611
0.00116094
0.00164563
0.00209598
0.00202118
0.00183028
0.00124489
0.00103591
0.00103309
0.000885516
0.000971909
0.000804907
0.000990717
0.000839202
0.00125048
0.00178304
0.00197212
0.00201179
0.00158639
0.00218859
0.00164531
0.00238162
0.00188985
0.00233003
0.00186961
0.00216486
0.00267872
0.0026907
0.00262697
0.00211736
0.00169748
0.00190501
0.00168792
0.00194365
0.00280869
0.00184086
0.0027908
0.00115363
0.0015724
0.00162062
0.00159835
0.00150711
0.00101567
0.00258693
0.0013677
0.00243735
0.00157675
0.00253318
0.0018324
0.00242009
0.00289287
0.00302015
0.00300542
0.00245363
0.00220671
0.00227336
0.00181427
0.00217747
0.00162926
0.00236812
0.0013507
0.00175816
0.00194772
0.0020509
0.00205975
0.00169383
0.00334431
0.00209928
0.00316875
0.00220256
0.00282193
0.00226169
0.0024753
0.00292306
0.00290515
0.00288109
0.00244327
0.00197665
0.00260869
0.00186162
0.0552572
0.12785
0.0508221
0.129216
0.058513
0.0830616
0.0818559
0.0820377
0.0823477
0.0618321
0.134933
0.159412
0.166244
0.168253
0.166982
0.269849
0.219998
0.330573
0.214285
0.126008
0.054553
0.0752769
0.194484
0.321301
0.482144
0.611855
0.416919
0.431587
0.275412
0.271562
0.255652
0.206783
0.126696
0.0635078
0.0109248
0.0119564
0.0171044
0.022759
0.0179257
0.0109928
0.00217387
0.00224404
0.00229561
0.0023286
0.00232261
0.00227599
0.00231537
0.00219059
0.00206434
0.00231264
0.00252147
0.00266545
0.00314925
0.0034832
0.00314017
0.00344251
0.00364854
0.00381666
0.00395602
0.00416324
0.00439637
0.00460049
0.00461119
0.00422472
0.0036001
0.00292821
0.00246121
0.0023318
0.00218978
0.00193106
0.00176655
0.00165437
0.0016
0.0015774
0.00162096
0.00177146
0.00190194
0.00194765
0.00190921
0.00187424
0.00184373
0.00164178
0.00191958
0.00263314
0.00265386
0.0045467
0.00523917
0.00534818
0.00535571
0.0047476
0.00303269
0.00303932
0.00305487
0.00311298
0.00312518
0.00313311
0.00312989
0.00311903
0.0031009
0.00306725
0.00305033
0.00300096
0.00295929
0.00285495
0.00285956
0.00289558
0.00292446
0.00287634
0.00288776
0.00282782
0.00368215
0.00492179
0.00555201
0.00580196
0.00601766
0.0058406
0.00809316
0.00692241
0.0048608
0.00478381
0.00472471
0.00560287
0.00564167
0.00510024
0.00512144
0.00466921
0.00291527
0.00290845
0.00291047
0.0031143
0.00317604
0.00328357
0.00331352
0.00333916
0.00335488
0.00334744
0.0033451
0.00331437
0.00329184
0.00321661
0.00319165
0.00318086
0.00175361
0.00191412
0.00198613
0.00199971
0.00202938
0.00201726
0.00200567
0.00198154
0.00196619
0.0019331
0.00189516
0.0018383
0.00172786
0.00157369
0.00173167
0.0029379
0.00293652
0.00478477
0.00540464
0.0054444
0.00605412
0.00574717
0.00544272
0.00583925
0.00526768
0.00522595
0.00472798
0.00293588
0.00297614
0.00176672
0.00175197
0.00204893
0.00199298
0.00213001
0.00218877
0.00219536
0.00222581
0.00225429
0.00229019
0.00234845
0.00236544
0.00232761
0.00232015
0.00218487
0.00188764
0.00190984
0.00225212
0.00236299
0.00219454
0.00215697
0.00214051
0.00208779
0.00204796
0.00201004
0.00203611
0.00219224
0.00218908
0.00214964
0.00204512
0.00199067
0.00172487
0.00166529
0.00291176
0.00295982
0.0049011
0.00500326
0.00496089
0.00571875
0.00638731
0.00726655
0.00620317
0.00504712
0.00528203
0.00604347
0.00450106
0.0037736
0.00224623
0.00167739
0.00210682
0.00192503
0.00200807
0.00208045
0.0018478
0.00198621
0.00183669
0.00166918
0.00165994
0.00165811
0.00169897
0.00171627
0.00174747
0.00175176
0.00179453
0.00179051
0.00179548
0.00181735
0.00182637
0.00201788
0.00219262
0.00184567
0.00156484
0.00152503
0.00144011
0.00137119
0.00140459
0.00137054
0.00136207
0.00133695
0.00131416
0.001254
0.00130662
0.00138641
0.00162187
0.00155207
0.0012545
0.00112095
0.00076609
0.000781679
0.000787089
0.000811268
0.000820203
0.000831157
0.000835265
0.00084891
0.000851593
0.00085594
0.000855626
0.000876617
0.000873647
0.000863607
0.000857128
0.000861239
0.000865165
0.000864547
0.00126606
0.00140973
0.00153968
0.00182865
0.00215173
0.00185239
0.00157017
0.00135347
0.000869993
0.000883018
0.000899143
0.00090745
0.000926805
0.000944386
0.000964023
0.000976368
0.000985641
0.000995294
0.0010055
0.00100951
0.00100699
0.000987439
0.000975948
0.00100063
0.00109977
0.0011574
0.0012314
0.00125933
0.0012829
0.00129445
0.00128859
0.00130226
0.00128721
0.00128521
0.0012636
0.00125447
0.00124585
0.00123486
0.0012211
0.00118677
0.00117543
0.00123654
0.00209525
0.00274148
0.00315732
0.00347802
0.0032227
0.00262169
0.00274759
0.00483407
0.00458235
0.00269827
0.0025225
0.00233218
0.00204364
0.0017701
0.00213555
0.00243837
0.00266737
0.00286798
0.00305162
0.00317655
0.0033372
0.00354679
0.00391636
0.00396276
0.00361437
0.00292864
0.00247906
0.00231553
0.00223729
0.00210073
0.0019514
0.0020002
0.00201455
0.00195452
0.00187995
0.00185871
0.00188946
0.00192866
0.00190555
0.00190485
0.00170178
0.00170116
0.00290683
0.00296157
0.00455555
0.00479998
0.00484645
0.00311605
0.00307324
0.00179501
0.00166702
0.00181859
0.00188785
0.00189174
0.00189938
0.00188965
0.00185661
0.00183241
0.00180429
0.00178136
0.00176112
0.00172616
0.00165956
0.00153275
0.00167012
0.00187295
0.00195609
0.00197778
0.00198822
0.00201972
0.00207118
0.00211246
0.00220822
0.0022181
0.00221726
0.00222512
0.00207976
0.0021449
0.00181525
0.0018127
0.00314198
0.00313351
0.00180007
0.00212567
0.00214002
0.00211553
0.00227745
0.00208404
0.00201791
0.00200702
0.00192192
0.00187665
0.00181633
0.00178019
0.00181486
0.0019304
0.00186885
0.00165612
0.00159585
0.0017905
0.00172292
0.00142946
0.00122134
0.00118781
0.00113709
0.00110635
0.00115969
0.00120126
0.00122499
0.00125511
0.00126406
0.00131942
0.00128379
0.00134726
0.00142876
0.00149367
0.00177181
0.00192
0.00173453
0.00170121
0.00168011
0.00167819
0.00168346
0.00161399
0.00160939
0.0015735
0.00155582
0.00150892
0.00148769
0.00146068
0.00146541
0.00148077
0.00162782
0.00419647
0.00535046
0.00557058
0.00951061
0.00384248
0.00392331
0.00768631
0.00318347
0.00478452
0.00512647
0.0053624
0.00560141
0.00512449
0.00650586
0.00454519
0.00506385
0.00527833
0.00461777
0.00173216
0.00197953
0.00227872
0.00203213
0.00179478
0.00122313
0.00131852
0.00136146
0.0013964
0.00141894
0.00144419
0.0014712
0.00149659
0.00151439
0.00151464
0.00146857
0.00141891
0.0013048
0.0012668
0.00131588
0.00136664
0.00120021
0.00113003
0.0011434
0.00116226
0.00117285
0.00117514
0.00118669
0.00118982
0.00120805
0.00119834
0.00120753
0.0011869
0.00119742
0.00118176
0.00114142
0.00108483
0.000988578
0.000965026
0.00138997
0.00148008
0.00155477
0.0017642
0.00203691
0.0021735
0.00194802
0.00179633
0.00172428
0.00191273
0.00191359
0.00347728
0.00667683
0.00298894
0.00334928
0.00976667
0.00388116
0.00301725
0.00306299
0.00309527
0.00309961
0.00180126
0.00213352
0.00206882
0.00207716
0.00176173
0.00147911
0.00132658
0.00118608
0.000804251
0.00080159
0.000807642
0.000819987
0.000823821
0.000788524
0.000788428
0.000783915
0.000782146
0.000765532
0.000760891
0.000747387
0.00073918
0.00071975
0.000709201
0.000690703
0.000687513
0.000718203
0.000799421
0.000966469
0.00107467
0.00122218
0.00124421
0.00139906
0.00346435
0.00401963
0.00553916
0.00549632
0.00867124
0.00541681
0.00409097
0.00369542
0.00540837
0.00558721
0.00517928
0.00701834
0.0048559
0.00321559
0.00485461
0.00404378
0.0047625
0.00467934
0.00496843
0.00789958
0.00832034
0.00234054
0.00208624
0.00219429
0.00248955
0.00295602
0.00272407
0.0031023
0.00310369
0.00239898
0.0015203
0.00484445
0.00583645
0.00469753
0.00565303
0.00872266
0.00349972
0.00341285
0.00301952
0.00252036
0.00229069
0.00226025
0.00252029
0.00301577
0.00755378
0.00807964
0.00746724
0.00744741
0.00675223
0.00740808
0.00924527
0.00919918
0.00812972
0.00760668
0.00788373
0.0048933
0.00303134
0.00353226
0.00391633
0.00522666
0.00538804
0.0113869
0.00385993
0.00426375
0.00433107
0.00579554
0.0056093
0.00992058
0.00420079
0.00453061
0.00597094
0.00798328
0.0147298
0.00536958
0.00565722
0.00814074
0.00826505
0.00755273
0.00545404
0.00494097
0.00538567
0.00405681
0.00396588
0.00338395
0.00499677
0.00673073
0.00532112
0.00516683
0.00439494
0.00391089
0.00400673
0.00415843
0.00345354
0.00340525
0.00393031
0.00291694
0.00282327
0.0029852
0.000829021
0.000424817
0.000434264
0.000445531
0.000454701
0.000464142
0.000471057
0.000479246
0.000482957
0.000483355
0.00048458
0.000512497
0.000507768
0.000491718
0.000446493
0.000509508
0.000808564
0.000809125
0.000508951
0.000448685
0.000805076
0.0012829
0.00151254
0.00178937
0.00181157
0.0015631
0.00135516
0.000834059
0.000820962
0.000497605
0.000581151
0.000631103
0.000559748
0.000624688
0.000578986
0.000613272
0.000619587
0.000573215
0.000570033
0.000572235
0.000567846
0.000557747
0.000545405
0.000530385
0.00051861
0.000512279
0.000507481
0.000496799
0.000412346
0.00038456
0.000463155
0.000739354
0.000738404
0.000691903
0.000651823
0.000617454
0.000601617
0.000597031
0.000593637
0.000603974
0.000623516
0.000629034
0.000634552
0.000683787
0.000662526
0.000707649
0.000664129
0.000709551
0.000666003
0.000612672
0.000514433
0.000530771
0.000856278
0.000865396
0.00139834
0.00159976
0.00181401
0.00182335
0.00203521
0.00214327
0.00181491
0.00188422
0.00215951
0.00201136
0.00179306
0.00180007
0.00161933
0.00162083
0.00143571
0.00089719
0.000884989
0.000555788
0.000539746
0.000643593
0.000632319
0.000703235
0.000752598
0.000752817
0.000750372
0.000731399
0.000724613
0.000637193
0.000624695
0.00062552
0.000606612
0.000602711
0.000628881
0.000687081
0.000807042
0.000976337
0.00106288
0.00109957
0.00105402
0.000943533
0.00069698
0.000629328
0.00109138
0.00113203
0.00203144
0.00481419
0.0022479
0.00427917
0.00308886
0.000767664
0.000856166
0.00109176
0.00122332
0.00132094
0.0013772
0.00125924
0.00105106
0.000791438
0.000653443
0.000974934
0.000842969
0.000951696
0.000831142
0.00107574
0.0012438
0.00120327
0.00121235
0.00102459
0.000834631
0.000883876
0.000793518
0.000874616
0.000732207
0.000880939
0.000795417
0.000999551
0.00100892
0.000987915
0.000936407
0.000712992
0.000748062
0.000627466
0.000680669
0.000611082
0.000631589
0.000598461
0.000697934
0.000804232
0.000771835
0.000768807
0.000631681
0.000494962
0.00054666
0.000472685
0.00053498
0.000415768
0.000503661
0.000422389
0.000546813
0.000563793
0.00056704
0.0005638
0.000459057
0.00053967
0.000660684
0.000693324
0.00069884
0.000665681
0.000513089
0.000793972
0.000716694
0.000875074
0.000756972
0.00082855
0.000754557
0.000879504
0.00112639
0.00117602
0.00118386
0.000960494
0.000954345
0.00174136
0.0965053
0.00156639
0.0018513
0.00190898
0.00190208
0.00157261
0.00153444
0.00190041
0.00140597
0.00199087
0.0012536
0.0021231
0.000809376
0.00123023
0.00132079
0.00131798
0.00122491
0.000821587
0.00243018
0.11915
0.308034
0.334284
0.333727