/*--------------------------------*- C++ -*----------------------------------*\
| =========                 |                                                 |
| \\      /  F ield         | OpenFOAM: The Open Source CFD Toolbox           |
|  \\    /   O peration     | Version:  v2012                                 |
|   \\  /    A nd           | Website:  www.openfoam.com                      |
|    \\/     M anipulation  |                                                 |
\*---------------------------------------------------------------------------*/
FoamFile
{
    version     2.0;
    format      ascii;
    class       volScalarField;
    location    "570";
    object      k;
}
// * * * * * * * * * * * * * * * * * * * * * * * * * * * * * * * * * * * * * //

dimensions      [0 2 -2 0 0 0 0];


internalField   nonuniform List<scalar> 
18258
(
0.0335508
0.0158083
0.0123507
0.0101954
0.011001
0.014016
0.0168158
0.0211883
0.0256129
0.0315522
0.0386194
0.0475504
0.05355
0.0606979
0.063661
0.06193
0.0520389
0.0472822
0.0564335
0.0809532
0.0711117
0.0514173
0.0623815
0.0615248
0.0722284
0.0762943
0.060048
0.0548513
0.0494468
0.0437682
0.0371963
0.0229903
0.0241188
0.0288951
0.0320972
0.0357986
0.0386429
0.0409539
0.0426105
0.0434251
0.043328
0.0420341
0.0393505
0.0353333
0.029905
0.0239687
0.0237853
0.0236138
0.029301
0.0349646
0.0404447
0.0460539
0.0544843
0.0446157
0.0290253
0.0391627
0.0476291
0.0545204
0.0589558
0.0614145
0.0621867
0.0612809
0.0589968
0.055741
0.0517818
0.0474434
0.0434249
0.0394381
0.0341942
0.0309326
0.0268204
0.0234756
0.0210349
0.0193222
0.0182034
0.0172002
0.0163346
0.0156014
0.0149854
0.014562
0.0144698
0.0144946
0.0145935
0.0146886
0.0150302
0.0126833
0.0109141
0.0104463
0.0101927
0.00954463
0.00809237
0.0106456
0.0117513
0.0121682
0.012439
0.0136141
0.0147684
0.0143466
0.0136212
0.0125044
0.0126246
0.0170792
0.0178378
0.0228856
0.0217223
0.0169305
0.0148565
0.0166436
0.0194705
0.0225115
0.0192509
0.0192267
0.0179274
0.0170247
0.0148776
0.0149121
0.0143963
0.0140898
0.0150071
0.0177679
0.0171798
0.0172937
0.0185126
0.018834
0.0200591
0.0210757
0.0204169
0.0202352
0.0163802
0.0162806
0.0173214
0.0171956
0.0176752
0.0201722
0.0202294
0.0205743
0.020791
0.0235843
0.0236031
0.0235707
0.0236618
0.0245039
0.0235392
0.023126
0.0231528
0.0231879
0.0210155
0.0207925
0.0204284
0.0204666
0.0182977
0.0175615
0.0182933
0.0192729
0.0212465
0.0249929
0.0314275
0.0403496
0.0504451
0.0606856
0.0684551
0.0728083
0.0771731
0.0766212
0.0773212
0.0794135
0.079782
0.078641
0.0767887
0.0746247
0.0716709
0.0670315
0.0665451
0.0589005
0.0480325
0.0333657
0.0388532
0.0416821
0.0444338
0.0447515
0.045246
0.0440535
0.0423177
0.0387495
0.0336614
0.0247808
0.0256911
0.0301463
0.0348196
0.0386157
0.042787
0.0464325
0.0483018
0.0500242
0.0594121
0.0571309
0.0552122
0.0568967
0.0584645
0.0616762
0.060117
0.0561711
0.05019
0.0518202
0.0449169
0.0335548
0.031338
0.0292165
0.0269669
0.0378744
0.0496507
0.0611307
0.0674133
0.0735367
0.0783357
0.0823352
0.0868377
0.0814058
0.0762842
0.057631
0.0836095
0.0655586
0.0503522
0.041045
0.0330867
0.0317683
0.0344665
0.0344754
0.0326457
0.028096
0.0220747
0.0229649
0.0358654
0.0456568
0.0536546
0.0552177
0.0599093
0.0623441
0.0570754
0.0576494
0.046842
0.0480696
0.0514177
0.0460112
0.0437429
0.0351323
0.0274208
0.0335303
0.049878
0.0684272
0.0842475
0.0992414
0.065787
0.0500102
0.0409475
0.034106
0.0329866
0.0376245
0.0435616
0.0527134
0.0411786
0.0371088
0.0335863
0.0307062
0.0258245
0.0275569
0.028795
0.0269648
0.0498473
0.0572539
0.0609167
0.0833028
0.0922254
0.108158
0.106812
0.0924065
0.0961047
0.0689207
0.0686182
0.0858993
0.0680282
0.0512218
0.0614894
0.0744233
0.0882703
0.101457
0.11278
0.121858
0.123551
0.112054
0.0812419
0.0467762
0.0212897
0.0186438
0.0180926
0.0173844
0.0164968
0.0156973
0.0150746
0.0121278
0.00950135
0.00927952
0.00946018
0.00940592
0.0082638
0.00951577
0.0115795
0.0137722
0.0152809
0.0164904
0.0175112
0.0182457
0.0188346
0.0192335
0.0195306
0.0197986
0.0200341
0.02022
0.0203577
0.0204477
0.020489
0.0204736
0.0203952
0.0202524
0.0200439
0.0197534
0.0192781
0.0177488
0.0158999
0.0150743
0.0151333
0.014884
0.0145826
0.0119495
0.0123206
0.0143402
0.0149716
0.0177587
0.0197912
0.0214908
0.0229408
0.0244627
0.0252359
0.0260597
0.0263208
0.0263684
0.0262629
0.0261072
0.0258773
0.025569
0.0245016
0.0212708
0.0248736
0.0272706
0.0289664
0.0303254
0.0312364
0.0313416
0.028586
0.0360717
0.0385232
0.0394281
0.0396941
0.0388744
0.0368657
0.0344201
0.0323673
0.03086
0.0297427
0.0276005
0.0253535
0.0230446
0.0206292
0.0174077
0.018679
0.0205146
0.0207244
0.0204329
0.0214781
0.022736
0.0210804
0.018988
0.016105
0.0151089
0.0146226
0.0144357
0.0148468
0.0144994
0.0143936
0.0148889
0.0178936
0.0189862
0.0206855
0.023943
0.0228112
0.0208698
0.028041
0.0296504
0.0300979
0.0304467
0.0303527
0.0295936
0.0265221
0.025066
0.0264533
0.0249979
0.0243673
0.0244573
0.0240902
0.0222269
0.0245272
0.0265278
0.0281185
0.0289663
0.0302043
0.0317587
0.0339198
0.0357144
0.0373748
0.0383785
0.0383537
0.0378088
0.0379801
0.0386166
0.0382844
0.0365979
0.034523
0.0324308
0.0294691
0.0292998
0.0312706
0.0328328
0.0344936
0.0362701
0.0355952
0.0337036
0.0320768
0.0306572
0.0289502
0.0288347
0.0305085
0.0319517
0.0336926
0.0358189
0.0360023
0.0338531
0.0320314
0.0305268
0.0288261
0.0287974
0.030496
0.0320092
0.0337364
0.0356306
0.0347611
0.0332853
0.03176
0.0302916
0.0286288
0.0281942
0.0297967
0.0311795
0.0324956
0.0335647
0.0318907
0.031298
0.0302265
0.0288373
0.027081
0.025828
0.0263364
0.0277223
0.0278333
0.0283134
0.0294322
0.0292801
0.0289979
0.0289544
0.0286729
0.0264272
0.0268342
0.0268819
0.0275732
0.0308696
0.0303884
0.0330556
0.0354633
0.0331559
0.0316708
0.0281094
0.033661
0.0337017
0.0346612
0.0334883
0.0237278
0.0218765
0.0228768
0.0244064
0.026044
0.0253506
0.0226052
0.022534
0.0231348
0.0225454
0.0209816
0.0180023
0.0135293
0.0135375
0.0135282
0.0142608
0.0170604
0.0186583
0.0187713
0.0186183
0.0183181
0.017848
0.017132
0.0160606
0.0156244
0.0246808
0.0448266
0.0564751
0.0558576
0.0424828
0.0356004
0.026272
0.0181406
0.0107961
0.0107579
0.0114094
0.0137482
0.0115652
0.0106596
0.0147039
0.0119005
0.0198472
0.0229913
0.0302625
0.0413575
0.0399664
0.0303792
0.0204552
0.018441
0.0193002
0.0198159
0.0202014
0.0205803
0.0209626
0.021378
0.0218839
0.0215541
0.0189248
0.016685
0.0168095
0.0173809
0.0198821
0.0212635
0.0220589
0.0217313
0.0219855
0.0237009
0.022459
0.0212313
0.0210202
0.0203124
0.0231486
0.0234976
0.0228762
0.0228828
0.0231637
0.0230471
0.0231795
0.0239819
0.0197945
0.0219087
0.0224597
0.0227417
0.0235345
0.0190447
0.0192346
0.0192997
0.01815
0.0148746
0.0179979
0.016758
0.0121588
0.0134717
0.0134373
0.0140506
0.0143768
0.017127
0.0162932
0.0155642
0.0163277
0.0222994
0.0231046
0.0232824
0.0206403
0.019395
0.0218824
0.0224717
0.0220152
0.021127
0.0212899
0.0203462
0.0184453
0.0177264
0.0178635
0.019273
0.0200708
0.0201401
0.0237439
0.0232416
0.0216823
0.0226731
0.0232693
0.0228613
0.0227526
0.0226981
0.0223247
0.0219058
0.0223204
0.0225091
0.0225609
0.0221204
0.0223687
0.0249936
0.0214559
0.0212626
0.0201796
0.0195225
0.0178951
0.0176426
0.0177405
0.0177002
0.0176055
0.0167677
0.0186251
0.0178983
0.0200316
0.0216431
0.0227927
0.0239619
0.0241106
0.0236803
0.0236395
0.0232557
0.0232209
0.0226726
0.0218278
0.0212445
0.0204712
0.0192636
0.0192559
0.0192062
0.019062
0.0204666
0.0203655
0.0219291
0.0230481
0.0227623
0.0217985
0.0216898
0.0205145
0.0204917
0.021532
0.0224194
0.0226688
0.0235255
0.026042
0.0237153
0.0252653
0.0259672
0.0266278
0.0260196
0.0249243
0.0256741
0.0240127
0.0229011
0.0242173
0.0249398
0.0262002
0.0269948
0.0250182
0.0239905
0.0227945
0.0219328
0.0209491
0.0184271
0.019037
0.0198248
0.0210552
0.0228691
0.0255885
0.0283217
0.0312393
0.0312953
0.0289987
0.0273038
0.0321014
0.0315773
0.036545
0.0371449
0.0330239
0.0302224
0.0273119
0.0268854
0.0259662
0.0254314
0.0241612
0.0254088
0.0258294
0.0248866
0.027354
0.0289258
0.0332568
0.038816
0.0354792
0.0326549
0.0377152
0.0366328
0.0425899
0.0363715
0.0347174
0.0285756
0.033183
0.0355411
0.043277
0.0338705
0.0296897
0.0294708
0.0307971
0.0382782
0.0368181
0.0394077
0.0445696
0.0439085
0.0390363
0.035802
0.0415517
0.0315935
0.0370289
0.0390385
0.0324209
0.0321803
0.0390498
0.0396676
0.0398311
0.0337539
0.0330276
0.0250142
0.0335654
0.0400408
0.0399497
0.0331727
0.0259762
0.035874
0.0315134
0.0313127
0.0313145
0.0269164
0.0268469
0.0261458
0.026399
0.0271038
0.0246805
0.0254793
0.0257344
0.0258926
0.0260192
0.0262069
0.0265473
0.0271875
0.0279102
0.0228618
0.0242924
0.0229544
0.0216237
0.0202825
0.0240595
0.0265371
0.0283455
0.0298001
0.0309327
0.0314099
0.0299765
0.0379619
0.0396812
0.041305
0.0414634
0.0402451
0.0376169
0.0342065
0.0307688
0.0286029
0.0272784
0.0247816
0.0226503
0.0205737
0.0184174
0.0156084
0.0142828
0.0129752
0.0116272
0.0113145
0.0107965
0.010216
0.00956305
0.00924118
0.0116154
0.0174224
0.0274101
0.0326588
0.0381535
0.0448684
0.0516299
0.0571506
0.0612304
0.0640696
0.0658035
0.0662399
0.0635875
0.0526383
0.0475879
0.0426757
0.0377164
0.0327235
0.0320543
0.0411552
0.0494743
0.0565299
0.0629065
0.0670807
0.0654775
0.0499775
0.0467088
0.0621816
0.0896308
0.0803872
0.10331
0.119771
0.0793463
0.0647963
0.064167
0.0795813
0.0820628
0.075387
0.0663606
0.0564398
0.0454623
0.0505033
0.0553115
0.0599088
0.0645251
0.0778949
0.0804201
0.0792433
0.0768378
0.0735972
0.0690021
0.0620951
0.0532343
0.0440771
0.0363079
0.0292035
0.0186469
0.0127813
0.0136365
0.0131243
0.0141325
0.0140326
0.0100611
0.0104138
0.0106314
0.0105632
0.0103102
0.010376
0.0117742
0.0183477
0.0150795
0.013723
0.0118217
0.0145443
0.0164375
0.0182952
0.0188947
0.0190734
0.0197142
0.0329419
0.0436919
0.0496922
0.0545561
0.0582249
0.0568614
0.0532503
0.0470499
0.0396908
0.0370191
0.0330232
0.0296929
0.0280212
0.0289971
0.0254493
0.0157569
0.0146739
0.0157448
0.0154208
0.0144224
0.0163765
0.0176015
0.0183814
0.0190122
0.0194834
0.0198456
0.0201038
0.0202749
0.0203644
0.0203906
0.020368
0.0203013
0.0201895
0.0200299
0.0198121
0.019506
0.0189858
0.0172727
0.0154314
0.0147134
0.0147966
0.0145646
0.0142
0.0123219
0.0125492
0.0144089
0.015013
0.0146239
0.0152176
0.0156905
0.0168983
0.0190687
0.0212065
0.0230455
0.0217362
0.0210794
0.0210526
0.02065
0.0175002
0.020817
0.0236847
0.0241972
0.0244663
0.0252849
0.0268821
0.0278394
0.0269052
0.026405
0.0258749
0.0227967
0.0244353
0.0279543
0.028368
0.0290372
0.0296317
0.0302004
0.0314953
0.0308681
0.029989
0.0293962
0.0265754
0.025701
0.0316724
0.0207208
0.0145804
0.0104963
0.0108935
0.0111089
0.0107911
0.011574
0.0121223
0.0123692
0.0117272
0.0128059
0.013717
0.0129844
0.0155487
0.014855
0.0138551
0.0133921
0.0141843
0.0149282
0.0153147
0.0163942
0.0265095
0.027319
0.0228265
0.0293685
0.031935
0.02905
0.0319441
0.0295985
0.0282682
0.0310598
0.0344382
0.0356702
0.0333233
0.0319481
0.0312896
0.0208534
0.0201675
0.0194459
0.0175947
0.0178804
0.0174244
0.0169692
0.0165619
0.0190813
0.0204778
0.0216445
0.0213455
0.0210526
0.0206558
0.0209851
0.0250037
0.0329792
0.043469
0.0469562
0.0457405
0.0417836
0.0348055
0.0283653
0.0279965
0.0261323
0.0249573
0.0247233
0.0187777
0.0149075
0.0174557
0.0173783
0.01845
0.0191285
0.0196642
0.0200929
0.0204516
0.0207628
0.0210647
0.0213444
0.0215884
0.0217932
0.0219681
0.0221122
0.022266
0.0224511
0.0227069
0.0229109
0.0212692
0.0186385
0.0172893
0.0171418
0.0178589
0.0187634
0.0198903
0.0191322
0.0154084
0.0154858
0.0219089
0.0223682
0.0210012
0.019578
0.0197803
0.0189396
0.0227595
0.0225659
0.02337
0.0231706
0.022894
0.0226152
0.0223364
0.0220471
0.0217567
0.0215017
0.0212688
0.0210514
0.0208372
0.0206037
0.0203236
0.0199134
0.0192242
0.0184222
0.0169009
0.0180164
0.0193037
0.0210023
0.0228087
0.0236525
0.022775
0.0215991
0.0211201
0.0213645
0.0216735
0.0220028
0.0223546
0.0227649
0.0231783
0.0235655
0.0235068
0.0221703
0.0228142
0.0174853
0.0183377
0.0186369
0.018595
0.0202526
0.0193886
0.0146672
0.0151863
0.0159152
0.0172031
0.0197967
0.0201623
0.0215188
0.0217484
0.0173401
0.0170359
0.016609
0.0176118
0.0152408
0.015883
0.0266392
0.0272408
0.0349918
0.0383581
0.0399551
0.0331492
0.045617
0.0524797
0.0506118
0.0409256
0.0235254
0.0346781
0.0421939
0.0488562
0.0458015
0.0356433
0.0449672
0.0474143
0.0633538
0.0590111
0.0526417
0.0633943
0.0447781
0.0269587
0.0158366
0.0164074
0.0152049
0.0306884
0.0347997
0.0315043
0.0323562
0.0399916
0.041004
0.0362663
0.034565
0.03632
0.0358696
0.0398354
0.0371408
0.0337446
0.0233211
0.0190412
0.0198834
0.021295
0.0231239
0.0254675
0.0253631
0.0242176
0.0228501
0.0218726
0.0208161
0.0183176
0.0176576
0.0196185
0.0212485
0.022627
0.0241371
0.0249577
0.0257986
0.0259629
0.0258542
0.0255309
0.0251026
0.0245482
0.0238646
0.022455
0.0236943
0.0243792
0.0245873
0.0248634
0.0251738
0.025448
0.0255873
0.0254707
0.0245191
0.023707
0.0225384
0.0214205
0.0198137
0.0176965
0.018379
0.0201388
0.0217398
0.0228544
0.0239057
0.0235162
0.0240088
0.0246677
0.0246935
0.024515
0.0242942
0.0241465
0.0242413
0.0248726
0.0265779
0.0262695
0.0290601
0.030246
0.027683
0.0263571
0.0256695
0.0252497
0.0250107
0.0248113
0.0246192
0.0240813
0.0235418
0.0240355
0.0242812
0.0245704
0.0249199
0.0254183
0.0261025
0.0271909
0.0285946
0.0284742
0.0262879
0.0261639
0.0251136
0.0243284
0.023948
0.0238918
0.0239323
0.0240305
0.0239641
0.0234409
0.0231106
0.0235149
0.0225018
0.0225669
0.021594
0.0202339
0.0187924
0.0173404
0.0166781
0.0353373
0.035319
0.0458305
0.0424919
0.0371609
0.0472338
0.0602394
0.0522168
0.0629345
0.0667282
0.0542271
0.0503618
0.027926
0.0244344
0.0174134
0.0189392
0.0202852
0.021491
0.0213077
0.0222304
0.0221131
0.0230839
0.0225397
0.0217542
0.0212044
0.020187
0.0202421
0.0189698
0.0174242
0.0172915
0.0189408
0.0199924
0.0211723
0.0211698
0.0226319
0.0231366
0.0235419
0.0237019
0.0237007
0.023798
0.0239745
0.0244258
0.0251366
0.0255948
0.0257234
0.026094
0.0258329
0.0255181
0.0250682
0.0247645
0.024453
0.0241804
0.0238925
0.0236206
0.0231949
0.0225424
0.0224256
0.0229357
0.0232712
0.0235003
0.0236303
0.0236076
0.0234109
0.023093
0.0227738
0.0224205
0.022483
0.0238242
0.0240759
0.0242147
0.0240047
0.0238297
0.0238047
0.0236713
0.0235615
0.0233208
0.0229431
0.0224681
0.0213974
0.0215002
0.0223854
0.0228355
0.0231746
0.0234654
0.0234999
0.0234273
0.0230525
0.0227546
0.0223951
0.0218215
0.0210771
0.0186062
0.0190726
0.0197001
0.0205482
0.0214009
0.0221278
0.0225928
0.02279
0.0227922
0.0226235
0.0222734
0.0215257
0.0215077
0.0220467
0.022212
0.0221565
0.0218462
0.0212195
0.0202845
0.0190692
0.0178411
0.0168584
0.0163633
0.0155819
0.0182179
0.0192734
0.0202442
0.0211328
0.0219593
0.0228183
0.0231381
0.0231858
0.0230181
0.0227421
0.0223211
0.0215448
0.021553
0.0222623
0.0226606
0.0228865
0.0229866
0.0227218
0.0220501
0.0205
0.0190607
0.0178567
0.0167475
0.0156066
0.0152615
0.0157642
0.0153523
0.0158023
0.0169408
0.0184336
0.0198074
0.0208021
0.0214062
0.0216992
0.0217333
0.0214056
0.0212248
0.0213496
0.021147
0.0206483
0.0197791
0.0184931
0.0170161
0.0157842
0.0153931
0.0160187
0.0166629
0.0160684
0.0138974
0.0150255
0.0161386
0.0172921
0.0189952
0.0210718
0.022067
0.0225515
0.0226888
0.0225576
0.0221853
0.0215276
0.0214711
0.0220996
0.0224635
0.0225721
0.0224754
0.0220414
0.0212113
0.0186869
0.0159032
0.0146408
0.0139155
0.0129778
0.0162226
0.0169126
0.0160994
0.015563
0.0164248
0.017474
0.0186335
0.0195274
0.0201723
0.0206767
0.0209543
0.0209849
0.0207115
0.0205939
0.0203714
0.0200243
0.019682
0.0193377
0.0185552
0.0177177
0.0167479
0.0178103
0.018372
0.0176226
0.0144825
0.0150477
0.0158976
0.0164322
0.0191229
0.0215964
0.0222556
0.0224392
0.0225351
0.0223975
0.0219987
0.0213813
0.0212556
0.0218945
0.0223825
0.0226895
0.0229935
0.0232252
0.0233939
0.0214991
0.0181592
0.0173628
0.015611
0.0147691
0.018182
0.0188614
0.0183943
0.01784
0.01952
0.0202231
0.0204689
0.0204595
0.0203869
0.0202956
0.0203151
0.0204303
0.0201304
0.0200056
0.0201088
0.0203262
0.0202841
0.0200642
0.0194957
0.0187276
0.0176254
0.019467
0.021125
0.020856
0.0170152
0.0175528
0.0183998
0.018003
0.0207619
0.0226252
0.0231113
0.0230488
0.0227299
0.0222515
0.0217058
0.0210659
0.0207842
0.0213493
0.0219217
0.0219562
0.0220585
0.0220156
0.0214527
0.0212873
0.0207121
0.0204402
0.019676
0.0190914
0.0183443
0.0205028
0.0237177
0.0259315
0.0275162
0.0294093
0.0279491
0.0244227
0.022147
0.0152678
0.0152739
0.0154903
0.0148656
0.014491
0.0143079
0.0187523
0.0215024
0.0241966
0.0259254
0.0235021
0.0234743
0.0233926
0.0232764
0.0231585
0.0230468
0.0228265
0.0234607
0.0407356
0.282521
0.208512
0.234543
0.223653
0.314566
0.0784784
0.0386524
0.0428128
0.0495006
0.0566559
0.054922
0.051361
0.0449064
0.0407215
0.040341
0.0398948
0.0397112
0.0384721
0.0384967
0.0377247
0.0454993
0.0965207
0.124567
0.1381
0.14653
0.155417
0.150818
0.159758
0.151566
0.152035
0.153621
0.158387
0.151014
0.143712
0.139942
0.13566
0.118311
0.118647
0.100144
0.103952
0.0867501
0.0912987
0.0952066
0.0945486
0.0933375
0.0931208
0.0934062
0.0942383
0.0979111
0.0931728
0.0987698
0.0910415
0.0725572
0.0700649
0.0718408
0.066105
0.0578547
0.0653359
0.0801233
0.0957202
0.112685
0.096694
0.120909
0.114891
0.116024
0.110164
0.103701
0.0998603
0.0990801
0.0996777
0.100805
0.103462
0.105417
0.107041
0.109998
0.11861
0.121005
0.119638
0.10204
0.0865999
0.0950664
0.0999094
0.103545
0.10377
0.0989384
0.096837
0.0907194
0.0891531
0.0836425
0.0810097
0.0755737
0.0722262
0.0674247
0.084002
0.0821185
0.0891352
0.095458
0.0996979
0.103402
0.105016
0.106349
0.105186
0.102829
0.0977918
0.0956441
0.0907983
0.109419
0.127947
0.130661
0.125957
0.112391
0.10669
0.340415
0.412875
0.414384
0.615065
0.657007
0.849665
0.336949
0.180101
0.192694
0.189375
0.18115
0.177947
0.177741
0.189496
0.198492
0.189295
0.200545
0.177449
0.175525
0.166225
0.191517
0.188928
0.169922
0.148767
0.116065
0.0950975
0.0939937
0.0788659
0.0799588
0.0705922
0.0718644
0.0738003
0.0917095
0.171973
0.210336
0.237094
0.2636
0.324192
0.293718
0.443445
0.354761
0.440078
0.303788
0.328846
0.314518
0.305687
0.303694
0.319765
0.342673
0.301228
0.374719
0.300121
0.649486
0.786382
0.496927
0.459773
0.407566
0.393295
0.383314
0.377698
0.369636
0.487435
0.45161
0.554937
0.514649
0.646244
0.563243
0.566768
0.533334
0.569569
0.588313
0.602391
0.479741
0.520416
0.405131
0.4386
0.369247
0.405572
0.291162
0.291852
0.335094
0.372202
0.398369
0.455785
0.716227
0.607748
0.819619
0.586491
0.708624
0.492204
0.539962
0.515623
0.498013
0.499796
0.528031
0.632221
0.611158
0.698635
0.514726
0.526979
0.516724
0.534049
0.523496
0.558408
0.563101
0.564293
0.562291
0.523425
0.53404
0.532202
0.531974
0.531992
0.53234
0.509587
0.512772
0.505231
0.511013
0.526913
0.514608
0.514521
0.512376
0.5048
0.502743
0.502257
0.504018
0.503785
0.50892
0.50879
0.509131
0.512194
0.526916
0.514429
1.82733
0.903444
0.431354
0.34119
0.220913
0.135653
0.0561777
0.0606961
0.0636923
0.0646798
0.0626753
0.0573
0.049098
0.0390406
0.0312166
0.0304156
0.0271229
0.0265215
0.0343843
0.0420692
0.0384846
0.0462944
0.0539938
0.0623206
0.0703354
0.0773308
0.0832473
0.0861754
0.083142
0.070415
0.0527325
0.0353153
0.0250407
0.0226359
0.0209908
0.0189942
0.016886
0.0152327
0.0142289
0.013059
0.0124283
0.0123414
0.0125627
0.0128033
0.0132436
0.0147576
0.016057
0.0172416
0.018204
0.0184488
0.0179315
0.0184735
0.0190685
0.0194633
0.0198075
0.019631
0.0196238
0.0198716
0.0198315
0.0200368
0.0199383
0.0199467
0.0198071
0.0196408
0.0194154
0.0189835
0.0187047
0.0181423
0.0177926
0.0169496
0.0169848
0.0173804
0.0177053
0.0167032
0.0166433
0.0158975
0.0269793
0.0481449
0.061173
0.066184
0.071467
0.067435
0.0571189
0.0391662
0.0191976
0.0187748
0.0192572
0.0217608
0.0212773
0.0173878
0.0181796
0.0188036
0.0176112
0.017563
0.0175963
0.0196724
0.0202827
0.0216458
0.0221447
0.02251
0.0227282
0.022659
0.0227462
0.0224416
0.0224329
0.0220324
0.0220097
0.0216892
0.0214567
0.021755
0.0224733
0.0225633
0.023238
0.0229477
0.0226667
0.0221053
0.0217092
0.0208509
0.0199284
0.0188938
0.0173275
0.0168651
0.0173759
0.0178511
0.0173795
0.0187678
0.0200172
0.0197007
0.0243618
0.0226389
0.020196
0.0226564
0.0184366
0.018613
0.0181346
0.0170675
0.017621
0.0171472
0.0170885
0.0174049
0.0177117
0.0188863
0.0198703
0.0205095
0.0213814
0.0220192
0.0227331
0.02394
0.0242307
0.0232101
0.0230091
0.0217944
0.0211014
0.0207739
0.0217154
0.0230353
0.0229637
0.0238897
0.0236512
0.0223961
0.0215826
0.0207305
0.0197412
0.0190757
0.018275
0.0175166
0.0170871
0.0162475
0.0163216
0.0152183
0.0167872
0.0173251
0.0195978
0.0174427
0.0169222
0.022494
0.0284485
0.0443659
0.0323995
0.0214415
0.0234295
0.031832
0.0397356
0.0281554
0.0277157
0.0154507
0.0182865
0.0152286
0.0155477
0.0166145
0.0169083
0.0181233
0.0191964
0.0194393
0.0201931
0.0205433
0.0213104
0.0215706
0.0223093
0.0225059
0.0237947
0.0238631
0.0239164
0.0238922
0.023061
0.0229852
0.0229803
0.0234496
0.023237
0.0239652
0.0239963
0.0240941
0.0240267
0.0226678
0.0223397
0.0215634
0.0210426
0.0201356
0.0195766
0.018855
0.0184668
0.0178097
0.0181285
0.0188539
0.0190432
0.0200062
0.0200256
0.0207689
0.0209802
0.0214512
0.0215878
0.0222575
0.0223996
0.0226707
0.0227285
0.0239564
0.0240733
0.0241093
0.0240752
0.0240804
0.0243011
0.024297
0.0242415
0.0242204
0.0241034
0.0239337
0.0237538
0.0248301
0.025521
0.0250823
0.0248431
0.025105
0.0259607
0.026514
0.0276087
0.0284643
0.0295375
0.0304255
0.0312441
0.0319094
0.0323791
0.0324863
0.032513
0.0320484
0.031668
0.0333474
0.0398449
0.0430715
0.0483498
0.0507282
0.0526768
0.0533594
0.0522362
0.0529754
0.0517281
0.0520004
0.0508431
0.0504362
0.049649
0.0486706
0.0479747
0.0465307
0.0458142
0.0504337
0.0571344
0.0572638
0.0501169
0.0471588
0.0430536
0.0377271
0.0394281
0.046108
0.0415514
0.0388877
0.03616
0.031208
0.024079
0.0178974
0.0255994
0.0333763
0.0406372
0.0474221
0.0534143
0.0573032
0.0594392
0.0609858
0.0626804
0.0606492
0.0531952
0.04157
0.03172
0.0278441
0.0262925
0.0238511
0.0204113
0.018524
0.0174499
0.0162958
0.0149478
0.014091
0.0138488
0.0140952
0.014212
0.0155597
0.0168225
0.0168149
0.0179958
0.0178097
0.0183213
0.0189139
0.0193172
0.0199788
0.0199474
0.0189843
0.019333
0.0195956
0.0202734
0.0201732
0.0203436
0.0201275
0.0194118
0.0188981
0.0183014
0.0177835
0.0173232
0.0167475
0.016026
0.0160139
0.0162044
0.0157608
0.0161777
0.0166229
0.0170327
0.0176613
0.0185684
0.0193265
0.0211574
0.0212955
0.0210427
0.021129
0.0196976
0.0196347
0.0186591
0.0184251
0.0200217
0.0198632
0.0181897
0.0195854
0.0195899
0.0213749
0.0213798
0.0207054
0.0209027
0.0207907
0.0189635
0.0180732
0.0170046
0.0162231
0.01563
0.0152241
0.0147491
0.015369
0.0141518
0.0135879
0.0140538
0.0140319
0.0141015
0.0144941
0.0149263
0.0156723
0.0163791
0.0174259
0.0180655
0.0189641
0.0192976
0.0212075
0.0211162
0.0209847
0.0210163
0.021154
0.021604
0.0208142
0.020776
0.0209161
0.0209311
0.0209573
0.0209409
0.0191014
0.0188979
0.0180627
0.0177445
0.0168127
0.0164524
0.0157938
0.0154768
0.015083
0.0148834
0.023287
0.0254867
0.0256397
0.0398042
0.0199875
0.019962
0.0343374
0.0173412
0.0230608
0.0236129
0.0247006
0.0259358
0.0225565
0.0307376
0.0212149
0.0233469
0.0240897
0.0252484
0.0128774
0.0199496
0.0375287
0.0426134
0.0439308
0.0488759
0.0555436
0.0587412
0.0617786
0.0638026
0.0660686
0.0685188
0.070925
0.0726689
0.0728223
0.0691366
0.0660753
0.0565675
0.0527413
0.0564895
0.060923
0.0474098
0.0426085
0.0431542
0.0436209
0.0441534
0.0443605
0.0450463
0.04485
0.0458443
0.0451089
0.0462107
0.0450613
0.046083
0.0448471
0.0421122
0.0388825
0.0326727
0.0306927
0.0295822
0.0268609
0.0243487
0.0220934
0.0202598
0.0198236
0.018255
0.0168476
0.016548
0.0152574
0.0155189
0.016744
0.0198863
0.0168241
0.017661
0.0260202
0.019139
0.018037
0.0185861
0.019107
0.0193465
0.0182398
0.019871
0.0221497
0.0221465
0.022212
0.0222225
0.0214167
0.0212519
0.0209818
0.0210398
0.0210721
0.0211965
0.0211649
0.0193392
0.0192827
0.0190093
0.018871
0.0180813
0.0179135
0.0173289
0.0169978
0.0161563
0.0158616
0.0154125
0.0154742
0.0167271
0.0206868
0.0302717
0.0174337
0.0181404
0.0156871
0.0139814
0.0266616
0.0247643
0.0286466
0.0267966
0.0394382
0.0264413
0.023191
0.0241939
0.0297262
0.0296791
0.0326463
0.0424116
0.0330377
0.0282646
0.0737572
0.0540716
0.0334701
0.0465973
0.0585237
0.1094
0.127735
0.0560829
0.0565899
0.0622666
0.0631822
0.0630756
0.0535386
0.0493203
0.0415694
0.0320993
0.0128682
0.0249342
0.0322188
0.042994
0.0574525
0.0921226
0.0529392
0.059764
0.0657197
0.0647987
0.0678959
0.0660606
0.0646847
0.0656311
0.102674
0.111596
0.108043
0.0868333
0.0814711
0.0742655
0.124227
0.139142
0.120034
0.130129
0.136075
0.0821341
0.03042
0.0249483
0.0238335
0.0264159
0.0253531
0.0460272
0.0205944
0.0218244
0.0226612
0.0271686
0.0301967
0.0529188
0.0232658
0.0254679
0.0324216
0.034897
0.0459602
0.0274587
0.0281031
0.0344334
0.0362226
0.0395478
0.0336655
0.0317738
0.0287371
0.0259303
0.0244328
0.0254797
0.0318768
0.0463633
0.027904
0.0283329
0.0300958
0.133864
0.0307632
0.0266633
0.0277344
0.0267358
0.0336878
0.035121
0.11149
0.0355431
0.0167125
0.0154566
0.0159261
0.0167363
0.0173748
0.0179943
0.0184399
0.0190816
0.0194755
0.0196292
0.0197982
0.022178
0.0220766
0.0216093
0.021065
0.0218565
0.0211622
0.0212099
0.0218256
0.0212907
0.0214378
0.0224895
0.0236629
0.0231713
0.0237352
0.0250888
0.023929
0.0222274
0.0220217
0.0221418
0.0228499
0.0239888
0.0227974
0.023451
0.0226333
0.0235534
0.0236686
0.0203663
0.0199973
0.0197932
0.0192896
0.018615
0.0179906
0.0173204
0.0166769
0.0161893
0.0161389
0.0166802
0.0152032
0.0156327
0.0180772
0.039829
0.0328024
0.0268231
0.022405
0.0196581
0.0184546
0.0183092
0.0187436
0.0193945
0.0199567
0.0201658
0.0207525
0.0246366
0.0245694
0.0257737
0.0246397
0.0259766
0.0249195
0.0235959
0.0227253
0.0239337
0.0232403
0.0237312
0.0253493
0.026192
0.0238239
0.0240926
0.0214988
0.0200862
0.0184724
0.018812
0.02026
0.0209342
0.0233733
0.0234556
0.0268947
0.0268772
0.0267345
0.0254972
0.0248226
0.0262693
0.0247814
0.0259313
0.0248202
0.0262235
0.0274091
0.0277522
0.0270471
0.0262044
0.0253302
0.0210506
0.0202602
0.0199547
0.0194645
0.0192154
0.0201677
0.0244983
0.0338172
0.0460331
0.0582195
0.067633
0.0670044
0.060311
0.0409904
0.0419285
0.038955
0.0423762
0.0604444
0.0867024
0.0608884
0.114718
0.0888982
0.0527446
0.0629989
0.0750152
0.0841937
0.0901556
0.0912259
0.0777616
0.0572865
0.0502857
0.0527026
0.0849356
0.0836374
0.082523
0.0780453
0.0825523
0.0804274
0.0777498
0.0761805
0.074395
0.0701274
0.070108
0.0673982
0.0673612
0.0602261
0.0614102
0.0616384
0.0590625
0.0563146
0.0540277
0.0518371
0.0495132
0.0456204
0.0443421
0.0418678
0.0401281
0.0367714
0.0362346
0.0357514
0.0335786
0.0320278
0.0307758
0.0295161
0.0278155
0.0279784
0.0263945
0.0262388
0.0213818
0.0210018
0.0199838
0.0196522
0.0194095
0.0196233
0.0208962
0.0236194
0.0438063
0.0331961
0.0330081
0.0335475
0.0337332
0.0396544
0.0464324
0.0706328
0.0653438
0.0718886
0.0614734
0.0639155
0.0631215
0.0627417
0.0654679
0.0690568
0.074403
0.08689
0.333639
0.513801
0.253301
0.237256
0.246868
0.251751
0.25915
0.33923
0.360192
0.356112
0.360686
0.330587
0.318425
0.196653
0.22605
0.238128
0.237019
0.223909
0.202486
0.393632
0.522652
0.518786
0.523656
0.523768
0.518766
0.5226
0.502913
0.514274
0.501759
0.515027
0.502299
0.521667
0.518927
0.504364
0.501137
0.501157
0.500917
0.501379
0.501556
0.504894
0.506056
0.506108
0.505103
0.504119
0.514521
0.437723
0.12298
0.0855972
0.142324
0.197773
0.161984
0.234145
0.269083
0.19398
0.110357
0.0901118
0.101648
0.125204
0.126714
0.153808
0.201229
0.188377
0.153784
0.15475
0.15541
0.200662
0.1922
0.218452
0.260898
0.254075
0.189366
0.150833
0.150158
0.228335
0.243042
0.238259
0.123717
0.0444754
0.0219144
0.0228509
0.032771
0.0165822
0.0168559
0.0223036
0.0584865
0.0972826
0.0503741
0.136821
0.138485
0.182365
0.147695
0.178589
0.115776
0.11903
0.0677272
0.0797456
0.0896893
0.0954394
0.0997635
0.0939035
0.216987
0.320534
0.19108
0.561777
0.538358
0.196418
0.217403
0.576157
0.513009
0.503527
0.501785
0.501698
0.501859
0.501816
0.500969
0.500915
0.500728
0.500765
0.500716
0.501163
0.504767
0.520391
0.514605
0.50524
0.501385
0.500824
0.500799
0.500691
0.50073
0.50075
0.500808
0.501017
0.50105
0.501151
0.50167
0.503942
0.512026
0.43561
0.170037
0.182449
0.406175
0.361935
0.511502
0.504622
0.501369
0.500942
0.500855
0.500829
0.500795
0.500969
0.50089
0.501397
0.501231
0.501287
0.502777
0.508258
0.506396
0.443221
0.369459
0.417165
0.330069
0.506671
0.507777
0.503277
0.5029
0.503247
0.503414
0.501514
0.501527
0.500992
0.50106
0.500893
0.501341
0.504756
0.511012
0.346098
0.170999
0.177915
0.25824
0.0879886
0.0909229
0.092855
0.0949476
0.247422
0.442162
0.556259
0.471757
0.475725
0.54275
0.385995
0.364767
0.294407
0.317955
0.402365
0.34758
0.313079
0.250592
0.288911
0.247984
0.303775
0.218126
0.234399
0.221953
0.283322
0.287202
0.287555
0.22695
0.216787
0.271892
0.286137
0.317122
0.218996
0.259236
0.203514
0.192575
0.0872331
0.0894175
0.0813008
0.0713491
0.071091
0.0792315
0.0776674
0.0838619
0.0808539
0.0845532
0.0816722
0.0796541
0.0728474
0.0748807
0.0686587
0.0713156
0.130428
0.166644
0.15053
0.151955
0.179731
0.131205
0.157572
0.15368
0.197784
0.248207
0.227273
0.292757
0.22559
0.27593
0.406017
0.754632
0.440084
0.245022
0.318458
0.340274
0.288921
0.189761
0.449799
0.538725
0.298237
0.360427
1.19626
1.04376
1.7813
0.992892
1.11966
0.671451
0.59805
1.02917
0.654308
0.666827
0.560242
0.573944
0.499852
0.324737
0.324281
0.3061
0.242224
0.281077
0.271762
0.267038
0.296682
0.261844
0.316984
0.352761
0.397481
0.322935
0.285811
0.36734
0.215866
0.291229
0.346799
0.316076
0.26011
0.338511
0.450637
0.422313
0.363491
0.39969
0.510179
0.564019
0.533684
0.452879
0.514486
1.00789
0.964699
0.93171
0.591292
1.93398
1.71996
0.354504
0.138615
0.096684
0.0365659
0.0224953
0.0182784
0.0178849
0.0489313
0.0195501
0.0235492
0.0212152
0.0301796
0.027395
0.031675
0.0557175
0.0377182
0.0530736
0.0393421
0.0524586
0.0417618
0.0574345
0.0616713
0.0649803
0.0525535
0.0414316
0.0625977
0.0835349
0.0391059
0.100576
0.10629
0.0687256
0.0835333
0.103142
0.0534017
0.165859
0.0575003
0.0572376
0.0682053
0.127923
0.253347
0.0862344
0.11286
0.587879
1.53176
0.512174
0.202588
0.165293
0.0414419
0.0359489
0.0293422
0.0355679
0.0313579
0.0631813
0.0637649
0.156097
0.124514