/*--------------------------------*- C++ -*----------------------------------*\
| =========                 |                                                 |
| \\      /  F ield         | OpenFOAM: The Open Source CFD Toolbox           |
|  \\    /   O peration     | Version:  v2012                                 |
|   \\  /    A nd           | Website:  www.openfoam.com                      |
|    \\/     M anipulation  |                                                 |
\*---------------------------------------------------------------------------*/
FoamFile
{
    version     2.0;
    format      ascii;
    class       volScalarField;
    location    "570";
    object      nut;
}
// * * * * * * * * * * * * * * * * * * * * * * * * * * * * * * * * * * * * * //

dimensions      [0 2 -1 0 0 0 0];


internalField   nonuniform List<scalar> 
18258
(
0.00419896
0.00182432
0.00149434
0.00129442
0.000857707
0.00140326
0.00194903
0.00232021
0.00243436
0.00241362
0.002499
0.00421704
0.00591809
0.0073135
0.00768161
0.00766776
0.0069582
0.00664414
0.00720973
0.00886911
0.00746376
0.0047808
0.00573002
0.00661822
0.00719152
0.00636572
0.00514677
0.00476825
0.00431756
0.00359841
0.00301535
0.00205129
0.00151783
0.00140834
0.00127534
0.00145308
0.00158179
0.00168552
0.00172366
0.00175082
0.00173881
0.001729
0.0016825
0.00165473
0.00160713
0.00133192
0.00162245
0.00163855
0.00179368
0.00248465
0.00267217
0.00224851
0.00248864
0.00222118
0.0014651
0.00167649
0.00181981
0.00185912
0.00183547
0.00175953
0.00173406
0.0017125
0.00168509
0.00165251
0.00163268
0.00164916
0.00166634
0.0016483
0.00156739
0.00150183
0.00139569
0.00128928
0.00121037
0.00114924
0.00110314
0.00105197
0.000994475
0.000873531
0.000809581
0.00107191
0.00134562
0.00143764
0.00203752
0.00248403
0.00250064
0.00187194
0.00133422
0.0013847
0.00153932
0.00155475
0.00131768
0.00156617
0.00177389
0.00183856
0.00191598
0.00214153
0.00243902
0.00237836
0.00211824
0.00195197
0.00191217
0.00219187
0.00208427
0.00270314
0.00272242
0.00237389
0.00219103
0.00246539
0.00317957
0.00341934
0.00265642
0.00249519
0.002446
0.00241471
0.0021842
0.0022608
0.00205332
0.00185019
0.00201562
0.00243564
0.00231023
0.00252323
0.00261474
0.00245309
0.00284243
0.00327774
0.00323058
0.00258529
0.00210828
0.00196529
0.00198021
0.00121112
0.00130782
0.00140898
0.0014435
0.00146775
0.00148834
0.0015871
0.00158352
0.00156031
0.00155687
0.00158429
0.000873083
0.000945894
0.000969385
0.000976168
0.000927175
0.000917593
0.000900431
0.0008865
0.000836061
0.000800017
0.000957236
0.00107484
0.00117069
0.00128275
0.0014499
0.00165438
0.00186923
0.00208628
0.00222979
0.00227061
0.00231184
0.00222795
0.00214355
0.00221986
0.00223268
0.00221827
0.00218847
0.00215082
0.00209993
0.00200656
0.00211379
0.00210758
0.00197995
0.00169757
0.00173519
0.00173203
0.00177714
0.00176839
0.00178659
0.00176175
0.00173259
0.00164959
0.00153375
0.00127701
0.00124157
0.00125768
0.00161575
0.00196214
0.00303163
0.00369941
0.00429703
0.00459963
0.00492426
0.00398206
0.00443108
0.00341391
0.00306523
0.0038965
0.0050988
0.00290862
0.00158709
0.0030096
0.00266832
0.00193399
0.00172102
0.0017729
0.00177786
0.00204533
0.00235715
0.00261387
0.00273801
0.00284815
0.00293579
0.00303279
0.00315588
0.00319003
0.00308212
0.00260987
0.00314304
0.00255217
0.00298082
0.00269126
0.00181335
0.00193879
0.00205132
0.001875
0.00182273
0.00174661
0.00157001
0.00192723
0.00250127
0.00290321
0.00331857
0.00442362
0.00409244
0.00392556
0.0030401
0.00293974
0.00152689
0.00217905
0.00225504
0.00253415
0.00168523
0.00153659
0.00145742
0.0019337
0.00223987
0.0026428
0.00292965
0.00347951
0.00269675
0.00308008
0.00278622
0.00193955
0.00186912
0.00267884
0.00288605
0.00237343
0.00212512
0.00266554
0.00252182
0.00178832
0.00143598
0.00220534
0.00228489
0.00163699
0.00406881
0.00431986
0.00411944
0.00501987
0.00629514
0.0071777
0.00668089
0.00592866
0.00662148
0.00526033
0.00509254
0.00542972
0.00456045
0.00319902
0.00327972
0.00339205
0.00348398
0.00374048
0.00397341
0.00425776
0.00452889
0.00411758
0.00342084
0.0025899
0.00178188
0.00175752
0.00174865
0.00157022
0.00232705
0.0035209
0.00349713
0.00198747
0.00115861
0.00131024
0.00147937
0.00146483
0.00106318
0.000800186
0.00137847
0.00157609
0.00160155
0.00156179
0.00147458
0.00154094
0.00247472
0.00381258
0.00418924
0.004339
0.00448078
0.00458099
0.00463685
0.00465468
0.00466463
0.00467674
0.00468732
0.00470337
0.00468868
0.00458867
0.00403594
0.00253737
0.00148334
0.00137809
0.00152097
0.00163464
0.00173391
0.00147552
0.00090211
0.00144085
0.00184498
0.00212025
0.0021382
0.00199533
0.00193545
0.00305173
0.00405739
0.00478207
0.00492845
0.0049933
0.00493791
0.00493014
0.00482183
0.00478749
0.00419739
0.00300527
0.00328553
0.00352772
0.00356853
0.00365127
0.00377551
0.00368806
0.00348394
0.00509283
0.00587633
0.00595186
0.00607913
0.00600768
0.00590418
0.00563596
0.00532945
0.00448669
0.00336465
0.00212291
0.00216726
0.00230724
0.00228518
0.00198941
0.00209596
0.00227456
0.00229731
0.00237241
0.00266037
0.0030215
0.00288218
0.00248016
0.00210638
0.00196135
0.00192031
0.00184257
0.00138011
0.00140063
0.00136139
0.00138376
0.00185881
0.00221248
0.00255137
0.00361885
0.00322827
0.00262561
0.00416221
0.00426445
0.00458064
0.00505965
0.00518507
0.00574383
0.0040006
0.00360602
0.00370442
0.00302627
0.0028013
0.0028313
0.00284201
0.002649
0.00289936
0.00287376
0.00276986
0.00305808
0.00336946
0.00444304
0.00538364
0.00568038
0.00585183
0.00592169
0.00589875
0.00578276
0.00581822
0.00510918
0.00510248
0.00488674
0.00474619
0.00469625
0.0044632
0.00511027
0.00530507
0.00537018
0.00550432
0.00571346
0.0055596
0.00538639
0.00525478
0.00515951
0.00506011
0.00511459
0.00520952
0.00531099
0.00545375
0.00564478
0.00567729
0.00547926
0.0053298
0.00522771
0.00513201
0.00513649
0.00522187
0.00532162
0.00546332
0.00564451
0.0055447
0.00540382
0.00527855
0.00517593
0.00508574
0.00490829
0.00502677
0.00515726
0.00526498
0.00533515
0.00460978
0.00492698
0.00484194
0.0043836
0.00410282
0.00311589
0.00337211
0.0035559
0.00387309
0.00429939
0.00438323
0.00367853
0.00315246
0.0030721
0.00304734
0.00311927
0.00314506
0.00316016
0.00357068
0.00537844
0.00541476
0.00542998
0.00543195
0.00464534
0.00451411
0.00420584
0.00768352
0.00715358
0.00619952
0.00511088
0.00274049
0.0023493
0.00278289
0.00338393
0.00378323
0.00417462
0.00277172
0.00171666
0.0020005
0.00207408
0.00202318
0.00187016
0.00155847
0.00143857
0.00130556
0.00140487
0.00248768
0.00397047
0.00447296
0.00452109
0.0044769
0.00439045
0.0042853
0.00413871
0.00408183
0.00514242
0.00695596
0.00785782
0.00782729
0.00672503
0.00547926
0.00308601
0.00158401
0.00115674
0.00126257
0.00138597
0.00162974
0.00145497
0.00121301
0.00132949
0.00126283
0.00256002
0.00442339
0.00564046
0.00669744
0.00658868
0.00572518
0.00468478
0.00444181
0.00454535
0.00461435
0.00467342
0.0047341
0.00477554
0.00474832
0.00432124
0.00266915
0.0015936
0.00141593
0.00152245
0.00178435
0.00189598
0.00191541
0.00188888
0.00163765
0.00270877
0.004301
0.00273546
0.0014924
0.00161234
0.00160047
0.00282282
0.00281869
0.00275837
0.0042917
0.00453828
0.00452705
0.00425356
0.00406039
0.00240414
0.00272869
0.0027379
0.00275237
0.00279742
0.00141345
0.00154074
0.0015888
0.00171065
0.00149473
0.00189901
0.00049141
0.000681459
0.000791481
0.000860732
0.000927408
0.000909775
0.00174093
0.00176654
0.00168556
0.00164119
0.00208261
0.00223477
0.00228405
0.00210376
0.00194116
0.00206617
0.00207073
0.00195156
0.00184856
0.00191658
0.00191796
0.00183815
0.00156347
0.00146502
0.00160821
0.0015909
0.00157822
0.00283343
0.00282846
0.00267711
0.0043981
0.00432753
0.0048472
0.00481589
0.00481023
0.00479042
0.00484228
0.00486929
0.00488957
0.00491329
0.00490394
0.00485624
0.00674208
0.00477797
0.00416919
0.00241118
0.00232271
0.00164059
0.00143788
0.00169315
0.00181088
0.00196325
0.00191888
0.00202272
0.00202031
0.00214369
0.00198953
0.00176644
0.00270533
0.00288996
0.00282258
0.00287833
0.00281069
0.0027941
0.0027737
0.00273443
0.00268704
0.00160017
0.00156977
0.00183822
0.0019296
0.00207338
0.00209204
0.00213745
0.00202693
0.00178248
0.00172541
0.00198728
0.00196046
0.00199879
0.00188449
0.00187651
0.00167157
0.00171389
0.0034536
0.0063649
0.00328187
0.00364482
0.00330329
0.00375604
0.00329085
0.00283885
0.00290568
0.00255965
0.00267012
0.00280059
0.00285122
0.00299658
0.00353227
0.0034009
0.00298529
0.00289871
0.00284169
0.00267957
0.00241196
0.00252644
0.00254907
0.00260371
0.00289379
0.0033188
0.00371979
0.0045182
0.00438454
0.00384216
0.00351263
0.00368302
0.00374774
0.00471596
0.00440554
0.00437974
0.00462027
0.00457463
0.00434111
0.0041134
0.00397047
0.00341002
0.00346586
0.00396487
0.00383699
0.00395438
0.00388539
0.00403966
0.00411314
0.00394761
0.00366916
0.00385814
0.00385051
0.00427532
0.00415749
0.00385733
0.00352808
0.00377234
0.00372729
0.00430455
0.00405138
0.00378926
0.00348915
0.00334286
0.00379339
0.00372392
0.00422132
0.0043442
0.00434604
0.00378977
0.00370147
0.00440045
0.00423276
0.0040898
0.00425983
0.00352873
0.00362909
0.00446911
0.00456241
0.00432909
0.0036153
0.00367033
0.00314716
0.00370061
0.00460459
0.00434891
0.00356514
0.00295895
0.00413864
0.00435385
0.00460441
0.00435222
0.00473802
0.00510286
0.00416201
0.00452705
0.00591083
0.00452112
0.00524537
0.00536066
0.00539128
0.00539306
0.00541283
0.00543867
0.00572831
0.00556954
0.00354508
0.00423767
0.00411929
0.00344776
0.00293462
0.00323131
0.00347994
0.00353008
0.00361952
0.00375711
0.00369207
0.00356767
0.00522457
0.00596398
0.0060919
0.00621313
0.00611268
0.00596405
0.00561839
0.00519626
0.00431977
0.00322254
0.00201265
0.00205176
0.00218652
0.00216569
0.00187866
0.00141698
0.000931497
0.00138236
0.00143033
0.00134832
0.00123056
0.00108892
0.00113095
0.00205296
0.00383512
0.00540467
0.00598806
0.00646096
0.00696041
0.00743679
0.00779851
0.00806134
0.00823821
0.0083454
0.00836579
0.00820099
0.00744298
0.00710786
0.0066938
0.00635472
0.00589056
0.00553827
0.00626116
0.00688049
0.00726339
0.00769313
0.00789227
0.00780881
0.00678341
0.00656994
0.00755615
0.00931277
0.00791501
0.00994684
0.0116997
0.00910349
0.00818908
0.00819003
0.00915984
0.0093388
0.00900592
0.00848585
0.00788819
0.00713299
0.00750796
0.00785054
0.00818302
0.00848923
0.00932626
0.0094729
0.00940334
0.00925936
0.00906493
0.0087841
0.00834424
0.00773715
0.00704626
0.00636482
0.00557322
0.00390304
0.00191736
0.00215223
0.00212023
0.00218985
0.00217205
0.00102975
0.00113757
0.00115221
0.0011597
0.00109385
0.00124565
0.00180092
0.00292442
0.0021023
0.00173272
0.00119245
0.00139666
0.00233138
0.00395176
0.00446447
0.0045553
0.00463299
0.00596628
0.00684741
0.00728288
0.00761769
0.00786026
0.00776122
0.00750556
0.00705386
0.00647818
0.00626282
0.00590881
0.00560083
0.0054337
0.00526538
0.00493717
0.00386386
0.00373181
0.00388961
0.00383957
0.00367459
0.00392745
0.00407015
0.00406735
0.00411308
0.00415304
0.0042761
0.00442083
0.00454683
0.00461306
0.00463779
0.00464572
0.00465542
0.00466305
0.00467734
0.00466149
0.0045594
0.0040035
0.00250344
0.00146134
0.00135077
0.00148099
0.00156606
0.00160238
0.00142305
0.000916089
0.0014234
0.00184256
0.00188986
0.00207402
0.00214003
0.00226931
0.00252712
0.00291988
0.00301294
0.00267374
0.00253234
0.00247864
0.00241597
0.00206733
0.00257723
0.00284107
0.00283538
0.00280826
0.00303523
0.00373481
0.00358805
0.00316413
0.00312923
0.00309784
0.00280352
0.00276167
0.00301465
0.00304774
0.00316099
0.00370629
0.00444412
0.00412337
0.00375585
0.00360168
0.00332636
0.00293067
0.00264937
0.00325373
0.00266829
0.00141407
0.00120405
0.00119449
0.0012002
0.00115983
0.00137558
0.00144753
0.00146688
0.00136341
0.00151235
0.00168265
0.00162751
0.00183967
0.00181636
0.0016276
0.00161272
0.00174154
0.00183536
0.00188329
0.00193613
0.00317109
0.00327667
0.00253621
0.0036683
0.00422413
0.00418558
0.00444028
0.0036553
0.00327928
0.00389216
0.00449443
0.0051506
0.00407263
0.00385379
0.00394097
0.00181129
0.00095315
0.00134453
0.00166965
0.00186243
0.00180784
0.00170825
0.00144482
0.00256319
0.00263234
0.004176
0.00468505
0.0047472
0.00471914
0.00475029
0.00517405
0.00592995
0.00679635
0.00705512
0.00695707
0.00664439
0.00606209
0.00547537
0.00544416
0.00525669
0.00512075
0.00508073
0.0044076
0.00390579
0.00418762
0.00411512
0.0042546
0.00431998
0.0043676
0.00441604
0.00449651
0.00459353
0.00468194
0.00474211
0.00478212
0.00481564
0.00484976
0.00488393
0.00492082
0.00494049
0.00489319
0.00442193
0.00265194
0.00158102
0.00144198
0.0015386
0.00180836
0.0019041
0.00204646
0.00181701
0.000956826
0.00112524
0.00195526
0.0021685
0.00200654
0.00187795
0.00184433
0.00154506
0.00279931
0.0027633
0.00433898
0.00488068
0.00494959
0.00493642
0.00489876
0.00485593
0.00481377
0.00477903
0.00475106
0.00472134
0.00467943
0.00462826
0.0045814
0.00453402
0.00445282
0.00433765
0.00419981
0.00436434
0.0045242
0.00471671
0.00491836
0.00501677
0.00492707
0.00479666
0.00474304
0.00477552
0.0048174
0.00486014
0.00489853
0.00491758
0.00486205
0.00458141
0.00429761
0.00272125
0.00275675
0.00135616
0.00150625
0.00173796
0.00179498
0.001949
0.00193931
0.00152431
0.00118836
0.00134111
0.00125357
0.00223971
0.00246314
0.00273179
0.00270494
0.0014688
0.00150674
0.00156593
0.00176588
0.00164208
0.00158716
0.0039178
0.00375303
0.00392739
0.00481717
0.0041497
0.00286464
0.00313682
0.00436538
0.00460474
0.00278295
0.00208918
0.00231476
0.00293127
0.00431673
0.00437102
0.00415343
0.00412919
0.00301306
0.00370511
0.00446091
0.00433923
0.00338027
0.00232889
0.00173632
0.000844674
0.00160661
0.00137339
0.00336577
0.00372491
0.00368204
0.00402604
0.00427738
0.00432103
0.00419873
0.00372372
0.00379781
0.00383535
0.00437011
0.00438961
0.00371606
0.00313583
0.00254743
0.0025704
0.00262026
0.0029034
0.00363515
0.00342503
0.00300207
0.00291104
0.0028482
0.00267893
0.00241753
0.00212053
0.00213517
0.00198724
0.00192311
0.00303145
0.00403511
0.00475812
0.00489483
0.00494437
0.00486859
0.00483435
0.00469636
0.00462514
0.00401826
0.00513169
0.0054244
0.00523404
0.00527226
0.00530468
0.00534471
0.00534515
0.00524446
0.00450688
0.00269155
0.00175811
0.00198454
0.00214212
0.00201152
0.00200012
0.00213178
0.00202278
0.00177672
0.00287854
0.00281354
0.00449864
0.00509451
0.005204
0.00521085
0.00519047
0.00517363
0.00518054
0.00545252
0.00532608
0.00539147
0.00567063
0.00568175
0.00575233
0.00540189
0.0053343
0.00529156
0.00526326
0.00521643
0.00508941
0.00450478
0.00436737
0.00495856
0.00511019
0.00517688
0.00522286
0.00527806
0.00535107
0.00556279
0.00571946
0.00577799
0.00555171
0.00547096
0.00534609
0.00516602
0.00512314
0.005114
0.00510919
0.00508373
0.0049513
0.00435829
0.00280225
0.00287134
0.00170817
0.00171929
0.00198031
0.00208002
0.00204293
0.0018919
0.00184457
0.00317554
0.00361432
0.003844
0.0041409
0.00395554
0.00393261
0.00449403
0.00434935
0.00387539
0.0040331
0.00361886
0.0034483
0.00333508
0.00335433
0.00176356
0.00190293
0.00198484
0.00195186
0.00186643
0.00166471
0.00152661
0.00278601
0.00276565
0.00272976
0.00162325
0.00158771
0.00187053
0.00181661
0.0016619
0.00141663
0.00155295
0.00239801
0.00268183
0.004159
0.0043077
0.0046108
0.00493132
0.00505346
0.00508731
0.00510803
0.00513101
0.00517925
0.00523559
0.00524992
0.00524521
0.00528285
0.00527428
0.00527518
0.00524692
0.00521486
0.00517784
0.00513851
0.00507374
0.00493953
0.00461661
0.00429947
0.00484771
0.00489182
0.00498223
0.00507582
0.00511557
0.00512192
0.00510384
0.00506763
0.00502489
0.00497503
0.00497444
0.00512066
0.00515543
0.0051814
0.00516669
0.00514928
0.00514322
0.00511997
0.00508243
0.00498751
0.00489248
0.00485207
0.00477109
0.00489883
0.00495548
0.00496444
0.00501323
0.00509118
0.00511378
0.00511317
0.00507514
0.00504268
0.00500108
0.00493409
0.00484728
0.0045543
0.00461282
0.00469055
0.00479198
0.00489002
0.0049694
0.00501414
0.00501746
0.00497178
0.0049414
0.00494312
0.00490181
0.00492377
0.00494572
0.00492018
0.00491691
0.00492051
0.00486471
0.00476292
0.00462122
0.00447115
0.00434648
0.00428184
0.00417804
0.00451764
0.00464704
0.00476296
0.0048661
0.00495898
0.00505163
0.00507984
0.00506903
0.00501145
0.00497833
0.00497628
0.0049281
0.00492599
0.00497259
0.00497516
0.00500279
0.00505211
0.00503867
0.004971
0.00479681
0.00462696
0.004479
0.00433756
0.00418704
0.0041405
0.00420831
0.00415304
0.00421295
0.00436056
0.00454508
0.00470448
0.00480616
0.00483848
0.00486889
0.00491358
0.00490913
0.00488264
0.00486776
0.00480752
0.00475504
0.00469078
0.00455073
0.00437201
0.00421405
0.00416276
0.00424679
0.00433099
0.00425272
0.00395502
0.00411271
0.00426266
0.00441205
0.00462285
0.00486514
0.00497089
0.00500843
0.00498383
0.00496428
0.00496114
0.00491701
0.0049016
0.0049422
0.00494606
0.00496582
0.00499722
0.00496636
0.00487955
0.00458281
0.00422851
0.00405819
0.00395752
0.00382274
0.00427404
0.00436301
0.00425558
0.00418309
0.00429649
0.00442892
0.00456654
0.00465854
0.00469561
0.00474718
0.00481472
0.00484737
0.00479943
0.00474339
0.00467438
0.00463833
0.00463645
0.00461239
0.00452375
0.00441974
0.00430022
0.00444515
0.00452895
0.00444766
0.00403188
0.00409864
0.00419956
0.00425936
0.00459161
0.00488026
0.0049478
0.00494978
0.00491877
0.00489829
0.00489834
0.00487271
0.00482473
0.00481611
0.00481238
0.00486985
0.00494508
0.00498846
0.00501035
0.00479498
0.00439737
0.00432836
0.00414703
0.00406235
0.00450745
0.00455852
0.0044553
0.00435877
0.00456901
0.0046586
0.00468359
0.0046654
0.00461754
0.00458608
0.00464538
0.00473853
0.00466788
0.00436472
0.00409521
0.00423317
0.00426657
0.00425568
0.0041979
0.00410128
0.00389136
0.00434459
0.00478515
0.00482108
0.00435447
0.00436157
0.00422316
0.00393285
0.00431909
0.00452266
0.00456691
0.00454756
0.00447572
0.0043044
0.00454624
0.00475962
0.00471858
0.00427101
0.00277214
0.0028102
0.00283035
0.00283286
0.00279565
0.0027852
0.00274459
0.00272352
0.00266046
0.00259609
0.00253512
0.00270371
0.00284921
0.00304427
0.00306052
0.00314116
0.00300622
0.00284638
0.00265814
0.00207011
0.00262659
0.0031328
0.00332941
0.00358122
0.00363299
0.00419258
0.00441238
0.00453157
0.00444501
0.00356728
0.00302647
0.00241869
0.00157295
0.000980005
0.00115021
0.00119617
0.00125571
0.00153318
0.00282171
0.00143769
0.00199124
0.00155723
0.00267542
0.00142006
0.000889057
0.000588362
0.000747406
0.000884738
0.000892201
0.000856935
0.000715411
0.000564226
0.000576829
0.000539332
0.000573273
0.000517261
0.000592723
0.000553935
0.000773862
0.00116388
0.00131994
0.00134892
0.00109013
0.00122908
0.00102686
0.00118418
0.00105737
0.00115236
0.0011055
0.00135199
0.00148178
0.00141891
0.00142312
0.00124547
0.00087122
0.00100984
0.000793403
0.000952581
0.000728849
0.000941401
0.000807185
0.00104886
0.00108122
0.0010781
0.00103805
0.000793038
0.000940111
0.000740018
0.000905901
0.000741271
0.000787535
0.000655106
0.000948223
0.000965308
0.000889937
0.000945432
0.00106053
0.00113771
0.00125596
0.00119277
0.00136225
0.00131958
0.00134296
0.00127202
0.0012371
0.00120887
0.00121131
0.00119137
0.00119789
0.00123649
0.00123838
0.00124327
0.00128269
0.00126389
0.00123354
0.00121534
0.00107964
0.000870983
0.00151699
0.00156438
0.00158724
0.00158658
0.0015503
0.00153309
0.00148048
0.00146641
0.00142057
0.00139344
0.00133199
0.00128123
0.00122361
0.00137524
0.00076945
0.000873597
0.000922286
0.000949576
0.000968759
0.000977553
0.000984809
0.000979395
0.000967373
0.000943428
0.000935195
0.000909136
0.00116341
0.00132333
0.00138318
0.00139914
0.00131152
0.00124878
0.00272882
0.00330177
0.00502214
0.00513357
0.00385327
0.00384214
0.00133042
0.00140275
0.000959144
0.00134792
0.00138978
0.00137558
0.00129948
0.000937218
0.00140646
0.000979488
0.00132001
0.000987873
0.00122321
0.00100276
0.00142114
0.0018101
0.00174579
0.00158109
0.00107554
0.000895162
0.000892738
0.000765254
0.000839909
0.000695601
0.000856176
0.000725206
0.00108066
0.00154085
0.00170412
0.00173827
0.00137059
0.00189086
0.0014216
0.00205763
0.00163299
0.00201297
0.00161532
0.00186995
0.00231381
0.00232414
0.00226906
0.00182886
0.0014662
0.00164568
0.00145804
0.00167916
0.00242513
0.0015893
0.00240936
0.000995792
0.00135723
0.00139868
0.00137924
0.00130024
0.000875876
0.00223058
0.00117911
0.00210119
0.00135942
0.00218468
0.00158028
0.00208634
0.0024946
0.00260519
0.00259334
0.00211777
0.00190538
0.00196292
0.00156672
0.00188029
0.00140701
0.00204518
0.00116665
0.00151849
0.00168214
0.00177122
0.00177897
0.001463
0.00288829
0.00181309
0.00273652
0.00190226
0.00243671
0.00195325
0.00213733
0.00252394
0.00250839
0.00248754
0.00210947
0.00170645
0.00225227
0.00160718
0.0477183
0.110364
0.0438865
0.111528
0.0505242
0.0717025
0.0706476
0.070784
0.0710331
0.0533304
0.116331
0.137463
0.143391
0.145166
0.144102
0.23288
0.189891
0.285335
0.184981
0.108777
0.0471109
0.065
0.167902
0.277362
0.416155
0.528031
0.359806
0.372391
0.237628
0.234246
0.220473
0.178297
0.109225
0.0547636
0.00941294
0.0102959
0.0147317
0.0196092
0.0154653
0.0094921
0.00187843
0.00193898
0.00198348
0.00201196
0.0020068
0.00196659
0.00200076
0.001893
0.00178392
0.00199837
0.00217883
0.0023028
0.00272065
0.00300883
0.00271299
0.00297392
0.0031516
0.00329645
0.00341639
0.00359497
0.00379598
0.00397215
0.00398172
0.00364888
0.00311029
0.0025304
0.00212706
0.00201522
0.00189248
0.00166888
0.00152672
0.00142975
0.00138275
0.00136323
0.00140088
0.00153099
0.00164381
0.00168336
0.00165023
0.00161991
0.00159349
0.00141892
0.00165907
0.00227576
0.00229334
0.00392914
0.00452745
0.00462166
0.00462821
0.00410252
0.00262057
0.00262627
0.00263969
0.00268987
0.00270041
0.00270724
0.00270445
0.00269504
0.00267936
0.00265024
0.0026356
0.00259288
0.00255684
0.00246655
0.00247054
0.00250161
0.00252647
0.00248491
0.00249474
0.00244304
0.00318187
0.00425337
0.00479766
0.00501323
0.00519887
0.00504578
0.00699297
0.00598175
0.00419955
0.00413264
0.00408162
0.00483965
0.00487269
0.0044048
0.00442322
0.00403315
0.0025183
0.00251249
0.00251423
0.00269047
0.00274385
0.00283687
0.00286277
0.002885
0.0028986
0.00289222
0.00289021
0.00286371
0.00284425
0.0027793
0.00275775
0.00274846
0.00151525
0.00165391
0.00171611
0.00172783
0.00175344
0.00174296
0.00173292
0.00171205
0.00169875
0.00167013
0.00163731
0.00158814
0.00149267
0.00135947
0.00149594
0.00253775
0.00253654
0.00413287
0.00466772
0.00470194
0.00522878
0.00496428
0.00470158
0.00504334
0.0045494
0.00451349
0.00408382
0.00253593
0.0025707
0.00152621
0.00151347
0.00177009
0.00172174
0.00184019
0.001891
0.00189674
0.00192309
0.00194773
0.00197878
0.00202914
0.00204385
0.00201118
0.00200475
0.00188788
0.00163109
0.00165028
0.00194601
0.00204179
0.00189622
0.00186374
0.00184949
0.00180391
0.00176947
0.00173668
0.00175917
0.00189403
0.00189124
0.00185719
0.00176681
0.00171979
0.00149007
0.00143864
0.00251509
0.00255675
0.00423377
0.00432148
0.00428488
0.00494015
0.00551867
0.00627878
0.00535961
0.00436034
0.00456331
0.00522184
0.00388963
0.00326052
0.00194124
0.00144925
0.00182051
0.00166314
0.00173496
0.00179744
0.00159648
0.00171604
0.0015869
0.00144218
0.00143421
0.00143263
0.00146796
0.00148291
0.00150989
0.0015136
0.00155059
0.00154711
0.00155142
0.00157032
0.00157813
0.00174361
0.0018946
0.00159484
0.00135218
0.00131776
0.00124438
0.00118481
0.00121367
0.00118423
0.00117691
0.00115519
0.0011355
0.0010835
0.00112896
0.00119789
0.00140131
0.00134103
0.00108394
0.000968555
0.000661948
0.000675403
0.000680075
0.000700973
0.000708694
0.00071816
0.00072171
0.000733507
0.000735827
0.000739585
0.000739313
0.000757462
0.000754898
0.000746224
0.000740628
0.000744192
0.000747591
0.000747058
0.001094
0.00121815
0.00133045
0.00158016
0.00185929
0.00160068
0.00135682
0.00116955
0.000751779
0.000763035
0.000776972
0.00078415
0.000800882
0.000816078
0.000833055
0.000843728
0.000851747
0.000860093
0.000868918
0.000872382
0.000870207
0.000853319
0.000843392
0.000864723
0.000950391
0.00100018
0.00106413
0.00108827
0.00110864
0.00111863
0.00111358
0.00112539
0.00111241
0.00111068
0.00109202
0.00108415
0.00107671
0.00106722
0.00105534
0.00102568
0.0010159
0.00106871
0.00181083
0.00236933
0.00272868
0.00300588
0.00278531
0.00226589
0.00237466
0.00417751
0.00395981
0.00233193
0.00217993
0.00201534
0.0017659
0.00152964
0.00184527
0.00210685
0.00230463
0.00247786
0.00263639
0.00274421
0.0028829
0.00306392
0.00338314
0.00342333
0.00312269
0.00253065
0.00214241
0.00200114
0.0019335
0.00181547
0.00168641
0.00172858
0.00174096
0.00168906
0.0016246
0.00160625
0.00163285
0.00166678
0.00164685
0.00164617
0.00147062
0.00147008
0.00251193
0.00255912
0.00393656
0.00414777
0.00418792
0.00269259
0.00265561
0.00155114
0.00144051
0.00157145
0.00163129
0.00163464
0.00164124
0.00163282
0.00160425
0.00158334
0.00155902
0.00153919
0.00152167
0.00149144
0.00143384
0.00132428
0.00144297
0.00161826
0.00169014
0.00170891
0.00171796
0.0017452
0.00178968
0.00182537
0.00190813
0.00191668
0.00191596
0.00192276
0.00179716
0.00185348
0.00156865
0.00156646
0.00271501
0.00270768
0.00155556
0.0018369
0.00184928
0.00182813
0.00196802
0.00180088
0.00174372
0.0017343
0.00166074
0.00162162
0.00156948
0.00153823
0.00156817
0.00166797
0.00161475
0.00143089
0.00137884
0.00154709
0.00148875
0.00123523
0.0010554
0.00102644
0.000982603
0.000956037
0.00100213
0.00103805
0.00105855
0.00108459
0.00109232
0.00114018
0.00110939
0.00116425
0.00123467
0.00129078
0.00153113
0.00165916
0.00149889
0.00147009
0.00145185
0.00145018
0.00145474
0.00139469
0.00139071
0.00135969
0.00134441
0.00130388
0.00128553
0.00126218
0.00126628
0.00127953
0.0014066
0.00362599
0.00462309
0.00481332
0.00821884
0.00331997
0.00338972
0.00664201
0.00275038
0.00413385
0.0044294
0.00463335
0.00483983
0.00442764
0.00562182
0.00392698
0.00437519
0.0045606
0.00399
0.00149679
0.00171078
0.00196985
0.00175668
0.0015515
0.00105728
0.0011397
0.00117677
0.00120696
0.00122642
0.00124824
0.00127157
0.00129351
0.00130889
0.00130911
0.0012693
0.00122638
0.00112777
0.00109493
0.00113734
0.00118119
0.00103737
0.000976706
0.000988258
0.00100456
0.0010137
0.00101568
0.00102565
0.00102835
0.00104409
0.00103569
0.00104362
0.00102579
0.00103487
0.00102134
0.000986473
0.00093756
0.000854387
0.000834029
0.00120128
0.00127914
0.00134366
0.00152463
0.00176024
0.00187824
0.00168337
0.00155225
0.00148999
0.00165289
0.0016537
0.0030048
0.00576944
0.00258287
0.00289412
0.00843901
0.00335365
0.00260721
0.00264673
0.00267461
0.00267838
0.0015566
0.00184369
0.0017878
0.001795
0.00152245
0.00127821
0.0011464
0.00102498
0.000695012
0.000692698
0.000697926
0.000708595
0.000711907
0.000681395
0.000681313
0.000677412
0.000675883
0.000661523
0.000657513
0.000645845
0.000638754
0.000621963
0.00061285
0.000596869
0.000594119
0.000620719
0.000690953
0.000835437
0.000928784
0.00105628
0.00107528
0.00120905
0.00299358
0.00347322
0.00478606
0.00474909
0.00749289
0.00468039
0.00353484
0.00319311
0.00467313
0.00482763
0.00447527
0.00606455
0.00419588
0.00277867
0.00419559
0.00349493
0.00411528
0.00404368
0.00429351
0.00682648
0.00719037
0.00202316
0.00180335
0.00189665
0.00215182
0.00255499
0.0023547
0.00268143
0.00268263
0.00207345
0.00131364
0.00418566
0.00504323
0.0040593
0.00488518
0.00753719
0.00302466
0.00294955
0.00260967
0.00217834
0.00197985
0.00195359
0.00217833
0.00260651
0.00652742
0.00698204
0.00645332
0.0064357
0.00583507
0.00640138
0.00798905
0.0079492
0.00702531
0.00657339
0.0068131
0.00422906
0.00261951
0.00305215
0.00338396
0.00451613
0.00465558
0.0098402
0.00333515
0.00368406
0.0037423
0.00500776
0.00484687
0.00857299
0.00362976
0.00391479
0.0051594
0.00689834
0.0127288
0.00463978
0.00488835
0.00703442
0.00714181
0.00652629
0.00471273
0.00426936
0.00465357
0.00350536
0.00342677
0.00292401
0.00431751
0.00581603
0.00459772
0.00446441
0.00379748
0.00337947
0.00346205
0.00359318
0.00298413
0.00294241
0.00339603
0.00252041
0.00243952
0.0025795
0.000716403
0.000367125
0.000375282
0.000385015
0.000392937
0.000401093
0.000407068
0.000414145
0.000417353
0.000417696
0.000418754
0.000442884
0.000438798
0.00042493
0.000385854
0.000440319
0.000698744
0.000699228
0.000439837
0.000387759
0.000695743
0.00110867
0.00130712
0.00154634
0.00156556
0.00135083
0.00117113
0.000720791
0.000709471
0.000430041
0.00050224
0.00054541
0.000483738
0.000539857
0.000500353
0.000529981
0.000535439
0.000495362
0.000492612
0.000494516
0.000490723
0.000481996
0.000471334
0.00045836
0.000448194
0.000442737
0.000438606
0.000429393
0.000356357
0.000332355
0.000400326
0.000639195
0.000638356
0.000598117
0.000563427
0.000533678
0.00051996
0.000515976
0.000513029
0.000521957
0.000538848
0.000543616
0.000548385
0.000590934
0.000572557
0.000611567
0.000573952
0.000613219
0.00057558
0.000529488
0.000444587
0.000458708
0.000739994
0.000747876
0.00120846
0.00138251
0.00156766
0.00157575
0.00175877
0.00185213
0.0015684
0.00162827
0.00186616
0.00173816
0.00154957
0.00155562
0.00139945
0.00140074
0.00124077
0.000775361
0.000764813
0.000480327
0.000466464
0.000556222
0.000546474
0.000607767
0.000650431
0.000650618
0.000648501
0.0006321
0.000626229
0.000550672
0.000539874
0.000540591
0.000524251
0.00052089
0.000543531
0.000593872
0.000697626
0.000844045
0.000918889
0.000950585
0.000911171
0.000815638
0.000602563
0.000544061
0.000943474
0.000978596
0.00175598
0.00416048
0.00194303
0.0036985
0.00266983
0.000663597
0.000740069
0.000943731
0.00105749
0.00114194
0.00119062
0.00108864
0.000908619
0.000684218
0.00056493
0.000842902
0.000728821
0.00082282
0.000718632
0.000930031
0.00107534
0.00104027
0.00104808
0.000885731
0.000721516
0.000764124
0.000685997
0.000756154
0.000633006
0.000761629
0.000687598
0.000864059
0.000872145
0.000853976
0.000809437
0.0006163
0.000646607
0.000542392
0.000588365
0.000528245
0.000545937
0.000517328
0.000603248
0.000695123
0.000667112
0.000664484
0.000545954
0.000427785
0.000472481
0.000408529
0.000462383
0.000359335
0.000435312
0.000365049
0.000472597
0.000487279
0.0004901
0.000487317
0.00039679
0.000466426
0.000571007
0.000599201
0.000603954
0.000575287
0.0004434
0.00068618
0.000619364
0.000756269
0.00065417
0.000716055
0.000652085
0.000760055
0.000973429
0.00101633
0.00102311
0.000830067
0.000824851
0.00150444
0.0834124
0.0013533
0.00159951
0.00164932
0.00164333
0.00135862
0.00132553
0.00164162
0.00121446
0.00171979
0.00108282
0.00183414