/*--------------------------------*- C++ -*----------------------------------*\
| =========                 |                                                 |
| \\      /  F ield         | OpenFOAM: The Open Source CFD Toolbox           |
|  \\    /   O peration     | Version:  v2012                                 |
|   \\  /    A nd           | Website:  www.openfoam.com                      |
|    \\/     M anipulation  |                                                 |
\*---------------------------------------------------------------------------*/
FoamFile
{
    version     2.0;
    format      ascii;
    class       volScalarField;
    location    "120";
    object      alphat;
}
// * * * * * * * * * * * * * * * * * * * * * * * * * * * * * * * * * * * * * //

dimensions      [1 -1 -1 0 0 0 0];


internalField   nonuniform List<scalar> 
22960
(
0.00449297
0.00248041
0.00210729
0.00184234
0.00108762
0.00158804
0.00180709
0.00214905
0.00206276
0.00180527
0.00164742
0.00269836
0.00385088
0.00463402
0.00475376
0.00475014
0.00462237
0.00497231
0.00590418
0.00645355
0.00585726
0.00369653
0.00504791
0.00618125
0.0050215
0.00382573
0.00336852
0.0045514
0.0051655
0.00520722
0.00530213
0.0053122
0.0053651
0.00539044
0.00547749
0.00553389
0.00571999
0.00583548
0.0059779
0.00667389
0.00695971
0.00704944
0.00721068
0.00727856
0.00739
0.00747239
0.00756069
0.00762623
0.00764663
0.00805676
0.00842455
0.00822677
0.00810266
0.00797875
0.00774917
0.00680461
0.00439326
0.00265884
0.00247851
0.00264894
0.00276589
0.00282182
0.00242505
0.00129299
0.00169242
0.00197208
0.00242412
0.00238814
0.00215413
0.00203429
0.00332525
0.00445732
0.0051513
0.0052625
0.00531524
0.00526095
0.00526588
0.00516439
0.00513631
0.0045409
0.00338212
0.00387643
0.00452571
0.00453468
0.00381775
0.00286719
0.00478231
0.00540773
0.00532284
0.00574825
0.00634105
0.00678546
0.00686962
0.00669671
0.00557359
0.00410801
0.00251181
0.00251677
0.00263894
0.00255381
0.00217058
0.00171367
0.00107177
0.00178905
0.00202945
0.00184102
0.00168425
0.00149066
0.00163595
0.00293207
0.0053339
0.00612544
0.00611834
0.00602301
0.00596688
0.00595422
0.00594555
0.00617975
0.00636954
0.00652575
0.00683522
0.00712745
0.00718445
0.00628735
0.00380335
0.00216901
0.00194555
0.00207089
0.00213184
0.00243258
0.00243917
0.00211181
0.00202125
0.00217255
0.0034875
0.00614546
0.00687752
0.00678781
0.00650887
0.00618077
0.00597205
0.00572515
0.00543716
0.00538798
0.00543259
0.0055501
0.00569298
0.0057319
0.00509304
0.00289952
0.0017763
0.00159889
0.00169064
0.00203607
0.00210061
0.00225162
0.00184678
0.00110692
0.00184861
0.00230121
0.00244451
0.00249516
0.00263202
0.00293769
0.00330462
0.00321021
0.0028627
0.00258855
0.00241946
0.00231809
0.0021206
0.00191342
0.00148904
0.000921952
0.00155284
0.00168273
0.0015873
0.00147099
0.0013378
0.00144499
0.0025359
0.00407845
0.00460155
0.00462804
0.00450421
0.00425787
0.00395496
0.00369782
0.00416061
0.00453187
0.00481578
0.00502509
0.00511721
0.00506186
0.00447403
0.0026484
0.00149176
0.0013444
0.00151399
0.00160791
0.00162509
0.00135416
0.000820463
0.00130782
0.0017568
0.00197491
0.00202552
0.00196312
0.00196825
0.00195676
0.00189784
0.0016785
0.00125177
0.000853022
0.000917381
0.00105217
0.0011403
0.00121743
0.00132993
0.00148054
0.00163709
0.00177468
0.00187357
0.00192644
0.00193872
0.0019095
0.00182573
0.0015905
0.00151021
0.00244247
0.00320878
0.00339509
0.00333543
0.00305734
0.00259282
0.00185655
0.0011949
0.00117971
0.00121134
0.000988483
0.000698193
0.000485129
0.000409077
0.000225767
0.000234682
0.000285747
0.000304409
0.000325222
0.000253751
0.000224325
0.000429396
0.00056716
0.00066988
0.000745854
0.000807356
0.000856746
0.000859175
0.00084715
0.000795196
0.00054234
0.000360192
0.000480601
0.00059023
0.000547965
0.000505454
0.000405315
0.000374963
0.000630136
0.000716666
0.00080469
0.00073856
0.00066434
0.000681144
0.000698252
0.000711101
0.000723093
0.000720928
0.000724984
0.000713239
0.000711852
0.00068744
0.000678438
0.000629121
0.000606521
0.000545844
0.000517134
0.000518597
0.000668933
0.000904525
0.00154084
0.00240514
0.00290144
0.00319891
0.0034198
0.00347012
0.00473748
0.0046461
0.00412571
0.00333501
0.00271772
0.00162286
0.00100518
0.000917691
0.000932006
0.000848061
0.000822345
0.000693149
0.000775293
0.000879632
0.00108951
0.00110853
0.000868515
0.000938312
0.000971309
0.00102201
0.00103498
0.00106369
0.00106279
0.00108229
0.00107263
0.00108544
0.00106767
0.00107455
0.00107239
0.00109254
0.00113543
0.00120376
0.000959197
0.00129037
0.00153201
0.00143543
0.00142752
0.00195054
0.00253736
0.0026749
0.00445316
0.00511936
0.00461991
0.00248603
0.00238229
0.0016954
0.00110797
0.00115003
0.00127757
0.00129234
0.00121271
0.00118328
0.00121546
0.00130167
0.00131671
0.00130746
0.00129565
0.00127846
0.00125346
0.00121595
0.00109256
0.00103914
0.00137202
0.0017719
0.00192895
0.0031002
0.00430145
0.00501309
0.00417502
0.00508127
0.00570185
0.0060052
0.00605268
0.0061106
0.00607323
0.0067987
0.0067992
0.00671604
0.00656126
0.00625547
0.00568978
0.00474375
0.00552496
0.00607343
0.00653755
0.0067926
0.00701872
0.00713273
0.00715581
0.00713937
0.00730054
0.00741277
0.00764778
0.00770385
0.00766474
0.0075057
0.00717996
0.00611089
0.00372149
0.00200028
0.00175278
0.00182941
0.00182976
0.00185169
0.00167806
0.00105204
0.00164924
0.00225209
0.00243709
0.00236638
0.00213065
0.0020112
0.00323393
0.00436785
0.00511087
0.00525709
0.00536779
0.00528035
0.00517046
0.00447733
0.00337101
0.00208533
0.00193471
0.00150054
0.0011465
0.00119616
0.00130625
0.00112557
0.000864731
0.000670966
0.000760508
0.000716745
0.000699624
0.000697379
0.00069214
0.000687764
0.000691008
0.000684946
0.000689215
0.000678757
0.000681586
0.000659712
0.000654553
0.000607655
0.00058895
0.000530954
0.000494434
0.000481033
0.000605713
0.000828752
0.00147162
0.00237891
0.00280613
0.00313714
0.00340161
0.00346379
0.00398816
0.00375933
0.00309337
0.00330989
0.0027408
0.00294468
0.00327162
0.00423418
0.00444011
0.00509321
0.00486912
0.00443534
0.00413089
0.0032604
0.00332183
0.00296569
0.00150805
0.00246139
0.0021505
0.00137002
0.00136394
0.00103264
0.00122022
0.00158783
0.00142234
0.00135791
0.0026493
0.00226334
0.00240098
0.00252824
0.00267412
0.00407487
0.00293449
0.00297385
0.00468522
0.00404209
0.0033934
0.00349945
0.00409578
0.00398235
0.00372476
0.00341554
0.00378278
0.00372047
0.00373558
0.00369801
0.00368917
0.00367826
0.00366276
0.00384674
0.00398888
0.00423074
0.00434161
0.00437664
0.00431003
0.00403675
0.00375303
0.00138814
0.000521492
0.00059673
0.000713886
0.000847523
0.00100797
0.00113848
0.00127053
0.00147656
0.00147723
0.00137083
0.00125258
0.00110672
0.000913198
0.000563854
0.0003394
0.000305531
0.000527248
0.000867117
0.00121078
0.00134548
0.00190973
0.00180643
0.00271268
0.00455009
0.00489486
0.00520688
0.00536215
0.00539969
0.00530596
0.00457503
0.00296648
0.00296943
0.00306967
0.00300782
0.00298192
0.00299047
0.00292339
0.0028643
0.00248079
0.00226548
0.00157994
0.00135956
0.00161738
0.00173745
0.00188507
0.00187147
0.002097
0.0019822
0.00203569
0.00195537
0.00175017
0.0016029
0.00264381
0.00378801
0.00460737
0.00476804
0.00483715
0.00465397
0.00442069
0.00368249
0.00271517
0.0016633
0.0015223
0.00117161
0.000887419
0.000916735
0.000991284
0.000842125
0.00063376
0.000474776
0.000418713
0.000247497
0.000258439
0.000317548
0.000329803
0.000336838
0.000270383
0.000252666
0.000503219
0.00065164
0.000750854
0.000824854
0.000891749
0.000939384
0.000941445
0.000928743
0.000864489
0.00052189
0.000352172
0.000466215
0.000563997
0.000528319
0.000490996
0.000395144
0.000365996
0.000605239
0.000549641
0.000607995
0.000692681
0.000739811
0.000783265
0.000797224
0.000802404
0.000816365
0.000908367
0.00105889
0.00138063
0.00192408
0.00220582
0.0025657
0.00256495
0.00248982
0.00239528
0.00223689
0.00203947
0.0017916
0.00146801
0.000871558
0.00058105
0.000552994
0.00158113
0.00161292
0.00174387
0.00235158
0.00255423
0.00220443
0.00355281
0.00376366
0.00549454
0.00500039
0.00505912
0.00524866
0.00531754
0.0052437
0.00470114
0.00459018
0.00512105
0.00520511
0.00513722
0.00495344
0.00510385
0.00518572
0.00365315
0.0038279
0.00220723
0.002263
0.00267425
0.00254326
0.00225269
0.00228513
0.00199785
0.00185356
0.00174334
0.00183693
0.00180322
0.00220914
0.0023844
0.00261151
0.00269047
0.00266641
0.0026981
0.00278222
0.00278278
0.0025391
0.00232691
0.00169877
0.0014281
0.00155103
0.00190182
0.00204783
0.00213891
0.00204551
0.00197354
0.00196143
0.00200678
0.00208014
0.00201192
0.00193644
0.00168485
0.00176198
0.00176522
0.00173459
0.00172707
0.00172751
0.00174664
0.00177106
0.00175725
0.00154035
0.00141369
0.00149302
0.00144637
0.00149817
0.00166055
0.00175732
0.00180584
0.0017934
0.00182497
0.00180821
0.00180629
0.00174078
0.00169407
0.00175557
0.00179451
0.00188933
0.00194485
0.00187063
0.00222993
0.00218881
0.0025126
0.00259667
0.00244856
0.00211177
0.00188882
0.00348087
0.00333251
0.00332391
0.00207848
0.00214542
0.00251373
0.00235108
0.00230356
0.00203645
0.00183761
0.00179725
0.00183176
0.00182141
0.00181783
0.00177972
0.00177341
0.00173707
0.001678
0.00157468
0.00158983
0.00157278
0.00154773
0.00141438
0.00127235
0.00123884
0.00113599
0.00143803
0.00153596
0.00148114
0.00152222
0.00176088
0.00165474
0.00154695
0.00289648
0.00192702
0.00129344
0.00129527
0.00129557
0.00129606
0.00129262
0.00128418
0.00126455
0.00122769
0.00116849
0.00101861
0.00163375
0.0026334
0.00322697
0.00401549
0.00458037
0.00469408
0.00545433
0.00543761
0.00549595
0.00554419
0.00557947
0.00557613
0.00547266
0.00471908
0.00366677
0.00326835
0.00297438
0.00319608
0.00345683
0.00362246
0.00222838
0.00243127
0.00249045
0.00260287
0.00296405
0.00353865
0.00371323
0.00339666
0.0031911
0.00302696
0.00286698
0.00252786
0.00297439
0.00323558
0.00330872
0.00333274
0.00359783
0.00437811
0.00454227
0.00438451
0.00393287
0.00390713
0.00381914
0.00387534
0.00387034
0.00385522
0.00408663
0.00522919
0.00548651
0.00519862
0.00519912
0.00549657
0.0052141
0.00473412
0.00479408
0.00259188
0.000691587
0.0028643
0.00353984
0.00492912
0.0044283
0.00355896
0.00309249
0.00419121
0.00401555
0.00500193
0.0051182
0.00454426
0.00506771
0.0050285
0.00529281
0.00549697
0.00483415
0.00444015
0.00462837
0.00484633
0.0049211
0.00469983
0.0049398
0.00487035
0.00511516
0.00515176
0.0044033
0.00532121
0.00404461
0.00347049
0.00561689
0.00638758
0.00718327
0.00800148
0.00860738
0.00918848
0.00981665
0.0104918
0.0107779
0.0109565
0.0103643
0.00959681
0.0089541
0.00842325
0.00798893
0.00765397
0.00739401
0.00711314
0.00700178
0.00674579
0.00627683
0.00672532
0.00706902
0.00733141
0.00756687
0.00776075
0.00790474
0.00807182
0.00866231
0.00869402
0.00870156
0.00854447
0.00830467
0.00801565
0.00759928
0.00651976
0.00386509
0.00228443
0.00207136
0.00213362
0.00237076
0.00232556
0.00234253
0.00197864
0.00112706
0.00143288
0.00216784
0.00254351
0.00251964
0.00253384
0.00262531
0.00233837
0.00406923
0.00418741
0.00660608
0.00777427
0.00827887
0.00868994
0.00912121
0.00951872
0.00974826
0.00988485
0.00888785
0.00848423
0.0082098
0.00793265
0.00766366
0.00740176
0.00711421
0.00731994
0.00757514
0.00784249
0.0081975
0.00865224
0.00925697
0.0100728
0.0113064
0.0108222
0.0101403
0.0094904
0.00891251
0.00840218
0.00786697
0.00709102
0.0063578
0.00408072
0.00416673
0.00224768
0.0024078
0.00265304
0.00265085
0.00264613
0.00259842
0.00221386
0.00168379
0.00198724
0.0018685
0.00327662
0.0036472
0.0039893
0.00408577
0.00239182
0.00239961
0.00246861
0.00260214
0.00251411
0.00249027
0.00355222
0.00354806
0.00359342
0.00369931
0.00379802
0.00279089
0.00308887
0.00395125
0.00387754
0.00330764
0.00318666
0.00334735
0.00328226
0.00404287
0.00395221
0.0037823
0.00378663
0.00286126
0.00312388
0.00390129
0.00376714
0.00299402
0.00271479
0.00302286
0.00113442
0.002144
0.00176972
0.00300145
0.00371471
0.00398869
0.00470229
0.004558
0.00448329
0.00440195
0.00363849
0.00336153
0.00308608
0.00430734
0.00425247
0.00353209
0.00360885
0.00406814
0.00377459
0.0046711
0.00476195
0.00447834
0.00425713
0.00281198
0.00418627
0.00432086
0.00443419
0.00420861
0.003793
0.00335654
0.00309692
0.00373964
0.00373185
0.00372291
0.00317269
0.00265588
0.00212646
0.00301465
0.0032599
0.00391632
0.00376835
0.0035995
0.00276612
0.00285647
0.00206088
0.00232376
0.00243704
0.00225411
0.00191381
0.00334689
0.00513348
0.005817
0.00588808
0.005891
0.00584816
0.005736
0.00500828
0.00320572
0.00315981
0.00324298
0.00322313
0.00323258
0.00323455
0.00316515
0.00325588
0.00321164
0.00325244
0.00326218
0.00329208
0.00334269
0.00335934
0.00342774
0.00531791
0.00505954
0.00521416
0.0050108
0.00492927
0.00508975
0.00514473
0.00507225
0.00480454
0.00450755
0.00436056
0.00488447
0.00495496
0.00498274
0.00503926
0.00510159
0.00505883
0.00493643
0.0048688
0.00464171
0.00493679
0.00530422
0.00541815
0.00530753
0.00511281
0.00505256
0.00499088
0.00534775
0.0050097
0.00505006
0.00564022
0.00574948
0.00579002
0.00577558
0.00567188
0.00510113
0.00323621
0.00181804
0.00214455
0.00232087
0.00232238
0.00216372
0.00204792
0.00216067
0.00219126
0.00207454
0.00177149
0.0032884
0.00326786
0.00506239
0.00563622
0.0057493
0.00576236
0.00571536
0.00560218
0.00564693
0.0057435
0.00580293
0.00581962
0.00576471
0.00555422
0.00541075
0.00328899
0.00333011
0.00163617
0.00173897
0.00200913
0.00210879
0.00213581
0.0020376
0.00180226
0.00190503
0.00185674
0.00179994
0.00333978
0.00339857
0.00307589
0.00314814
0.0019955
0.003002
0.00394623
0.00406805
0.00420933
0.00325605
0.00377477
0.00282725
0.00288776
0.00374888
0.00372519
0.00356504
0.0036961
0.00386898
0.00400732
0.00374909
0.00376789
0.00535851
0.00402681
0.00409067
0.00380554
0.00414779
0.00416495
0.00410854
0.00386579
0.006004
0.00480983
0.00442053
0.00426635
0.00479423
0.00477074
0.00460676
0.0031401
0.00339752
0.00350682
0.00358578
0.00406644
0.00401027
0.00478449
0.00487564
0.00454227
0.00417291
0.00405394
0.00354605
0.00343701
0.0047228
0.00536248
0.00537601
0.00365622
0.0042598
0.00533901
0.00530233
0.00546143
0.00563359
0.0056071
0.00341806
0.003283
0.00318468
0.00299221
0.00277952
0.00311683
0.0034528
0.00377524
0.00391596
0.0043039
0.00467988
0.00510918
0.00517781
0.00488138
0.00541518
0.00534355
0.00528661
0.00523052
0.00520884
0.00446139
0.00573568
0.00553891
0.00524895
0.00483409
0.00309682
0.00193125
0.00223787
0.00250204
0.00241532
0.00360359
0.00445682
0.00360539
0.00464228
0.00468706
0.00483846
0.00436072
0.0041767
0.00461682
0.00510557
0.00494938
0.00494761
0.00572915
0.00484146
0.00483961
0.00513383
0.00504274
0.00550061
0.00500557
0.00475763
0.00505739
0.00532929
0.00491731
0.00456455
0.00488915
0.0050524
0.00440382
0.00417302
0.00370185
0.00291862
0.00319697
0.00340691
0.0033012
0.00367578
0.00443661
0.00500706
0.00384277
0.00484544
0.00484726
0.00480082
0.00475531
0.00519403
0.00575469
0.00556263
0.00586075
0.00578071
0.00573786
0.00543448
0.00529535
0.00494675
0.00524721
0.00537788
0.00535393
0.00516048
0.00488953
0.00523976
0.00482384
0.00419874
0.00435002
0.00495847
0.00516595
0.00465251
0.00474078
0.00523863
0.00568568
0.00550508
0.0050364
0.00461633
0.00504976
0.00518391
0.00464676
0.0044307
0.00392991
0.00410055
0.00476693
0.00501126
0.00440188
0.00438723
0.00431061
0.00425381
0.00494242
0.00528006
0.00518176
0.00537667
0.00553268
0.00569291
0.00560045
0.00555361
0.00549784
0.00566401
0.00554224
0.00560572
0.00550141
0.00518247
0.00536003
0.00514294
0.00540489
0.00453102
0.00530707
0.00548737
0.00485892
0.00552414
0.00560826
0.0054528
0.00571951
0.0041929
0.00418413
0.00387422
0.00413729
0.00490296
0.00599289
0.00536777
0.00535701
0.004657
0.00477762
0.0053943
0.00537934
0.00525088
0.00497975
0.00626101
0.00672567
0.00568776
0.00670027
0.00622555
0.00596824
0.00588657
0.00589126
0.00585391
0.00577359
0.00568342
0.00559714
0.00553049
0.00548019
0.00540582
0.0049253
0.00519037
0.00540024
0.00513938
0.00477463
0.00480733
0.00489883
0.00497437
0.00498166
0.00492777
0.00487998
0.00488318
0.00487411
0.00474704
0.00454518
0.00425665
0.00433589
0.00433877
0.00435373
0.00433994
0.00435272
0.00446628
0.00485169
0.00514574
0.00522017
0.00520786
0.00505501
0.00495374
0.005088
0.00531677
0.00557113
0.00569873
0.00579059
0.00588146
0.00596448
0.00613776
0.00650621
0.00704763
0.00725677
0.00643018
0.00566144
0.00549257
0.00530253
0.0051905
0.00505673
0.00479301
0.0043311
0.00459437
0.00454777
0.00528474
0.00551571
0.00559287
0.00553244
0.00505331
0.00350724
0.00363354
0.00361271
0.00326271
0.0027758
0.00317823
0.00324816
0.00362672
0.00366861
0.0033788
0.00323764
0.00309028
0.00348618
0.0037443
0.0037031
0.00367189
0.00353228
0.00336982
0.00324785
0.00309004
0.00300847
0.00291199
0.00287518
0.00282627
0.0028074
0.00276148
0.00437035
0.00497863
0.00488008
0.00460733
0.00418984
0.00441078
0.00459187
0.00416258
0.00264816
0.00274622
0.00268993
0.00276641
0.00271523
0.00271417
0.00272336
0.00272294
0.0027297
0.00272101
0.00273486
0.00272866
0.00279685
0.00274008
0.00287023
0.00318287
0.00159997
0.00172413
0.00174645
0.00173521
0.0016942
0.00167182
0.00166282
0.00165273
0.00165044
0.00165018
0.00166751
0.00166036
0.00161558
0.00148011
0.00157279
0.00264322
0.00260447
0.00408709
0.00257092
0.00153385
0.00156153
0.00180671
0.0018012
0.00187144
0.00183172
0.00168843
0.00164522
0.0016507
0.00166138
0.00167286
0.0017393
0.00195475
0.00202195
0.00200303
0.00175126
0.00178898
0.00209029
0.00201477
0.00173461
0.00142309
0.00126894
0.00124328
0.00124176
0.00123839
0.00123281
0.00122547
0.00121732
0.00120755
0.00119726
0.00121202
0.00134523
0.00161797
0.00184317
0.00167313
0.00176013
0.00168943
0.0014745
0.00246835
0.00387197
0.00242103
0.00142606
0.00161819
0.00149239
0.00156542
0.00134238
0.001393
0.00153946
0.00133152
0.00123184
0.00109608
0.00103975
0.00107226
0.00108436
0.00109678
0.00110741
0.00111492
0.0011202
0.00109953
0.00116803
0.00132289
0.00144718
0.00169754
0.00187275
0.00158503
0.00130731
0.0011789
0.00105488
0.000743198
0.000732085
0.000720755
0.00072006
0.000736559
0.000747437
0.00074936
0.000749226
0.000741403
0.000731109
0.000715329
0.000666353
0.000673051
0.000688944
0.000704912
0.000705421
0.000713279
0.000724769
0.000732561
0.000739749
0.000734367
0.000731291
0.000735591
0.00074202
0.000742169
0.000735608
0.000732951
0.000728039
0.000726114
0.000717914
0.000710544
0.000700709
0.000695216
0.000690056
0.000684278
0.000672652
0.000665271
0.000654762
0.00095932
0.00105968
0.00115402
0.00137076
0.00161143
0.00176077
0.00155859
0.00263603
0.00416952
0.00259126
0.00151738
0.0017029
0.00155154
0.00130129
0.00125952
0.00127678
0.00131938
0.00111334
0.00113246
0.00117836
0.0010755
0.000968403
0.000659191
0.000667422
0.000671353
0.000682186
0.000686111
0.000689502
0.000692969
0.00070111
0.000706244
0.000711732
0.000710137
0.000712207
0.000713129
0.000718675
0.000718343
0.000712472
0.000708254
0.000717252
0.000404137
0.000443189
0.000457627
0.0004561
0.000455415
0.000450194
0.000455573
0.000449341
0.000445979
0.000435614
0.000427375
0.000422375
0.000420965
0.000416915
0.000405411
0.000370848
0.000413233
0.000662391
0.000661586
0.000409853
0.000362414
0.000637681
0.000992759
0.000641454
0.000391448
0.000454351
0.000485544
0.000443491
0.000491423
0.000464754
0.000485337
0.000502405
0.000510258
0.000520388
0.000530226
0.000535266
0.00054219
0.000563795
0.000560508
0.000568001
0.000567363
0.000558978
0.000532077
0.000471247
0.000522855
0.000581164
0.000603111
0.000611237
0.000561895
0.000562251
0.00058763
0.000578704
0.000573016
0.000566394
0.000533812
0.00051287
0.000536522
0.000511776
0.000533557
0.00050874
0.000527023
0.000500128
0.000467157
0.000395111
0.000640685
0.000996298
0.000639989
0.000394638
0.000466915
0.000511182
0.000540342
0.000541891
0.00055009
0.000548292
0.000561628
0.00054767
0.00049753
0.000535173
0.000211855
0.000376776
0.000297685
0.000372251
0.000308422
0.000419105
0.000506856
0.000499498
0.000510958
0.000433953
0.000412849
0.00040593
0.000414
0.000424127
0.000412097
0.000454461
0.000460583
0.000574648
0.000573674
0.000584643
0.000610428
0.000511919
0.000526716
0.000484298
0.00053557
0.000519661
0.000531704
0.000539273
0.000549667
0.000652808
0.000669543
0.000685566
0.00057746
0.000407271
0.000500872
0.000374802
0.000472861
0.000249133
0.000575127
0.000574394
0.000550296
0.000575834
0.000580937
0.000581808
0.000582552
0.00055823
0.000725387
0.000687732
0.000779345
0.000278847
0.000561851
0.000384093
0.000530673
0.000395368
0.000522977
0.000673124
0.000707299
0.000699334
0.000593641
0.000645634
0.00178532
0.128083
0.00136099
0.00166404
0.00169134
0.00165953
0.00127365
0.000941199
0.00127066
0.000803494
0.00131871
0.000576784
0.00192184
0.00169697
0.00188599
0.00199346
0.000886645
0.00094303
0.000977338
0.00102805
0.000893031
0.000869299
0.00104739
0.00107042
0.10593
0.129892
0.13688
0.130747
0.100046
0.128309
0.345148
0.545356
0.645262
0.187939
0.00141966
0.00151901
0.00100686
0.000854511
0.000382404
0.000847549
0.00162097
0.136644
0.292914
0.747565
1.38259
0.99344
0.645942
0.335089
0.124736
0.29423
0.119266
0.326456
0.133045
0.17102
0.447893
0.82556
0.638214
0.976846
0.610701
0.986247
1.27208
1.50427
1.75574
1.21261
0.477641
0.138205
0.00113746
0.000816445
0.000852856
0.00160094
0.00123397
0.000697413
0.000821082
0.00165449
0.143283
0.500423
1.31822
1.63795
1.73292
1.64162
1.47635
1.26025
1.39086
1.15778
1.20381
0.869937
0.470047
0.170687
0.177112
0.470497
0.866218
1.17927
1.40193
1.42148
1.55401
1.53857
1.69693
1.76748
1.78014
1.65751
1.07168
0.213599
0.00205975
0.00106943
0.00117125
0.00209781
0.209588
1.13534
1.73528
1.81499
1.77837
1.7092
1.70358
1.56711
1.44897
1.26799
1.03208
0.681633
0.369916
0.119729
0.00161691
0.00161355
0.00171019
0.0015044
0.117863
0.3098
0.589885
0.945941
1.18106
1.35695
1.59541
1.70154
1.78081
1.82011
1.81296
1.22486
0.203379
0.00208836
0.00116468
0.000872897
0.00170472
0.120589
0.460202
1.79653
1.7928
1.60003
1.52672
0.852299
0.771674
0.657098
0.485214
0.289444
0.112831
0.00192792
0.00123657
0.00160262
0.164286
0.178199
0.184441
0.185635
0.122253
0.463822
0.119736
0.451624
0.118208
0.00197344
0.00218217
0.000901079
0.000822751
0.000926609
0.00198749
0.00206188
0.000910789
0.000954767
0.00185262
0.00214407
0.000845183
0.000689193
0.00140419
0.00172653
0.000850163
0.000844692
0.00175617
0.00170523
0.000810653
0.000744777
0.000539723
0.000657432
0.000570059
0.000643076
0.000616407
0.000659257
0.00130677
0.00113479
0.00101493
0.00112465
0.00124793
0.00149454
0.00152334
0.00168469
0.00169164
0.00177011
0.00183647
0.0018528
0.00170626
0.00130987
0.00159265
0.00170218
0.00167395
0.00141548
0.00200171
0.00118811
0.00102117
0.00108685
0.00110499
0.00086391
0.00109029
0.00120156
0.00127585
0.00113121
0.000968335
0.00114844
0.00130935
0.00166037
0.00166611
0.00147418
0.00152158
0.001927
0.00172064
0.00179637
0.00188448
0.00169269
0.00158213
0.00177041
0.00141794
0.00150578
0.00312768
0.0121063
0.0196227
0.032392
0.0379505
0.0352155
0.0209369
0.0143854
0.00554212
0.00114824
0.00121229
0.000816243
0.0011371
0.00142735
0.00153748
0.00140794
0.00104293
0.00129459
0.00155421
0.00105337
0.00090308
0.000942715
0.00106286
0.000977124
0.000766417
0.000701155
0.000963906
0.00100087
0.00106992
0.000981932
0.000779518
0.000870301
0.00104605
0.0011215
0.00100095
0.000952468
0.000792472
0.000553342
0.00103422
0.00116291
0.00128558
0.00124184
0.0012522
0.00140821
0.00150869
0.00153827
0.00109171
0.000906133
0.00124586
0.00149362
0.00166261
0.00161836
0.00711213
0.00271599
0.0014589
0.00105063
0.000962549
0.000945701
0.00104168
0.000765066
0.000899926
0.0009993
0.0010487
0.000991467
0.000959979
0.000844919
0.000961112
0.00102521
0.00100134
0.000933098
0.000782368
0.000879455
0.000891767
0.000977235
0.000931789
0.000816381
0.000852912
0.0009225
0.00097987
0.000943636
0.00107605
0.000828142
0.00107948
0.00107028
0.00103168
0.00117225
0.000999684
0.00121548
0.000906324
0.000845296
0.00126781
0.000878895
0.00081382
0.00140087
0.00090896
0.000846922
0.00163376
0.000966892
0.000851791
0.00204363
0.000781817
0.00121739
0.00115247
0.00117588
0.00101198
0.00104536
0.00117896
0.00118669
0.0016294
0.00123536
0.000920864
0.000469547
0.000409757
0.000455248
0.000538051
0.000591165
0.000616379
0.000641322
0.000650791
0.000603516
0.000624971
0.00065435
0.000678022
0.000655779
0.000622962
0.000566046
0.000469433
0.000474546
0.00057429
0.000649748
0.000691069
0.000687011
0.000662708
0.000932446
0.00157198
0.00157071
0.00134993
0.00146617
0.00167897
0.00149732
0.0012251
0.00104606
0.00114402
0.00125667
0.00121095
0.00112781
0.00102393
0.00118888
0.00119478
0.0012152
0.00121453
0.00123272
0.00104232
0.00113043
0.00123487
0.0012818
0.001263
0.00117508
0.00120641
0.00138746
0.00151137
0.00139197
0.00147973
0.0015719
0.00142865
0.00108147
0.000682891
0.000679032
0.000661454
0.000573062
0.000473131
0.000466869
0.000570219
0.000663754
0.000671432
0.000683525
0.000647752
0.000560977
0.000454455
0.000434846
0.00053891
0.000610609
0.000659766
0.000637557
0.000579631
0.000493273
0.000400566
0.000411179
0.000502568
0.000598546
0.00062935
0.000651195
0.000682883
0.000696008
0.000690532
0.000677816
0.000658079
0.000626194
0.000610091
0.00060392
0.000577691
0.000566693
0.000564881
0.000546924
0.000540196
0.000551682
0.000523369
0.000487872
0.000438886
0.000404245
0.00035655
0.00063085
0.000982058
0.0011259
0.00134849
0.00131264
0.00110226
0.00109086
0.00106353
0.00108276
0.000972633
0.00062806
0.000388778
0.000459896
0.000511517
0.000518473
0.000523485
0.000760492
0.000795814
0.000941059
0.000988938
0.000869055
0.000967503
0.00107593
0.000966919
0.00082905
0.000954542
0.00105272
0.0012249
0.00136194
0.00120432
0.00113856
0.00131082
0.00144535
0.0012795
0.00102665
0.000693459
0.00110204
0.00118219
0.0010328
0.0008784
0.00484062
0.000952556
0.00148056
0.000987782
0.000871569
0.000910781
0.00100688
0.000921396
0.00074336
0.000678203
0.000903461
0.00093361
0.000994281
0.000909619
0.000739193
0.000825444
0.000972877
0.00104111
0.000945846
0.00101764
0.000782559
0.000534286
0.000859243
0.000983845
0.00109601
0.00101751
0.00113793
0.00142162
0.00129752
0.00120615
0.00127203
0.000882539
0.000887656
0.000844301
0.000819983
0.00211083
0.000818345
0.000759844
0.00205695
0.000913426
0.000832575
0.00104915
0.000849274
0.00091505
0.00091279
0.000932763
0.00175304
0.00196395
0.00183395
0.00137704
0.00134152
0.00142118
0.00200421
0.00202504
0.00200629
0.00179012
0.00120305
0.00171003
0.00215512
0.00224017
0.00183737
0.00144895
0.00159923
0.00165762
0.00147314
0.00105882
0.00104453
0.00102505
0.00095734
0.000992375
0.00100691
0.00100702
0.00101014
0.000940807
0.0010433
0.00107226
0.00111355
0.00103594
0.000976391
0.00108908
0.0011302
0.0012505
0.00106623
0.00113084
0.000867699
0.00124143
0.00146268
0.00170945
0.0017424
0.00154048
0.00119974
0.000950093
0.00112122
0.00136064
0.00164112
0.00153892
0.0013119
0.00154148
0.00122804
0.0013041
0.00159143
0.00114345
0.00108435
0.00106025
0.00107626
0.000941209
0.00152239
0.00117301
0.00120432
0.00110395
0.001054
0.00152995
0.000892448
0.00118236
0.00117566
0.00124661
0.00131204
0.00120471
0.00209975
0.000801807
0.00120393
0.00122723
0.00195635
0.0012631
0.00137526
0.00135037
0.00130215
0.00203959
0.00141339
0.00146327
0.00126334
0.00122563
0.00281549
0.00149351
0.0015162
0.00119244
0.00108832
0.0025541
0.00141109
0.00138524
0.00108077
0.00113783
0.000425856
0.000518564
0.000615648
0.000611636
0.000672627
0.000635351
0.000690692
0.000640068
0.000657851
0.0005921
0.000596704
0.000581879
0.000569689
0.000541752
0.000533016
0.000531836
0.000527319
0.000517692
0.000505307
0.000484296
0.00046152
0.000409017
0.000654512
0.000653296
0.000646504
0.000643635
0.00193557
0.000875403
0.000448598
0.000386025
0.000634316
0.000628915
0.000982174
0.000970689
0.000952868
0.000613689
0.000623324
0.000385564
0.000456632
0.000509447
0.000504805
0.000511222
0.000501487
0.000454373
0.000380932
0.000379602
0.000611417
0.000621523
0.000383972
0.000455864
0.000453259
0.000488306
0.000500159
0.000512434
0.000501231
0.00050616
0.000454678
0.000384699
0.000622404
0.000630068
0.000388695
0.000459454
0.00051166
0.000518802
0.000506474
0.000776535
0.000946831
0.00101239
0.00112604
0.00110978
0.000945803
0.000979082
0.00106147
0.0011771
0.00116799
0.00116256
0.00120175
0.00108731
0.000859226
0.000779911
0.000988665
0.00104477
0.00114656
0.00183203
0.00133186
0.00102551
0.000960117
0.00104968
0.000986449
0.000989363
0.000941313
0.000883427
0.00093917
0.000914096
0.000734235
0.000794061
0.0008986
0.000936721
0.000860672
0.000926015
0.000821033
0.000720698
0.000858052
0.000918274
0.000912521
0.000832893
0.000659608
0.000873629
0.0009035
0.000937944
0.000818626
0.00071327
0.000855299
0.000849701
0.000898721
0.00192225
0.000837175
0.000873235
0.00189497
0.000758863
0.000719597
0.000665042
0.000744818
0.000743203
0.000805336
0.0008053
0.000843123
0.000851879
0.00188627
0.000787738
0.000846953
0.00182682
0.000741248
0.000649671
0.000657378
0.000720603
0.000675292
0.00072903
0.000672085
0.00197608
0.000771356
0.000817429
0.000861976
0.000867278
0.000915737
0.000874875
0.00209778
0.000803375
0.000854948
0.000715237
0.000660509
0.000689851
0.000660929
0.00213446
0.000830873
0.000903716
0.000892486
0.000952913
0.000902207
0.000503714
0.000458968
0.000387851
0.000667004
0.00206284
0.000880045
0.000840158
0.000673229
0.000713131
0.00083842
0.00187862
0.00165778
0.00172792
0.00175406
0.00165809
0.00156304
0.00161755
0.00167756
0.00168584
0.00172409
0.00172065
0.00183864
0.00182571
0.00218859
0.00256679
0.00163033
0.00229803
0.00503253
0.00649696
0.00850167
0.00172186
0.00126676
0.000988621
0.00101372
0.000914577
0.00099944
0.000959243
0.00117816
0.00122018
0.00117245
0.000922492
0.000939423
0.000973694
0.00106611
0.00102766
0.0012712
0.00167229
0.00817318
0.00681604
0.00383701
0.0025703
0.00149498
0.0015724
0.00158385
0.00159553
0.00106169
0.00536968
0.00325339
0.00183858
0.00397892
0.0025725
0.00347622
0.00316942
0.00384902
0.00379034
0.00144356
0.00143991
0.00143541
0.00142906
0.00142277
0.00141612
0.00141336
0.00142555
0.00155465
0.00258151
0.00319098
0.00327791
0.00353683
0.0036687
0.00414273
0.00448438
0.00504794
0.00565547
0.00608288
0.00552875
0.0080679
0.00583616
0.00719149
0.00707048
0.00795732