/*--------------------------------*- C++ -*----------------------------------*\
| =========                 |                                                 |
| \\      /  F ield         | OpenFOAM: The Open Source CFD Toolbox           |
|  \\    /   O peration     | Version:  v2012                                 |
|   \\  /    A nd           | Website:  www.openfoam.com                      |
|    \\/     M anipulation  |                                                 |
\*---------------------------------------------------------------------------*/
FoamFile
{
    version     2.0;
    format      ascii;
    class       volScalarField;
    location    "435";
    object      alphat;
}
// * * * * * * * * * * * * * * * * * * * * * * * * * * * * * * * * * * * * * //

dimensions      [1 -1 -1 0 0 0 0];


internalField   nonuniform List<scalar> 
18258
(
0.00483594
0.00210487
0.00172282
0.0014916
0.000990462
0.00161943
0.00224962
0.0026788
0.00281122
0.00278859
0.0028885
0.00487568
0.00684366
0.00845957
0.00888732
0.00887281
0.00805625
0.00769395
0.00835427
0.0102727
0.00863781
0.00553261
0.00662887
0.00765992
0.00833077
0.00737549
0.00596354
0.00552308
0.00499987
0.0041669
0.00349341
0.00238498
0.00175343
0.00162588
0.00147314
0.00167886
0.00182809
0.00194866
0.00199264
0.00202411
0.00201038
0.00199895
0.00194489
0.00191178
0.0018551
0.00153466
0.00185861
0.00190696
0.00208643
0.00288491
0.00310059
0.00260834
0.00288645
0.00257457
0.00169647
0.00194185
0.00210785
0.00215324
0.00212552
0.00203726
0.00200752
0.00198233
0.00195041
0.00191252
0.00188943
0.0019084
0.00192825
0.00190741
0.00181381
0.00173806
0.00161544
0.00149249
0.00140141
0.00133086
0.00127768
0.00121843
0.00115186
0.00101179
0.000937757
0.0012416
0.00155875
0.00166559
0.00236088
0.00287855
0.00289832
0.00216995
0.00154658
0.00160522
0.0017842
0.00180159
0.00152609
0.00181343
0.00205342
0.00212811
0.00221752
0.00247901
0.00282404
0.00275352
0.00245257
0.00226101
0.00219936
0.00252711
0.00240656
0.00312174
0.00314054
0.00273151
0.00253958
0.00285638
0.00368452
0.0039606
0.00307455
0.00288862
0.00283214
0.00279513
0.00252914
0.00261905
0.00237952
0.00214412
0.00233648
0.00282188
0.00267615
0.00292203
0.00302839
0.00284153
0.00329278
0.00379708
0.00374304
0.00299525
0.00244357
0.0022778
0.00229491
0.00140356
0.00151564
0.00163227
0.00167228
0.00170051
0.0017244
0.00183814
0.00183398
0.00180688
0.00180288
0.00183365
0.00101086
0.00109533
0.00112265
0.00113053
0.00107413
0.00106301
0.00104307
0.00102691
0.000968802
0.000927061
0.00110911
0.00124528
0.00135624
0.00148608
0.00167945
0.00191607
0.00216482
0.00241626
0.00258258
0.00262999
0.00267784
0.00258075
0.00248294
0.0025714
0.00258622
0.00256942
0.00253478
0.00249109
0.00243214
0.00232412
0.0024486
0.00244147
0.00229351
0.001966
0.00200973
0.00200618
0.00205846
0.00204814
0.00206904
0.00203994
0.00200567
0.00190913
0.00177421
0.00147633
0.00144076
0.00145862
0.00187293
0.00227372
0.00351214
0.00428427
0.00497418
0.00532279
0.005696
0.00460847
0.00512945
0.00395356
0.00354915
0.00451086
0.00590045
0.00336651
0.00183786
0.00348642
0.00309226
0.00224329
0.00199687
0.00205785
0.00206102
0.00236672
0.00272929
0.00302963
0.00317485
0.00330291
0.00340506
0.00351776
0.00366073
0.00370023
0.00357494
0.00302653
0.00364723
0.00296231
0.00346047
0.00312621
0.00210973
0.00222679
0.00236285
0.00216289
0.00210388
0.0020139
0.00181401
0.00223504
0.00289328
0.00335799
0.00383919
0.00511955
0.00473663
0.00454171
0.00351698
0.00340077
0.00176509
0.00251732
0.00261146
0.00293602
0.00195256
0.00178064
0.0016896
0.00224183
0.00259809
0.0030655
0.00339935
0.00403759
0.00313022
0.00357568
0.00323545
0.0022542
0.00216977
0.00310798
0.0033479
0.00275293
0.00246266
0.00308892
0.00292314
0.00207354
0.00165887
0.00254806
0.00263768
0.00189311
0.00468811
0.00500815
0.00478192
0.00582875
0.00730653
0.00833182
0.00775841
0.00688394
0.00768445
0.00610279
0.00591143
0.00630492
0.00529517
0.00370977
0.00380307
0.00393298
0.00404014
0.00433833
0.00460916
0.00493947
0.00525288
0.00477413
0.0039638
0.00299963
0.00206283
0.0020337
0.00202288
0.00181653
0.00269232
0.00407573
0.00405018
0.00230286
0.00134166
0.0015161
0.00171148
0.00169454
0.00123034
0.00092562
0.00159433
0.00182332
0.00185296
0.00180709
0.00170628
0.0017831
0.00286358
0.00441159
0.0048475
0.00502078
0.00518482
0.00530079
0.00536546
0.00538617
0.00539784
0.00541205
0.00542449
0.00544325
0.0054264
0.00531077
0.00467109
0.00293653
0.00171623
0.001594
0.00175918
0.00189056
0.00200515
0.00170598
0.00104332
0.00166632
0.00213383
0.00245301
0.00247412
0.00230919
0.00224022
0.00353268
0.00469723
0.00553697
0.00570729
0.00578331
0.00572016
0.00571229
0.00558801
0.00554957
0.00486664
0.00347947
0.00380397
0.00408412
0.00413045
0.00422546
0.0043683
0.00426677
0.00403127
0.00589092
0.00679853
0.00688563
0.00703214
0.00694907
0.00682938
0.00651965
0.00616562
0.00519075
0.00389278
0.00245636
0.00250772
0.00266968
0.00264419
0.00230181
0.00242505
0.00263182
0.00265822
0.00274536
0.0030787
0.00349695
0.00333624
0.00287173
0.0024384
0.00227035
0.00222205
0.0021315
0.00159578
0.0016201
0.00157541
0.00160171
0.00215243
0.00256186
0.00295442
0.0041895
0.00373722
0.00303927
0.00481824
0.00493767
0.00530485
0.00586104
0.00600644
0.00665488
0.00463106
0.00417388
0.00428734
0.00350208
0.00324167
0.00327618
0.00328851
0.00306513
0.00335467
0.00332503
0.00320475
0.00353814
0.00389868
0.00514077
0.00622894
0.0065721
0.00677047
0.00685181
0.00682637
0.00669398
0.00673671
0.00591757
0.00591369
0.00566401
0.00550226
0.00544573
0.00517739
0.00592418
0.00614901
0.00622324
0.00637745
0.00661837
0.00643832
0.00623943
0.00608815
0.00597877
0.00586426
0.00592601
0.00603527
0.00615187
0.00631585
0.00653506
0.00657126
0.00634397
0.00617231
0.00605507
0.00594498
0.00594909
0.0060472
0.00616171
0.00632444
0.00653243
0.0064165
0.00625486
0.00611099
0.00599309
0.00588939
0.00568314
0.0058197
0.00596998
0.00609373
0.00617383
0.00533445
0.00570235
0.0056046
0.00507462
0.00474996
0.00360712
0.00390365
0.00411629
0.00448336
0.00497635
0.00507291
0.00425676
0.0036479
0.00355463
0.00352596
0.00360915
0.00363904
0.00365676
0.00413194
0.00622472
0.00626814
0.00628633
0.00628912
0.00537852
0.00522607
0.00486806
0.0088998
0.00828641
0.00717916
0.0059191
0.00317213
0.00271899
0.00322086
0.00391707
0.00437954
0.00483394
0.00320873
0.00198775
0.00231667
0.00240225
0.0023439
0.00216661
0.00180462
0.00166585
0.00151205
0.00162729
0.00288172
0.00459845
0.00517985
0.00523507
0.00518348
0.00508317
0.0049615
0.00479214
0.00472065
0.0059301
0.00799608
0.00907541
0.00904509
0.00777161
0.00632411
0.00355626
0.00181697
0.00131491
0.00145632
0.0015981
0.00188233
0.0016824
0.00138945
0.00152065
0.00145104
0.00294536
0.005099
0.00652476
0.0077372
0.00759862
0.00658849
0.00541162
0.00514162
0.00526277
0.0053421
0.00541096
0.00548171
0.00553024
0.00549937
0.00500542
0.0030924
0.00184597
0.00164015
0.00176372
0.00206699
0.00219628
0.00221848
0.00218749
0.00189624
0.00313578
0.00498051
0.00316703
0.00172798
0.00186716
0.00185364
0.00327007
0.00326503
0.00319434
0.00497025
0.00525527
0.00524207
0.00492515
0.00470188
0.00278343
0.00315847
0.00316893
0.00318578
0.00323817
0.00163532
0.00178246
0.00183782
0.00197802
0.00173188
0.00219933
0.000569137
0.000788395
0.000915945
0.000995763
0.00107273
0.00105233
0.00201242
0.0020414
0.00194864
0.00189772
0.00240926
0.00258567
0.00264297
0.00243459
0.00224665
0.00239155
0.0023966
0.00225827
0.00213926
0.0022184
0.00222004
0.00212732
0.00180941
0.00169551
0.00186151
0.00184143
0.00182656
0.00328091
0.00327526
0.00309955
0.0050933
0.00501114
0.00561299
0.0055765
0.00557
0.00554747
0.00560704
0.00563811
0.00566165
0.00568931
0.00567826
0.00562356
0.007829
0.00553131
0.00482664
0.00279099
0.00268828
0.00189839
0.00166367
0.00195896
0.00209516
0.00227139
0.00221994
0.00234053
0.00233778
0.0024806
0.0023026
0.00204474
0.00313201
0.00334613
0.0032683
0.00333312
0.00325478
0.00323577
0.00321183
0.00316596
0.00311076
0.00185198
0.00181651
0.00212709
0.00223279
0.00239912
0.00242099
0.00247348
0.00234605
0.00206348
0.00199749
0.00230023
0.00226928
0.00231319
0.00218098
0.00217215
0.00193529
0.00198427
0.00400294
0.00739341
0.00380264
0.00422401
0.00382619
0.00435197
0.00381151
0.00328691
0.00336391
0.00296282
0.0030905
0.00324182
0.00330041
0.00346864
0.00408855
0.00393643
0.00345543
0.0033552
0.00328911
0.00310115
0.0027913
0.00292424
0.00295071
0.00301402
0.0033497
0.00384249
0.00430762
0.00523398
0.00507904
0.00444982
0.00406792
0.0042658
0.00433959
0.00546281
0.0051035
0.00507363
0.00535204
0.00529919
0.00502981
0.00476633
0.0046008
0.00394969
0.00401486
0.00459579
0.00444669
0.00458231
0.00450184
0.00467934
0.00476348
0.00457249
0.00424985
0.00446587
0.0044563
0.00494955
0.00481471
0.00446567
0.00408718
0.00436683
0.00431293
0.00498306
0.00469195
0.00438856
0.00403858
0.00386771
0.00438965
0.0043101
0.00488811
0.00502864
0.00503077
0.0043852
0.00428413
0.00509572
0.00490329
0.0047347
0.00493154
0.00408342
0.00420108
0.00517579
0.00528427
0.00501235
0.00418371
0.00424887
0.00364352
0.00428481
0.00533344
0.00503648
0.00412779
0.00342457
0.0047928
0.00504391
0.00533616
0.00504278
0.00549388
0.00591944
0.00482428
0.00524923
0.00686077
0.00523524
0.00607584
0.00621101
0.00624816
0.00625198
0.00627678
0.00630873
0.00664711
0.00646724
0.00410986
0.00491686
0.00477515
0.00399254
0.00339325
0.00373797
0.00402557
0.00408327
0.00418648
0.0043457
0.00427137
0.0041309
0.00604689
0.00690064
0.00705096
0.00719125
0.00707362
0.00689987
0.00649777
0.0060042
0.00498029
0.00371348
0.00231612
0.00236035
0.00251484
0.00248997
0.00215939
0.00162971
0.00107063
0.00158991
0.00164433
0.00154891
0.00141204
0.00124607
0.00128885
0.00235524
0.00466859
0.00631741
0.0069537
0.00747276
0.00803216
0.00858177
0.00900336
0.00930765
0.00951053
0.00963191
0.00965269
0.00945542
0.00858847
0.0082085
0.00773928
0.00735653
0.00682862
0.00641622
0.00725029
0.00796342
0.00840447
0.00890052
0.00913049
0.00903515
0.00785258
0.00761803
0.00876091
0.0107902
0.0091704
0.0115224
0.0135543
0.0105567
0.00949357
0.00948826
0.0105989
0.0108026
0.0104156
0.00981376
0.00912435
0.00825607
0.00868144
0.00906864
0.00944228
0.00978552
0.0107504
0.01093
0.0108546
0.0106939
0.0104745
0.0101509
0.00963738
0.00893255
0.00815539
0.00740083
0.00652439
0.00470803
0.00218507
0.00249717
0.00243611
0.00268277
0.00258605
0.00117162
0.00129203
0.00130899
0.00131863
0.00124698
0.00141846
0.00205504
0.00335141
0.00240833
0.00197781
0.00136695
0.0016096
0.00269161
0.00458047
0.00517476
0.00526987
0.00532577
0.00675611
0.00789254
0.00840863
0.00879861
0.00908498
0.00896475
0.00866426
0.00813409
0.00748626
0.00723991
0.00684393
0.0064911
0.00630271
0.00610583
0.00573436
0.0045166
0.00430801
0.00448915
0.00443677
0.00424808
0.00453945
0.0047041
0.0047006
0.00475323
0.00479935
0.00494161
0.00510902
0.00525488
0.00533174
0.0053607
0.0053703
0.00538202
0.00539139
0.00540843
0.00539055
0.00527277
0.00462987
0.00289425
0.00168883
0.00156096
0.00171148
0.0018098
0.00185174
0.00164402
0.00105818
0.00164459
0.00212871
0.00218361
0.00239626
0.00247255
0.00262277
0.0029223
0.00337696
0.00348436
0.00309136
0.00292759
0.00286444
0.00279171
0.002383
0.00297065
0.0032817
0.0032761
0.0032461
0.00350905
0.00431938
0.00414801
0.00365698
0.00361499
0.0035778
0.00323113
0.00318195
0.00348114
0.00352013
0.0036531
0.00428473
0.00514029
0.00476725
0.00434097
0.00415958
0.00384027
0.00337715
0.00305219
0.00376608
0.00309458
0.00161508
0.00136859
0.00137063
0.0013731
0.00132258
0.00156751
0.00164918
0.00167222
0.00155873
0.00172991
0.0019256
0.0018653
0.0021105
0.00208112
0.001861
0.00184172
0.00199837
0.00211526
0.00217352
0.00222532
0.00364386
0.00375621
0.00291378
0.00422146
0.00486592
0.00484812
0.00514012
0.00422408
0.00378241
0.00448994
0.00519664
0.00597549
0.00471807
0.00445754
0.00456711
0.00209234
0.00110091
0.00155344
0.00192889
0.00214972
0.00208626
0.00197198
0.00166837
0.00296615
0.00304558
0.00484055
0.0054304
0.00550035
0.00546345
0.00546303
0.00594757
0.0068387
0.00784659
0.00815724
0.00804073
0.00767843
0.00700516
0.00633884
0.00630314
0.00609473
0.00593955
0.00589783
0.00513295
0.00451418
0.0048289
0.00475433
0.0049157
0.0049914
0.00504641
0.0051025
0.00519578
0.00530839
0.00541131
0.00548203
0.00552956
0.00556957
0.0056102
0.00565077
0.0056944
0.00571809
0.00566417
0.00511902
0.00306789
0.00182779
0.00166671
0.00177831
0.00209024
0.00220088
0.00236519
0.00209911
0.00110542
0.00129998
0.00225894
0.00250687
0.00231988
0.0021711
0.00213258
0.00178637
0.00323945
0.00319813
0.00502518
0.00565237
0.00573142
0.00571499
0.00566994
0.00561853
0.00556749
0.00552538
0.00549143
0.00545581
0.00540648
0.00534759
0.00529237
0.00523544
0.00513937
0.00500401
0.00484875
0.00504455
0.00521514
0.00544546
0.00569219
0.00581272
0.00570623
0.00554803
0.00548174
0.00552156
0.00557275
0.00562487
0.00567177
0.00569626
0.00563284
0.005308
0.00497764
0.00315007
0.00319182
0.00156789
0.00174147
0.0020095
0.00207533
0.00225372
0.00224225
0.00176148
0.00137289
0.00154931
0.0014489
0.00259004
0.00284888
0.00316103
0.00313035
0.00169805
0.00174167
0.00180975
0.00204097
0.00189662
0.00183394
0.00454854
0.00435177
0.00455073
0.00558696
0.00481168
0.00331938
0.00363826
0.00506237
0.00534064
0.00322743
0.00241955
0.00268512
0.00340134
0.00500706
0.00507102
0.00481996
0.004792
0.00349626
0.00429706
0.00517339
0.00503376
0.00392107
0.00270163
0.0020124
0.000975991
0.00185645
0.00158721
0.00389385
0.00431004
0.00426144
0.00466151
0.00495097
0.00500151
0.00486161
0.00430862
0.00439442
0.00443835
0.00505936
0.0050839
0.00429995
0.00362813
0.00294448
0.00297146
0.00302973
0.00335804
0.00420486
0.00396157
0.00347189
0.00336616
0.00329298
0.00309688
0.00279416
0.00245043
0.00246772
0.00229716
0.00222337
0.00350535
0.00466667
0.00550361
0.00566193
0.00571914
0.00563111
0.00559085
0.00543048
0.00534726
0.00464502
0.00593167
0.00626976
0.00605098
0.00609655
0.00613532
0.00618276
0.00618429
0.00606827
0.00521327
0.00311265
0.00203286
0.00229446
0.00247626
0.00232486
0.00231208
0.0024647
0.0023391
0.00205477
0.00332935
0.00325446
0.00520467
0.00589544
0.00602126
0.00602777
0.00600298
0.0059823
0.00598955
0.00630439
0.00616195
0.00625061
0.00658669
0.00659559
0.00667557
0.00626761
0.0061876
0.00613617
0.00610148
0.0060453
0.00589624
0.00521712
0.00505828
0.00574495
0.00592251
0.00600148
0.00605613
0.00612106
0.00620588
0.00645102
0.00663309
0.00670416
0.00643165
0.00632888
0.00618121
0.00597228
0.0059229
0.00591345
0.00590897
0.00588087
0.00572888
0.00504235
0.00324175
0.00332167
0.00197579
0.00198846
0.00229012
0.00240497
0.00236173
0.00218689
0.00213206
0.00367747
0.0041863
0.00444971
0.00479792
0.00458378
0.00455719
0.00520841
0.0050403
0.00449094
0.00467429
0.00419161
0.00399107
0.00386874
0.00389229
0.00203858
0.00220001
0.00229509
0.00225737
0.00215857
0.00192553
0.00176576
0.00322307
0.00319952
0.00315838
0.00187731
0.00183595
0.00216297
0.00210027
0.00192107
0.00163755
0.00179547
0.0027739
0.00310285
0.00481204
0.00498498
0.00533483
0.00570486
0.00584476
0.00588266
0.00590593
0.00593174
0.00598805
0.00605441
0.00607367
0.00607111
0.0061187
0.00610734
0.00610979
0.00607937
0.00604368
0.00600132
0.00595546
0.00587945
0.00572257
0.00534692
0.0049786
0.00561311
0.00566519
0.00577092
0.00587982
0.00592575
0.0059321
0.00590913
0.0058643
0.00581093
0.00575041
0.00574869
0.00592141
0.00596473
0.00599431
0.0059758
0.00595409
0.00594656
0.00591947
0.00587666
0.0057683
0.00565952
0.00561372
0.00551974
0.00566685
0.00573228
0.00574156
0.00579664
0.00588519
0.00591146
0.00591181
0.00586878
0.00583245
0.00578449
0.00570498
0.00559699
0.00524736
0.00531992
0.00541322
0.00553574
0.00565382
0.00574933
0.00580362
0.00580888
0.00575682
0.00572154
0.005723
0.0056744
0.00569942
0.00572514
0.00569536
0.00569062
0.00569262
0.00562424
0.00550304
0.00533547
0.00515926
0.00501617
0.00494777
0.00483203
0.00521515
0.00537119
0.00550791
0.00562779
0.00573486
0.00584146
0.0058723
0.00585867
0.00579355
0.00575658
0.00575537
0.00569998
0.00569683
0.00575028
0.00575208
0.0057826
0.00583763
0.00582395
0.00574817
0.00554688
0.00535056
0.00517871
0.00501279
0.00483394
0.00481121
0.00488994
0.00481471
0.00487151
0.0050369
0.00524912
0.00543449
0.00555651
0.00559698
0.00563405
0.00568678
0.00568193
0.00565064
0.00563255
0.00556129
0.00549854
0.00542198
0.00525847
0.00505367
0.00487684
0.00482807
0.00493117
0.00502685
0.00493476
0.00456977
0.00475464
0.00493072
0.00510362
0.0053475
0.00562749
0.00574641
0.00578905
0.00576103
0.00573925
0.00573653
0.00568585
0.00566757
0.0057144
0.00571826
0.00574051
0.0057759
0.00574375
0.00564844
0.00530659
0.00489534
0.0046965
0.00457793
0.00442264
0.00495886
0.00506344
0.00494005
0.0048561
0.00498575
0.0051327
0.00528551
0.00538801
0.00543005
0.00549065
0.00557026
0.00560923
0.00555332
0.00548724
0.00540651
0.00536553
0.00536761
0.0053456
0.00524898
0.00513127
0.00498845
0.00515547
0.00525302
0.00515815
0.00466448
0.00474164
0.00486419
0.00493603
0.00532267
0.00565376
0.00572575
0.00572452
0.00568749
0.00566355
0.00566371
0.00563385
0.00557817
0.00556876
0.00556476
0.00563192
0.00572014
0.0057764
0.00580755
0.00556168
0.00510087
0.00501783
0.00479822
0.0047002
0.0052275
0.00528622
0.00516392
0.00505191
0.00529995
0.00540345
0.00542943
0.00540409
0.00534405
0.00530512
0.00537377
0.00548261
0.00540074
0.00504898
0.0047373
0.00489871
0.00494047
0.0049309
0.00486602
0.00475443
0.0045069
0.00503429
0.0055482
0.00558873
0.00503733
0.00504555
0.0048959
0.00456322
0.00501125
0.00524233
0.00528947
0.00526244
0.00517696
0.00497772
0.00525682
0.00550271
0.00545511
0.00493865
0.00320526
0.00324907
0.00327167
0.00327414
0.00323146
0.0032194
0.00317255
0.00314816
0.00307533
0.00300112
0.00293053
0.00312416
0.00328957
0.00351367
0.00353219
0.00362501
0.00347024
0.0032856
0.00306934
0.00239237
0.00303565
0.00362169
0.00384935
0.0041411
0.0042011
0.0048384
0.00508531
0.00521565
0.00511118
0.00410189
0.00347943
0.00278081
0.00180868
0.00112712
0.00132295
0.00137598
0.00144337
0.00176388
0.00328547
0.00167151
0.00232174
0.00181363
0.00312973
0.00163803
0.00102604
0.000679345
0.000863591
0.0010238
0.00103295
0.000992281
0.00082877
0.000654232
0.000668863
0.000625603
0.000665016
0.000599999
0.000687529
0.000642358
0.000895016
0.00133865
0.00152217
0.0015565
0.00125838
0.00141959
0.00118607
0.00136826
0.00122188
0.00133188
0.00127754
0.00156262
0.00171252
0.00163956
0.00164413
0.00143875
0.00100625
0.00116635
0.000916232
0.00110006
0.000841604
0.00108661
0.00093174
0.00121061
0.0012479
0.00124426
0.00119801
0.000915257
0.0010853
0.000854351
0.00104678
0.000857026
0.000910839
0.000757748
0.00109714
0.0011171
0.00103017
0.00109418
0.00122704
0.00131613
0.0014525
0.00137901
0.00157457
0.00152467
0.00155029
0.00146835
0.00142755
0.00139497
0.00139785
0.00137495
0.00138256
0.0014272
0.00142944
0.00143511
0.0014806
0.00145914
0.00142415
0.00140308
0.00124647
0.00100579
0.00175241
0.00180712
0.00183383
0.00183342
0.00179183
0.00177172
0.00171004
0.00169374
0.00164017
0.00160898
0.00153741
0.00147892
0.00141203
0.00158777
0.000888559
0.00100895
0.00106521
0.00109693
0.00111898
0.00112916
0.00113734
0.00113099
0.00111693
0.00108935
0.00107997
0.00104989
0.00134331
0.001528
0.0015972
0.00161558
0.00151416
0.00144176
0.00315466
0.00381878
0.00580721
0.00593654
0.00445711
0.00444406
0.00153761
0.00162186
0.00110871
0.00155793
0.00160626
0.0015898
0.00150179
0.00108323
0.00162576
0.00113248
0.00152608
0.00114269
0.00141405
0.00116065
0.00164615
0.00209733
0.00202323
0.00183253
0.00124758
0.00103853
0.00103595
0.000888152
0.000974676
0.000807124
0.000993124
0.000840831
0.00124892
0.00177523
0.00196643
0.00200642
0.00158238
0.00218345
0.00164164
0.0023772
0.00188725
0.00232777
0.00186802
0.00216222
0.00267535
0.00268727
0.00262344
0.00211436
0.00169448
0.0019018
0.00168489
0.00194034
0.00280529
0.00183844
0.00278894
0.00115218
0.00157035
0.00161851
0.00159621
0.001505
0.001014
0.00258328
0.00136592
0.00243361
0.0015746
0.00252945
0.00183146
0.00242015
0.00289323
0.00302171
0.00300754
0.00245583
0.00220937
0.00227693
0.00181699
0.00218069
0.00163109
0.00237047
0.0013513
0.00175804
0.0019457
0.0020488
0.00205709
0.00169084
0.00333906
0.00209651
0.00316467
0.00220046
0.00281954
0.00225976
0.0024723
0.00291964
0.0029015
0.00287717
0.0024398
0.00197416
0.0026057
0.0018588
0.055384
0.127998
0.0509419
0.129411
0.0586049
0.0832039
0.0819998
0.0821846
0.0825048
0.0619853
0.135167
0.159627
0.166438
0.168438
0.167163
0.270117
0.220222
0.330862
0.214435
0.126157
0.0546692
0.0753902
0.194655
0.321513
0.482529
0.612354
0.417313
0.432024
0.2757
0.271869
0.255991
0.207107
0.126924
0.0636677
0.0109108
0.0119204
0.0170633
0.0227151
0.0178681
0.0109425
0.00216368
0.00223358
0.00228487
0.00231745
0.00231078
0.00226302
0.00229975
0.00217209
0.00204255
0.00228497
0.00249127
0.00268083
0.00315855
0.00349011
0.00314585
0.00344709
0.00365245
0.00382017
0.00395949
0.00416683
0.00440004
0.00460389
0.00461422
0.00422719
0.00360258
0.00292903
0.00245994
0.00232991
0.00218762
0.00192913
0.00176452
0.00165112
0.00159716
0.00157513
0.0016191
0.00176989
0.00190108
0.00194713
0.00190923
0.00187425
0.00184376
0.00164182
0.00191974
0.00263337
0.00265336
0.00454596
0.0052381
0.00534713
0.00535478
0.00474544
0.00303108
0.00303799
0.00305368
0.00311252
0.00312504
0.00313434
0.00313148
0.00312201
0.00310414
0.00307138
0.00305456
0.00300526
0.00296314
0.00285639
0.00286105
0.00289719
0.00292622
0.00287764
0.00288895
0.00282901
0.00370183
0.00493777
0.0055548
0.00580414
0.00601942
0.00584223
0.00810067
0.00693743
0.00487148
0.0047881
0.00472835
0.0056109
0.00564829
0.00509634
0.00511683
0.00467543
0.00291986
0.00291493
0.0029169
0.00312122
0.00318296
0.00328843
0.0033179
0.00334167
0.00335695
0.00334739
0.00334451
0.00331271
0.00328988
0.00321425
0.00318921
0.00317835
0.00175233
0.00191271
0.0019848
0.00199868
0.00202903
0.00201747
0.00200699
0.00198323
0.00196869
0.001936
0.001899
0.00184221
0.0017315
0.00157679
0.00173478
0.00294211
0.00294066
0.00479051
0.00539846
0.00543906
0.00606043
0.00575281
0.00544887
0.00584545
0.0052664
0.00522211
0.00473278
0.00294039
0.00298024
0.00176992
0.00175505
0.0020531
0.00199706
0.00213451
0.00219315
0.00219884
0.0022287
0.00225651
0.00229188
0.00234889
0.002365
0.00232618
0.00231825
0.0021831
0.00188627
0.00190835
0.00225003
0.00236058
0.00219313
0.00215654
0.00214091
0.00208931
0.00204996
0.00201259
0.00203932
0.00219647
0.00219374
0.00215412
0.00204956
0.00199519
0.00172866
0.00166953
0.00291709
0.00296128
0.00488807
0.00499762
0.00496529
0.00572887
0.00640085
0.00727646
0.00621243
0.00504546
0.0052412
0.00599225
0.00445965
0.00373895
0.00222115
0.00167269
0.00208629
0.00192981
0.00201216
0.00208495
0.00185147
0.00198997
0.00183964
0.00167175
0.00166213
0.00166017
0.00170073
0.00171795
0.00174883
0.00175304
0.001795
0.00179082
0.00179518
0.00181693
0.00182518
0.00201647
0.00218991
0.00184385
0.00156362
0.00152462
0.00143985
0.00137135
0.00140497
0.00137152
0.00136314
0.00133824
0.00131555
0.00125554
0.00130838
0.00138857
0.00162464
0.00155479
0.00125651
0.00112253
0.000767123
0.000782623
0.000788031
0.000812127
0.000821039
0.00083194
0.000836035
0.000849572
0.00085223
0.000856525
0.000856198
0.000876859
0.000873848
0.000863693
0.000857209
0.000861277
0.000865101
0.000864399
0.0012658
0.00140924
0.00153824
0.00182657
0.00214859
0.00184984
0.00156843
0.00135281
0.000869676
0.000882689
0.000898713
0.000907019
0.000926214
0.000943737
0.000963215
0.000975493
0.000984655
0.000994263
0.0010044
0.00100841
0.00100588
0.000986401
0.000974927
0.000999781
0.00109908
0.00115677
0.00123082
0.00125881
0.00128266
0.00129455
0.00128855
0.00130212
0.00128689
0.00128485
0.00126297
0.00125373
0.00124484
0.00123369
0.0012197
0.00118524
0.00117368
0.00123498
0.00209036
0.00273276
0.00314318
0.00345938
0.00320101
0.00260021
0.00272844
0.00479499
0.00454195
0.00267864
0.00250229
0.0023109
0.00202094
0.00176972
0.00214118
0.00244282
0.0026708
0.00287073
0.00305377
0.00317834
0.00333897
0.00354858
0.00391799
0.00396398
0.00361523
0.00292794
0.00247607
0.00231028
0.00223117
0.00209514
0.00194665
0.0019958
0.00201047
0.00195093
0.00187702
0.00185641
0.00188745
0.00192772
0.00190485
0.00190417
0.00170132
0.00170065
0.00290621
0.00295907
0.00455203
0.00479654
0.00484364
0.00311297
0.00307078
0.00179349
0.00166598
0.00181756
0.00188712
0.0018913
0.0018994
0.00189038
0.00185757
0.00183378
0.00180577
0.00178305
0.00176266
0.00172739
0.00165967
0.00153307
0.00166999
0.00187221
0.0019562
0.0019784
0.0019892
0.00202055
0.00207224
0.00211319
0.00220879
0.00221759
0.00221637
0.00222391
0.00207813
0.00214273
0.00181329
0.0018103
0.00313815
0.00312898
0.00179741
0.00212242
0.00213736
0.0021136
0.00227601
0.00208265
0.0020169
0.00200717
0.00192232
0.00187726
0.00181663
0.00178053
0.00181488
0.00193001
0.00186784
0.00165547
0.00159382
0.00178887
0.00172227
0.00142887
0.00122085
0.00118748
0.00113683
0.0011061
0.0011595
0.00120134
0.00122517
0.00125533
0.00126421
0.00131946
0.00128343
0.00134615
0.00142757
0.00149243
0.00177
0.0019185
0.00173315
0.00170006
0.00167903
0.00167803
0.00168358
0.00161426
0.00160972
0.00157387
0.00155615
0.00150895
0.0014877
0.00146068
0.00146532
0.00148051
0.00162755
0.00418394
0.005336
0.00555739
0.0095004
0.00383843
0.00391752
0.00769862
0.00317721
0.00477966
0.00512032
0.00535185
0.00558814
0.00511371
0.00651497
0.00454067
0.00505988
0.00526369
0.00459796
0.00173698
0.00200106
0.00229471
0.00203777
0.00179908
0.00122512
0.00131941
0.00136179
0.00139646
0.00141864
0.00144375
0.00147045
0.00149559
0.0015131
0.0015131
0.0014667
0.00141685
0.00130244
0.00126438
0.00131316
0.00136356
0.00119708
0.00112706
0.00114018
0.00115866
0.00116895
0.00117094
0.00118212
0.001185
0.00120275
0.00119296
0.00120175
0.00118097
0.00119101
0.00117585
0.00113611
0.00107984
0.000984615
0.000961519
0.00138508
0.00147518
0.00154964
0.00175951
0.00203267
0.00216957
0.00194505
0.00179439
0.00172246
0.00191065
0.00191282
0.00348254
0.00668333
0.00299048
0.00334654
0.00976096
0.00388214
0.00301434
0.00305927
0.00309111
0.00309565
0.00179862
0.0021299
0.00206464
0.00207419
0.00175953
0.00147764
0.00132536
0.00118494
0.000803842
0.000801315
0.000807358
0.000819941
0.000823889
0.000788578
0.000788488
0.000783999
0.00078226
0.000765597
0.000760955
0.000747374
0.000739129
0.000719557
0.000708993
0.000690521
0.000687541
0.000721205
0.000805452
0.000974286
0.00107982
0.00123019
0.00125105
0.00139917
0.00345497
0.00400456
0.00552259
0.00548005
0.00864062
0.0054003
0.00407853
0.00368086
0.00538708
0.0055679
0.00516069
0.00698808
0.00483373
0.00320853
0.00491676
0.00410535
0.00476533
0.00470576
0.00500366
0.00794888
0.0083442
0.00234317
0.00208767
0.00219486
0.0024911
0.00295864
0.00272907
0.00310708
0.00311408
0.00241218
0.00151938
0.00483522
0.00584218
0.00472935
0.00570668
0.00872949
0.00350124
0.00341361
0.00301944
0.00251994
0.00228973
0.00225988
0.00252061
0.00301654
0.00754457
0.00807625
0.00750768
0.00751074
0.00680877
0.0074272
0.00924603
0.00918694
0.00812526
0.00759868
0.00789503
0.00495398
0.00302856
0.00351964
0.00390632
0.0052137
0.0053774
0.0113383
0.00386106
0.00425753
0.00432401
0.0057771
0.00560486
0.00987471
0.0042052
0.00452753
0.00596565
0.00797727
0.0146541
0.00538026
0.00565054
0.00811771
0.00824365
0.00753699
0.00545614
0.00493556
0.0053681
0.00404574
0.00395615
0.00337374
0.00497688
0.0066898
0.00530571
0.00515161
0.00437562
0.00391752
0.00399117
0.00414669
0.00344632
0.00339651
0.00391344
0.00292567
0.00283134
0.00297857
0.000828951
0.000424731
0.000434089
0.000445409
0.000454602
0.000464113
0.000471009
0.000479262
0.000482889
0.000483352
0.000484695
0.000512446
0.000507541
0.000491478
0.000446264
0.00050912
0.00080794
0.000808369
0.000508425
0.00044817
0.000804323
0.00128139
0.00151061
0.00178652
0.0018082
0.00156052
0.0013532
0.000833223
0.000820069
0.000496994
0.000580483
0.000630367
0.000559199
0.000624193
0.000578615
0.000612763
0.000619467
0.000573332
0.000569984
0.000572127
0.00056783
0.000557664
0.000545328
0.000530289
0.000518634
0.0005126
0.000508387
0.000498509
0.000412498
0.000385252
0.00046565
0.000745123
0.000746024
0.000697977
0.00065586
0.000619533
0.00060242
0.000597219
0.0005936
0.000603948
0.00062339
0.000628935
0.00063465
0.000683729
0.000661833
0.000706852
0.000663512
0.000708765
0.000665121
0.000611883
0.000513759
0.000530034
0.00085521
0.000864323
0.001396
0.00159644
0.00180994
0.0018188
0.00203074
0.00213935
0.00181235
0.00188164
0.00215569
0.00200701
0.00178818
0.00179548
0.00161472
0.00161679
0.00143282
0.000895763
0.000883661
0.00055488
0.000538934
0.000642603
0.000631448
0.000702221
0.000751632
0.000751865
0.000749462
0.000731336
0.000724658
0.000637246
0.000624553
0.000625398
0.000606612
0.000602854
0.000629723
0.000689482
0.000811309
0.000981919
0.00106806
0.00110317
0.00105705
0.000945643
0.000700699
0.000631129
0.00109624
0.00113484
0.00205173
0.00488117
0.00229673
0.00430254
0.00310295
0.00076908
0.000856851
0.00109248
0.00122395
0.00132185
0.00137962
0.00126295
0.00105511
0.000794278
0.000655693
0.000975643
0.000843507
0.000951143
0.000830394
0.00107472
0.00124238
0.00120167
0.00121049
0.00102279
0.000832918
0.000882088
0.000791597
0.000872439
0.000730554
0.000878896
0.000793422
0.000996954
0.0010063
0.00098534
0.00093394
0.00071109
0.000746117
0.00062589
0.000679084
0.000609803
0.000630384
0.000597312
0.000696591
0.000802732
0.000770478
0.000767523
0.000630697
0.000494316
0.000546049
0.000472513
0.000534846
0.00041587
0.000503687
0.00042225
0.00054673
0.000563847
0.000567369
0.000564766
0.000460531
0.000541776
0.000661808
0.000693917
0.00069919
0.00066543
0.000513273
0.000793916
0.000715544
0.000873481
0.00075502
0.000826901
0.000752822
0.000877423
0.0011238
0.00117345
0.00118122
0.00095849
0.000952553
0.00174005
0.0966139
0.00156526
0.00185015
0.00190807
0.00190135
0.00157193
0.0015333
0.00189984
0.00140477
0.00199007
0.00125322
0.00212344
0.000809279
0.00123021
0.00132081
0.00131804
0.00122503
0.000822524
0.00243367
0.118868
0.307838
0.334279
0.333738
0.320751