/*--------------------------------*- C++ -*----------------------------------*\
| =========                 |                                                 |
| \\      /  F ield         | OpenFOAM: The Open Source CFD Toolbox           |
|  \\    /   O peration     | Version:  v2012                                 |
|   \\  /    A nd           | Website:  www.openfoam.com                      |
|    \\/     M anipulation  |                                                 |
\*---------------------------------------------------------------------------*/
FoamFile
{
    version     2.0;
    format      ascii;
    class       volScalarField;
    location    "435";
    object      epsilon;
}
// * * * * * * * * * * * * * * * * * * * * * * * * * * * * * * * * * * * * * //

dimensions      [0 2 -3 0 0 0 0];


internalField   nonuniform List<scalar> 
18258
(
0.0239792
0.0122483
0.00910843
0.00715464
0.0126479
0.0125218
0.0129832
0.0173226
0.0241371
0.0369836
0.0535677
0.0481624
0.0435479
0.0452987
0.0474603
0.0450051
0.0350642
0.0303322
0.0398888
0.0666001
0.0608755
0.0497077
0.0609562
0.0514037
0.0653534
0.082426
0.0632015
0.0568594
0.0509935
0.0479283
0.0413747
0.0235269
0.0343581
0.0530477
0.07241
0.0791084
0.0847366
0.0894008
0.0946106
0.0967412
0.0969911
0.0917862
0.0826274
0.067632
0.0497523
0.0383662
0.0304683
0.0311356
0.0437096
0.0446806
0.0554587
0.085353
0.107798
0.0808914
0.0518319
0.0824958
0.112411
0.144147
0.170678
0.193158
0.200918
0.197536
0.186041
0.169335
0.147903
0.122919
0.101927
0.0850049
0.0672161
0.0574213
0.0464734
0.0385635
0.0329988
0.0293407
0.0271412
0.0254109
0.0242432
0.025178
0.0250658
0.0178755
0.0140625
0.0132116
0.00945251
0.00785682
0.0081752
0.0077816
0.00808602
0.00714013
0.00611223
0.00530228
0.00449126
0.00653007
0.00701908
0.00725867
0.0072761
0.00780218
0.00806812
0.00780707
0.00790403
0.00723778
0.00737426
0.0118631
0.0136697
0.0173541
0.0154722
0.0106952
0.00911818
0.0101573
0.010783
0.0133824
0.0125673
0.0133543
0.0118502
0.0108177
0.00914366
0.00888693
0.00912943
0.00970502
0.0101134
0.0117103
0.0115379
0.0106954
0.0118302
0.0130558
0.0127829
0.0122368
0.0116583
0.0143085
0.0115169
0.0122046
0.0137068
0.0220857
0.0216088
0.0260865
0.0256081
0.0260573
0.0262429
0.031632
0.0317533
0.032127
0.0324463
0.0341454
0.0572356
0.051012
0.0499051
0.0497111
0.0430301
0.0425585
0.0418574
0.0426714
0.0362114
0.0348646
0.0316061
0.0312357
0.0348455
0.0440052
0.0615212
0.0888243
0.122825
0.159221
0.189532
0.210545
0.232307
0.23765
0.251527
0.2562
0.257088
0.251396
0.242943
0.233445
0.22055
0.20192
0.188909
0.14843
0.10506
0.0591316
0.0784463
0.0904632
0.100189
0.102108
0.103288
0.0992551
0.0930664
0.0819155
0.0664042
0.0431409
0.0481947
0.0653719
0.0677716
0.0685702
0.0544427
0.0524827
0.0488365
0.0488906
0.0643056
0.0736335
0.061854
0.0853378
0.100296
0.0877622
0.0636568
0.0974628
0.142817
0.0803752
0.0682004
0.0526559
0.0516629
0.0436421
0.0369552
0.0630208
0.0940958
0.128949
0.149861
0.171476
0.18884
0.201992
0.215934
0.187763
0.170639
0.114991
0.201142
0.152527
0.0771332
0.0568964
0.0551387
0.0457722
0.0513658
0.0564658
0.052177
0.0402054
0.0278016
0.0247747
0.0461277
0.064374
0.0778179
0.0619142
0.0787896
0.0888305
0.0961079
0.101398
0.128626
0.0947334
0.105507
0.0752824
0.102338
0.072455
0.04661
0.0525158
0.100384
0.160063
0.219024
0.255888
0.145349
0.0736254
0.0546362
0.0546026
0.0528133
0.0478479
0.059486
0.105823
0.0719422
0.0466021
0.0403942
0.0476642
0.0415292
0.0308007
0.0323706
0.0398251
0.0548341
0.0686126
0.0814733
0.124974
0.121993
0.14712
0.154291
0.130093
0.125912
0.0815326
0.083546
0.122849
0.0917155
0.0741581
0.104164
0.147436
0.201895
0.248422
0.288974
0.314853
0.304152
0.27511
0.17403
0.07621
0.0229326
0.017806
0.0168395
0.0173146
0.0105233
0.00630775
0.00586498
0.00669165
0.00703498
0.0059205
0.0054462
0.00543587
0.00579013
0.0101877
0.00875281
0.0108319
0.0131245
0.0156747
0.0187208
0.0194499
0.0129054
0.00873531
0.00819719
0.0081328
0.00806408
0.00803506
0.00804736
0.00808861
0.00810544
0.00807393
0.00799584
0.00785904
0.00772357
0.00766617
0.00830286
0.0111951
0.0153606
0.0148523
0.0135615
0.0122048
0.0110422
0.00871073
0.0151572
0.0128519
0.010943
0.0134052
0.0165145
0.0208725
0.0245263
0.0176923
0.0141644
0.012819
0.0126928
0.0125781
0.0126231
0.0124998
0.0125634
0.012362
0.0129549
0.013584
0.0169851
0.0190099
0.0211876
0.0226831
0.0232608
0.0239685
0.0211232
0.0229795
0.0227345
0.0235149
0.0233345
0.0226498
0.0207327
0.0189417
0.0177206
0.0191383
0.02371
0.0323704
0.0267619
0.0207722
0.0168098
0.0137513
0.0150199
0.0166936
0.0168688
0.0158807
0.0156465
0.0154375
0.0139181
0.0131335
0.0111183
0.010507
0.0100409
0.0101899
0.0143694
0.0135197
0.013726
0.014461
0.0155651
0.0147232
0.0151553
0.0143046
0.0145535
0.0149755
0.0170391
0.0185997
0.0178396
0.0165187
0.0160226
0.013753
0.015862
0.0157216
0.0170423
0.0186291
0.0191233
0.0190593
0.0184214
0.0168275
0.0187194
0.0220905
0.0257463
0.0247446
0.0244165
0.0204679
0.0192641
0.0202358
0.0215075
0.0224102
0.0224733
0.0222901
0.0223681
0.0263509
0.0259813
0.0247928
0.0227284
0.0202855
0.0176444
0.0152074
0.0166775
0.0181523
0.0195364
0.0207989
0.0205725
0.0190505
0.0176973
0.0164716
0.0149824
0.0146961
0.0161463
0.0173644
0.0187919
0.0205036
0.0205866
0.0188739
0.0173809
0.0161015
0.0146302
0.0145821
0.0160805
0.0173768
0.0187925
0.0202768
0.0196464
0.0184919
0.0172424
0.0160015
0.0145506
0.0146183
0.0159388
0.0170062
0.0180887
0.0190384
0.0198943
0.0179319
0.0170224
0.0171169
0.0161306
0.0193179
0.0185596
0.019501
0.0180473
0.0168212
0.0178265
0.0210209
0.0240584
0.024612
0.0243324
0.0201962
0.020652
0.0206278
0.0192069
0.0159807
0.0153844
0.0181605
0.0209032
0.0213669
0.0200555
0.0169467
0.0133012
0.0143255
0.0174946
0.0198113
0.0185472
0.018387
0.016971
0.0158904
0.016189
0.0139085
0.0166477
0.0267332
0.0241909
0.0221748
0.0197084
0.0156995
0.0106315
0.0115327
0.0126938
0.0131096
0.0105932
0.0079318
0.00712299
0.00692999
0.0067723
0.00655449
0.0061875
0.00563198
0.00538546
0.0105739
0.0255361
0.0363827
0.0357893
0.0241032
0.0206998
0.0199182
0.0182424
0.0086147
0.0081926
0.00838518
0.0104043
0.00827696
0.00819463
0.0141597
0.00990357
0.0136364
0.0106552
0.0146288
0.0229129
0.0216392
0.0142959
0.00801048
0.00690824
0.00739913
0.00768099
0.00788443
0.00808099
0.00831464
0.00870113
0.0100245
0.0157587
0.0203447
0.0178021
0.0168119
0.0153339
0.018877
0.0213573
0.0232938
0.0260591
0.0161111
0.0117998
0.0166522
0.0272903
0.0247756
0.0233203
0.0171765
0.0177175
0.0171458
0.0110261
0.0106796
0.0105953
0.0114075
0.0127974
0.0147203
0.0158744
0.0166219
0.0169524
0.0178645
0.0231306
0.0216408
0.0211227
0.0173356
0.0134132
0.0154234
0.0516652
0.0195712
0.0206888
0.0189082
0.0191767
0.0204638
0.0151547
0.0135041
0.0129316
0.0146254
0.0215179
0.0215345
0.0213999
0.0182657
0.0174829
0.0209128
0.0220011
0.0223956
0.0217786
0.0213412
0.0194782
0.0166963
0.0181284
0.019647
0.0208419
0.022849
0.0231863
0.0179681
0.0172462
0.0158517
0.0105556
0.0112978
0.009735
0.00970539
0.00967247
0.0093994
0.00894973
0.00923734
0.00935363
0.0093512
0.00900505
0.00930219
0.00835306
0.0086891
0.00978127
0.015231
0.0147956
0.0175941
0.019507
0.0167504
0.0155902
0.0142264
0.0132021
0.0154583
0.0142946
0.0168742
0.0212309
0.026528
0.0191518
0.0181553
0.0179321
0.0175266
0.0173688
0.0174215
0.0167262
0.0157209
0.0151513
0.0236117
0.0213072
0.0181807
0.0172303
0.0157955
0.018051
0.0174929
0.0213964
0.0268872
0.0270927
0.0215645
0.0216428
0.0189823
0.0200892
0.0222827
0.02713
0.0270533
0.0144567
0.00961171
0.0154592
0.0157995
0.0184111
0.0170251
0.0185543
0.0197364
0.020463
0.0203213
0.0177172
0.0188941
0.0196831
0.0206696
0.0186135
0.0166068
0.0173971
0.0161738
0.0152728
0.0147716
0.0126946
0.0129415
0.013915
0.0153679
0.0163114
0.0178076
0.0194663
0.019494
0.0201643
0.0197598
0.0191569
0.0252572
0.0240154
0.0255571
0.0282709
0.0224749
0.0178364
0.0147092
0.0150232
0.0147895
0.0146975
0.0154381
0.0167994
0.0151764
0.0145564
0.0170723
0.0194365
0.0247103
0.0330904
0.0288263
0.0262455
0.0332535
0.0314113
0.0382753
0.0287044
0.0281726
0.0208813
0.0263154
0.0305314
0.0392455
0.0255456
0.0209843
0.0224384
0.0255579
0.0348107
0.0328263
0.0332008
0.0412352
0.0399992
0.036227
0.0312008
0.0353993
0.0212795
0.0302227
0.0322547
0.0268367
0.0257355
0.0307841
0.0311094
0.0330428
0.0283922
0.0268001
0.0179397
0.0274827
0.0314273
0.0331219
0.0278543
0.0205462
0.0280487
0.0205804
0.019215
0.0203274
0.0137981
0.0127439
0.0148194
0.0138893
0.0112131
0.0121635
0.0111819
0.0111689
0.01125
0.0113649
0.0114965
0.011751
0.0117129
0.01272
0.0133458
0.0126353
0.0115741
0.0122335
0.0125968
0.0161128
0.0182005
0.020465
0.0220563
0.0228967
0.024041
0.0227221
0.0248392
0.023761
0.0252353
0.0249438
0.0238819
0.0213759
0.0187496
0.0163637
0.0168999
0.0205759
0.0270817
0.0221748
0.0171605
0.0138709
0.0114795
0.0127669
0.0159973
0.0086767
0.00792964
0.00764188
0.00747192
0.00733671
0.00651334
0.00578084
0.00832082
0.0129345
0.0162466
0.0202981
0.0258728
0.0320537
0.0374974
0.041643
0.0445902
0.0463932
0.0468525
0.0439439
0.0332653
0.0285399
0.0244558
0.0201972
0.0164682
0.0167754
0.0244135
0.0320482
0.0395949
0.0462618
0.0512545
0.0493556
0.0331375
0.0300375
0.0462725
0.0778216
0.073592
0.0966297
0.11052
0.0625355
0.0463226
0.0453322
0.0621537
0.0647971
0.0566933
0.0466304
0.0363161
0.0261141
0.0305298
0.034922
0.0391776
0.0436766
0.0579344
0.0609708
0.0597208
0.0571172
0.0536108
0.0486538
0.0414185
0.0327969
0.0248819
0.0189578
0.0142995
0.00911098
0.00734721
0.00786315
0.00718034
0.00977199
0.00891677
0.00844141
0.00814261
0.00838487
0.00824518
0.00839227
0.00743837
0.00666458
0.010386
0.00961959
0.00960774
0.0102867
0.0135053
0.0103857
0.00767905
0.00724919
0.00719704
0.00741659
0.0153736
0.0248469
0.0303652
0.0350264
0.0387379
0.0373408
0.0338027
0.0279903
0.0218309
0.0196639
0.0166813
0.0142524
0.0131141
0.0144795
0.0119518
0.00596741
0.00515917
0.00569356
0.00555236
0.00508297
0.00612631
0.0068275
0.00744962
0.0078797
0.00819511
0.00825825
0.00819802
0.00810857
0.00806476
0.00804466
0.00801571
0.00794973
0.00785264
0.00770843
0.00756994
0.00750415
0.00809727
0.0107108
0.0146332
0.0143931
0.0132784
0.0121671
0.0113038
0.00957834
0.0154234
0.013094
0.0109799
0.0101576
0.01002
0.0103239
0.0113036
0.0129469
0.013866
0.0158683
0.0159007
0.0157867
0.0160721
0.0158608
0.0132183
0.0149991
0.0177214
0.0185493
0.0191682
0.0189485
0.0174178
0.0194285
0.0205646
0.0200039
0.0193895
0.016531
0.0192612
0.0232395
0.0236874
0.0239671
0.0213058
0.018478
0.0216358
0.0227972
0.0223917
0.0232723
0.0214752
0.0222013
0.0277575
0.0142789
0.0130518
0.00783292
0.00875038
0.00897603
0.00867926
0.00840027
0.00875165
0.0090073
0.00878665
0.00946044
0.00976958
0.00909152
0.0115623
0.0106501
0.0102762
0.00965446
0.0101741
0.0108335
0.0111573
0.0122824
0.0196755
0.0201571
0.0183031
0.0208196
0.0214224
0.0180586
0.0205107
0.0213825
0.0216707
0.0220215
0.0235346
0.022125
0.0244573
0.0236726
0.0223176
0.0215546
0.038292
0.0252638
0.0166523
0.0153764
0.0150332
0.0151037
0.0170245
0.0128155
0.0143614
0.0101672
0.00881159
0.00844852
0.00816091
0.00820233
0.0106774
0.016369
0.0248952
0.0281032
0.0270089
0.02359
0.0179399
0.0132662
0.0129993
0.0117785
0.0110402
0.0109437
0.00734786
0.00510632
0.00648281
0.00657454
0.00716828
0.00758934
0.00793303
0.00819255
0.00833754
0.00841432
0.00850117
0.00862356
0.00875463
0.00886594
0.00895169
0.00901174
0.00907431
0.0091942
0.00950071
0.0107066
0.0153577
0.0197512
0.0186234
0.0171564
0.0158474
0.0166133
0.0173666
0.0180826
0.0222673
0.0191498
0.0220415
0.0207424
0.0197639
0.0183495
0.019082
0.0208764
0.016676
0.0166145
0.0113699
0.00993387
0.00955823
0.00934506
0.00917832
0.00901143
0.00884115
0.00868826
0.00854302
0.00841572
0.00831463
0.00821996
0.00807467
0.00782347
0.00741508
0.00698004
0.00608783
0.00668143
0.00733791
0.0083684
0.00953375
0.0100841
0.00950586
0.00874733
0.00843827
0.00858709
0.00877412
0.00897678
0.00920639
0.00952359
0.00999139
0.0109641
0.0116219
0.0162987
0.0170452
0.0202745
0.0200761
0.0179761
0.0173253
0.0189333
0.0174353
0.0126765
0.0174124
0.0169459
0.0212136
0.0157494
0.0148597
0.01528
0.0157672
0.0184083
0.0173147
0.0158287
0.0157833
0.0126869
0.0142744
0.0162835
0.0177587
0.0279866
0.027447
0.0345066
0.0343889
0.0593652
0.0565129
0.0498553
0.0538591
0.0237789
0.0465315
0.0543776
0.0495715
0.0430481
0.027448
0.0438571
0.0667267
0.0966987
0.0697532
0.057066
0.106028
0.0769768
0.0375029
0.0266492
0.0150423
0.0151193
0.0251043
0.0291529
0.0241761
0.0233322
0.033511
0.0348736
0.0281009
0.0287616
0.0311347
0.0300616
0.032538
0.0281755
0.0274546
0.0155739
0.0127862
0.013825
0.0155667
0.0165793
0.0160668
0.0169104
0.0175823
0.0161348
0.0151019
0.0145362
0.0124657
0.0132021
0.0161908
0.0204126
0.0239255
0.0172795
0.0138849
0.0125853
0.0123898
0.0121613
0.0120401
0.0117169
0.0115283
0.0110571
0.0112631
0.00981344
0.00982776
0.0103669
0.0105322
0.0107386
0.0108989
0.0110244
0.0111382
0.0120025
0.018777
0.0259715
0.0207803
0.0164678
0.0139831
0.0151745
0.0171019
0.02101
0.0264389
0.0178581
0.0176829
0.0115329
0.010756
0.0105456
0.0103713
0.010218
0.0101198
0.0101812
0.0101847
0.0119256
0.0115818
0.0135523
0.0146259
0.0120935
0.0116681
0.0112
0.0109155
0.0107588
0.0106742
0.0107633
0.0116248
0.0114592
0.0105297
0.0104356
0.0105556
0.0107685
0.0110903
0.0115356
0.0120378
0.0129486
0.0127278
0.0112377
0.0112465
0.0105881
0.0102795
0.0100458
0.0100232
0.0100731
0.0102151
0.0104386
0.0113461
0.0171492
0.0173287
0.0266651
0.0266409
0.0211756
0.0176947
0.0155355
0.0142805
0.0135476
0.0352177
0.0309183
0.0488689
0.0390494
0.031288
0.050769
0.0721743
0.0560718
0.0912313
0.0985744
0.0726647
0.0657107
0.0209585
0.0159686
0.0154494
0.0169418
0.0186393
0.0212822
0.0218764
0.0267038
0.0288103
0.0172098
0.0165293
0.0156067
0.0249083
0.0230754
0.0196946
0.0178046
0.0164146
0.0189624
0.0207629
0.0149987
0.0150474
0.00970112
0.0107078
0.0104485
0.0101086
0.00999026
0.0099153
0.00995187
0.01005
0.0103368
0.0108353
0.0112176
0.0113575
0.0116271
0.011406
0.0111367
0.0108187
0.0106317
0.010444
0.0102902
0.0101711
0.0102052
0.0105216
0.0106658
0.00935897
0.0097052
0.00981362
0.00982448
0.00985468
0.00981752
0.00967793
0.00946902
0.00926775
0.00905786
0.00910474
0.00995007
0.0101083
0.0101722
0.0100181
0.00989881
0.00988796
0.00982172
0.00980684
0.00979863
0.00967527
0.00936212
0.00863564
0.00848745
0.00909323
0.00943884
0.00961851
0.00970137
0.00968662
0.00963231
0.00940019
0.0092229
0.0090081
0.00865902
0.00818973
0.006749
0.00702182
0.00738305
0.00788661
0.00840547
0.00886086
0.00916752
0.00933001
0.00942266
0.0093416
0.00905039
0.00852255
0.0084676
0.00885739
0.00903501
0.00899021
0.00872277
0.00830602
0.0077368
0.00703111
0.00634958
0.00583384
0.00559943
0.00521705
0.00655914
0.00716346
0.00772311
0.00824099
0.00873064
0.00925239
0.00945298
0.0095077
0.00948644
0.00932957
0.00899783
0.00846801
0.00847401
0.00895243
0.00926378
0.00938914
0.00936856
0.00918622
0.00877921
0.0078636
0.00704752
0.00638617
0.00579166
0.00519422
0.00512099
0.00537597
0.00513196
0.00531915
0.00588843
0.00668628
0.00746458
0.00807974
0.00851374
0.00870369
0.0086576
0.00840904
0.00830884
0.008427
0.00836325
0.00805138
0.00747889
0.00673213
0.00593797
0.00531891
0.00515407
0.00548913
0.00581572
0.00550323
0.00436991
0.00492092
0.00548739
0.00608781
0.00701203
0.00819897
0.00878563
0.00910416
0.00926377
0.00919803
0.00890801
0.00846603
0.0084453
0.00887142
0.00915475
0.0092029
0.00906178
0.00878469
0.00830183
0.00686604
0.00538528
0.00474986
0.00439319
0.00395712
0.00557852
0.00594482
0.00552821
0.00525699
0.00569495
0.00622938
0.00684487
0.00735335
0.00778225
0.00809264
0.00820244
0.00817784
0.00804314
0.00803914
0.00797764
0.00777039
0.00752738
0.0073276
0.00690221
0.00645169
0.00590949
0.00645982
0.00674573
0.0063173
0.00467108
0.00496073
0.00542481
0.00572463
0.00719979
0.00862496
0.00900587
0.00913536
0.00926672
0.00919189
0.00886886
0.00842242
0.00840493
0.00893517
0.00934575
0.00949338
0.00960666
0.00974604
0.00987378
0.00872997
0.00679123
0.006295
0.00527836
0.00482244
0.00663487
0.00705912
0.0068617
0.00659827
0.00755644
0.00795354
0.00809155
0.00809687
0.0081023
0.00807389
0.00798719
0.0079252
0.00780968
0.00824281
0.00887589
0.00878276
0.008694
0.00854379
0.00818753
0.00773413
0.00719834
0.00787499
0.00843155
0.0081501
0.00596773
0.00634089
0.00724524
0.00746881
0.00904673
0.0102316
0.0105486
0.0105093
0.0103711
0.0103286
0.00930326
0.00836725
0.00821481
0.00958036
0.015558
0.0153925
0.0154158
0.015336
0.01476
0.0145878
0.0140157
0.0137551
0.0130492
0.0125926
0.0119056
0.0139282
0.0176428
0.0197201
0.0220822
0.0245727
0.0232101
0.0187172
0.0164989
0.0100991
0.00796675
0.00687485
0.00595913
0.00526693
0.00506245
0.00748796
0.00931647
0.0114402
0.0133511
0.0136732
0.016071
0.0199734
0.0304195
0.0483652
0.0408221
0.0385239
0.0386784
0.0956929
2.54216
2.71533
2.48184
2.88345
3.32738
0.384869
0.149998
0.278489
0.293674
0.326468
0.304707
0.277619
0.254545
0.266187
0.255544
0.267593
0.249484
0.259457
0.22671
0.232722
0.240434
0.707525
1.04721
1.26147
1.75905
1.75811
1.98226
1.93057
1.94741
1.79835
1.91379
1.66332
1.37933
1.30378
1.23188
1.32232
1.43704
1.24704
1.1302
1.01445
0.922759
0.790279
1.00202
0.760287
0.718543
0.717078
0.749116
0.997881
0.908977
1.04588
0.962804
1.00165
0.600507
0.673598
0.489605
0.407445
0.338853
0.406409
0.544229
0.723343
0.906723
0.702721
0.960195
0.893786
0.892869
0.849997
0.774101
0.734802
0.722232
0.743498
0.756521
0.772311
0.800722
0.822488
0.842022
0.994143
1.06033
1.05189
0.861607
0.769935
0.533181
0.57096
0.604657
0.607834
0.565817
0.547901
0.497201
0.484739
0.43997
0.420854
0.382743
0.363518
0.331494
0.458369
0.783491
0.813247
0.883453
0.936463
0.987082
1.00907
1.02672
1.00977
0.97663
0.905961
0.874585
0.810915
0.919596
1.10538
1.10311
1.01326
0.860155
0.81402
3.79648
4.61686
3.05615
6.5888
10.0134
16.7932
7.64354
2.07259
3.46472
2.38029
2.11183
2.05808
2.17262
3.4231
2.50388
3.27168
2.72521
2.85681
2.25692
2.47803
2.325
1.77813
1.49301
1.26443
1.13455
0.916138
0.898085
0.738042
0.690939
0.650088
0.546843
0.679859
0.697823
1.70485
2.31638
2.88727
4.52834
4.96743
5.42528
8.55344
6.90787
8.63391
5.12894
5.18579
3.83333
3.60481
3.64357
5.01055
7.16976
4.93734
8.62081
4.8032
15.5983
34.8819
9.20592
19.0344
10.9723
9.91456
9.54947
9.83317
13.9708
9.54623
15.5069
13.1301
17.4635
17.1286
18.0397
13.8577
10.2658
11.2242
12.0367
15.4624
10.9102
12.476
9.47083
9.24857
8.75062
7.26003
6.54852
5.04739
5.98919
7.01784
7.99772
12.7123
15.9097
18.2624
22.009
16.228
18.5002
11.1346
12.2329
9.44742
8.86548
9.00109
11.8454
21.0015
14.8746
27.2095
0.498517
0.2262
0.546227
0.229801
0.487377
0.39076
0.403275
0.404184
0.399854
0.461194
0.220258
0.185188
0.177415
0.175269
0.176797
0.100254
0.124487
0.0804403
0.126958
0.22944
0.504802
0.365981
0.140594
0.0826293
0.0546164
0.0429609
0.0634813
0.0612754
0.0979891
0.0993448
0.105672
0.132213
0.228355
0.433792
31.8218
7.10154
1.12764
0.529629
0.282015
0.172987
0.149092
0.16862
0.181502
0.184466
0.173495
0.147706
0.106258
0.0706442
0.0476223
0.0401855
0.0293077
0.0279688
0.0394572
0.0532539
0.0493992
0.0651178
0.0835208
0.10633
0.130666
0.150097
0.164719
0.168634
0.156555
0.122511
0.0806295
0.0443963
0.0264903
0.0228277
0.0208923
0.0193984
0.0167509
0.0145204
0.0131079
0.0112103
0.00988947
0.00892992
0.00862914
0.0087572
0.00956577
0.0121
0.0145626
0.018857
0.0179812
0.0134636
0.0126113
0.00781325
0.00722361
0.00737264
0.00762538
0.00844278
0.0132044
0.0135144
0.0133936
0.013427
0.0132475
0.0132424
0.0130758
0.0129194
0.012702
0.0122875
0.0119971
0.011474
0.011187
0.0104985
0.0105257
0.0108859
0.0111871
0.0101185
0.0100053
0.0093222
0.0209203
0.049526
0.0703051
0.078726
0.0884966
0.08118
0.0421065
0.0232307
0.00795047
0.00769721
0.00819593
0.00884392
0.00839139
0.00616323
0.00670654
0.00792166
0.0111369
0.0111233
0.0111573
0.0130323
0.0135822
0.0149306
0.0154782
0.0158426
0.016069
0.0159762
0.0161027
0.0158039
0.0158954
0.0156845
0.0157732
0.0153676
0.0272851
0.0256973
0.0264337
0.0264775
0.0277026
0.0271997
0.026736
0.025753
0.0250644
0.0235341
0.0219631
0.0203592
0.0182176
0.0189416
0.0182625
0.0113497
0.0107625
0.00769807
0.00769931
0.00740714
0.0102475
0.00931911
0.00783432
0.00918943
0.00671938
0.0068929
0.00726967
0.010386
0.0109155
0.0174332
0.0174569
0.0154968
0.0164991
0.0175556
0.0189044
0.0200543
0.0214786
0.0224696
0.0235572
0.0254345
0.0258392
0.0240625
0.023709
0.0225891
0.0245154
0.0234805
0.0217482
0.0233179
0.0249803
0.0275434
0.0272359
0.0250795
0.0237619
0.0223562
0.0200325
0.0173911
0.0159949
0.0149624
0.0149696
0.0139092
0.0161965
0.0145994
0.0101398
0.0105814
0.00809942
0.00631485
0.00603068
0.00926702
0.0132827
0.0283297
0.0177064
0.00947968
0.0105771
0.0170236
0.0355342
0.0212839
0.034433
0.0147005
0.0160523
0.0126434
0.0126165
0.0139116
0.0162131
0.0173241
0.0210004
0.0236912
0.0256893
0.0266114
0.0279292
0.0283218
0.0297361
0.0301841
0.0328884
0.0331433
0.0331654
0.032694
0.0302693
0.027213
0.0249935
0.0309391
0.0358546
0.0391932
0.0416244
0.0441135
0.0428425
0.039134
0.0382544
0.0363308
0.0352064
0.0338021
0.0306759
0.0268353
0.0220148
0.0213995
0.0274188
0.0331707
0.0495057
0.0535281
0.0532615
0.0555579
0.0560702
0.0578298
0.0582769
0.0609262
0.0615064
0.0626722
0.0630124
0.068247
0.0691391
0.0701248
0.0704536
0.0701362
0.0710779
0.0710835
0.0483141
0.0432957
0.0391901
0.0325144
0.0271929
0.0345225
0.0430599
0.0483414
0.0738052
0.0742556
0.077955
0.0805702
0.0854938
0.0891694
0.0940206
0.0984794
0.10284
0.106214
0.108236
0.108523
0.108968
0.107987
0.106682
0.115448
0.150058
0.166664
0.197432
0.212557
0.225136
0.229128
0.220511
0.224363
0.216326
0.218932
0.212732
0.210798
0.20554
0.199195
0.195602
0.189245
0.18512
0.213395
0.161108
0.123376
0.0817357
0.0655237
0.0586936
0.0551556
0.0576954
0.0446992
0.038212
0.0571007
0.0526954
0.042313
0.0285753
0.0188341
0.0322157
0.0478472
0.0647387
0.0819163
0.0976029
0.107874
0.11047
0.109415
0.104647
0.0967932
0.081615
0.0614128
0.0421149
0.0346316
0.0319152
0.027977
0.0220724
0.0177482
0.0156458
0.0140719
0.0123202
0.011084
0.0105376
0.010712
0.0110261
0.0132225
0.0173052
0.0172943
0.0115957
0.0111267
0.00765649
0.00774567
0.00800528
0.0133023
0.0134526
0.0208582
0.0233085
0.0219544
0.0226499
0.0223908
0.0226956
0.0223557
0.0211731
0.0203461
0.0193834
0.0185446
0.0177959
0.0169616
0.0161242
0.0174396
0.0163738
0.0137987
0.0139389
0.0145662
0.0152209
0.0161058
0.0173655
0.0184354
0.0211299
0.0212799
0.0207745
0.0208625
0.0193849
0.0186632
0.0199107
0.0194277
0.0132398
0.0130575
0.0190581
0.0187082
0.0186075
0.0224313
0.0208641
0.0213825
0.0225174
0.0224365
0.0195007
0.0181461
0.0165897
0.0154079
0.0140212
0.0124984
0.012105
0.0148396
0.0130223
0.0107112
0.0119266
0.014328
0.0169367
0.0184048
0.0203928
0.0231072
0.0240817
0.0263331
0.0277607
0.0298592
0.0306947
0.0355052
0.0361431
0.0339571
0.0321163
0.0311239
0.0273505
0.0234453
0.0258558
0.0267288
0.0271063
0.0272499
0.0271358
0.0235566
0.0231263
0.0216113
0.021092
0.0195121
0.0189507
0.0177864
0.0170214
0.0159933
0.0141663
0.0134652
0.0126479
0.0122915
0.0173352
0.0108486
0.0105794
0.015989
0.00984286
0.0115818
0.0113257
0.0118546
0.0125213
0.0103466
0.0151241
0.0103224
0.0112238
0.0114661
0.0144224
0.0100545
0.0216281
0.0657127
0.0938099
0.112757
0.204344
0.244118
0.264093
0.28463
0.298542
0.314437
0.33178
0.349305
0.362177
0.363475
0.337629
0.319008
0.253979
0.227333
0.25095
0.280894
0.193485
0.165975
0.168168
0.168894
0.171366
0.172513
0.176009
0.173913
0.178795
0.17445
0.181521
0.175494
0.181735
0.174587
0.159548
0.143135
0.111103
0.100551
0.0648725
0.0502623
0.0393187
0.0285851
0.0208559
0.0187284
0.0177353
0.0164041
0.0164884
0.012634
0.0130913
0.00839445
0.00618098
0.00985492
0.00967842
0.0072319
0.00980682
0.011198
0.0117038
0.0122354
0.0125288
0.0191509
0.0191772
0.0245486
0.0244862
0.0290568
0.0346685
0.03591
0.0395439
0.0569212
0.0574562
0.0571997
0.0570557
0.0566451
0.0494095
0.0491283
0.0480243
0.0474411
0.0444907
0.043935
0.0418443
0.0407009
0.0377411
0.0369148
0.0357905
0.0362776
0.0410799
0.0570136
0.101135
0.0298774
0.0285934
0.0209392
0.0145546
0.0214757
0.0159043
0.015466
0.0136194
0.0186893
0.0134532
0.0136995
0.0165163
0.0170424
0.0164493
0.0215252
0.02682
0.0235347
0.0261358
0.11861
0.0772909
0.0249123
0.0492329
0.0728428
0.159193
0.204516
0.14039
0.160151
0.184121
0.167276
0.140518
0.110161
0.0820226
0.0585579
0.0454665
0.0113244
0.0134119
0.0186269
0.0415646
0.0616072
0.101398
0.0835
0.109057
0.14894
0.173392
0.209291
0.200948
0.172937
0.148845
0.145381
0.160368
0.163273
0.106384
0.103397
0.0781449
0.174255
0.219174
0.184686
0.231803
0.244791
0.145736
0.0322161
0.018393
0.0151276
0.0139246
0.0124427
0.0193501
0.01148
0.0116538
0.0123746
0.0132746
0.0169783
0.0293429
0.0134699
0.0149325
0.0183389
0.0158745
0.014868
0.0146409
0.0145371
0.0151445
0.0164875
0.0215358
0.0216563
0.021338
0.0159852
0.0172877
0.0157032
0.02003
0.0212278
0.0332713
0.0152669
0.0162134
0.0215294
0.480582
0.0246725
0.0178324
0.0232562
0.0219221
0.0301606
0.0436692
0.460627
0.0444389
0.0351539
0.0585322
0.0607545
0.0654225
0.0691002
0.0726416
0.0751564
0.0791344
0.0817583
0.0830195
0.0843037
0.0999249
0.09983
0.0987575
0.103343
0.0974199
0.0575499
0.0577412
0.0971711
0.10485
0.059284
0.0409137
0.0384058
0.0311001
0.0322057
0.0417302
0.0438129
0.0615042
0.0613187
0.102226
0.0932407
0.0946279
0.0964109
0.0914652
0.0919663
0.0939746
0.0941081
0.0754069
0.0730413
0.071261
0.0682369
0.064674
0.0617765
0.0588735
0.0558558
0.0533791
0.0537336
0.0589214
0.0584402
0.0665358
0.074662
0.22863
0.156448
0.111139
0.0816851
0.0658307
0.0591863
0.0585282
0.0616205
0.0648506
0.0664806
0.0672944
0.0707134
0.0924184
0.0945917
0.0974284
0.0949354
0.0987071
0.0967144
0.0942717
0.104136
0.111922
0.0654446
0.067521
0.0476165
0.0443819
0.0323662
0.0329056
0.0234961
0.0194978
0.0194981
0.0194806
0.0196911
0.0225448
0.0314718
0.031587
0.0461218
0.0460685
0.051531
0.0751022
0.0721813
0.128669
0.117955
0.108303
0.101039
0.101393
0.103552
0.106137
0.101156
0.097745
0.092229
0.0724418
0.0683822
0.0662541
0.0650415
0.0638419
0.0676204
0.0919116
0.149889
0.229851
0.336864
0.437355
0.447283
0.404061
0.254998
0.293314
0.146701
0.166386
0.188851
0.166175
0.174674
0.321714
0.267398
0.379398
0.483812
0.537712
0.60423
0.641911
0.632396
0.50435
0.328832
0.336207
0.447084
0.771955
0.865474
0.743584
0.760773
0.657612
0.53953
0.520906
0.496062
0.559429
0.60967
0.575409
0.591642
0.536048
0.512223
0.442542
0.493558
0.360523
0.324723
0.305231
0.296417
0.355149
0.287427
0.323806
0.266267
0.27263
0.221632
0.227102
0.189594
0.145169
0.13766
0.127644
0.142947
0.16214
0.148611
0.153312
0.133908
0.114592
0.0912057
0.0983608
0.0735148
0.0696018
0.0708366
0.0810585
0.12776
0.374637
0.174579
0.164069
0.167963
0.177821
0.31952
0.282721
0.721471
0.505363
0.705522
0.472147
0.559955
0.468456
0.361455
0.377062
0.416698
0.596472
0.819143
6.64423
0.284491
4.25782
3.16144
3.32085
3.46707
4.44309
7.7961
7.10645
9.37392
6.79992
9.07545
4.97781
4.97509
4.32569
4.47138
4.43961
4.26375
5.21529
6.66946
0.239267
0.0910458
0.0854273
0.0856041
0.0873809
0.19778
0.052557
0.201897
0.0539314
0.213288
0.049478
0.24642
0.196735
0.0382238
0.019257
0.0200884
0.0168067
0.0203744
0.0169228
0.0250476
0.0235424
0.0237012
0.0266014
0.076454
0.292794
13.8806
1.68237
0.70377
0.804631
1.20452
0.820187
1.22126
1.69433
1.14093
0.57054
0.375629
0.443288
0.536153
0.511361
0.650265
0.934342
0.91328
0.718075
0.721623
0.63833
0.898639
0.906671
1.07278
1.25196
1.14452
0.898617
0.708851
0.602254
1.03267
1.03545
0.967895
0.413446
0.117675
0.0475322
0.0500319
0.0361125
0.0380138
0.0349459
0.0563464
0.164746
0.22635
0.136806
0.435752
0.418869
0.566704
0.404231
0.41381
0.327189
0.350771
0.535428
0.584545
0.643737
0.674703
0.725772
0.672369
1.29249
2.21786
2.50892
12.8859
17.4352
3.2102
3.09849
13.9466
0.315014
0.0839528
0.0233286
0.0174339
0.0162175
0.01613
0.0150005
0.0155379
0.0159988
0.0169625
0.0188261
0.0231899
0.0458115
0.20132
0.203276
0.0642998
0.0324108
0.0229636
0.0196131
0.0170449
0.0163859
0.0155309
0.0154586
0.015008
0.015658
0.0174654
0.0237822
0.0774093
0.270812
11.3119
2.43385
2.25186
8.37494
5.78888
0.206624
0.0437743
0.0200915
0.0169258
0.0158832
0.0167527
0.0162647
0.0182095
0.0184003
0.0230122
0.025015
0.0317491
0.0570284
0.110087
0.31508
9.55772
8.63025
8.34996
7.79279
0.309709
0.115067
0.0543505
0.038215
0.0346142
0.0338104
0.0226459
0.0236697
0.0189802
0.0216366
0.0182931
0.0226771
0.0482858
0.211779
5.34674
1.56759
1.69864
1.20735
0.611748
0.654671
0.668823
0.688642
1.77829
4.07504
5.00592
3.43658
3.36692
4.71847
3.17671
2.48629
1.83282
1.74926
2.5492
1.96432
1.82555
1.35702
1.46705
1.06691
1.46607
0.810433
0.975544
1.07157
1.53019
1.39618
1.40889
0.907193
1.04902
1.47393
1.72235
1.64653
0.842851
1.22512
1.01251
0.654084
0.606563
0.633328
0.603641
0.578791
0.575283
0.579238
0.557992
0.574885
0.55489
0.586508
0.545921
0.531495
0.506369
0.526215
0.544118
0.576818
0.359756
0.422316
0.426388
0.440844
0.453705
0.374805
0.450698
0.441892
0.658817
0.994457
0.83858
1.16285
0.682218
1.00428
2.00835
5.20666
2.36668
0.823925
1.34805
1.58062
1.13822
0.627617
2.55087
3.55479
1.22868
1.78108
10.3645
8.41865
16.4971
10.9753
18.6582
6.04504
4.63555
17.8222
6.68395
6.92264
4.52195
4.5261
2.96285
1.58706
1.63168
1.74534
1.22834
1.30261
1.21249
1.13358
1.47589
1.44235
1.89034
2.03882
2.58322
1.81377
1.78017
2.60725
1.06399
1.40432
1.84193
1.8343
1.36314
2.35009
3.1663
2.98509
2.15259
2.34253
3.51228
4.82869
4.59732
3.18449
3.99165
10.1514
13.5519
13.7054
4.23168
19.2999
18.3078
2.09527
0.575799
0.330447
0.0914311
0.0448895
0.0366988
0.0387411
0.144571
0.0458153
0.0571884
0.0457794
0.0742335
0.0703997
0.0880048
0.220974
0.127815
0.219128
0.157339
0.193526
0.123577
0.197582
0.231653
0.242036
0.192709
0.118425
0.217668
0.313147
0.10853
0.36169
0.398013
0.266011
0.339606
0.404676
0.200827
1.00489
0.187702
0.129738
0.15031
0.401515
1.2773
0.223485
0.468452
4.503
14.7235
3.70843
0.950439
0.69178
0.0559032
0.0303059
0.0322292
0.0280626
0.0194435
0.0853055
0.10051
0.409695
0.21074
0.278141
0.661371
2.92301
2.39938
1.14063
5.51629
10.2706