/*--------------------------------*- C++ -*----------------------------------*\
| =========                 |                                                 |
| \\      /  F ield         | OpenFOAM: The Open Source CFD Toolbox           |
|  \\    /   O peration     | Version:  v2012                                 |
|   \\  /    A nd           | Website:  www.openfoam.com                      |
|    \\/     M anipulation  |                                                 |
\*---------------------------------------------------------------------------*/
FoamFile
{
    version     2.0;
    format      ascii;
    class       surfaceScalarField;
    location    "225";
    object      phi;
}
// * * * * * * * * * * * * * * * * * * * * * * * * * * * * * * * * * * * * * //

dimensions      [1 0 -1 0 0 0 0];
oriented        oriented;


internalField   nonuniform List<scalar> 
63799
(
0.00326653
-0.00546339
0.00430143
-0.00835809
-0.00580228
0.00882506
-0.00502228
-0.00842096
0.0104938
0.00612899
0.00622426
-0.00779939
-0.00352643
0.00379901
0.0032561
-0.000894001
0.0043134
0.00172925
-0.00229098
0.00548062
0.00294157
-0.00417969
0.00149672
0.00389603
0.0029488
-0.00642483
0.00487373
0.00447951
-0.00591174
0.00427084
0.00536174
-0.00449155
0.00350683
0.00643588
-0.00307037
0.00189202
0.0122146
-0.00515252
-0.000819314
0.0141892
-0.0116132
0.00908233
0.0152025
-0.0132289
0.0115221
0.0183573
-0.0123905
0.00846006
0.0180932
-0.00985153
0.00933457
0.0129112
-0.00758806
0.0119593
-0.00425652
-0.0072802
0.0236715
-0.0195769
-0.016046
0.0306041
-0.0172393
-0.0300066
0.026977
-0.00669346
-0.0335292
0.0224308
-0.0146886
0.00763851
-0.0486738
0.0313142
0.00233022
-0.0539823
-0.0222211
0.026978
-0.0628231
-0.0124029
0.0206917
-0.0442642
-0.0333083
0.0144068
-0.0556779
0.011055
-0.0893769
0.00720553
0.0259374
-0.109259
0.0145678
0.00461633
-0.1229
0.00832262
0.00454873
-0.12902
0.0027966
0.00252078
-0.130517
-0.00115525
0.00180025
-0.12916
-0.00495636
0.0027417
-0.125552
-0.00970572
0.00522115
-0.1187
-0.016479
0.00877395
-0.105715
-0.0268554
0.0130144
-0.0836528
-0.0393039
0.0164461
-0.051219
-0.0508587
0.0176364
-0.0618047
0.00983835
-0.103219
0.00332312
0.0372886
-0.131677
-0.00060369
0.0282321
-0.150017
-0.00289215
0.020324
-0.158563
-0.00461633
0.0122346
-0.158258
-0.00734199
0.00607101
-0.149795
-0.0111726
0.00174382
-0.132786
-0.0159882
-0.00198911
-0.106893
-0.0210082
-0.00584697
-0.0703085
-0.0253879
-0.0121534
-0.0413789
-0.0179993
-0.01188
0.0153256
-0.0145609
-0.0430851
0.0818773
-0.0181995
-0.0492787
0.119364
-0.00363461
-0.034761
0.141622
0.00312753
-0.0262624
0.151169
0.00842078
-0.0188066
0.140845
0.0161544
-0.00659325
0.081705
0.0368016
0.021717
0.034374
0.0174843
0.0296267
0.0193165
0.0114442
0.00353568
0.0198465
0.000757125
-0.00134255
0.0196656
-0.00104446
0.00115422
0.0167265
0.000215706
0.00264257
0.0109744
0.000910683
0.0047567
0.00641687
0.000782596
0.00370333
0.0055775
0.000408187
0.000380142
-0.00254306
0.00629165
0.00175742
-0.00067405
-0.00195718
0.00658512
0.000109237
-0.00746743
0.0125127
0.00252703
-0.00856503
0.0176549
0.00213746
-0.00738269
0.0240349
-0.000878761
-0.00560641
0.0573326
-0.0171371
-0.0163577
0.111881
-0.0114911
-0.0436318
0.134202
0.00287031
-0.0259102
0.143538
0.00448162
-0.0146243
0.145908
0.0040416
-0.00722475
0.143199
0.00427873
-0.00240901
0.135446
0.00514438
0.00181211
0.120184
0.00684927
0.00763467
0.0983445
0.00613218
0.015002
0.0613802
0.00748449
0.0289193
0.0500366
0.0109837
0.0801645
0.0141743
-0.0446451
0.0758765
0.00890609
-0.00516975
0.0518755
0.0162847
0.00716439
-0.00141617
0.0533434
-0.000394652
-0.00597264
0.00419658
0.0111406
0.0174365
-0.0351102
0.0108027
0.0283608
-0.0287279
0.00179153
0.031959
-0.0237255
0.00161063
0.0309496
-0.0315653
0.014756
0.0343594
-0.0483433
0.0299337
0.0397603
-0.0557504
0.0429461
0.0422936
-0.0561119
0.0457373
0.0437657
-0.0472759
0.0247613
0.0467664
-0.0263643
0.0126242
0.0210657
-0.00912539
0.0122862
0.00611141
-0.00587852
0.0122034
0.00565697
-0.00567709
0.0109115
0.00631174
-0.00513015
0.00710705
0.00539104
-0.00168557
0.00196055
0.00505837
0.0030781
0.00347608
-0.00466507
0.00269975
0.00277268
-0.00244535
0.00182401
0.00411676
-0.0033125
0.00261223
0.00469466
-0.00556755
0.00216949
0.00430893
-0.00394695
0.00181524
0.00397087
-0.00368763
0.00211689
0.0019882
-0.00234515
0.00328762
0.00186506
-0.00311335
-0.0018506
0.0105706
-0.00565209
-0.012314
0.0343322
-0.0244897
-0.0120182
0.0328416
-0.0338996
-0.0123347
0.0346808
-0.0352012
-0.0143741
0.0371944
-0.0360308
-0.0132734
0.0365407
-0.0385477
-0.0110009
0.0369163
-0.0401106
-0.00697608
0.0374274
-0.0423839
0.00179447
0.0430424
-0.052745
0.00631632
0.048626
-0.0540702
0.00489814
0.0516131
-0.0511016
0.00328889
0.0525871
-0.0518539
0.00897731
0.0484043
-0.05493
0.0190553
0.0457414
-0.0565818
0.0164781
0.0479568
-0.0460004
0.00550888
0.0186929
-0.00794316
0.00370883
0.00646183
-0.00473916
0.00556134
0.00257854
-0.00448595
0.00732553
0.00394137
-0.00577549
0.0045402
-0.0050923
-0.00808849
0.00949368
-0.00537152
-0.00562152
0.00763817
-0.00623964
-0.0011878
-0.00187686
0.00736757
-0.00212236
-0.00590041
0.0121841
0.00697841
-0.00600798
-0.00542181
0.0162491
0.00179302
-0.000638288
0.0748072
0.0149002
-0.0475204
0.0175521
0.0713642
-0.0447243
0.0260522
0.0711546
-0.0321748
0.0225519
0.0736283
-0.0184809
0.0151686
0.0697247
-0.011685
0.0105309
0.0634826
-0.0111878
0.0102897
0.0533175
-0.0110095
0.00732131
0.0413887
-0.0019683
0.00252456
0.0406889
5.56704e-05
-0.00470264
0.0441263
-0.00131452
-0.0141483
0.0477447
-0.00204409
-0.017225
0.0450741
-0.00824063
-0.0153432
0.0467073
-0.0166585
-0.00981678
0.0527713
-0.00497463
-0.0199775
-0.00600554
0.0106664
-0.00407957
-0.00753932
0.00901697
-0.00515834
-0.00243855
-0.00454841
-0.00115485
-0.00167758
-0.00090446
-0.00266253
0.00860619
-0.00372716
-0.00305356
0.00859751
-0.00398521
-0.00173767
0.00890299
-0.00561577
-0.00263396
0.00695241
-0.00200854
-0.00264322
0.00474699
-0.00201137
-0.0021916
0.00649105
-0.00352936
0.0101606
-0.00738996
0.0147618
-0.00777004
0.00305948
0.0190995
-0.00788695
0.0034257
0.0238944
-0.0083199
0.00338889
0.0341185
-0.0124497
0.00204718
0.0462863
-0.0189946
0.00654072
0.03426
-0.000119149
0.0118609
0.0248827
-0.000838684
0.0100362
0.0208932
-0.00190368
0.00575711
0.0172739
-0.00102324
0.00451897
0.0130422
0.000337842
0.00378447
0.00772066
0.00183436
0.00339113
0.00361291
0.00401965
0.00287123
0.00616145
-0.00549118
0.002776
0.00394092
-0.00389669
0.00558833
0.00167993
-0.00456373
0.00753164
0.00237862
-0.00440656
0.00873198
0.00288477
-0.00416583
0.00852887
0.00337889
-0.00324672
0.00814225
0.00301223
-0.00268085
0.0150891
0.000943528
-0.00796789
0.0391732
-0.00675049
-0.0175527
0.069117
0.0131199
-0.0436809
0.0766034
0.0246281
-0.0328703
0.0746628
0.0291542
-0.0280402
0.0666
0.0308306
-0.0236238
0.0532205
0.0304293
-0.0179182
0.0258718
0.0284967
-0.00200978
-0.0150952
0.0254585
0.0146517
-0.0398299
0.032027
-0.00814939
-0.0497753
0.0370757
-0.0279923
-0.0555052
0.0392825
-0.0344196
-0.0569536
0.0387152
-0.0381194
-0.0527395
0.0361057
-0.0411413
-0.0420876
0.0324876
-0.0438903
-0.0208276
0.0265723
-0.0484476
-0.00717941
0.00278374
-0.0166509
-0.00347369
0.00279511
-0.00657838
-0.00403606
0.00360072
-0.00309366
-0.00374547
0.00472376
-0.00508508
-0.00222189
0.0044441
-0.00604691
-0.000531644
0.00436186
-0.00613224
0.00061706
0.001908
-0.00312031
0.000634082
0.002751
-0.00281572
-0.000628763
0.00539735
-0.00420497
0.00560838
-0.00632382
0.00955401
0.00211949
-0.00616437
0.012207
0.00385273
-0.00661353
0.0145071
0.00373448
-0.00614101
0.016209
0.00398137
-0.0057865
0.0172601
0.00420498
-0.00535636
0.0169883
0.00454291
-0.00436516
0.0119486
0.00626495
-0.00130239
0.00554154
-0.000126079
0.00650292
0.0053938
-0.000773286
0.000907527
0.00645377
-0.000854442
-0.000220185
0.00748289
-0.000932736
-0.000111914
0.00831516
-0.000655428
-0.000192582
0.0088213
-2.78999e-05
-0.000493692
0.00891621
0.000615907
-0.000726234
0.00873289
0.00106364
-0.000895661
0.00840816
0.00126313
-0.000953772
0.00806016
0.00128578
-0.000953209
0.00771487
0.00122854
-0.000898706
0.00738388
0.00115238
-0.000836919
0.00703836
0.00109021
-0.000760149
0.00668744
0.00104678
-0.000711461
0.00615629
0.000963069
-0.000447119
0.0054279
0.00073658
-2.23991e-05
0.00579553
0.000610578
-0.000991005
0.012364
-0.000822702
-0.00577394
0.0175346
-0.00319175
-0.00204762
0.018389
-0.000900199
-3.66385e-05
0.0177538
-0.000197365
0.000750161
0.0156157
0.000383449
0.00167184
0.00958012
0.00213108
0.00383548
0.00390796
0.00389256
0.00175151
0.00322466
0.000283179
0.000387483
0.00300258
-0.000330399
0.000538833
0.00234979
4.97867e-05
0.000589454
0.000995756
0.000417864
0.000925021
0.000363578
0.000429024
0.000197695
0.000144907
0.000215564
9.47572e-05
0.000126856
-7.84013e-05
7.44872e-05
6.33654e-05
-4.38126e-05
0.000125371
2.49624e-05
-7.64938e-05
0.000212718
2.93959e-05
-0.000117648
0.000327117
3.58991e-05
-0.00015148
0.000545003
4.67071e-05
-0.000265859
0.000502913
-1.11188e-05
5.21773e-05
0.000738872
-0.000356899
0.000120177
0.00121759
-0.000733267
0.000253358
0.00188065
-0.000934621
0.000270324
0.00253904
-0.00104617
0.000386528
0.00298209
-0.000959263
0.000514972
0.00308922
-0.000755563
0.000647176
0.00301506
-0.000631685
0.00070459
0.00260431
-0.000288605
0.00069811
0.0016702
0.000233096
0.000699759
0.000147946
0.000795833
0.000725186
-0.00144388
0.00139046
0.000200177
-0.00223315
0.000626258
0.000162253
-0.00215884
1.41653e-05
-8.94991e-05
-0.00133951
-0.000796484
-2.41034e-05
-0.0008129
-0.000548101
2.03214e-05
-0.000445043
-0.000404679
3.59251e-05
-0.000249223
-0.000262485
6.60232e-05
-0.000303893
-0.000147328
0.000201289
-0.000470069
-0.00012893
0.000293433
0.00036554
-0.000838673
0.000245038
-0.00061321
0.000730175
2.79172e-05
-0.000400197
0.00061421
-0.000280312
-0.000241456
0.000546568
-0.000552692
-0.000257791
0.000527185
-0.000718984
-0.000348022
0.000511323
-0.000861126
-0.000343928
0.000483182
-0.00087874
-0.000460288
0.00047507
-0.00092341
-0.00041197
0.000453871
-0.000874918
-0.000506732
0.000455522
-0.000878708
-0.000441284
0.000442377
-0.000807458
-0.000521091
0.000447206
-0.000797258
-0.000443836
0.000430978
-0.000719518
-0.000503921
0.000423651
-0.00069999
-0.000409513
0.00038738
-0.000614209
-0.00045938
0.000371251
-0.000529691
-0.000421097
0.000334066
-0.000546586
-0.000489741
0.000504263
-0.00130589
-0.000300131
0.00105418
-0.00147461
-0.000585927
0.000748144
-0.00266371
-0.000353546
0.00152994
-0.0048182
-0.00410076
0.00621974
-0.0107258
-0.0174581
0.0232407
-0.0157285
-0.0220142
0.0268464
-0.0174537
-0.034969
0.0363791
-0.0152525
-0.0461327
0.0435888
-0.0504789
0.0459084
0.0156383
-0.0811932
0.0217535
0.0247694
-0.0820001
0.0261745
0.0217447
-0.0748459
0.00548184
0.036753
0.0125862
-0.0232961
0.0102816
0.004902
-0.0249182
0.012341
0.00262568
0.00240825
0.00325219
-0.00488701
0.00280537
0.00166328
-0.00369159
0.00161225
0.00193125
0.000515783
0.00107851
0.000263859
0.000736868
-4.13233e-05
0.000381039
0.000348197
8.73047e-05
-0.000174818
3.24651e-05
-0.00115732
0.000818768
0.000162128
-0.00170173
0.00050084
0.00219221
-0.00403093
0.00178593
0.000963316
0.00135322
-0.00436674
0.00207525
0.00215016
0.000816602
0.000540429
0.00115092
0.000555642
0.000968036
-0.000803282
0.000572823
0.00135122
-0.00145405
0.000563159
0.00108436
-0.000777772
0.000596995
0.00145115
-0.00147233
0.000580615
0.00112475
-0.000735526
0.000616793
0.00144955
-0.00144087
0.000605442
0.00106142
-0.000685629
0.000657854
0.0012627
-0.00133179
0.00066622
0.000815113
-0.000635434
0.000735042
0.000799231
-0.00110071
0.000764465
0.000442497
-0.000746696
0.000841514
0.000351933
-0.00102048
0.000865456
9.56865e-05
-0.00106968
0.000921519
-0.000241774
-0.00124976
0.00096927
-0.00201266
0.000926874
-0.00435086
0.000587062
0.00174039
-0.00517308
-0.00018199
0.000991577
-0.00518589
-0.000235271
0.000235261
-0.00591308
-0.000270949
0.000987399
-0.0136472
0.000887786
0.00682154
-0.0203649
0.00588163
0.000784338
-0.024522
0.00235168
0.00174389
-0.0475079
0.00663087
0.0162598
-0.0492436
0.00437847
-0.00284713
-0.0274224
-0.00404493
-0.0178702
-0.0243869
-0.00139878
-0.00169668
-0.0185069
-0.00494565
-0.000984894
-0.00852582
-0.00124787
-0.00875778
-0.00794416
0.000381265
-0.00097372
-0.00904447
0.000209064
0.000878157
-0.00943929
8.52308e-05
0.000296115
-0.0090079
-0.000551855
0.000106949
-0.00872603
-0.000483502
0.000188954
-0.00862915
-0.000333682
0.00022401
-0.00882941
-0.000124192
0.000311209
-0.0093893
7.2344e-05
0.000473104
-0.0096946
-0.000359742
0.000649747
-0.00958036
-0.00090668
0.000776639
-0.00910923
-0.00137416
0.000887166
-0.00841014
-0.00168245
0.000967597
-0.00777883
-0.00164053
0.000993387
-0.00702232
-0.00153585
0.000763974
-0.00604908
-0.00130745
0.000319487
-0.00617031
-0.00119977
0.00130769
-0.0134474
-0.000694227
0.00794028
-0.0184403
0.00810549
-0.00318843
-0.0208235
0.0054022
-0.00310606
-0.0418779
0.0127282
0.00815406
-0.0543296
0.0250144
-0.0130105
-0.0357186
0.00930321
-0.0284681
-0.0331778
-0.00311003
-0.0513817
-0.0254677
0.0429894
-0.0592404
-0.0391
0.0462026
-0.0571912
-0.0501903
0.0473182
-0.0453335
-0.0578746
0.0451801
-0.0278571
-0.0613214
0.0430392
-0.0624514
0.0436416
0.0193943
-0.104271
0.0249256
0.0383532
-0.103332
0.022193
0.0521164
-0.0969021
0.0243764
0.0547442
-0.0838028
0.0301046
0.04611
-0.0653762
0.0340836
0.0261621
-0.0430204
0.036752
-0.0144132
0.0367884
-0.0290739
-0.0292109
0.0431116
-0.0401671
-0.0373906
0.0476113
-0.045541
-0.0459344
0.0503993
-0.0439331
-0.0551734
0.0526125
-0.0365482
-0.0630103
0.0546737
-0.0244564
-0.0696818
0.056644
-0.0066196
-0.0745729
0.0558147
0.0111266
-0.0718384
0.0531986
0.0100332
-0.0547123
0.0549336
0.00457868
-0.0577923
0.062382
0.00972115
-0.0687766
0.0627684
0.0182611
-0.0708713
0.0614608
0.0277334
-0.0678186
0.0574893
0.0346979
-0.0613803
0.0535884
0.0346942
-0.0514072
0.0506548
0.0147698
-0.034372
0.0536794
0.00614533
-0.0106383
0.0190437
0.0032689
-0.00119767
0.00399681
0.00276024
-0.00300856
0.0034624
0.00156962
-0.00417248
0.00529327
0.00010024
-0.00386846
0.00525972
-0.00100299
-0.0046619
0.00568595
0.000537791
-0.00405665
0.00245278
0.00140591
-0.00460322
0.00368778
-0.00119295
-0.00520755
0.00773546
0.00838031
-0.00966128
0.0139167
-0.00963701
0.00400132
0.0170126
-0.00994345
0.00673678
0.0191664
-0.0081986
0.00594184
0.022495
-0.00883473
0.00540145
0.0507279
-0.0306723
0.00224461
0.107518
-0.000844599
-0.0565079
0.133236
0.0162345
-0.0426428
0.145932
0.0235987
-0.0370607
0.152106
0.0262949
-0.0332133
0.151415
0.0288359
-0.0288989
0.136417
0.0338196
-0.0194846
0.0791719
0.0490071
0.00771118
0.0363974
0.0190912
0.0235065
0.0293065
0.00630371
0.000696543
0.0188051
0.0103067
0.000122756
0.00784696
0.0103066
0.000621998
0.00690759
0.00164662
-0.000719641
0.00687689
0.000634093
-0.000617038
0.00572135
0.00160191
-0.000459607
0.00259358
0.00248338
0.000633449
0.00106917
0.00126329
0.000255753
0.000432619
0.000633484
0.000257517
-0.000759191
0.000930747
3.18588e-05
-0.000593183
0.000815724
-0.000121009
-0.000649176
0.000798916
-0.000266201
-0.000614386
0.000756583
-0.000324298
-0.00065669
0.000711788
-0.000398237
-0.000579892
0.000650935
-0.000381268
-0.000641081
0.000621273
-0.000398988
-0.000563823
0.000578767
-0.000340801
-0.000628734
0.000567822
-0.000333812
-0.000554705
0.000545012
-0.000272279
-0.000612015
0.000547839
-0.000267221
-0.000538945
0.000531217
-0.000234426
-0.000561643
0.000526304
-0.000242536
-0.000489601
0.000495086
-0.000190755
-0.000519213
0.000465059
-6.15073e-05
-0.000477717
0.000345966
-2.73774e-06
-0.000436129
0.000375031
-0.000397726
-0.000691974
0.00108167
-0.000649635
0.000872489
-0.000627172
-0.00134071
0.00136617
-0.000687851
-0.00254215
0.00553619
-0.00437054
-0.00915985
0.0249218
-0.0184311
-0.0161497
0.0303192
-0.0235052
-0.02057
0.0407336
-0.0366337
-0.0164788
0.044797
-0.0492318
0.0493289
-0.0552005
0.0192011
0.0712479
-0.0272567
0.026052
0.0636348
-0.0259554
-0.0184507
0.0498285
-0.00540859
0.0269959
-0.00477899
0.0338885
-0.00206767
-0.00488221
0.000151977
0.0451367
-0.011441
0.0649407
-0.0150272
-0.0121217
0.0512514
-0.00103054
-0.0283101
0.0545894
-0.0293447
0.0698622
0.0104905
0.0638964
-0.0135586
0.0163023
0.0360671
0.0273402
0.00932836
0.00853135
0.0677992
-0.00580204
-0.00586848
-0.0123439
0.0840342
-0.0179439
0.00155029
-0.00244456
0.0129396
-0.0257523
-0.003378
0.010059
-0.0102353
0.00119837
-0.0307323
-0.00895682
0.022804
0.00657903
0.00432283
-0.00693444
0.00623861
0.014518
0.022128
-0.0137627
0.00863808
0.00349327
-0.00593881
2.12926e-05
0.0161519
0.00386023
0.00312216
0.0115158
0.00135079
0.0032783
0.0106476
-2.60381e-05
0.000883512
-0.00928689
-0.000377037
0.0202979
-0.0192661
0.00100593
0.00420064
0.00354261
0.00543733
-0.00478558
0.00725749
-0.000440252
0.004661
0.00256632
-0.00468119
0.00896096
0.00175702
0.0107683
0.00361414
-0.0118455
-0.000805202
-0.00564675
-0.00243916
-0.00295547
0.0307532
-0.0101885
-0.00250684
0.000926186
0.00971963
0.00426099
0.00267502
-0.0337776
0.00348744
-0.0023066
0.000569067
-0.00111413
0.00308445
-0.00443524
0.00292675
-0.00451253
0.00314977
-0.0115172
-0.0133298
0.00633278
0.0108291
0.00341209
-0.00819071
-0.0108844
0.00708973
0.0117009
-0.00293512
0.00224586
-0.0125314
0.0190603
-0.00256202
-0.00282288
-0.00278308
0.00571396
0.000645117
-0.00260835
-0.00208578
0.00182172
-0.00071055
0.000410067
0.00298455
-0.00247038
-0.00211435
0.00183245
0.000530257
0.00254241
0.00189752
-0.00251492
-0.00204797
0.000437302
-0.00255114
-0.00206886
0.00215912
0.00255086
0.000671612
-0.0026289
-0.00203643
0.00199481
0.00243335
0.000665142
-0.00229977
-0.00204094
0.00182418
0.00252021
0.00104401
-0.00256019
-0.00191833
0.00162603
0.00247091
0.00097577
-0.00232421
-0.00198633
0.00176412
0.00261205
0.00142193
-0.00287641
0.00265839
0.00179171
-0.00202237
0.00133554
-0.00269508
0.00202665
0.00307816
-0.00232595
0.00162052
-0.00268137
-0.00354426
0.00347398
0.00246395
0.00121941
-0.00365197
0.00324555
-0.00319077
0.00399541
0.00103907
-0.00451164
-0.00346696
0.00379582
0.00436006
0.000436288
-0.00438097
0.00513725
0.00364257
-0.00379902
5.18393e-05
0.00416716
-0.00483614
0.00556325
-0.00451299
6.9482e-05
-0.00190036
0.00242676
0.00179051
-0.00233585
0.00179963
-0.00110313
0.0012246
-0.00185236
0.00226309
0.00213397
0.000341134
-0.00293949
0.00208139
-0.000878895
0.000644002
0.000415623
0.00213329
-0.00164479
0.00135
0.000241728
0.0017442
-0.00109052
0.00119824
0.000280254
0.00134838
-0.000655138
0.000769685
0.000280191
0.000647397
-3.87194e-05
0.000325683
0.000412975
-0.000351776
0.000508164
-8.52375e-05
0.000575182
-0.00104479
0.000560169
-0.000483875
0.000615654
-0.00125121
0.000752413
-0.0010768
0.000529765
-0.00124846
0.000965223
-0.00150347
0.000534414
-0.0011324
0.00100517
-0.00154841
0.000426069
-0.000924627
0.000927345
-0.00136585
0.000229566
-0.000784201
0.000377347
-0.000487283
-3.14519e-05
-0.00042841
0.00057735
0.00011016
-0.00104423
-0.000155189
0.000272108
-0.000577697
3.16232e-05
-0.000569566
0.000663206
-0.000561367
0.000311051
-0.00120756
0.00156179
0.00134806
6.29401e-05
-0.00235273
-0.00263646
0.00266136
-0.00217649
0.000921835
-0.00360031
0.000128161
0.00217048
0.000426456
-0.00261707
0.00074501
-0.00173911
-0.000558996
-0.00521659
0.0038122
-0.00250131
0.00198695
-0.00511581
0.00381274
-0.00685174
-0.000879619
-0.00402157
0.00913533
-0.0259769
-0.00990645
-0.0186071
-0.00695522
0.0537717
-0.0428234
-0.020352
0.0253332
0.0110693
-0.0494895
-0.0292779
0.0463128
-0.0111895
-0.0494652
-0.0310424
0.051277
-0.0210882
-0.046478
-0.0320722
0.0535479
-0.0252958
-0.0415164
-0.0299941
0.0526285
-0.0284134
-0.0121182
-0.0231302
0.0472768
-0.0164659
-0.0379299
0.0164744
-0.00726777
-0.00961857
-0.0118414
0.0136375
0.0260158
-0.0101703
-0.0131391
0.0217254
0.0166123
-0.014108
-0.0107266
0.012312
0.0345458
-0.011286
-0.0139734
0.00529904
0.0277206
-0.00811284
-0.012694
-0.00657306
0.0394187
-0.0104854
-0.0171612
-0.0125411
0.0402252
-0.0144789
-0.0199055
-0.0075953
0.0292746
-0.0138225
-0.0205338
-0.00888258
0.0333232
-0.0132282
-0.0189615
-0.0106483
-0.00503706
-0.00739548
-0.00233273
-0.00926597
0.0058869
-0.00105881
-0.00991123
0.00641649
-0.00247281
-0.00868029
0.00449577
-0.00292881
-0.00626813
0.0028808
-0.00300496
0.00199021
-0.00270012
-0.00913412
0.00586997
0.0101328
-0.00497486
-0.00431959
0.00658092
-0.00533437
0.00614203
-0.00654086
0.00682302
-0.00665574
0.00586455
0.00727582
-0.00589851
0.00534303
0.00724381
-0.00476668
0.00469413
0.0121796
-0.0126761
0.00754561
0.0224423
-0.033955
0.0319064
-0.040148
0.0398788
-0.0408104
0.0460311
-0.0379378
0.0470504
-0.031051
0.0452135
-0.019178
0.0312481
0.00353259
0.0162804
0.0139115
0.015529
0.00264776
0.0121219
0.00277631
0.00502907
0.00591995
0.00114331
0.00440929
0.000794067
-0.000186664
0.00422679
0.000272556
-0.000103693
0.00338088
0.000872767
-4.00863e-05
0.00144918
0.000605409
0.00131536
0.000539311
0.000241
0.000663498
0.000445179
9.10663e-05
0.000307305
4.46297e-05
9.15674e-05
0.000224364
-4.76089e-05
0.00012984
0.000343931
-0.000128234
8.02531e-06
0.000571197
-0.000183089
-4.50747e-05
0.000794062
-0.000179898
-4.41389e-05
0.00106349
-4.4754e-05
-0.000225929
0.000887769
-6.04665e-05
0.000235163
0.00130841
-4.4049e-05
0.00218025
5.43153e-05
0.00307754
0.000106644
0.00376866
0.000272858
0.00406135
0.000458478
0.00398748
0.000632781
0.00377246
0.000721931
0.00302723
0.000705274
0.00173679
0.000634053
1.96282e-05
0.000625403
-0.00181638
0.000190035
-0.00290112
0.000205084
-0.00275229
-9.3986e-05
-5.58759e-05
-0.00172166
-1.70052e-05
-0.00101488
-0.00105031
3.9791e-05
-0.000712312
-0.000579366
5.59058e-05
-0.000527746
-0.000327514
8.89973e-05
-0.000341492
-0.000403666
0.000263825
-0.000188384
-0.000146244
0.000374385
-0.000646465
0.000458499
4.12715e-05
-0.00024137
0.000301024
0.000555451
0.000454562
-0.002121
0.000611566
0.000812256
0.00113046
-0.00273818
0.000949758
0.00111084
0.00115832
-0.00247512
0.00123628
0.00120915
0.00206485
-0.00383149
0.00134399
0.00157903
0.00195605
-0.00286202
0.0014201
0.00154888
0.00430069
-0.00534962
0.00290106
0.00504958
0.00412406
0.00297115
-0.00206153
0.00397514
0.00178771
-0.000996226
0.00480577
0.00162704
-0.00110957
0.00485803
0.00235249
-0.00120821
0.00460693
0.00201488
-0.000995765
0.00411091
0.00102924
-0.000209079
0.00330325
0.000247247
0.000473611
0.00243524
-0.000378191
0.000760759
0.00163534
-0.00160548
0.00132703
0.000936374
-0.00276397
0.00195781
0.000119847
-0.00289705
0.00216346
-0.000851148
-0.00245426
0.00205751
-0.00103264
-0.000685742
0.000378517
-0.000641383
0.000664157
-0.000479406
0.000654894
-0.000362379
0.00408177
-0.00245692
-0.00327073
-0.00124099
0.00418947
0.00449613
-0.0014638
0.00259181
0.00627184
-0.000724199
0.0015864
0.0198106
-0.00528497
-0.0120594
0.00383051
0.0156934
-0.00725905
0.00604855
0.0114792
-0.00671038
0.00572138
-0.00985206
-0.00142863
0.0253626
-0.00847815
-0.0168067
-0.0100567
0.0160802
-0.0180991
-0.0395337
0.0590525
-0.0291338
0.0269534
0.0426777
-0.0500868
0.0588804
0.00746831
-0.0575975
0.0666959
-0.00882957
-0.0590338
0.0702517
-0.0161977
-0.056573
0.0704342
-0.0212021
0.0644095
-0.0320093
0.0694689
0.0835909
-0.0274432
0.0687894
0.0841331
-0.0140462
0.0640105
0.0813165
-0.00729734
0.0509214
0.0775768
0.0012083
0.0173865
0.0711537
0.0202627
-0.0380028
0.0321038
0.0492268
-0.036718
-0.0466121
-0.0222828
0.0484752
0.0139857
-0.0192743
-0.0116748
-0.0198758
-0.0186519
-0.0155033
0.00747027
-0.024392
-0.00740052
0.00559026
-0.022473
0.00634246
-0.0272579
-0.00840799
0.00582935
-0.0119602
-0.0151882
-0.00714217
0.0016479
0.00401162
-0.0116249
-0.00423573
-0.000134339
-0.00996092
0.00116543
-0.00982697
-0.00395567
0.00233804
-0.00369945
-0.00687262
-0.00418631
0.00245664
0.00320473
-0.0047398
-0.00315245
0.00098423
0.00211414
-0.003729
0.00154531
-0.00146404
0.00164839
-0.00338949
-0.00347999
0.0029475
-0.0051616
-0.00318021
0.00205238
-0.0072831
-0.00311587
0.00247037
-0.00908523
-0.00227239
0.0024661
-0.0100754
-0.00181212
0.00242107
-0.0115921
-0.00107263
0.00283356
-0.0118038
-0.000545377
0.0017834
-0.0111672
0.000924186
0.000451093
-0.010275
0.00183854
-0.000381157
-0.00922438
0.00297207
-0.00239933
-0.00896366
0.00275339
-0.00122945
0.0101857
0.00622275
-0.0161408
-0.001227
0.00945634
0.00324806
0.000231131
0.0111934
0.0026621
-0.00143064
0.012391
0.000801475
-0.000163626
0.0124874
-0.000310071
0.00113475
0.0114709
-0.00115659
0.00162469
0.010607
-0.00195504
0.00174352
0.00966778
-0.00271559
0.00183991
0.00871396
-0.00323817
0.00191665
0.00712257
-0.00343972
0.00191207
0.00574311
-0.00339773
0.00159395
-0.00381261
0.00234315
-0.00673165
-0.00379105
0.00196662
-0.00779214
-0.00474025
0.0023995
-0.00875411
-0.00431639
0.00183547
-0.00974093
-0.00409022
0.00183585
-0.0107608
-0.00351328
0.00181454
-0.0114249
-0.00288928
0.00159542
-0.0120115
-0.0016211
0.00104803
-0.0124527
-0.000170003
0.000297998
-0.0117501
0.00138806
-0.00129266
-0.00970809
0.00143482
-0.000818437
-0.00931442
0.00217802
0.000672539
0.0118412
0.00311636
-0.0188151
0.000748055
0.00904039
0.00461487
0.000359969
0.012935
-0.00166244
-0.000801221
0.0116194
0.00357334
-0.000873727
0.015846
-0.00353698
-0.000863712
0.0122946
0.00159455
0.00033156
0.015114
-0.00562803
-8.48069e-05
0.0110392
-0.000648324
0.0012057
0.0128583
-0.00673782
0.000824388
0.00853054
-0.001963
0.00197027
0.00842448
-0.00645159
0.00181334
0.0052743
-0.00218115
0.00153637
-0.00535058
0.000595868
0.0113822
-0.0073521
-0.0139231
0.00234414
0.0118049
-0.00599607
0.00137041
-0.00504615
0.00125089
0.0125959
-0.00511059
-0.0130144
0.00046344
-0.00565919
-0.00119159
0.0137998
-0.00436235
-0.013378
-0.00174153
0.0296041
-0.00476103
-0.0189324
0.000646279
-0.0077312
0.00443638
0.0249297
-0.00660997
-0.0301164
0.00397655
-0.00671155
0.00489582
0.0122798
-0.00312222
-0.0185271
0.00261219
-0.0298493
-0.0162527
-0.0228717
-0.0185597
0.00836537
0.00484385
-0.0397393
0.00255573
0.00935025
-0.0231979
0.00283522
0.00629633
-0.00580905
-0.0277764
0.00401307
-0.0315346
0.00286525
0.00804441
-0.000170566
-0.0324129
-0.00636881
-0.000722721
-0.0134546
-0.00181839
0.00468886
-0.0185649
0.000228823
-0.0141233
0.000303692
0.00558655
-0.0156181
-0.00513284
0.0010219
-0.014352
0.000909844
-0.0167875
-0.00634602
0.00141138
0.00773199
-0.0200543
-0.0063283
0.0018455
-0.0181204
0.00349887
-0.0215081
-0.00642648
0.00241234
-0.0224222
-0.00362017
0.000485094
-0.0208849
-0.000464287
-0.00105252
-0.0192746
0.0022966
-0.000971645
-0.0187521
0.00375184
-0.00117467
-0.00504344
0.00436059
-0.0173204
-0.000768356
-0.00641665
-0.0165965
-0.000865309
-0.00744057
-0.0150263
-0.000110005
-0.00580456
-0.011588
0.00172238
-0.00390496
-0.00925961
0.00103804
-0.00688668
0.000591466
-0.00930386
0.00433802
-0.000336018
-0.00668318
-0.00133228
-0.000669591
-0.00471618
-0.000324415
0.00560561
-2.33495e-05
0.0151057
0.0097865
-0.0309412
0.0108176
-0.000606166
-0.00457204
0.00702661
0.00104099
0.000274791
-0.00431592
0.00468609
-0.0079172
0.00902673
-0.00122353
-0.00171575
0.00637906
-0.00136822
-0.00796533
-0.00117742
0.00530044
-0.00631331
-0.0019115
0.0056514
0.00189659
-0.0068305
-0.00234404
0.00559083
-0.00699036
0.0018145
-0.00253151
0.00547841
-0.00701795
0.00170906
-0.0025077
0.00535752
-0.00695542
0.00155602
-0.0023804
0.00526777
-0.00689094
0.00147782
-0.00229484
0.005148
-0.00670582
0.0014542
-0.00225422
0.00507569
-0.00656207
0.0014278
-0.00212632
0.00473385
-0.00619318
0.00131413
-0.00200771
0.00407656
-0.00493603
0.000725378
-0.00177666
0.00524972
-0.00773829
0.0022339
-0.0116661
0.00366721
-0.0260686
0.013679
-0.0220267
-0.0248502
0.0115419
-0.0275298
0.00507448
-0.0780626
0.0411725
-0.0178321
-0.087779
0.0282757
-0.0890953
0.0230112
-0.11709
0.0201912
0.0131555
-0.130532
0.0156917
0.00378595
-0.137725
0.0146048
-0.00310834
-0.140052
0.0146332
-0.0088897
-0.137485
0.0160353
-0.0154245
-0.129154
0.0196916
-0.0244014
-0.114188
0.0236973
-0.0366451
-0.045803
-0.0400532
0.0253204
-0.0660348
-0.00665314
0.00980878
-0.0283466
-0.0208289
-0.0176493
-0.00620601
-0.0161279
-0.00243821
-0.0131697
0.00861169
-0.00954708
-0.00433377
0.00493836
-0.0113727
0.000483387
0.00168948
-0.0064946
0.00140414
-0.00297412
0.00593992
0.0018348
-0.00648005
0.00981109
0.00197291
-0.00596781
0.0127542
0.0016792
-0.0047586
0.0201662
0.00359372
-0.0111858
0.0347312
0.0152596
-0.0301097
0.0300449
0.0322467
-0.0278493
0.0250628
0.0213515
-0.0165555
0.0227973
0.0155686
-0.0134518
0.0195814
0.0135115
-0.0104316
0.0157755
0.0120945
-0.00840592
0.00952369
-0.00350748
-0.0147138
0.0142941
0.000208192
-0.0183122
-0.00254208
0.0181204
-0.0207542
0.0196825
-0.00385611
-0.0215393
0.0213686
-0.00514945
-0.0159416
0.0218021
-0.00618724
-0.0553385
0.038212
0.0567418
-0.0239063
-0.0218154
-0.0201514
-0.0451828
0.0464741
-0.0191625
-0.00724433
0.0256633
-0.0212628
-0.0155514
-0.00758954
0.0196594
-0.0158609
-0.0100377
-0.00722832
0.0183107
-0.0167677
-0.00616833
0.0161955
-0.0152812
0.00586255
-0.00861964
0.00992958
-0.00944765
0.012582
-0.008696
-0.0113585
-0.00367067
-0.00282767
-0.00271804
-0.00215197
-0.00110581
-0.00140344
-0.00116389
-0.00199642
0.0021163
-0.00122884
0.00247305
-0.00253746
-0.00193645
0.0027804
-0.0017141
-0.00446485
0.000583329
0.00382275
0.00317783
0.00532909
-0.0155232
0.00294051
-0.000375697
-0.00779988
0.00509044
-0.00564214
-0.000783023
-0.00717818
0.000144707
0.0271114
-0.00881607
-0.0132507
-0.0059368
0.00671284
0.0139673
0.00638975
0.0377624
0.00673206
-0.0378513
0.00906707
-0.00160424
0.0302211
-0.018677
-0.00242248
0.000334468
-0.0067576
0.0079984
-0.00091716
0.00283572
-0.00321861
0.0159897
-0.00645061
0.00413942
0.0102213
0.00969954
-0.0106738
-0.0105864
-0.00679402
-0.0075096
0.00817669
-0.0101006
-0.0021723
-0.0066081
-0.0314228
-0.0189675
0.0413785
0.00642018
-0.000161057
-0.00250309
-0.0686849
0.0333295
-0.00785215
-0.021419
0.00652748
-0.0201321
0.00394665
0.00317333
-0.000597421
0.0032216
-0.00145133
-0.00260472
-0.000971437
-0.000352841
-0.00219906
0.00146771
0.00252915
0.00165817
-0.0290443
0.0151755
-0.0109637
-0.0109485
-0.0102575
0.0793641
0.0470236
0.0338333
-0.0158794
-0.0150244
-0.0141686
0.0226878