/*--------------------------------*- C++ -*----------------------------------*\
| =========                 |                                                 |
| \\      /  F ield         | OpenFOAM: The Open Source CFD Toolbox           |
|  \\    /   O peration     | Version:  v2012                                 |
|   \\  /    A nd           | Website:  www.openfoam.com                      |
|    \\/     M anipulation  |                                                 |
\*---------------------------------------------------------------------------*/
FoamFile
{
    version     2.0;
    format      ascii;
    class       volScalarField;
    location    "510";
    object      alphat;
}
// * * * * * * * * * * * * * * * * * * * * * * * * * * * * * * * * * * * * * //

dimensions      [1 -1 -1 0 0 0 0];


internalField   nonuniform List<scalar> 
18258
(
0.00485767
0.00211009
0.00172851
0.00149729
0.000991937
0.00162316
0.00225439
0.00268407
0.00281629
0.0027925
0.00289145
0.00487913
0.00684713
0.00846211
0.00888873
0.00887374
0.00805374
0.00768978
0.00834466
0.0102683
0.00864272
0.00553498
0.00663479
0.00766331
0.00832933
0.00737326
0.00595934
0.00552112
0.00499941
0.00416683
0.0034913
0.00237216
0.00175605
0.00162938
0.00147548
0.00168136
0.00183069
0.00195113
0.00199564
0.00202724
0.0020133
0.00200178
0.0019477
0.00191534
0.00186013
0.00154154
0.00187905
0.00189483
0.00207456
0.0028743
0.0030922
0.00260311
0.00288286
0.00257226
0.00169558
0.0019409
0.00210693
0.00215241
0.00212473
0.00203652
0.00200678
0.00198159
0.00194967
0.00191178
0.00188869
0.00190761
0.00192739
0.00190647
0.0018128
0.00173691
0.00161409
0.00149097
0.00139969
0.00132898
0.00127567
0.00121652
0.00115004
0.00101019
0.000936243
0.00123964
0.00155619
0.00166268
0.00235653
0.00287303
0.00289243
0.00216498
0.00154286
0.00160116
0.00178001
0.00179792
0.00152371
0.00181163
0.00205214
0.00212706
0.00221675
0.00247765
0.00282133
0.00275086
0.00244993
0.00225749
0.00221335
0.00253608
0.0024111
0.00312733
0.00315006
0.00274783
0.002534
0.00285138
0.00367742
0.00395562
0.00307386
0.00288723
0.00283012
0.00279391
0.0025269
0.00261538
0.00237523
0.00214021
0.00233165
0.00281809
0.00267291
0.00291942
0.00302538
0.00283838
0.00328899
0.00379275
0.00373778
0.00299109
0.00243849
0.00227306
0.00229037
0.00140079
0.00151268
0.00163006
0.00167
0.00169802
0.00172182
0.00183615
0.00183202
0.00180515
0.00180116
0.00183277
0.00101004
0.0010943
0.00112149
0.00112934
0.00107261
0.00106154
0.0010417
0.00102559
0.000967044
0.000925307
0.00110717
0.00124321
0.00135407
0.00148367
0.00167708
0.00191375
0.00216252
0.00241395
0.00258033
0.00262782
0.00267572
0.00257889
0.00248129
0.00256981
0.00258466
0.00256786
0.00253331
0.00248968
0.0024308
0.00232291
0.00244782
0.00244111
0.00229333
0.00196509
0.00200908
0.00200542
0.00205756
0.00204694
0.00206759
0.00203835
0.00200416
0.00190789
0.00177379
0.0014773
0.00143741
0.00145627
0.00187093
0.00227203
0.00351039
0.00428356
0.00497532
0.00532576
0.00570255
0.00461139
0.00513104
0.00395352
0.00354997
0.00451275
0.00590533
0.00336867
0.00183801
0.00348527
0.00309016
0.00223994
0.00199323
0.00205328
0.00205806
0.0023661
0.00272756
0.00302627
0.00317148
0.00330015
0.00340283
0.00351601
0.00365945
0.00369843
0.00357304
0.00302417
0.00364461
0.00295764
0.00345076
0.00311352
0.00209737
0.0022466
0.00237634
0.00217181
0.00211103
0.00202272
0.00181711
0.00222981
0.00289701
0.00336309
0.0038445
0.00512385
0.00474053
0.00454814
0.00352213
0.00340576
0.00176887
0.00252445
0.00261158
0.00293495
0.00195168
0.00177957
0.0016877
0.00223817
0.00259395
0.00306249
0.00339722
0.00403648
0.00312659
0.00356603
0.00322341
0.00224347
0.00216234
0.00309925
0.00334043
0.00274962
0.00246004
0.00308452
0.00291797
0.00206938
0.00166238
0.00255299
0.00264525
0.00189519
0.00470618
0.00500508
0.00480034
0.00585664
0.00733533
0.00835596
0.00777437
0.00689346
0.00770704
0.00612471
0.00592786
0.00631834
0.00529924
0.00370382
0.00379872
0.00392906
0.00403493
0.00433171
0.00460161
0.00493152
0.00524622
0.004769
0.00395981
0.00299661
0.00206159
0.00203366
0.0020235
0.00181703
0.00269282
0.0040739
0.0040463
0.00229902
0.00134008
0.00151561
0.00171138
0.0016946
0.00122962
0.000925535
0.00159447
0.00182329
0.00185285
0.00180694
0.00170612
0.00178289
0.00286323
0.00441105
0.00484692
0.00502017
0.0051841
0.00529989
0.00536429
0.00538464
0.00539584
0.00540954
0.00542148
0.00543977
0.00542254
0.00530666
0.00466726
0.00293417
0.00171519
0.00159338
0.00175853
0.00188993
0.00200464
0.00170573
0.0010429
0.00166581
0.00213296
0.00245148
0.00247228
0.00230723
0.00223811
0.00352898
0.004692
0.00553031
0.00569983
0.00577506
0.00571122
0.00570246
0.00557739
0.00553785
0.0048554
0.00347608
0.00380089
0.0040813
0.00412864
0.0042244
0.00436801
0.00426663
0.00403007
0.00589221
0.00679789
0.00688478
0.00703119
0.00694775
0.00682735
0.00651669
0.0061619
0.00518721
0.00388988
0.00245425
0.00250534
0.00266695
0.00264131
0.00229918
0.00242275
0.00262937
0.00265571
0.00274262
0.0030757
0.00349349
0.00333243
0.00286759
0.00243538
0.00226768
0.00222028
0.00213043
0.00159578
0.00161946
0.00157404
0.00159989
0.00214918
0.00255797
0.00294992
0.00418418
0.00373265
0.00303571
0.00481297
0.0049311
0.0052967
0.00585057
0.00599566
0.00664192
0.00462606
0.00416975
0.00428341
0.0034989
0.0032387
0.00327327
0.00328561
0.00306222
0.00335161
0.00332214
0.00320214
0.0035354
0.00389581
0.00513735
0.00622544
0.00656901
0.00676776
0.00684909
0.00682314
0.00668945
0.00673081
0.00591115
0.00590354
0.00565422
0.00549162
0.00543372
0.0051637
0.00591199
0.00613767
0.00621307
0.00636815
0.00660981
0.00643155
0.00623142
0.00607924
0.00596895
0.00585367
0.00591643
0.00602649
0.00614396
0.00630903
0.00652974
0.00656693
0.00633818
0.00616539
0.00604722
0.00593631
0.00594121
0.00604013
0.00615557
0.00631935
0.00652857
0.00641271
0.00625012
0.00610536
0.00598665
0.00588223
0.0056767
0.00581379
0.00596469
0.00608912
0.00616992
0.00533069
0.00569784
0.00559965
0.00506963
0.00474488
0.00360337
0.00389963
0.00411219
0.00447895
0.0049718
0.00506864
0.00425334
0.00364498
0.00355187
0.00352319
0.00360613
0.003636
0.00365362
0.00412841
0.0062194
0.00626137
0.00627891
0.00628114
0.00537135
0.00521964
0.00486332
0.00888597
0.00827283
0.00716914
0.00590984
0.00316848
0.00271606
0.00321756
0.00391262
0.00437419
0.0048269
0.00320472
0.00198474
0.00231283
0.00239773
0.00233871
0.00216164
0.00180091
0.00166235
0.00150871
0.00162367
0.00287557
0.00458971
0.00517058
0.00522623
0.00517517
0.00507525
0.00495361
0.00478396
0.00472069
0.00594977
0.00805167
0.00908929
0.00905308
0.00777797
0.00633834
0.00357118
0.00183481
0.00134224
0.00146018
0.00160312
0.00188463
0.00168181
0.00140569
0.00154081
0.00146222
0.00296364
0.00511851
0.00652288
0.00774677
0.00762296
0.00662604
0.00541867
0.00513582
0.00525551
0.00533547
0.0054037
0.00547376
0.00552158
0.00549004
0.00499622
0.00308599
0.00184219
0.00163666
0.00175972
0.00206242
0.00219168
0.00221435
0.00218383
0.00189343
0.003132
0.00497317
0.00316291
0.00172549
0.00186411
0.00185028
0.0032639
0.0032592
0.00318943
0.00496248
0.00524775
0.00523504
0.00491852
0.00469488
0.00277972
0.00315517
0.00316594
0.00318274
0.00323492
0.00163431
0.00178147
0.00183697
0.00197773
0.00172779
0.00219555
0.000568189
0.000787704
0.000915047
0.000995131
0.00107225
0.00105193
0.00201266
0.00204227
0.00194859
0.00189731
0.00240789
0.00258384
0.00264089
0.00243243
0.00224448
0.00238904
0.00239428
0.00225648
0.00213743
0.00221609
0.00221768
0.00212538
0.0018078
0.00169401
0.0018596
0.00183955
0.00182488
0.00327661
0.00327086
0.00309586
0.00508611
0.00500452
0.00560565
0.00556926
0.0055624
0.00553921
0.0055993
0.00563087
0.00565464
0.00568224
0.00567145
0.00561609
0.00779231
0.00552606
0.00482171
0.00278843
0.00268606
0.00189712
0.00166271
0.00195782
0.00209393
0.00227008
0.00221874
0.00233892
0.00233607
0.00247877
0.00230063
0.00204275
0.00312849
0.00334207
0.0032642
0.00332873
0.00325055
0.00323142
0.00320782
0.00316239
0.00310755
0.00185048
0.00181525
0.00212563
0.00223127
0.0023975
0.00241911
0.00247159
0.0023439
0.00206129
0.00199533
0.00229808
0.00226711
0.00231134
0.00217922
0.00217008
0.00193313
0.00198204
0.00399341
0.00735705
0.00379504
0.00421464
0.00381983
0.00434324
0.00380542
0.00328288
0.00336014
0.00295994
0.0030876
0.00323854
0.00329705
0.00346515
0.00408458
0.00393245
0.00345184
0.00335174
0.00328583
0.0030984
0.00278904
0.00292138
0.00294748
0.00301065
0.00334606
0.0038375
0.00430115
0.00522439
0.00506981
0.00444262
0.00406155
0.00425855
0.00433349
0.00545306
0.00509405
0.0050642
0.00534243
0.00528963
0.00501946
0.00475601
0.00459071
0.0039428
0.00400754
0.00458434
0.0044363
0.00457197
0.00449213
0.0046705
0.00475544
0.00456402
0.00424214
0.00446078
0.00445201
0.00494322
0.004807
0.00445993
0.00407907
0.00436168
0.00430957
0.00497705
0.00468433
0.00438126
0.00403428
0.00386509
0.00438602
0.0043058
0.00488084
0.00502292
0.00502503
0.00438185
0.00427985
0.00508796
0.004894
0.00472864
0.00492534
0.00408002
0.00419616
0.00516736
0.00527528
0.00500547
0.00418019
0.00424389
0.00363898
0.0042789
0.0053241
0.00502846
0.00412221
0.00342125
0.00478519
0.00503408
0.00532323
0.00503164
0.00547783
0.00589981
0.00481235
0.00523462
0.0068348
0.00522841
0.00606632
0.00619995
0.00623567
0.00623805
0.00626125
0.00629149
0.00662688
0.00644342
0.00410126
0.00490267
0.0047659
0.00398918
0.00339498
0.00373869
0.00402648
0.00408462
0.00418817
0.00434731
0.00427193
0.00412746
0.00604546
0.00690017
0.00704767
0.0071868
0.00706952
0.00689662
0.00649616
0.00600787
0.00499558
0.00372687
0.00232796
0.00237318
0.00252897
0.00250492
0.00217283
0.00163879
0.00107731
0.00159838
0.00165388
0.00155921
0.00142325
0.00125994
0.00130952
0.0023756
0.00438602
0.00623401
0.00691853
0.00747287
0.00805608
0.0086063
0.00902255
0.00932562
0.00953064
0.00965578
0.00968043
0.0094918
0.00861613
0.00822717
0.00774657
0.00735271
0.00681411
0.00640595
0.00724403
0.00796155
0.00840533
0.00890327
0.00913446
0.0090385
0.0078514
0.0076045
0.00874951
0.0107857
0.00916783
0.0115252
0.0135501
0.0105481
0.00948427
0.00948091
0.0106026
0.0108088
0.0104231
0.00982078
0.00912864
0.00825385
0.00868888
0.00908659
0.00947286
0.00982913
0.0107943
0.0109612
0.0108791
0.0107099
0.010483
0.0101591
0.00965383
0.00895396
0.00814836
0.00735099
0.00642562
0.00446875
0.00222087
0.00249516
0.00245889
0.00251508
0.00250567
0.00119303
0.00131792
0.00133464
0.00134298
0.00126622
0.00144222
0.00208506
0.00338031
0.00242981
0.00200406
0.00137964
0.00161485
0.0026951
0.00456536
0.00515686
0.00526268
0.00536162
0.00695818
0.00793058
0.00842864
0.00881482
0.00908955
0.00897628
0.00868283
0.00816336
0.00749814
0.00724811
0.00683639
0.00647898
0.00628458
0.00608962
0.0057087
0.00446474
0.00431902
0.0045018
0.00444282
0.00425145
0.00454468
0.00471004
0.00470695
0.00475997
0.00480622
0.00494858
0.00511597
0.00526162
0.00533806
0.00536642
0.00537529
0.00538617
0.00539466
0.00541084
0.00539218
0.00527379
0.00463052
0.00289531
0.00168997
0.00156204
0.00171258
0.00181094
0.0018529
0.00164541
0.0010593
0.00164604
0.00213067
0.00218558
0.00239856
0.00247486
0.00262414
0.00292213
0.00337622
0.00348374
0.00309127
0.00292772
0.00286561
0.00279308
0.00239067
0.0029804
0.00328483
0.00327819
0.00324685
0.00350938
0.00431874
0.00414866
0.00365841
0.003618
0.00358174
0.00324202
0.00319382
0.00348586
0.00352408
0.00365508
0.00428562
0.00513925
0.00476822
0.00434319
0.00416484
0.00384658
0.00338932
0.00306406
0.00376051
0.00308273
0.00163661
0.00139472
0.00138208
0.00138905
0.00134285
0.00159253
0.00167571
0.00169792
0.00157754
0.00174961
0.00194633
0.00188198
0.0021283
0.00210146
0.00188339
0.00186642
0.00201435
0.00212189
0.00217718
0.00223951
0.00366723
0.00379004
0.00293315
0.00424094
0.00488288
0.00483579
0.00513036
0.00422473
0.00379055
0.00449863
0.00519364
0.00594983
0.00470599
0.0044535
0.00455358
0.00209402
0.00110197
0.00155437
0.00193013
0.00215308
0.00208995
0.00197476
0.00167018
0.0029623
0.0030425
0.00482508
0.00541342
0.00548534
0.00545311
0.00550408
0.00600555
0.00689107
0.00787082
0.00816031
0.00804592
0.00768503
0.00701438
0.00633735
0.00629934
0.00608042
0.0059223
0.00587522
0.00509506
0.00452044
0.00484742
0.00476216
0.0049237
0.00499939
0.00505447
0.00511044
0.00520339
0.00531545
0.00541747
0.00548679
0.00553275
0.00557118
0.00561028
0.00564942
0.0056917
0.00571404
0.00565894
0.00511355
0.00306664
0.00182816
0.00166747
0.00177916
0.00209106
0.00220174
0.0023663
0.00210076
0.00110643
0.00130052
0.00226051
0.00250731
0.00232009
0.00217141
0.0021325
0.0017865
0.00323688
0.00319496
0.00501664
0.00564329
0.00572334
0.0057085
0.00566535
0.00561625
0.00556812
0.00552848
0.00549662
0.00546266
0.00541452
0.00535554
0.00530153
0.005247
0.00515333
0.00502064
0.00485875
0.00504859
0.00523441
0.00545599
0.00568886
0.00580422
0.00570148
0.00555024
0.00548657
0.00552339
0.00557112
0.00561993
0.00566376
0.0056852
0.00562078
0.00529618
0.00496808
0.00314596
0.00318703
0.00156791
0.00174154
0.00200942
0.00207533
0.00225354
0.00224238
0.00176261
0.00137425
0.00155079
0.00144947
0.00258942
0.00284772
0.00315823
0.00312717
0.00169812
0.00174193
0.00181036
0.0020417
0.00189862
0.00183496
0.00452711
0.00433773
0.00453992
0.00556868
0.00479705
0.00331171
0.00362664
0.00504721
0.0053238
0.00321756
0.00241531
0.00267631
0.0033891
0.00499118
0.00505387
0.00480221
0.00477421
0.00348344
0.00428364
0.00515769
0.00501702
0.00390805
0.00269208
0.00200753
0.000976845
0.00185799
0.00158832
0.00389224
0.00430747
0.00425772
0.00465564
0.00494631
0.00499679
0.00485532
0.0043062
0.00439178
0.00443512
0.00505339
0.00507585
0.00429725
0.00362632
0.00294614
0.00297253
0.00303005
0.00335739
0.00420368
0.00396067
0.00347161
0.00336645
0.00329393
0.0030983
0.00279603
0.0024524
0.00246942
0.00229852
0.00222448
0.00350653
0.00466753
0.00550408
0.00566245
0.00571996
0.00563251
0.00559309
0.00543365
0.00535139
0.00464931
0.00593833
0.00627693
0.00605647
0.00610047
0.00613774
0.00618378
0.00618397
0.00606712
0.00521358
0.00311352
0.00203373
0.00229551
0.00247759
0.00232647
0.00231334
0.00246566
0.00233975
0.00205526
0.00332992
0.00325484
0.00520437
0.00589402
0.00602108
0.00602934
0.00600596
0.00598667
0.00599478
0.00630964
0.00616342
0.00623853
0.00656125
0.00657409
0.00665502
0.00624912
0.00617051
0.0061207
0.00608763
0.00603318
0.005886
0.00520964
0.0050509
0.00573479
0.0059104
0.00598783
0.00604137
0.00610564
0.00619056
0.00643601
0.00661791
0.00668557
0.00642387
0.00633085
0.00618628
0.00597791
0.0059283
0.00591765
0.00591201
0.00588233
0.00572873
0.00504233
0.00324197
0.0033218
0.00197606
0.00198888
0.00229067
0.00240584
0.00236284
0.00218805
0.00213329
0.00367136
0.00417893
0.00444459
0.00478776
0.00457339
0.00454662
0.00519591
0.00502874
0.00448071
0.00466283
0.00418363
0.00398665
0.00385553
0.00387743
0.00203962
0.00220094
0.00229582
0.00225782
0.00215906
0.00192583
0.00176609
0.00322326
0.00319964
0.00315791
0.0018778
0.00183656
0.00216365
0.00210113
0.00192205
0.00163844
0.00179622
0.00277372
0.00310228
0.00481098
0.00498354
0.00533466
0.00570594
0.00584758
0.00588686
0.00591079
0.00593736
0.0059931
0.00605827
0.00607494
0.0060693
0.00611316
0.00610338
0.0061039
0.00607066
0.00603305
0.00598974
0.00594383
0.00586855
0.00571306
0.00533939
0.00497251
0.00560688
0.00565804
0.00576287
0.00587148
0.00591789
0.00592573
0.00590537
0.00586407
0.00581528
0.00575815
0.00575741
0.00592588
0.00596594
0.00599565
0.00597849
0.00595844
0.00595155
0.00592485
0.00588146
0.00577139
0.00566102
0.00561376
0.00551946
0.00566765
0.00573384
0.00574472
0.00580157
0.00589203
0.00591797
0.00591696
0.00587283
0.00583531
0.00578753
0.00571055
0.00561065
0.00527283
0.00534034
0.00542972
0.00554632
0.00565903
0.00575019
0.00580136
0.00580466
0.00575136
0.00571586
0.0057176
0.00566958
0.00569533
0.00572106
0.00569189
0.00568859
0.00569334
0.00562949
0.00551239
0.00534914
0.0051761
0.00503217
0.00495727
0.00483693
0.00523019
0.00537931
0.00551268
0.00563142
0.00573859
0.00584573
0.00587883
0.00586674
0.00579991
0.00576124
0.00575834
0.00570191
0.00569987
0.00575451
0.00575803
0.00579037
0.00584778
0.0058317
0.0057529
0.0055516
0.00535545
0.00518482
0.00502193
0.00484822
0.00479189
0.00487016
0.00480679
0.00487677
0.00504773
0.005261
0.00544499
0.00556188
0.0055986
0.00563318
0.00568438
0.00567879
0.00564857
0.00563191
0.00556279
0.00550269
0.00542893
0.00526735
0.00506067
0.00487763
0.00481771
0.00491484
0.00501288
0.00492252
0.00457998
0.00476223
0.00493481
0.0051071
0.00535048
0.00563048
0.00575345
0.00579711
0.00576864
0.00574579
0.00574165
0.00568988
0.00567241
0.00572006
0.00572497
0.005748
0.00578442
0.00574789
0.00564651
0.00530334
0.00489449
0.00469815
0.00458254
0.00442641
0.0049475
0.00505013
0.00492511
0.00484083
0.00497198
0.00512559
0.00528525
0.00539176
0.0054343
0.00549347
0.00557104
0.00560819
0.00555312
0.00548891
0.00540953
0.00536812
0.00536595
0.00533768
0.00523459
0.00511416
0.00497651
0.00514489
0.00524283
0.00514911
0.00466862
0.00474573
0.00486075
0.00492862
0.00531173
0.0056461
0.00572554
0.00572871
0.00569334
0.00566974
0.00566951
0.00563926
0.00558395
0.00557443
0.00557022
0.0056364
0.00572271
0.00577121
0.00579517
0.0055454
0.00508709
0.00500909
0.00480179
0.0047041
0.00521857
0.00527722
0.00515687
0.00504448
0.00528679
0.00539028
0.00541961
0.00539911
0.00534404
0.00530753
0.00537579
0.00548299
0.00540151
0.00505121
0.00473953
0.00489913
0.00493742
0.00492441
0.00485735
0.00474589
0.00450373
0.00502869
0.00553956
0.00558207
0.00504234
0.00505029
0.00488746
0.00454971
0.00499488
0.00523099
0.00528303
0.00526196
0.00517989
0.00498214
0.00526209
0.00550874
0.00546133
0.00494353
0.00320876
0.00325286
0.00327628
0.0032793
0.00323609
0.00322394
0.00317681
0.00315234
0.00307919
0.00300457
0.00293379
0.0031287
0.00329683
0.00352241
0.00354098
0.00363417
0.00347768
0.0032926
0.00307464
0.00239459
0.00303832
0.00362391
0.0038517
0.00414328
0.00420333
0.00485126
0.00510551
0.00524363
0.00514365
0.00412801
0.00350219
0.00279886
0.00182022
0.00113405
0.00133103
0.00138423
0.00145356
0.0017761
0.00328768
0.00167307
0.00232372
0.00181628
0.00313373
0.00164966
0.00103108
0.000684722
0.000875096
0.00104158
0.00105193
0.00100648
0.0008389
0.000658414
0.000673032
0.00062657
0.000665659
0.000598144
0.000685191
0.00064015
0.000895323
0.00134906
0.0015285
0.00156178
0.00126199
0.00142241
0.00118826
0.00136988
0.00122287
0.00133249
0.00127789
0.00156291
0.00171276
0.00163994
0.00164469
0.00143932
0.00100686
0.00116701
0.000916978
0.00110089
0.000842627
0.00108847
0.000933425
0.00121296
0.00125057
0.00124717
0.00120106
0.000917821
0.00108899
0.000857298
0.00105488
0.000863781
0.00092279
0.000768932
0.0011163
0.00113722
0.00104677
0.00111802
0.00125825
0.0013522
0.00149025
0.00140651
0.00159993
0.00154085
0.00155734
0.00147395
0.00143189
0.00139881
0.00140126
0.00137795
0.00138529
0.00142974
0.00143176
0.00143723
0.00148251
0.00146062
0.00142554
0.00140457
0.00124788
0.00100683
0.00175368
0.00180864
0.00183541
0.00183485
0.00179343
0.0017738
0.00171375
0.00169765
0.0016453
0.00161406
0.00154338
0.00148464
0.00141806
0.00159338
0.000891302
0.00101179
0.00106797
0.00109926
0.00112123
0.00113113
0.00113931
0.00113282
0.00111874
0.00109088
0.0010812
0.00105098
0.0013447
0.00152934
0.0015984
0.00161688
0.00151583
0.00144358
0.0031536
0.00381576
0.00580756
0.00593532
0.00445338
0.00444112
0.00153888
0.00162269
0.00110978
0.00155964
0.00160829
0.00159217
0.00150446
0.00108555
0.00162978
0.00113565
0.00153464
0.00115245
0.00143327
0.00118388
0.00169002
0.00215488
0.00208099
0.00188517
0.00129377
0.00107794
0.00108207
0.000924196
0.00101176
0.000826566
0.00100922
0.000849331
0.00125916
0.00178618
0.00197306
0.00201214
0.00158623
0.00218794
0.00164477
0.00238062
0.00188899
0.00232892
0.00186791
0.00216209
0.00267504
0.00268693
0.00262327
0.00211454
0.00169562
0.00190282
0.00168635
0.00194167
0.00280673
0.00183989
0.00278964
0.00115304
0.00157168
0.00162002
0.0015979
0.00150683
0.00101564
0.00258746
0.0013686
0.00244157
0.00158186
0.00254415
0.00184596
0.00245069
0.00293411
0.00306983
0.00306048
0.00249639
0.00225043
0.00232916
0.00186007
0.0022322
0.00165911
0.00240483
0.00135697
0.00176146
0.00194903
0.00205114
0.00205974
0.00169351
0.0033431
0.00209853
0.0031673
0.00220161
0.00282046
0.00226007
0.00247282
0.00291987
0.00290183
0.00287768
0.00244037
0.00197479
0.00260652
0.00186007
0.0553416
0.127937
0.0508827
0.129286
0.0585583
0.0831039
0.0818874
0.0820592
0.0823563
0.0618127
0.134869
0.159406
0.166259
0.168281
0.167024
0.26992
0.220085
0.330708
0.214394
0.12612
0.054653
0.0753887
0.194641
0.321477
0.482354
0.612025
0.417039
0.431674
0.275461
0.271588
0.255637
0.206688
0.126469
0.0633854
0.0109277
0.0119792
0.0170964
0.022732
0.0179281
0.0110014
0.00217307
0.00224288
0.00229408
0.00232675
0.00232065
0.00227441
0.0023148
0.00219152
0.00206638
0.00231461
0.0025232
0.00266286
0.00314671
0.00348161
0.00313873
0.00344214
0.00364885
0.00381681
0.00395516
0.00416127
0.00439353
0.00459827
0.00460929
0.00422321
0.00359904
0.0029279
0.00246163
0.00233238
0.00219038
0.00193159
0.00176707
0.00165498
0.00160053
0.00157783
0.00162132
0.00177176
0.00190213
0.00194778
0.00190927
0.00187429
0.00184377
0.0016418
0.00191958
0.00263314
0.00265399
0.00454691
0.00523939
0.00534834
0.00535579
0.00474792
0.00303294
0.00303954
0.00305507
0.00311312
0.00312526
0.003133
0.00312972
0.00311863
0.00310047
0.00306669
0.0030498
0.00300051
0.0029589
0.00285475
0.00285937
0.00289542
0.00292437
0.00287628
0.00288781
0.00282796
0.0036773
0.0049168
0.00555043
0.00580163
0.00601766
0.00584074
0.00809109
0.00691769
0.00485877
0.00478373
0.00472466
0.00560279
0.005642
0.00510085
0.00512185
0.00466771
0.0029142
0.00290675
0.00290876
0.00311192
0.00317345
0.0032814
0.00331138
0.00333751
0.00335332
0.00334656
0.00334438
0.00331422
0.00329185
0.00321691
0.00319202
0.00318126
0.00175383
0.0019143
0.00198616
0.00199958
0.0020289
0.00201664
0.00200482
0.00198064
0.00196508
0.00193195
0.00189383
0.00183712
0.00172693
0.00157295
0.00173091
0.00293699
0.0029358
0.00478407
0.00540561
0.00544555
0.00605392
0.00574723
0.00544276
0.00583957
0.00526869
0.00522697
0.00472769
0.0029354
0.00297562
0.00176614
0.00175132
0.00204798
0.00199194
0.00212879
0.0021874
0.00219416
0.00222468
0.00225333
0.00228932
0.00234756
0.00236478
0.00232744
0.00232021
0.00218511
0.00188791
0.00191016
0.00225242
0.00236311
0.00219441
0.00215642
0.00213973
0.00208703
0.00204714
0.00200912
0.00203511
0.00219107
0.00218801
0.00214874
0.00204428
0.00199002
0.00172445
0.00166495
0.00291147
0.00295865
0.00489957
0.00500378
0.00496064
0.00571716
0.00638376
0.00726308
0.0061999
0.00504527
0.00528142
0.00604008
0.00449722
0.00376943
0.00224411
0.0016764
0.00210401
0.00192446
0.00200738
0.00207972
0.00184715
0.00198533
0.00183587
0.00166843
0.00165923
0.00165739
0.0016983
0.00171561
0.00174683
0.00175111
0.00179384
0.00178985
0.001795
0.00181691
0.00182625
0.00201778
0.0021928
0.00184567
0.00156478
0.0015247
0.00143975
0.00137071
0.00140406
0.00137005
0.00136158
0.00133647
0.00131369
0.00125352
0.00130612
0.00138585
0.0016212
0.00155152
0.00125408
0.00112059
0.000765872
0.000781403
0.000786813
0.000811002
0.00081993
0.000830879
0.000834981
0.000848628
0.00085131
0.000855654
0.000855339
0.000876302
0.000873337
0.000863331
0.000856852
0.000860993
0.000864957
0.000864358
0.00126576
0.00140946
0.00153963
0.00182869
0.00215197
0.00185249
0.00157014
0.00135327
0.000869861
0.000882905
0.000899035
0.000907338
0.000926701
0.000944285
0.000963943
0.000976306
0.000985607
0.000995286
0.00100552
0.00100955
0.00100704
0.000987506
0.000976015
0.00100072
0.00109987
0.0011575
0.00123149
0.00125941
0.001283
0.00129459
0.00128867
0.00130232
0.00128722
0.0012852
0.00126353
0.00125437
0.00124569
0.00123465
0.00122084
0.00118647
0.00117508
0.00123618
0.00209451
0.00274044
0.0031561
0.00347666
0.00322109
0.00262017
0.00274615
0.00483033
0.00457919
0.00269658
0.0025212
0.00233162
0.00204408
0.00176916
0.00213376
0.002437
0.00266653
0.0028677
0.00305161
0.00317635
0.00333644
0.00354542
0.00391512
0.00396157
0.00361348
0.00292838
0.00247948
0.00231638
0.0022382
0.00210156
0.00195217
0.00200095
0.00201528
0.00195517
0.00188049
0.00185914
0.00188981
0.00192884
0.00190569
0.00190498
0.00170188
0.00170127
0.002907
0.00296203
0.0045562
0.00480055
0.0048469
0.00311645
0.00307358
0.0017952
0.00166716
0.00181873
0.00188797
0.00189181
0.00189936
0.00188958
0.00185643
0.00183222
0.00180406
0.00178116
0.00176097
0.00172606
0.00165953
0.0015327
0.00167014
0.00187303
0.00195613
0.00197777
0.00198813
0.00201958
0.00207104
0.00211234
0.00220819
0.00221814
0.00221739
0.0022253
0.00207996
0.00214517
0.00181547
0.00181297
0.00314247
0.00313408
0.00180039
0.00212606
0.00214034
0.00211579
0.00227768
0.0020842
0.00201799
0.00200704
0.00192185
0.00187658
0.00181628
0.00178018
0.00181493
0.00193053
0.00186902
0.00165626
0.00159634
0.00179086
0.00172311
0.00142963
0.00122146
0.0011879
0.00113715
0.0011064
0.00115971
0.00120127
0.00122498
0.0012551
0.00126404
0.00131945
0.00128383
0.00134735
0.00142885
0.00149381
0.00177201
0.00192017
0.00173468
0.0017013
0.00168019
0.00167823
0.00168349
0.00161396
0.00160935
0.00157346
0.00155579
0.00150891
0.0014877
0.00146072
0.00146548
0.00148087
0.00162797
0.00419568
0.00534883
0.00556928
0.00950371
0.00384293
0.00392374
0.00768388
0.00318454
0.00478531
0.00512636
0.00536177
0.00559997
0.00512437
0.00650295
0.00454561
0.00506426
0.00527855
0.00462052
0.00173109
0.00197309
0.00227397
0.00203047
0.00179355
0.00122254
0.00131818
0.00136129
0.00139632
0.00141894
0.00144421
0.00147122
0.00149663
0.00151443
0.00151469
0.00146865
0.00141903
0.00130498
0.001267
0.00131607
0.00136681
0.00120046
0.0011303
0.00114369
0.00116257
0.00117317
0.00117548
0.00118705
0.00119019
0.00120845
0.00119875
0.00120796
0.00118734
0.00119788
0.00118218
0.0011418
0.00108519
0.000988888
0.000965312
0.00139038
0.00148053
0.00155528
0.00176473
0.0020375
0.00217413
0.00194852
0.00179666
0.00172458
0.00191309
0.00191375
0.00347714
0.00667693
0.00298898
0.00334993
0.00976997
0.00388167
0.00301776
0.00306358
0.00309587
0.00310016
0.00180162
0.00213398
0.00206927
0.0020775
0.00176196
0.00147928
0.00132669
0.00118617
0.000804291
0.000801619
0.000807672
0.00082001
0.000823843
0.000788522
0.000788426
0.000783914
0.000782146
0.000765534
0.000760898
0.000747401
0.000739204
0.000719778
0.000709235
0.000690731
0.000687492
0.000717507
0.000798117
0.000964785
0.00107352
0.00122038
0.00124249
0.00139867
0.00346446
0.00401958
0.00553825
0.00549445
0.00866626
0.00541501
0.00409023
0.00369551
0.00540737
0.00558585
0.00517973
0.00701781
0.00485679
0.00321534
0.0048386
0.00402661
0.00476082
0.00467097
0.00495792
0.0078837
0.00831447
0.0023397
0.00208569
0.00219409
0.0024892
0.00295534
0.00272246
0.00310075
0.00310062
0.00239542
0.00152059
0.00484547
0.00583668
0.00468995
0.00563749
0.00871557
0.00349913
0.00341269
0.00301979
0.00252057
0.0022908
0.0022603
0.00252036
0.00301575
0.00755929
0.00808174
0.00745528
0.00742536
0.00673303
0.0073956
0.00923971
0.00920116
0.00813328
0.00761056
0.00788146
0.00487966
0.00303112
0.00353241
0.00391564
0.00522519
0.00538704
0.0113792
0.00385976
0.00426334
0.00433028
0.00579399
0.00560823
0.00991856
0.00420011
0.0045299
0.00596985
0.00798234
0.0147266
0.00536896
0.00565693
0.00814015
0.00826465
0.00755241
0.00545331
0.00494012
0.00538442
0.00405616
0.00396507
0.00338388
0.00499625
0.00672826
0.00531949
0.00516542
0.00439421
0.00391027
0.00400609
0.0041577
0.003453
0.00340495
0.00392989
0.00291539
0.00282133
0.00298576
0.000828884
0.000424811
0.000434279
0.000445551
0.000454717
0.000464153
0.000471064
0.00047925
0.000482962
0.000483359
0.000484582
0.000512515
0.00050779
0.000491742
0.000446514
0.00050954
0.000808617
0.000809185
0.000508993
0.000448724
0.000805144
0.00128304
0.00151275
0.00178966
0.0018119
0.00156335
0.00135534
0.000834142
0.000821044
0.000497653
0.000581205
0.000631158
0.00055979
0.000624729
0.000579019
0.000613309
0.000619615
0.000573222
0.000570042
0.000572245
0.000567857
0.000557761
0.00054542
0.00053039
0.000518582
0.000512171
0.000507245
0.000496389
0.000412284
0.000384384
0.000462581
0.000738123
0.000737101
0.000690796
0.000651039
0.000617017
0.000601423
0.000596975
0.000593637
0.000603986
0.00062353
0.000629047
0.000634562
0.000683816
0.000662573
0.000707704
0.000664177
0.000709608
0.000666067
0.000612733
0.000514486
0.000530832
0.00085638
0.0008655
0.00139856
0.00160006
0.0018144
0.00182378
0.00203571
0.0021438
0.0018153
0.00188465
0.00216008
0.0020119
0.00179354
0.00180052
0.00161973
0.00162119
0.00143597
0.000897321
0.000885112
0.000555862
0.000539812
0.000643669
0.000632388
0.000703308
0.000752665
0.00075288
0.000750434
0.000731428
0.000724641
0.000637204
0.00062471
0.000625531
0.000606607
0.000602641
0.000628618
0.000686435
0.000805972
0.000974955
0.00106151
0.00109841
0.00105323
0.000942969
0.000696151
0.000628865
0.00109019
0.00113124
0.00202735
0.00480079
0.00223823
0.00427475
0.00308607
0.000767265
0.000855924
0.00109147
0.00122303
0.00132055
0.0013765
0.00125825
0.00104999
0.000790622
0.000652848
0.000974682
0.000842776
0.000951738
0.000831199
0.0010758
0.00124387
0.00120333
0.0012124
0.00102464
0.000834695
0.000883942
0.000793616
0.000874736
0.000732293
0.000881045
0.000795526
0.000999699
0.00100907
0.000988071
0.000936561
0.000713114
0.00074819
0.000627571
0.000680776
0.000611171
0.000631674
0.000598542
0.000698029
0.000804338
0.000771929
0.000768895
0.000631747
0.000495004
0.000546702
0.000472704
0.000534997
0.000415772
0.000503667
0.000422396
0.000546811
0.000563749
0.000566893
0.000563484
0.00045865
0.000539175
0.000660376
0.000693182
0.000698779
0.000665652
0.000513084
0.000793966
0.000716698
0.000875116
0.000757033
0.000828622
0.000754634
0.000879614
0.00112654
0.00117618
0.00118403
0.000960619
0.000954453
0.00174142
0.0964992
0.00156646
0.00185137
0.00190904
0.00190213
0.00157266
0.00153448
0.00190043
0.00140601
0.0019909
0.00125359
0.00212308
0.000809363
0.00123023
0.00132079
0.00131796
0.00122487
0.000821389
0.00242937
0.119217