/*--------------------------------*- C++ -*----------------------------------*\
| =========                 |                                                 |
| \\      /  F ield         | OpenFOAM: The Open Source CFD Toolbox           |
|  \\    /   O peration     | Version:  v2012                                 |
|   \\  /    A nd           | Website:  www.openfoam.com                      |
|    \\/     M anipulation  |                                                 |
\*---------------------------------------------------------------------------*/
FoamFile
{
    version     2.0;
    format      ascii;
    class       volScalarField;
    location    "510";
    object      k;
}
// * * * * * * * * * * * * * * * * * * * * * * * * * * * * * * * * * * * * * //

dimensions      [0 2 -2 0 0 0 0];


internalField   nonuniform List<scalar> 
18258
(
0.033574
0.0158178
0.0123614
0.0102044
0.0110042
0.0140226
0.016823
0.021197
0.0256229
0.0315619
0.0386278
0.0475567
0.053554
0.0606989
0.063661
0.0619321
0.0520433
0.0472823
0.0564299
0.0809645
0.0711135
0.0514192
0.0623798
0.0615221
0.0722509
0.0763283
0.0600573
0.054858
0.0494554
0.0437762
0.0371989
0.0229646
0.024128
0.0289077
0.0321129
0.0358252
0.0386842
0.0410102
0.0426812
0.0435014
0.0434011
0.0420973
0.0394003
0.0353714
0.0299358
0.0239955
0.0238366
0.0235718
0.0292513
0.0349158
0.040404
0.0460349
0.0544987
0.0446226
0.0290246
0.0391751
0.0476492
0.0545412
0.0589688
0.0614189
0.0621834
0.0612712
0.0589823
0.0557237
0.0517633
0.0474253
0.0434083
0.0394236
0.0341824
0.0309209
0.0268096
0.0234655
0.0210253
0.0193128
0.018194
0.0171913
0.0163262
0.0155934
0.0149776
0.0145546
0.0144626
0.0144874
0.0145864
0.0146819
0.015024
0.0126768
0.0109076
0.0104399
0.0101872
0.00954037
0.00808935
0.0106437
0.0117509
0.0121681
0.0124395
0.0136142
0.0147645
0.0143414
0.0136159
0.0124983
0.0126408
0.0170911
0.0178444
0.0228939
0.0217355
0.0169521
0.0148477
0.0166345
0.0194584
0.022504
0.0192539
0.019228
0.0179267
0.0170254
0.0148765
0.0149092
0.0143919
0.0140852
0.0150018
0.0177656
0.0171779
0.0172929
0.0185112
0.0188324
0.0200577
0.021074
0.0204125
0.0202301
0.0163719
0.016272
0.0173124
0.0171864
0.0176661
0.0201663
0.0202233
0.0205672
0.0207834
0.0235782
0.0235971
0.0235649
0.023656
0.0244975
0.0235335
0.0231205
0.0231471
0.023182
0.021008
0.0207855
0.0204222
0.0204606
0.0182888
0.0175521
0.0182843
0.0192638
0.0212364
0.0249798
0.0314113
0.0403292
0.0504207
0.0606591
0.0684296
0.0727868
0.0771513
0.0766169
0.0773228
0.0794223
0.0797909
0.0786466
0.0767951
0.07463
0.071678
0.0670474
0.0665887
0.0589581
0.0480824
0.0333759
0.0388775
0.0417071
0.0444545
0.0447528
0.0452294
0.0440183
0.0422673
0.0386974
0.0336166
0.0247606
0.0256966
0.0301535
0.0348272
0.038623
0.0427937
0.0464361
0.0483051
0.0500299
0.059421
0.0571331
0.0552097
0.0568937
0.0584667
0.0616813
0.0601313
0.0561793
0.0501911
0.0518174
0.0449225
0.0335657
0.0313483
0.0292257
0.0269587
0.0378149
0.0495771
0.0610838
0.0674144
0.0735854
0.0784328
0.0824771
0.0870155
0.0815587
0.0764164
0.0576941
0.08376
0.0656299
0.0503246
0.0409813
0.0330227
0.0318394
0.0345248
0.0345229
0.0326826
0.0281238
0.0220794
0.0229486
0.035877
0.0456786
0.0536854
0.0552398
0.0599361
0.0623896
0.0571115
0.0576863
0.0468718
0.0481046
0.0514198
0.0460175
0.0437465
0.0351428
0.0274294
0.0335013
0.0498593
0.068467
0.0843952
0.0994835
0.0659107
0.0499883
0.0408816
0.0340438
0.0329362
0.037565
0.0435192
0.0527386
0.0411407
0.0370602
0.0335436
0.0306749
0.0258226
0.0275508
0.0287897
0.0269563
0.0498181
0.0572172
0.0610926
0.0836573
0.0925151
0.108479
0.107084
0.0926122
0.0963776
0.0691027
0.0687682
0.086099
0.0681384
0.0512169
0.0615107
0.0744362
0.0882234
0.101353
0.112639
0.121717
0.123456
0.111995
0.0811976
0.0467539
0.0212886
0.0186476
0.0180977
0.017389
0.0165007
0.0156984
0.0150745
0.012125
0.00949922
0.00927933
0.00946079
0.00940679
0.00826303
0.00951603
0.0115801
0.0137725
0.015281
0.0164904
0.017511
0.0182454
0.0188341
0.0192329
0.0195298
0.0197974
0.0200324
0.0202176
0.0203543
0.0204433
0.0204836
0.0204671
0.0203879
0.0202446
0.0200357
0.0197452
0.0192702
0.017743
0.0158959
0.0150708
0.0151295
0.0148802
0.014579
0.011947
0.0123178
0.0143365
0.0149674
0.0177528
0.0197839
0.0214823
0.0229312
0.0244521
0.0252249
0.0260486
0.0263098
0.0263577
0.0262526
0.0260974
0.025868
0.0255602
0.0244932
0.0212654
0.0248699
0.0272683
0.0289652
0.0303241
0.0312343
0.0313378
0.0285817
0.0360726
0.0385224
0.0394271
0.0396924
0.0388718
0.0368625
0.0344165
0.0323634
0.0308557
0.0297382
0.0275958
0.0253487
0.0230399
0.0206248
0.0174039
0.0186752
0.0205105
0.0207202
0.0204284
0.0214734
0.0227305
0.0210743
0.0189816
0.0161
0.0151042
0.0146184
0.0144318
0.0148433
0.0144957
0.0143895
0.0148845
0.0178877
0.01898
0.0206786
0.0239356
0.0228044
0.0208637
0.0280331
0.0296416
0.0300887
0.0304376
0.0303435
0.029584
0.0265146
0.0250593
0.0264475
0.0249929
0.0243625
0.0244527
0.0240858
0.0222224
0.0245224
0.0265229
0.0281137
0.0289616
0.0302001
0.031755
0.033917
0.0357122
0.0373726
0.0383762
0.0383511
0.0378054
0.0379758
0.0386136
0.03828
0.0365948
0.0345198
0.0324262
0.0294616
0.029293
0.0312661
0.0328295
0.0344901
0.0362656
0.0355917
0.0337006
0.0320734
0.0306525
0.0289433
0.0288274
0.0305036
0.0319484
0.03369
0.0358163
0.0360004
0.0338509
0.0320281
0.0305215
0.0288184
0.0287892
0.0304903
0.0320055
0.0337341
0.0356289
0.0347591
0.0332826
0.0317557
0.0302853
0.0286201
0.0281851
0.0297896
0.0311744
0.032492
0.0335619
0.0318869
0.0312935
0.0302206
0.0288297
0.0270716
0.0258187
0.0263273
0.0277143
0.0278256
0.0283067
0.0294268
0.0292754
0.0289933
0.02895
0.0286685
0.0264227
0.0268296
0.0268771
0.0275682
0.0308639
0.0303822
0.0330488
0.0354559
0.0331484
0.0316635
0.0281027
0.0336528
0.0336932
0.0346538
0.0334805
0.0237224
0.0218715
0.0228711
0.0243999
0.0260373
0.0253421
0.0225988
0.0225285
0.0231299
0.0225411
0.0209778
0.0179988
0.0135255
0.0135334
0.0135238
0.0142562
0.0170557
0.0186511
0.0187624
0.0186083
0.0183074
0.0178369
0.0171205
0.0160491
0.0156302
0.0247095
0.0449106
0.0564951
0.0558669
0.0424936
0.0356258
0.0263072
0.0181972
0.0108705
0.010765
0.0114197
0.0137522
0.0115603
0.0107053
0.0147668
0.0119327
0.0198889
0.0230239
0.0302671
0.0413734
0.0400017
0.0304264
0.0204614
0.018431
0.0192879
0.0198049
0.0201905
0.0205697
0.0209526
0.0213691
0.0218766
0.0215504
0.0189206
0.0166809
0.0168057
0.0173773
0.0198782
0.0212591
0.022054
0.0217257
0.0219792
0.0236918
0.0224516
0.0212255
0.0210151
0.0203079
0.0231438
0.0234915
0.0228691
0.0228741
0.0231538
0.0230368
0.0231703
0.0239724
0.0197888
0.0219024
0.0224534
0.0227349
0.0235268
0.019041
0.0192309
0.0192961
0.0181476
0.014872
0.0179918
0.0167525
0.0121567
0.0134678
0.0134337
0.014047
0.0143735
0.0171239
0.0162905
0.0155611
0.0163249
0.0222938
0.0230977
0.0232751
0.020634
0.0193888
0.0218751
0.0224645
0.0220092
0.0211214
0.0212832
0.0203397
0.0184396
0.0177212
0.0178583
0.0192671
0.0200649
0.020135
0.0237351
0.0232316
0.0216736
0.0226607
0.0232587
0.02285
0.0227418
0.0226878
0.0223151
0.0218957
0.0223099
0.022498
0.0225493
0.0221082
0.022356
0.0249719
0.0214442
0.0212509
0.0201703
0.0195147
0.0178894
0.017637
0.0177347
0.0176943
0.0175997
0.0167624
0.0186183
0.0178921
0.0200238
0.0216338
0.0227823
0.0239502
0.024098
0.0236668
0.0236251
0.023241
0.0232057
0.0226583
0.0218149
0.0212329
0.0204619
0.019256
0.0192484
0.0191988
0.0190548
0.0204579
0.0203571
0.0219191
0.0230367
0.0227504
0.021788
0.021679
0.0205054
0.0204824
0.021521
0.0224067
0.0226563
0.0235105
0.0260207
0.0237018
0.0252514
0.0259545
0.0266147
0.0260076
0.0249129
0.0256637
0.0240032
0.0228923
0.0242085
0.0249312
0.0261922
0.0269872
0.0250108
0.0239828
0.0227866
0.0219249
0.0209415
0.0184209
0.0190305
0.0198181
0.0210484
0.0228621
0.0255804
0.0283127
0.0312287
0.0312849
0.0289894
0.0272955
0.0320923
0.0315684
0.0365334
0.037134
0.0330133
0.0302116
0.0273016
0.026874
0.0259543
0.0254192
0.0241507
0.0253971
0.0258153
0.0248741
0.0273406
0.0289125
0.0332427
0.0388
0.0354635
0.0326416
0.0377029
0.0366214
0.0425755
0.0363574
0.0347056
0.0285636
0.0331716
0.0355303
0.0432626
0.0338569
0.0296774
0.0294607
0.0307876
0.0382671
0.0368071
0.0393929
0.0445554
0.043895
0.0390258
0.0357923
0.0415371
0.0315798
0.0370163
0.039026
0.0324116
0.0321703
0.0390354
0.0396538
0.0398189
0.033745
0.0330181
0.0250057
0.0335553
0.0400266
0.0399373
0.0331634
0.0259688
0.0358618
0.0315001
0.0312981
0.0312999
0.0269015
0.0268309
0.0261326
0.0263851
0.0270881
0.0246674
0.025465
0.0257201
0.0258786
0.0260059
0.0261944
0.0265358
0.0271767
0.0278989
0.0228542
0.0242837
0.0229475
0.0216199
0.0202822
0.0240589
0.0265371
0.0283463
0.0298017
0.0309344
0.0314109
0.0299741
0.0379587
0.0396752
0.0412992
0.0414567
0.0402375
0.0376078
0.0341972
0.0307642
0.0286147
0.0272936
0.0248037
0.0226729
0.020596
0.01844
0.0156298
0.0143006
0.0129922
0.0116398
0.0113271
0.0108101
0.0102321
0.00958493
0.00927345
0.0116381
0.0170548
0.0272906
0.0326191
0.0381808
0.044953
0.0517042
0.0571947
0.0612572
0.0640969
0.0658424
0.0662905
0.0636639
0.052726
0.0476551
0.0427205
0.0377404
0.0327273
0.0320519
0.0411599
0.0494835
0.0565402
0.0629163
0.0670877
0.0654758
0.0499612
0.0467001
0.0622164
0.0896966
0.0804238
0.103404
0.11982
0.079467
0.0648374
0.0641492
0.0795749
0.0820716
0.0754066
0.0663846
0.0564641
0.0454802
0.0505408
0.0553714
0.0599955
0.0646452
0.0779774
0.0804629
0.0792651
0.0768265
0.0735654
0.0689912
0.0621375
0.0533084
0.0440807
0.0362263
0.0290451
0.018294
0.0128325
0.0137155
0.0132099
0.013952
0.013977
0.0101104
0.0104638
0.0106783
0.0106045
0.0103419
0.0104112
0.0118115
0.0183382
0.0150872
0.0137397
0.0118424
0.0145489
0.016433
0.0182635
0.0188549
0.0190386
0.0197454
0.0335105
0.0438274
0.0497653
0.0546138
0.0582043
0.0568538
0.0532698
0.0471045
0.0397501
0.037066
0.0330445
0.0297006
0.0280158
0.0289871
0.0254291
0.0157223
0.0146848
0.0157553
0.0154227
0.0144233
0.0163797
0.0176062
0.0183871
0.0190185
0.0194898
0.0198517
0.0201095
0.02028
0.0203687
0.0203939
0.0203701
0.0203021
0.020189
0.0200282
0.0198094
0.0195025
0.0189818
0.0172693
0.0154294
0.0147126
0.0147959
0.0145641
0.0141998
0.0123222
0.0125497
0.01441
0.0150141
0.0146245
0.0152174
0.0156896
0.0168948
0.0190637
0.0212015
0.0230408
0.0217323
0.0210764
0.0210513
0.0206489
0.0175119
0.0208298
0.023686
0.0241968
0.0244638
0.0252815
0.0268777
0.0278366
0.0269036
0.0264056
0.0258769
0.0228104
0.0244511
0.0279579
0.0283703
0.0290367
0.0296294
0.030196
0.031493
0.0308675
0.0299921
0.0294015
0.0265909
0.0257179
0.0316727
0.0207325
0.0146161
0.0105425
0.0109179
0.0111395
0.0108293
0.011613
0.0121612
0.0124057
0.0117532
0.0128304
0.0137392
0.0129977
0.0155748
0.0148831
0.0138868
0.0134268
0.0142047
0.0149352
0.0153195
0.016416
0.0265332
0.0273502
0.0228426
0.0293918
0.0319534
0.0290449
0.0319449
0.0296063
0.0282815
0.0310743
0.034442
0.0356583
0.0333158
0.0319489
0.0312776
0.0208525
0.0201667
0.0194441
0.0175926
0.0178796
0.0174232
0.0169667
0.0165577
0.0190627
0.0204592
0.0216064
0.0213072
0.021014
0.0206181
0.0210613
0.0251847
0.0332994
0.0435898
0.0469651
0.0457358
0.0417869
0.0348387
0.0284108
0.0280232
0.0261382
0.0249531
0.0247097
0.0187541
0.0149197
0.0174716
0.0173819
0.0184544
0.0191334
0.0196692
0.0200975
0.0204555
0.0207654
0.0210658
0.0213437
0.021586
0.0217889
0.0219619
0.0221041
0.0222559
0.0224388
0.0226925
0.0228948
0.0212566
0.0186307
0.0172843
0.0171371
0.0178535
0.0187573
0.0198843
0.0191283
0.0154068
0.015482
0.0219045
0.0223595
0.0209918
0.0195694
0.0197712
0.0189312
0.0227434
0.0225477
0.0233474
0.0231488
0.0228737
0.0225968
0.0223201
0.0220333
0.0217471
0.0214956
0.0212657
0.0210509
0.0208388
0.0206064
0.0203277
0.01992
0.0192341
0.0184365
0.0169096
0.0180232
0.019315
0.0210026
0.022804
0.0236579
0.0227865
0.0216063
0.0211144
0.0213537
0.0216581
0.0219835
0.0223319
0.0227386
0.0231515
0.0235391
0.023484
0.0221509
0.0227928
0.0174768
0.0183292
0.0186281
0.0185866
0.0202442
0.0193831
0.0146666
0.0151852
0.0159127
0.0171983
0.0197879
0.0201512
0.0215034
0.0217313
0.0173317
0.0170275
0.0166019
0.0176055
0.0152376
0.0158778
0.0266216
0.0272279
0.0349779
0.03834
0.0399411
0.0331433
0.0456111
0.0524698
0.050598
0.0409208
0.0235202
0.0346697
0.0421865
0.0488455
0.0457879
0.0356298
0.0449535
0.0474048
0.0633394
0.0589928
0.0526237
0.063379
0.0447664
0.0269503
0.0158353
0.0164069
0.0152055
0.0306853
0.0347958
0.0314986
0.0323502
0.0399862
0.040999
0.0362597
0.0345617
0.0363164
0.0358667
0.0398303
0.0371343
0.0337429
0.0233179
0.0190396
0.0198805
0.0212909
0.0231187
0.0254623
0.0253581
0.0242133
0.0228466
0.0218703
0.020815
0.018317
0.0176584
0.0196191
0.0212491
0.0226276
0.0241372
0.0249571
0.0257976
0.0259619
0.0258532
0.0255302
0.0251022
0.0245484
0.0238653
0.0224559
0.0236946
0.0243797
0.0245873
0.024863
0.0251731
0.0254469
0.0255856
0.0254685
0.0245181
0.0237069
0.0225388
0.0214206
0.0198137
0.0176967
0.0183787
0.0201383
0.0217391
0.022854
0.0239052
0.0235154
0.0240073
0.0246653
0.024692
0.0245141
0.0242932
0.0241452
0.0242396
0.0248705
0.0265743
0.026262
0.0290497
0.0302355
0.0276708
0.0263434
0.0256544
0.0252336
0.0249939
0.0247943
0.0246026
0.0240662
0.0235256
0.0240177
0.0242628
0.0245523
0.0249027
0.0254026
0.0260887
0.0271791
0.0285851
0.0284642
0.0262786
0.0261574
0.0251083
0.0243242
0.0239452
0.02389
0.0239314
0.0240298
0.0239627
0.0234396
0.0231097
0.0235139
0.0225008
0.0225663
0.0215932
0.0202332
0.0187918
0.0173396
0.0166776
0.0353252
0.0353086
0.0458236
0.0424795
0.0371477
0.0472162
0.0602213
0.0522013
0.0629222
0.0667128
0.054211
0.0503557
0.0279144
0.0244234
0.0174123
0.0189383
0.0202843
0.0214899
0.0213067
0.0222295
0.0221123
0.0230829
0.0225383
0.0217512
0.0212035
0.0201859
0.020241
0.0189686
0.0174229
0.0172901
0.0189394
0.0199878
0.0211683
0.0211648
0.022628
0.0231347
0.023541
0.0237014
0.0236992
0.0237945
0.0239694
0.0244187
0.0251281
0.0255859
0.0257138
0.0260875
0.0258275
0.0255103
0.0250576
0.0247513
0.0244377
0.0241635
0.0238747
0.023603
0.0231786
0.0225276
0.0224114
0.0229204
0.0232553
0.0234851
0.0236167
0.0235964
0.0234026
0.023088
0.0227725
0.022422
0.0224843
0.0238189
0.0240684
0.0242054
0.0239955
0.0238224
0.0237998
0.0236695
0.023562
0.0233214
0.0229428
0.0224658
0.0213936
0.0214977
0.022385
0.0228369
0.0231769
0.0234678
0.023499
0.0234225
0.0230455
0.0227471
0.0223893
0.0218192
0.0210796
0.018618
0.0190827
0.0197076
0.0205515
0.0213999
0.0221229
0.0225845
0.022779
0.0227794
0.0226101
0.0222605
0.0215145
0.0214976
0.0220358
0.0222017
0.0221481
0.0218407
0.021218
0.0202869
0.0190753
0.0178501
0.016868
0.0163707
0.0155877
0.0182255
0.0192765
0.0202427
0.0211277
0.0219527
0.0228123
0.023137
0.0231896
0.0230222
0.0227454
0.0223225
0.0215439
0.0215537
0.0222657
0.0226662
0.0228931
0.0229943
0.0227238
0.022047
0.0204979
0.0190608
0.0178597
0.0167547
0.0156165
0.0152552
0.0157569
0.0153504
0.0158061
0.0169469
0.0184395
0.0198116
0.020802
0.0214025
0.0216926
0.021725
0.0213969
0.0212179
0.0213441
0.021144
0.0206482
0.0197821
0.0184979
0.0170203
0.0157854
0.0153893
0.0160124
0.0166584
0.016065
0.0139064
0.0150337
0.0161424
0.0172935
0.0189937
0.0210686
0.0220695
0.0225571
0.022696
0.0225648
0.0221905
0.02153
0.0214749
0.0221062
0.0224717
0.02258
0.0224825
0.0220408
0.0212026
0.0186789
0.0159021
0.0146431
0.0139214
0.0129822
0.0162198
0.0169083
0.0160928
0.0155559
0.0164187
0.0174716
0.0186351
0.0195307
0.0201743
0.0206764
0.0209514
0.02098
0.0207084
0.0205931
0.0203727
0.0200266
0.0196834
0.0193348
0.0185476
0.0177084
0.0167416
0.0178061
0.0183704
0.0176225
0.0144858
0.0150506
0.0158918
0.0164196
0.019101
0.0215775
0.0222477
0.0224396
0.0225407
0.0224054
0.0220059
0.0213862
0.0212611
0.0219017
0.0223892
0.0226923
0.0229893
0.023206
0.0233624
0.0214627
0.0181364
0.0173512
0.0156134
0.0147731
0.0181823
0.0188604
0.018392
0.0178357
0.0195109
0.0202136
0.0204632
0.0204585
0.0203891
0.0202978
0.0203159
0.0204288
0.0201301
0.0200075
0.0201114
0.0203278
0.0202822
0.0200585
0.0194878
0.0187212
0.0176226
0.0194642
0.021123
0.0208577
0.0170184
0.017555
0.0183877
0.0179799
0.0207251
0.0225937
0.023088
0.0230381
0.0227295
0.0222567
0.0217125
0.0210717
0.0207901
0.0213555
0.0219284
0.0219634
0.0220669
0.0220253
0.0214602
0.0212937
0.0207168
0.0204437
0.0196778
0.0190918
0.018343
0.020499
0.0237096
0.0259208
0.0275017
0.0293921
0.0279281
0.0244031
0.022127
0.0152606
0.0152664
0.0154816
0.0148597
0.0144874
0.0143062
0.0187509
0.0214982
0.0241929
0.0259233
0.0235029
0.0234759
0.0233949
0.0232792
0.0231618
0.0230516
0.0228333
0.0234822
0.0408153
0.282632
0.208579
0.234666
0.223927
0.315312
0.0788485
0.0388192
0.0432977
0.0506693
0.0586333
0.0570127
0.0529141
0.0461145
0.0414187
0.0410204
0.0402192
0.0399925
0.0384256
0.0384259
0.0376276
0.0454895
0.0968554
0.124747
0.138234
0.146617
0.155408
0.150799
0.159627
0.1514
0.151782
0.153305
0.158022
0.150633
0.143321
0.139538
0.135252
0.117964
0.118303
0.0998694
0.103666
0.0865531
0.0911048
0.0950051
0.0943547
0.0931639
0.0929673
0.0932754
0.0941385
0.0979483
0.0932275
0.0998626
0.0921945
0.0743798
0.0720891
0.0743448
0.06851
0.0597752
0.0682187
0.0841892
0.100899
0.118334
0.100323
0.124342
0.116774
0.116276
0.110256
0.103596
0.0997224
0.0989097
0.0994828
0.100589
0.103222
0.105156
0.106757
0.109678
0.118244
0.120635
0.119283
0.101771
0.0864048
0.0948471
0.0996917
0.103349
0.103591
0.0988282
0.0967574
0.090735
0.0891875
0.0837521
0.081134
0.0757439
0.0723982
0.0676096
0.0841779
0.0822574
0.0892506
0.0955389
0.099724
0.103383
0.104947
0.106241
0.105043
0.102663
0.0976115
0.0954417
0.0905975
0.109125
0.127558
0.130247
0.125558
0.112059
0.106406
0.339761
0.412163
0.413578
0.614083
0.656101
0.848678
0.336423
0.179791
0.192345
0.189033
0.180848
0.177687
0.177533
0.189379
0.198559
0.189554
0.201962
0.179989
0.179798
0.172853
0.20198
0.19969
0.180123
0.157822
0.125356
0.102972
0.103118
0.0859059
0.0866502
0.0744423
0.0745736
0.0755926
0.0929873
0.172578
0.210535
0.237176
0.263545
0.323998
0.293522
0.443071
0.354437
0.439657
0.303237
0.328002
0.313655
0.304831
0.302839
0.318912
0.341921
0.300535
0.374019
0.299511
0.648579
0.785556
0.496513
0.459302
0.407189
0.392999
0.383095
0.377555
0.369616
0.48763
0.452198
0.556857
0.517981
0.651835
0.571592
0.581179
0.548644
0.588455
0.610064
0.623572
0.498945
0.546292
0.42586
0.460942
0.382916
0.418254
0.293875
0.292951
0.335547
0.372289
0.398363
0.455616
0.715705
0.607314
0.818868
0.585984
0.707885
0.491497
0.538878
0.514496
0.496875
0.49861
0.526773
0.631023
0.610138
0.697475
0.514719
0.526982
0.51672
0.534055
0.523497
0.558425
0.563117
0.564303
0.562292
0.523428
0.534033
0.532202
0.531978
0.531996
0.532345
0.509589
0.512773
0.505231
0.511013
0.526914
0.514596
0.51451
0.512373
0.504799
0.502744
0.502259
0.504019
0.503787
0.508922
0.508792
0.509134
0.512196
0.526904
0.514438
1.82893
0.905571
0.431868
0.341285
0.22079
0.135566
0.0561362
0.0606336
0.0636075
0.0645772
0.0625696
0.0572204
0.0490738
0.0390738
0.0312783
0.0304676
0.0271603
0.0264701
0.034329
0.0420309
0.0384493
0.0462845
0.0540033
0.0623256
0.070305
0.0772574
0.08314
0.0860924
0.0830737
0.0703647
0.0527012
0.0353079
0.0250493
0.0226472
0.0210024
0.0190048
0.0168959
0.0152439
0.0142384
0.0130662
0.0124338
0.0123456
0.0125652
0.012805
0.0132443
0.0147583
0.0160576
0.017242
0.0182039
0.0184487
0.0179333
0.0184752
0.0190701
0.0194645
0.019808
0.0196336
0.019627
0.0198744
0.0198341
0.0200386
0.0199395
0.0199452
0.0198049
0.0196357
0.01941
0.0189766
0.0186982
0.0181368
0.0177879
0.0169472
0.0169825
0.0173785
0.0177042
0.0167024
0.0166439
0.0158991
0.0269081
0.0480473
0.0611383
0.0661763
0.0714671
0.0674383
0.0570897
0.0391128
0.0191816
0.0187742
0.0192568
0.0217602
0.0212798
0.017392
0.0181825
0.0187915
0.0175983
0.0175425
0.0175756
0.0196424
0.0202496
0.0216171
0.0221162
0.0224878
0.022707
0.022647
0.0227364
0.0224396
0.022433
0.0220365
0.0220148
0.0216947
0.0214621
0.0217592
0.0224741
0.0225605
0.0232271
0.0229336
0.0226476
0.0220851
0.0216846
0.0208262
0.0199003
0.0188696
0.0173089
0.0168493
0.0173606
0.0178399
0.017371
0.0187624
0.0200243
0.0197091
0.0243602
0.0226393
0.0201963
0.0226589
0.0184437
0.0186203
0.0181324
0.017062
0.0176148
0.017136
0.0170758
0.0173889
0.0176932
0.0188645
0.0198455
0.0204871
0.0213597
0.0220004
0.0227157
0.0239218
0.0242172
0.0232067
0.0230102
0.0217992
0.0211073
0.0207808
0.0217212
0.0230376
0.022961
0.0238774
0.023634
0.0223798
0.0215654
0.0207116
0.0197218
0.0190553
0.0182571
0.0175019
0.0170731
0.0162369
0.0163137
0.0152122
0.0167838
0.0173114
0.0195855
0.0174463
0.0169205
0.0224815
0.0284169
0.0443236
0.0323653
0.0214258
0.0234241
0.0317964
0.0396679
0.0280933
0.0276633
0.0154325
0.0182376
0.0152196
0.015537
0.0166029
0.0168965
0.0181072
0.0191794
0.0194217
0.0201759
0.0205256
0.0212937
0.0215538
0.0222928
0.0224893
0.0237762
0.0238455
0.0239037
0.0238806
0.023058
0.0229829
0.0229842
0.0234496
0.0232352
0.0239546
0.0239843
0.0240776
0.0240084
0.0226515
0.0223238
0.0215477
0.0210274
0.0201203
0.0195618
0.0188399
0.0184516
0.0177972
0.0181162
0.0188418
0.0190324
0.0199921
0.0200115
0.0207553
0.0209663
0.0214369
0.0215731
0.0222427
0.0223847
0.0226556
0.0227133
0.0239392
0.0240562
0.0240939
0.0240596
0.0240667
0.0242895
0.0242864
0.0242303
0.0242111
0.0241018
0.0239346
0.0237591
0.0248329
0.0255198
0.0250749
0.0248355
0.0250985
0.0259544
0.0265075
0.0276025
0.0284582
0.0295326
0.0304216
0.0312419
0.0319088
0.0323801
0.0324889
0.0325166
0.0320527
0.0316724
0.0333535
0.0398523
0.0430793
0.0483568
0.0507351
0.0526851
0.0533706
0.0522426
0.0529804
0.0517289
0.0519999
0.0508379
0.0504279
0.049636
0.0486537
0.0479538
0.0465065
0.0457867
0.0504043
0.0570943
0.0572202
0.0500781
0.0471219
0.0430104
0.0376833
0.0393867
0.0460367
0.0414941
0.038839
0.0361225
0.0311928
0.0240893
0.0178783
0.0255563
0.0333388
0.0406119
0.0474127
0.0534138
0.057296
0.0594122
0.0609388
0.0626407
0.0606129
0.0531689
0.0415627
0.0317309
0.0278644
0.026314
0.02387
0.0204274
0.0185378
0.0174624
0.0163066
0.0149564
0.0140974
0.013854
0.0140978
0.0142141
0.0155619
0.0168245
0.0168172
0.0179978
0.0178152
0.0183265
0.0189185
0.0193208
0.019984
0.0199517
0.0189881
0.0193363
0.0195988
0.020276
0.0201748
0.0203433
0.020126
0.0194082
0.0188942
0.0182968
0.0177795
0.0173202
0.0167456
0.0160255
0.0160129
0.0162049
0.0157622
0.0161785
0.0166226
0.0170311
0.0176589
0.018566
0.0193242
0.0211569
0.0212962
0.0210451
0.0211324
0.0197015
0.0196395
0.0186636
0.0184305
0.0200279
0.0198704
0.0181961
0.0195926
0.0195957
0.0213801
0.021384
0.0207086
0.0209042
0.0207909
0.0189622
0.0180718
0.0170036
0.016223
0.0156312
0.0152263
0.0147518
0.0153716
0.0141605
0.0135933
0.0140568
0.0140351
0.0141044
0.0144964
0.014928
0.0156737
0.0163798
0.0174262
0.0180653
0.0189638
0.0192972
0.0212084
0.0211176
0.0209873
0.0210191
0.021158
0.0216089
0.0208178
0.0207795
0.0209182
0.0209331
0.020958
0.0209415
0.0191005
0.0188971
0.0180618
0.0177439
0.0168123
0.0164525
0.0157945
0.0154783
0.0150849
0.0148859
0.023281
0.0254798
0.0256355
0.0397899
0.0199874
0.0199627
0.0343318
0.0173437
0.0230628
0.023613
0.0246988
0.0259284
0.0225554
0.030736
0.0212157
0.0233479
0.0240856
0.0252431
0.0128615
0.0198199
0.0373722
0.0425439
0.0438704
0.0488287
0.0555148
0.0587265
0.0617711
0.0638019
0.0660697
0.0685206
0.0709287
0.0726722
0.0728272
0.0691445
0.0660857
0.0565831
0.052758
0.0565057
0.0609385
0.0474298
0.0426293
0.0431759
0.0436442
0.0441778
0.0443862
0.0450736
0.0448782
0.0458747
0.0451395
0.0462434
0.0450946
0.0461182
0.0448788
0.0421401
0.0389085
0.0326931
0.0307108
0.0295996
0.0268771
0.0243648
0.0221068
0.0202717
0.0198352
0.0182644
0.0168539
0.0165538
0.0152632
0.0155214
0.0167449
0.0198852
0.0168258
0.0176668
0.026025
0.019145
0.018043
0.0185932
0.0191144
0.0193534
0.0182469
0.0198796
0.0221592
0.0221537
0.0222178
0.0222275
0.0214202
0.0212551
0.0209838
0.0210413
0.0210737
0.0211976
0.021166
0.019339
0.0192825
0.0190092
0.018871
0.0180814
0.0179138
0.0173295
0.0169988
0.0161575
0.0158631
0.0154137
0.0154732
0.0166947
0.0206193
0.0301662
0.0173964
0.018087
0.0156439
0.0139735
0.0266386
0.0247599
0.0286339
0.0267852
0.0394213
0.0264319
0.023186
0.0241899
0.0297156
0.0296649
0.0326208
0.042379
0.0330169
0.0282287
0.0734775
0.0537458
0.0333779
0.0464263
0.0583497
0.109151
0.127642
0.0560424
0.05656
0.0622549
0.0631644
0.0630467
0.0534753
0.0492712
0.0414873
0.0320041
0.012873
0.0249277
0.0322018
0.0428765
0.0572664
0.0920659
0.0529212
0.0597582
0.0657314
0.0648095
0.0679027
0.0660635
0.0646879
0.0656302
0.102705
0.111616
0.107901
0.0865831
0.0812276
0.0741286
0.12414
0.139139
0.120038
0.130138
0.136002
0.0818664
0.0303759
0.024944
0.0238284
0.0264092
0.0253493
0.0460136
0.0205908
0.021821
0.0226558
0.0271635
0.0301919
0.052915
0.0232608
0.0254634
0.0324177
0.0348981
0.0459664
0.027457
0.0281037
0.0344367
0.0362287
0.0395523
0.0336628
0.0317686
0.0287314
0.0259252
0.0244271
0.0254741
0.0318683
0.0463536
0.027895
0.0283244
0.0300893
0.133839
0.030757
0.026658
0.0277267
0.0267291
0.033681
0.03512
0.111409
0.0355217
0.0167079
0.0154562
0.0159271
0.0167377
0.017376
0.0179951
0.0184405
0.019082
0.0194758
0.0196294
0.0197984
0.0221796
0.0220785
0.0216113
0.021067
0.0218593
0.021165
0.021213
0.0218291
0.0212944
0.0214414
0.0224944
0.0236693
0.0231787
0.0237438
0.0250968
0.0239354
0.0222318
0.0220261
0.0221461
0.0228541
0.0239929
0.0228008
0.0234541
0.0226359
0.0235562
0.0236707
0.0203667
0.0199979
0.0197939
0.0192903
0.0186159
0.0179916
0.0173207
0.0166751
0.0161824
0.0161239
0.0166526
0.0151986
0.0156184
0.0180324
0.0396964
0.0326867
0.0267372
0.0223511
0.0196302
0.0184427
0.0183058
0.0187435
0.0193953
0.0199576
0.0201666
0.0207531
0.0246387
0.0245729
0.0257776
0.0246433
0.0259807
0.0249242
0.0236006
0.02273
0.0239391
0.0232458
0.0237369
0.0253569
0.0262019
0.0238342
0.0241039
0.0215093
0.0200962
0.0184804
0.0188206
0.0202708
0.0209454
0.023386
0.0234673
0.0269081
0.026889
0.0267439
0.0255046
0.0248294
0.0262763
0.0247875
0.0259374
0.0248256
0.0262289
0.027414
0.0277569
0.0270515
0.0262064
0.0253321
0.0210513
0.0202611
0.0199554
0.0194641
0.0192109
0.0201508
0.0244522
0.0337275
0.0459027
0.0580698
0.0674909
0.066904
0.060239
0.0408929
0.0418668
0.0388701
0.0423173
0.0603137
0.0863768
0.0606393
0.114579
0.0888004
0.0526899
0.0629633
0.0749763
0.0841538
0.0901023
0.0911326
0.0776396
0.0571698
0.050182
0.0526064
0.0848917
0.083599
0.0825302
0.0780558
0.0825606
0.0804356
0.0777568
0.0761876
0.0744032
0.0701381
0.0701184
0.0674149
0.0673795
0.0602402
0.0614249
0.0616553
0.0590799
0.0563318
0.0540447
0.051854
0.04953
0.0456359
0.0443567
0.0418809
0.0401396
0.0367812
0.0362444
0.0357611
0.0335873
0.0320356
0.0307828
0.0295222
0.0278202
0.0279826
0.0263967
0.0262405
0.0213822
0.0210023
0.0199844
0.019652
0.0194065
0.0196131
0.0208728
0.0235774
0.0437258
0.033165
0.0329945
0.0335416
0.0337302
0.0396536
0.0464316
0.0706334
0.06535
0.0719
0.061484
0.0639284
0.0631372
0.0627584
0.0654853
0.0690757
0.0744222
0.0869096
0.333665
0.513802
0.253324
0.237274
0.246884
0.251765
0.259167
0.339251
0.360202
0.356131
0.360695
0.330585
0.318419
0.196647
0.22605
0.238126
0.237012
0.223892
0.202388
0.393369
0.522654
0.518786
0.523656
0.523769
0.518766
0.522601
0.502912
0.514274
0.501759
0.515027
0.502299
0.521668
0.518928
0.504364
0.501137
0.501157
0.500916
0.501379
0.501556
0.504894
0.506056
0.506107
0.505102
0.504118
0.514522
0.437404
0.12276
0.0854031
0.141962
0.197259
0.161529
0.233671
0.268579
0.193601
0.110099
0.0898446
0.101346
0.124827
0.126352
0.153435
0.200798
0.188004
0.153469
0.154448
0.155033
0.200255
0.191841
0.218113
0.260538
0.253777
0.189067
0.150555
0.149782
0.227945
0.242743
0.23797
0.123382
0.0443056
0.0218799
0.0228045
0.0327441
0.0165638
0.0168477
0.022235
0.0582273
0.0969597
0.0501632
0.136517
0.138271
0.182278
0.147628
0.178528
0.115709
0.119016
0.0677122
0.0797341
0.089686
0.0954416
0.0997573
0.0938546
0.216836
0.320203
0.190907
0.561544
0.538284
0.19634
0.217378
0.576155
0.51301
0.503526
0.501785
0.501698
0.501859
0.501816
0.500969
0.500915
0.500728
0.500765
0.500716
0.501163
0.504767
0.520392
0.514606
0.50524
0.501385
0.500824
0.500799
0.50069
0.50073
0.50075
0.500808
0.501017
0.50105
0.501151
0.50167
0.503942
0.512027
0.435688
0.17006
0.182475
0.406209
0.361961
0.511502
0.504622
0.501369
0.500942
0.500855
0.500829
0.500795
0.500969
0.50089
0.501397
0.501231
0.501287
0.502777
0.508258
0.506396
0.443279
0.369513
0.417233
0.330115
0.506672
0.507777
0.503277
0.5029
0.503247
0.503414
0.501514
0.501527
0.500992
0.50106
0.500893
0.50134
0.504756
0.511013
0.346117
0.171015
0.177935
0.258274
0.0879989
0.0909344
0.0928667
0.0949562
0.247393
0.44202
0.556133
0.471679
0.475687
0.54267
0.385956
0.364728
0.294378
0.317962
0.402355
0.347593
0.313096
0.250607
0.288928
0.248019
0.303816
0.21816
0.234437
0.221988
0.283356
0.287238
0.287593
0.226987
0.216822
0.271928
0.286182
0.31718
0.219031
0.259272
0.203541
0.192603
0.0872452
0.0894272
0.0813039
0.0713453
0.0710932
0.0792398
0.0776754
0.0838723
0.0808612
0.0845615
0.0816804
0.0796603
0.0728508
0.0748859
0.0686607
0.071319
0.130443
0.166658
0.150547
0.151978
0.179739
0.13121
0.157585
0.153669
0.197788
0.248222
0.227102
0.292382
0.225448
0.275886
0.405989
0.754624
0.439501
0.24484
0.318412
0.340324
0.288945
0.189787
0.449841
0.538797
0.298278
0.360489
1.19645
1.04392
1.78146
0.992908
1.11954
0.671344
0.598054
1.02914
0.654234
0.66672
0.560163
0.573896
0.499711
0.32468
0.324197
0.30603
0.242184
0.280983
0.271672
0.267044
0.29667
0.261805
0.316919
0.35271
0.397418
0.322927
0.285766
0.367234
0.21585
0.291093
0.346682
0.315978
0.260027
0.338352
0.450436
0.421926
0.363129
0.399534
0.509978
0.563801
0.533241
0.45246
0.513869
1.00747
0.964156
0.931481
0.591084
1.93402
1.71947
0.353936
0.138224
0.096388
0.0364593
0.0224761
0.0182749
0.0178825
0.0489044
0.0195471
0.0235409
0.0212025
0.030117
0.0273652
0.0316381
0.0556002
0.037669
0.0529654
0.0392749
0.0523137
0.0416432
0.0572647
0.0614949
0.0647819
0.0523912
0.0413014
0.0624053
0.0832892
0.038981
0.100291
0.105986
0.0685052
0.0832833
0.102835
0.0532319
0.165522
0.0573964
0.0570979
0.0679888
0.127532
0.252729
0.0859634
0.112591
0.587134
1.53126
0.511474
0.202158
0.1649
0.0414222
0.0359327
0.0293039