/*--------------------------------*- C++ -*----------------------------------*\
| =========                 |                                                 |
| \\      /  F ield         | OpenFOAM: The Open Source CFD Toolbox           |
|  \\    /   O peration     | Version:  v2012                                 |
|   \\  /    A nd           | Website:  www.openfoam.com                      |
|    \\/     M anipulation  |                                                 |
\*---------------------------------------------------------------------------*/
FoamFile
{
    version     2.0;
    format      ascii;
    class       volVectorField;
    location    "510";
    object      U;
}
// * * * * * * * * * * * * * * * * * * * * * * * * * * * * * * * * * * * * * //

dimensions      [0 1 -1 0 0 0 0];


internalField   nonuniform List<vector> 
18258
(
(-0.176755 0.115192 0.13864)
(-0.0519609 0.245583 0.158579)
(-0.105127 0.213235 0.0963716)
(-0.0398785 0.0692266 0.0844335)
(-0.22659 0.201506 0.0186924)
(-0.159725 0.359843 0.0172001)
(-0.223412 0.0443486 0.0543266)
(-0.341997 -0.0534983 0.0755484)
(-0.449491 -0.106051 0.108387)
(-0.536504 -0.159854 0.145846)
(-0.622132 -0.217365 0.180022)
(-0.688284 -0.27175 0.309685)
(-0.678956 -0.334468 0.357314)
(-0.622295 -0.445686 0.385871)
(-0.487691 -0.543055 0.369321)
(-0.204392 -0.586875 0.339979)
(0.0743212 -0.373734 0.287766)
(0.079939 -0.165488 0.298453)
(-0.12494 -0.0781155 0.235652)
(-0.392046 -0.274141 0.115187)
(-0.133483 -0.522925 0.28768)
(-0.187601 -0.362368 0.405615)
(-0.289254 -0.732981 0.298419)
(-0.346172 -0.773474 0.262177)
(-0.124786 -0.709333 0.140204)
(0.0100726 -0.645198 0.187209)
(-0.0121353 -0.337026 0.421204)
(0.17748 -0.11141 0.80011)
(0.300913 -0.0945212 0.885097)
(0.318315 0.0586693 0.90024)
(0.321496 0.191208 0.797285)
(0.162594 0.302703 0.0557878)
(0.0885988 0.115164 -0.438461)
(0.0259195 0.0670479 -0.735711)
(-0.0562043 0.0699687 -0.905773)
(-0.0471513 0.0681489 -1.08604)
(-0.0618227 0.0680121 -1.22995)
(-0.0892408 0.0864782 -1.32777)
(-0.128109 0.0768457 -1.3771)
(-0.173305 0.0819224 -1.36347)
(-0.221495 0.0677435 -1.27925)
(-0.266567 0.0759354 -1.12512)
(-0.303912 0.0705159 -0.913891)
(-0.334074 0.0699924 -0.657729)
(-0.345068 0.0710409 -0.361748)
(-0.331309 0.0675151 -0.16085)
(-0.171769 0.135219 -0.205921)
(0.318082 -0.0850064 -0.142487)
(0.57348 -0.12937 -0.165252)
(0.642699 -0.10911 -0.172236)
(0.764433 -0.135218 -0.179635)
(0.799027 -0.135087 -0.195884)
(0.502376 -0.0111608 -0.257876)
(0.258646 -0.138576 -0.219094)
(0.113336 -0.0435567 -0.159133)
(0.281351 -0.0105119 -0.169236)
(0.535726 -0.00309021 -0.17381)
(0.789617 -0.0302604 -0.178003)
(1.08982 -0.03478 -0.175734)
(1.42542 -0.048839 -0.185185)
(1.76 -0.0645324 -0.183572)
(2.04422 -0.0810835 -0.166684)
(2.24501 -0.0927714 -0.138253)
(2.34535 -0.0989036 -0.102654)
(2.3522 -0.0962407 -0.0680845)
(2.29202 -0.0885661 -0.0414562)
(2.19863 -0.0820594 -0.0248437)
(2.10635 -0.0759466 -0.0181347)
(2.0371 -0.0671615 -0.0191739)
(1.99163 -0.0643266 -0.0238424)
(1.96744 -0.0591926 -0.0262637)
(1.95701 -0.0503025 -0.0207222)
(1.94283 -0.0398113 -0.00372237)
(1.89944 -0.0250063 0.0238427)
(1.81196 -0.00797566 0.0534226)
(1.69116 0.00938354 0.0766939)
(1.57042 0.0215659 0.0795352)
(1.47778 0.030525 0.0748974)
(1.39975 0.0375557 0.0702414)
(1.33766 0.0502441 0.0628777)
(1.28688 0.056892 0.0646202)
(1.19329 0.0440358 0.0780866)
(1.09617 0.01873 0.109537)
(1.01319 0.000424098 0.126943)
(0.905871 -0.0211887 0.119797)
(0.761903 0.0165197 0.14513)
(0.641167 0.0815361 0.132709)
(0.517505 0.100499 0.133501)
(0.380489 0.117903 0.117869)
(0.224107 0.12675 0.0957232)
(0.119958 0.189728 0.0913071)
(0.121708 0.010723 0.19681)
(0.164037 -0.100728 0.1428)
(0.11304 -0.129751 0.0384875)
(0.104452 -0.114938 -0.143431)
(0.216448 -0.210078 -0.372128)
(0.262574 -0.231871 -0.557174)
(0.204139 -0.138651 -0.729918)
(0.105669 -0.0804774 -0.713022)
(0.036227 0.0587915 -0.488486)
(-0.0923244 0.232601 -0.150655)
(-0.216916 0.193315 0.181504)
(-0.234723 0.064607 0.156246)
(-0.340729 0.0146398 0.171016)
(-0.274134 0.137127 0.180074)
(-0.248446 0.285716 -0.0414577)
(-0.106565 0.16448 -0.400981)
(0.0634351 0.00508157 -0.583401)
(0.333269 -0.0936162 -0.632397)
(0.495334 -0.229636 -0.49083)
(0.351264 -0.210708 -0.281695)
(0.271581 -0.191951 -0.102105)
(0.282779 -0.186718 0.0381177)
(0.280511 -0.140069 0.159197)
(0.224963 -0.0989417 0.190813)
(0.396125 -0.0813832 0.179836)
(0.535213 -0.0633815 0.175392)
(0.587687 -0.0521566 0.163577)
(0.699568 -0.0788245 0.159645)
(0.731944 -0.133777 0.131194)
(0.600499 -0.134294 0.133988)
(0.4541 -0.151775 0.138523)
(0.461156 -0.18592 0.0339243)
(0.610417 -0.162849 0.0498505)
(0.735784 -0.162048 0.0473343)
(0.904258 -0.141732 0.0796824)
(1.08791 -0.109844 0.109311)
(1.18926 -0.0777182 0.146916)
(1.20823 -0.0107666 0.138823)
(1.2454 -0.00915518 0.119453)
(1.33544 -0.00703002 0.138945)
(1.37736 -0.00181251 0.128982)
(1.369 -0.012565 0.157644)
(1.32847 -0.048184 0.192662)
(1.32281 -0.051105 0.189572)
(1.28578 -0.0619768 0.150635)
(1.27907 -0.060145 0.133733)
(1.25814 -0.0476443 0.107365)
(1.24961 -0.0456274 0.109435)
(1.20155 0.00470471 0.108333)
(1.1945 0.0281459 0.137029)
(1.07716 0.137194 0.270751)
(1.22628 0.0530726 0.253355)
(1.21802 0.0202958 0.157813)
(1.26669 -0.0207182 0.127195)
(1.27882 -0.024904 0.117924)
(1.28921 -0.0381596 0.142843)
(1.30807 -0.0414711 0.182162)
(1.35054 -0.036694 0.216154)
(1.38633 -0.0366847 0.221103)
(1.42318 -0.0128177 0.1824)
(1.43651 -0.00199962 0.137324)
(1.51266 -0.00659637 0.150442)
(1.61062 -0.016775 0.158557)
(1.7498 -0.0316777 0.14297)
(1.88181 -0.0542521 0.0484278)
(1.96312 -0.0757125 -0.0717411)
(1.98236 -0.090562 -0.164796)
(1.96477 -0.0965769 -0.20104)
(1.94827 -0.096914 -0.194984)
(1.95821 -0.0912974 -0.17519)
(2.00498 -0.0827696 -0.144782)
(2.0862 -0.0703233 -0.108187)
(2.19715 -0.0600915 -0.0843275)
(2.31114 -0.0597553 -0.113129)
(2.38789 -0.0608241 -0.173438)
(2.39041 -0.0583959 -0.277249)
(2.28437 -0.050121 -0.392372)
(2.0688 -0.0424677 -0.483661)
(1.76834 -0.0366829 -0.540053)
(1.42453 -0.0315563 -0.548815)
(1.07866 -0.0193322 -0.527669)
(0.790393 -0.0244776 -0.459414)
(0.535079 -0.0161457 -0.415612)
(0.281833 -0.0218821 -0.38699)
(0.108817 -0.0410473 -0.360849)
(0.101872 -0.0428516 -0.637426)
(0.0770649 -0.0378038 -0.87351)
(0.0504701 -0.0396151 -1.05815)
(0.01172 -0.0407818 -1.17706)
(-0.0233113 -0.028429 -1.21728)
(-0.0598494 -0.0159685 -1.1704)
(-0.0935547 0.00276328 -1.04228)
(-0.118952 0.0253948 -0.82812)
(-0.121675 0.0792371 -0.565729)
(-0.145193 0.133346 -0.064328)
(-0.190542 0.0288023 0.558829)
(-0.206615 -0.0322143 0.745855)
(-0.225406 -0.000925527 0.915696)
(-0.230651 -0.0431385 1.05943)
(-0.316585 -0.101989 1.1217)
(-0.37027 -0.107057 1.13633)
(-0.368322 -0.229724 1.00006)
(-0.294479 -0.248231 0.769274)
(-0.457812 -0.662719 0.686852)
(-0.486058 -0.539353 0.704235)
(-0.41416 -0.407889 0.830411)
(-0.55145 -0.762165 0.851438)
(-0.68775 -0.8287 0.600137)
(-0.477472 -0.751219 0.797948)
(-0.438068 -0.573337 0.73873)
(-0.786933 -0.523725 0.74379)
(-0.906047 -0.407249 0.852299)
(-0.532391 -0.704037 0.815164)
(-0.441711 -0.576694 0.655993)
(-0.320104 -0.315252 0.396039)
(-0.29843 -0.175397 0.389522)
(-0.281085 -0.139941 0.341572)
(-0.231403 0.120871 0.10315)
(-0.162927 0.291649 -0.422694)
(-0.153447 0.178957 -0.640644)
(-0.132431 0.0258359 -0.916705)
(-0.0871462 -0.0585478 -1.08736)
(-0.0291971 -0.0703925 -1.23513)
(0.0375709 -0.102993 -1.26956)
(0.0970709 -0.0993089 -1.2344)
(0.171235 -0.110237 -1.12042)
(0.215126 -0.124027 -0.920449)
(0.259187 -0.147428 -0.705908)
(0.248288 -0.139794 -0.399018)
(0.415489 -0.0548174 -0.638136)
(0.759291 -0.119246 -0.460628)
(0.707917 -0.108464 -0.418537)
(0.600834 -0.0713751 -0.41444)
(0.509884 -0.105557 -0.427881)
(0.084698 -0.109531 -0.545946)
(0.145323 -0.11989 -0.944923)
(0.236389 -0.225886 -1.09649)
(0.330119 -0.284357 -0.980464)
(0.390738 -0.352393 -0.548066)
(0.20133 -0.000608848 0.16375)
(0.259615 0.104244 0.168034)
(0.42892 -0.323459 0.333798)
(0.515552 -0.528606 0.503304)
(0.544623 -0.521872 0.553034)
(0.412442 -0.234295 0.674331)
(0.471474 -0.336609 0.56737)
(0.486572 -0.607509 0.55404)
(0.702306 -0.671016 0.32218)
(0.744464 -0.485483 0.460845)
(0.795186 -0.344775 0.601211)
(0.230481 -0.223196 0.573713)
(-0.243543 -0.266485 0.820393)
(-0.181265 -0.191172 0.67027)
(-0.676712 -0.298403 0.813204)
(-0.4761 -0.177597 0.685655)
(-0.32534 -0.000332568 0.532674)
(-0.219123 0.171177 -0.295424)
(-0.19366 -0.0497633 -0.619591)
(-0.0571874 -0.170951 -1.10138)
(0.103048 -0.160479 -1.25024)
(0.273185 -0.0907556 -1.11859)
(0.426378 -0.107698 -0.705468)
(0.491061 -0.0742141 -0.63303)
(0.480119 -0.0414315 -0.626546)
(0.515119 -0.0867858 -0.658965)
(0.571246 -0.11977 -0.751627)
(0.386697 -0.0412221 -0.698311)
(0.349414 -0.0789716 -0.676464)
(0.128025 -0.113307 -0.680666)
(-0.110904 -0.0506477 -0.59139)
(0.285456 -0.00277791 -0.604045)
(0.340585 0.009447 -0.628728)
(0.626301 -0.102023 -0.666663)
(0.576069 -0.0999644 -0.419664)
(0.270193 0.0650476 -0.397012)
(0.283834 0.0489655 -0.300465)
(-0.306535 -0.0463886 0.0755643)
(-0.306344 0.14026 -0.0253132)
(-0.281533 -0.0272371 -0.458088)
(0.0825764 -0.199885 -0.585451)
(0.353703 -0.278389 -0.575392)
(0.715216 -0.344048 -0.410661)
(0.803091 -0.417568 -0.380357)
(0.763253 -0.290749 -0.297157)
(0.805064 -0.364507 -0.220936)
(0.820474 -0.485473 -0.286572)
(0.73033 -0.428462 -0.282702)
(0.705475 -0.302194 -0.336548)
(0.735154 -0.25075 -0.345372)
(0.781216 -0.310256 -0.21429)
(0.793386 -0.365795 -0.16276)
(0.885247 -0.465299 -0.157643)
(1.1536 -0.630999 -0.118279)
(1.61336 -0.725845 -0.0991231)
(1.99133 -0.671502 -0.0383582)
(2.1485 -0.489674 0.0471412)
(2.06901 -0.290839 0.0951569)
(1.90412 -0.163042 0.102639)
(1.80684 -0.094881 0.0992149)
(1.7102 4.42069e-05 0.098781)
(1.57276 0.0882493 0.0909288)
(1.43545 0.106442 0.0479149)
(1.33097 0.0566393 0.0271577)
(1.24116 -0.00542534 0.0214338)
(1.13938 -0.0548826 0.0231209)
(1.05545 -0.0795249 0.0212675)
(0.997593 -0.0630571 0.0167774)
(0.821311 -0.110693 -0.0240257)
(0.716389 0.00179979 0.00955533)
(0.63309 0.0679017 0.00871303)
(0.497464 0.0224808 0.00636754)
(0.359301 -0.0613421 -0.0133428)
(0.13898 -0.147166 -0.0323452)
(0.225476 -0.308474 0.00126948)
(0.353229 -0.082062 0.0119706)
(-0.00259019 -0.230422 -0.00925239)
(0.042903 -0.54621 -0.0505345)
(0.0118941 -0.712768 -0.0526739)
(-0.00815035 -0.876706 -0.0532992)
(-0.0261113 -1.00675 -0.0650299)
(-0.0361592 -1.10268 -0.0959515)
(-0.0467183 -1.15704 -0.105256)
(-0.0582784 -1.21431 -0.118395)
(-0.0885281 -1.27602 -0.134389)
(-0.113638 -1.3207 -0.149707)
(-0.137621 -1.35437 -0.162625)
(-0.159654 -1.37598 -0.173683)
(-0.17868 -1.38727 -0.183343)
(-0.194085 -1.38888 -0.190051)
(-0.206232 -1.38176 -0.193906)
(-0.21628 -1.36703 -0.194034)
(-0.224874 -1.34512 -0.19213)
(-0.233194 -1.31463 -0.186697)
(-0.240892 -1.2737 -0.178353)
(-0.246362 -1.21942 -0.165305)
(-0.244249 -1.15025 -0.147547)
(-0.191237 -1.07079 -0.127154)
(-0.14142 -0.968214 -0.112837)
(-0.16603 -0.867817 -0.0797173)
(-0.190079 -0.753985 -0.0821336)
(-0.205319 -0.542598 -0.0857308)
(-0.274234 -0.449776 -0.092214)
(0.0220255 0.0537295 -0.116462)
(-0.350931 -0.307983 0.024947)
(-0.231911 -0.617066 -0.0548752)
(-0.270679 -0.0991497 -0.0113193)
(-0.458339 -0.182326 0.0644757)
(-0.67899 -0.198596 0.0822647)
(-0.842356 -0.209229 0.114113)
(-0.953697 -0.223129 0.144258)
(-1.03428 -0.232549 0.203853)
(-1.11746 -0.244355 0.2454)
(-1.18655 -0.244309 0.302125)
(-1.20024 -0.248607 0.336375)
(-1.17339 -0.250442 0.366263)
(-1.10671 -0.249229 0.394534)
(-0.996303 -0.243637 0.42268)
(-0.842242 -0.230738 0.454034)
(-0.669143 -0.206618 0.493361)
(-0.422059 -0.147597 0.541909)
(-0.140943 -0.117758 0.565166)
(-0.160838 0.0287927 0.821411)
(-0.164889 0.0832003 1.04247)
(-0.16467 0.115528 1.11306)
(-0.165752 0.164742 1.02238)
(-0.168252 0.15353 0.840364)
(-0.153455 0.131242 0.570093)
(-0.121798 0.143715 0.287997)
(-0.22329 0.441558 0.372643)
(-0.504735 0.468984 0.335908)
(-0.689443 0.481741 0.340218)
(-0.914432 0.46654 0.333705)
(-1.09679 0.425708 0.309575)
(-1.22416 0.354154 0.266696)
(-1.28016 0.274032 0.219391)
(-1.26309 0.206687 0.181979)
(-1.23053 0.148405 0.158652)
(-1.18787 0.115658 0.140686)
(-1.09853 0.0929056 0.0904108)
(-0.957066 0.0455023 0.0700391)
(-0.766062 -0.0204505 0.059551)
(-0.499978 -0.11375 0.0190885)
(-0.252688 -0.207713 -0.019081)
(-0.273987 -0.197558 -0.0662322)
(-0.318009 -0.176933 0.00823332)
(-0.314191 -0.174126 0.0593041)
(-0.272354 -0.156515 0.150384)
(-0.380353 -0.233496 0.117897)
(-0.422075 -0.296635 0.117876)
(-0.326063 -0.287685 0.176317)
(-0.26901 -0.214694 0.0441748)
(-0.140509 -0.100515 -0.0270742)
(-0.140582 -0.0766622 -0.00877213)
(-0.138635 -0.0739738 -0.0367692)
(-0.16953 -0.0555405 -0.0689779)
(-0.167927 -0.501214 -0.149813)
(-0.126356 -0.479174 -0.139978)
(-0.110552 -0.446616 -0.0976167)
(-0.100317 -0.4235 -0.147236)
(-0.265912 -0.537383 -0.0324376)
(-0.275462 -0.574583 -0.0268677)
(-0.282576 -0.630745 -0.0854152)
(-0.336397 -0.582213 -0.0214805)
(-0.339453 -0.529374 0.054034)
(-0.300889 -0.35871 0.084144)
(-0.443618 -0.316708 0.114087)
(-0.360696 -0.431334 0.0395631)
(-0.346275 -0.522035 0.0128714)
(-0.377008 -0.507994 -0.0248992)
(-0.427721 -0.394109 0.0312755)
(-0.496478 -0.346253 0.0724643)
(-0.528044 -0.254639 0.163428)
(-0.59029 -0.215265 0.241147)
(-0.679183 -0.197348 0.255807)
(-0.575815 -0.206504 0.211358)
(-0.516297 -0.187617 0.181049)
(-0.544621 -0.184788 0.117769)
(-0.539221 -0.171845 0.0918856)
(-0.495987 -0.183992 0.000795723)
(-0.761107 -0.0863833 0.0645258)
(-0.970832 -0.0051118 0.0896825)
(-1.07819 0.0524832 0.103623)
(-1.12728 0.0754105 0.138294)
(-1.16473 0.0360825 0.238062)
(-1.24906 0.0693144 0.267399)
(-1.31457 0.119755 0.34942)
(-1.32795 0.171268 0.432365)
(-1.27037 0.22238 0.525116)
(-1.14524 0.261325 0.605024)
(-0.972523 0.281435 0.649795)
(-0.772987 0.28312 0.659037)
(-0.621931 0.288005 0.645929)
(-0.342328 0.271924 0.64671)
(-0.436892 0.243525 0.876764)
(-0.469352 0.225877 1.00473)
(-0.462537 0.17805 1.08305)
(-0.443546 0.121903 1.01526)
(-0.442088 0.0572698 0.798461)
(-0.712551 -0.00588646 0.74499)
(-0.723006 0.0704953 0.9458)
(-0.741468 0.116362 1.02437)
(-0.745788 0.163308 0.980377)
(-0.69496 0.197963 0.873442)
(-0.836421 0.185782 0.863314)
(-0.878987 0.145245 0.96577)
(-0.882448 0.0878054 1.00167)
(-0.873144 0.041395 0.927014)
(-0.867103 -0.0395175 0.707337)
(-1.00962 -0.0606465 0.676097)
(-1.02373 0.0201631 0.901632)
(-1.03622 0.0692444 0.966808)
(-1.04385 0.121712 0.944964)
(-1.01832 0.173865 0.85513)
(-1.16172 0.163048 0.805125)
(-1.16269 0.110469 0.893625)
(-1.14644 0.0569835 0.915203)
(-1.12973 0.00624398 0.859873)
(-1.11013 -0.0733127 0.640334)
(-1.16996 -0.0838573 0.595729)
(-1.19502 -0.00632405 0.79728)
(-1.221 0.0435772 0.840708)
(-1.25 0.0918689 0.812336)
(-1.26743 0.141562 0.717841)
(-1.31715 0.111089 0.610963)
(-1.28877 0.0689581 0.709946)
(-1.25057 0.0250349 0.747794)
(-1.21549 -0.0217623 0.716772)
(-1.1858 -0.0935695 0.540003)
(-1.15256 -0.104735 0.472929)
(-1.1803 -0.0413586 0.621691)
(-1.2189 0.000277048 0.641162)
(-1.27307 0.0392985 0.606991)
(-1.30608 0.0744996 0.509676)
(-1.22341 0.0359357 0.414717)
(-1.18659 0.00304444 0.500511)
(-1.12694 -0.0320737 0.53149)
(-1.08493 -0.0600284 0.520419)
(-1.03905 -0.111754 0.386954)
(-0.918319 -0.120107 0.315312)
(-0.922454 -0.109319 0.358274)
(-0.971555 -0.0803112 0.438388)
(-0.955429 -0.086954 0.425162)
(-0.926556 -0.102493 0.394807)
(-1.00324 -0.0682449 0.381566)
(-0.995127 -0.0628519 0.307571)
(-0.999916 -0.0389639 0.282938)
(-1.0431 -0.0269726 0.209292)
(-1.03818 -0.00928121 0.202588)
(-0.805679 -0.104912 0.145399)
(-0.818528 -0.124972 0.157906)
(-0.787443 -0.128166 0.216276)
(-0.823161 -0.141235 0.249402)
(-0.609145 -0.2813 0.132713)
(-0.556176 -0.291001 0.114422)
(-0.50275 -0.326377 0.132003)
(-0.419444 -0.39902 0.115526)
(-0.396227 -0.383522 0.148993)
(-0.487394 -0.283816 0.164855)
(-0.605169 -0.23876 0.183348)
(-0.614312 -0.267435 0.0963779)
(-0.512614 -0.377366 0.043403)
(-0.43885 -0.459433 0.0275364)
(-0.396678 -0.525668 0.0571667)
(-0.383418 -0.69718 0.121433)
(-0.386566 -0.662626 0.127314)
(-0.404819 -0.379907 0.106203)
(-0.40769 -0.535968 0.0806387)
(-0.398621 -0.601275 0.0428555)
(-0.215289 -0.78725 -0.159929)
(-0.193059 -0.792974 -0.260377)
(-0.115159 -0.702992 -0.36963)
(-0.0784387 -0.622998 -0.385608)
(-0.0449987 -0.587675 -0.347913)
(-0.0134615 -0.554648 -0.301442)
(0.0316507 -0.500666 -0.231813)
(0.123999 -0.454166 -0.108731)
(0.124567 -0.578534 -0.121735)
(0.11669 -0.634658 -0.119992)
(0.0848034 -0.692414 -0.157472)
(0.0922425 -0.746895 -0.155715)
(0.100404 -0.803454 -0.174924)
(0.118165 -0.831695 -0.166987)
(0.126166 -0.83838 -0.152743)
(0.126319 -0.824472 -0.1301)
(0.117546 -0.788424 -0.0955894)
(0.103999 -0.731601 -0.0421888)
(0.0361602 -0.650943 0.0341045)
(0.00199451 -0.541677 0.155338)
(0.0166364 -0.294787 0.362145)
(-0.151063 0.0204608 0.448725)
(-0.368706 0.0972807 0.349419)
(-0.393286 -0.0379471 0.257004)
(-0.220186 -0.172983 0.252042)
(-0.181112 -0.189904 0.268701)
(-0.158189 -0.179465 0.215125)
(-0.0922072 -0.145311 0.206648)
(-0.00119526 -0.0381848 0.072757)
(-0.0361202 0.108074 0.081498)
(-0.0810217 0.146255 0.080904)
(-0.0495124 0.211305 0.171756)
(-0.0059989 0.178563 0.193545)
(0.0145697 0.0320286 0.143765)
(-0.0461617 -0.0317662 0.228905)
(0.0240836 0.0894701 0.325557)
(-0.00318305 -0.0663506 0.2879)
(0.0762722 0.141841 0.249556)
(0.0905622 -0.0236231 0.22661)
(-0.0218054 -0.252351 0.455373)
(0.0490755 -0.35536 0.544991)
(0.171915 -0.498282 0.516115)
(0.168639 -0.69003 0.353522)
(0.0762893 -0.814549 0.145565)
(0.0587844 -0.886787 -0.00689719)
(0.0654415 -0.921653 -0.119087)
(0.0633432 -0.948041 -0.197407)
(0.0602925 -0.962671 -0.248602)
(0.0521895 -0.960907 -0.279397)
(0.042043 -0.941047 -0.292816)
(0.0294497 -0.903532 -0.289667)
(0.023846 -0.828646 -0.24977)
(0.00746237 -0.783086 -0.328864)
(0.0436234 -0.702227 -0.225283)
(0.0476933 -0.65213 -0.211226)
(0.0448997 -0.634841 -0.231969)
(0.00475832 -0.700777 -0.325388)
(-0.0224658 -0.740494 -0.383312)
(-0.0572096 -0.775983 -0.411063)
(-0.0730733 -0.842817 -0.401989)
(-0.131648 -0.903238 -0.346532)
(-0.0936562 -0.967577 -0.332781)
(-0.0886438 -0.978205 -0.373766)
(-0.0536169 -0.916856 -0.41843)
(-0.0434434 -0.866787 -0.432183)
(-0.0176428 -0.824457 -0.404498)
(-0.00941766 -0.867776 -0.341493)
(-0.0391019 -0.900228 -0.374561)
(-0.0557857 -0.947031 -0.397124)
(-0.0235117 -0.989978 -0.406282)
(-0.0484264 -1.0584 -0.421265)
(-0.0664114 -1.0412 -0.425006)
(-0.0930598 -0.919121 -0.34584)
(-0.185982 -0.760794 -0.225166)
(-0.197099 -0.614042 -0.0418678)
(-0.0992451 -0.732421 -0.198334)
(-0.0791516 -0.8383 -0.261038)
(-0.0591328 -0.927435 -0.324919)
(-0.0608123 -0.944984 -0.335629)
(-0.0278649 -0.828271 -0.383035)
(-0.0240644 -0.723349 -0.33946)
(-0.0321856 -0.540805 -0.256487)
(-0.0164857 -0.352823 -0.166595)
(0.0362191 -0.0884974 -0.212502)
(-0.245809 -0.432794 0.0724511)
(-0.327025 -0.460399 0.0259558)
(0.217361 -0.119595 -0.243143)
(-0.17281 -0.247075 0.0420901)
(-0.217826 -0.266187 -0.118548)
(-0.258134 -0.268463 -0.104504)
(-0.208215 -0.281347 -0.022211)
(0.0809299 0.141231 -0.220031)
(0.102509 0.0601707 -0.233149)
(0.100668 2.36915e-05 -0.26255)
(0.0957714 -0.000399185 -0.267)
(-0.0805304 -0.428999 -0.203446)
(-0.133416 -0.449401 -0.223901)
(-0.186615 -0.457735 -0.207623)
(-0.249592 -0.444593 -0.169815)
(-0.169213 -0.546817 -0.184826)
(-0.127045 -0.558546 -0.258166)
(-0.0964936 -0.564789 -0.292673)
(-0.0609477 -0.55298 -0.293288)
(-0.05105 -0.741835 -0.350477)
(-0.0818058 -0.756511 -0.333218)
(-0.106531 -0.768872 -0.282621)
(-0.147393 -0.759253 -0.195336)
(-0.134694 -0.820972 -0.182847)
(-0.128965 -0.881828 -0.200881)
(-0.0982773 -0.904393 -0.298265)
(-0.0728199 -0.871442 -0.374957)
(-0.0494301 -0.851141 -0.401588)
(-0.0770417 -0.966612 -0.372026)
(-0.112356 -0.988408 -0.336746)
(-0.138312 -1.0087 -0.284487)
(-0.137431 -1.09132 -0.347555)
(-0.0802407 -1.06554 -0.400268)
(-0.0726829 -1.14318 -0.441715)
(-0.0493132 -1.12156 -0.474289)
(-0.0267612 -1.11244 -0.459498)
(-0.00311645 -1.04054 -0.415903)
(0.0122783 -1.07252 -0.406913)
(-0.0125903 -1.151 -0.47026)
(-0.0398458 -1.17821 -0.494838)
(-0.0687225 -1.2065 -0.463634)
(-0.131817 -1.22716 -0.379607)
(-0.135164 -1.16483 -0.369753)
(-0.283978 -1.04522 -0.225424)
(-0.457937 -1.14488 -0.0769258)
(-0.464339 -1.09888 -0.0674713)
(-0.41653 -1.04445 -0.0648373)
(-0.303317 -1.03493 -0.073966)
(-0.25603 -0.966201 -0.0641945)
(-0.309643 -0.943745 -0.057775)
(-0.342769 -0.848018 -0.0423352)
(-0.378472 -0.712834 -0.038004)
(-0.474191 -0.626257 -0.0368131)
(-0.410328 -0.401182 -0.0342568)
(-0.465493 -0.660279 -0.00589151)
(-0.317217 -0.457303 0.024515)
(-0.638864 -0.398586 0.00544826)
(-0.815649 -0.379304 0.0601729)
(-0.917996 -0.384519 0.0846678)
(-0.96782 -0.397334 0.124408)
(-0.979868 -0.525347 0.0978048)
(-0.940414 -0.68936 0.0653931)
(-0.924181 -0.75008 0.0525186)
(-0.874798 -0.848338 0.0364777)
(-0.859217 -0.895495 0.0305076)
(-0.821429 -0.927675 0.00764207)
(-0.704215 -0.967134 -0.0229873)
(-0.593074 -1.00151 -0.0420069)
(-0.627326 -0.952148 -0.0172093)
(-0.485541 -0.971017 -0.0307495)
(-0.503464 -0.892782 -0.0301646)
(-0.531067 -0.796408 -0.0233264)
(-0.559905 -0.730283 -0.0195208)
(-0.686927 -0.712028 -0.00978192)
(-0.675462 -0.59787 -0.00776318)
(-0.824487 -0.57708 0.0303676)
(-0.918659 -0.559563 0.0504415)
(-0.881672 -0.69691 0.0231784)
(-0.800835 -0.704326 0.0122203)
(-0.778 -0.78943 0.00230309)
(-0.661453 -0.797759 -0.0107592)
(-0.636328 -0.882072 -0.0170312)
(-0.748992 -0.865807 -0.00511695)
(-0.825939 -0.850333 0.00447323)
(-0.863501 -0.772801 0.0135414)
(-0.801946 -0.738665 -0.011744)
(-0.624133 -0.611693 0.00189699)
(-0.847414 -0.659481 0.0117053)
(-0.86817 -0.518233 0.052067)
(-0.870565 -0.379734 0.0581311)
(-0.843212 -0.28213 0.121612)
(-0.832325 -0.302155 0.0765208)
(-0.879046 -0.350598 0.0525821)
(-0.87504 -0.20385 0.129109)
(-0.893903 -0.184205 0.174182)
(-0.760488 -0.161437 0.158511)
(-0.765854 -0.128964 0.259252)
(-0.776937 -0.120652 0.302016)
(-0.820334 -0.108534 0.355385)
(-0.827769 -0.119118 0.352736)
(-0.641346 -0.181518 0.250962)
(-0.606512 -0.173454 0.248335)
(-0.566844 -0.180299 0.215476)
(-0.550626 -0.175442 0.188895)
(-0.568661 -0.191059 0.120315)
(-0.338318 -0.194506 0.0765156)
(-0.31994 -0.189007 0.101449)
(-0.328836 -0.191748 0.113884)
(-0.36 -0.198629 0.124081)
(-0.448444 -0.21666 0.141512)
(-0.404569 -0.253086 0.0593792)
(-0.381457 -0.284603 0.0680142)
(-0.409879 -0.340604 0.0466974)
(-0.315294 -0.426375 0.0354491)
(-0.311149 -0.393878 0.0486067)
(-0.283064 -0.4157 0.0150244)
(-0.192481 -0.418957 -0.0210305)
(-0.336498 -0.253759 0.0350328)
(-0.40217 -0.330431 0.0407664)
(-0.247666 -0.456804 -0.0071181)
(-0.29103 -0.459172 -0.000187222)
(-0.450948 -0.320791 0.0716466)
(-0.523695 -0.298628 0.131049)
(-0.497279 -0.318295 0.136127)
(-0.470435 -0.336459 0.111202)
(-0.458494 -0.350291 0.0941834)
(-0.493256 -0.372868 0.00846044)
(-0.710662 -0.317613 0.0631207)
(-0.717894 -0.529534 0.038889)
(-0.549202 -0.553929 -0.00191182)
(-0.510174 -0.606506 -0.00421398)
(-0.466043 -0.648717 -0.0177483)
(-0.437235 -0.651991 -0.0215713)
(-0.413109 -0.530643 -0.0234465)
(-0.41147 -0.540706 -0.0487023)
(-0.410387 -0.541134 -0.0346644)
(-0.335643 -0.550115 -0.017585)
(-0.267791 -0.595455 -0.00787873)
(-0.319922 -0.580374 -0.00404255)
(-0.403624 -0.512587 0.00675278)
(-0.33222 -0.534971 -0.00463427)
(-0.439157 -0.62987 -0.0121806)
(-0.293142 -0.472854 -0.00560762)
(-0.210688 -0.539282 -0.0189119)
(-0.281475 -0.524183 -0.0167818)
(-0.394607 -0.435732 -0.00106148)
(-0.414008 -0.362482 -0.0106764)
(-0.260832 -0.393924 -0.0115034)
(-0.157209 -0.422466 -0.0369966)
(-0.136584 -0.399007 -0.023329)
(-0.238261 -0.205026 0.0218237)
(-0.382795 -0.34262 -0.0023831)
(-0.2521 -0.474159 -0.0202551)
(-0.219315 -0.467552 -0.0242029)
(-0.122237 -0.392345 -0.0307023)
(-0.219136 -0.194177 0.0386744)
(-0.346886 -0.337659 0.0118129)
(-0.366059 -0.362952 0.0539838)
(-0.195897 -0.510619 -0.0113795)
(-0.174075 -0.467594 0.0181333)
(-0.109966 -0.419743 0.00118147)
(-0.22215 -0.228748 0.044261)
(-0.325724 -0.341549 0.0520734)
(-0.33478 -0.338623 0.0566792)
(-0.180497 -0.462775 0.016172)
(-0.109237 -0.408516 -0.000614481)
(-0.231671 -0.220171 0.0616807)
(-0.285611 -0.221203 0.0770631)
(-0.240148 -0.229964 0.070783)
(-0.349951 -0.336658 0.0781517)
(-0.189484 -0.464875 0.0478033)
(-0.117699 -0.415227 0.0366352)
(-0.140393 -0.449265 -0.00469981)
(-0.196356 -0.497143 0.0251679)
(-0.381336 -0.350352 0.0789176)
(-0.334139 -0.624922 -0.00395)
(-0.355701 -0.631631 -0.0119599)
(-0.499189 -0.51149 0.057827)
(-0.651066 -0.444456 0.0983122)
(-0.666384 -0.286606 0.136383)
(-0.797713 -0.271485 0.170562)
(-0.890387 -0.320691 0.166449)
(-1.02075 -0.488922 0.126032)
(-1.10745 -0.495306 0.167745)
(-1.13234 -0.50302 0.192875)
(-1.11248 -0.505474 0.215833)
(-1.04942 -0.501864 0.238685)
(-0.944197 -0.491038 0.260554)
(-0.795816 -0.467841 0.287148)
(-0.641892 -0.432864 0.326613)
(-0.399657 -0.380724 0.394518)
(-0.167864 -0.290695 0.480739)
(0.0302354 -0.149307 0.48619)
(0.328793 -0.158159 0.42948)
(0.33214 -0.219258 0.381063)
(0.204329 -0.126567 0.491034)
(0.27081 -0.0012675 0.770044)
(0.281829 0.0485341 1.03473)
(0.267391 0.0835776 1.14308)
(0.249958 0.13596 1.09045)
(0.213169 0.12459 0.951242)
(0.143727 0.121472 0.698692)
(0.0411943 0.184639 0.400062)
(0.175528 0.510993 0.422666)
(0.425021 0.514196 0.372519)
(0.612752 0.536154 0.373582)
(0.855203 0.495404 0.350302)
(1.01291 0.416201 0.317155)
(1.07845 0.323703 0.273942)
(1.06613 0.25691 0.233949)
(1.02029 0.211496 0.197348)
(1.04099 0.158431 0.166096)
(1.05079 0.119232 0.143378)
(0.990584 0.0934573 0.0901864)
(0.884113 0.0424844 0.0676205)
(0.717908 -0.0225955 0.0542971)
(0.472345 -0.109756 0.0205052)
(0.244115 -0.217059 -0.0215881)
(0.104372 -0.626058 -0.110151)
(0.180604 -0.387095 -0.0799312)
(-0.179183 -0.17419 0.00675002)
(-0.100235 -0.399254 -0.0405008)
(-0.109195 -0.325845 -0.0673729)
(-0.111399 -0.35707 -0.0759841)
(-0.108224 -0.323674 -0.0676634)
(-0.0789137 -0.260938 -0.0648968)
(-0.133495 -0.216827 -0.052103)
(-0.220484 0.0678492 0.123549)
(-0.154376 0.417674 0.145187)
(-0.0509986 0.552998 0.0830654)
(0.0250159 0.632983 0.0824853)
(0.110423 0.664877 0.168796)
(0.20611 0.714925 0.28438)
(0.300956 0.751357 0.331344)
(0.387115 0.747962 0.36538)
(0.466406 0.687288 0.372986)
(0.532488 0.551544 0.370162)
(0.583525 0.3333 0.334722)
(0.564226 0.0100965 0.260149)
(0.383876 -0.327583 0.251639)
(0.284614 -0.325376 0.316367)
(0.21946 -0.279022 0.325995)
(0.152716 -0.187311 0.333959)
(0.14474 0.0110856 0.309365)
(0.288967 0.0109828 0.335938)
(0.44806 -0.15523 0.328863)
(0.597965 -0.252729 0.341548)
(0.636783 -0.342135 0.351046)
(0.61755 -0.434706 0.353036)
(0.472359 -0.540807 0.335402)
(0.103317 -0.567993 0.319983)
(-0.172997 -0.302701 0.305394)
(-0.0460345 -0.129279 0.356199)
(0.22682 -0.146794 0.237813)
(0.282976 -0.397584 0.0726601)
(0.00978113 -0.512783 0.236056)
(-0.139484 -0.741374 -0.137557)
(0.206912 -0.715986 -0.478402)
(0.30464 -0.385819 -0.175378)
(0.331273 -0.374703 0.0953419)
(0.341789 -0.548961 0.187641)
(0.322105 -0.891874 0.122473)
(0.524635 -0.870391 0.0653021)
(0.600888 -0.688227 0.0984864)
(0.565683 -0.533799 0.139929)
(0.496169 -0.390852 0.190469)
(0.329372 -0.225349 0.247169)
(0.351495 -0.33978 0.197279)
(0.413433 -0.370138 0.144038)
(0.494509 -0.357324 0.082413)
(0.599502 -0.287666 -0.0541433)
(0.850307 0.201574 -0.113227)
(0.89826 0.477587 -0.0184311)
(0.845155 0.674347 0.0535977)
(0.745001 0.771142 0.0954363)
(0.613619 0.794838 0.141983)
(0.465006 0.765461 0.157952)
(0.301345 0.704336 0.167182)
(0.130454 0.634575 0.106241)
(-0.0425664 0.582925 0.0593549)
(-0.167522 0.512496 0.0715192)
(-0.306745 0.392952 0.140532)
(-0.411804 0.129255 0.155452)
(-0.283131 -0.170063 -0.000728211)
(-0.392054 -0.106536 0.0319992)
(-0.470983 -0.0423744 0.0604364)
(-0.543756 0.0662337 0.102939)
(-0.531324 0.0380043 0.0839597)
(-0.49569 -0.090348 0.0210163)
(-0.457891 -0.144569 0.0100625)
(-0.392136 -0.195841 -0.0121033)
(-0.297418 -0.247113 -0.0282043)
(-0.188919 -0.274832 -0.0423405)
(-0.146035 -0.254496 -0.0364247)
(-0.196431 -0.227166 -0.0327747)
(-0.181464 -0.363951 -0.0516833)
(-0.122486 -0.357139 -0.0549191)
(-0.0993825 -0.373589 -0.0826391)
(-0.0760224 -0.409089 -0.118279)
(-0.0468005 -0.584934 -0.233589)
(-0.0838343 -0.525075 -0.170521)
(-0.0980817 -0.615925 -0.135202)
(-0.146824 -0.601268 -0.0703201)
(-0.189742 -0.517958 -0.0502169)
(-0.291189 -0.320212 -0.0122425)
(-0.247259 0.199449 0.13176)
(-0.10165 0.388954 0.279016)
(-0.0108058 0.478349 0.415985)
(0.0633755 0.478618 0.54171)
(0.134756 0.419229 0.61464)
(0.186526 0.3114 0.647385)
(0.237361 0.162505 0.622757)
(0.226017 -0.0078674 0.525289)
(0.093035 -0.127648 0.420263)
(-0.0203779 -0.0923741 0.434149)
(-0.0381128 0.029239 0.409764)
(-0.0349232 0.149732 0.412406)
(0.0388592 0.253298 0.349562)
(0.200909 0.138444 0.363433)
(0.154696 0.280724 0.439096)
(-0.0690582 0.152352 -0.120819)
(-0.177433 -0.064539 -0.636574)
(-0.181443 -0.302428 -0.524665)
(-0.169111 -0.33977 -0.292421)
(-0.146382 -0.297869 -0.090597)
(-0.0621518 -0.58136 -0.104377)
(-0.0281653 -0.858405 -0.093081)
(0.00225912 -1.01651 -0.0913462)
(0.032628 -1.14155 -0.101263)
(0.0660084 -1.22601 -0.115652)
(0.0966439 -1.27944 -0.129705)
(0.123368 -1.30662 -0.141679)
(0.147412 -1.31577 -0.153701)
(0.168325 -1.31434 -0.166123)
(0.186537 -1.30585 -0.176797)
(0.202064 -1.29178 -0.185132)
(0.215876 -1.27249 -0.190123)
(0.228105 -1.24764 -0.192691)
(0.239282 -1.21593 -0.191404)
(0.248801 -1.17612 -0.186109)
(0.254508 -1.126 -0.175204)
(0.251563 -1.06297 -0.158515)
(0.194576 -0.99961 -0.138587)
(0.139617 -0.914364 -0.12233)
(0.164121 -0.830017 -0.0866124)
(0.187372 -0.72915 -0.0878259)
(0.203496 -0.560205 -0.0877292)
(0.246096 -0.442868 -0.0841272)
(0.0716965 -0.0307007 -0.0950033)
(0.365797 -0.298703 0.0440205)
(0.245482 -0.551412 -0.0566634)
(0.285884 -0.0948929 -0.0265614)
(0.180518 -0.0371256 -0.14669)
(0.20182 -0.112885 -0.123787)
(0.194934 -0.11967 -0.0800122)