/*--------------------------------*- C++ -*----------------------------------*\
| =========                 |                                                 |
| \\      /  F ield         | OpenFOAM: The Open Source CFD Toolbox           |
|  \\    /   O peration     | Version:  v2012                                 |
|   \\  /    A nd           | Website:  www.openfoam.com                      |
|    \\/     M anipulation  |                                                 |
\*---------------------------------------------------------------------------*/
FoamFile
{
    version     2.0;
    format      ascii;
    class       volScalarField;
    location    "60";
    object      alphat;
}
// * * * * * * * * * * * * * * * * * * * * * * * * * * * * * * * * * * * * * //

dimensions      [1 -1 -1 0 0 0 0];


internalField   nonuniform List<scalar> 
18258
(
0.0050826
0.00234268
0.00203143
0.0018138
0.0011901
0.0018814
0.00250549
0.00296177
0.00308504
0.0029888
0.00303112
0.0050209
0.00696801
0.00852224
0.00890322
0.00888432
0.00803011
0.00778143
0.00860017
0.0105201
0.00881981
0.0056499
0.00681322
0.0078335
0.00836353
0.00738823
0.00597122
0.00557314
0.00507173
0.00424883
0.0035674
0.00239839
0.0017459
0.0016398
0.0014806
0.00168617
0.00183402
0.00195172
0.00199802
0.00202999
0.00201531
0.00200243
0.00194519
0.00191043
0.00184949
0.00152836
0.00188654
0.00189035
0.00178519
0.00256176
0.0027954
0.00238619
0.00270172
0.00244204
0.00164252
0.00188332
0.0020442
0.00209536
0.00207816
0.00200098
0.00197923
0.00196085
0.00193499
0.00190256
0.00188417
0.00190697
0.00192881
0.00190822
0.00181456
0.00173647
0.00160805
0.00147839
0.00137983
0.00130265
0.00124484
0.00118863
0.0011251
0.000989342
0.000916819
0.00121753
0.00152869
0.0016328
0.00230715
0.002812
0.00282938
0.00209732
0.0014763
0.00152577
0.00170645
0.00174329
0.00148778
0.00180277
0.00207458
0.00217377
0.00226952
0.00252968
0.00274514
0.00262206
0.00282397
0.00293143
0.00292812
0.00290034
0.00267226
0.00344914
0.00356331
0.00347939
0.00331574
0.00329996
0.00341379
0.00377264
0.00319892
0.00294272
0.00287897
0.00287259
0.00256234
0.00261201
0.00234223
0.00210889
0.0022826
0.00283363
0.00269515
0.00296174
0.00306124
0.0028663
0.00332269
0.00384155
0.00376541
0.00300867
0.00237249
0.00221167
0.00223204
0.00136305
0.00147286
0.00163459
0.00167372
0.00169161
0.00170876
0.00180255
0.00179833
0.0017753
0.00177328
0.00184065
0.000998772
0.00107402
0.00109895
0.00110675
0.00106186
0.00105745
0.001043
0.00102816
0.000944029
0.000900156
0.00108063
0.00121603
0.00132617
0.00144992
0.00164819
0.00188771
0.00213507
0.00238151
0.00254189
0.00258257
0.00262507
0.00252408
0.00242362
0.00250528
0.00251752
0.00250085
0.00246886
0.00242722
0.00236806
0.00225734
0.00238116
0.00237672
0.00223574
0.00189999
0.00194146
0.00193428
0.00198279
0.00197154
0.0019928
0.001969
0.00194262
0.00185715
0.00173992
0.00149131
0.00141621
0.00145069
0.00187819
0.00229207
0.00355511
0.00435567
0.00507957
0.00544265
0.00586314
0.00472475
0.0052503
0.00402314
0.00361626
0.00460952
0.00603158
0.00343558
0.00186792
0.00353498
0.00312199
0.00223742
0.00198179
0.00202975
0.00203371
0.00231252
0.00262751
0.00287939
0.00299619
0.00311807
0.00320263
0.00330741
0.00344167
0.0034786
0.00336152
0.00285049
0.00339643
0.00270387
0.00311007
0.0027706
0.00182232
0.00238116
0.00244948
0.00219592
0.00210545
0.00200746
0.00182143
0.00236291
0.00302313
0.00345751
0.00391245
0.00520801
0.0048002
0.00458952
0.00357051
0.00344297
0.00181557
0.00259358
0.00265561
0.00297722
0.00197749
0.00179332
0.00166736
0.00214068
0.00242816
0.00285204
0.00315669
0.00377135
0.00284532
0.0032039
0.00287665
0.00197436
0.00193205
0.00279349
0.00303071
0.00254258
0.00231082
0.00282772
0.00265605
0.00187441
0.00153371
0.00236797
0.00248414
0.00187575
0.00419756
0.00434089
0.00428815
0.00522562
0.00667994
0.00772199
0.00707785
0.00628837
0.00717316
0.0056015
0.00533816
0.00571694
0.00477421
0.00340128
0.00355343
0.00373601
0.0038614
0.00415905
0.00442577
0.00474742
0.00511131
0.00468388
0.00392819
0.00301031
0.00212062
0.00212039
0.00210764
0.00188963
0.00279653
0.0041772
0.0040977
0.00231281
0.0013636
0.00156183
0.00176445
0.0017385
0.00123804
0.000938142
0.00161544
0.00184231
0.0018686
0.00181962
0.00171616
0.00179153
0.00287632
0.00443103
0.00486952
0.00504309
0.00520632
0.00532056
0.00538229
0.00539939
0.00540767
0.00541937
0.00543049
0.00544914
0.00543293
0.00531798
0.00467761
0.00293885
0.00172088
0.00160337
0.00177115
0.00190536
0.0020243
0.00172527
0.00105112
0.0016811
0.00214963
0.00246541
0.00248435
0.00231727
0.00224684
0.0035419
0.00470978
0.00555149
0.00571979
0.00579186
0.00572291
0.00570789
0.00557498
0.00552594
0.00483558
0.00349125
0.0038227
0.00410815
0.00416175
0.00426298
0.004413
0.00431191
0.00406898
0.00597525
0.00685234
0.00694556
0.00709437
0.0069982
0.00685186
0.00650349
0.0061179
0.00514204
0.00385169
0.00242504
0.00247282
0.00263035
0.00260322
0.00226518
0.00239892
0.00261156
0.00263853
0.00272771
0.00306411
0.00348636
0.00331931
0.00284094
0.00242418
0.00226265
0.00222803
0.00214607
0.00162107
0.00163719
0.00158071
0.00159764
0.00212881
0.00253222
0.00292438
0.00416956
0.00371894
0.00302269
0.00484848
0.00495784
0.00533935
0.00589999
0.0060574
0.00677311
0.00465827
0.00417236
0.00428437
0.00349145
0.00322646
0.00325469
0.00326514
0.00302971
0.00331637
0.00328692
0.00316849
0.00350022
0.00387834
0.00512313
0.00623277
0.00660208
0.00682519
0.00692122
0.00689115
0.00672828
0.00674278
0.00591517
0.00588081
0.00564273
0.00547928
0.00541612
0.00513157
0.00590543
0.00614067
0.00621854
0.00637247
0.00660963
0.00645607
0.0062523
0.00609881
0.00598526
0.00586056
0.00593337
0.0060541
0.00617873
0.00635126
0.00658292
0.00663417
0.00639587
0.00621261
0.00608328
0.00596091
0.00597118
0.00608144
0.00620807
0.00638128
0.00659375
0.00646494
0.00630652
0.00615544
0.00602852
0.00591445
0.00570755
0.00585159
0.00600706
0.00613162
0.00620275
0.0053422
0.00572529
0.00563097
0.00509711
0.00476777
0.00361882
0.00391672
0.00413087
0.00449823
0.00498952
0.00508217
0.00425366
0.00363989
0.00353634
0.00350548
0.00358575
0.00361803
0.00364447
0.00412454
0.00636703
0.00639399
0.00637007
0.00634728
0.00538721
0.00524334
0.00491051
0.00922513
0.00852281
0.00731075
0.00594035
0.0031529
0.00270376
0.00321016
0.00390327
0.00435892
0.00480415
0.00319359
0.00196333
0.00227789
0.00234485
0.00226312
0.00208409
0.00174081
0.00160567
0.00145317
0.00156426
0.00278532
0.00447477
0.00504299
0.00508838
0.00501592
0.00486807
0.00462925
0.00450447
0.00737323
0.00864872
0.00914527
0.00936024
0.00916782
0.00790281
0.00677122
0.0040322
0.00226407
0.00197123
0.00203306
0.0020111
0.00217182
0.00231074
0.00206219
0.00205042
0.00200156
0.00352371
0.00583087
0.00649073
0.00777466
0.00833515
0.00818213
0.00743814
0.00610127
0.00496313
0.00518231
0.00529326
0.00537649
0.00542791
0.00539472
0.00490004
0.00300579
0.00179134
0.0015851
0.00169793
0.00199372
0.00212922
0.00216673
0.00215003
0.00187412
0.00312221
0.00494648
0.00315006
0.00170908
0.00183659
0.00181262
0.00320235
0.00320981
0.00315973
0.00491542
0.00522552
0.00524347
0.00492194
0.0046817
0.00277255
0.00317253
0.00318818
0.00320536
0.0032554
0.00164596
0.00179576
0.00185328
0.00199771
0.00173325
0.00216677
0.000561657
0.000784391
0.000912916
0.00100398
0.00108375
0.00106189
0.00204891
0.00209493
0.00199187
0.00190722
0.0024238
0.00260891
0.00265846
0.00243897
0.00224771
0.00239462
0.0024064
0.00226932
0.00214753
0.00222267
0.00222037
0.0021291
0.00181039
0.00169654
0.00186142
0.00184365
0.00183075
0.00328126
0.00327586
0.00310091
0.00509939
0.00502091
0.00562232
0.00557766
0.00554134
0.00548737
0.00554876
0.0056106
0.00566117
0.00569792
0.00568883
0.0056326
0.00806482
0.0055419
0.00483571
0.00279829
0.00269588
0.00190428
0.00167077
0.0019685
0.00210635
0.00228461
0.00223419
0.00235242
0.00234819
0.00249215
0.00231195
0.00205186
0.00314136
0.00335655
0.00327849
0.00334335
0.00326373
0.00324384
0.00322002
0.00317469
0.0031196
0.00185835
0.00182339
0.00213659
0.00224388
0.00241158
0.00243254
0.00248553
0.00235599
0.00207103
0.00200458
0.00230964
0.00227813
0.00232355
0.00218973
0.00217979
0.0019413
0.00199106
0.00402485
0.00753783
0.00381997
0.00425617
0.00385578
0.00440149
0.00384074
0.00330413
0.00337735
0.00297212
0.00309971
0.0032503
0.00330865
0.00347681
0.00409816
0.00393922
0.00345786
0.00335885
0.00329461
0.00310973
0.00279948
0.00292621
0.00294677
0.00300738
0.00334273
0.00383907
0.00429511
0.00524578
0.00508294
0.00444
0.00406254
0.00425169
0.00433559
0.00547738
0.00509949
0.00508173
0.00539133
0.0053658
0.00508822
0.00480548
0.00462925
0.00396728
0.00403991
0.00462966
0.00447032
0.00460031
0.00451027
0.00469861
0.00477466
0.00457206
0.00424027
0.00449373
0.00449554
0.00498117
0.00482891
0.00447694
0.0040761
0.00437964
0.00436077
0.00502131
0.00470599
0.00440357
0.00404904
0.00391219
0.00444141
0.0043442
0.00491438
0.00507593
0.0050874
0.00444702
0.00432462
0.00513235
0.00493775
0.00479768
0.00499791
0.00415494
0.00423366
0.00521922
0.00532478
0.00507012
0.00425836
0.0042834
0.00365997
0.00429983
0.00536787
0.00507098
0.00415802
0.00348435
0.00483962
0.00508346
0.0053866
0.00508931
0.00553939
0.00598747
0.00486418
0.00530681
0.00697188
0.00525149
0.0060969
0.00622895
0.00625776
0.0062487
0.00625655
0.0062677
0.00657656
0.00634979
0.00408976
0.00486958
0.00477711
0.00402024
0.00343692
0.00378343
0.00407754
0.00414211
0.00425345
0.00442014
0.00433964
0.0041452
0.00601531
0.00686511
0.00701761
0.00716955
0.0070407
0.00685076
0.00646477
0.00605157
0.00507931
0.0038011
0.00239115
0.00244081
0.00260322
0.00258325
0.00224484
0.00168878
0.00111938
0.0016625
0.00174149
0.00165984
0.00153333
0.0013866
0.00148116
0.0026343
0.00423485
0.00476564
0.00475933
0.00456407
0.00559744
0.00753643
0.0084567
0.00899692
0.00931787
0.00948956
0.00951152
0.00929343
0.00844857
0.00810627
0.00767278
0.00732717
0.00688496
0.00651435
0.00732532
0.00801781
0.00843218
0.0088917
0.00907274
0.00895513
0.00780716
0.00777914
0.00895137
0.0109299
0.00922254
0.0115739
0.0137326
0.01076
0.00963488
0.00955118
0.0105166
0.0107382
0.0104086
0.00984454
0.00918077
0.00832753
0.00871534
0.00906174
0.00938733
0.00967137
0.0105614
0.0107681
0.0106968
0.0104739
0.0101067
0.00951857
0.00855257
0.00649425
0.00472552
0.00495535
0.00503026
0.00448522
0.00252068
0.00281843
0.00280873
0.00282218
0.00278592
0.00131746
0.0014621
0.00149462
0.00152601
0.00143325
0.00165807
0.00236632
0.00376476
0.00285602
0.00250227
0.00149749
0.00169423
0.00283853
0.00467435
0.005183
0.00521383
0.00511508
0.00503095
0.00619151
0.00771427
0.00830824
0.00869006
0.00870939
0.0084675
0.0080062
0.00733376
0.00712798
0.00677729
0.0065195
0.00642838
0.00621267
0.00584727
0.00463098
0.00435002
0.00453252
0.00447225
0.00426773
0.00455638
0.00471905
0.00471331
0.00476403
0.00480895
0.00495047
0.00511722
0.00526223
0.0053379
0.00536541
0.00537347
0.00538365
0.00539162
0.00540758
0.00538925
0.0052722
0.00463199
0.00290393
0.00169892
0.00157122
0.00172245
0.00182156
0.00186404
0.00165712
0.00106738
0.00165765
0.00214528
0.00219591
0.00240593
0.00247698
0.00261769
0.00290754
0.00335647
0.00346188
0.00307697
0.0029215
0.00286459
0.00278969
0.00242356
0.00302268
0.00328674
0.0032784
0.00323898
0.00349403
0.00429241
0.00413084
0.00364961
0.00362041
0.00358634
0.0032917
0.00325204
0.00349635
0.00353107
0.00364649
0.00426569
0.00510149
0.00474177
0.00432849
0.00417461
0.00386369
0.00345569
0.00312781
0.0037215
0.00312521
0.00182507
0.00172561
0.00148667
0.00146528
0.00143707
0.00170747
0.00180616
0.0018671
0.00174795
0.00191893
0.00210861
0.0020044
0.00222364
0.00220746
0.00201539
0.0019359
0.00201098
0.00207537
0.00220399
0.00230688
0.00381931
0.00404939
0.00314559
0.00443986
0.0049232
0.0046575
0.00501383
0.00423156
0.00389234
0.00458784
0.00516425
0.00571014
0.00461304
0.00443217
0.00445165
0.00209732
0.00110537
0.00155938
0.00194484
0.00219949
0.00214456
0.00202042
0.00170838
0.00302588
0.00307726
0.00480438
0.00537023
0.00542596
0.00538939
0.00531017
0.00540906
0.00624377
0.00714614
0.00779857
0.00783739
0.0075034
0.00680806
0.00618303
0.00624056
0.00610264
0.00601856
0.00603082
0.00524261
0.00457414
0.00487157
0.00478439
0.00494125
0.00501179
0.00506139
0.0051121
0.00519995
0.00530645
0.00540204
0.00546655
0.00550857
0.00554373
0.00557956
0.00561409
0.00565054
0.00566514
0.00560415
0.00506179
0.00305519
0.00182924
0.00167308
0.00178561
0.00209757
0.00220867
0.00237491
0.00211224
0.00111213
0.00130522
0.00227091
0.00250987
0.00232061
0.00217247
0.00212854
0.00178404
0.00321318
0.00316532
0.00494089
0.00556195
0.00564924
0.00564383
0.00560984
0.00556917
0.00552981
0.00549816
0.00547417
0.00544834
0.00540871
0.0053603
0.00531308
0.0052627
0.00517329
0.00504425
0.00490705
0.00507997
0.00522493
0.00543688
0.00567729
0.00581151
0.00570818
0.00554221
0.00546026
0.00547869
0.00551621
0.00555572
0.00559014
0.00560237
0.00552677
0.00519977
0.00488013
0.00310369
0.00314301
0.00156002
0.00173602
0.00200132
0.00206582
0.00224907
0.00224038
0.0017675
0.00137819
0.00155102
0.00144483
0.00257179
0.00282305
0.00311955
0.00308763
0.0016888
0.00173175
0.00180156
0.00203525
0.00189931
0.00182922
0.00437121
0.00423125
0.0044637
0.00545551
0.00470797
0.00326483
0.00357458
0.0049697
0.00523542
0.00317349
0.00238901
0.00264232
0.00334109
0.0049182
0.00497394
0.00471941
0.00469911
0.00344005
0.00423979
0.00509976
0.00495149
0.00386584
0.00266199
0.00198949
0.000980763
0.00186499
0.00159645
0.00389172
0.0043031
0.00424605
0.00462977
0.00492954
0.00497968
0.00482829
0.00429977
0.00438584
0.00442447
0.00502754
0.00503554
0.00428548
0.00361476
0.00294987
0.00296922
0.00301946
0.00333916
0.00417717
0.00393954
0.00345838
0.00336079
0.00329561
0.00310622
0.00280508
0.00246734
0.00248352
0.00231159
0.00223732
0.00352406
0.00468666
0.00552422
0.00568645
0.00574872
0.00566654
0.00563379
0.00548148
0.00540814
0.00470901
0.00604321
0.00636224
0.00612166
0.00615234
0.00617616
0.00620788
0.00619397
0.00606938
0.00522649
0.00312659
0.00204417
0.00230703
0.00249065
0.00234011
0.00232551
0.00247694
0.00234893
0.00206291
0.00334079
0.00326224
0.00520734
0.00588583
0.00602186
0.00604869
0.00604154
0.00603861
0.00606128
0.00639665
0.00625324
0.00625798
0.00646737
0.00651385
0.00661356
0.00622272
0.00615857
0.00612432
0.00610422
0.00605879
0.0059143
0.00523302
0.00507052
0.00575673
0.00592992
0.00599957
0.00604462
0.00610163
0.00618587
0.00643524
0.00661339
0.00664178
0.00646866
0.00642167
0.00626649
0.00603992
0.00597986
0.00595431
0.0059344
0.00588517
0.00572164
0.00504134
0.00324531
0.00332642
0.00198069
0.00199524
0.00229883
0.00241615
0.00237431
0.00219947
0.00214526
0.00365623
0.00415508
0.00443154
0.00475101
0.00453572
0.00451383
0.00515425
0.00498869
0.00444793
0.00462752
0.00416297
0.00397221
0.00380698
0.0038172
0.00204982
0.00221077
0.00230457
0.00226462
0.0021652
0.0019298
0.00176943
0.00322479
0.00320151
0.00315683
0.00188283
0.00184267
0.00217125
0.00210986
0.0019313
0.00164636
0.00180338
0.00277507
0.00310111
0.00480131
0.00496599
0.00532495
0.00569548
0.00584709
0.00590647
0.00594077
0.00597835
0.00603787
0.00611281
0.00613391
0.0061177
0.0061449
0.00616712
0.00616119
0.00611008
0.00605886
0.00601001
0.0059631
0.00588951
0.00573282
0.00535771
0.00499151
0.00562697
0.00568013
0.00579031
0.00590858
0.00596243
0.00598107
0.00597656
0.00595738
0.00593402
0.00588897
0.00587339
0.00598197
0.00599898
0.00601181
0.00598681
0.00597518
0.0059712
0.00594732
0.00589294
0.00576652
0.00565254
0.00559886
0.00550722
0.00565532
0.00572133
0.00573838
0.00580301
0.00590303
0.00593085
0.00591588
0.00586674
0.00582379
0.00579353
0.00574576
0.00569229
0.0054835
0.00553795
0.00561447
0.00569986
0.00578348
0.0058513
0.00588384
0.00587078
0.00579672
0.00574793
0.00574143
0.00568623
0.00571448
0.0057534
0.005741
0.00575933
0.00579202
0.00576264
0.00566927
0.00553469
0.00538762
0.00525716
0.005165
0.00505407
0.00532372
0.00542386
0.00551264
0.00559931
0.00570572
0.00581679
0.00587853
0.00587771
0.00580534
0.00575859
0.00574837
0.00569039
0.00568931
0.00574682
0.00575907
0.00580109
0.00586855
0.00583267
0.00570816
0.00550544
0.00531436
0.00517308
0.00505354
0.00490474
0.00468017
0.00479328
0.00486369
0.00502867
0.00523296
0.0054531
0.00562952
0.00571203
0.00570538
0.0057069
0.00573077
0.00570331
0.00568142
0.00569618
0.00566354
0.00564071
0.00560286
0.00546686
0.00523447
0.00500229
0.00484785
0.00483682
0.00489429
0.00480552
0.00464379
0.0048169
0.00492382
0.00505995
0.00527403
0.00554724
0.00574146
0.00581696
0.00578503
0.00575267
0.00573691
0.00568043
0.00566436
0.00571936
0.00574
0.00577945
0.00581071
0.00572292
0.00553402
0.00521889
0.00488629
0.00478316
0.00471926
0.00457987
0.00482451
0.00492856
0.00484811
0.00480353
0.00499234
0.00521782
0.00543066
0.00556142
0.00558797
0.00561534
0.00565336
0.00565124
0.00560653
0.00558611
0.00554431
0.00552385
0.00551288
0.00543511
0.00528129
0.0051257
0.00499995
0.0051337
0.00513385
0.00502689
0.0048095
0.00494431
0.00509285
0.00503673
0.00527566
0.00554292
0.00570081
0.00576323
0.0057315
0.00569249
0.00567309
0.00563279
0.00557903
0.00558227
0.00559938
0.00568482
0.00575843
0.00573885
0.00570344
0.00555128
0.00533416
0.00535102
0.00500798
0.00482142
0.00505875
0.0051787
0.0052251
0.00516488
0.00536939
0.00546302
0.00550622
0.0055279
0.00549057
0.00544524
0.00548286
0.00554543
0.00547046
0.00516009
0.00486564
0.00503472
0.00505976
0.00502296
0.00495392
0.00486278
0.00464047
0.00508645
0.00545111
0.00544029
0.00520128
0.00527807
0.00524444
0.00483402
0.00506671
0.00518526
0.00524497
0.00527089
0.00521667
0.00500828
0.0052712
0.00550443
0.00545614
0.00494964
0.00323297
0.00328236
0.0033076
0.00331166
0.0032593
0.00324569
0.00318909
0.00316153
0.00307976
0.00299918
0.00292401
0.00311706
0.00328652
0.00350989
0.00351973
0.00360603
0.00343666
0.00324638
0.00302079
0.00236567
0.00300189
0.00358044
0.00382216
0.00412792
0.00420257
0.00488493
0.00513504
0.00525777
0.00514394
0.00412932
0.00350034
0.00279538
0.00181761
0.0011312
0.00132587
0.00137722
0.00144015
0.00174944
0.0032856
0.00165799
0.00231305
0.00180594
0.00313279
0.00158499
0.00102332
0.000680412
0.000869594
0.00104027
0.00105254
0.00101113
0.000845965
0.00066907
0.000684339
0.000636065
0.0006762
0.000602269
0.000690321
0.000646332
0.00101881
0.0014356
0.00156183
0.00158589
0.00127739
0.00143309
0.00119722
0.00137663
0.0012278
0.00133766
0.00128281
0.00156872
0.00171983
0.00164847
0.00165505
0.00144958
0.00101546
0.00117654
0.000924517
0.00110971
0.00084797
0.0010946
0.000938687
0.00121919
0.00125589
0.00125155
0.00120444
0.000919669
0.00108839
0.000856504
0.00105424
0.000862704
0.000925159
0.000771284
0.00111743
0.00113811
0.00104927
0.0011146
0.00125125
0.0013446
0.00148276
0.00140596
0.00159569
0.00153844
0.00155421
0.00147285
0.00143487
0.00140353
0.00140792
0.00138588
0.00139445
0.00144038
0.0014439
0.00145118
0.00149791
0.00147661
0.00144013
0.00141748
0.0012589
0.00101491
0.00176725
0.00182229
0.00184826
0.00184639
0.00180374
0.00178415
0.00172664
0.0017101
0.0016599
0.00162771
0.00155895
0.00149896
0.0014331
0.00160674
0.000898052
0.00101898
0.00107527
0.00110586
0.00112801
0.00113773
0.00114639
0.00114007
0.00112647
0.00109873
0.00108924
0.00105928
0.00135629
0.00154289
0.00161393
0.0016336
0.00153069
0.00145644
0.00319174
0.00385782
0.0058675
0.00599149
0.00449817
0.00448346
0.00154944
0.00163077
0.00111748
0.00156975
0.00161732
0.00159961
0.00150967
0.00108729
0.00162799
0.00113302
0.00153195
0.00115028
0.0014367
0.00118284
0.00168512
0.00214775
0.00207266
0.00187725
0.00128736
0.00107505
0.00107345
0.000922283
0.00100605
0.000827915
0.00101519
0.000862533
0.00139189
0.00187017
0.00200995
0.00204022
0.0016053
0.00221132
0.00166422
0.00240308
0.0019016
0.00233872
0.00187224
0.00216658
0.00267983
0.00269269
0.00263106
0.00212339
0.00170762
0.00191581
0.00169915
0.00195525
0.00281757
0.00184848
0.00279831
0.00115887
0.00157977
0.00162787
0.00160502
0.00151279
0.00101861
0.00258822
0.00136776
0.00243814
0.00157995
0.00254417
0.00184805
0.00244845
0.00292978
0.00306155
0.00304505
0.00248422
0.00224068
0.00231018
0.00185166
0.00221879
0.00165787
0.00240373
0.0013547
0.00178213
0.00197694
0.00206885
0.00208044
0.00171842
0.00336717
0.00211266
0.00318376
0.00220955
0.0028267
0.00226274
0.00247457
0.00291959
0.00290309
0.0028811
0.00244519
0.00198117
0.00261484
0.00186891
0.0550305
0.1276
0.0505302
0.128574
0.0582088
0.0825976
0.0814159
0.0816419
0.0820245
0.0617082
0.134706
0.158997
0.165729
0.167671
0.166379
0.268972
0.219333
0.329881
0.214237
0.125895
0.054513
0.0754387
0.19466
0.321383
0.481414
0.610377
0.415679
0.430228
0.274506
0.270762
0.255029
0.206447
0.126547
0.0635116
0.0108904
0.0119396
0.0171623
0.0229286
0.0181571
0.0111705
0.00217828
0.00224883
0.00229967
0.00233121
0.00232332
0.00227586
0.00231719
0.00221536
0.00209205
0.00234946
0.00254826
0.00228204
0.0027207
0.00310616
0.00275838
0.00314763
0.00342748
0.003645
0.00380473
0.00401702
0.00425244
0.00448911
0.0045384
0.00419601
0.00359026
0.00296542
0.00255773
0.00244118
0.00230195
0.00202641
0.00185574
0.00175755
0.00169443
0.00165896
0.00169281
0.00184024
0.00195671
0.00199273
0.00193803
0.0018991
0.00186444
0.00165686
0.00193201
0.00264988
0.00269386
0.00461227
0.00531592
0.00542414
0.00542823
0.00485321
0.00311273
0.00312013
0.00313698
0.00319905
0.00321042
0.00321251
0.00320677
0.00318529
0.00316722
0.00313312
0.00311884
0.00307859
0.00303938
0.00294592
0.00294996
0.00298565
0.00301617
0.00298797
0.00301556
0.00294997
0.00301622
0.003878
0.00522271
0.00561922
0.00590645
0.00570088
0.00759726
0.00606505
0.0048262
0.00492396
0.00484904
0.00557682
0.00551576
0.00528628
0.00543224
0.00502491
0.00310083
0.00308088
0.00307879
0.00317999
0.0032176
0.00327049
0.00328444
0.0033133
0.00332893
0.00334386
0.00334702
0.00332989
0.00331225
0.00323258
0.00320661
0.00319669
0.00176006
0.00192515
0.00200311
0.00201323
0.00203496
0.00202237
0.00199741
0.00197518
0.00195829
0.00193905
0.00192433
0.00189071
0.00182135
0.0016647
0.00183516
0.0031364
0.00312661
0.00518618
0.00570412
0.00567333
0.00592039
0.00579926
0.00557045
0.00580533
0.00560043
0.00560585
0.0050833
0.00314225
0.0031879
0.0018785
0.00185772
0.00216183
0.00210064
0.00220501
0.00223333
0.00221754
0.00223025
0.00225952
0.00229229
0.00236848
0.00238131
0.00235405
0.00235152
0.00220252
0.00189473
0.00191806
0.00227443
0.00240278
0.00221787
0.00217006
0.00215787
0.0020924
0.00205551
0.00201987
0.00206439
0.00224641
0.00227862
0.00224367
0.00216315
0.00210558
0.00184061
0.00177908
0.00314212
0.00316017
0.00509883
0.00534175
0.00512994
0.00537617
0.00575919
0.0065932
0.00544496
0.00463161
0.00526799
0.00594034
0.00436653
0.00367423
0.00213763
0.00173509
0.00205213
0.00203653
0.00209991
0.00217687
0.00191041
0.00204405
0.00186921
0.00169379
0.0016742
0.00166788
0.00170816
0.0017241
0.00175424
0.00175785
0.00181054
0.00180526
0.00180712
0.00182886
0.00184659
0.00204226
0.00223337
0.0018781
0.00158735
0.00153537
0.0014493
0.00138158
0.00141732
0.00137683
0.00136889
0.00134457
0.00132321
0.00126371
0.0013219
0.00141055
0.00165898
0.00159163
0.00127997
0.00113772
0.000776581
0.000787798
0.000793088
0.000817463
0.000825874
0.000836267
0.000839937
0.000853469
0.000855645
0.000859855
0.000859348
0.000884508
0.000881012
0.000869674
0.000863133
0.000866541
0.00086995
0.000869487
0.00127429
0.00142145
0.00156939
0.0018667
0.0021967
0.00189634
0.00160682
0.00137122
0.000878039
0.000890538
0.000910614
0.000919344
0.000941999
0.000960355
0.000982029
0.000994405
0.00100423
0.00101301
0.00102297
0.00102517
0.00102174
0.000999525
0.00098695
0.00100998
0.00110635
0.00116277
0.00123493
0.0012617
0.0012817
0.00129047
0.00128408
0.00129763
0.0012817
0.00127885
0.00125635
0.00124611
0.00123648
0.0012241
0.00120944
0.00117396
0.00116183
0.00122178
0.00207203
0.0027131
0.00313126
0.00345736
0.00316783
0.0025463
0.00270331
0.00476718
0.0044924
0.0026599
0.00248168
0.00228459
0.00202005
0.00156627
0.00165561
0.00208399
0.00239242
0.00267483
0.00291488
0.00307981
0.00325432
0.0034591
0.00384442
0.00391353
0.00358487
0.00295854
0.00257736
0.00246075
0.00238756
0.00223987
0.0020792
0.00211427
0.00212818
0.00206204
0.00197376
0.00193519
0.00196078
0.00197866
0.00194852
0.00194293
0.00173072
0.00173287
0.00295339
0.00304466
0.00467717
0.00491934
0.00495964
0.00320193
0.00315572
0.00184321
0.00171127
0.00186711
0.00193706
0.00194053
0.00194888
0.00193551
0.00190364
0.00187977
0.00185504
0.00183359
0.00181915
0.00178619
0.00172489
0.00158845
0.00174115
0.00196503
0.00204558
0.00206271
0.00206517
0.00209305
0.00213682
0.00217444
0.002262
0.00227635
0.00227006
0.00227756
0.00213502
0.00220224
0.00186508
0.00186459
0.00323181
0.00322869
0.00185559
0.00219022
0.00219925
0.00216094
0.00232676
0.00213527
0.00207318
0.00205839
0.00198114
0.00194115
0.00188899
0.00185783
0.00190286
0.00203186
0.00198458
0.00174261
0.00171937
0.00192412
0.00182848
0.00151818
0.00129667
0.00125671
0.0011989
0.00116187
0.00121229
0.00124902
0.00126929
0.00129531
0.00130268
0.001353
0.00131768
0.00138503
0.00146802
0.00152732
0.00181113
0.00196623
0.00177701
0.00174823
0.00172661
0.00172178
0.00172646
0.00166363
0.00166019
0.00162873
0.00161331
0.00157194
0.00155311
0.00152942
0.00153821
0.00155873
0.00171663
0.00450622
0.00574962
0.00603734
0.0102374
0.00413801
0.00424812
0.00840426
0.00339579
0.00516384
0.00559772
0.00581743
0.00602966
0.00549791
0.00698725
0.00480881
0.00527128
0.0057461
0.00549314
0.00183086
0.00169088
0.00142243
0.00128142
0.00121746
0.000882895
0.00114595
0.00125096
0.00132237
0.00136791
0.0014003
0.0014374
0.0014697
0.00149583
0.00150354
0.00146776
0.00142631
0.0013256
0.00129265
0.00134286
0.00139603
0.00123958
0.00117113
0.00118616
0.00120963
0.00122197
0.00122716
0.00124102
0.00124677
0.00126806
0.00125955
0.00127058
0.00125291
0.00126594
0.00124578
0.00119829
0.00114031
0.00103483
0.00100719
0.00145079
0.00154869
0.00162918
0.00183831
0.00212212
0.00227075
0.00203116
0.00185433
0.00177937
0.00198039
0.00195567
0.00354749
0.00680398
0.00304255
0.00345614
0.00999658
0.00394029
0.00310517
0.00315761
0.00319081
0.0031916
0.00186142
0.00220459
0.0021266
0.00212431
0.00179993
0.00150989
0.00136119
0.00121908
0.000825844
0.000822928
0.000829131
0.000841091
0.000844653
0.000812598
0.000812667
0.000809085
0.00080775
0.000793431
0.000789438
0.000777826
0.00077119
0.000753889
0.000744866
0.000726504
0.0007212
0.000690865
0.000685554
0.00068424
0.00101553
0.00111735
0.0012122
0.00144807
0.00391698
0.00434902
0.00591226
0.00587438
0.00942935
0.00580402
0.00439512
0.0040127
0.00593308
0.00600051
0.0059394
0.00866833
0.00582285
0.00374239
0.00351488
0.00363631
0.00559393
0.00554738
0.00528598
0.00583449
0.00566623
0.00199855
0.00185299
0.00205727
0.00226157
0.00267161
0.00210021
0.00255094
0.00225259
0.00170266
0.00163597
0.00520183
0.00680626
0.00482533
0.00499001
0.00744661
0.00326769
0.00321546
0.00293089
0.00244896
0.00224173
0.00217786
0.00240341
0.00285932
0.00768727
0.00774797
0.00433046
0.00572641
0.00535452
0.00721609
0.00816345
0.00898865
0.00805873
0.00751731
0.00585752
0.00321069
0.00346141
0.00382464
0.00419194
0.00561305
0.00586657
0.0123759
0.0041311
0.00458048
0.0046463
0.00631128
0.00598127
0.0107985
0.00439405
0.00475305
0.00631363
0.00821603
0.0158325
0.00543994
0.00583586
0.0084859
0.00855191
0.00781068
0.00570829
0.00526225
0.00581087
0.00433807
0.00423519
0.0036211
0.00546287
0.00751681
0.00569465
0.00554792
0.00484317
0.00396752
0.00440509
0.00443494
0.00360036
0.00357033
0.00429382
0.00293516
0.00262697
0.00328046
0.000854774
0.000446228
0.000456201
0.000466121
0.000473972
0.000481916
0.000488337
0.000494919
0.000498398
0.000497973
0.000498981
0.000525441
0.000521597
0.000504847
0.000458541
0.000523446
0.000830731
0.000831594
0.000522774
0.000461383
0.000826096
0.00131507
0.00154325
0.0018292
0.00185365
0.00159635
0.00138762
0.000854051
0.000841852
0.000511166
0.000596491
0.000648469
0.000575216
0.000641145
0.000594343
0.00063107
0.000635265
0.000589625
0.000587051
0.000590545
0.000586753
0.000578308
0.000566826
0.000552401
0.00053971
0.000528598
0.000512998
0.000483909
0.000429979
0.000390142
0.000425785
0.000449115
0.000503274
0.000534892
0.000567012
0.000588341
0.000603287
0.000612963
0.00061378
0.00062373
0.000643016
0.000647431
0.000652148
0.000700261
0.000682294
0.000728348
0.000681293
0.00072764
0.000684185
0.000628712
0.000528189
0.000544324
0.000876582
0.000884917
0.00143071
0.00163767
0.00186263
0.0018765
0.00210597
0.00222308
0.00188011
0.00195542
0.00224651
0.0020871
0.00185708
0.00185851
0.00167029
0.00166472
0.00147033
0.000917334
0.000905161
0.000569353
0.000553333
0.000659788
0.00064829
0.000721818
0.000771597
0.000773786
0.000771924
0.000747827
0.000741208
0.000654367
0.000642644
0.000644213
0.000624032
0.00061375
0.000613513
0.000598752
0.000597767
0.000623857
0.000612446
0.000603288
0.000605662
0.000604097
0.000418871
0.000387385
0.000688189
0.0007514
0.000815718
0.00334348
0.000836634
0.0014956
0.00137968
0.000533827
0.000708719
0.000881971
0.000983064
0.00102868
0.00098007
0.000847322
0.000713757
0.00055431
0.000458958
0.000804476
0.000707574
0.000925108
0.000820824
0.00106372
0.00123704
0.00120037
0.00121299
0.00102822
0.000841583
0.000890704
0.000806365
0.000891652
0.000742876
0.000892667
0.000808489
0.00101796
0.00102839
0.00100795
0.000956486
0.000729212
0.000765744
0.000642055
0.000696199
0.000624256
0.000645536
0.000612855
0.000714961
0.000824205
0.000791175
0.000788321
0.000647837
0.000507792
0.000560158
0.000482816
0.000546086
0.000424906
0.000515799
0.000433919
0.000561158
0.000574574
0.000565307
0.000535683
0.00040103
0.000475945
0.000634459
0.00069029
0.000704571
0.000675158
0.0005215
0.000807692
0.00073379
0.000898365
0.000781942
0.000851737
0.000776639
0.000902671
0.00115377
0.00120216
0.00120954
0.000979427
0.000970923
0.0017517
0.0955195
0.00157615
0.0018617
0.00191749
0.00190927
0.00157928
0.00154808
0.00190894
0.00142088
0.00200231
0.00126083
0.00212438
0.000810048
0.00123156
0.0013218
0.00131796
0.00122428
0.000798786
0.00224992
0.134751