/*--------------------------------*- C++ -*----------------------------------*\
| =========                 |                                                 |
| \\      /  F ield         | OpenFOAM: The Open Source CFD Toolbox           |
|  \\    /   O peration     | Version:  v2012                                 |
|   \\  /    A nd           | Website:  www.openfoam.com                      |
|    \\/     M anipulation  |                                                 |
\*---------------------------------------------------------------------------*/
FoamFile
{
    version     2.0;
    format      ascii;
    class       volScalarField;
    location    "60";
    object      epsilon;
}
// * * * * * * * * * * * * * * * * * * * * * * * * * * * * * * * * * * * * * //

dimensions      [0 2 -3 0 0 0 0];


internalField   nonuniform List<scalar> 
18258
(
0.0340757
0.0168763
0.0149211
0.0128541
0.0219224
0.0196193
0.0179221
0.0233989
0.0318834
0.0455186
0.0618849
0.0525798
0.0459502
0.0462993
0.0477003
0.0451625
0.0347064
0.0313587
0.0434819
0.071476
0.0647682
0.0528952
0.0661443
0.0549448
0.0660801
0.0827918
0.0633833
0.058364
0.0531742
0.0507661
0.0440183
0.0238979
0.0338754
0.054358
0.0734252
0.0800523
0.0854677
0.0897271
0.0952831
0.0974896
0.0976126
0.0921791
0.0825875
0.0674256
0.0492566
0.0378574
0.0318394
0.0303378
0.0273785
0.0312863
0.0406484
0.0653701
0.0884187
0.0690098
0.0469858
0.0751768
0.102418
0.13269
0.159352
0.182829
0.192352
0.190999
0.181494
0.166553
0.146543
0.122541
0.101935
0.0850492
0.0672512
0.0572258
0.04581
0.0374584
0.0314803
0.0274988
0.0250892
0.0235793
0.0225818
0.0235277
0.0234131
0.0168481
0.0132585
0.0124417
0.00881848
0.0073219
0.00760333
0.00702332
0.00702966
0.00612843
0.00534454
0.00480119
0.00415859
0.00641291
0.00723545
0.00773315
0.0077977
0.00828808
0.00740872
0.00673905
0.0120652
0.0157719
0.0173987
0.0179255
0.0187063
0.023398
0.0225904
0.0220992
0.0202932
0.0156628
0.00857495
0.0115652
0.0141529
0.0141169
0.0124453
0.0117393
0.00950561
0.00881291
0.00870429
0.0092315
0.00942748
0.0118557
0.0117832
0.011135
0.0122175
0.0133986
0.0131337
0.0126718
0.0118683
0.0145013
0.0105383
0.0111693
0.0126082
0.0202235
0.0198265
0.0261964
0.0256729
0.0256489
0.0255338
0.0298311
0.0299385
0.0304714
0.030874
0.0345322
0.0552029
0.0480905
0.0468102
0.0466397
0.0415689
0.041891
0.0418467
0.0428252
0.0334979
0.0319093
0.0292269
0.029079
0.0325711
0.0408604
0.058135
0.0849138
0.117793
0.152396
0.180645
0.19928
0.218746
0.222231
0.233808
0.236816
0.237003
0.231655
0.224321
0.215777
0.203399
0.18484
0.173566
0.136801
0.0972258
0.0533127
0.0706455
0.080995
0.089449
0.0909784
0.0921894
0.0891596
0.0844675
0.0753152
0.062548
0.0444195
0.0457353
0.064266
0.0682978
0.0701965
0.0564277
0.0551156
0.0519711
0.0522316
0.0700965
0.0793107
0.066296
0.0898878
0.106055
0.0936122
0.0679655
0.103543
0.149882
0.0837479
0.0701542
0.0522206
0.0504777
0.0418591
0.0354844
0.0587474
0.0839155
0.110682
0.125953
0.144256
0.157119
0.167866
0.179436
0.155985
0.141854
0.0960469
0.162507
0.116059
0.0560171
0.0396147
0.0355416
0.0559815
0.0572351
0.0591012
0.0522999
0.0398225
0.0281227
0.0292392
0.0525879
0.0702298
0.0823133
0.0651361
0.0819547
0.091618
0.100513
0.105163
0.139901
0.103546
0.110903
0.0784642
0.106262
0.073979
0.0447702
0.0457087
0.0819619
0.128937
0.17545
0.208609
0.109226
0.0529871
0.0384108
0.0366953
0.0372951
0.0347522
0.0441455
0.0834106
0.05946
0.0357626
0.0303096
0.0352153
0.0328244
0.024724
0.0270444
0.0387375
0.0448365
0.051554
0.064243
0.0985541
0.0960423
0.119939
0.12411
0.105947
0.101995
0.0614954
0.0629211
0.0958917
0.0717009
0.057171
0.0849992
0.126411
0.176309
0.218921
0.255872
0.27957
0.280216
0.259777
0.169354
0.077013
0.0249097
0.020178
0.0190428
0.0194869
0.011791
0.00678908
0.00607246
0.00677563
0.00738081
0.00646807
0.00596397
0.00586665
0.00589511
0.0105988
0.00909838
0.0111679
0.0134541
0.0159977
0.0190431
0.0197224
0.0130752
0.00884909
0.0083078
0.00824027
0.0081635
0.00812404
0.00812201
0.0081469
0.00814833
0.00810514
0.00802069
0.00788275
0.00774953
0.00769538
0.00833524
0.0112177
0.0154785
0.0151072
0.013832
0.0124864
0.0113546
0.00900283
0.0154897
0.0131893
0.0111814
0.0136038
0.0167136
0.0210856
0.0247373
0.0178261
0.0142744
0.0129169
0.0127733
0.0126308
0.0126379
0.0124675
0.0124721
0.0122011
0.0127046
0.0137154
0.0172304
0.0193401
0.0216643
0.0232833
0.0239712
0.024725
0.0217083
0.023971
0.0232692
0.0241251
0.0239525
0.0231291
0.0209353
0.0187992
0.0173104
0.0186017
0.0229633
0.0311429
0.0256541
0.0198611
0.0160345
0.0130985
0.0145355
0.0163072
0.0164929
0.0155732
0.0154227
0.0152962
0.0137057
0.0127141
0.0109226
0.0103976
0.0101189
0.0103967
0.0150582
0.0139475
0.0138608
0.0143475
0.0150561
0.0142153
0.014696
0.0140999
0.0143398
0.0147295
0.0170669
0.0185583
0.017781
0.0165756
0.0160842
0.0137824
0.0158691
0.0157037
0.0170062
0.0184577
0.018853
0.0186841
0.0180289
0.0162475
0.0180812
0.0213351
0.0248777
0.0239533
0.0240345
0.0202568
0.0192993
0.0205136
0.0220321
0.0230959
0.023115
0.0226287
0.0224217
0.0263099
0.025543
0.0245089
0.0224402
0.0199528
0.0171769
0.0150604
0.0166066
0.0181076
0.0194866
0.0207114
0.0207388
0.0191656
0.0177875
0.0165225
0.014951
0.0147482
0.0162955
0.0175905
0.0191074
0.0209544
0.0211818
0.0193395
0.017722
0.0163255
0.0147457
0.014743
0.0163535
0.0177708
0.0193032
0.0208526
0.0200947
0.0189538
0.0176206
0.0162856
0.0147352
0.0148057
0.0162011
0.0173246
0.0184282
0.0193073
0.019981
0.0181491
0.0172633
0.0173446
0.016311
0.0195042
0.0187444
0.0197073
0.0182261
0.0169543
0.0179238
0.0209733
0.0238979
0.0242313
0.023908
0.0198023
0.020293
0.0204174
0.0191015
0.0159645
0.0153364
0.0178997
0.0203557
0.0207822
0.019708
0.0169552
0.0134081
0.014286
0.0171255
0.0193179
0.0182098
0.0180764
0.0168002
0.0157222
0.0159601
0.0136537
0.0164129
0.0257583
0.0229945
0.0206195
0.0177356
0.013968
0.00953687
0.0103206
0.0112612
0.0116393
0.00956271
0.00730752
0.0065721
0.00636262
0.00613562
0.00575632
0.00502521
0.00467719
0.0205208
0.0327914
0.0381968
0.0399143
0.0372626
0.0253406
0.0254002
0.0290272
0.0352919
0.0290082
0.022266
0.0166962
0.0159697
0.0214239
0.0267747
0.0347033
0.0259785
0.0233461
0.0159289
0.0143993
0.0232463
0.0285599
0.027381
0.020804
0.0115486
0.00620713
0.00701257
0.00738136
0.00762486
0.00786191
0.00821422
0.00940505
0.0144708
0.0185871
0.0160635
0.0149943
0.0137552
0.0171956
0.019894
0.0221159
0.0251566
0.0159028
0.0115603
0.0163862
0.0264032
0.0235768
0.0218029
0.016132
0.0168351
0.0165952
0.0106664
0.0105001
0.0106046
0.0113856
0.0126336
0.0145463
0.0160854
0.0169245
0.0172648
0.0181493
0.0235757
0.0221209
0.0216524
0.0178502
0.0134361
0.0147458
0.0496494
0.0192613
0.020477
0.0193729
0.0197659
0.0210185
0.0159843
0.0145859
0.0138035
0.0148382
0.021902
0.0221121
0.0217704
0.0183567
0.0175004
0.0209861
0.0222647
0.0227185
0.0220248
0.0214574
0.0194796
0.016731
0.01815
0.0196745
0.0208312
0.0229237
0.0233381
0.0179716
0.0172533
0.0158695
0.0105929
0.0113639
0.00978377
0.00971212
0.00952472
0.0090981
0.00867427
0.00910341
0.00935191
0.00939391
0.00905496
0.00934671
0.00838433
0.00873823
0.00983535
0.0153479
0.0149174
0.0177516
0.0197502
0.0169893
0.015835
0.0144705
0.0134525
0.0156899
0.0144813
0.0171052
0.0214846
0.0268004
0.0193195
0.0183219
0.0180977
0.0176862
0.0175107
0.0175506
0.0168529
0.0158496
0.0152789
0.0238496
0.0215429
0.0184189
0.017482
0.0160372
0.0183046
0.017744
0.0216637
0.0271777
0.027377
0.0218247
0.021892
0.0192329
0.0203263
0.0225137
0.0273793
0.0273273
0.0145823
0.00963482
0.0155916
0.0159362
0.0186002
0.0172299
0.0187359
0.0199593
0.0206347
0.0205086
0.0178721
0.0190395
0.0198279
0.0208136
0.0187434
0.01664
0.0174309
0.0162235
0.015346
0.0148906
0.0128038
0.0129654
0.013857
0.0152646
0.0162082
0.0176346
0.0191471
0.0192516
0.0198602
0.0194419
0.0190242
0.0249912
0.0237022
0.0253402
0.0279323
0.0222795
0.0178298
0.0147816
0.0150514
0.0147921
0.0146778
0.0155045
0.0169039
0.0152586
0.0146085
0.0169653
0.0191757
0.024371
0.0322232
0.0276986
0.0256568
0.0332274
0.0317497
0.037991
0.0285291
0.0281882
0.0207328
0.0263649
0.0310982
0.0391152
0.0254152
0.020931
0.022511
0.0260918
0.035279
0.0328284
0.0327803
0.0412893
0.0401421
0.0369074
0.0317569
0.0350911
0.0211751
0.0305617
0.0326182
0.0275501
0.0258063
0.0306346
0.0311374
0.0333837
0.0291971
0.0270102
0.0179179
0.0270396
0.0309989
0.0327723
0.0277331
0.0212411
0.0281432
0.0205716
0.019142
0.0202717
0.013735
0.0127573
0.0148618
0.0139954
0.0113428
0.0122747
0.0112972
0.0112648
0.0113008
0.0113457
0.0113844
0.0115218
0.0113424
0.0120378
0.0131481
0.0122723
0.0115841
0.0124848
0.0130802
0.0166983
0.0189034
0.0213497
0.0231172
0.0240771
0.0251938
0.02294
0.0244378
0.0233809
0.0248624
0.0247028
0.0235363
0.0209111
0.0184548
0.0167428
0.0179144
0.0220498
0.0297756
0.0244988
0.0190154
0.0154729
0.012882
0.01419
0.0182624
0.00990731
0.00940774
0.00939215
0.009555
0.0100972
0.00987519
0.00808145
0.00620141
0.00554555
0.00520362
0.00462133
0.00874981
0.0217027
0.0310655
0.0376015
0.0419264
0.0443581
0.0448185
0.041715
0.0316571
0.0274776
0.0238214
0.0199468
0.0168692
0.0175435
0.0251653
0.0326925
0.0399678
0.0461008
0.0502607
0.0480266
0.0325409
0.0319547
0.0493056
0.080802
0.0747956
0.0978684
0.114843
0.0661686
0.0483897
0.0462113
0.0606849
0.0636196
0.0565589
0.047054
0.0369806
0.0267875
0.0308786
0.0348329
0.0384891
0.0421582
0.0549247
0.0582969
0.0571503
0.0536594
0.0481539
0.0401093
0.028941
0.0125978
0.00483906
0.00568703
0.0065468
0.00786691
0.0112677
0.0112931
0.010993
0.0113638
0.0111355
0.0119868
0.0117851
0.0124662
0.0127635
0.0127278
0.0118669
0.0101646
0.0113838
0.0117126
0.0119237
0.0135107
0.0157348
0.0121711
0.00815464
0.00727798
0.00696427
0.00656542
0.00634215
0.0119875
0.02344
0.0294834
0.0338959
0.034234
0.0315458
0.0266841
0.020517
0.0187588
0.0161911
0.014432
0.0139051
0.0152414
0.0126618
0.00642715
0.005308
0.0058566
0.00568298
0.00514989
0.00619114
0.00688863
0.0075059
0.00792929
0.00824017
0.00829868
0.00823355
0.00813874
0.00808881
0.00806187
0.00802579
0.00795275
0.00784936
0.00770044
0.00756007
0.00749719
0.0081033
0.010811
0.0148849
0.0146656
0.013523
0.0123944
0.0115196
0.00979887
0.0158141
0.0133963
0.0112277
0.0103223
0.0101346
0.0103727
0.011231
0.0127439
0.0136065
0.0155528
0.0156681
0.0156765
0.016062
0.0158132
0.013892
0.0157874
0.0177889
0.0185736
0.0190278
0.0186924
0.017083
0.0191742
0.0204248
0.0200778
0.0195126
0.0174625
0.0205446
0.0235277
0.0238912
0.0238204
0.0210086
0.0180521
0.0212777
0.0225864
0.0226194
0.0236841
0.0229902
0.023873
0.0264916
0.0167878
0.0188155
0.0156816
0.0111526
0.0108945
0.0111201
0.0108441
0.0114822
0.0125222
0.0123757
0.0128973
0.012813
0.0112675
0.0135091
0.0126956
0.0130365
0.0111996
0.0103565
0.0102215
0.0116209
0.0136689
0.0218834
0.0236618
0.020481
0.0246834
0.0239272
0.0183896
0.0218877
0.0230492
0.0243833
0.0249203
0.0255253
0.0229682
0.0251487
0.0252335
0.0225281
0.0216909
0.0387288
0.0255334
0.0170537
0.0164549
0.0163145
0.01623
0.018263
0.0135957
0.0148044
0.00993504
0.00851691
0.00810561
0.00782901
0.00752834
0.00802638
0.0124503
0.0187975
0.0245499
0.0250058
0.0220083
0.0164629
0.0123068
0.0126098
0.0118175
0.011479
0.0116923
0.00782282
0.00530911
0.00665275
0.00669644
0.00727692
0.00767899
0.00800012
0.00823512
0.00835389
0.00840149
0.00845398
0.00854718
0.00865176
0.00873945
0.00880206
0.00883356
0.0088623
0.00893714
0.00919773
0.0103466
0.0151591
0.0197835
0.0188229
0.0173544
0.016002
0.016777
0.0175676
0.0184059
0.0226571
0.0193566
0.0223714
0.0208013
0.0197682
0.0183702
0.0189598
0.0207794
0.0162648
0.0160995
0.0108022
0.00946045
0.00914891
0.00899638
0.00888576
0.00877232
0.00865916
0.00855687
0.0084591
0.00837761
0.0083213
0.0082751
0.00816632
0.00794283
0.00755933
0.00714629
0.00630546
0.00681854
0.00737554
0.00832534
0.00945531
0.0100739
0.00951182
0.00871619
0.00833584
0.0083849
0.00850599
0.0086459
0.00881054
0.00905618
0.00943305
0.010302
0.0109463
0.0155801
0.016266
0.0199551
0.0198735
0.0177444
0.0170756
0.0188025
0.0173784
0.0127963
0.0176023
0.0169899
0.0210215
0.015408
0.0144499
0.0146774
0.0151215
0.0180949
0.0170072
0.0156023
0.0156388
0.0127306
0.0141527
0.0161195
0.0177618
0.0283222
0.0276327
0.0351224
0.0351125
0.0615166
0.0582134
0.0511813
0.0558122
0.0240947
0.0479633
0.0562049
0.050888
0.0440439
0.0279091
0.0451266
0.0692099
0.101035
0.0724833
0.0592589
0.111283
0.079714
0.0384878
0.0270236
0.0152398
0.0153731
0.0256657
0.0298887
0.0247092
0.023792
0.0344264
0.0358505
0.0287365
0.0295309
0.0319856
0.0309114
0.0334521
0.0288502
0.0282172
0.0157246
0.0128484
0.0137848
0.0153992
0.0162913
0.0157424
0.0166193
0.0173664
0.0160468
0.0151278
0.0146581
0.0126043
0.0134664
0.016491
0.0207851
0.0243629
0.0175462
0.0140552
0.0127196
0.0125443
0.0123439
0.0122618
0.0119821
0.0118494
0.0114325
0.0117282
0.0103735
0.0102649
0.01073
0.0108196
0.0109498
0.0110275
0.0110713
0.011139
0.0120874
0.0190192
0.0263916
0.0211102
0.0167446
0.0142495
0.0154295
0.0173459
0.0212625
0.0267388
0.0180327
0.0178008
0.0115451
0.0106991
0.0105448
0.010476
0.0104127
0.0104048
0.010548
0.0106353
0.0124603
0.0116201
0.0128287
0.0140887
0.0117592
0.0114187
0.0110427
0.0108521
0.0107729
0.0107455
0.0108618
0.01173
0.0115417
0.0105943
0.0104748
0.0105456
0.0107073
0.010985
0.0114244
0.0119497
0.0128337
0.0123757
0.0114305
0.0117458
0.0110297
0.01063
0.0103355
0.0102295
0.0102006
0.0102342
0.0103952
0.0113345
0.017198
0.0173947
0.0268495
0.0268992
0.0214052
0.0179304
0.0157737
0.0145173
0.0137904
0.0361934
0.0317424
0.0506185
0.0401189
0.0320164
0.0522998
0.0748218
0.0579517
0.0952202
0.102743
0.0751705
0.0682777
0.021449
0.0162626
0.0156945
0.0171795
0.018859
0.0214751
0.0220662
0.0268683
0.0289752
0.0172297
0.0165527
0.0155764
0.0251148
0.0233152
0.019909
0.0180369
0.0166655
0.0192561
0.0210241
0.0150094
0.0150147
0.00963177
0.0105817
0.0103865
0.0100555
0.00999929
0.0100335
0.0101265
0.0102863
0.0105945
0.0111494
0.0115522
0.0116189
0.0117773
0.0117446
0.0114205
0.0109838
0.0107123
0.0104898
0.0103302
0.0102237
0.0102601
0.0105849
0.0107484
0.00942813
0.00978205
0.00991305
0.00996978
0.0100393
0.0100632
0.0100135
0.00992769
0.00986989
0.00972926
0.00971067
0.0102568
0.0102814
0.0102594
0.0100715
0.0100023
0.0100092
0.00995865
0.00988603
0.00978666
0.00963616
0.00928443
0.00857318
0.00843216
0.00903801
0.0094202
0.00964768
0.00978766
0.00978026
0.00965031
0.00938852
0.00918009
0.00904868
0.00884444
0.00861393
0.00770233
0.00792173
0.00823818
0.00860969
0.00899773
0.00934138
0.00955364
0.00963205
0.00962034
0.00947155
0.0091379
0.0085753
0.00853439
0.00898918
0.00925424
0.00932037
0.00918842
0.0089352
0.00846011
0.00784923
0.00723146
0.00671669
0.00637091
0.0059709
0.00697659
0.00737507
0.00774171
0.0081151
0.00859668
0.009134
0.00948135
0.00959872
0.00954225
0.00933668
0.00896201
0.00842198
0.00843729
0.00893348
0.00929527
0.00947757
0.00951657
0.00922605
0.00859579
0.0076874
0.00690431
0.00636442
0.00593331
0.00542533
0.00471459
0.00506431
0.00529115
0.00585168
0.00660406
0.00749738
0.0082984
0.00877828
0.00901887
0.0090462
0.00886019
0.00850393
0.00844513
0.00871613
0.00883377
0.00869313
0.0082537
0.0075657
0.00659924
0.00574081
0.00521837
0.00518061
0.00536811
0.00508244
0.00458528
0.00511618
0.00546367
0.00593195
0.0067259
0.00785198
0.0087617
0.00923509
0.00937834
0.00926062
0.00890726
0.00843888
0.00842819
0.0088923
0.00925779
0.00939003
0.00922556
0.00868849
0.00780647
0.00653035
0.00535475
0.00501714
0.00481227
0.00439401
0.00513758
0.00548268
0.00522571
0.00508856
0.0057182
0.00654534
0.00742553
0.00808762
0.00848229
0.00865744
0.00857557
0.00836289
0.00827663
0.00848219
0.00860433
0.00847989
0.00815646
0.00770295
0.00703131
0.00643144
0.00595124
0.00637916
0.00629728
0.00584742
0.00512008
0.00562401
0.00622618
0.00608182
0.00701008
0.00812684
0.00888791
0.0093211
0.00948235
0.00933193
0.00891096
0.00841505
0.00840639
0.00899846
0.00951987
0.00976244
0.00980027
0.00955672
0.00935182
0.00868104
0.00776663
0.00763451
0.00600095
0.00520478
0.00601296
0.00663735
0.00710986
0.00705241
0.00785878
0.00822081
0.00844109
0.00866764
0.0087885
0.00873182
0.00848433
0.00820098
0.00811633
0.00879991
0.00961827
0.00953621
0.00934057
0.00903271
0.00864072
0.00827667
0.00785923
0.00812356
0.00799658
0.00751773
0.00656876
0.0072581
0.0089062
0.00887982
0.00935073
0.0099009
0.0102842
0.0105594
0.0106107
0.0105187
0.00937798
0.00837274
0.00821718
0.00964263
0.0159629
0.0158687
0.0159277
0.0158677
0.015143
0.0149463
0.0142341
0.0139293
0.0131034
0.0125658
0.0118234
0.0138302
0.0175906
0.0196535
0.0218462
0.0241854
0.022539
0.0180506
0.0157239
0.00975937
0.00769981
0.00663934
0.00583091
0.00521403
0.0050647
0.00770236
0.00958877
0.0117158
0.0136055
0.0139446
0.0163567
0.0202815
0.0308611
0.048874
0.041076
0.0386113
0.038402
0.0933066
2.53962
2.64785
2.45102
2.84437
3.33107
0.348562
0.148716
0.279672
0.299782
0.342532
0.322493
0.293812
0.270798
0.284803
0.273784
0.281289
0.262322
0.262327
0.229392
0.236923
0.354402
0.871703
1.13001
1.33291
1.83823
1.80689
2.03659
1.9641
1.9736
1.8197
1.9353
1.68096
1.39547
1.32365
1.25519
1.35095
1.47519
1.27855
1.15978
1.04014
0.9427
0.806905
1.02348
0.775732
0.731646
0.728994
0.760477
1.0114
0.91582
1.05273
0.982845
1.02103
0.629166
0.710357
0.517364
0.430971
0.358138
0.429758
0.577351
0.771703
0.964939
0.744867
0.999225
0.917823
0.898866
0.857078
0.78537
0.747735
0.737269
0.760655
0.775471
0.793147
0.824473
0.849607
0.871056
1.02926
1.09537
1.08359
0.886823
0.790332
0.546375
0.584967
0.618553
0.620342
0.576735
0.559092
0.511451
0.498567
0.455714
0.435414
0.398777
0.378236
0.346314
0.474668
0.808263
0.837125
0.908051
0.958795
1.01039
1.03137
1.05053
1.03338
1.00096
0.928697
0.896462
0.832069
0.94563
1.1369
1.13699
1.04648
0.887738
0.838293
3.9065
4.74612
3.13738
6.77529
10.3116
17.2702
7.81269
2.10473
3.54421
2.43252
2.15366
2.09441
2.20496
3.45867
2.51172
3.27328
2.75463
2.91221
2.36654
2.6233
2.49537
1.91063
1.60634
1.36047
1.24843
1.01797
1.00126
0.828148
0.761314
0.70247
0.584438
0.733921
0.965429
1.99116
2.47108
3.03289
4.72402
5.15554
5.6471
8.82783
7.05952
8.74782
5.15905
5.21277
3.8493
3.62348
3.67224
5.07076
7.33128
5.04232
8.83303
4.90968
15.7933
35.4285
9.29167
19.3512
11.1608
10.0781
9.6992
9.97733
14.1498
9.5935
15.5576
13.195
17.6303
17.4206
18.5266
14.3469
10.6591
11.6751
12.4963
16.0121
11.3876
13.0429
10.0342
9.75256
9.19664
7.57398
6.59694
5.25524
6.27769
7.22048
8.2675
13.3362
16.3049
18.6771
22.3965
16.4202
18.6311
11.1726
12.2601
9.44138
8.87498
9.03297
11.9177
21.2143
15.023
27.6389
0.501963
0.226963
0.550948
0.231386
0.490835
0.393515
0.406032
0.406754
0.40212
0.463384
0.22108
0.185978
0.178224
0.176118
0.177679
0.100716
0.12504
0.0807076
0.127114
0.229933
0.506368
0.365792
0.140619
0.0826886
0.054761
0.0431139
0.0637524
0.0615512
0.0984479
0.0997843
0.106107
0.132679
0.229101
0.435008
31.9795
7.15805
1.14421
0.537074
0.286894
0.176531
0.152047
0.172001
0.184947
0.18766
0.176232
0.150145
0.10863
0.0749131
0.0511497
0.0436759
0.0313606
0.017256
0.0252179
0.0375463
0.0333002
0.0495837
0.0690319
0.0923846
0.115963
0.134511
0.14872
0.156353
0.148973
0.119823
0.0798092
0.0460735
0.0297772
0.0262571
0.024342
0.0224826
0.0194842
0.0175119
0.01565
0.0130954
0.0113006
0.0100353
0.00940648
0.00938398
0.0100015
0.0125841
0.0150547
0.0193758
0.0183237
0.0137155
0.0131974
0.0081599
0.00755053
0.00769604
0.00794375
0.00903202
0.0143022
0.0146424
0.0145219
0.0145804
0.0143656
0.0142605
0.0140442
0.0137232
0.0134943
0.0130459
0.0127728
0.0123369
0.0120754
0.0115194
0.0115401
0.0119155
0.0122525
0.011329
0.0113803
0.0105699
0.0113113
0.0239863
0.0584483
0.071461
0.0836296
0.0754509
0.034738
0.0155197
0.00772939
0.00837168
0.00884097
0.00868358
0.00781416
0.00687736
0.00802465
0.00983547
0.01334
0.0131344
0.0131212
0.0137831
0.0140309
0.0146876
0.0150144
0.015442
0.0156693
0.0159249
0.0161382
0.01605
0.0162205
0.0159527
0.0160307
0.015633
0.0276435
0.0261991
0.0271698
0.0270579
0.0279451
0.0273973
0.0263537
0.0254395
0.0246686
0.0236453
0.0228545
0.0220112
0.0212049
0.0222909
0.0216219
0.0137518
0.0129378
0.00976888
0.0090828
0.00840453
0.00955272
0.00954621
0.00836883
0.00899997
0.00807872
0.00852647
0.00900852
0.0126773
0.013362
0.020845
0.0207055
0.0180932
0.0192034
0.0193545
0.0199633
0.0205703
0.0215227
0.0225586
0.0235683
0.0260748
0.0263765
0.0249361
0.0247426
0.0231944
0.0248425
0.0238364
0.0224606
0.0245886
0.0258331
0.0280629
0.0278866
0.025189
0.0239538
0.0225986
0.0207804
0.0186048
0.0179251
0.0169078
0.0176007
0.0163491
0.0195538
0.0176677
0.0126743
0.0128616
0.00919331
0.00771035
0.00664787
0.00765495
0.00967139
0.0210719
0.0119157
0.00732819
0.0107377
0.0165836
0.0333522
0.0201973
0.0306874
0.0164067
0.0152743
0.0148596
0.0143398
0.0158344
0.0178111
0.0187754
0.0220287
0.0246392
0.0262514
0.0269819
0.0282944
0.0286245
0.0300096
0.0304303
0.033747
0.0339488
0.0338287
0.0333391
0.0313439
0.0282674
0.0265085
0.0326915
0.0375074
0.040024
0.0424446
0.0451029
0.043978
0.039585
0.038736
0.0368446
0.035821
0.0344628
0.0316332
0.0281283
0.0234392
0.0229553
0.0289807
0.0345314
0.0513524
0.0545906
0.0542877
0.0566535
0.0570597
0.0587297
0.0590895
0.0617605
0.0622406
0.0633977
0.0637021
0.0700405
0.0708451
0.0715833
0.0719155
0.0714197
0.0722691
0.0723356
0.0492869
0.0444254
0.0416143
0.0347002
0.0290578
0.0371869
0.0462927
0.0503344
0.0759428
0.0762417
0.08108
0.0838863
0.089925
0.0939478
0.0996213
0.104301
0.109078
0.112314
0.114329
0.114002
0.114181
0.112331
0.110653
0.118989
0.153028
0.169237
0.199384
0.213985
0.224594
0.226929
0.218183
0.222011
0.213679
0.215839
0.20936
0.206931
0.201383
0.194543
0.190659
0.183844
0.179522
0.206568
0.156876
0.12071
0.080798
0.0654
0.0568795
0.0517865
0.0561056
0.0439231
0.0369718
0.0559
0.051394
0.0408743
0.0285273
0.0130488
0.0148841
0.029699
0.0465284
0.06627
0.0848958
0.0981666
0.102297
0.101366
0.0988786
0.0931587
0.0795899
0.0633676
0.0475023
0.0418521
0.0391107
0.0341874
0.0268963
0.0211009
0.0185586
0.0166161
0.0143249
0.0125552
0.0118131
0.011582
0.0117996
0.0140448
0.0182169
0.0182953
0.0121695
0.0121214
0.00830609
0.00835665
0.0085951
0.0144777
0.0146021
0.0226431
0.0252637
0.0238023
0.0244995
0.0241889
0.0245199
0.0239991
0.0227912
0.021919
0.021017
0.0201699
0.0195658
0.0187566
0.0181041
0.019401
0.0185599
0.015957
0.015941
0.0165117
0.0170349
0.0179049
0.0190427
0.0200878
0.0226972
0.0230202
0.0223244
0.0224124
0.0210233
0.0202639
0.0216672
0.0212296
0.0144631
0.0143482
0.02097
0.0205609
0.0202728
0.0239751
0.0222938
0.0230471
0.0244586
0.0242013
0.0213485
0.020065
0.0186544
0.017505
0.0161629
0.0145853
0.0145212
0.0173103
0.0163494
0.01333
0.0142729
0.0171863
0.0202926
0.0218152
0.0239188
0.0267818
0.0275237
0.029596
0.0308704
0.0328051
0.0335844
0.0382838
0.039117
0.0369868
0.0349267
0.0333603
0.0293041
0.0252415
0.0278712
0.0290683
0.0294795
0.0294402
0.0292652
0.0257869
0.0253721
0.0239526
0.0235045
0.0220607
0.0215631
0.0204191
0.0196915
0.0186657
0.0166231
0.014207
0.0135889
0.0135318
0.018726
0.0119676
0.0117461
0.0171131
0.0109365
0.0127125
0.0125562
0.0130668
0.0133031
0.0113632
0.0163187
0.0113798
0.0119871
0.0119687
0.0140201
0.0117737
0.0130437
0.0156359
0.0233061
0.0349157
0.076445
0.159941
0.204735
0.241708
0.267672
0.286922
0.309943
0.331512
0.349953
0.356657
0.338381
0.325457
0.267778
0.242935
0.268375
0.301456
0.214832
0.186219
0.189345
0.19218
0.195758
0.198575
0.203652
0.202555
0.209533
0.205332
0.214543
0.209566
0.21825
0.207635
0.187213
0.168557
0.128981
0.115571
0.0745513
0.0581584
0.0456912
0.0326018
0.0237346
0.0214751
0.0201987
0.0181046
0.018178
0.0140685
0.0139897
0.00872626
0.00629983
0.010337
0.0105024
0.00756569
0.0106619
0.0122422
0.0128708
0.01346
0.0137323
0.0212284
0.0212683
0.0268284
0.0263076
0.0311065
0.0369901
0.0389037
0.0430628
0.0617258
0.062235
0.0619569
0.061589
0.0610399
0.0540653
0.0537898
0.0527853
0.0522332
0.0495234
0.0490571
0.0471718
0.0462317
0.043406
0.0428069
0.041682
0.0418691
0.0360978
0.0351362
0.0350012
0.0248444
0.0214178
0.0190433
0.0161322
0.0178921
0.0153682
0.015018
0.0139548
0.0190649
0.0138973
0.0144303
0.0159458
0.0159479
0.0153655
0.0182541
0.0237868
0.0196169
0.0195724
0.0334112
0.0245268
0.0190879
0.0255629
0.0325915
0.0860707
0.132179
0.0871101
0.111986
0.15163
0.125183
0.103473
0.0501946
0.0453858
0.022153
0.0159794
0.0141356
0.0125569
0.0160342
0.019671
0.0276714
0.0840498
0.0678917
0.0911648
0.136236
0.159168
0.196423
0.17987
0.149933
0.126782
0.138693
0.16435
0.0689489
0.0593712
0.0508316
0.057361
0.136379
0.192225
0.178237
0.218036
0.171481
0.0412491
0.0222065
0.0176526
0.0157741
0.0148077
0.0136339
0.0207728
0.0124894
0.0127819
0.0134109
0.0144871
0.017959
0.0305731
0.014344
0.0159145
0.0194778
0.0167458
0.0157615
0.0154573
0.01544
0.0160418
0.0176065
0.0229073
0.0227815
0.0222335
0.0169982
0.0180645
0.0163602
0.0191673
0.0202479
0.0346078
0.015642
0.016592
0.0217057
0.434531
0.025035
0.0187297
0.0229594
0.0211565
0.0292459
0.0512252
0.395385
0.0357468
0.0374769
0.0678696
0.0705152
0.0749771
0.0783129
0.0813247
0.0837593
0.0871465
0.0898918
0.0907841
0.0919805
0.107724
0.108359
0.107041
0.112108
0.105876
0.0625601
0.0628641
0.105632
0.114396
0.0642302
0.0442266
0.0409519
0.033385
0.0346977
0.0446735
0.0472427
0.0662334
0.066337
0.11122
0.101167
0.103014
0.104934
0.099121
0.0996729
0.102654
0.101494
0.0820176
0.0797982
0.078364
0.0752854
0.0721221
0.0693696
0.0665428
0.0629361
0.0585203
0.05519
0.05387
0.0661775
0.0690832
0.0570491
0.0500088
0.0479826
0.0499777
0.0527491
0.0563558
0.0594262
0.0632694
0.0681136
0.0714281
0.0729533
0.073402
0.0767195
0.0992831
0.103638
0.106587
0.102772
0.106801
0.105268
0.102262
0.113155
0.121217
0.070476
0.0724645
0.0512588
0.0479132
0.0352782
0.0361392
0.0262077
0.0218801
0.0217691
0.0218648
0.0222886
0.0253554
0.0352537
0.0350338
0.0510517
0.050291
0.0556863
0.080661
0.0775809
0.139001
0.127661
0.117221
0.109337
0.110115
0.112019
0.115687
0.110522
0.1045
0.0986879
0.0784321
0.0744909
0.072407
0.070798
0.0673543
0.0625133
0.0601636
0.0599096
0.0588949
0.0634526
0.0714662
0.0840773
0.105283
0.0544137
0.0677639
0.0362558
0.0482596
0.043695
0.0502586
0.0386447
0.097719
0.103204
0.126822
0.273769
0.282924
0.313051
0.302452
0.2266
0.152197
0.101719
0.114173
0.153185
0.432537
0.510592
0.683937
0.734469
0.637432
0.532433
0.519078
0.49902
0.568261
0.628751
0.592275
0.625197
0.572055
0.538395
0.463511
0.522078
0.383697
0.346495
0.326653
0.318342
0.382936
0.310652
0.349474
0.286847
0.292407
0.23794
0.245242
0.204957
0.157106
0.14903
0.138285
0.154904
0.175741
0.160407
0.163535
0.142505
0.122201
0.0979256
0.106726
0.0794734
0.0736316
0.0700444
0.0691405
0.0843181
0.253897
0.153775
0.161477
0.171847
0.185716
0.335114
0.297667
0.778032
0.54978
0.783725
0.515984
0.614817
0.510125
0.391187
0.405453
0.447425
0.636462
0.867452
6.78282
0.28809
4.34963
3.22257
3.37193
3.51242
4.50843
8.02894
7.21418
9.7073
6.93086
9.24814
4.9869
4.99031
4.34019
4.48153
4.43863
4.25554
4.77625
5.26976
0.211284
0.0884773
0.0854171
0.0857963
0.0875777
0.198043
0.052901
0.203954
0.0545672
0.216027
0.0501649
0.249569
0.198737
0.038375
0.0192579
0.0201276
0.0168127
0.0204096
0.0169218
0.0250558
0.0235236
0.0235768
0.0256914
0.063396
0.238628
9.47061
0.547953
0.261149
0.310581
0.485289
0.288336
0.414671
0.649552
0.401069
0.189874
0.122066
0.151452
0.158654
0.135814
0.176121
0.282134
0.280962
0.219218
0.221373
0.168084
0.286924
0.282518
0.394
0.490603
0.479307
0.308977
0.22331
0.156962
0.381219
0.430712
0.390794
0.095419
0.0433747
0.0364464
0.0344066
0.0275331
0.0367256
0.0358089
0.0347939
0.0392283
0.0680852
0.0409126
0.0986222
0.0991615
0.336665
0.263199
0.261634
0.207187
0.290606
0.399535
0.440776
0.501793
0.549872
0.504433
0.361858
0.694598
1.06115
1.16435
9.57247
14.1668
1.93891
2.60874
13.095
0.292264
0.0760709
0.022251
0.017201
0.0161614
0.0161145
0.014995
0.0155375
0.016001
0.0169682
0.018848
0.0232449
0.0460664
0.203372
0.205438
0.064828
0.0326096
0.0230227
0.0196323
0.0170525
0.01639
0.0155315
0.0154614
0.0149921
0.0156074
0.0173049
0.0233369
0.0762481
0.278502
11.8307
2.39767
2.29576
8.61134
5.95269
0.210209
0.0443191
0.0201315
0.0169321
0.0158866
0.0167739
0.0162737
0.0182202
0.0184087
0.0230291
0.0250563
0.0319093
0.0575936
0.111413
0.321544
9.96549
8.98927
8.74846
8.10091
0.315799
0.11681
0.054807
0.0383258
0.0346619
0.0338274
0.0226576
0.0237112
0.0190139
0.0217463
0.0183531
0.022853
0.0489739
0.215378
5.49007
1.61077
1.73628
1.25262
0.604523
0.631189
0.625326
0.621396
1.46234
2.99259
3.92283
2.70691
2.91342
3.99391
2.72809
2.1563
1.56281
1.54089
2.24202
1.80246
1.72501
1.24639
1.32951
1.0253
1.44112
0.798375
0.994565
1.07683
1.49581
1.3946
1.4198
0.927673
1.06054
1.45446
1.79093
1.73605
0.855536
1.26519
1.02184
0.654265
0.573391
0.577036
0.532066
0.49349
0.519844
0.53832
0.53138
0.554758
0.542482
0.58649
0.552596
0.527583
0.4904
0.505466
0.510793
0.535559
0.346995
0.411637
0.418999
0.429037
0.437299
0.341649
0.426457
0.379976
0.57636
0.855173
0.404826
0.472692
0.315425
0.753439
1.5355
4.68856
0.969391
0.336027
1.09505
1.64866
1.11724
0.610264
2.5456
3.75242
1.2665
1.91509
11.2436
8.94262
17.4493
10.179
16.4843
4.86863
4.35438
16.6183
5.88535
5.73505
3.72625
4.02189
2.21005
1.13754
1.0907
1.17215
0.83198
0.826166
0.774057
0.949885
1.16626
1.01792
1.31198
1.49176
1.96432
1.51847
1.30909
1.80819
0.751093
0.852779
1.17938
1.18075
0.87822
1.4376
2.03907
1.5558
1.05043
1.50576
2.4449
3.41754
2.77164
1.84861
2.28448
7.93222
10.6741
11.4599
3.07631
19.8567
17.235
1.14251
0.251575
0.0852243
0.0454901
0.0383954
0.0389029
0.0418045
0.12608
0.0489498
0.0567348
0.0432672
0.0492593
0.0602633
0.0748101
0.153845
0.104149
0.149005
0.11967
0.0975448
0.0737783
0.0993367
0.1122
0.10164
0.0776081
0.0627856
0.0955225
0.115093
0.0577521
0.101638
0.113368
0.0916786
0.126694
0.128565
0.0732066
0.694439
0.132632
0.0660176
0.0558639
0.129486
0.595779
0.0886696
0.264368
3.38322
14.12
2.622
0.560833
0.355756
0.0477843
0.0264338
0.0241831
0.0233309
0.018296
0.0380106
0.0474685
0.205073
0.109769
0.249223
0.621946
3.17055
1.8558
0.525355
3.64223
9.84045
14.8589
8.57688
1.3504
8.22057
19.1766