/*--------------------------------*- C++ -*----------------------------------*\
| =========                 |                                                 |
| \\      /  F ield         | OpenFOAM: The Open Source CFD Toolbox           |
|  \\    /   O peration     | Version:  v2012                                 |
|   \\  /    A nd           | Website:  www.openfoam.com                      |
|    \\/     M anipulation  |                                                 |
\*---------------------------------------------------------------------------*/
FoamFile
{
    version     2.0;
    format      ascii;
    class       volScalarField;
    location    "60";
    object      nut;
}
// * * * * * * * * * * * * * * * * * * * * * * * * * * * * * * * * * * * * * //

dimensions      [0 2 -1 0 0 0 0];


internalField   nonuniform List<scalar> 
18258
(
0.00439411
0.00202558
0.0017565
0.00156829
0.0010289
0.00162647
0.00216601
0.00256028
0.00266673
0.00258337
0.00261978
0.00433943
0.00602212
0.00736481
0.00769331
0.00767601
0.00693691
0.0067219
0.00742829
0.00908494
0.00761532
0.00487886
0.00588283
0.00676367
0.00722046
0.00637849
0.00515576
0.00481197
0.00437905
0.00366848
0.00308023
0.00207197
0.00150872
0.00141708
0.00127954
0.00145718
0.0015849
0.00168657
0.00172654
0.00175413
0.00174143
0.0017303
0.00168085
0.00165085
0.00159824
0.00132081
0.00163025
0.00163329
0.00154223
0.002213
0.00241464
0.00206094
0.00233276
0.00210868
0.00141867
0.00162643
0.00176535
0.00180955
0.00179481
0.00172829
0.00170965
0.0016939
0.00167169
0.00164379
0.00162803
0.00164784
0.00166681
0.0016491
0.00156827
0.00150083
0.0013899
0.00127787
0.0011927
0.00112599
0.00107602
0.00102742
0.000972505
0.000855149
0.000792455
0.00105237
0.00132131
0.00141127
0.00199411
0.00243043
0.00244537
0.00181274
0.00127608
0.00131887
0.00147504
0.00150688
0.00128607
0.00155815
0.00179302
0.00187869
0.00196144
0.0021863
0.00237264
0.00226633
0.00244106
0.00253397
0.00253113
0.00250716
0.00231006
0.00298143
0.00308008
0.00300752
0.00286607
0.00285246
0.00295054
0.00326055
0.00276459
0.00254313
0.002488
0.00248256
0.00221453
0.00225744
0.00202429
0.00182263
0.00197273
0.00244881
0.00232917
0.00255957
0.0026455
0.00247702
0.0028714
0.00331978
0.00325408
0.00260013
0.00205054
0.00191154
0.00192915
0.00117809
0.00127298
0.00141266
0.00144648
0.00146194
0.00147675
0.00155787
0.00155422
0.00153432
0.00153258
0.00159079
0.000863214
0.000928244
0.000949784
0.000956524
0.000917693
0.000913879
0.000901399
0.000888573
0.000815916
0.000778008
0.000933996
0.00105102
0.00114621
0.00125314
0.00142444
0.0016313
0.00184487
0.00205756
0.00219589
0.00223089
0.00226743
0.0021802
0.0020934
0.00216386
0.0021744
0.00216001
0.00213238
0.0020964
0.00204525
0.00194955
0.00205626
0.00205233
0.00193061
0.00164097
0.00167672
0.0016705
0.00171238
0.00170268
0.00172105
0.00170053
0.00167777
0.00160401
0.00150283
0.00128813
0.00122305
0.00125271
0.00162184
0.00197919
0.00306981
0.00376102
0.0043862
0.00469973
0.00506238
0.00407936
0.00453318
0.00347347
0.00312214
0.0039797
0.00520763
0.0029662
0.00161272
0.00305204
0.00269557
0.00193184
0.00171115
0.00175259
0.00175621
0.00199698
0.00226867
0.00248593
0.00258666
0.00269183
0.00276475
0.00285521
0.00297105
0.00300309
0.00290207
0.00246114
0.00293206
0.00233493
0.00268618
0.00239322
0.00157419
0.00205725
0.00211625
0.00189713
0.00181894
0.00173427
0.00157353
0.00204069
0.00261002
0.00298489
0.00337758
0.0044962
0.00414404
0.00396204
0.00308232
0.00297228
0.00156739
0.0022391
0.00229279
0.00257047
0.00170734
0.00154845
0.00143983
0.00184848
0.00209646
0.00246215
0.00272492
0.0032553
0.00245691
0.00276711
0.00248476
0.00170551
0.00166893
0.00241289
0.00261753
0.00219558
0.00199555
0.0024423
0.0022942
0.00161913
0.00132485
0.00204541
0.00214566
0.00161992
0.003625
0.00374857
0.00370289
0.00451194
0.00576851
0.00666731
0.00611119
0.00542993
0.00619393
0.00483803
0.00461053
0.00493695
0.00412335
0.00293787
0.00306884
0.00322596
0.00333353
0.00358978
0.00381939
0.0040966
0.00441072
0.0040429
0.00339241
0.00260097
0.00183274
0.00183255
0.0018215
0.00163308
0.0024168
0.00361003
0.00354127
0.00199885
0.00117855
0.00134987
0.00152498
0.00150256
0.00107014
0.000810893
0.00139629
0.00159227
0.00161494
0.00157258
0.00148313
0.00154827
0.00248579
0.00382947
0.00420841
0.00435843
0.00449955
0.00459834
0.00465178
0.00466667
0.00467395
0.00468419
0.00469394
0.0047102
0.00469632
0.0045971
0.00404367
0.00254069
0.00148783
0.0013863
0.00153139
0.00164746
0.00175034
0.0014919
0.000908919
0.00145361
0.00185878
0.00213165
0.00214795
0.00200339
0.0019424
0.00306194
0.00407151
0.00479896
0.00494427
0.00500638
0.0049466
0.00493344
0.00481841
0.00477588
0.0041791
0.00301749
0.00330369
0.00355032
0.00359658
0.00368402
0.00381367
0.00372632
0.00351657
0.00516395
0.00592251
0.00600355
0.006133
0.0060507
0.00592484
0.00562404
0.00529088
0.00444708
0.00333117
0.00209735
0.00213875
0.00227509
0.00225169
0.00195944
0.00207493
0.00225875
0.00228204
0.00235909
0.00264991
0.00301486
0.00287031
0.0024566
0.00209622
0.00195652
0.00192653
0.00185562
0.00140165
0.00141563
0.00136682
0.0013815
0.0018408
0.00218971
0.00252875
0.00360551
0.00321584
0.00261383
0.0041923
0.00428685
0.00461668
0.00510145
0.00523758
0.00585636
0.00402783
0.00360773
0.00370478
0.0030194
0.00279031
0.00281483
0.00282391
0.00262042
0.00286837
0.00284283
0.00274035
0.00302723
0.00335402
0.00443039
0.00538971
0.00570874
0.0059012
0.00598365
0.00595697
0.00581554
0.00582763
0.00511186
0.00508204
0.00487622
0.00473497
0.00468041
0.00443458
0.00510364
0.00530694
0.00537427
0.00550738
0.00571245
0.00558012
0.00540388
0.00527113
0.00517291
0.0050651
0.00512826
0.00523269
0.00534052
0.00548982
0.00569026
0.0057351
0.00552881
0.00537016
0.00525819
0.00515229
0.00516141
0.00525689
0.00536658
0.0055166
0.00570065
0.00558969
0.00545234
0.0053214
0.00521142
0.0051126
0.00493396
0.00505872
0.0051934
0.00530142
0.00536331
0.00461944
0.00495033
0.00486849
0.00440669
0.00412173
0.00312855
0.00338616
0.00357143
0.00388911
0.00431414
0.00439447
0.0036784
0.0031477
0.00305832
0.00303166
0.00310119
0.00312906
0.00315179
0.00356685
0.00550598
0.00552923
0.00550856
0.00548886
0.00465861
0.00453413
0.00424617
0.00797678
0.00736958
0.00632188
0.00513684
0.0027266
0.00233825
0.00277602
0.00337533
0.00376944
0.00415432
0.00276168
0.00169789
0.00197001
0.00202803
0.00195745
0.00180268
0.00150593
0.00138901
0.00125705
0.00135306
0.00240907
0.00387006
0.00436133
0.00440046
0.00433768
0.00420975
0.00400326
0.00389546
0.0063761
0.00747854
0.0079076
0.0080933
0.00792691
0.00683343
0.00585491
0.00348646
0.00195756
0.00170433
0.00175785
0.00173892
0.00187788
0.00199793
0.00178298
0.00177281
0.00173062
0.0030468
0.00504205
0.00561279
0.00672274
0.0072073
0.00707508
0.00643189
0.00527586
0.00429143
0.00448076
0.00457676
0.00464887
0.00469349
0.00466499
0.00423742
0.00259953
0.00154933
0.00137101
0.00146865
0.00172451
0.00184161
0.00187394
0.0018594
0.00162071
0.00269992
0.00427719
0.0027239
0.00147797
0.0015883
0.00156764
0.00276935
0.0027757
0.0027323
0.00425036
0.00451823
0.00453342
0.00425571
0.00404821
0.00239747
0.00274319
0.00275664
0.00277141
0.00281457
0.0014232
0.00155276
0.00160255
0.00172755
0.00149899
0.0018737
0.000485663
0.000678382
0.000789432
0.00086816
0.000937108
0.000918174
0.00177175
0.00181158
0.0017225
0.00164933
0.00209586
0.00225583
0.0022986
0.00210879
0.00194338
0.00207041
0.00208065
0.00196219
0.00185684
0.00192175
0.00191974
0.00184082
0.00156525
0.00146678
0.00160934
0.00159402
0.00158292
0.00283681
0.00283204
0.00268077
0.00440828
0.0043407
0.00486043
0.00482212
0.00479106
0.00474472
0.00479761
0.00485074
0.00489413
0.00492562
0.00491753
0.00486906
0.00697085
0.0047902
0.00417998
0.00241898
0.00233053
0.0016463
0.00144443
0.00170187
0.00182108
0.00197522
0.00193168
0.0020338
0.0020302
0.0021546
0.00199871
0.00177378
0.00271558
0.00290152
0.00283398
0.00288996
0.00282109
0.00280384
0.00278327
0.00274415
0.00269661
0.00160646
0.00157631
0.00184711
0.0019399
0.00208492
0.00210297
0.00214883
0.00203674
0.00179032
0.00173285
0.00199663
0.00196934
0.0020087
0.00189297
0.00188429
0.00167807
0.00172112
0.00347912
0.00651587
0.0033021
0.00367925
0.0033332
0.00380501
0.00332027
0.00285635
0.00291974
0.00256948
0.00267988
0.00281008
0.0028606
0.00300608
0.0035434
0.00340609
0.00298984
0.00290416
0.00284854
0.00268864
0.00242041
0.00253003
0.00254788
0.00260036
0.00289038
0.0033195
0.00371382
0.00453569
0.00439493
0.0038391
0.00351273
0.00367626
0.00374879
0.00473591
0.00440922
0.00439386
0.00466147
0.00463934
0.00439924
0.00415466
0.0040022
0.00342986
0.00349255
0.00400222
0.00386461
0.00397701
0.00389921
0.0040621
0.00412793
0.00395274
0.00366592
0.00388514
0.00388671
0.00430649
0.00417479
0.00387056
0.00352394
0.00378647
0.00377021
0.00434121
0.00406853
0.00380707
0.00350066
0.00338242
0.00383996
0.0037559
0.00424874
0.00438845
0.0043984
0.00384485
0.00373902
0.00443723
0.00426897
0.00414796
0.00432113
0.0035924
0.00366042
0.0045124
0.00460372
0.00438361
0.00368185
0.00370349
0.00316449
0.00371774
0.00464103
0.00438443
0.00359517
0.00301271
0.00418435
0.00439505
0.00465706
0.00439993
0.00478887
0.00517602
0.00420512
0.00458763
0.00602675
0.00453957
0.00527011
0.00538403
0.00540872
0.00540068
0.00540727
0.00541671
0.00568345
0.00548725
0.00353429
0.00420809
0.00412787
0.00347382
0.00297015
0.00326931
0.00352337
0.00357909
0.00367524
0.00381926
0.00374972
0.00358187
0.00519728
0.00593196
0.00606413
0.0061964
0.00608601
0.00592258
0.0055894
0.00523248
0.00439197
0.00328678
0.00206764
0.00211067
0.00225121
0.00223401
0.0019415
0.00146057
0.000968135
0.00143796
0.00150627
0.00143563
0.0013262
0.00119925
0.00128095
0.00227805
0.00366194
0.00412079
0.00411525
0.00394644
0.0048403
0.0065166
0.00731173
0.00777836
0.00805549
0.00820365
0.00822244
0.00803385
0.00730365
0.0070076
0.00663266
0.00633367
0.00595099
0.00563032
0.00633059
0.00692855
0.00728602
0.00768238
0.0078379
0.00773508
0.00674232
0.00671812
0.00772996
0.00943758
0.007962
0.00999125
0.0118565
0.009291
0.00831984
0.00824784
0.00908356
0.00927698
0.00899344
0.00850692
0.00793399
0.00719713
0.00753279
0.00783262
0.00811442
0.00836026
0.00912947
0.00930825
0.00924683
0.00905439
0.00873728
0.00822926
0.0073946
0.00561555
0.00408604
0.00428471
0.00434953
0.00387838
0.00217979
0.00243727
0.00242892
0.0024406
0.00240928
0.00113945
0.00126453
0.00129263
0.00131977
0.00123956
0.00143396
0.00204637
0.00325545
0.00246975
0.00216386
0.00129501
0.00146508
0.00245444
0.00404155
0.00448112
0.00450759
0.00442212
0.00434963
0.00535345
0.00667
0.0071832
0.00751301
0.00752952
0.0073203
0.00692151
0.00634024
0.00616218
0.00585873
0.00563551
0.00555626
0.00536947
0.00505366
0.00400233
0.00375916
0.00391666
0.00386442
0.00368784
0.00393711
0.00407766
0.0040727
0.00411654
0.00415537
0.00427769
0.00442183
0.0045472
0.00461266
0.00463653
0.0046436
0.00465251
0.00465952
0.00467344
0.00465773
0.0045567
0.00400351
0.00251004
0.00146859
0.00135826
0.00148903
0.00157473
0.00161149
0.00143269
0.000922798
0.00143306
0.00185467
0.00189834
0.00207989
0.00214133
0.00226302
0.00251366
0.00290185
0.00299308
0.00266049
0.00252615
0.00247703
0.00241232
0.00209584
0.00261385
0.00284205
0.0028348
0.00280061
0.00302103
0.00371099
0.00357161
0.00315563
0.00313052
0.00310111
0.00284649
0.00281212
0.00302317
0.00305316
0.0031528
0.00368807
0.00441029
0.00409952
0.00374231
0.00360949
0.00334069
0.00298814
0.00270465
0.00321821
0.00270268
0.00157834
0.00149239
0.00128579
0.0012673
0.0012429
0.00147675
0.00156209
0.00161476
0.00151175
0.00165964
0.0018237
0.00173358
0.00192303
0.00190907
0.00174299
0.0016743
0.00173925
0.00179493
0.00190611
0.00199503
0.00330279
0.00350173
0.00272015
0.00383933
0.00425735
0.00402759
0.00433566
0.00365917
0.00336586
0.00396727
0.00446564
0.00493766
0.00398895
0.00383259
0.00384937
0.00181361
0.00095582
0.00134843
0.00168178
0.00190198
0.00185446
0.0017471
0.00147725
0.00261629
0.00266061
0.00415358
0.00464257
0.00469056
0.0046588
0.00459024
0.00467599
0.00539801
0.0061784
0.00674246
0.0067759
0.0064871
0.00588602
0.00534565
0.00539509
0.00527548
0.00520239
0.00521256
0.00453125
0.0039531
0.00420968
0.00413401
0.00426955
0.00433054
0.00437344
0.00441731
0.00449328
0.00458539
0.00466805
0.00472388
0.00476028
0.00479076
0.00482183
0.00485178
0.0048834
0.00489614
0.00484356
0.00437495
0.00264075
0.00158123
0.00144624
0.00154354
0.00181324
0.00190928
0.00205305
0.00182616
0.000961446
0.00112867
0.00196341
0.00216974
0.00200606
0.00187797
0.00184003
0.0015422
0.00277733
0.00273606
0.00427071
0.00480734
0.00488262
0.0048778
0.0048483
0.00481303
0.00477891
0.00475146
0.00473063
0.00470823
0.0046739
0.00463201
0.00459119
0.00454769
0.00447055
0.00435903
0.00424155
0.00439135
0.00451659
0.00469959
0.00490724
0.00502304
0.00493349
0.00478986
0.00471897
0.00473496
0.0047675
0.00480177
0.00483166
0.00484238
0.00477722
0.00449477
0.00421873
0.00268298
0.00271689
0.00134865
0.00150075
0.00173012
0.00178592
0.00194426
0.00193681
0.00152808
0.00119144
0.00134089
0.00124911
0.00222345
0.00244061
0.00269683
0.00266917
0.00146
0.00149717
0.00155757
0.00175954
0.00164206
0.00158151
0.00377878
0.00365771
0.00385858
0.00471575
0.00406967
0.00282236
0.00309005
0.00429587
0.00452552
0.00274333
0.00206525
0.00228416
0.00288824
0.00425131
0.00429945
0.00407938
0.0040619
0.00297394
0.00366522
0.00440826
0.00428007
0.00334213
0.00230162
0.00171983
0.000847835
0.00161225
0.0013801
0.00336407
0.00371963
0.00367027
0.00400186
0.00426104
0.00430439
0.00417349
0.00371676
0.00379118
0.00382459
0.00434577
0.00435266
0.00370445
0.0031247
0.00255
0.00256681
0.0026103
0.00288673
0.00361117
0.0034057
0.00298971
0.00290528
0.00284887
0.0026851
0.00242479
0.00213293
0.00214684
0.00199811
0.00193382
0.00304595
0.00405076
0.00477449
0.00491453
0.00496817
0.004897
0.00486856
0.00473682
0.00467336
0.00406916
0.00522168
0.00549743
0.00528966
0.00531631
0.00533705
0.00536464
0.00535281
0.00524535
0.00451712
0.00270231
0.0017668
0.00199408
0.0021529
0.00202283
0.00201016
0.00214101
0.00203026
0.00178297
0.00288736
0.00281941
0.00450036
0.0050865
0.00520386
0.00522686
0.00522051
0.00521781
0.00523726
0.00552693
0.00540288
0.00540709
0.00558846
0.0056287
0.00571516
0.0053776
0.00532234
0.00529295
0.00527577
0.00523671
0.00511203
0.00452338
0.00438271
0.00497563
0.00512512
0.00518512
0.00522388
0.00527296
0.0053456
0.00556092
0.00571462
0.00573912
0.00558906
0.00554833
0.00541437
0.0052187
0.00516691
0.00514498
0.00512793
0.00508556
0.00494442
0.00435671
0.00280466
0.0028748
0.00171183
0.00172445
0.00198692
0.00208842
0.00205232
0.00190125
0.00185442
0.0031605
0.00359161
0.00383068
0.00410672
0.00392058
0.00390175
0.00445533
0.0043122
0.00384503
0.00400024
0.00359864
0.00343378
0.00329062
0.00329938
0.00177187
0.00191093
0.00199192
0.00195731
0.00187134
0.00166783
0.00152921
0.00278686
0.00276677
0.00272821
0.00162727
0.00159261
0.00187665
0.00182367
0.0016694
0.00142307
0.00155873
0.00239846
0.00268013
0.00414949
0.00429158
0.00460163
0.00492164
0.00505249
0.00510364
0.00513313
0.00516547
0.00521679
0.00528144
0.00529959
0.00528573
0.00530964
0.00532886
0.00532392
0.00527993
0.00523582
0.00519379
0.00515342
0.00509
0.00495477
0.00463076
0.00431441
0.00486348
0.00490924
0.00500427
0.0051063
0.00515267
0.00516861
0.00516453
0.0051478
0.00512744
0.00508833
0.00507486
0.00516827
0.00518285
0.00519402
0.00517254
0.00516259
0.0051593
0.0051388
0.00509197
0.00498288
0.00488455
0.00483834
0.00475938
0.00488721
0.00494403
0.00495859
0.00501428
0.00510057
0.00512446
0.00511139
0.00506878
0.00503157
0.00500532
0.00496397
0.00491786
0.00473785
0.00478491
0.00485118
0.00492513
0.00499754
0.00505632
0.0050846
0.00507349
0.00500965
0.00496767
0.00496225
0.0049148
0.00493905
0.00497244
0.00496153
0.0049772
0.00500528
0.00497973
0.00489889
0.00478242
0.0046552
0.0045423
0.0044625
0.00436663
0.00459921
0.00468567
0.0047625
0.00483751
0.00492956
0.00502567
0.00507915
0.00507859
0.00501619
0.00497594
0.00496726
0.00491738
0.00491632
0.00496581
0.00497626
0.00501244
0.00507061
0.00503947
0.00493174
0.00475644
0.00459123
0.00446905
0.00436564
0.00423708
0.00404333
0.00414114
0.00420217
0.00434489
0.00452157
0.00471197
0.00486459
0.00493606
0.00493046
0.00493193
0.00495274
0.00492925
0.00491019
0.00492273
0.00489435
0.00487447
0.0048416
0.00472391
0.0045229
0.00432209
0.00418846
0.00417871
0.0042281
0.00415132
0.00401129
0.0041609
0.00425349
0.00437129
0.0045564
0.00479262
0.00496058
0.00502596
0.00499849
0.00497064
0.00495715
0.00490853
0.00489454
0.00494191
0.00495964
0.00499362
0.00502054
0.00494455
0.00478116
0.00450869
0.00422112
0.00413179
0.00407631
0.00395582
0.00416753
0.00425755
0.00418832
0.00415004
0.00431343
0.00450849
0.00469259
0.00480574
0.00482882
0.00485261
0.00488562
0.00488399
0.00484523
0.00482741
0.00479116
0.00477336
0.00476377
0.00469644
0.00456337
0.00442873
0.00431986
0.00443515
0.00443471
0.00434215
0.00415392
0.00427045
0.00439925
0.00435104
0.0045577
0.00478885
0.00492542
0.00497949
0.00495217
0.00491854
0.00490186
0.00486717
0.00482064
0.00482333
0.00483806
0.00491183
0.00497538
0.00495837
0.00492766
0.00479601
0.00460813
0.00462238
0.00432535
0.00416408
0.0043695
0.00447338
0.00451426
0.00446259
0.00463959
0.00472062
0.00475802
0.00477683
0.00474462
0.00470552
0.00473812
0.00479235
0.00472747
0.00445914
0.00420463
0.00435071
0.0043723
0.00434044
0.00428073
0.00420186
0.00400948
0.00439441
0.00470854
0.00469883
0.00449195
0.00455847
0.00453029
0.00417609
0.00437739
0.00447997
0.00453166
0.00455414
0.00450733
0.00432731
0.00455451
0.00475611
0.00471433
0.00427664
0.00279337
0.00283603
0.00285785
0.00286134
0.00281609
0.0028043
0.0027554
0.00273157
0.00266092
0.0025913
0.00252638
0.00269319
0.00283966
0.00303268
0.00304122
0.0031158
0.0029695
0.0028051
0.00261018
0.00204426
0.00259401
0.00309387
0.00330269
0.00356687
0.00363139
0.00422084
0.0044369
0.00454295
0.00444465
0.00356806
0.00302462
0.00241549
0.0015706
0.000977483
0.00114571
0.00119011
0.0012445
0.00151135
0.00281941
0.00142457
0.00198177
0.00154882
0.00267602
0.00136746
0.000884061
0.000587819
0.000751241
0.000898689
0.000909327
0.00087358
0.000730895
0.000578096
0.000591286
0.000549586
0.000584261
0.000520377
0.000596455
0.000558421
0.00088022
0.00124021
0.0013492
0.00136994
0.00110341
0.00123787
0.00103419
0.00118912
0.00106066
0.00115544
0.0011082
0.00135497
0.00148548
0.00142384
0.00142951
0.00125202
0.000877051
0.00101624
0.000798525
0.000958518
0.000732344
0.000945331
0.000810586
0.00105279
0.00108442
0.00108062
0.00103988
0.000793957
0.000939428
0.000739284
0.000910009
0.00074475
0.000799142
0.000666327
0.000965305
0.000983203
0.000906508
0.000962861
0.00108078
0.00116121
0.00128024
0.00121413
0.00137739
0.00132786
0.00134128
0.00127119
0.00123868
0.00121174
0.00121565
0.00119668
0.00120414
0.00124385
0.00124694
0.00125328
0.00129372
0.00127535
0.00124388
0.00122432
0.00108742
0.000876723
0.00152657
0.00157405
0.00159644
0.0015948
0.00155797
0.00154104
0.0014914
0.0014771
0.00143377
0.00140597
0.00134662
0.00129481
0.00123797
0.0013879
0.000775734
0.000880162
0.000928754
0.000955165
0.000974288
0.000982678
0.000990164
0.000984726
0.000972992
0.000949057
0.000940877
0.00091502
0.00117151
0.00133261
0.00139395
0.00141091
0.001322
0.00125782
0.00275618
0.00333123
0.00506586
0.00517285
0.00388399
0.00387136
0.00133801
0.00140804
0.000964627
0.00135501
0.00139598
0.00138058
0.00130282
0.000938154
0.00140468
0.000977558
0.0013219
0.000992704
0.00124058
0.00102137
0.00145483
0.00185431
0.0017898
0.00162129
0.001112
0.000928776
0.000927412
0.000796846
0.000869219
0.000715318
0.000877118
0.000745194
0.0012025
0.00161554
0.00173621
0.0017623
0.00138656
0.00190995
0.00143751
0.00207556
0.00164261
0.00201985
0.00161713
0.00187094
0.00231415
0.00232523
0.00227199
0.00183358
0.00147453
0.00165448
0.00146727
0.00168861
0.00243227
0.00159547
0.00241523
0.00100004
0.00136319
0.00140451
0.00138457
0.00130474
0.000878161
0.00223111
0.00117885
0.00210132
0.00136179
0.00219355
0.00159333
0.00211018
0.00252573
0.00264024
0.00262697
0.00214381
0.00193444
0.00199451
0.00159888
0.00191583
0.00143162
0.00207571
0.00116994
0.0015389
0.00170695
0.00178629
0.00179643
0.00148394
0.00290747
0.00182432
0.00274898
0.00190794
0.00244041
0.00195384
0.00213636
0.0025205
0.00250618
0.00248713
0.00211079
0.00171005
0.00225717
0.00161316
0.0475093
0.110116
0.0436214
0.110942
0.0502466
0.0712815
0.0702475
0.0704217
0.0707326
0.0532066
0.116097
0.137063
0.142905
0.144622
0.14354
0.232056
0.189262
0.284657
0.184888
0.108651
0.0470648
0.0651238
0.16801
0.277357
0.415407
0.526603
0.358631
0.371108
0.236778
0.233485
0.219866
0.177948
0.109058
0.0547473
0.00937999
0.0102779
0.014777
0.0197499
0.0156616
0.0096438
0.00188189
0.00194276
0.00198661
0.00201382
0.00200703
0.0019661
0.00200194
0.00191406
0.00180759
0.00202999
0.00220179
0.00197169
0.00235048
0.0026833
0.00238313
0.00271929
0.00296085
0.00314843
0.00328601
0.00346897
0.00367196
0.00387615
0.00391895
0.00362412
0.00310184
0.00256259
0.00221049
0.00210975
0.0019894
0.00175126
0.00160377
0.00151888
0.00146431
0.00143365
0.00146288
0.00159031
0.00169099
0.00172214
0.00167492
0.00164123
0.00161126
0.00143185
0.00166967
0.00229006
0.00232789
0.00398575
0.0045938
0.00468734
0.00469092
0.00419391
0.00268983
0.0026962
0.00271077
0.00276438
0.00277421
0.00277599
0.00277102
0.00275243
0.00273681
0.00270731
0.00269496
0.00266012
0.00262621
0.00254533
0.00254881
0.00257954
0.00260582
0.00258145
0.00260522
0.00254857
0.00260605
0.00335116
0.00451348
0.00485583
0.00510325
0.00492555
0.00656475
0.0052406
0.0041694
0.0042538
0.00418922
0.00481714
0.0047639
0.00456524
0.00469163
0.00434062
0.0026787
0.00266153
0.00265973
0.00274728
0.0027798
0.00282558
0.00283765
0.00286263
0.00287614
0.00288909
0.00289183
0.00287706
0.00286181
0.002793
0.00277056
0.002762
0.00152074
0.00166338
0.00173073
0.00173946
0.00175824
0.00174735
0.00172575
0.00170653
0.00169192
0.00167527
0.00166253
0.00163346
0.00157348
0.00143813
0.00158541
0.00270934
0.00270089
0.00447986
0.00492641
0.00489935
0.00511318
0.00500921
0.00481159
0.00501379
0.00483636
0.00484153
0.00439094
0.00271436
0.00275378
0.00162286
0.0016049
0.00186769
0.00181481
0.00190503
0.00192953
0.00191591
0.00192691
0.00195222
0.00198055
0.00204642
0.00205753
0.00203397
0.0020318
0.00190305
0.00163712
0.00165729
0.0019652
0.0020761
0.00191632
0.00187501
0.00186446
0.00180785
0.00177596
0.00174515
0.00178361
0.00194085
0.00196864
0.00193847
0.00186886
0.00181913
0.00159013
0.00153701
0.00271425
0.00272995
0.00440462
0.00461365
0.00443026
0.00464349
0.00497537
0.0056967
0.0047038
0.00400045
0.00455074
0.00513248
0.00377318
0.00317454
0.00184719
0.00149907
0.00177312
0.00175951
0.00181431
0.00188077
0.00165058
0.00176603
0.00161499
0.00146342
0.00144651
0.00144105
0.00147586
0.00148964
0.00151569
0.00151881
0.00156437
0.00155981
0.00156143
0.00158022
0.00159555
0.00176461
0.00192975
0.00162279
0.00137157
0.00132664
0.00125228
0.00119375
0.00122463
0.00118962
0.00118276
0.00116173
0.00114327
0.00109186
0.00114213
0.00121873
0.00143335
0.00137518
0.00110592
0.000983011
0.000670986
0.000680667
0.000685237
0.0007063
0.000713568
0.000722549
0.00072572
0.000737417
0.000739297
0.000742937
0.000742498
0.000764252
0.000761233
0.000751437
0.000745786
0.000748739
0.00075169
0.000751291
0.00110107
0.00122823
0.00135607
0.00161296
0.00189808
0.00163858
0.00138841
0.00118483
0.00075869
0.000769491
0.000786841
0.000794385
0.000813967
0.000829831
0.000848566
0.000859264
0.00086776
0.000875344
0.00088396
0.000885861
0.000882893
0.000863703
0.000852837
0.000872736
0.000956013
0.00100476
0.00106712
0.00109026
0.00110755
0.00111512
0.00110961
0.00112133
0.00110758
0.00110512
0.00108569
0.00107684
0.00106853
0.00105784
0.00104517
0.00101452
0.00100405
0.00105586
0.00179064
0.00234466
0.00270602
0.00298788
0.00273772
0.00220055
0.00233623
0.00411956
0.0038819
0.00229861
0.00214449
0.00197402
0.00174526
0.00135315
0.00143034
0.0018005
0.00206703
0.00231105
0.00251839
0.0026608
0.00281147
0.00298838
0.00332119
0.00338098
0.00309739
0.0025566
0.00222742
0.00212669
0.00206341
0.00193576
0.00179687
0.00182716
0.00183917
0.00178198
0.00170566
0.00167231
0.00169443
0.0017099
0.00168388
0.00167901
0.0014956
0.00149746
0.00255215
0.00263098
0.00404175
0.00425102
0.00428585
0.00276694
0.002727
0.00159282
0.00147879
0.00161344
0.00167388
0.00167689
0.00168409
0.00167253
0.00164497
0.00162434
0.00160295
0.0015844
0.0015719
0.00154339
0.00149038
0.00137246
0.0015044
0.0016979
0.00176756
0.00178239
0.00178453
0.00180864
0.00184648
0.001879
0.00195469
0.00196711
0.00196168
0.00196817
0.00184498
0.00190309
0.00161173
0.00161132
0.00279276
0.00279006
0.00160355
0.00189274
0.00190052
0.00186743
0.0020107
0.00184521
0.00179156
0.00177876
0.00171197
0.00167741
0.00163232
0.00160538
0.00164428
0.00175571
0.00171481
0.00150566
0.00148558
0.00166258
0.00157999
0.00131189
0.00112049
0.00108597
0.00103602
0.00100402
0.00104759
0.00107934
0.00109685
0.00111934
0.00112571
0.00116922
0.00113869
0.00119691
0.00126863
0.00131988
0.00156515
0.00169915
0.00153564
0.00151076
0.00149208
0.0014879
0.00149194
0.00143761
0.00143463
0.00140745
0.00139412
0.00135836
0.00134209
0.00132161
0.00132921
0.00134692
0.00148337
0.00389403
0.00496863
0.00521735
0.00884881
0.00357566
0.00367076
0.00726394
0.00293405
0.00446214
0.00483728
0.00502721
0.00521057
0.00475096
0.00603911
0.00415522
0.00455504
0.00496553
0.00474684
0.00158204
0.00146112
0.00122922
0.00110743
0.0010522
0.000763102
0.000990558
0.00108131
0.00114301
0.00118235
0.00121034
0.0012424
0.00127031
0.00129289
0.00129955
0.00126863
0.0012328
0.00114576
0.00111728
0.00116067
0.00120661
0.00107139
0.00101223
0.00102521
0.0010455
0.00105616
0.00106064
0.0010726
0.00107757
0.00109596
0.0010886
0.00109812
0.00108285
0.0010941
0.00107668
0.00103563
0.000985511
0.000894351
0.000870466
0.00125384
0.00133844
0.00140798
0.0015887
0.00183393
0.00196235
0.00175527
0.0016024
0.00153762
0.00171135
0.00169001
0.0030655
0.00587962
0.00262919
0.00298655
0.00863862
0.00340492
0.00268326
0.0027286
0.0027573
0.00275799
0.0016086
0.00190516
0.00183779
0.0018358
0.00155549
0.00130484
0.00117632
0.00105351
0.000713677
0.000711148
0.000716509
0.000726843
0.00072992
0.000702205
0.000702265
0.000699169
0.000698015
0.000685638
0.000682188
0.000672153
0.000666418
0.000651466
0.00064367
0.000627802
0.00062322
0.000597021
0.00059243
0.000591297
0.000877576
0.000965569
0.00104752
0.00125134
0.00338481
0.00375816
0.00510908
0.00507641
0.00814957
0.00501561
0.00379803
0.00346754
0.00512713
0.00518538
0.00513254
0.00749148
0.00503185
0.00323396
0.00303746
0.00314232
0.00483395
0.00479379
0.00456796
0.00504227
0.0048972
0.00172757
0.00160174
0.00177826
0.00195486
0.00230928
0.00181533
0.00220482
0.00194677
0.00147133
0.00141355
0.00449493
0.00588232
0.0041697
0.00431228
0.00643547
0.0028243
0.00277915
0.00253319
0.00211671
0.0019376
0.00188244
0.00207738
0.00247143
0.00664363
0.00669629
0.00374259
0.00494883
0.00462736
0.00623631
0.00705509
0.00776832
0.00696487
0.00649702
0.00506259
0.00277464
0.00299115
0.00330502
0.00362243
0.00485055
0.00506966
0.010697
0.00356975
0.00395814
0.00401503
0.00545405
0.00516884
0.00933356
0.00379704
0.00410733
0.00545612
0.00710032
0.0136846
0.00470098
0.00504318
0.00733361
0.00739065
0.00675007
0.00493296
0.00454744
0.00502154
0.00374873
0.00365981
0.00312913
0.00472073
0.00649647
0.00492105
0.00479424
0.00418525
0.003429
0.00380669
0.00383245
0.00311122
0.00308527
0.00371051
0.00253644
0.00227011
0.00283478
0.000738648
0.000385612
0.000394229
0.000402801
0.000409585
0.00041645
0.000421999
0.000427688
0.000430695
0.000430328
0.000431199
0.000454074
0.000450753
0.000436279
0.000396264
0.000452361
0.000717905
0.000718651
0.000451781
0.000398728
0.000713909
0.00113648
0.00133368
0.00158079
0.00160194
0.00137958
0.00119919
0.000738069
0.000727526
0.000441755
0.000515493
0.000560413
0.000497103
0.000554078
0.000513626
0.000545364
0.000548988
0.000509537
0.000507312
0.000510331
0.000507054
0.000499755
0.000489833
0.000477369
0.000466403
0.000456802
0.000443322
0.000418186
0.000371572
0.000337149
0.000367956
0.000388133
0.000434936
0.000462258
0.000490014
0.000508442
0.000521354
0.000529714
0.000530416
0.000539015
0.000555684
0.0005595
0.000563577
0.000605166
0.000589639
0.000629448
0.000588781
0.000628843
0.000591285
0.000543344
0.00045647
0.000470416
0.000757544
0.00076475
0.00123645
0.0014153
0.0016097
0.0016217
0.00181997
0.00192116
0.00162476
0.00168983
0.00194141
0.00180367
0.00160492
0.00160615
0.00144351
0.00143869
0.0012707
0.000792773
0.00078225
0.000492048
0.000478202
0.000570208
0.000560268
0.000623816
0.000666838
0.000668727
0.000667115
0.000646283
0.000640559
0.000565496
0.000555366
0.000556723
0.000539281
0.000530397
0.000530196
0.000517443
0.000516605
0.000539172
0.000529327
0.000521428
0.000523495
0.000522156
0.000361998
0.0003348
0.000594719
0.000649415
0.000704965
0.00288935
0.000723011
0.00129262
0.00119248
0.00046142
0.00061263
0.000762403
0.000849806
0.000889239
0.000847186
0.000732385
0.000616889
0.000479086
0.000396681
0.000695419
0.000611665
0.00079974
0.000709614
0.000919548
0.00106937
0.00103766
0.00104855
0.000888807
0.000727468
0.000769955
0.000697035
0.000770795
0.000642154
0.000771678
0.000698837
0.000879896
0.000888904
0.000871225
0.000826735
0.000630283
0.000661846
0.000554963
0.000601743
0.000539589
0.000557945
0.000529731
0.000617928
0.000712343
0.000683791
0.000681318
0.000559896
0.000438852
0.000484123
0.000417263
0.000471956
0.000367209
0.000445773
0.000374993
0.000484959
0.000496554
0.000488547
0.000462947
0.000346573
0.000411298
0.000548291
0.000596538
0.000608878
0.000583458
0.000450661
0.000698015
0.000634124
0.000776388
0.00067575
0.000736095
0.000671174
0.000780103
0.000997121
0.00103894
0.00104533
0.000846447
0.000839179
0.00151369
0.0825642
0.00136197
0.00160876
0.00165695
0.00164984
0.00136466
0.00133761
0.00164939
0.00122764
0.00173007
0.00108932
0.00183556
0.000699972
0.00106429
0.00114229
0.00113897