/*--------------------------------*- C++ -*----------------------------------*\
| =========                 |                                                 |
| \\      /  F ield         | OpenFOAM: The Open Source CFD Toolbox           |
|  \\    /   O peration     | Version:  v2012                                 |
|   \\  /    A nd           | Website:  www.openfoam.com                      |
|    \\/     M anipulation  |                                                 |
\*---------------------------------------------------------------------------*/
FoamFile
{
    version     2.0;
    format      ascii;
    class       volScalarField;
    location    "1210";
    object      epsilon;
}
// * * * * * * * * * * * * * * * * * * * * * * * * * * * * * * * * * * * * * //

dimensions      [0 2 -3 0 0 0 0];


internalField   nonuniform List<scalar> 
18258
(
0.0242539
0.0123531
0.00923693
0.0072789
0.0127194
0.0126302
0.0130827
0.0174363
0.024271
0.0371226
0.0536891
0.0482218
0.0435725
0.045294
0.0474515
0.045027
0.0350639
0.0303166
0.039968
0.0666569
0.0608309
0.0497429
0.0608113
0.0514939
0.0659421
0.0834434
0.0639644
0.0574662
0.0515824
0.0485604
0.0420624
0.0242147
0.034353
0.0528808
0.0724173
0.0792562
0.0850395
0.0899498
0.0951209
0.0972693
0.0975327
0.0923014
0.0830848
0.0678685
0.0497763
0.038131
0.0294223
0.0317941
0.0445422
0.0449732
0.055528
0.0852994
0.107722
0.0808121
0.0517634
0.0825155
0.11248
0.144226
0.170718
0.193136
0.200824
0.197379
0.185836
0.169099
0.147654
0.122675
0.101691
0.0847759
0.0670014
0.0572052
0.0462579
0.0383487
0.0327835
0.0291239
0.0269223
0.0252036
0.0240435
0.024969
0.0248531
0.0177254
0.0139416
0.0130942
0.00936611
0.00778396
0.00809834
0.00770315
0.00800016
0.00706208
0.00605102
0.00525655
0.00446023
0.00650157
0.00699975
0.00724164
0.00726136
0.00778043
0.00801875
0.00774973
0.00784199
0.00716708
0.00755475
0.0120332
0.0137621
0.0174556
0.0156446
0.0109205
0.00900663
0.0100513
0.0106611
0.0132823
0.0125516
0.0133212
0.0118128
0.0107958
0.00910903
0.00883453
0.00905976
0.00962916
0.0100246
0.0116379
0.0114751
0.0106524
0.0117752
0.0129857
0.0127086
0.0121608
0.0115724
0.0142026
0.0114015
0.0120818
0.0135728
0.0218698
0.0213997
0.0258946
0.0254174
0.025848
0.0260268
0.0313992
0.0315206
0.031902
0.0322203
0.0339778
0.0568787
0.0506646
0.0495494
0.0493535
0.042688
0.0422316
0.0415552
0.0423704
0.0358814
0.0345357
0.0313257
0.0309715
0.0345655
0.0436609
0.0611101
0.0883262
0.122235
0.158553
0.188824
0.209823
0.231573
0.237005
0.250923
0.255683
0.256634
0.25101
0.242639
0.233219
0.220418
0.201908
0.189119
0.148704
0.10527
0.0591483
0.0785388
0.0905956
0.100333
0.102179
0.103289
0.0991619
0.0928733
0.0816817
0.0661342
0.0429971
0.0488658
0.0661835
0.06847
0.0691901
0.0548799
0.052801
0.0490065
0.0489674
0.0642916
0.0738452
0.0620955
0.0859207
0.100934
0.0882378
0.0639689
0.0979925
0.144208
0.0810889
0.0690163
0.0535052
0.0525028
0.0443754
0.0372383
0.0626924
0.0937139
0.128935
0.150184
0.172034
0.189699
0.203051
0.217203
0.18879
0.171484
0.115349
0.202198
0.153459
0.0775826
0.0574697
0.0562923
0.0436253
0.0499594
0.0554058
0.0513673
0.039395
0.0274679
0.025192
0.0467813
0.0652005
0.0788159
0.0626831
0.0797604
0.090064
0.0973659
0.102763
0.13036
0.096073
0.106741
0.0766899
0.103947
0.0739253
0.0476689
0.0527039
0.100685
0.160725
0.220534
0.257769
0.146644
0.0742213
0.0551601
0.0554396
0.053304
0.0481048
0.0597404
0.106305
0.0717713
0.0465901
0.0404665
0.0478488
0.0409122
0.0304432
0.0319099
0.0395941
0.0551769
0.0694245
0.0822701
0.125612
0.121442
0.146708
0.154147
0.129842
0.125442
0.0809151
0.0831169
0.122737
0.0914455
0.0739152
0.103847
0.146907
0.200959
0.247105
0.287355
0.313134
0.302762
0.273973
0.173303
0.075861
0.0228489
0.0177815
0.0168362
0.017309
0.0105163
0.00628855
0.00583718
0.00664409
0.0069975
0.00590856
0.00544151
0.00543359
0.00577335
0.0101759
0.00874651
0.010819
0.0131057
0.0156491
0.0186877
0.0194119
0.012879
0.00871706
0.00817994
0.00811511
0.00804541
0.00801493
0.00802514
0.00806378
0.00807794
0.00804421
0.00796473
0.00782759
0.00769257
0.007636
0.00827165
0.0111589
0.015319
0.0148177
0.0135305
0.0121782
0.0110206
0.00869621
0.0151242
0.012825
0.0109178
0.0133686
0.0164661
0.0208073
0.0244443
0.0176291
0.0141126
0.0127713
0.0126443
0.0125284
0.0125714
0.012447
0.0125092
0.0123089
0.0129028
0.0135523
0.0169499
0.0189776
0.0211638
0.0226702
0.0232628
0.0239856
0.0211391
0.0229614
0.0227154
0.0234958
0.0233092
0.0226167
0.0206952
0.0189013
0.0176775
0.0190871
0.023642
0.0322713
0.0266717
0.0206946
0.0167406
0.0136877
0.0149586
0.016634
0.0168087
0.0158219
0.015596
0.0153882
0.0138652
0.0130709
0.0110773
0.0104682
0.0100121
0.0101653
0.0143542
0.0134964
0.0136888
0.0144148
0.0154932
0.0146526
0.0150867
0.0142541
0.0145
0.0149184
0.0169902
0.0185429
0.0177874
0.0164794
0.0159794
0.0137096
0.015812
0.0156725
0.0169934
0.0185757
0.0190637
0.0189987
0.0183624
0.0167632
0.0186543
0.0220192
0.0256673
0.0246708
0.0243547
0.0204204
0.019226
0.0202003
0.0214741
0.0223816
0.0224531
0.0222764
0.0223554
0.0263464
0.025974
0.0247746
0.0226947
0.0202375
0.0175843
0.0151538
0.0166312
0.0181145
0.0195078
0.0207791
0.0205498
0.0190183
0.0176569
0.0164238
0.0149291
0.0146447
0.0160996
0.017324
0.0187585
0.020478
0.0205567
0.0188389
0.0173405
0.0160558
0.0145804
0.0145338
0.0160357
0.0173363
0.0187564
0.0202439
0.0196116
0.0184548
0.0172018
0.0159573
0.0145035
0.0145716
0.0158946
0.016965
0.0180501
0.0190013
0.0198506
0.0178906
0.0169794
0.0170687
0.0160794
0.0192567
0.0185018
0.0194447
0.0179955
0.0167752
0.0177814
0.0209685
0.0239969
0.0245465
0.0242662
0.0201365
0.0205922
0.0205701
0.0191556
0.0159373
0.0153387
0.0181016
0.0208306
0.0212902
0.0199876
0.0168959
0.0132639
0.0142796
0.0174305
0.0197367
0.0184867
0.0183267
0.0169156
0.0158374
0.0161346
0.0138526
0.0165895
0.0266321
0.0241009
0.0220758
0.0195959
0.0155976
0.0105603
0.0114555
0.0126058
0.0130211
0.0105295
0.00788513
0.00707967
0.00688631
0.00672777
0.00650855
0.00613909
0.00558047
0.00537502
0.0107086
0.0262491
0.0365916
0.0358954
0.0241661
0.0209126
0.0203695
0.0193117
0.00979585
0.00824892
0.00849429
0.0104076
0.00815406
0.00887014
0.0153347
0.0103821
0.0141424
0.0108933
0.0146583
0.0230499
0.0219386
0.0146367
0.00803976
0.00685929
0.00734432
0.00763312
0.00783707
0.00803368
0.00826713
0.00865287
0.00997137
0.0156774
0.0202329
0.0176948
0.0167023
0.0152375
0.0187728
0.0212587
0.0232
0.0259588
0.0160551
0.0117477
0.0165873
0.0271848
0.0246732
0.0232125
0.0170977
0.017638
0.0170725
0.0109734
0.0106304
0.0105523
0.011365
0.0127461
0.0146706
0.0158394
0.0165906
0.0169186
0.0178271
0.0231045
0.0216271
0.021124
0.0173629
0.0133651
0.0153451
0.0514147
0.0195405
0.0206527
0.0188827
0.0191559
0.0204385
0.0151584
0.0135254
0.0129442
0.0146497
0.021514
0.0215108
0.0213651
0.0182221
0.0174335
0.0208594
0.0219552
0.0223674
0.0217399
0.0212863
0.0194217
0.0166478
0.0180751
0.0195894
0.0207787
0.022786
0.0231348
0.0179125
0.0171877
0.0157997
0.0105118
0.011256
0.00969427
0.00966311
0.00962625
0.00935151
0.00890287
0.00919185
0.00931072
0.0093095
0.00896505
0.00926148
0.00831454
0.00865129
0.00974004
0.0151777
0.0147484
0.0175437
0.0194527
0.016704
0.0155477
0.0141889
0.0131694
0.0154136
0.0142521
0.016824
0.0211631
0.0264359
0.019079
0.0180826
0.0178562
0.017449
0.0172897
0.0173392
0.0166505
0.0156552
0.0150926
0.0235304
0.0212407
0.0181249
0.0171787
0.0157493
0.0179941
0.0174394
0.0213246
0.0267887
0.0269892
0.0214894
0.0215646
0.0189202
0.0200215
0.0221999
0.0270189
0.0269453
0.014396
0.00956734
0.0153971
0.0157379
0.0183444
0.0169659
0.0184899
0.0196656
0.0203939
0.0202549
0.0176611
0.0188346
0.019622
0.0206085
0.0185594
0.0165559
0.0173429
0.016122
0.015224
0.0147256
0.0126564
0.0128997
0.0138673
0.0153156
0.0162556
0.017746
0.0193964
0.0194288
0.0200946
0.0196877
0.0190966
0.0251892
0.0239475
0.0254884
0.0281979
0.0224091
0.0177809
0.014662
0.0149713
0.014736
0.0146426
0.0153866
0.0167423
0.0151195
0.014504
0.0170112
0.0193664
0.0246311
0.0329755
0.0287057
0.0261526
0.0331757
0.0313532
0.0381825
0.0286275
0.0281094
0.0208153
0.026257
0.0304838
0.0391562
0.0254736
0.0209206
0.0223871
0.0255166
0.0347535
0.0327529
0.0331034
0.0411498
0.039925
0.0361805
0.031158
0.0353112
0.0212111
0.0301661
0.0321954
0.0268004
0.0256755
0.0307013
0.0310391
0.0329856
0.0283592
0.0267461
0.017885
0.0274032
0.0313357
0.0330388
0.0277882
0.0205144
0.0279844
0.0205161
0.0191532
0.0202652
0.0137425
0.0126918
0.014764
0.013837
0.0111682
0.0121132
0.0111327
0.0111173
0.0111957
0.0113077
0.0114368
0.0116887
0.0116509
0.0126536
0.013289
0.0125638
0.0115139
0.0121895
0.0125813
0.0160905
0.0181828
0.0204553
0.0220522
0.0228939
0.0240326
0.0227163
0.024815
0.0236749
0.0251879
0.0248867
0.0237974
0.0212395
0.018581
0.0162006
0.0168241
0.0205299
0.0271389
0.0222831
0.0172919
0.0140256
0.0116499
0.0129384
0.0161917
0.00871712
0.00791524
0.00760014
0.00741282
0.00727266
0.00643235
0.00570318
0.0072674
0.0126088
0.01635
0.0209511
0.0268227
0.0326287
0.037611
0.0414805
0.0443889
0.046304
0.0468851
0.0442658
0.0341409
0.0293538
0.0251781
0.0207784
0.0168336
0.0169033
0.0246545
0.0322952
0.0397739
0.0463326
0.0512111
0.0492527
0.0329319
0.0300326
0.0466642
0.0784578
0.0744861
0.0977454
0.111106
0.0629997
0.0464002
0.0451692
0.0620441
0.0647155
0.0568066
0.0469338
0.0367503
0.0265635
0.0311752
0.0357101
0.040054
0.0446711
0.0579644
0.0605862
0.059161
0.0562054
0.0525319
0.0479475
0.0415255
0.0336589
0.0254096
0.0187952
0.0137105
0.00797145
0.00730178
0.00762681
0.00708351
0.00870051
0.00840286
0.00867829
0.00834537
0.0085192
0.00829219
0.00834042
0.00735622
0.0065917
0.010255
0.00956563
0.00950783
0.0101111
0.0132769
0.0101194
0.00739498
0.00689932
0.00688098
0.00944991
0.0200032
0.0260012
0.0307724
0.0351488
0.0378318
0.0366191
0.0335006
0.0282545
0.0225744
0.0203427
0.0172409
0.0146183
0.0133124
0.0145591
0.0119933
0.00601311
0.00521263
0.00573796
0.00559113
0.00511556
0.00615662
0.00685287
0.00747017
0.007895
0.00820465
0.00826095
0.00819374
0.00809758
0.00804755
0.00802163
0.00798727
0.00791658
0.0078157
0.00766893
0.007529
0.00746258
0.0080534
0.0106691
0.014602
0.0143805
0.0132676
0.0121596
0.0113008
0.00958325
0.015435
0.0131046
0.0109862
0.0101572
0.0100072
0.0102978
0.0112402
0.0128596
0.0137733
0.0157651
0.0158101
0.0157144
0.0160173
0.0158038
0.0133024
0.015065
0.0176808
0.0184893
0.0190797
0.0188426
0.0173063
0.0193211
0.0204688
0.0199376
0.019342
0.0165804
0.0192982
0.0231732
0.0236037
0.0238523
0.0211865
0.0183554
0.0215092
0.0226778
0.0223
0.0231952
0.0214504
0.0222082
0.0278859
0.0143906
0.0132068
0.0080196
0.00888808
0.00918372
0.00892383
0.00858161
0.0088833
0.0090614
0.00873403
0.00942912
0.00974946
0.00905404
0.0117104
0.0107685
0.0103609
0.00979049
0.010242
0.010838
0.0111531
0.0124348
0.0198341
0.0203423
0.0183746
0.0209226
0.0215599
0.0180492
0.0205095
0.0214271
0.021721
0.0220807
0.0235337
0.022046
0.0243903
0.0236571
0.0222168
0.0214679
0.0381256
0.025152
0.016554
0.0152233
0.0148305
0.0148681
0.0167148
0.0124609
0.0139928
0.00979418
0.00848487
0.00811367
0.00785819
0.00877571
0.012069
0.019487
0.0255903
0.0276563
0.0265183
0.0234382
0.0182997
0.0139792
0.0135312
0.0121366
0.0112416
0.0110382
0.00740604
0.00517268
0.00652237
0.00660741
0.00719186
0.00760295
0.00793623
0.00818464
0.00831675
0.00837825
0.00844667
0.00855198
0.00866773
0.00876659
0.00884283
0.00889605
0.00895308
0.00906623
0.00936393
0.0105516
0.0152025
0.0196218
0.0185399
0.0170819
0.0157717
0.0165284
0.0172834
0.0180372
0.0222367
0.0190961
0.0219966
0.0206168
0.0196229
0.0182236
0.0189527
0.0207402
0.0164759
0.0163905
0.0111511
0.00973528
0.00936566
0.00915941
0.00900027
0.00884562
0.00870419
0.00857702
0.00845601
0.0083508
0.00826921
0.00819198
0.00805841
0.00782338
0.00743707
0.00701161
0.00619887
0.00685503
0.00739499
0.00831991
0.00950747
0.0101709
0.00962937
0.0088134
0.00838326
0.00843688
0.00859193
0.00877255
0.00898153
0.00927315
0.00973663
0.0106986
0.0113788
0.0160368
0.0167569
0.0201191
0.0199379
0.0178483
0.0172009
0.0188179
0.0173724
0.0126841
0.0173866
0.0168822
0.0210758
0.015598
0.0146953
0.0150707
0.0155386
0.0182618
0.0171628
0.0156985
0.0156873
0.0126334
0.0141751
0.0161795
0.0176952
0.0279216
0.0273262
0.034462
0.0344397
0.0594916
0.0565485
0.0498024
0.053985
0.0237592
0.0464656
0.0543832
0.0495197
0.0429316
0.0273231
0.0437375
0.0666938
0.0965755
0.0695475
0.0568488
0.105807
0.0767961
0.0373846
0.0266112
0.015029
0.0151267
0.0250954
0.0291539
0.0241429
0.0232802
0.0334975
0.0348708
0.0280474
0.0287534
0.0311416
0.030087
0.0325388
0.0281373
0.0274814
0.0155359
0.0127435
0.0137609
0.015475
0.0164695
0.0159588
0.0167996
0.0174757
0.0160513
0.0150389
0.0144939
0.0124407
0.0131951
0.0161706
0.0203776
0.0238763
0.0172336
0.0138413
0.0125418
0.0123484
0.0121238
0.0120075
0.0116909
0.0115089
0.0110441
0.0112546
0.00979227
0.00980463
0.0103375
0.0104968
0.0106969
0.0108506
0.0109693
0.0110788
0.0119525
0.0187184
0.0259098
0.0207348
0.0164396
0.0139706
0.0151515
0.017062
0.0209462
0.0263511
0.0177921
0.0176087
0.011473
0.0106883
0.0104828
0.0103153
0.0101658
0.0100707
0.0101331
0.0101384
0.0118655
0.0115075
0.013476
0.0145622
0.012033
0.0116051
0.0111377
0.0108548
0.0107003
0.0106185
0.01071
0.0115714
0.011403
0.0104745
0.010379
0.0104979
0.0107113
0.0110359
0.0114872
0.0119986
0.0129178
0.0126819
0.0111636
0.0111755
0.0105222
0.0102132
0.00998309
0.00995963
0.0100111
0.0101511
0.0103712
0.0112816
0.0170654
0.0172473
0.0265549
0.0265443
0.0211057
0.0176494
0.0155061
0.0142586
0.013531
0.0350891
0.0308335
0.0488853
0.0389497
0.0311665
0.0505811
0.0720029
0.0559201
0.0911529
0.0984853
0.0725454
0.0657974
0.0208858
0.0159186
0.0154223
0.0169042
0.0185854
0.0212048
0.0217959
0.0265904
0.0286863
0.0171198
0.0164425
0.0155116
0.0248151
0.0230009
0.0196337
0.0177603
0.0163829
0.0189248
0.0207072
0.0149105
0.0149528
0.00962922
0.0106244
0.0103785
0.0100394
0.0099206
0.00984288
0.00987263
0.00996896
0.0102494
0.0107459
0.0111281
0.0112843
0.0116237
0.011416
0.0111346
0.0107997
0.0105991
0.0104016
0.0102418
0.0101197
0.0101526
0.0104692
0.0106159
0.00931558
0.00965957
0.00976932
0.00978553
0.00982424
0.00979922
0.00967602
0.00948615
0.00930711
0.00911223
0.00915576
0.00990254
0.0100215
0.0100663
0.00990706
0.00979489
0.00979145
0.00974009
0.00973687
0.00973279
0.00961161
0.00929542
0.00857445
0.00843029
0.00903264
0.00937909
0.00955763
0.00963698
0.00960472
0.00953171
0.00929507
0.00912165
0.00892596
0.00860801
0.00819564
0.00686266
0.00712681
0.00747197
0.00795017
0.00844401
0.00887641
0.00916403
0.0093112
0.00939197
0.0093044
0.00901142
0.00848593
0.00843335
0.0088252
0.00901031
0.0089788
0.0087306
0.00833942
0.00779199
0.00710636
0.00643785
0.00592042
0.00566632
0.00526551
0.00658677
0.00714534
0.00766634
0.00815255
0.00862361
0.00913925
0.00936342
0.00944597
0.00942797
0.00927364
0.00894192
0.00841441
0.00842459
0.00890178
0.0092137
0.00933897
0.00932566
0.00911385
0.00868656
0.00778832
0.00699592
0.00636095
0.00579723
0.00522852
0.00508632
0.00533837
0.00513
0.00535743
0.00594746
0.00675163
0.00752398
0.00811289
0.00852355
0.00869438
0.00863481
0.00837894
0.00828451
0.00841503
0.00836889
0.00807694
0.00752205
0.00678494
0.0059818
0.00533932
0.00513914
0.00545529
0.00579283
0.00548421
0.00439215
0.00493083
0.00546569
0.00604152
0.00693862
0.00810316
0.00871488
0.00904287
0.00921025
0.00915029
0.008862
0.00842138
0.00840571
0.00882915
0.00910752
0.00914739
0.00900318
0.0086839
0.0081609
0.00674394
0.00532382
0.00472055
0.00438972
0.0039482
0.00555914
0.00592138
0.00549474
0.00522208
0.00566373
0.0062212
0.00686412
0.00738693
0.00781139
0.00810762
0.00819999
0.00815989
0.00803101
0.00804338
0.00799599
0.00779385
0.00753924
0.00731238
0.00685786
0.00640017
0.00588232
0.00643897
0.00673693
0.00630917
0.00465534
0.00494128
0.00534386
0.00558056
0.006971
0.00840011
0.00884687
0.00903782
0.00919534
0.00913981
0.00882851
0.00838779
0.00837505
0.00889476
0.00928379
0.00939807
0.00946221
0.00948913
0.00952883
0.00836908
0.006572
0.00618636
0.0052582
0.00481112
0.00662602
0.00705844
0.00685601
0.00658624
0.00750785
0.00790045
0.00805821
0.00808944
0.00811431
0.0080906
0.00799509
0.00791763
0.00780538
0.00825366
0.00889343
0.00879246
0.00868517
0.00851252
0.00814254
0.00769355
0.00719925
0.00787124
0.00843613
0.00816167
0.00595389
0.00632349
0.0071445
0.00724975
0.00867877
0.00987166
0.0102403
0.0103002
0.010244
0.0102532
0.00926268
0.00834269
0.0081972
0.00954585
0.0154926
0.0153443
0.0153987
0.0153472
0.0147705
0.0146049
0.0140369
0.0137857
0.0130844
0.0126412
0.0119511
0.0140044
0.0177549
0.0198452
0.022224
0.024729
0.0234184
0.0189261
0.0167054
0.0101714
0.00802727
0.00692997
0.00599632
0.00529423
0.00509014
0.0075445
0.0094118
0.0116094
0.0136067
0.0139158
0.0163643
0.0203357
0.030959
0.0492071
0.0415767
0.0392767
0.0401533
0.100895
2.55766
2.77404
2.51398
2.92137
3.34745
0.405173
0.155641
0.290575
0.312409
0.350839
0.328944
0.296055
0.268933
0.27491
0.263567
0.27209
0.252956
0.259963
0.226693
0.231058
0.230088
0.632289
1.00675
1.22195
1.71122
1.72372
1.94462
1.90234
1.92471
1.78031
1.89693
1.64885
1.36749
1.29126
1.21843
1.30778
1.42134
1.23412
1.11943
1.00584
0.916035
0.784085
0.994947
0.75526
0.713869
0.712409
0.744104
0.990844
0.901226
1.03875
0.973223
1.02962
0.631233
0.711414
0.525391
0.438739
0.363392
0.442877
0.59743
0.791136
0.97264
0.735595
0.99024
0.905856
0.885786
0.844379
0.770703
0.732105
0.720121
0.741277
0.753801
0.768852
0.796071
0.816771
0.834354
0.984345
1.04723
1.03638
0.84956
0.761044
0.527006
0.564326
0.598964
0.602903
0.562904
0.543801
0.491168
0.47853
0.433131
0.414775
0.376089
0.357542
0.325507
0.450041
0.77108
0.800776
0.869725
0.923529
0.972431
0.994362
1.01001
0.992579
0.95889
0.891124
0.862617
0.800994
0.906603
1.08979
1.0905
1.00395
0.852679
0.808409
3.74749
4.55383
3.01731
6.49257
9.83364
16.4691
7.57409
2.07321
3.46039
2.37813
2.112
2.05914
2.17333
3.42383
2.50415
3.28401
2.71239
2.89606
2.23525
2.60494
2.51564
1.9389
1.63847
1.3902
1.29894
1.04979
1.0583
0.854105
0.795974
0.710745
0.580945
0.700331
0.681156
1.57587
2.2396
2.79937
4.39949
4.83633
5.28752
8.36441
6.80085
8.54393
5.09115
5.13148
3.79544
3.57163
3.61058
4.96582
7.08022
4.88231
8.51414
4.75322
15.4698
34.5893
9.20855
19.0043
10.9717
9.92944
9.5767
9.87201
14.0278
9.54572
15.5528
13.0003
17.3184
16.6906
18.0374
14.2013
10.5255
11.619
12.5403
16.0743
11.5202
13.5173
10.2937
10.0728
9.27016
7.62036
6.65728
5.05668
5.88495
6.92585
7.86352
12.411
15.6181
17.9816
21.6834
16.0559
18.3329
11.0435
12.092
9.34821
8.76807
8.89571
11.7031
20.805
14.7535
26.8991
0.495808
0.225737
0.543502
0.229327
0.487229
0.390565
0.403197
0.404191
0.39979
0.461424
0.220081
0.185066
0.177334
0.175185
0.176683
0.100189
0.124362
0.0803784
0.126851
0.228894
0.502129
0.36458
0.140345
0.0825614
0.0545748
0.0429333
0.0634391
0.0612385
0.0979338
0.0992913
0.105594
0.132052
0.227649
0.43242
31.6604
7.11637
1.12312
0.524788
0.281877
0.172501
0.146801
0.165634
0.177804
0.180124
0.168756
0.143031
0.102471
0.0678337
0.0454303
0.0380517
0.027753
0.0286976
0.0395535
0.0530984
0.0490809
0.0647239
0.0831121
0.105848
0.130001
0.149235
0.163712
0.167728
0.155779
0.121929
0.0802043
0.0442453
0.0265035
0.0228769
0.0209571
0.0194651
0.0168257
0.0146375
0.0132059
0.0112816
0.00994056
0.00896374
0.00864245
0.00876204
0.00955783
0.0120891
0.0145474
0.0188336
0.0179504
0.0134402
0.0126122
0.00781285
0.00722414
0.00737212
0.00762312
0.00845615
0.0132351
0.0135425
0.0134196
0.0134445
0.0132597
0.0132342
0.013061
0.0128793
0.0126576
0.0122282
0.0119388
0.0114211
0.011145
0.0105052
0.0105326
0.0109167
0.0112242
0.0101671
0.0100693
0.00935951
0.0200108
0.0480551
0.06972
0.0781998
0.0880208
0.0807998
0.0416375
0.0227411
0.00785306
0.00772713
0.00821785
0.00886629
0.00841902
0.00616656
0.00670124
0.00784842
0.0109667
0.0108167
0.0108449
0.012567
0.0130664
0.0144322
0.0149662
0.0153938
0.0156263
0.0156475
0.0157968
0.0155976
0.0157134
0.0155627
0.0156643
0.0152767
0.0271284
0.0255181
0.0261642
0.0261382
0.0271857
0.0266391
0.0260757
0.025097
0.0243323
0.0228407
0.0212472
0.0197561
0.0177626
0.0185345
0.0179299
0.0112215
0.0106709
0.00771488
0.00772741
0.00743175
0.0102999
0.00937143
0.00787913
0.00927797
0.00678475
0.00696717
0.00728866
0.0103647
0.0108862
0.0172803
0.0172095
0.0152096
0.0161242
0.0171114
0.018378
0.01953
0.0209241
0.0219559
0.0230427
0.024882
0.0253417
0.0237564
0.0234843
0.0224545
0.0244062
0.0234131
0.0216519
0.0231342
0.0246891
0.0270484
0.0266765
0.024572
0.023264
0.0218433
0.019572
0.0169824
0.0156713
0.0147214
0.0147791
0.013805
0.0161889
0.014688
0.0101672
0.0103914
0.00782314
0.00630386
0.00605154
0.00919988
0.0130335
0.0278816
0.0173631
0.00927435
0.0101083
0.0161872
0.0332833
0.0190983
0.0309442
0.0140279
0.0138884
0.0125979
0.0124825
0.0137574
0.0160151
0.0170034
0.0205796
0.0231945
0.0251575
0.026041
0.0273737
0.027754
0.029153
0.0295848
0.0322052
0.0324639
0.0325743
0.0321293
0.0299199
0.026911
0.0248468
0.0306628
0.0354856
0.0385592
0.0409216
0.0432589
0.0419859
0.0383994
0.0375522
0.0356638
0.034577
0.0331789
0.0301371
0.0263591
0.0216257
0.0211057
0.0270456
0.0327172
0.0489141
0.0526164
0.0523577
0.0546705
0.0551463
0.0568611
0.0572741
0.0598863
0.0604412
0.0615724
0.0618971
0.0669607
0.0678286
0.0688374
0.0691476
0.0689392
0.0699606
0.0700036
0.047548
0.0426533
0.0388124
0.0322583
0.027088
0.0343171
0.0426803
0.0477266
0.0728727
0.0733884
0.0770874
0.0796837
0.0846051
0.0882798
0.0931743
0.0976841
0.102131
0.105619
0.107748
0.108196
0.108737
0.107913
0.106678
0.115547
0.150095
0.166636
0.197182
0.212229
0.225078
0.229395
0.220444
0.224068
0.21578
0.218236
0.211707
0.209503
0.203962
0.197342
0.193563
0.186947
0.182747
0.210722
0.158908
0.12184
0.0813197
0.0654618
0.0575465
0.0528413
0.0567896
0.0436976
0.0369883
0.0563558
0.0514415
0.0407319
0.0269344
0.0186924
0.0319217
0.0473345
0.0641067
0.0813366
0.0970892
0.107378
0.109932
0.108809
0.104113
0.0963396
0.0812607
0.0612902
0.0422249
0.0348846
0.0322078
0.0282282
0.0222632
0.0178911
0.0157661
0.014174
0.0124006
0.0111441
0.0105853
0.010729
0.0110364
0.0132333
0.0173124
0.0173058
0.0115987
0.0111652
0.00768022
0.0077665
0.00802197
0.0133483
0.0134919
0.0209255
0.0233689
0.0220069
0.022689
0.0224178
0.0227032
0.0223356
0.0211392
0.0202992
0.0193286
0.0184906
0.0177578
0.0169483
0.0161721
0.0174909
0.0164584
0.0138765
0.0139769
0.0145759
0.0152096
0.0160891
0.0173452
0.0184215
0.0211153
0.0212982
0.0208031
0.0209006
0.0194411
0.0187295
0.0199895
0.0195194
0.0132945
0.0131219
0.019159
0.0188048
0.0186862
0.022491
0.0209041
0.0214269
0.0225548
0.0224334
0.0194967
0.0181397
0.0165938
0.0154224
0.0140597
0.0125606
0.0122015
0.0149556
0.0132197
0.0108355
0.0120048
0.0144156
0.0170271
0.0184797
0.0204595
0.0231704
0.0241295
0.0263595
0.0277736
0.0298628
0.0306988
0.0355036
0.0361741
0.0340442
0.0321971
0.0311947
0.0274275
0.0234991
0.0259165
0.0267858
0.0271614
0.0272582
0.0271314
0.0235556
0.0231245
0.0216116
0.021097
0.0195305
0.0189764
0.0178218
0.0170679
0.016055
0.0142289
0.0134634
0.0126562
0.0123075
0.0173749
0.0108462
0.0106115
0.0160134
0.00987248
0.0116203
0.0113653
0.0118745
0.0125147
0.0103717
0.0151765
0.0103577
0.0112387
0.0114436
0.0143016
0.00985771
0.0193873
0.0615329
0.0915501
0.110349
0.200821
0.241329
0.261855
0.282623
0.297047
0.313039
0.330695
0.348401
0.361536
0.363065
0.337627
0.319262
0.254635
0.22804
0.251829
0.281991
0.194651
0.167051
0.169375
0.170271
0.172909
0.174214
0.177935
0.17594
0.181104
0.17677
0.18415
0.178167
0.184743
0.177228
0.161774
0.145105
0.112422
0.101608
0.0655248
0.0507434
0.0397113
0.0288184
0.0209983
0.0188427
0.0178332
0.0164758
0.0165598
0.0126921
0.0131065
0.00839423
0.00615608
0.00986052
0.00971022
0.00721032
0.00984017
0.0112408
0.0117565
0.012294
0.012585
0.0192508
0.0192852
0.0246986
0.0245871
0.029154
0.0347556
0.0360047
0.0396592
0.0570133
0.0575177
0.0572626
0.05707
0.0566378
0.0494257
0.0491446
0.0480415
0.0474563
0.0445224
0.0439713
0.0419004
0.0407704
0.0378332
0.0370146
0.0358842
0.0362968
0.0399145
0.0542048
0.0956947
0.0289326
0.027367
0.0201669
0.014494
0.0211742
0.0158991
0.0153894
0.0135968
0.018704
0.0134469
0.0137056
0.0165101
0.0170173
0.016389
0.0212476
0.0265282
0.023304
0.0256022
0.113991
0.0714707
0.0235719
0.0465991
0.0704268
0.155806
0.202835
0.138464
0.158299
0.182479
0.165565
0.13893
0.108034
0.0806864
0.0567693
0.0433165
0.0114347
0.013327
0.0183808
0.0398583
0.0592997
0.101105
0.0828851
0.108412
0.148199
0.172574
0.208498
0.199864
0.171817
0.147866
0.14499
0.160636
0.161536
0.103599
0.100575
0.0769675
0.173139
0.218645
0.183755
0.230541
0.24272
0.140633
0.03139
0.0183626
0.0151184
0.0139151
0.0124392
0.0194117
0.0114479
0.0116442
0.0123518
0.013278
0.0169389
0.0293704
0.0134266
0.0149136
0.0183376
0.0158977
0.0149467
0.014633
0.0145511
0.0151833
0.016554
0.0215786
0.0216427
0.0212845
0.0159824
0.0172686
0.0156858
0.0199825
0.0211914
0.0333319
0.0152471
0.0161879
0.0214722
0.47724
0.0246035
0.0178108
0.0231807
0.0218539
0.0300854
0.0439615
0.456293
0.0438222
0.0350454
0.058598
0.0609095
0.0655779
0.069242
0.0727424
0.0752571
0.0791913
0.0818479
0.0830738
0.0842975
0.0999759
0.0999826
0.09891
0.103512
0.0976546
0.0576889
0.0579081
0.0974802
0.105225
0.0594501
0.0410457
0.0385272
0.031233
0.0323673
0.0419034
0.0439802
0.0616788
0.0615106
0.102609
0.0935642
0.0949696
0.0967082
0.0916901
0.0921502
0.0942359
0.0941951
0.0754122
0.0731113
0.0713527
0.0683048
0.0647746
0.0618739
0.0589528
0.055829
0.0531126
0.0530392
0.0575035
0.0582676
0.0657014
0.0719178
0.216411
0.146855
0.105185
0.0784984
0.0643772
0.0586406
0.0584076
0.0616675
0.0649147
0.06657
0.067373
0.0707288
0.0924807
0.0949217
0.0977931
0.0952063
0.0990402
0.0971084
0.0946364
0.104549
0.112378
0.0656673
0.067744
0.0478187
0.0446221
0.0325712
0.0331386
0.0236569
0.0196154
0.0195953
0.0195741
0.0198049
0.0226997
0.0317238
0.0318205
0.0464885
0.0463787
0.0517953
0.0754113
0.0724634
0.129259
0.118469
0.108789
0.101449
0.101835
0.103955
0.10657
0.101559
0.0978068
0.0922544
0.0724721
0.0684752
0.0663341
0.0650605
0.0636925
0.0668658
0.0894303
0.144009
0.220101
0.323926
0.424041
0.436072
0.395584
0.245104
0.286183
0.141729
0.162726
0.184237
0.158674
0.167644
0.316912
0.263474
0.372307
0.477799
0.531398
0.597532
0.633874
0.62075
0.491372
0.318462
0.32586
0.434417
0.763436
0.856629
0.741673
0.759999
0.656708
0.539238
0.52106
0.496636
0.560605
0.611871
0.57743
0.594866
0.539172
0.514962
0.445043
0.496639
0.362901
0.326901
0.307324
0.298508
0.357726
0.289497
0.326064
0.26798
0.274213
0.222848
0.228403
0.190672
0.145974
0.138388
0.128292
0.143629
0.16281
0.149138
0.153513
0.134034
0.114559
0.0912359
0.0985024
0.0735616
0.0695062
0.070398
0.0798351
0.124511
0.364797
0.172431
0.163202
0.167579
0.177938
0.319312
0.282821
0.724575
0.507932
0.710725
0.474861
0.56366
0.471682
0.363821
0.379312
0.419172
0.599685
0.823274
6.6551
0.284809
4.26479
3.16612
3.32461
3.47023
4.44886
7.81176
7.11162
9.39627
6.80735
9.08154
4.97495
4.9754
4.32587
4.47101
4.43814
4.26024
5.17911
6.60451
0.237983
0.0909091
0.0854192
0.0856093
0.0873845
0.197729
0.0525575
0.202001
0.0539606
0.213462
0.0495165
0.246681
0.196911
0.0382368
0.0192576
0.0200893
0.0168071
0.0203747
0.0169227
0.0250464
0.0235416
0.0236968
0.026571
0.0760535
0.291165
13.7217
1.63541
0.68023
0.779363
1.16782
0.792429
1.1903
1.65535
1.11181
0.553446
0.361554
0.426547
0.515599
0.492563
0.630066
0.90855
0.889382
0.698995
0.703291
0.618546
0.875177
0.884183
1.05003
1.22761
1.12473
0.879035
0.691615
0.5833
1.00978
1.01728
0.951058
0.399916
0.111898
0.0463055
0.0482904
0.0354185
0.0373808
0.0346867
0.0538009
0.156861
0.216657
0.129876
0.424328
0.410502
0.561709
0.400969
0.411211
0.324019
0.348664
0.531069
0.580399
0.640132
0.671634
0.721707
0.664531
1.27711
2.18408
2.46915
12.7944
17.3768
3.18211
3.08481
13.9282
0.314594
0.0837725
0.0232998
0.0174273
0.0162161
0.0161296
0.0150008
0.0155383
0.0159999
0.0169638
0.0188296
0.023197
0.0458368
0.201501
0.20347
0.0643521
0.0324336
0.022972
0.019617
0.0170469
0.0163873
0.0155318
0.0154594
0.0150079
0.015657
0.0174618
0.0237731
0.0773881
0.270989
11.3282
2.43196
2.25053
8.37512
5.78886
0.206668
0.0437828
0.0200931
0.0169266
0.0158839
0.0167541
0.0162659
0.0182115
0.0184027
0.023017
0.0250231
0.03177
0.057089
0.110205
0.315642
9.59042
8.66167
8.38525
7.81898
0.310277
0.115234
0.0544045
0.038235
0.0346263
0.0338195
0.0226496
0.0236739
0.0189827
0.0216417
0.0182958
0.0226834
0.048302
0.211833
5.3468
1.56739
1.69778
1.2081
0.611123
0.653335
0.666894
0.686399
1.76746
4.03926
4.97161
3.41519
3.35166
4.69348
3.16184
2.47435
1.82282
1.74213
2.53899
1.95862
1.82163
1.35264
1.46198
1.0653
1.46472
0.809295
0.975092
1.07079
1.52836
1.39524
1.40834
0.906764
1.04843
1.47247
1.72305
1.64799
0.842257
1.22555
1.01198
0.653319
0.604953
0.631052
0.600785
0.575393
0.572714
0.577196
0.556397
0.57382
0.554306
0.586438
0.546433
0.53143
0.505553
0.525007
0.542348
0.574642
0.358769
0.421007
0.425486
0.439803
0.452186
0.373216
0.449242
0.4398
0.656641
0.991954
0.828202
1.14044
0.674588
1.00002
2.00321
5.20634
2.32634
0.814111
1.34405
1.58195
1.13696
0.626393
2.54983
3.55867
1.2287
1.78355
10.3911
8.43633
16.5282
10.9519
18.5926
6.01506
4.62497
17.7854
6.65623
6.88655
4.49867
4.50866
2.94982
1.57855
1.62093
1.73217
1.22106
1.29317
1.20399
1.1302
1.46845
1.43237
1.87613
2.02571
2.56578
1.80486
1.76661
2.58346
1.05884
1.39214
1.82835
1.81944
1.35274
2.32833
3.14171
2.94695
2.12233
2.32514
3.49079
4.80035
4.55104
3.14878
3.93957
10.1043
13.4838
13.6635
4.20923
19.3337
18.2943
2.06021
0.557903
0.318025
0.0876847
0.0441884
0.0366362
0.0387088
0.143229
0.0458103
0.0569582
0.0453545
0.0720282
0.0693509
0.0866072
0.21559
0.125435
0.213298
0.153758
0.186485
0.118987
0.190345
0.22315
0.232649
0.185033
0.113512
0.209467
0.301955
0.103965
0.348818
0.383502
0.255406
0.326816
0.389425
0.192803
0.986849
0.183552
0.125106
0.143814
0.38646
1.24414
0.21441
0.455823
4.45279
14.7036
3.65596
0.927396
0.671257
0.0552778
0.0300226
0.0314455
0.0277688
0.0194144
0.082719
0.097144
0.400418
0.205964
0.277192
0.660329
2.93029
2.39625