/*--------------------------------*- C++ -*----------------------------------*\
| =========                 |                                                 |
| \\      /  F ield         | OpenFOAM: The Open Source CFD Toolbox           |
|  \\    /   O peration     | Version:  v2012                                 |
|   \\  /    A nd           | Website:  www.openfoam.com                      |
|    \\/     M anipulation  |                                                 |
\*---------------------------------------------------------------------------*/
FoamFile
{
    version     2.0;
    format      ascii;
    class       volScalarField;
    location    "1210";
    object      k;
}
// * * * * * * * * * * * * * * * * * * * * * * * * * * * * * * * * * * * * * //

dimensions      [0 2 -2 0 0 0 0];


internalField   nonuniform List<scalar> 
18258
(
0.0336049
0.0158293
0.0123953
0.0102439
0.0110128
0.0140388
0.0168375
0.0212061
0.0256252
0.0315525
0.0386075
0.0475285
0.0535198
0.0606584
0.063633
0.0619392
0.0520755
0.0473171
0.0566344
0.0810794
0.0709979
0.0513992
0.0621699
0.0615394
0.0727095
0.0770017
0.0606253
0.0552871
0.0498447
0.0441619
0.0376553
0.0236625
0.0240535
0.0287232
0.0320132
0.0357627
0.0386659
0.0410735
0.0427055
0.0435247
0.043436
0.0421348
0.0394312
0.0353217
0.0297833
0.0236843
0.0227842
0.0242096
0.0299609
0.0353271
0.040657
0.0462002
0.0546083
0.0446734
0.0290295
0.0392198
0.0477105
0.0546035
0.0590221
0.0614594
0.0622098
0.0612844
0.0589835
0.0557147
0.051746
0.0474016
0.04338
0.0393917
0.0341477
0.0308842
0.0267712
0.023426
0.0209849
0.019272
0.018153
0.0171516
0.0162878
0.0155562
0.0149409
0.0145189
0.014427
0.0144518
0.014551
0.014647
0.0149904
0.0126493
0.0108824
0.0104162
0.0101667
0.00952414
0.00807715
0.0106337
0.011744
0.0121611
0.0124313
0.0136038
0.0147324
0.0142987
0.0135738
0.0124555
0.0126842
0.0171322
0.0178573
0.0229009
0.0217646
0.0169857
0.0147913
0.0165766
0.0193862
0.0224481
0.0192465
0.0192148
0.0179146
0.0170173
0.0148652
0.0148921
0.0143704
0.0140629
0.0149758
0.0177399
0.017157
0.0172774
0.0184905
0.0188066
0.020026
0.0210347
0.0203694
0.0201862
0.0163302
0.01623
0.0172676
0.0171417
0.0176206
0.0201216
0.0201779
0.0205171
0.0207314
0.0235132
0.0235321
0.0235
0.0235909
0.0244407
0.0234735
0.0230588
0.0230848
0.0231196
0.0209558
0.0207361
0.0203772
0.0204166
0.0182436
0.0175077
0.0182398
0.0192189
0.0211901
0.0249301
0.0313595
0.0402756
0.0503661
0.0606049
0.0683781
0.0727403
0.0771105
0.0765886
0.0773016
0.079413
0.0797929
0.0786608
0.0768196
0.0746662
0.0717283
0.0671142
0.0666801
0.0590478
0.048154
0.0334132
0.038933
0.0417795
0.044536
0.0448261
0.0452928
0.0440593
0.0422723
0.0386738
0.0335414
0.0246731
0.0260552
0.0305005
0.035141
0.0389134
0.0430653
0.0466388
0.0483948
0.0500263
0.0592757
0.05717
0.0553188
0.0571534
0.0586867
0.0618518
0.0602278
0.0563102
0.0505079
0.0521577
0.0453414
0.0340267
0.0318024
0.0296834
0.027174
0.037703
0.049506
0.0612145
0.0676542
0.073868
0.0787731
0.0828465
0.0874165
0.0819348
0.0767494
0.057904
0.0841726
0.0661042
0.0508042
0.0415925
0.0338772
0.0302937
0.0335073
0.0338096
0.0321244
0.0275031
0.0218286
0.0233139
0.0361217
0.0459293
0.053994
0.055603
0.0603281
0.0627878
0.0574405
0.0580325
0.0470897
0.048283
0.0518153
0.0466228
0.0442437
0.0356591
0.0279056
0.0336909
0.050118
0.0687902
0.0848882
0.100024
0.066455
0.0505296
0.0414498
0.0347197
0.0333675
0.0379116
0.0438381
0.0530255
0.0411628
0.0371591
0.0337021
0.0308774
0.0254582
0.0272316
0.0283526
0.0267931
0.0499756
0.0579125
0.0616054
0.0840456
0.0924531
0.108487
0.107398
0.0927988
0.0963104
0.0688948
0.0687905
0.0864127
0.0683153
0.0512689
0.0615258
0.0744055
0.088177
0.101302
0.112586
0.121664
0.123391
0.111926
0.0811343
0.0467052
0.0212624
0.0186312
0.0180843
0.0173756
0.0164873
0.0156807
0.0150557
0.0121079
0.00948778
0.00927293
0.0094566
0.00940347
0.00825663
0.0095104
0.0115726
0.0137621
0.0152682
0.0164754
0.0174938
0.0182258
0.018813
0.0192108
0.019507
0.0197735
0.020007
0.0201907
0.0203257
0.0204131
0.0204524
0.0204358
0.0203576
0.0202164
0.0200106
0.0197239
0.0192534
0.0177331
0.0158863
0.015059
0.0151176
0.0148685
0.0145674
0.0119373
0.0123098
0.0143253
0.0149566
0.0177426
0.0197745
0.0214737
0.0229232
0.0244449
0.0252193
0.0260465
0.0263113
0.0263633
0.0262629
0.0261136
0.0258916
0.0255947
0.0245405
0.0212736
0.0248756
0.0272749
0.0289686
0.0303275
0.0312399
0.0313543
0.0286127
0.0360376
0.0385078
0.0394153
0.0396742
0.0388485
0.0368397
0.0343987
0.0323498
0.0308426
0.0297254
0.0275866
0.0253396
0.0230294
0.0206128
0.0173898
0.0186596
0.0204997
0.02071
0.0204187
0.0214689
0.0227269
0.021069
0.0189759
0.0161002
0.0151024
0.0146137
0.014423
0.0148328
0.0144905
0.0143884
0.0148866
0.0178864
0.0189768
0.0206789
0.0239397
0.0228042
0.0208594
0.028036
0.0296501
0.0301035
0.0304542
0.0303572
0.0295994
0.0265134
0.0250566
0.0264451
0.0249904
0.0243564
0.0244442
0.0240766
0.0222077
0.02451
0.0265118
0.0281018
0.0289486
0.0301933
0.0317479
0.0339102
0.0357037
0.0373637
0.0383737
0.0383642
0.0378409
0.0380278
0.0386927
0.0384041
0.0367031
0.0346191
0.032518
0.0295504
0.0293446
0.0313234
0.0328912
0.0345568
0.0363362
0.0356404
0.0337489
0.0321185
0.0306937
0.0289789
0.0288532
0.0305333
0.0319808
0.0337228
0.0358446
0.0360129
0.0338707
0.03205
0.0305427
0.0288368
0.0288017
0.0305047
0.0320195
0.033745
0.0356323
0.0347591
0.0332884
0.0317641
0.0302944
0.0286279
0.0281888
0.0297949
0.0311792
0.0324948
0.0335606
0.031885
0.0312947
0.030223
0.028832
0.0270719
0.0258177
0.0263267
0.027716
0.0278269
0.0283068
0.0294265
0.0292736
0.0289903
0.0289434
0.0286613
0.0264147
0.0268223
0.0268729
0.027566
0.0308719
0.0303896
0.0330615
0.0354753
0.0331613
0.03167
0.0281017
0.033678
0.033718
0.0346762
0.0334957
0.0237253
0.0218706
0.0228681
0.024401
0.0260425
0.0253479
0.0226025
0.0225398
0.023149
0.0225587
0.0209906
0.0180034
0.0135207
0.0135297
0.0135208
0.0142554
0.0170599
0.0186487
0.0187533
0.0185928
0.0182857
0.0178089
0.0170854
0.0160057
0.0156097
0.0247544
0.0451136
0.0565381
0.0558785
0.0424979
0.0357086
0.0264805
0.0185356
0.0113658
0.0107572
0.0114465
0.0137215
0.0114535
0.0110269
0.0151682
0.0121265
0.0201272
0.0231878
0.0303251
0.0414355
0.0401124
0.0305587
0.0204578
0.0183852
0.0192456
0.0197716
0.0201637
0.0205489
0.0209383
0.0213623
0.0218796
0.0215655
0.0189287
0.0166848
0.0168087
0.017381
0.0198881
0.0212729
0.0220685
0.0217344
0.0219812
0.0236918
0.0224515
0.0212318
0.0210256
0.0203187
0.0231603
0.0235051
0.022874
0.0228726
0.0231489
0.023036
0.023175
0.0239795
0.0197968
0.0219159
0.0224677
0.0227481
0.0235412
0.0190502
0.0192441
0.0193145
0.0181719
0.0149066
0.0179927
0.016754
0.0121654
0.0134785
0.0134387
0.0140493
0.0143727
0.0171225
0.0162937
0.015572
0.0163501
0.0223165
0.0231134
0.0232865
0.0206377
0.0193898
0.0218836
0.0224767
0.0220257
0.0211326
0.0212911
0.0203436
0.0184375
0.0177179
0.0178549
0.0192677
0.0200689
0.0201422
0.0237483
0.0232413
0.0216777
0.0226618
0.0232627
0.0228459
0.0227347
0.0226773
0.0223056
0.0218796
0.0222938
0.0224848
0.0225382
0.0220956
0.0223501
0.0249845
0.0214226
0.0212345
0.02016
0.0195054
0.0178789
0.0176246
0.0177226
0.0176828
0.0175889
0.0167529
0.0186079
0.0178827
0.0200137
0.0216248
0.0227737
0.0239432
0.0240919
0.0236591
0.0236174
0.0232307
0.0231949
0.0226462
0.0218031
0.0212218
0.0204481
0.0192425
0.0192353
0.0191865
0.0190433
0.0204467
0.0203466
0.0219102
0.0230291
0.0227416
0.0217781
0.021668
0.0204933
0.0204694
0.0215086
0.0223954
0.0226468
0.0235082
0.026043
0.023698
0.0252522
0.0259496
0.0266149
0.0260037
0.0249041
0.0256576
0.0239974
0.0228868
0.0242066
0.0249301
0.026193
0.0269871
0.0250101
0.0239827
0.0227848
0.0219218
0.0209351
0.0184137
0.0190267
0.0198161
0.0210477
0.0228596
0.025584
0.0283188
0.0312471
0.0313046
0.0289998
0.0273104
0.0321231
0.0315896
0.0365681
0.037178
0.033043
0.030229
0.0273121
0.0268872
0.0259653
0.025429
0.0241512
0.0253977
0.0258198
0.0248777
0.0273521
0.0289286
0.0332659
0.0388401
0.035502
0.0326668
0.0377259
0.0366367
0.0426062
0.0363804
0.0347214
0.0285759
0.0331853
0.0355405
0.0432927
0.0338766
0.0296889
0.0294678
0.0307915
0.0382836
0.0368221
0.0394197
0.0445846
0.0439265
0.0390432
0.0358059
0.0415701
0.0316009
0.0370416
0.0390568
0.032428
0.0321864
0.0390663
0.0396897
0.0398551
0.033766
0.0330379
0.0250134
0.0335817
0.0400654
0.0399837
0.0331977
0.025982
0.0358948
0.0315218
0.0313275
0.0313249
0.026919
0.0268481
0.0261431
0.0263972
0.0271094
0.0246636
0.0254698
0.0257322
0.0258985
0.0260344
0.0262332
0.0265871
0.0272462
0.0280075
0.0228848
0.0243322
0.0229569
0.0216044
0.020245
0.0240275
0.0265079
0.0283185
0.0297738
0.0309088
0.0313952
0.0300188
0.0379518
0.0395846
0.0412857
0.0414446
0.0401891
0.037483
0.0340087
0.0305222
0.028355
0.0270576
0.0245868
0.0225017
0.0204707
0.0183558
0.0155895
0.0142691
0.0129355
0.0115525
0.0111831
0.0106289
0.0100185
0.00932034
0.00890847
0.0113368
0.0176566
0.0275526
0.0330908
0.0389939
0.0457737
0.0520229
0.0570667
0.0608626
0.0636345
0.0654333
0.0659416
0.0634849
0.0533031
0.0483365
0.0434752
0.0385006
0.0333509
0.0323176
0.0415015
0.0497603
0.0566984
0.0629409
0.066991
0.0653358
0.0497687
0.0468607
0.0627298
0.0902601
0.0811198
0.104147
0.120318
0.0799884
0.0650367
0.0640943
0.0794256
0.0819073
0.0753975
0.0665767
0.0568594
0.0460248
0.0511625
0.0559792
0.0604943
0.0650417
0.0773715
0.0796687
0.0784144
0.0757797
0.0724563
0.0682118
0.0620327
0.0539794
0.0447786
0.0365085
0.029116
0.018575
0.0123709
0.0134615
0.0128499
0.0146917
0.0143106
0.00993267
0.0102232
0.0103815
0.0102624
0.00998881
0.00999684
0.01139
0.0180121
0.01476
0.0133417
0.0114931
0.0142911
0.0161091
0.0179285
0.01837
0.0185271
0.0228966
0.0376523
0.0447422
0.0499711
0.0545397
0.0572354
0.0559747
0.0527256
0.047061
0.0405186
0.0378281
0.0338536
0.0303194
0.0284605
0.029248
0.0257172
0.0161719
0.0147109
0.0157483
0.0154522
0.014462
0.0163959
0.0176053
0.0183713
0.0189892
0.0194492
0.0198002
0.020048
0.0202098
0.0202916
0.0203116
0.0202842
0.0202144
0.0201012
0.019942
0.0197259
0.0194229
0.0189078
0.0172119
0.0153867
0.0146838
0.0147689
0.0145398
0.0141795
0.0123056
0.0125294
0.0143923
0.0149921
0.0145977
0.0151754
0.015634
0.016814
0.0189802
0.0211162
0.0229492
0.0216511
0.0210103
0.0209864
0.0205795
0.0174736
0.0207546
0.0236051
0.0241141
0.0243774
0.0251829
0.0267711
0.0277255
0.0267994
0.0263037
0.0257782
0.0227028
0.024301
0.0278294
0.0282402
0.0289127
0.0295065
0.0300746
0.0313575
0.0307285
0.0298349
0.0292406
0.0263803
0.0255246
0.0317262
0.0206395
0.014347
0.0103124
0.0108503
0.0110526
0.0107016
0.0114125
0.0118972
0.0120814
0.0114288
0.0125156
0.0134298
0.0127333
0.015446
0.0147046
0.0136332
0.0131967
0.0140426
0.0148462
0.0152643
0.0163427
0.0263573
0.0271009
0.0226678
0.0290614
0.0317171
0.0289452
0.0317532
0.0294389
0.0280302
0.0307833
0.034192
0.0354868
0.0331823
0.0317529
0.031152
0.0207634
0.0200696
0.0193638
0.017501
0.0177054
0.0172053
0.0167426
0.0163209
0.0187581
0.0201485
0.02121
0.0209078
0.0205671
0.0201812
0.0217038
0.0268023
0.0368375
0.0441244
0.0464309
0.0451217
0.0415358
0.03521
0.0294333
0.028817
0.0267908
0.0254028
0.0250429
0.0191344
0.0150079
0.017409
0.0173825
0.0184348
0.0190951
0.0196118
0.0200223
0.0203618
0.0206511
0.020928
0.0211886
0.0214181
0.0216133
0.0217829
0.0219249
0.0220782
0.0222616
0.0225157
0.0227219
0.0211303
0.0185418
0.0172169
0.0170711
0.0177827
0.0186788
0.0198022
0.0190664
0.0153646
0.0154402
0.0218443
0.0222612
0.0208881
0.0194742
0.0196834
0.018846
0.022597
0.022389
0.0231254
0.0229128
0.0226292
0.0223473
0.0220662
0.0217798
0.0215171
0.0212878
0.0210812
0.0208901
0.0207012
0.0204988
0.0202304
0.0198324
0.0191682
0.0183699
0.0170437
0.0183049
0.0192728
0.0208411
0.0227892
0.0238635
0.023022
0.0216977
0.0209855
0.02109
0.0213697
0.0216868
0.0220289
0.0224252
0.0228541
0.0232612
0.0232446
0.0219704
0.0226029
0.0173871
0.0182435
0.0185412
0.0184975
0.0201651
0.0193343
0.0146536
0.0151402
0.0158427
0.0171103
0.0196705
0.0200187
0.0213445
0.0215646
0.0172382
0.0169226
0.0164997
0.0175217
0.0151628
0.0157867
0.0264349
0.0270718
0.0348018
0.0381416
0.0397589
0.0330426
0.0454781
0.0522942
0.0503905
0.0408089
0.0234431
0.0345362
0.0420531
0.0486778
0.0456009
0.035453
0.0447354
0.0472344
0.0630083
0.0586196
0.0522687
0.0630208
0.0445754
0.0268219
0.0157926
0.0163701
0.0151893
0.0305965
0.0346872
0.0313746
0.0322177
0.0398363
0.0408537
0.0361156
0.0344464
0.0361999
0.0357555
0.0396835
0.0369821
0.0336396
0.0232386
0.0189758
0.0198049
0.0212029
0.0230255
0.0253625
0.0252588
0.0241193
0.022764
0.021797
0.0207557
0.0182681
0.0176238
0.0195759
0.0211998
0.0225741
0.0240784
0.0248957
0.0257338
0.0258993
0.0257925
0.0254715
0.0250451
0.0244923
0.0238099
0.0224033
0.0236076
0.0242859
0.0244964
0.0247755
0.0250881
0.0253634
0.0255029
0.0253876
0.0244471
0.0236443
0.0224839
0.0213699
0.01977
0.0176618
0.0183402
0.0200913
0.0216832
0.0227925
0.0238381
0.0234442
0.023927
0.0245737
0.0245954
0.0244131
0.0241862
0.024032
0.0241211
0.0247538
0.0264724
0.026251
0.0291654
0.0303451
0.0277489
0.026404
0.0257008
0.0252672
0.0250167
0.0248074
0.0246066
0.0240612
0.0235171
0.0240185
0.0242741
0.0245743
0.0249358
0.0254474
0.0261446
0.0272466
0.0286707
0.0285537
0.0262265
0.0260311
0.024963
0.0241739
0.0238021
0.0237551
0.0238085
0.0239174
0.0238607
0.0233509
0.0230312
0.0234384
0.0224328
0.0225024
0.0215352
0.0201841
0.0187505
0.0173036
0.0166446
0.0351137
0.0351179
0.0456144
0.0422499
0.0369336
0.0469155
0.0598509
0.0518886
0.0625851
0.0663456
0.0539068
0.0501264
0.0277585
0.0242954
0.0173742
0.0188942
0.0202322
0.0214293
0.0212447
0.0221597
0.0220406
0.0229998
0.0224577
0.0216693
0.0211396
0.0201291
0.0201866
0.0189217
0.0173827
0.0172486
0.0188897
0.0199119
0.0210872
0.0210694
0.0225232
0.0230328
0.0234245
0.0235683
0.02355
0.0236292
0.0237952
0.02424
0.0249579
0.0254392
0.0256185
0.0261296
0.025876
0.0255562
0.0251
0.0247878
0.0244658
0.024182
0.0238826
0.0236003
0.0231668
0.0225122
0.0223918
0.0229062
0.0232501
0.0234895
0.0236307
0.0236177
0.0234294
0.0231176
0.0228027
0.0224511
0.0224998
0.0237072
0.0239209
0.0240265
0.0237964
0.0236209
0.0236051
0.0234955
0.0234116
0.023192
0.0228299
0.0223587
0.0212945
0.0213951
0.0222732
0.0227155
0.0230398
0.0233096
0.0233149
0.0232187
0.0228419
0.0225582
0.0222297
0.0216912
0.0209872
0.018645
0.0191254
0.0197449
0.020583
0.0214257
0.0221421
0.0225963
0.0227815
0.0227731
0.0225949
0.0222385
0.0214893
0.0214703
0.0220137
0.0221883
0.0221451
0.0218482
0.0212352
0.0203141
0.0191131
0.017898
0.0169262
0.0164375
0.0156521
0.0181717
0.019186
0.0201086
0.0209493
0.0217447
0.0225929
0.0229396
0.0230257
0.0228772
0.0226178
0.022207
0.0214384
0.0214469
0.022149
0.0225377
0.0227503
0.0228445
0.0225442
0.0218556
0.0203322
0.018933
0.0177708
0.0167045
0.0155929
0.0153089
0.0158109
0.015397
0.0158475
0.0169868
0.0184757
0.0198397
0.0208186
0.0214065
0.0216838
0.0217052
0.0213694
0.021192
0.0213287
0.0211421
0.0206607
0.0198072
0.0185319
0.0170567
0.0158206
0.0154257
0.0160527
0.0167073
0.0161077
0.0138913
0.0150058
0.0160731
0.0171823
0.0188399
0.0208819
0.0218971
0.0223933
0.0225489
0.0224354
0.0220745
0.0214238
0.0213712
0.0219923
0.0223418
0.0224306
0.0223195
0.0218404
0.0209762
0.0184795
0.0157864
0.0145725
0.0138861
0.0129406
0.0162566
0.0169528
0.0161252
0.0155848
0.0164494
0.0175047
0.0186719
0.0195629
0.020193
0.0206806
0.0209413
0.020957
0.0206891
0.0205878
0.0203811
0.0200476
0.0197162
0.0193654
0.0185699
0.0177322
0.0167704
0.0178409
0.0184258
0.0176692
0.0144277
0.0149854
0.0157556
0.0161915
0.0187713
0.0212583
0.0219867
0.0222468
0.0223787
0.022272
0.0218942
0.0212866
0.0211668
0.0217912
0.0222464
0.0225043
0.0227377
0.0228374
0.0229127
0.0209898
0.0178402
0.0172109
0.0155505
0.0147255
0.0182283
0.0189235
0.0184322
0.0178666
0.0195241
0.0202222
0.020481
0.0204838
0.0204093
0.0203073
0.020314
0.0204129
0.020117
0.0200073
0.020119
0.0203393
0.0202936
0.0200624
0.0194859
0.018723
0.0176489
0.0195014
0.0211966
0.0209272
0.0169583
0.01749
0.0182799
0.0177314
0.0202916
0.0221563
0.022691
0.0227355
0.0225179
0.0221089
0.0216059
0.0209844
0.0207131
0.0212621
0.0218193
0.0218663
0.0219885
0.0219666
0.021409
0.0212504
0.0206822
0.0204197
0.0196637
0.019097
0.0183488
0.020514
0.0237051
0.0259014
0.0274824
0.029368
0.0279749
0.02448
0.0222343
0.0153048
0.0153166
0.0155452
0.0149032
0.0145221
0.0143431
0.0187454
0.0214737
0.0241709
0.0259227
0.0234801
0.0234529
0.0233724
0.023256
0.023144
0.0230525
0.0228547
0.0237391
0.0417017
0.283395
0.211177
0.236277
0.22522
0.315746
0.080455
0.0393988
0.0438445
0.0514227
0.0594344
0.0578512
0.0536835
0.0466877
0.0417824
0.0413569
0.0405427
0.0402846
0.0387142
0.0386863
0.0377065
0.0441443
0.0884803
0.120509
0.134421
0.143126
0.15277
0.148337
0.157696
0.14998
0.150631
0.152321
0.157049
0.149729
0.142338
0.138426
0.134152
0.116962
0.117353
0.0990732
0.102923
0.0859241
0.0903182
0.0942174
0.0935755
0.092365
0.092133
0.0923876
0.0931741
0.0967319
0.0921671
0.0990434
0.0924404
0.0749177
0.0726041
0.0752737
0.0694505
0.0606571
0.0691932
0.0852035
0.101475
0.117806
0.0994266
0.122937
0.115365
0.114618
0.108938
0.102669
0.0989334
0.0982387
0.0988532
0.0999524
0.102549
0.104409
0.10595
0.108732
0.117229
0.119408
0.117858
0.100592
0.0855616
0.0939785
0.098753
0.102523
0.10287
0.0983141
0.0960496
0.0896109
0.0880174
0.0823664
0.0798472
0.0742864
0.0710519
0.0662267
0.0825714
0.0808869
0.0878422
0.0940587
0.0983853
0.101948
0.103564
0.104724
0.103514
0.10109
0.0962724
0.0943552
0.0896708
0.107872
0.126135
0.12906
0.124589
0.111165
0.105651
0.337079
0.408936
0.409891
0.607871
0.648746
0.838059
0.333833
0.179645
0.191818
0.188508
0.180407
0.177224
0.176945
0.188599
0.197598
0.18897
0.199092
0.178575
0.173891
0.171765
0.201972
0.200407
0.181151
0.158864
0.12757
0.104661
0.105445
0.0874486
0.0883698
0.0753301
0.0751852
0.0755664
0.0900171
0.161761
0.204479
0.23102
0.257275
0.316972
0.28744
0.435271
0.350126
0.436173
0.301785
0.325753
0.311661
0.303039
0.301052
0.316963
0.338614
0.29798
0.370291
0.297024
0.644361
0.779937
0.496366
0.458146
0.406498
0.392669
0.383023
0.377638
0.369432
0.486053
0.451329
0.549586
0.5104
0.633306
0.562616
0.576119
0.542419
0.583438
0.605452
0.619279
0.498653
0.5507
0.429551
0.465657
0.384582
0.419714
0.294635
0.29217
0.330511
0.368194
0.392886
0.446979
0.705236
0.599923
0.80944
0.581238
0.703164
0.488691
0.53452
0.510818
0.493125
0.494548
0.522316
0.626695
0.606452
0.691231
0.514663
0.526977
0.516662
0.53402
0.52344
0.558409
0.563081
0.564233
0.562173
0.523397
0.533949
0.532157
0.531959
0.531984
0.532326
0.509565
0.512738
0.50521
0.51099
0.52692
0.514561
0.514488
0.512354
0.504782
0.502731
0.502249
0.504004
0.503776
0.508904
0.508775
0.509111
0.512157
0.526853
0.514422
1.81843
0.90137
0.428493
0.338098
0.219627
0.134245
0.0550808
0.0594201
0.0622381
0.0630534
0.0609044
0.0554478
0.0472804
0.0373591
0.0296158
0.0286312
0.0255318
0.0272923
0.0346437
0.0421538
0.0384576
0.0462301
0.0539329
0.0622462
0.0702195
0.0771672
0.0830458
0.0859933
0.0829756
0.0702741
0.0526192
0.0352551
0.0250233
0.0226318
0.0209927
0.0189999
0.0168974
0.0152545
0.0142492
0.0130766
0.0124425
0.0123507
0.0125642
0.0128012
0.0132364
0.0147488
0.0160462
0.0172282
0.0181862
0.0184305
0.0179256
0.0184669
0.0190616
0.0194548
0.0197967
0.0196339
0.0196333
0.0198816
0.0198418
0.0200484
0.0199488
0.019954
0.0198123
0.0196376
0.0194109
0.0189734
0.018696
0.0181385
0.0177943
0.0169739
0.01701
0.0174325
0.0177657
0.0167716
0.0167279
0.0159533
0.0264724
0.0474938
0.0608942
0.0659381
0.0712524
0.0672619
0.0567992
0.0387817
0.0191242
0.0188572
0.0193212
0.02186
0.021374
0.0173674
0.0181373
0.0187374
0.0174863
0.0173157
0.0173427
0.0192867
0.0198522
0.0212241
0.021711
0.0221161
0.0223363
0.0223465
0.0224493
0.0222235
0.0222349
0.0218859
0.0218748
0.0215693
0.0213431
0.0216218
0.0222904
0.0223471
0.02294
0.0226358
0.0223212
0.0217653
0.0213386
0.0205008
0.019572
0.0185977
0.0171096
0.0166882
0.017226
0.0177671
0.0173296
0.0188403
0.02002
0.0197056
0.0244958
0.0227682
0.0203188
0.0228502
0.0185469
0.0187188
0.0182031
0.0170967
0.0176379
0.0171087
0.0169863
0.0172592
0.0175139
0.0186447
0.0195778
0.0202144
0.0210664
0.0217249
0.0224339
0.0236009
0.0239096
0.0229844
0.022826
0.0216725
0.0210081
0.0207019
0.0216111
0.0228674
0.0227556
0.0235932
0.023335
0.0221251
0.0213217
0.0204641
0.0194988
0.0188482
0.0181045
0.0174003
0.0170154
0.01624
0.0163883
0.0153577
0.0168791
0.0171338
0.0190477
0.0173831
0.0169912
0.0224645
0.0282108
0.0440167
0.032075
0.0211165
0.0223816
0.0302608
0.0373424
0.0257142
0.0252369
0.0148918
0.0162814
0.0152676
0.0155004
0.0165629
0.0168371
0.0179667
0.0190001
0.0192257
0.0199661
0.0202991
0.0210704
0.0213228
0.022051
0.0222395
0.0234761
0.0235439
0.0236234
0.0236054
0.0228533
0.0227828
0.0228338
0.0232637
0.0230411
0.023693
0.023717
0.0237876
0.023718
0.0224152
0.0221002
0.0213397
0.0208347
0.0199363
0.019399
0.0186893
0.018311
0.0177083
0.0180213
0.0187344
0.0189422
0.0198262
0.0198458
0.0205906
0.0207914
0.021251
0.0213788
0.0220378
0.0221733
0.0224353
0.0224895
0.0236675
0.023779
0.023818
0.0237812
0.0238077
0.0240422
0.024042
0.0239746
0.0239634
0.0239034
0.0237536
0.0236235
0.0246635
0.0253146
0.0248448
0.0246154
0.0248905
0.025743
0.0262941
0.0273821
0.0282358
0.0293108
0.0302072
0.0310381
0.0317242
0.0322113
0.0323508
0.0323955
0.0319664
0.031601
0.0333099
0.0398009
0.0430204
0.0482632
0.0506347
0.0526479
0.0534089
0.0522228
0.0529178
0.0516154
0.0518616
0.0506297
0.0501699
0.0493136
0.0482761
0.0475311
0.0460341
0.0452868
0.0498859
0.0563491
0.0564272
0.0495004
0.0466256
0.0419208
0.0360658
0.0384725
0.0446852
0.0399455
0.0379901
0.035016
0.0298726
0.0226365
0.0177996
0.0255775
0.0332583
0.0404762
0.0472883
0.0533014
0.0571917
0.0593085
0.0608214
0.0625189
0.0604968
0.0530665
0.0414948
0.0316987
0.0278527
0.0263086
0.0238662
0.0204291
0.0185415
0.0174683
0.0163144
0.014966
0.0141069
0.0138612
0.0140964
0.0142105
0.0155573
0.0168182
0.0168123
0.0179912
0.0178207
0.0183308
0.0189207
0.0193216
0.0199854
0.0199542
0.0189929
0.0193423
0.0196046
0.0202811
0.0201801
0.0203486
0.020131
0.0194114
0.0188973
0.0182969
0.0177826
0.0173288
0.0167627
0.0160598
0.0160521
0.0162576
0.0158075
0.0162089
0.0166407
0.0170411
0.0176637
0.018573
0.0193302
0.0211587
0.0212979
0.021045
0.0211317
0.0197048
0.0196414
0.0186678
0.0184342
0.0200278
0.0198709
0.0182
0.0195928
0.0195964
0.0213738
0.0213802
0.0207065
0.0209049
0.0207919
0.0189689
0.0180806
0.0170131
0.0162397
0.015659
0.0152684
0.0148114
0.0154369
0.014258
0.0136678
0.0141045
0.0140773
0.0141402
0.0145254
0.0149521
0.015694
0.0163954
0.0174399
0.0180767
0.0189725
0.0193042
0.0212083
0.0211164
0.020986
0.0210167
0.0211509
0.0216003
0.0208134
0.0207754
0.0209175
0.0209326
0.0209575
0.0209417
0.0191072
0.0189048
0.0180715
0.0177549
0.0168239
0.0164675
0.0158147
0.015503
0.0151165
0.0149222
0.0232997
0.0255015
0.0256617
0.0398331
0.0200142
0.0200054
0.0344149
0.017377
0.0231196
0.023669
0.0247378
0.0259531
0.0226014
0.0307978
0.0212669
0.0233703
0.0240993
0.0252887
0.0127797
0.0189526
0.036426
0.0421591
0.0435106
0.0484701
0.0551944
0.0584377
0.0614931
0.0635626
0.0658321
0.068299
0.0707083
0.0724591
0.0726202
0.068961
0.0659185
0.0564602
0.0526484
0.056387
0.0608062
0.0473522
0.0425678
0.0431165
0.0435863
0.0441234
0.0443334
0.0450255
0.044832
0.045834
0.0451002
0.0462098
0.0450638
0.0460922
0.0448464
0.042108
0.0388783
0.0326674
0.0306831
0.0295707
0.0268532
0.0243491
0.0220956
0.0202674
0.0198323
0.0182663
0.0168603
0.0165609
0.0152709
0.0155183
0.016734
0.019859
0.0168191
0.0176679
0.0259782
0.0191392
0.0180482
0.0185966
0.0191166
0.0193547
0.0182494
0.019878
0.0221502
0.0221437
0.0222059
0.0222157
0.0214149
0.0212526
0.0209831
0.0210404
0.0210728
0.0211976
0.0211667
0.0193461
0.0192899
0.0190179
0.0188806
0.018093
0.0179264
0.0173439
0.0170148
0.016174
0.0158809
0.0154313
0.015481
0.0165468
0.0203048
0.0296502
0.0172283
0.0178496
0.0154679
0.0139447
0.0266058
0.0248043
0.0286505
0.0267955
0.0394669
0.0264505
0.0232088
0.0242311
0.0297569
0.0296862
0.032614
0.0424156
0.033063
0.0281805
0.0724473
0.052234
0.0329639
0.0457749
0.0578819
0.10838
0.126902
0.0556936
0.0562294
0.0619281
0.0628285
0.0627107
0.0530414
0.0489336
0.0409918
0.0314223
0.012936
0.0249319
0.0321878
0.0423495
0.0564807
0.0917568
0.0527247
0.0595543
0.065498
0.0645728
0.0676676
0.0658015
0.0644214
0.0653765
0.102491
0.111576
0.10708
0.0855372
0.0803841
0.073972
0.123841
0.138908
0.119633
0.129581
0.13521
0.0808256
0.0302907
0.0249835
0.0238501
0.0264283
0.0253734
0.0460345
0.0206044
0.0218374
0.0226622
0.0271794
0.0302126
0.0528724
0.0232783
0.0254716
0.0324229
0.0348783
0.0459029
0.0274566
0.0280971
0.0344142
0.0362023
0.0395256
0.033668
0.0317896
0.0287491
0.0259391
0.0244443
0.0255021
0.0319134
0.0464143
0.0279146
0.0283436
0.0301095
0.133957
0.0307756
0.0266683
0.0277307
0.0267429
0.0337173
0.0351177
0.111067
0.0355061
0.0167012
0.015462
0.0159403
0.0167536
0.0173911
0.0180087
0.0184528
0.0190921
0.0194842
0.0196375
0.0198067
0.0221813
0.0220794
0.0216104
0.0210666
0.0218584
0.0211637
0.0212112
0.0218267
0.0212925
0.0214378
0.0224849
0.0236522
0.0231633
0.023726
0.0250752
0.0239206
0.0222249
0.0220197
0.0221427
0.0228502
0.0239906
0.0227995
0.0234523
0.0226345
0.023558
0.0236741
0.0203756
0.0200067
0.0198028
0.0193014
0.0186287
0.0180045
0.0173298
0.0166731
0.0161557
0.0160569
0.0165248
0.0151845
0.0155577
0.0178222
0.0389984
0.0320999
0.0263125
0.0220896
0.0194984
0.01839
0.0182956
0.0187508
0.0194058
0.0199666
0.0201753
0.020762
0.0246436
0.0245752
0.0257799
0.0246408
0.0259774
0.0249211
0.0235959
0.0227258
0.0239321
0.023235
0.0237246
0.0253359
0.0261775
0.0238172
0.0240857
0.021502
0.0200933
0.0184815
0.0188205
0.0202662
0.0209392
0.0233702
0.0234511
0.0268834
0.0268634
0.0267179
0.025486
0.0248126
0.0262635
0.0247787
0.0259289
0.0248188
0.0262239
0.0274097
0.0277574
0.0270531
0.026211
0.025338
0.0210601
0.0202694
0.0199631
0.0194683
0.0191946
0.0200711
0.0242239
0.0332762
0.0452348
0.0572737
0.0666885
0.0662587
0.0597306
0.0403502
0.0414823
0.0384099
0.0419602
0.0595824
0.0852051
0.0594611
0.113692
0.0880632
0.0522777
0.0625756
0.0745248
0.0836574
0.0895238
0.090419
0.0768738
0.0565086
0.049603
0.052059
0.0844322
0.0831727
0.0822857
0.077852
0.0823206
0.0802145
0.077558
0.0760056
0.0742385
0.0700078
0.0699882
0.0673157
0.0672863
0.060168
0.0613558
0.0615846
0.059014
0.0562732
0.0539918
0.0518064
0.0494872
0.0456011
0.0443245
0.0418515
0.0401148
0.0367651
0.0362334
0.0357489
0.0335771
0.0320279
0.0307769
0.0295178
0.0278194
0.027982
0.0263985
0.0262422
0.0213883
0.0210086
0.0199899
0.0196545
0.0193955
0.0195649
0.0207564
0.0233665
0.0433726
0.0330355
0.0329481
0.03353
0.0337227
0.0396657
0.046437
0.0706083
0.0653268
0.0718698
0.0614636
0.0639024
0.0631115
0.0627261
0.0654409
0.0690208
0.0743588
0.0868551
0.333502
0.513803
0.253213
0.237197
0.24682
0.251712
0.259151
0.339182
0.360154
0.356069
0.36066
0.330538
0.318408
0.196615
0.226051
0.238122
0.236989
0.22383
0.202009
0.392196
0.522662
0.518789
0.523657
0.523769
0.518767
0.522602
0.502912
0.514274
0.501758
0.515027
0.502298
0.521668
0.518929
0.504364
0.501137
0.501157
0.500916
0.501379
0.501556
0.504894
0.506055
0.506107
0.505102
0.50411
0.514526
0.435835
0.121614
0.084452
0.14028
0.194947
0.159487
0.231312
0.266085
0.191672
0.108796
0.0886168
0.099989
0.123137
0.124683
0.151623
0.198632
0.186057
0.151825
0.152822
0.15318
0.198175
0.189913
0.2162
0.258462
0.251954
0.187343
0.149012
0.147956
0.225873
0.240957
0.236181
0.121784
0.0435779
0.0217496
0.0226179
0.0327125
0.0164882
0.0168243
0.0219291
0.0570419
0.0957742
0.0492295
0.13499
0.137039
0.181314
0.146834
0.177741
0.114958
0.118407
0.0673803
0.0793589
0.089291
0.0950587
0.0993369
0.0933073
0.215571
0.318111
0.18975
0.560092
0.537387
0.195526
0.216767
0.575483
0.513013
0.503521
0.501784
0.501698
0.501859
0.501816
0.500969
0.500915
0.500728
0.500765
0.500716
0.501163
0.504767
0.520393
0.514606
0.50524
0.501385
0.500824
0.500799
0.50069
0.50073
0.50075
0.500808
0.501017
0.50105
0.501151
0.50167
0.503939
0.512031
0.435467
0.169687
0.182025
0.405781
0.36155
0.511503
0.504621
0.501369
0.500942
0.500855
0.500829
0.500795
0.500969
0.50089
0.501397
0.501231
0.501287
0.502776
0.508257
0.506393
0.443
0.369299
0.416985
0.32989
0.506669
0.507776
0.503276
0.5029
0.503246
0.503414
0.501514
0.501527
0.500992
0.50106
0.500893
0.50134
0.504755
0.511014
0.345712
0.170586
0.177483
0.257595
0.0877261
0.0906317
0.0925346
0.0946239
0.246561
0.440485
0.554409
0.470174
0.47437
0.541196
0.384928
0.363683
0.293445
0.317
0.401227
0.346629
0.312253
0.249804
0.288032
0.24726
0.302998
0.217456
0.233735
0.221336
0.282589
0.286451
0.286815
0.226288
0.216181
0.271188
0.285487
0.316424
0.218337
0.258594
0.202929
0.191951
0.0869337
0.0890842
0.0809771
0.0710471
0.0708319
0.0789511
0.0774088
0.0835904
0.080608
0.0843166
0.0814622
0.0794295
0.0726296
0.0746437
0.0684375
0.0710724
0.129953
0.166025
0.149989
0.151412
0.179075
0.13065
0.156975
0.153
0.197043
0.247403
0.22575
0.290289
0.22428
0.274849
0.404802
0.753397
0.436442
0.243549
0.31736
0.339533
0.288076
0.189122
0.448865
0.537913
0.297467
0.359706
1.19586
1.04321
1.78141
0.991398
1.11756
0.669482
0.59666
1.02772
0.652654
0.664918
0.558551
0.572439
0.498053
0.323464
0.322881
0.3048
0.241184
0.279747
0.270484
0.266167
0.295655
0.260783
0.315679
0.351431
0.396038
0.321914
0.28474
0.365807
0.214991
0.28971
0.345207
0.314647
0.25888
0.33683
0.448579
0.419457
0.36083
0.397861
0.508104
0.561825
0.530483
0.449901
0.510592
1.00451
0.960937
0.929457
0.589056
1.93353
1.71654
0.351171
0.136624
0.0950317
0.0360224
0.0224179
0.0182756
0.0178857
0.0488609
0.0195472
0.0235254
0.0211678
0.0298717
0.0272603
0.0315055
0.0551357
0.0374756
0.052508
0.0389728
0.0516765
0.0411611
0.0565593
0.0607333
0.0639191
0.0516671
0.0407686
0.061595
0.0822202
0.038472
0.0989938
0.104607
0.0675106
0.0821735
0.101472
0.0524606
0.164149
0.0570439
0.0566218
0.0672059
0.125975
0.250085
0.0849912
0.111565
0.583685
1.52837
0.5084
0.200369
0.163379
0.0414443
0.0359902
0.0292275
0.0356097
0.0314002
0.0625991
0.0631998