/*--------------------------------*- C++ -*----------------------------------*\
| =========                 |                                                 |
| \\      /  F ield         | OpenFOAM: The Open Source CFD Toolbox           |
|  \\    /   O peration     | Version:  v2012                                 |
|   \\  /    A nd           | Website:  www.openfoam.com                      |
|    \\/     M anipulation  |                                                 |
\*---------------------------------------------------------------------------*/
FoamFile
{
    version     2.0;
    format      ascii;
    class       volScalarField;
    location    "995";
    object      nut;
}
// * * * * * * * * * * * * * * * * * * * * * * * * * * * * * * * * * * * * * //

dimensions      [0 2 -1 0 0 0 0];


internalField   nonuniform List<scalar> 
18258
(
0.00418814
0.00182181
0.00149161
0.00129187
0.000857079
0.00140176
0.00194716
0.00231813
0.00243234
0.00241206
0.00249782
0.00421563
0.00591665
0.00731249
0.00768118
0.00766763
0.00695985
0.00664596
0.00721199
0.00886997
0.00746054
0.00477932
0.00572674
0.00661575
0.00719244
0.00636756
0.00514827
0.00476862
0.00431739
0.00359801
0.00301538
0.00205394
0.00151657
0.0014067
0.00127415
0.00145194
0.00158093
0.00168511
0.00172351
0.0017509
0.00173902
0.00172914
0.00168238
0.00165403
0.00160555
0.00132931
0.00161527
0.00164285
0.0017977
0.00248814
0.0026752
0.00225112
0.00249168
0.00222312
0.00146576
0.00167758
0.00182107
0.00186028
0.00183633
0.0017601
0.00173442
0.00171269
0.00168516
0.00165249
0.00163263
0.00164912
0.00166638
0.00164847
0.00156773
0.00150228
0.00139634
0.00129009
0.00121134
0.00115033
0.00110431
0.0010531
0.000995546
0.000874478
0.000810483
0.00107309
0.00134716
0.00143938
0.0020401
0.00248725
0.00250398
0.00187488
0.00133645
0.0013871
0.00154176
0.00155683
0.00131903
0.00156712
0.00177448
0.00183903
0.0019163
0.00214215
0.00244035
0.00237965
0.0021194
0.00195336
0.00190723
0.00218851
0.00208249
0.00270093
0.00271898
0.00236852
0.00219326
0.00246753
0.00318284
0.00342173
0.00265649
0.00249565
0.00244686
0.00241515
0.00218525
0.00226272
0.00205571
0.00185241
0.00201834
0.00243764
0.00231189
0.00252447
0.00261619
0.00245468
0.00284436
0.00328
0.00323343
0.00258757
0.0021112
0.00196803
0.00198283
0.00121273
0.00130952
0.0014102
0.00144477
0.00146916
0.00148979
0.00158809
0.00158449
0.00156116
0.00155772
0.00158496
0.000873517
0.000946389
0.000969953
0.000976757
0.000928011
0.000918405
0.000901181
0.000887219
0.000837066
0.000801032
0.000958358
0.00107603
0.0011719
0.00128402
0.00145103
0.00165534
0.00187004
0.00208702
0.00223049
0.00227137
0.00231253
0.00222905
0.00214459
0.002221
0.0022338
0.0022193
0.00218951
0.00215185
0.00210099
0.00200781
0.00211556
0.00210965
0.00198186
0.00169869
0.00173661
0.00173347
0.00177852
0.00176931
0.00178711
0.00176182
0.00173223
0.00164907
0.00153313
0.00127635
0.00124274
0.00125848
0.00161639
0.00196255
0.00303178
0.00369888
0.00429578
0.00459802
0.00492133
0.00398001
0.00442907
0.00341278
0.00306411
0.00389488
0.00509634
0.00290723
0.00158652
0.00300893
0.00266827
0.0019348
0.00172207
0.00177432
0.0017786
0.00204434
0.00235642
0.00261463
0.00274017
0.00285135
0.00294014
0.00303816
0.00316211
0.00319615
0.00308785
0.00261385
0.0031496
0.00255721
0.00298502
0.00269496
0.00181714
0.0019343
0.00204853
0.00187325
0.00182121
0.00174432
0.00156895
0.00192832
0.00249916
0.00290094
0.00331641
0.00442165
0.0040907
0.0039231
0.00303803
0.00293772
0.00152531
0.00217607
0.00225418
0.00253327
0.00168483
0.00153628
0.00145746
0.00193514
0.00224177
0.00264604
0.00293529
0.00348764
0.00270296
0.00308439
0.0027895
0.00194272
0.00187134
0.00268093
0.00288836
0.00237621
0.00212548
0.00266632
0.00252321
0.00178983
0.00143588
0.00220457
0.00228321
0.00163585
0.0040598
0.00432762
0.00414994
0.00506868
0.00634673
0.00723219
0.00672915
0.00596719
0.00667057
0.00529919
0.00512823
0.00546709
0.00458619
0.00320293
0.00328404
0.00339586
0.00348657
0.00374221
0.00397471
0.00425934
0.00453089
0.00411966
0.00342227
0.002591
0.00178228
0.00175728
0.00174805
0.00156973
0.00232652
0.00352166
0.00349891
0.00198961
0.00115949
0.00131047
0.00147931
0.00146462
0.00106349
0.000800166
0.0013783
0.00157599
0.00160148
0.00156175
0.00147456
0.00154095
0.00247474
0.00381261
0.00418927
0.00433906
0.0044809
0.00458123
0.00463727
0.00465533
0.00466557
0.00467799
0.00468886
0.00470518
0.0046907
0.0045908
0.00403788
0.00253846
0.0014838
0.00137839
0.0015213
0.00163498
0.00173422
0.00147568
0.000902296
0.00144115
0.00184544
0.00212102
0.0021391
0.00199629
0.0019365
0.0030536
0.00406004
0.00478544
0.00493221
0.00499744
0.00494236
0.00493498
0.00482694
0.00479288
0.00420217
0.00300704
0.00328727
0.00352926
0.00356954
0.00365187
0.00377569
0.00368802
0.00348418
0.00509291
0.00587684
0.00595225
0.00607958
0.0060084
0.00590519
0.00563729
0.00533103
0.00448818
0.00336587
0.00212376
0.00216821
0.00230839
0.00228645
0.00199066
0.00209711
0.00227572
0.00229849
0.00237372
0.00266174
0.0030231
0.00288396
0.00248206
0.00210769
0.0019625
0.0019211
0.0018431
0.0013802
0.00140094
0.00136197
0.00138451
0.00186024
0.00221422
0.00255334
0.00362121
0.00323037
0.00262726
0.00416443
0.00426687
0.00458359
0.00506377
0.00518956
0.00574954
0.00400289
0.00360796
0.00370623
0.00302769
0.00280264
0.00283261
0.00284332
0.00265035
0.0029007
0.00287497
0.00277095
0.00305924
0.00337068
0.00444451
0.00538517
0.00568174
0.00585299
0.00592266
0.00589966
0.00578403
0.00582
0.00511112
0.00510544
0.00488978
0.00474979
0.00470068
0.0044684
0.00511556
0.00530978
0.00537406
0.00550755
0.00571617
0.00556178
0.00538931
0.00525837
0.0051638
0.00506497
0.00511912
0.00521349
0.00531432
0.00545637
0.00564657
0.00567894
0.00548167
0.00533287
0.00523137
0.00513619
0.00514035
0.00522525
0.00532449
0.00546561
0.00564617
0.00554644
0.00540606
0.00528126
0.00517907
0.00508929
0.00491149
0.00502967
0.00515983
0.00526718
0.00533695
0.00461148
0.00492911
0.00484434
0.00438603
0.00410532
0.00311771
0.00337406
0.00355787
0.0038752
0.00430156
0.00438522
0.00368006
0.00315374
0.00307329
0.00304852
0.00312059
0.00314639
0.00316155
0.00357225
0.00538039
0.0054173
0.00543234
0.0054341
0.00464746
0.00451636
0.00420796
0.00768945
0.0071589
0.00620241
0.00511356
0.00274205
0.00235059
0.00278441
0.00338595
0.00378558
0.0041779
0.00277361
0.00171795
0.00200208
0.00207595
0.00202537
0.00187237
0.00156024
0.00144025
0.00130715
0.0014066
0.00249067
0.00397494
0.00447778
0.0045257
0.0044812
0.0043945
0.00428928
0.00414284
0.00408225
0.00513367
0.00692963
0.00785091
0.00782326
0.00672153
0.00547173
0.00307799
0.00157419
0.00114145
0.00126085
0.0013835
0.00162863
0.00145588
0.00120375
0.00131842
0.00125649
0.00254986
0.0044124
0.00564025
0.00669203
0.00657595
0.00570634
0.00468138
0.00444458
0.00454892
0.0046177
0.00467714
0.0047382
0.00478001
0.00475308
0.0043258
0.00267213
0.00159534
0.00141757
0.00152431
0.00178646
0.00189804
0.00191722
0.00189046
0.0016389
0.00271061
0.00430454
0.00273748
0.00149353
0.00161369
0.00160197
0.00282564
0.00282134
0.00276067
0.00429554
0.00454202
0.00453056
0.00425674
0.00406363
0.00240567
0.00273008
0.00273919
0.00275375
0.0027989
0.00141387
0.00154111
0.00158904
0.00171049
0.00149589
0.00190064
0.000491805
0.000681601
0.00079174
0.000860925
0.000927529
0.000909876
0.00174066
0.00176598
0.00168531
0.0016409
0.00208294
0.00223537
0.00228476
0.00210452
0.00194202
0.00206714
0.00207164
0.00195222
0.0018493
0.00191754
0.00191893
0.00183896
0.00156414
0.00146565
0.00160903
0.00159171
0.00157893
0.00283534
0.00283044
0.00267877
0.00440166
0.00433078
0.00485092
0.00481958
0.00481408
0.00479459
0.00484625
0.00487301
0.00489319
0.00491694
0.00490748
0.00486005
0.00676165
0.00478075
0.00417176
0.00241246
0.0023238
0.00164118
0.00143835
0.00169371
0.00181149
0.00196389
0.00191945
0.00202352
0.00202112
0.00214461
0.00199052
0.00176745
0.00270712
0.00289204
0.00282471
0.00288062
0.00281291
0.0027964
0.0027758
0.00273629
0.0026887
0.00160093
0.0015704
0.00183896
0.00193038
0.00207421
0.002093
0.00213842
0.00202803
0.00178359
0.00172652
0.00198839
0.00196158
0.00199974
0.00188539
0.00187758
0.0016727
0.00171505
0.00345842
0.00638334
0.00328567
0.00364951
0.00330652
0.00376047
0.0032939
0.00284088
0.00290751
0.00256106
0.00267151
0.00280215
0.0028528
0.00299822
0.00353415
0.00340274
0.00298693
0.00290031
0.00284321
0.00268089
0.00241303
0.00252774
0.00255051
0.00260522
0.00289546
0.0033208
0.00372232
0.00452178
0.00438774
0.00384472
0.0035147
0.00368505
0.00374976
0.00471928
0.00440826
0.00438282
0.00462407
0.00457893
0.00434565
0.00411793
0.00397483
0.00341307
0.00346928
0.00397036
0.00384177
0.00395886
0.0038892
0.00404291
0.00411546
0.00395009
0.00367159
0.00385948
0.00385172
0.0042773
0.00416028
0.0038592
0.00353109
0.00377402
0.00372826
0.00430644
0.00405423
0.00379217
0.00349063
0.00334367
0.00379445
0.00372538
0.00422398
0.004346
0.00434784
0.00379073
0.00370295
0.00440324
0.00423641
0.00409184
0.00426172
0.0035297
0.00363075
0.00447208
0.00456557
0.00433116
0.0036162
0.00367194
0.00314883
0.00370239
0.00460769
0.00435104
0.00356643
0.00295976
0.00414098
0.0043577
0.00460927
0.00435649
0.00474512
0.00511224
0.00416758
0.00453424
0.00592398
0.00452464
0.00525027
0.00536631
0.0053976
0.00539999
0.00542039
0.00544682
0.00573738
0.00557896
0.00354905
0.0042441
0.00412356
0.00344954
0.00293434
0.00323141
0.00347991
0.00352983
0.00361915
0.00375684
0.00369218
0.00356882
0.00522469
0.00596423
0.00609286
0.00621444
0.00611371
0.00596484
0.00561875
0.0051947
0.0043136
0.00321707
0.00200784
0.00204643
0.00218046
0.0021591
0.0018726
0.00141286
0.000928577
0.00137861
0.00142611
0.00134378
0.00122559
0.00108284
0.00112176
0.0020435
0.00397173
0.00544475
0.00600396
0.00645885
0.00694537
0.00742238
0.00778834
0.00805295
0.00822953
0.00833523
0.00835395
0.00818524
0.00742889
0.00709762
0.00668847
0.00635421
0.00589483
0.00554163
0.00626257
0.00688006
0.00726196
0.0076911
0.00788981
0.00780622
0.00678246
0.00657555
0.00756376
0.00931924
0.00791708
0.00995065
0.0117061
0.00911762
0.00819694
0.00819209
0.00915647
0.00933536
0.00900208
0.00848183
0.00788492
0.00713219
0.00750287
0.00784082
0.00816786
0.00846833
0.00930824
0.0094604
0.00939369
0.00925365
0.00906205
0.00877969
0.00833388
0.00772321
0.00704796
0.0063886
0.00562139
0.00402061
0.00190127
0.0021444
0.00210708
0.0022604
0.00220484
0.00101994
0.00112586
0.00114068
0.00114889
0.00108532
0.0012351
0.00178717
0.00290881
0.00209255
0.00172128
0.00118689
0.00139437
0.00232986
0.00396043
0.0044757
0.00456218
0.00461682
0.00584093
0.00682297
0.00727006
0.00760621
0.00785846
0.00775761
0.00749869
0.00704106
0.0064708
0.0062574
0.00590991
0.0056044
0.00544007
0.00527107
0.00494678
0.00388226
0.00372666
0.00388409
0.00383715
0.00367336
0.00392557
0.00406796
0.00406498
0.00411058
0.00415049
0.00427353
0.0044183
0.00454439
0.0046108
0.00463577
0.00464399
0.00465401
0.00466201
0.00467665
0.00466111
0.00455928
0.00400352
0.00250319
0.00146096
0.00135035
0.00148056
0.0015656
0.0016019
0.00142248
0.000915651
0.00142281
0.00184178
0.00188909
0.00207321
0.0021393
0.00226906
0.00252747
0.00292043
0.00301337
0.00267386
0.00253224
0.00247805
0.00241529
0.00206378
0.00257284
0.00283967
0.00283444
0.00280794
0.00303519
0.00373522
0.00358786
0.00316357
0.00312793
0.00309613
0.00279872
0.00275659
0.00301265
0.00304607
0.0031602
0.00370597
0.00444466
0.00412297
0.00375495
0.00359948
0.00332374
0.00292561
0.00264441
0.00325517
0.00267208
0.00140488
0.0011916
0.00118846
0.00119254
0.00115034
0.0013642
0.00143578
0.00145556
0.00135497
0.00150374
0.0016741
0.00162181
0.00183221
0.00180761
0.0016178
0.0016022
0.00173496
0.00183273
0.00188151
0.00193003
0.00316373
0.00326614
0.00253007
0.00366382
0.0042207
0.0041914
0.00444666
0.00365663
0.00327814
0.00389206
0.0044993
0.00516359
0.00407917
0.0038579
0.00394853
0.00181063
0.000952765
0.00134419
0.00166921
0.00186114
0.00180638
0.00170713
0.00144413
0.00256502
0.00263402
0.00418447
0.00469446
0.00475588
0.00472574
0.00472712
0.00513705
0.00589756
0.00677083
0.00705334
0.00695636
0.00664306
0.00605738
0.00547318
0.00544398
0.00526139
0.00512708
0.00508938
0.0044221
0.00390184
0.00418023
0.00411223
0.00425169
0.00431711
0.00436474
0.00441329
0.00449398
0.00459133
0.00468023
0.00474106
0.00478173
0.00481586
0.00485052
0.00488518
0.00492255
0.00494277
0.00489604
0.00442494
0.00265296
0.00158108
0.00144185
0.00153844
0.00180828
0.00190409
0.00204645
0.00181682
0.000956594
0.00112534
0.00195519
0.00216881
0.00200686
0.00187812
0.00184456
0.00154513
0.00280087
0.00276499
0.0043432
0.00488523
0.00495382
0.00494011
0.00490181
0.00485814
0.00481473
0.0047789
0.00474998
0.00471947
0.00467695
0.00462576
0.00457831
0.00452982
0.00444752
0.00433109
0.00419619
0.00436291
0.00451742
0.00471388
0.00492166
0.00502157
0.00492947
0.00479602
0.00474218
0.00477611
0.00481951
0.00486362
0.00490322
0.00492346
0.00486817
0.00458725
0.00430235
0.00272332
0.00275914
0.00135619
0.00150628
0.0017381
0.00179516
0.00194931
0.00193944
0.00152387
0.00118795
0.00134072
0.00125355
0.00224037
0.00246408
0.00273345
0.00270668
0.00146886
0.00150683
0.00156594
0.00176582
0.00164153
0.00158704
0.00393043
0.00376345
0.00393745
0.00483018
0.00416134
0.00287196
0.00314523
0.00437665
0.00461662
0.00278975
0.00209285
0.00232022
0.00293939
0.00432777
0.00438222
0.00416435
0.00414071
0.00302143
0.00371455
0.00447218
0.0043504
0.0033888
0.00233484
0.00173936
0.000844445
0.00160615
0.001373
0.00336937
0.00372957
0.0036868
0.00403149
0.0042834
0.00432703
0.00420447
0.00372748
0.00380246
0.00384032
0.00437672
0.00439633
0.00371997
0.00313799
0.00254704
0.00257029
0.00262047
0.00290396
0.00363589
0.00342575
0.00300256
0.00291129
0.00284817
0.00267864
0.00241696
0.00211985
0.00213466
0.00198689
0.00192284
0.00303122
0.00403504
0.00475821
0.00489485
0.00494422
0.00486819
0.00483362
0.00469531
0.00462382
0.00401703
0.00513053
0.00542237
0.00523228
0.00527094
0.00530389
0.00534447
0.00534553
0.00524527
0.00450712
0.00269144
0.00175793
0.00198432
0.00214176
0.00201099
0.00199974
0.00213158
0.00202274
0.00177671
0.00287857
0.00281366
0.00449918
0.0050955
0.00520438
0.00521047
0.00518955
0.00517232
0.00517915
0.00545159
0.00532721
0.00539738
0.00568113
0.00569103
0.00576181
0.00541074
0.00534271
0.00529935
0.00527036
0.00522272
0.00509475
0.00450868
0.00437126
0.00496391
0.00511652
0.00518392
0.00523035
0.00528574
0.00535855
0.00556997
0.00572632
0.005786
0.00555623
0.00547198
0.00534536
0.00516465
0.00512154
0.00511269
0.00510827
0.00508345
0.00495175
0.0043587
0.00280244
0.00287157
0.00170826
0.00171931
0.00198031
0.00207986
0.00204262
0.00189154
0.00184419
0.00318152
0.00362103
0.00385019
0.00414974
0.00396422
0.00394179
0.00450443
0.004359
0.0038835
0.0040424
0.00362679
0.00345347
0.00334409
0.0033638
0.00176324
0.00190269
0.00198474
0.0019519
0.00186644
0.00166478
0.00152665
0.00278621
0.00276591
0.00273032
0.00162324
0.00158763
0.00187044
0.00181641
0.0016616
0.00141635
0.00155278
0.00239842
0.00268246
0.00415993
0.00430877
0.00461125
0.0049312
0.0050526
0.00508594
0.00510656
0.00512953
0.00517841
0.0052357
0.00525141
0.00524788
0.00528582
0.00527653
0.00527836
0.00525141
0.00522032
0.00518382
0.00514459
0.00507949
0.00494458
0.00462062
0.00430271
0.00485106
0.00489567
0.00498659
0.00508037
0.00511987
0.00512546
0.00510613
0.0050683
0.00502355
0.00497225
0.00497162
0.00512089
0.00515686
0.00518274
0.00516715
0.00514864
0.00514188
0.00511816
0.00508067
0.00498645
0.00489216
0.00485248
0.00477168
0.00489892
0.00495516
0.00496331
0.00501128
0.00508846
0.00511148
0.00511185
0.00507469
0.00504301
0.00500147
0.00493333
0.00484326
0.00454421
0.00460421
0.00468366
0.00478774
0.0048882
0.0049696
0.00501583
0.00502008
0.00497489
0.00494454
0.00494606
0.00490438
0.00492595
0.00494798
0.00492221
0.00491833
0.00492075
0.00486304
0.00475931
0.00461555
0.00446393
0.00433929
0.00427707
0.00417498
0.0045121
0.00464449
0.00476217
0.00486594
0.00495869
0.00505081
0.0050776
0.00506576
0.0050088
0.00497647
0.00497529
0.00492767
0.00492507
0.00497102
0.00497267
0.00499945
0.0050478
0.00503578
0.00496982
0.00479582
0.00462579
0.00447717
0.00433408
0.00418138
0.00414684
0.00421501
0.00415555
0.00421051
0.00435587
0.00454009
0.00470032
0.00480411
0.00483805
0.00486957
0.00491494
0.0049108
0.00488371
0.00486817
0.00480694
0.00475327
0.00468778
0.00454693
0.00436897
0.00421354
0.00416649
0.00425254
0.0043356
0.00425662
0.00395051
0.00410944
0.0042615
0.0044114
0.00462259
0.00486479
0.00496836
0.00500515
0.00498059
0.00496154
0.00495919
0.00491568
0.00489998
0.00494009
0.00494335
0.00496278
0.00499397
0.00496545
0.00488168
0.0045857
0.00422983
0.00405819
0.00395564
0.00382101
0.00427777
0.00436746
0.00426095
0.00418883
0.00430132
0.00443107
0.00456603
0.00465647
0.00469353
0.00474581
0.00481432
0.00484784
0.0047994
0.00474245
0.00467276
0.00463682
0.00463638
0.00461496
0.0045289
0.00442594
0.00430474
0.00444899
0.00453251
0.00445079
0.0040297
0.00409676
0.00420161
0.00426386
0.0045984
0.0048853
0.00494915
0.0049487
0.00491666
0.00489597
0.00489628
0.0048709
0.00482284
0.00481425
0.00481059
0.0048686
0.00494511
0.00499238
0.00501766
0.00480424
0.00440439
0.00433243
0.00414529
0.00406013
0.00451062
0.00456173
0.00445792
0.00436156
0.00457387
0.00466353
0.00468712
0.00466671
0.00461678
0.0045846
0.00464416
0.00473813
0.00466724
0.00436338
0.00409388
0.0042326
0.00426767
0.00425846
0.00420151
0.00410448
0.00389245
0.00434669
0.00478822
0.0048233
0.00435139
0.00435893
0.00422678
0.00393935
0.00432777
0.00452914
0.00457117
0.00454891
0.00447524
0.00430314
0.00454464
0.00475769
0.00471662
0.00426965
0.00277115
0.00280915
0.00282901
0.0028313
0.00279442
0.00278413
0.00274374
0.00272284
0.00265994
0.00259579
0.00253482
0.00270364
0.00284894
0.00304391
0.00306033
0.00314105
0.00300631
0.00284576
0.00265761
0.00206928
0.00262575
0.00313255
0.00332902
0.00358079
0.0036324
0.00418855
0.00440608
0.00452225
0.00443324
0.00355626
0.00301629
0.00241012
0.00156735
0.000976552
0.00114611
0.00119192
0.00125102
0.00152912
0.00282148
0.00143736
0.00199114
0.00155743
0.00267791
0.00141934
0.000888949
0.000590091
0.000753248
0.000894205
0.000901919
0.000863168
0.000719603
0.000564257
0.000576742
0.000537169
0.000570699
0.000514433
0.000589604
0.000552177
0.000772409
0.00116392
0.00131973
0.0013487
0.00108993
0.0012288
0.00102663
0.00118368
0.00105682
0.00115144
0.00110434
0.00135042
0.00147981
0.00141668
0.00142056
0.001243
0.000869309
0.00100767
0.000791571
0.000950393
0.000727158
0.000939015
0.000805069
0.00104605
0.00107834
0.00107525
0.00103534
0.000791026
0.000938307
0.000738703
0.000907181
0.000742973
0.000791598
0.00065926
0.000956694
0.000974676
0.000897489
0.000957997
0.00107733
0.0011571
0.00127567
0.00120472
0.00137285
0.00132401
0.00134096
0.00126959
0.00123371
0.00120547
0.00120784
0.00118795
0.00119446
0.00123297
0.0012349
0.00123981
0.00127915
0.00126059
0.00123054
0.0012126
0.0010775
0.000869566
0.0015148
0.00156222
0.00158542
0.00158502
0.00154933
0.00153222
0.00147992
0.00146595
0.00142035
0.00139334
0.00133191
0.00128115
0.00122342
0.00137539
0.000769506
0.000873643
0.000922241
0.000949406
0.000968395
0.000976991
0.000984028
0.000978416
0.000966211
0.000942166
0.000933826
0.000907713
0.00116115
0.00132042
0.00137988
0.00139557
0.001308
0.00124545
0.00272196
0.00329408
0.00501223
0.00512263
0.0038446
0.00383418
0.00132832
0.00140043
0.000957233
0.0013451
0.00138685
0.00137271
0.00129685
0.000935556
0.00140457
0.00097863
0.00132085
0.000991608
0.00123012
0.00101492
0.00144626
0.00184337
0.0017791
0.00161062
0.00110212
0.0009169
0.000918524
0.000784098
0.000858504
0.000704306
0.000863217
0.000729526
0.00108477
0.00154149
0.00170373
0.00173764
0.00136991
0.00188965
0.00142075
0.00205625
0.00163207
0.00201189
0.00161411
0.00186786
0.00231093
0.00232102
0.00226575
0.00182603
0.00146375
0.00164288
0.00145561
0.00167626
0.00242234
0.00158749
0.0024075
0.000994613
0.00135558
0.00139704
0.00137769
0.00129882
0.000874918
0.00222878
0.00117865
0.00210112
0.00136111
0.00218709
0.00158671
0.0021027
0.00251609
0.00263167
0.00262243
0.00213892
0.00192904
0.00199471
0.00159273
0.00191106
0.00142258
0.0020646
0.00116976
0.0015201
0.0016826
0.00177103
0.00177854
0.00146234
0.00288657
0.00181218
0.00273491
0.00190136
0.00243545
0.001952
0.00213533
0.00252139
0.00250553
0.0024844
0.00210661
0.00170431
0.00224968
0.00160497
0.0478249
0.110487
0.0439828
0.111671
0.0506055
0.071809
0.0707487
0.0708808
0.071127
0.0534067
0.11642
0.137577
0.143507
0.145284
0.144225
0.23307
0.190062
0.285569
0.185118
0.108906
0.0472125
0.0650973
0.168059
0.277566
0.416483
0.528409
0.360095
0.372687
0.237817
0.234431
0.22065
0.178426
0.109252
0.0547993
0.0093989
0.0102898
0.0146961
0.0195518
0.0154402
0.00948099
0.00187409
0.00193428
0.00197844
0.00200661
0.00200122
0.00196094
0.00199479
0.00188638
0.00177619
0.00198832
0.00216766
0.00230877
0.0027245
0.00301222
0.00271595
0.00297704
0.00315488
0.00329942
0.00341855
0.00359623
0.00379647
0.00397279
0.00398224
0.00364919
0.00311087
0.00253006
0.00212547
0.00201326
0.0018904
0.00166703
0.0015249
0.00142735
0.00138065
0.00136151
0.00139944
0.00152976
0.00164304
0.00168281
0.00165003
0.00161972
0.00159333
0.00141881
0.00165902
0.00227571
0.0022928
0.00392829
0.00452641
0.0046207
0.00462741
0.00410104
0.00261956
0.00262539
0.0026389
0.00268943
0.00270016
0.00270777
0.00270519
0.00269659
0.00268102
0.0026523
0.00263762
0.00259469
0.00255838
0.00246703
0.00247104
0.002502
0.00252682
0.00248491
0.00249457
0.00244297
0.0031937
0.00426239
0.00479852
0.0050146
0.00520022
0.00504707
0.00699713
0.0059902
0.00420525
0.00413364
0.00408264
0.00484249
0.00487474
0.00440178
0.00442043
0.00403613
0.00252082
0.00251642
0.00251817
0.00269528
0.00274888
0.0028408
0.0028665
0.00288763
0.002901
0.00289326
0.00289092
0.00286355
0.00284387
0.00277856
0.00275694
0.0027476
0.0015148
0.00165346
0.00171582
0.00172776
0.0017539
0.00174375
0.00173428
0.0017136
0.00170074
0.00167231
0.00163997
0.00159067
0.00149484
0.00136128
0.0014977
0.00253988
0.00253856
0.00413495
0.00466402
0.00469823
0.00523043
0.0049656
0.00470327
0.00504468
0.00454735
0.00451051
0.00408527
0.00253782
0.00257247
0.00152779
0.00151511
0.00177238
0.00172411
0.00184293
0.00189384
0.00189914
0.00192521
0.00194952
0.00198031
0.00203033
0.00204449
0.0020111
0.00200437
0.00188732
0.00163059
0.00164972
0.00194531
0.00204122
0.00189608
0.00186426
0.00185052
0.00180525
0.00177102
0.00173847
0.00176127
0.00189662
0.00189387
0.00185959
0.00176909
0.00172194
0.00149171
0.00144032
0.0025171
0.00255738
0.00422886
0.00431816
0.00428677
0.00494556
0.00552661
0.00628422
0.00536556
0.00436183
0.00454666
0.00520338
0.00387701
0.00325043
0.00193371
0.00144798
0.00181502
0.00166523
0.00173689
0.00179967
0.00159838
0.0017182
0.00158873
0.00144383
0.00143568
0.00143406
0.00146926
0.00148419
0.00151104
0.00151473
0.00155153
0.00154796
0.00155188
0.00157071
0.00157802
0.00174344
0.00189384
0.00159447
0.00135199
0.00131803
0.00124471
0.00118539
0.0012144
0.00118509
0.00117778
0.00115614
0.00113647
0.00108451
0.00113007
0.0011992
0.00140293
0.00134252
0.00108507
0.000969473
0.000662536
0.000676007
0.000680678
0.000701546
0.000709266
0.00071872
0.00072227
0.000734031
0.000736342
0.000740086
0.00073981
0.000757897
0.000755312
0.000746562
0.000740963
0.000744478
0.000747805
0.000747226
0.00109426
0.00121833
0.00133022
0.00157969
0.00185837
0.00160004
0.00135652
0.00116964
0.000751855
0.000763087
0.000777012
0.000784197
0.0008009
0.000816087
0.000833025
0.000843678
0.000851664
0.000859994
0.000868803
0.000872272
0.000870104
0.000853252
0.000843351
0.000864729
0.000950502
0.00100034
0.00106436
0.00108853
0.00110903
0.00111909
0.00111409
0.00112589
0.00111293
0.0011112
0.00109255
0.00108467
0.00107724
0.00106772
0.00105582
0.0010261
0.00101626
0.00106916
0.0018108
0.00236837
0.00272566
0.0030008
0.00277887
0.00225925
0.00236854
0.00416466
0.00394567
0.00232477
0.00217228
0.00200715
0.00175704
0.00152988
0.00184828
0.00210926
0.0023067
0.00247974
0.00263801
0.0027454
0.00288356
0.00306398
0.00338307
0.0034229
0.00312216
0.00252932
0.00213977
0.00199722
0.00192917
0.00181152
0.00168297
0.0017254
0.00173796
0.00168641
0.00162243
0.00160454
0.00163137
0.001666
0.00164623
0.00164559
0.0014702
0.0014696
0.00251128
0.00255729
0.00393395
0.00414535
0.00418598
0.00269077
0.00265414
0.00155032
0.00143992
0.00157085
0.00163079
0.00163431
0.00164119
0.00163306
0.00160478
0.001584
0.00155977
0.00153996
0.00152227
0.00149183
0.00143374
0.00132428
0.00144269
0.00161767
0.0016899
0.001709
0.0017183
0.00174558
0.00179008
0.00182564
0.00190811
0.00191623
0.00191528
0.0019219
0.00179622
0.00185224
0.0015676
0.00156514
0.00271275
0.00270503
0.001554
0.00183494
0.00184773
0.00182681
0.00196694
0.00179999
0.00174305
0.00173411
0.00166084
0.00162178
0.00156955
0.00153822
0.0015679
0.00166737
0.00161386
0.00143024
0.0013773
0.0015457
0.00148794
0.00123455
0.00105488
0.00102604
0.000982298
0.000955774
0.00100192
0.00103795
0.00105852
0.00108457
0.00109228
0.00113997
0.00110905
0.00116358
0.00123394
0.00128996
0.00153001
0.00165821
0.00149803
0.00146937
0.00145116
0.00144988
0.00145453
0.0013947
0.00139074
0.00135974
0.00134442
0.00130379
0.00128541
0.001262
0.001266
0.00127913
0.0014061
0.00361952
0.00461626
0.00480768
0.00821585
0.00331755
0.00338844
0.00664855
0.00274867
0.00413302
0.00442819
0.00462823
0.00483284
0.00442296
0.00562606
0.00392532
0.00437397
0.00455272
0.0039748
0.00149954
0.00172536
0.00198044
0.00176024
0.00155431
0.00105872
0.0011405
0.00117729
0.00120734
0.00122658
0.00124832
0.00127148
0.00129328
0.00130849
0.00130856
0.00126851
0.00122543
0.00112653
0.00109358
0.00113589
0.00117959
0.00103558
0.000974927
0.000986373
0.0010025
0.00101153
0.00101338
0.00102323
0.00102583
0.0010414
0.00103297
0.00104077
0.00102287
0.00103179
0.00101849
0.000983906
0.000935126
0.000852382
0.000832208
0.0011987
0.00127646
0.00134076
0.00152178
0.00175737
0.00187542
0.00168119
0.00155087
0.00148873
0.00165139
0.00165304
0.00300642
0.00576944
0.00258302
0.00289183
0.00842828
0.00335266
0.00260513
0.00264418
0.00267189
0.00267588
0.00155487
0.00184141
0.0017854
0.0017932
0.00152112
0.00127726
0.00114563
0.0010243
0.00069473
0.000692472
0.000697695
0.000708438
0.000711784
0.000681354
0.000681274
0.000677383
0.00067586
0.000661483
0.000657465
0.000645757
0.000638642
0.000621802
0.000612676
0.00059671
0.000594105
0.000622738
0.00069496
0.000840609
0.000932172
0.00106147
0.00107964
0.00120914
0.00298614
0.00346425
0.00477522
0.00474044
0.00747683
0.00467176
0.00352847
0.00318454
0.00466037
0.00481564
0.00446087
0.00604157
0.00417995
0.00277245
0.004229
0.00352824
0.0041107
0.00405225
0.00430735
0.00684655
0.00720664
0.00202498
0.00180456
0.00189754
0.00215317
0.00255682
0.00235787
0.00268425
0.00268883
0.00208146
0.0013127
0.00417879
0.00504127
0.00407133
0.00490885
0.00753843
0.00302537
0.00295006
0.00261014
0.00217859
0.00197977
0.00195388
0.00217898
0.00260733
0.00652519
0.00698092
0.00647705
0.00646552
0.00585956
0.00639777
0.00798059
0.00793922
0.00702596
0.00657405
0.00682358
0.00426364
0.00261559
0.00304354
0.0033771
0.00450688
0.00464725
0.00982049
0.00333328
0.00368137
0.00373785
0.00499689
0.00483895
0.00855213
0.00362812
0.00391143
0.00515249
0.00688976
0.0127004
0.00463933
0.00488288
0.00702105
0.00712772
0.00651436
0.00470794
0.00426116
0.00464256
0.00349791
0.00341982
0.00291659
0.00430408
0.00579438
0.00458744
0.00445396
0.00378627
0.00338033
0.00345261
0.00358552
0.00297865
0.00293614
0.00338578
0.00252029
0.00244324
0.0025733
0.000716405
0.000367077
0.000375172
0.000384913
0.000392846
0.000401035
0.00040701
0.000414111
0.000417295
0.000417654
0.000418743
0.000442762
0.000438622
0.000424759
0.000385701
0.000440084
0.000698361
0.000698781
0.000439532
0.000387473
0.000695273
0.00110775
0.00130593
0.00154469
0.00156365
0.00134933
0.00116997
0.000720253
0.000708924
0.000429698
0.000501854
0.000544998
0.000483424
0.000539546
0.000500105
0.000529665
0.000535249
0.000495334
0.000492543
0.000494436
0.000490667
0.000481914
0.000471254
0.000458292
0.000448226
0.000443001
0.000439277
0.000430607
0.000356475
0.000332831
0.000402047
0.000643214
0.000643694
0.000602455
0.000566372
0.000535246
0.000520602
0.000516132
0.000512995
0.000521899
0.000538758
0.000543524
0.000548342
0.000590741
0.000572153
0.000611106
0.000573576
0.000612761
0.000575096
0.000529043
0.00044421
0.000458291
0.000739341
0.00074721
0.00120711
0.00138069
0.00156541
0.00157327
0.00175611
0.00184954
0.00156655
0.00162634
0.00186349
0.00173541
0.00154682
0.00155306
0.00139701
0.00139859
0.00123917
0.000774526
0.000764029
0.000479823
0.000466011
0.000555676
0.000545982
0.000607212
0.000649889
0.000650087
0.000647986
0.000631893
0.000626059
0.000550614
0.000539769
0.00054051
0.000524238
0.000521051
0.000544284
0.000595821
0.000700885
0.000848169
0.000922688
0.000953297
0.000913464
0.000817243
0.000605129
0.000545328
0.000946735
0.00098049
0.00176937
0.00419837
0.00197456
0.00371478
0.00268018
0.000664675
0.000740734
0.000944535
0.00105836
0.0011431
0.00119275
0.00109164
0.000911857
0.000686626
0.000566752
0.000843748
0.000729483
0.000822816
0.000718469
0.000929814
0.00107492
0.0010397
0.00104735
0.000884971
0.000720749
0.000763323
0.000685113
0.000755145
0.000632232
0.000760667
0.000686656
0.000862826
0.000870894
0.000852736
0.000808243
0.000615376
0.000645653
0.000541616
0.000587568
0.000527592
0.000545312
0.000516736
0.000602553
0.000694345
0.000666406
0.000663813
0.000545435
0.000427435
0.000472133
0.000408359
0.000462224
0.00035932
0.000435275
0.000364978
0.000472561
0.000487368
0.000490482
0.000488225
0.000398024
0.000467994
0.000571891
0.000599589
0.000604099
0.000575194
0.000443384
0.000686036
0.000618852
0.000755529
0.000653315
0.00071526
0.000651271
0.000759066
0.000972178
0.00101506
0.00102182
0.000829072
0.000823981
0.00150387
0.0834592
0.00135279
0.00159899
0.00164891
0.001643
0.00135831
0.00132502
0.00164132
0.00121393
0.0017194
0.00108261
0.00183418
0.000699302
0.00106311
0.00114142