/*--------------------------------*- C++ -*----------------------------------*\
| =========                 |                                                 |
| \\      /  F ield         | OpenFOAM: The Open Source CFD Toolbox           |
|  \\    /   O peration     | Version:  v2012                                 |
|   \\  /    A nd           | Website:  www.openfoam.com                      |
|    \\/     M anipulation  |                                                 |
\*---------------------------------------------------------------------------*/
FoamFile
{
    version     2.0;
    format      ascii;
    class       volVectorField;
    location    "190";
    object      U;
}
// * * * * * * * * * * * * * * * * * * * * * * * * * * * * * * * * * * * * * //

dimensions      [0 1 -1 0 0 0 0];


internalField   nonuniform List<vector> 
22960
(
(-0.183277 -0.385419 0.26133)
(-0.0493146 -0.453963 0.273185)
(-0.0980993 -0.466044 0.121807)
(-0.133776 -0.277164 0.0657875)
(0.188254 -0.168785 0.072873)
(0.0421936 -0.390041 0.105358)
(0.0688728 -0.142641 0.114092)
(0.0823741 -0.217045 0.129279)
(0.202344 -0.168015 0.0699697)
(0.230424 -0.141164 0.0577408)
(0.27844 -0.11393 0.0528303)
(0.242288 -0.100694 0.0974115)
(0.197694 -0.0743428 0.0551423)
(0.150592 -0.0748158 0.0493639)
(0.190378 -0.0624323 0.0367107)
(0.211865 -0.0415367 0.0684784)
(0.193501 -0.0147609 0.13179)
(0.0914896 0.00115224 0.245788)
(-0.187039 -0.0972394 0.25221)
(-0.299946 -0.226468 0.19314)
(-0.191974 -0.311035 0.210164)
(-0.068251 0.0595901 0.189664)
(-0.638825 -0.297214 0.181882)
(-0.731552 -0.153153 0.245552)
(-0.818402 0.307303 0.219796)
(-0.703141 0.605338 0.113142)
(-0.762903 0.231994 0.0828242)
(-0.996623 0.124179 0.0415799)
(-1.25102 0.0511864 0.034639)
(-1.39152 0.0140863 0.0153385)
(-1.469 -0.00984708 0.00453434)
(-1.49913 -0.0284673 0.00163325)
(-1.49491 -0.0482593 0.00213022)
(-1.46278 -0.0762446 0.00609402)
(-1.39143 -0.117217 0.0194555)
(-1.26433 -0.179183 0.041644)
(-1.04474 -0.261074 0.0677441)
(-0.719598 -0.34313 0.0732684)
(-0.365285 -0.443871 0.00331721)
(-0.249996 -0.822199 -0.042221)
(-0.185949 -1.21093 -0.0661159)
(-0.136845 -1.42762 -0.0822963)
(-0.100317 -1.56076 -0.0958652)
(-0.0744011 -1.59998 -0.114317)
(-0.0502329 -1.55592 -0.137948)
(-0.0246693 -1.43214 -0.165311)
(0.00297734 -1.22082 -0.192732)
(0.0377065 -0.882706 -0.211792)
(0.0462395 -0.549266 -0.161776)
(0.24212 -0.260956 -0.140221)
(0.299565 0.573353 -0.166362)
(0.200306 1.01839 -0.0906655)
(0.143464 1.30555 -0.0574497)
(0.104013 1.47077 -0.0346634)
(0.0650096 1.55847 -0.0218808)
(0.0214453 1.57875 -0.0148807)
(0.0200988 1.53132 -0.016388)
(0.00826692 1.50245 -0.00242076)
(-0.0145663 1.43633 0.00267082)
(-0.0407629 1.29338 0.00786509)
(-0.0680122 1.06881 0.0185787)
(-0.117892 0.818588 0.029733)
(-0.0218062 0.300523 0.00577239)
(-0.492927 0.0552032 0.0171942)
(-0.323844 0.327329 0.0662477)
(0.252401 -0.576137 -0.118018)
(-0.189237 0.227626 -0.0228919)
(-0.426108 0.215997 0.0186623)
(-0.707248 0.175162 -0.0049944)
(-0.971349 0.136065 -0.00986744)
(-1.17332 0.156355 0.0287506)
(-1.30726 0.167446 0.0374585)
(-1.42957 0.127248 0.0144534)
(-1.51937 0.0892889 -0.00209377)
(-1.5691 0.0576726 -0.00728681)
(-1.58483 0.0335804 -0.00476979)
(-1.56141 0.0132524 0.00218084)
(-1.4886 -0.0114807 0.0126545)
(-1.35242 -0.0525193 0.028859)
(-1.08748 -0.122131 0.0263659)
(-0.846432 -0.253497 0.0587845)
(-0.876647 -0.673023 0.0707778)
(-1.17683 -0.408378 0.0720679)
(-1.00901 -0.16949 0.198548)
(-0.866446 0.0174025 0.173948)
(0.326884 -0.21033 0.0563221)
(-0.230786 0.41416 0.151689)
(-0.162894 0.228844 0.197375)
(-0.107848 0.153231 0.22395)
(0.0487445 0.200078 0.212594)
(-0.0927872 0.330107 0.226469)
(-0.236037 0.381657 0.259532)
(-0.402531 0.394416 0.279818)
(-0.540955 0.367103 0.291636)
(-0.608788 0.288685 0.290488)
(-0.63801 0.243119 0.277017)
(-0.610221 0.204757 0.165437)
(-0.565841 0.172624 0.148608)
(-0.48333 0.135757 0.150966)
(-0.338338 0.103347 0.133778)
(-0.204385 0.0614569 0.12225)
(-0.174332 -0.208206 0.101405)
(-0.241521 -0.0417937 0.127108)
(-0.114537 0.0125562 0.134277)
(-0.176018 -0.146888 0.105252)
(-0.118412 -0.137906 0.0997665)
(-0.108456 -0.115738 0.0958006)
(-0.0896182 -0.109925 0.079066)
(-0.0922645 -0.124114 0.177196)
(-0.140311 -0.0272431 0.205562)
(-0.176226 0.157278 0.226238)
(-0.243963 0.114997 0.243268)
(-0.238174 0.114138 0.251909)
(-0.233218 0.129623 0.254476)
(-0.244414 0.147457 0.242451)
(-0.250037 0.112757 0.239801)
(-0.266812 0.110248 0.235764)
(-0.342869 0.0241773 0.264284)
(-0.351926 -0.0565502 0.30288)
(-0.323938 -0.0631777 0.330806)
(-0.335242 -0.0260361 0.351115)
(-0.377747 -0.0304244 0.33165)
(-0.417789 -0.120453 0.315867)
(-0.36121 -0.239089 0.285359)
(-0.267543 -0.259611 0.291213)
(-0.190014 -0.311025 0.262536)
(-0.165339 -0.388753 0.137478)
(-0.161608 -0.44088 0.125566)
(-0.14144 -0.462232 0.11595)
(-0.131915 -0.465985 0.281518)
(-0.153774 -0.439845 0.271343)
(-0.158244 -0.377296 0.192017)
(-0.182478 -0.298223 0.307519)
(-0.121788 -0.301653 0.527097)
(-0.183675 -0.230003 0.485236)
(-0.232589 -0.180047 0.569281)
(-0.271447 0.0610031 0.566892)
(-0.201334 0.207011 0.575976)
(-0.127566 0.238139 0.602229)
(-0.0930158 0.173894 0.577988)
(-0.110152 0.107161 0.537539)
(-0.114996 0.0933029 0.471569)
(-0.0682469 0.100772 0.40409)
(-0.04612 0.04323 0.397595)
(-0.0402004 0.0113398 0.400008)
(-0.0462508 -0.0853973 0.417596)
(-0.0632858 -0.143444 0.392846)
(-0.0840702 -0.126178 0.390527)
(-0.0597869 -0.0502822 0.430245)
(-0.074407 -0.148683 0.349917)
(-0.0426208 -0.257016 0.371352)
(-0.103277 -0.185589 0.223824)
(-0.0948199 -0.162254 0.170003)
(-0.10264 -0.147366 0.236668)
(-0.109762 -0.167365 0.245873)
(-0.167045 -0.165967 0.242006)
(-0.0705135 0.00165576 0.259552)
(-0.239138 -0.0570599 0.240539)
(-0.172872 -0.21176 0.255283)
(-0.198968 0.0716651 0.319907)
(-0.177586 0.0592994 0.537806)
(-0.160509 0.0472867 0.710258)
(-0.156412 0.0340987 0.857191)
(-0.161571 -0.0222093 0.954676)
(-0.162545 -0.0678734 1.00563)
(-0.131107 -0.0816631 1.0192)
(-0.0887601 -0.0132194 0.958794)
(-0.0537294 -0.0208793 0.884102)
(-0.0313895 -0.0312284 0.778166)
(-0.0059057 -0.0341861 0.631942)
(0.0264203 -0.031357 0.430816)
(0.0908833 -0.0455911 0.248483)
(0.0627839 -0.313471 0.224823)
(-0.0218408 -0.182807 0.200878)
(0.14682 -0.212674 0.134936)
(0.104787 -0.407499 0.111898)
(0.102869 -0.469264 0.11346)
(0.106168 -0.57633 0.110457)
(0.0975868 -0.642297 0.100069)
(0.0838087 -0.694302 0.152697)
(0.129459 -0.737942 0.183844)
(0.152004 -0.76127 0.214411)
(0.170534 -0.782543 0.208636)
(0.177621 -0.766737 0.193387)
(0.178423 -0.718619 0.167966)
(0.171419 -0.622773 0.128251)
(0.163686 -0.497499 0.0346279)
(0.155547 -0.0685336 -0.0835941)
(0.198208 0.394838 0.0482242)
(0.217557 0.475506 0.197389)
(0.226253 0.554207 0.241964)
(0.228201 0.572418 0.269916)
(0.221049 0.563235 0.291958)
(0.213309 0.5229 0.305745)
(0.198089 0.434818 0.303049)
(0.168812 0.388946 0.237329)
(0.121694 0.354032 0.211077)
(0.129106 0.322574 0.137887)
(0.128151 0.269928 0.158146)
(0.120401 0.186381 0.167859)
(0.118077 0.0713937 0.157094)
(0.0536341 0.0348292 0.0777979)
(0.178946 0.0616921 0.0994751)
(0.140383 0.0346041 0.135944)
(0.147355 0.0531132 0.202121)
(0.277961 0.0659359 0.174899)
(0.43321 0.0816645 0.163209)
(0.546923 0.0921125 0.154726)
(0.639927 0.101385 0.147611)
(0.715763 0.107713 0.141436)
(0.779675 0.111748 0.131951)
(0.843969 0.117471 0.107227)
(0.89585 0.101113 0.0825147)
(0.965159 0.0634506 0.0827752)
(1.04135 0.041911 0.0814388)
(1.13225 0.0244317 0.07477)
(1.24436 0.00633849 0.0558945)
(1.33817 -0.0143709 0.0182444)
(1.38254 -0.0334651 -0.0261097)
(1.37189 -0.0496108 -0.0639873)
(1.32427 -0.0592067 -0.0875157)
(1.2643 -0.0647147 -0.0985527)
(1.20781 -0.0664641 -0.102306)
(1.15862 -0.0668241 -0.102096)
(1.11692 -0.0656368 -0.0992127)
(1.08123 -0.0647792 -0.0951892)
(1.04976 -0.060141 -0.0895469)
(1.03046 -0.049962 -0.0883968)
(1.00804 -0.0419514 -0.090807)
(0.915506 -0.039699 -0.0677714)
(0.847215 -0.0330473 -0.0458036)
(0.821933 -0.0276138 -0.038834)
(0.794487 -0.0232539 -0.0352341)
(0.761596 -0.0201902 -0.034032)
(0.718227 -0.0151866 -0.0378289)
(0.685924 -0.0147961 -0.0401897)
(0.645688 -0.0138657 -0.0450546)
(0.578914 -0.00676602 -0.0479817)
(0.489843 0.00113541 -0.0475732)
(0.373175 0.0182878 -0.0451846)
(0.227454 0.0293796 -0.0464289)
(0.097235 0.0370809 -0.0499784)
(0.0576594 0.0597364 -0.0561627)
(0.0376346 0.083705 -0.0348802)
(0.0443088 0.142266 -0.0270642)
(0.0515389 0.167727 -0.0303248)
(0.0618786 0.288435 -0.0334574)
(0.119267 0.273699 -0.0323984)
(0.185618 0.76911 -0.00459033)
(0.755733 0.251333 -0.107925)
(0.96963 -0.148797 -0.13758)
(1.47867 -0.333297 -0.19642)
(2.0306 -0.421098 -0.292036)
(2.47079 -0.41914 -0.376723)
(2.71787 -0.368041 -0.433912)
(2.66029 -0.364654 -0.465485)
(2.43186 -0.340207 -0.449276)
(1.99282 -0.180985 -0.420224)
(1.04721 0.172486 -0.41009)
(-0.464861 1.12892 0.167667)
(-1.73361 1.94012 0.019659)
(-0.696089 2.91429 0.0134542)
(-0.413364 1.35533 -0.0264065)
(-0.27852 1.04336 -0.0574015)
(-0.227816 0.693387 -0.0682281)
(-0.196731 0.474388 -0.067901)
(-0.147756 0.268073 -0.100315)
(-0.175272 0.178555 -0.146077)
(-0.274066 0.13857 -0.0956212)
(-0.146549 0.18019 -0.120768)
(-0.0657499 0.191223 -0.0819204)
(0.00854516 0.187203 0.0346946)
(-0.0193265 0.172828 0.177561)
(-0.0499919 0.158636 0.273692)
(-0.0637182 0.14921 0.345828)
(-0.0855065 0.143167 0.379914)
(-0.0849309 0.139019 0.396245)
(-0.100083 0.136796 0.396349)
(-0.092961 0.136082 0.388456)
(-0.10433 0.135764 0.376202)
(-0.0911667 0.135457 0.361244)
(-0.0977706 0.134452 0.347393)
(-0.0782059 0.131887 0.338207)
(-0.0848405 0.13074 0.343475)
(-0.0831791 0.122957 0.354357)
(-0.103925 0.150881 0.373496)
(-0.0931751 0.169759 0.383484)
(-0.119624 0.169046 0.378387)
(-0.195944 0.188844 0.371524)
(-0.2889 0.267659 0.334086)
(-0.418086 0.246338 0.282142)
(-0.522641 0.246686 0.316581)
(-0.560966 0.336974 0.316238)
(-0.666407 0.234597 0.201353)
(-0.703704 0.233138 0.172994)
(-0.911147 0.129866 0.0963343)
(-0.866189 0.126156 0.171504)
(-0.770826 0.160137 0.24794)
(-0.694211 0.178005 0.259158)
(-0.591252 0.172941 0.299518)
(-0.447274 0.155516 0.308521)
(-0.382586 0.119149 0.306776)
(-0.266715 0.113754 0.326632)
(-0.189985 0.126685 0.335248)
(-0.181475 0.134092 0.335443)
(-0.151019 0.140688 0.352174)
(-0.157682 0.138301 0.358732)
(-0.261701 0.123479 0.340464)
(-0.305683 0.121487 0.31596)
(-0.398605 0.106869 0.315436)
(-0.433916 0.0982482 0.336387)
(-0.235142 0.108702 0.355936)
(-0.253141 0.109966 0.342973)
(-0.241516 0.112258 0.357106)
(-0.285689 0.110775 0.371721)
(-0.25578 0.115198 0.385036)
(-0.286749 0.113488 0.393685)
(-0.248574 0.118534 0.396439)
(-0.27281 0.11821 0.393187)
(-0.22761 0.12745 0.380219)
(-0.242398 0.131185 0.35287)
(-0.188072 0.145187 0.308427)
(-0.189428 0.153171 0.244872)
(-0.168753 0.170916 0.169927)
(-0.190663 0.177601 0.121614)
(-0.248608 0.183412 0.0726221)
(-0.306412 0.183474 0.0264125)
(-0.497099 0.167543 -0.00896701)
(-0.709142 0.135111 0.0158526)
(-0.863403 0.0918794 0.0177591)
(-0.985706 0.0660384 0.0142626)
(-1.08626 0.0687003 0.0100727)
(-1.14718 0.0838044 0.0109915)
(-1.1769 0.0803484 0.0145738)
(-1.223 0.066218 0.00908617)
(-1.24286 0.0714557 -0.0145251)
(-1.25165 0.0668382 -0.0381106)
(-1.3209 0.0421554 -0.0318156)
(-1.42688 0.00509797 -0.0274695)
(-1.46679 -0.00448674 -0.0217831)
(-1.53698 -0.0105078 -0.0308447)
(-1.57057 0.00475439 -0.0119417)
(-1.61238 0.00748269 -0.007609)
(-1.65692 0.00515531 -0.00235246)
(-1.67332 0.00785509 0.0143314)
(-1.657 0.0135538 0.0337472)
(-1.61495 0.0214529 0.0521866)
(-1.5619 0.032883 0.0672683)
(-1.51471 0.0437608 0.0810556)
(-1.47489 0.0531714 0.0942375)
(-1.4326 0.0650606 0.111473)
(-1.37691 0.0778965 0.128522)
(-1.31174 0.0867376 0.137023)
(-1.25627 0.089248 0.127726)
(-1.21839 0.0890693 0.120896)
(-1.19669 0.0897838 0.118303)
(-1.17112 0.106032 0.116937)
(-1.12753 0.149645 0.113994)
(-1.07274 0.159234 0.13789)
(-0.939527 0.144705 0.178681)
(-0.804837 0.119091 0.241085)
(-0.709126 0.0849166 0.284346)
(-0.471215 0.0342639 0.335204)
(-0.251403 -0.0328402 0.367849)
(-0.267246 -0.217816 0.554165)
(-0.267721 -0.290287 0.698153)
(-0.261021 -0.341886 0.686763)
(-0.245391 -0.384914 0.586252)
(-0.237124 -0.41675 0.399108)
(-0.257889 -0.436985 0.199679)
(-0.092698 -0.80787 0.108828)
(-0.0648284 -0.764071 0.304941)
(-0.0797985 -0.69331 0.495775)
(-0.112709 -0.602958 0.591459)
(-0.146511 -0.499192 0.589339)
(-0.193499 -0.359849 0.431658)
(-0.248461 -0.071724 0.212532)
(-0.267541 -0.265729 0.209492)
(-0.275552 -0.363856 0.25875)
(-0.283062 -0.448901 0.310908)
(-0.292224 -0.461614 0.368043)
(-0.304272 -0.417999 0.423405)
(-0.316966 -0.324721 0.478823)
(-0.307951 -0.188128 0.535172)
(-0.259617 0.0470111 0.522931)
(-0.269675 0.187884 0.362785)
(-0.339256 0.0442189 0.39081)
(-0.356452 0.0687326 0.498069)
(-0.365018 0.152836 0.518363)
(-0.35375 0.245799 0.499431)
(-0.336995 0.326245 0.460741)
(-0.324513 0.397642 0.412182)
(-0.323245 0.415083 0.31406)
(-0.29216 0.349099 0.252728)
(-0.18548 0.235639 0.164294)
(-0.165262 0.176323 0.129749)
(-0.153443 0.157041 0.0993088)
(-0.139347 0.018486 0.0852658)
(-0.158712 -0.0186427 0.109127)
(-0.0480068 -0.133796 0.13218)
(-0.270628 -0.0511847 0.235996)
(-0.222513 -0.0379252 0.156255)
(-0.225645 -0.113411 0.331702)
(-0.405661 -0.125828 0.299934)
(-0.647732 -0.154959 0.279207)
(-0.83657 -0.170919 0.254128)
(-0.998101 -0.174828 0.212741)
(-1.14878 -0.144634 0.27911)
(-1.29627 -0.136365 0.320666)
(-1.41221 -0.148667 0.312302)
(-1.5093 -0.159233 0.296882)
(-1.57549 -0.164953 0.279415)
(-1.61636 -0.167604 0.261616)
(-1.62953 -0.169904 0.240654)
(-1.62307 -0.176518 0.205314)
(-1.60294 -0.171579 0.18138)
(-1.59103 -0.171912 0.135288)
(-1.56687 -0.182844 0.100905)
(-1.53229 -0.181306 0.0831458)
(-1.43346 -0.138544 0.0795592)
(-1.2883 -0.121199 0.0754481)
(-1.12221 -0.152171 0.0710953)
(-0.920084 -0.204423 0.0593651)
(-0.641568 -0.23596 0.0171443)
(-0.354013 -0.193653 -0.101923)
(-0.172481 -0.238558 -0.149829)
(-0.101042 -0.253262 -0.0671809)
(-0.111331 -0.238337 0.0129696)
(-0.10753 -0.228185 0.0676389)
(-0.119589 -0.20836 0.120849)
(-0.107268 -0.197539 0.146532)
(-0.125061 -0.184909 0.167145)
(-0.1124 -0.177973 0.164227)
(-0.130103 -0.170098 0.162105)
(-0.11484 -0.168207 0.143158)
(-0.130666 -0.164743 0.134998)
(-0.112027 -0.163853 0.113791)
(-0.116846 -0.161116 0.113572)
(-0.0952984 -0.155996 0.107436)
(-0.103399 -0.152645 0.121808)
(-0.0941983 -0.127125 0.129139)
(-0.115727 -0.17589 0.108844)
(-0.114826 -0.191208 0.0566149)
(-0.0897651 -0.175689 0.101158)
(-0.14945 -0.188942 0.176354)
(-0.264568 -0.301968 0.196825)
(-0.427226 -0.268664 0.195546)
(-0.549641 -0.259249 0.268234)
(-0.594517 -0.362193 0.296183)
(-0.720736 -0.250425 0.203966)
(-0.769167 -0.237898 0.17092)
(-0.802231 -0.691466 0.208016)
(-0.782975 -0.6917 0.241494)
(-0.669835 -0.718465 0.380875)
(-0.569707 -0.455169 0.380912)
(-0.580222 -0.868452 0.242728)
(-0.790989 -1.17675 0.585705)
(-0.747442 -0.83999 0.426537)
(-1.10851 -0.547992 0.46049)
(-1.18459 -0.409001 0.37075)
(-1.18623 -0.441009 0.269795)
(-1.00892 -0.191156 0.354279)
(-0.765916 -0.276344 0.385601)
(-0.20115 -0.349677 0.348962)
(-0.398225 -0.680247 0.533393)
(-0.802801 -0.751151 0.503476)
(-1.30398 -0.879293 0.626076)
(-1.14752 -0.76747 0.422624)
(-0.605158 -1.01363 0.283933)
(-0.49212 -0.933334 0.369297)
(-0.345866 -0.776147 0.310482)
(-0.558204 -1.48407 0.209574)
(-1.16256 -1.407 -0.227831)
(-1.09993 -0.836201 0.212479)
(-0.877507 -0.603722 0.376998)
(-1.19227 -0.77335 0.165462)
(-1.09765 -0.932564 0.361108)
(-1.07007 -0.633595 0.357894)
(-1.16201 -0.63962 0.230141)
(-1.39874 -0.22592 0.409107)
(-1.31368 -0.25778 0.290376)
(-1.21156 -0.441626 0.0699379)
(-1.11798 -0.378517 0.261945)
(-1.1829 -0.347057 0.309297)
(-1.10233 -0.434949 0.22073)
(-0.999201 -0.591462 0.227003)
(-1.11341 -0.649291 0.254432)
(-1.21233 -0.507929 0.328226)
(-1.29529 -0.540072 0.402586)
(-1.10009 -0.872894 0.276613)
(-0.937622 -1.04271 0.287635)
(-1.05213 -0.997478 0.313624)
(-1.35552 -0.87992 0.223256)
(-0.869691 -0.936243 0.238423)
(-0.903212 -0.918789 0.215202)
(-0.944724 -0.904479 0.214307)
(-1.01539 -0.923384 0.241434)
(-1.00651 -0.914334 0.236593)
(-0.966233 -0.935602 0.275568)
(-0.892116 -0.910056 0.327859)
(-0.949 -0.981798 0.435608)
(-0.992298 -1.02053 0.498528)
(-1.14082 -1.1493 0.570499)
(-1.26843 -1.24493 0.574785)
(-1.56963 -1.41591 0.495609)
(-1.67573 -1.49835 0.379982)
(-1.72871 -1.5808 0.259351)
(-1.73072 -1.657 0.18829)
(-1.74435 -1.87934 0.0888922)
(-1.77949 -1.90643 0.0452778)
(-1.85441 -2.68294 0.00253394)
(-2.87428 -0.447166 -0.61663)
(-2.26889 -0.713604 -0.188948)
(-1.94794 -0.745299 -0.171255)
(-1.47499 -0.571237 -0.0979201)
(-1.35372 -0.222883 -0.140152)
(-0.161507 0.297145 -0.389677)
(1.00994 0.510133 -0.458968)
(1.25466 0.768798 -0.506297)
(1.4152 0.955232 -0.61305)
(1.38649 0.905684 -0.557844)
(1.30961 0.674972 -0.348162)
(1.19954 0.233702 -0.232839)
(0.526406 -0.854553 -0.000866656)
(0.362639 -0.521343 -0.0100148)
(0.169042 -0.33586 -0.0162096)
(0.158148 -0.401581 -0.0580317)
(0.174151 -0.323812 -0.00936447)
(0.33896 -0.207665 0.0131122)
(0.0215193 0.189328 -0.070679)
(0.0668771 0.275705 -0.183244)
(0.325033 0.157536 -0.219972)
(0.247462 -0.0105283 -0.323117)
(0.433056 -0.226401 -0.0677493)
(0.490846 -0.371241 0.0766064)
(0.503304 -0.406826 0.14701)
(0.470863 -0.428699 0.165219)
(0.4326 -0.436975 0.162766)
(0.383547 -0.429207 0.130517)
(0.428145 -0.494054 0.108456)
(0.455691 -0.579393 0.0854298)
(0.477921 -0.65857 0.0773452)
(0.503517 -0.713861 0.0629568)
(0.518714 -0.747373 0.0542483)
(0.500831 -0.755167 0.0554506)
(0.452784 -0.760926 0.0703412)
(0.377934 -0.74664 0.0949848)
(0.28388 -0.735761 0.104487)
(0.202197 -0.713662 0.123375)
(0.158855 -0.682923 0.0892436)
(0.174501 -0.658832 0.0714259)
(0.165577 -0.600433 0.0685188)
(0.123473 -0.50638 0.0760503)
(0.0651601 -0.431231 0.0962654)
(0.0438237 -0.250285 0.160666)
(0.217484 -0.411857 0.162194)
(0.212964 -0.274645 0.175389)
(0.191842 -0.0998372 0.181928)
(0.264026 -0.128438 0.150761)
(0.318261 -0.144356 0.137991)
(0.376737 -0.150585 0.116002)
(0.34266 -0.185188 0.178055)
(0.279463 -0.192804 0.242874)
(0.32938 -0.201699 0.304433)
(0.391392 -0.202131 0.31551)
(0.456398 -0.196047 0.301741)
(0.494474 -0.185018 0.250503)
(0.507946 -0.136542 0.162402)
(0.588156 -0.0670729 0.0298113)
(0.692681 -0.0676496 0.0236893)
(0.76635 -0.0357115 -0.00949025)
(0.927296 -0.0561281 -0.0104287)
(0.971719 -0.0398027 0.00997245)
(0.915109 -0.0291758 0.0103398)
(0.815773 -0.0403258 0.0101335)
(0.689659 -0.0604087 0.0128522)
(0.534339 -0.0901254 0.0105243)
(0.346785 -0.125978 -0.00184732)
(0.163867 -0.121959 -0.0177455)
(0.0927692 -0.1754 -0.0346555)
(0.0684977 -0.255474 -0.0197443)
(0.0776228 -0.370109 -0.0121639)
(0.0856564 -0.504414 -0.0138916)
(0.0816024 -0.663779 -0.0120627)
(0.113354 -0.732535 -0.0066995)
(0.23786 -1.31934 0.0162654)
(1.24259 -0.567301 -0.0235676)
(1.73151 0.0614711 -0.0467553)
(2.43107 0.269692 -0.114127)
(3.08135 0.325976 -0.2056)
(3.50677 0.287317 -0.284202)
(3.64618 0.254119 -0.359362)
(3.35658 0.293041 -0.421207)
(3.0783 0.247581 -0.414203)
(2.25154 0.0104351 -0.343222)
(1.01618 -0.330326 -0.314073)
(-0.638853 -1.43715 0.244409)
(-2.16756 -2.51901 0.0300762)
(-0.910797 -3.67948 0.00376279)
(-0.535448 -1.77918 -0.0409031)
(-0.368178 -1.33695 -0.0805072)
(-0.301783 -0.902747 -0.0930328)
(-0.258772 -0.619662 -0.0904682)
(-0.190665 -0.35557 -0.130996)
(-0.223322 -0.237139 -0.179831)
(-0.443143 -0.326583 -0.00296603)
(-0.564224 -0.291312 0.00649812)
(-0.899148 -0.518157 0.0170756)
(-0.886687 -0.579744 0.0416358)
(-1.08551 -0.877966 0.0457986)
(-1.18916 -0.988921 0.0515014)
(-1.52229 -1.30238 0.0608867)
(-1.67571 -1.33466 0.0820058)
(-1.91446 -1.6446 0.120835)
(-2.4879 -2.24019 0.0101134)
(-3.18773 -1.52544 -0.156393)
(-3.28416 -1.25379 0.0564919)
(-3.28754 -0.916306 0.0370024)
(-3.16953 -0.571043 -0.0206867)
(-3.07191 -0.273027 -0.108762)
(-2.82384 -0.0826181 -0.183178)
(-2.14998 0.241303 -0.302655)
(-1.38666 0.772155 -0.57891)
(-0.697053 1.18062 -0.915375)
(-0.185331 1.24271 -0.983695)
(0.36921 0.887555 -0.602655)
(0.795916 0.233623 -0.337452)
(0.750271 -0.499801 -0.118868)
(0.292159 -0.270326 -0.0747588)
(-0.471628 0.263077 -0.267396)
(-0.620854 0.0120807 -0.247907)
(-0.497149 -0.133954 -0.115603)
(-0.975596 0.202624 -0.0947454)
(-0.827703 0.258074 -0.0950089)
(-0.66592 0.294375 -0.117047)
(-0.40446 0.215384 -0.247364)
(-0.708168 0.24124 -0.174878)
(-0.425513 0.121867 -0.359909)
(0.220396 -0.248754 -0.289021)
(0.426203 -0.491181 -0.0520902)
(0.530451 -0.549612 0.0461104)
(0.529495 -0.581349 0.0774461)
(0.507588 -0.60212 0.0902431)
(0.464186 -0.610037 0.0831092)
(0.53979 -0.727845 0.0529028)
(0.573533 -0.708731 0.048493)
(0.583611 -0.683838 0.0321895)
(0.543443 -0.656082 0.00326494)
(0.408688 -0.59188 -0.119091)
(-0.019159 -0.253209 -0.304129)
(-0.635611 0.171279 -0.251929)
(-1.00501 0.332099 -0.149154)
(-0.86803 0.336805 -0.166315)
(-1.101 0.41192 -0.0723603)
(-1.00858 0.37622 -0.0980749)
(-1.12731 0.412181 -0.0716335)
(-1.29348 0.455883 -0.0775953)
(-1.38984 0.541378 -0.0726129)
(-1.25235 0.397459 -0.0900199)
(-1.22631 0.532154 -0.144095)
(-1.30897 0.749112 -0.196521)
(-1.47431 1.12327 -0.313186)
(-1.14261 0.976192 -0.441354)
(-0.416855 0.860893 -0.49001)
(-0.733268 1.17362 -0.814083)
(-1.34606 1.37336 -1.17589)
(-2.08732 1.34203 -1.29701)
(-2.99413 1.06647 -1.11727)
(-3.77407 0.692141 -0.928437)
(-4.24827 0.230637 -0.618016)
(-4.36656 -0.11072 -0.335485)
(-4.30822 -0.40873 -0.114747)
(-4.12611 -0.730504 0.0280274)
(-3.85697 -0.986856 0.0783695)
(-3.34393 -1.16442 0.0879299)
(-2.77984 -1.38196 0.0671453)
(-3.36944 -1.18655 0.0675298)
(-3.92419 -0.885919 0.0680496)
(-4.29754 -0.555633 0.00129024)
(-4.60089 -0.17307 -0.143321)
(-4.71719 0.240101 -0.363595)
(-4.57371 0.670927 -0.610427)
(-4.161 1.11179 -0.845292)
(-3.50014 1.43053 -1.03154)
(-2.73901 1.5282 -1.09565)
(-2.05872 1.49336 -0.97704)
(-1.49793 1.28595 -0.7044)
(-1.81574 1.41425 -0.485336)
(-2.28524 1.63157 -0.663527)
(-2.85945 1.75087 -0.847089)
(-3.48234 1.70787 -0.799134)
(-4.03458 1.49918 -0.68628)
(-4.40897 1.1217 -0.51267)
(-4.58173 0.673641 -0.295702)
(-4.47622 0.182054 -0.0639492)
(-4.17738 -0.26101 0.124632)
(-3.79775 -0.616657 0.101748)
(-3.32394 -0.884659 0.0934095)
(-2.84891 -0.994844 0.0931934)
(-3.20086 -0.827954 0.0856934)
(-3.55455 -0.528072 0.0855827)
(-3.84003 -0.222823 0.0711287)
(-3.9619 0.171421 -0.0256594)
(-4.07233 0.615042 -0.19598)
(-3.91518 1.02155 -0.35744)
(-3.75994 1.39992 -0.497325)
(-3.35427 1.53172 -0.533238)
(-2.94157 1.6241 -0.577387)
(-2.50853 1.49736 -0.462808)
(-2.06265 1.36505 -0.346919)
(-1.79609 1.17285 -0.226788)
(-1.98703 1.08326 -0.241292)
(-1.63378 0.875024 -0.149475)
(-1.48534 0.698397 -0.118448)
(-1.62948 0.735046 -0.138153)
(-1.5064 0.618706 -0.0964684)
(-1.57795 0.614791 -0.0994422)
(-1.44571 0.496285 -0.0729445)
(-1.23475 0.450173 -0.048613)
(-1.34593 0.403545 -0.0388834)
(-1.20459 0.391275 -0.0598045)
(-1.13607 0.429545 -0.0789383)
(-0.967831 0.398095 -0.127466)
(-0.985232 0.419923 -0.050363)
(-1.16018 0.445052 -0.0791753)
(-1.27381 0.448564 -0.0620153)
(-1.48814 0.426342 -0.105741)
(-1.55481 0.394366 -0.0764793)
(-1.74814 0.380253 -0.0551807)
(-1.67552 0.521099 -0.0596647)
(-1.76498 0.587361 -0.100358)
(-1.70874 0.708247 -0.142753)
(-1.89571 0.765339 -0.175314)
(-1.81807 0.848784 -0.180574)
(-2.13494 0.964532 -0.254753)
(-2.59333 0.973242 -0.314029)
(-2.6526 1.20104 -0.361052)
(-3.3187 1.04098 -0.30893)
(-3.68867 0.603226 -0.188042)
(-3.63643 0.0321189 -0.0224086)
(-3.23484 -0.44221 0.0842809)
(-2.72935 -0.707546 0.1123)
(-2.31669 -0.748779 0.0874055)
(-2.24482 -0.905298 0.0911935)
(-2.07498 -1.10667 0.0801065)
(-1.61715 -1.07737 0.0668942)
(-1.2246 -0.82996 0.0614278)
(-0.955452 -0.472341 0.0645836)
(-1.20246 -0.363957 0.066808)
(-1.31708 -0.284628 0.0677089)
(-1.41034 -0.185877 0.0723005)
(-1.47558 -0.216856 0.0759287)
(-1.5285 -0.516344 0.0615116)
(-1.53131 -0.716638 0.0616468)
(-1.39524 -0.629898 0.058812)
(-1.21079 -0.649413 0.142964)
(-1.02008 -0.369487 0.135549)
(-0.961842 -0.138041 0.141469)
(-0.938664 -0.141068 0.216592)
(-0.888104 -0.124348 0.27183)
(-0.855684 -0.116254 0.295023)
(-0.831648 -0.105101 0.310781)
(-0.812273 -0.100245 0.305687)
(-0.781309 -0.0955516 0.300744)
(-0.762661 -0.0909072 0.285425)
(-0.743881 -0.0899643 0.269127)
(-0.7182 -0.0979234 0.256068)
(-0.697282 -0.133625 0.247608)
(-0.617671 -0.201351 0.243264)
(-0.733082 -0.198497 0.225798)
(-0.807128 -0.175222 0.236135)
(-0.924891 -0.136207 0.173355)
(-0.990506 -0.130926 0.09803)
(-1.23445 -0.0507484 0.0818192)
(-1.3836 0.0148127 0.0592133)
(-1.44809 0.0484337 0.0494412)
(-1.46803 0.0755102 0.0528484)
(-1.45415 0.106972 0.0690591)
(-1.3986 0.144234 0.108874)
(-1.30013 0.18026 0.165084)
(-1.15477 0.213943 0.222266)
(-0.988493 0.233162 0.188395)
(-1.0159 0.215824 0.0680236)
(-0.838906 0.206042 0.0618143)
(-0.713904 0.231938 0.0726367)
(-0.460829 0.296147 0.0840007)
(-0.0869547 0.265156 0.0176656)
(0.123229 -0.308492 -0.0417397)
(0.0262602 -0.111955 0.138856)
(0.0503469 -0.171026 0.315057)
(0.0877226 -0.243336 0.391363)
(-0.00776151 -0.155183 0.48104)
(-0.238376 0.147203 0.655845)
(-0.319007 0.225747 0.819913)
(-0.326422 0.24993 0.831886)
(-0.318737 0.21555 0.836127)
(-0.306964 0.175676 0.76483)
(-0.318844 0.160577 0.677642)
(-0.268731 0.0557428 0.523587)
(-0.450043 0.054306 0.490117)
(-0.485358 0.0907539 0.667719)
(-0.498923 0.122924 0.770434)
(-0.527299 0.152619 0.842297)
(-0.555507 0.178109 0.853138)
(-0.675859 0.195385 0.830706)
(-0.601802 0.228044 0.722427)
(-0.574915 0.271789 0.568402)
(-0.525647 0.263876 0.473878)
(-0.519224 0.29578 0.352864)
(-0.506179 0.312245 0.208976)
(-0.163095 0.262512 0.1778)
(-0.179758 0.239668 0.339358)
(-0.189798 0.218088 0.448671)
(-0.264398 0.218279 0.537149)
(-0.258028 0.441084 0.526867)
(-0.220486 0.435192 0.484912)
(-0.197715 0.559275 0.477913)
(-0.320198 0.636391 0.502362)
(-0.331774 0.516807 0.492545)
(-0.370278 0.497335 0.521841)
(-0.402446 0.663223 0.548567)
(-0.228679 0.560806 0.540971)
(-0.229574 0.563849 0.633361)
(-0.360086 0.254087 0.797757)
(-0.366722 0.410012 0.816967)
(-0.439793 0.554576 0.834949)
(-0.201902 0.700578 0.794774)
(-0.246429 0.634823 0.823762)
(-0.308219 0.483567 0.679388)
(-0.344259 0.585366 0.652552)
(-0.400279 0.572707 0.667038)
(-0.47937 0.597287 0.740046)
(-0.346256 0.645508 0.698588)
(-0.371236 0.562484 0.77835)
(-0.390857 0.475944 0.695884)
(-0.48934 0.367401 0.689612)
(-0.496288 0.472862 0.608675)
(-0.477705 0.421129 0.672691)
(-0.299363 0.618514 0.633077)
(-0.445449 0.620437 0.605585)
(-0.48459 0.649236 0.597109)
(-0.436969 0.618741 0.608965)
(-0.414654 0.541493 0.610356)
(-0.364887 0.496923 0.618494)
(-0.365967 0.575152 0.605203)
(-0.271989 0.580941 0.593335)
(-0.357627 0.644863 0.573768)
(-0.368473 0.532689 0.568944)
(-0.294283 0.482082 0.585187)
(-0.478738 0.674196 0.555007)
(-0.258459 0.84097 0.50503)
(-0.263884 0.658783 0.449079)
(-0.246161 0.623629 0.627334)
(-0.13691 0.754451 0.824597)
(0.0342664 1.11646 0.689457)
(0.110007 1.24486 0.68433)
(0.170905 1.23445 0.732108)
(0.219497 1.1727 0.769148)
(0.271534 1.05909 0.776166)
(0.316172 0.918204 0.749375)
(0.396575 0.669385 0.661504)
(0.413468 0.426762 0.450155)
(0.4874 -0.199931 0.271828)
(0.453878 -0.694155 0.460822)
(0.349494 -1.02805 0.525474)
(0.283195 -1.20489 0.565141)
(0.222543 -1.29691 0.5726)
(0.171048 -1.31508 0.552556)
(0.120415 -1.27233 0.52028)
(0.0672445 -1.16591 0.489756)
(0.00774648 -1.00141 0.476132)
(-0.0351581 -0.868243 0.58379)
(-0.084632 -0.713519 0.587352)
(-0.154367 -0.521757 0.425378)
(-0.129813 -0.605346 0.471732)
(-0.109049 -0.669617 0.537553)
(-0.0917272 -0.676836 0.615831)
(-0.0757621 -0.629844 0.693276)
(-0.0591324 -0.534066 0.764901)
(-0.0255649 -0.371561 0.821851)
(0.0564939 -0.108362 0.818804)
(0.0398355 0.214905 0.686575)
(-0.0671182 0.236104 0.722219)
(-0.097725 0.293955 0.824039)
(-0.110559 0.364847 0.844226)
(-0.107554 0.44665 0.819072)
(-0.104449 0.523561 0.765819)
(-0.109276 0.584695 0.692749)
(-0.130822 0.577898 0.582524)
(-0.148169 0.519738 0.466063)
(-0.109767 0.470395 0.405391)
(-0.110032 0.409173 0.31264)
(-0.124432 0.353496 0.246969)
(-0.122112 0.330506 0.240207)
(-0.121538 0.252084 0.228441)
(-0.149565 0.212065 0.240882)
(-0.107969 0.024182 0.244194)
(-0.260708 0.0357821 0.324533)
(-0.188106 0.068429 0.425994)
(-0.100937 0.128855 0.338067)
(-0.132166 0.339497 0.399866)
(-0.104562 0.38515 0.397576)
(-0.0967728 0.431855 0.400235)
(-0.0800204 0.575657 0.570428)
(-0.0788089 0.605726 0.61799)
(-0.0951588 0.625188 0.645873)
(-0.0378539 0.795451 0.774702)
(-0.0200012 0.829194 0.823731)
(0.0105481 0.797724 0.910595)
(0.0296555 0.732697 0.997503)
(0.0392395 0.634196 1.06012)
(0.0447233 0.534491 1.09525)
(0.0656951 0.446538 1.08268)
(0.117669 0.380579 0.949211)
(0.279371 0.249651 0.78688)
(0.287756 -0.24388 0.902287)
(0.16666 -0.565038 0.971684)
(0.0929219 -0.754553 0.95399)
(0.0521948 -0.859722 0.884492)
(0.0194302 -0.907275 0.798462)
(-0.0106816 -0.894547 0.710757)
(-0.0442083 -0.821359 0.635646)
(0.0194189 -1.00861 0.61746)
(0.0636042 -1.09926 0.672857)
(0.104169 -1.12625 0.731141)
(0.153593 -1.09872 0.780857)
(0.218322 -0.998562 0.80146)
(0.298743 -0.802385 0.766758)
(0.399719 -0.50534 0.681841)
(0.475155 0.0557329 0.426079)
(0.290308 0.46304 0.634513)
(0.218516 0.590912 0.920901)
(0.190189 0.714979 0.980792)
(0.168898 0.837428 0.980629)
(0.135183 0.949754 0.94735)
(0.0985464 1.01912 0.88728)
(0.0558197 1.043 0.821087)
(-0.00252805 0.970647 0.770472)
(-0.000586238 0.883201 0.765107)
(-0.0137578 0.797072 0.769161)
(-0.0202777 0.773234 0.720498)
(-0.0424301 0.745788 0.704968)
(-0.0517016 0.696697 0.672507)
(-0.070925 0.608446 0.670932)
(-0.0905821 0.511705 0.554522)
(-0.114323 0.478164 0.550096)
(-0.113347 0.254169 0.443683)
(-0.222335 0.272715 0.533336)
(-0.267063 0.300767 0.659831)
(-0.266194 0.37377 0.58136)
(-0.120354 0.498079 0.698406)
(-0.0830787 0.658943 0.785253)
(-0.0774947 0.765735 0.792884)
(-0.0231437 0.894129 0.775099)
(-0.0416211 0.772445 0.737407)
(-0.0717503 0.686012 0.749118)
(-0.0950414 0.647764 0.716)