/*--------------------------------*- C++ -*----------------------------------*\
| =========                 |                                                 |
| \\      /  F ield         | OpenFOAM: The Open Source CFD Toolbox           |
|  \\    /   O peration     | Version:  v2012                                 |
|   \\  /    A nd           | Website:  www.openfoam.com                      |
|    \\/     M anipulation  |                                                 |
\*---------------------------------------------------------------------------*/
FoamFile
{
    version     2.0;
    format      ascii;
    class       volScalarField;
    location    "135";
    object      epsilon;
}
// * * * * * * * * * * * * * * * * * * * * * * * * * * * * * * * * * * * * * //

dimensions      [0 2 -3 0 0 0 0];


internalField   nonuniform List<scalar> 
18258
(
0.0237419
0.0121459
0.00896049
0.00698489
0.0125192
0.0123415
0.012815
0.0171312
0.0239144
0.0367427
0.0533345
0.0480368
0.0434786
0.0452693
0.0474533
0.0449985
0.0350642
0.0303309
0.0398623
0.0665404
0.0608262
0.0496604
0.0609095
0.0513489
0.0652939
0.082355
0.063131
0.0567967
0.0509283
0.0478488
0.0412706
0.0234
0.0343436
0.0531144
0.0724864
0.0791981
0.0848317
0.0894895
0.0947336
0.096877
0.0971256
0.0919203
0.0827578
0.0677693
0.0498897
0.0385227
0.0307184
0.0312034
0.043783
0.0448258
0.0556544
0.0856319
0.108057
0.0810626
0.0519432
0.0826907
0.112663
0.14442
0.170948
0.193414
0.201144
0.197725
0.186189
0.169439
0.147962
0.122938
0.101916
0.0849762
0.0671826
0.0573898
0.0464517
0.0385563
0.0330042
0.0293549
0.0271596
0.0254334
0.0242696
0.0252098
0.0251012
0.0179011
0.0140807
0.013226
0.00946045
0.00786173
0.00817682
0.00779798
0.00811121
0.00716217
0.00613158
0.00532068
0.00451171
0.0065549
0.00703411
0.00727014
0.00727916
0.00780437
0.00809883
0.00785668
0.0079675
0.00732549
0.00708677
0.0115624
0.0135088
0.0171776
0.0151571
0.0102683
0.00925311
0.0102609
0.0108817
0.0134199
0.0125358
0.0133376
0.0118518
0.0108294
0.0091641
0.00890539
0.00914852
0.00972691
0.0101243
0.0117048
0.0115412
0.0107025
0.0118274
0.0130465
0.012764
0.0122108
0.0116361
0.0142851
0.0115148
0.0122041
0.013703
0.0220848
0.0216025
0.0260552
0.0255776
0.0260288
0.0262169
0.0316298
0.0317523
0.0321348
0.0324504
0.0340928
0.0572312
0.0510453
0.049923
0.0497223
0.0430002
0.0425172
0.0418138
0.0426237
0.0361997
0.0348699
0.0316042
0.0312223
0.0348087
0.0439293
0.0613806
0.0886191
0.12259
0.159009
0.189395
0.210495
0.232376
0.237719
0.251725
0.256489
0.257439
0.251779
0.243292
0.233772
0.220868
0.202246
0.18925
0.148732
0.105273
0.0592498
0.0785795
0.0906168
0.100347
0.102234
0.103391
0.0993426
0.0931512
0.0820186
0.0665115
0.0431959
0.0481555
0.0653026
0.0676945
0.0684821
0.0543685
0.0524179
0.0487828
0.048839
0.0642432
0.0735537
0.0617881
0.0852283
0.100164
0.0876521
0.0635677
0.097324
0.142572
0.0802603
0.0680742
0.0525259
0.0515432
0.043543
0.0369452
0.0631727
0.0943335
0.129267
0.150253
0.171901
0.189326
0.202549
0.216493
0.188289
0.171085
0.115295
0.20165
0.152975
0.0773899
0.0570562
0.0552073
0.0461713
0.0517059
0.0567812
0.052451
0.0404759
0.0279017
0.0247054
0.0460368
0.0643007
0.0777664
0.0618593
0.0787377
0.0888158
0.0960682
0.101367
0.12857
0.0947536
0.105308
0.075081
0.102088
0.0722666
0.0465224
0.0527151
0.100745
0.160584
0.219656
0.256478
0.145827
0.0738783
0.0547985
0.0547056
0.0529466
0.0480065
0.0596961
0.10613
0.0721602
0.0467772
0.040542
0.0478201
0.0418446
0.0309893
0.032571
0.0398934
0.0549091
0.0689117
0.0816856
0.125396
0.122531
0.147655
0.154788
0.130484
0.126407
0.0820034
0.0839707
0.123296
0.0920428
0.0744165
0.104418
0.147652
0.20208
0.248559
0.289063
0.314896
0.303952
0.274714
0.173601
0.0759632
0.0228634
0.0177586
0.0167939
0.0172696
0.0104987
0.00629723
0.00585712
0.00670062
0.00705684
0.00594041
0.00546345
0.00545467
0.00581562
0.0102156
0.00877067
0.0108473
0.0131362
0.0156814
0.0187205
0.0194423
0.0128962
0.00872681
0.00818687
0.00812097
0.00805134
0.00802181
0.00803399
0.0080753
0.00809218
0.00806063
0.00798239
0.0078454
0.00770971
0.00765199
0.00828717
0.0111743
0.0153311
0.0148218
0.0135329
0.0121784
0.0110174
0.00869069
0.015121
0.0128218
0.0109162
0.0133734
0.0164762
0.0208252
0.0244726
0.0176554
0.0141357
0.0127932
0.0126676
0.0125537
0.0125993
0.0124769
0.0125407
0.0123392
0.0129289
0.0135573
0.0169529
0.0189732
0.0211439
0.0226316
0.0231998
0.0238967
0.0210609
0.0229497
0.0227039
0.0234798
0.0233019
0.022625
0.0207193
0.0189348
0.0177173
0.0191357
0.0237075
0.0323653
0.0267588
0.0207714
0.0168109
0.0137543
0.0150164
0.0166801
0.0168541
0.0158643
0.0156194
0.0154049
0.0138874
0.0131044
0.0110843
0.0104783
0.0100141
0.0101646
0.0143386
0.0134869
0.0136907
0.0144178
0.0155244
0.014689
0.015119
0.0142676
0.0145186
0.0149405
0.0170001
0.0185549
0.0177986
0.0164779
0.0159856
0.0137216
0.015826
0.0156878
0.0170085
0.0185959
0.0190976
0.0190406
0.0184048
0.0168248
0.0187149
0.0220853
0.0257423
0.0247414
0.0243934
0.0204471
0.0192392
0.0202065
0.0214725
0.0223671
0.0224257
0.022243
0.0223243
0.0262965
0.0259151
0.0247293
0.0226719
0.0202372
0.0176031
0.0151759
0.0166407
0.0181104
0.0194905
0.0207517
0.0205248
0.0190055
0.0176562
0.0164352
0.0149518
0.0146657
0.0161102
0.0173233
0.0187463
0.0204552
0.0205392
0.0188276
0.0173391
0.0160649
0.0145992
0.0145506
0.0160436
0.0173351
0.0187475
0.0202331
0.0196065
0.0184489
0.017202
0.0159648
0.0145187
0.014586
0.0159025
0.0169676
0.0180493
0.0190027
0.0198603
0.0178946
0.0169848
0.0170785
0.0160949
0.0192745
0.0185182
0.0194568
0.0180066
0.0167847
0.0177904
0.020985
0.0240222
0.0245867
0.0243092
0.0201772
0.0206307
0.0205976
0.0191737
0.0159438
0.0153503
0.0181266
0.0208694
0.0213339
0.0200193
0.0169089
0.0132643
0.0142914
0.017463
0.0197813
0.018508
0.0183499
0.0169348
0.0158538
0.0161516
0.0138708
0.0166005
0.0266678
0.0241307
0.0221408
0.0197062
0.0157135
0.0106434
0.0115435
0.012707
0.0131182
0.0105896
0.00792387
0.00711616
0.00692457
0.00676906
0.00655483
0.00619394
0.00564744
0.00538823
0.0104821
0.0250262
0.0362022
0.0356819
0.0240296
0.0205018
0.0194578
0.017033
0.00748997
0.00820167
0.00827989
0.0104139
0.00849208
0.00776604
0.0130388
0.00948195
0.0131297
0.0104329
0.0145605
0.0227876
0.0214105
0.0140477
0.00797387
0.00691311
0.00740001
0.00767347
0.00787414
0.00806876
0.0083009
0.00868595
0.0100065
0.0157389
0.0203297
0.0178009
0.0168223
0.0153405
0.0188663
0.0213228
0.0232392
0.0259938
0.016064
0.0117679
0.0166049
0.0272202
0.0247186
0.0232803
0.01714
0.017675
0.0171022
0.0109976
0.0106493
0.0105588
0.0113688
0.0127579
0.0146735
0.0158136
0.0165566
0.0168868
0.0177969
0.0230508
0.0215604
0.0210355
0.0172541
0.0133681
0.0153872
0.0515283
0.0195051
0.0206186
0.0188609
0.0191332
0.0204225
0.0151254
0.0134763
0.0129044
0.0145721
0.0214392
0.0214743
0.0213473
0.0182274
0.0174469
0.0208637
0.0219418
0.022321
0.021712
0.0212871
0.0194348
0.0166623
0.0180926
0.019608
0.020797
0.0227941
0.0231211
0.0179131
0.0171991
0.0158127
0.0105253
0.0112592
0.00970286
0.00967283
0.00964506
0.00937686
0.00892913
0.00921197
0.0093234
0.00932151
0.0089801
0.00927572
0.00833406
0.00867181
0.00976149
0.0151994
0.0147649
0.0175588
0.0194672
0.0167152
0.0155569
0.0141957
0.0131738
0.0154251
0.0142644
0.0168366
0.0211835
0.02647
0.0191107
0.0181161
0.0178936
0.0174889
0.0173322
0.0173849
0.0166913
0.0156879
0.0151193
0.0235635
0.0212638
0.0181425
0.0171933
0.0157613
0.0180117
0.0174549
0.0213491
0.0268282
0.027034
0.0215177
0.0215965
0.0189415
0.020047
0.022236
0.0270729
0.026995
0.0144259
0.00959345
0.0154272
0.0157673
0.0183754
0.0169897
0.018517
0.0196987
0.020422
0.0202769
0.0176775
0.018851
0.0196388
0.0206226
0.0185724
0.0165686
0.0173565
0.0161367
0.0152373
0.0147379
0.0126647
0.01291
0.0138813
0.01533
0.0162743
0.0177639
0.0194213
0.0194491
0.0201169
0.0197136
0.0191059
0.0251887
0.0239456
0.0254869
0.0281918
0.0224145
0.0177941
0.0146736
0.0149874
0.0147559
0.0146656
0.0154043
0.0167633
0.0151454
0.0145261
0.0170323
0.0193928
0.0246509
0.0330148
0.0287652
0.0261922
0.0331835
0.0313427
0.0381841
0.0286297
0.0281032
0.0208357
0.0262515
0.0304649
0.0391557
0.0254796
0.0209333
0.0223835
0.0255019
0.034739
0.0327601
0.033129
0.0411449
0.0399037
0.0361431
0.031123
0.0353108
0.0212304
0.0301541
0.0321858
0.0267839
0.0256822
0.030719
0.0310246
0.0329622
0.0283259
0.0267314
0.017896
0.0274241
0.0313589
0.0330499
0.0278005
0.0205097
0.0279863
0.0205302
0.0191691
0.0202797
0.013768
0.0127182
0.0147881
0.0138607
0.0111903
0.0121373
0.0111569
0.0111436
0.011225
0.0113403
0.0114725
0.0117273
0.0116896
0.0126929
0.0133241
0.0126156
0.011558
0.012218
0.0125805
0.0160879
0.0181681
0.0204243
0.0220098
0.0228481
0.02399
0.0226735
0.02481
0.0237331
0.025202
0.0249062
0.0238446
0.0213465
0.0187293
0.0163567
0.0169206
0.0206054
0.0271455
0.0222245
0.0171939
0.0138963
0.0114961
0.0127745
0.0160203
0.00867791
0.00792656
0.00763696
0.00746676
0.00734338
0.00652399
0.00574868
0.00813006
0.0128496
0.0161872
0.0202595
0.0258463
0.0320151
0.0374429
0.0415875
0.0445471
0.0463677
0.0468418
0.0439532
0.0332129
0.0284696
0.0243667
0.0201008
0.0163838
0.0167363
0.0243566
0.0319975
0.0395578
0.0462414
0.0512424
0.0493235
0.0331185
0.0300333
0.0462639
0.0778223
0.0735259
0.0965912
0.110583
0.062484
0.0462683
0.0452788
0.0621183
0.0648013
0.0566931
0.0466024
0.0362607
0.0260389
0.0304532
0.0348558
0.0391382
0.0436674
0.0579765
0.0609641
0.0596798
0.0570323
0.0534888
0.0485262
0.0413284
0.0327506
0.0248296
0.0188795
0.0141917
0.00891675
0.00733879
0.00768306
0.0070901
0.00931026
0.00862919
0.00845959
0.00817579
0.0084224
0.00828307
0.00841264
0.00745418
0.00665096
0.0102873
0.00956279
0.00956828
0.0102616
0.0134325
0.0102977
0.00759313
0.00717377
0.00713684
0.00739163
0.0154413
0.0248104
0.0302923
0.0349288
0.0386286
0.0372678
0.0337674
0.0279907
0.0217567
0.0195913
0.0165863
0.0141809
0.0130561
0.014434
0.0118957
0.00587622
0.00517736
0.00571338
0.00556289
0.00509703
0.00614281
0.00684335
0.0074638
0.00789089
0.00820235
0.0082611
0.00819676
0.00810364
0.00805673
0.00803389
0.00800236
0.00793394
0.0078346
0.00768848
0.00754842
0.00748133
0.00807186
0.0106806
0.0146
0.0143614
0.013248
0.0121387
0.011277
0.00955703
0.01539
0.0130633
0.0109537
0.0101297
0.00998946
0.0102884
0.0112585
0.0128911
0.013804
0.0157962
0.0158318
0.0157242
0.0160169
0.0158065
0.0132047
0.0149895
0.0176708
0.0184914
0.0190959
0.01887
0.0173416
0.0193524
0.0204923
0.0199486
0.0193405
0.0165272
0.0192721
0.0231947
0.0236369
0.0238925
0.0212284
0.0183994
0.0215629
0.0227294
0.0223538
0.0232416
0.0215004
0.0222288
0.0276161
0.0142563
0.013143
0.00787425
0.00870929
0.00896006
0.00868707
0.00842228
0.00878404
0.00903814
0.00879679
0.0094846
0.00981407
0.00915317
0.0116009
0.0106815
0.0103045
0.00968412
0.0101776
0.0108025
0.0111126
0.0123025
0.0196872
0.0201968
0.0182915
0.0208509
0.0214503
0.0180009
0.0204714
0.0213537
0.0216717
0.0220262
0.0235024
0.022052
0.0243817
0.02363
0.0222302
0.0214857
0.0381801
0.0251767
0.0165906
0.0153108
0.0149563
0.0150099
0.0169072
0.0126825
0.014215
0.0100502
0.00871206
0.00835808
0.00808183
0.00815669
0.0106458
0.0163045
0.0247951
0.0280133
0.0269454
0.0235462
0.0178915
0.0131809
0.01293
0.0117132
0.0109934
0.0108996
0.00728992
0.00511116
0.00651018
0.00658567
0.00717735
0.00759554
0.00793586
0.00819088
0.0083303
0.0084008
0.00848042
0.00859489
0.00871851
0.00882314
0.00890299
0.00895807
0.00901615
0.00913167
0.00943321
0.0106302
0.0152833
0.0196802
0.018572
0.0171104
0.015803
0.0165686
0.0173259
0.0180606
0.022234
0.0191033
0.0220047
0.0206729
0.019691
0.018283
0.0189963
0.0207869
0.0165753
0.0164984
0.011263
0.00984144
0.00947337
0.00926781
0.00910936
0.00895196
0.00879179
0.00864781
0.00851058
0.00839057
0.00829596
0.00820545
0.00806642
0.00782307
0.00742343
0.00700008
0.00610847
0.00667397
0.00734837
0.00836328
0.00949927
0.0100304
0.00945215
0.0087017
0.00839562
0.00853565
0.00871244
0.00890441
0.00912281
0.00942697
0.00988292
0.0108409
0.0114995
0.0161572
0.0168953
0.0201606
0.0199763
0.0178806
0.0172295
0.018846
0.0173611
0.0126376
0.0173607
0.0168817
0.0211207
0.0156631
0.0147633
0.0151585
0.0156378
0.0183021
0.0172139
0.0157432
0.015703
0.0126379
0.014208
0.0162004
0.0176838
0.0279145
0.0273608
0.0344226
0.0343188
0.0593192
0.056438
0.0497671
0.053823
0.0237294
0.0464819
0.0543107
0.0495
0.042977
0.0273684
0.0437614
0.0666052
0.0965547
0.0696229
0.0569392
0.105844
0.0768209
0.0374334
0.0265806
0.0150019
0.0150834
0.0250515
0.0290959
0.0241245
0.0232721
0.0334436
0.034808
0.0280411
0.0287096
0.0310775
0.0300011
0.0324721
0.0281095
0.0273966
0.0155275
0.0127453
0.0137753
0.0155041
0.0165075
0.0159957
0.0168378
0.0175119
0.0160769
0.015053
0.0144949
0.0124307
0.0131706
0.0161524
0.0203652
0.0238714
0.0172395
0.0138513
0.0125538
0.0123595
0.0121324
0.0120126
0.0116914
0.011505
0.011037
0.011246
0.00980299
0.00980925
0.0103418
0.0105029
0.0107054
0.0108623
0.0109849
0.0110977
0.011966
0.0187276
0.025908
0.020728
0.0164268
0.0139494
0.015136
0.0170564
0.0209511
0.0263643
0.0178068
0.0176292
0.0114936
0.0107136
0.0105053
0.0103358
0.010187
0.0100939
0.0101597
0.0101688
0.0119134
0.0115658
0.0135244
0.0145944
0.0120685
0.0116436
0.011176
0.0108914
0.0107343
0.0106496
0.0107388
0.0115995
0.0114348
0.0105062
0.0104117
0.0105316
0.0107444
0.0110663
0.0115111
0.012013
0.0129224
0.0127055
0.0112256
0.0112375
0.0105765
0.0102634
0.010026
0.00999779
0.0100432
0.0101798
0.0104005
0.011308
0.0170955
0.0172732
0.0265843
0.0265641
0.0211155
0.0176468
0.015495
0.0142453
0.013516
0.0351941
0.0308794
0.0488229
0.0389866
0.0312396
0.0507292
0.0720844
0.055995
0.0911368
0.0984781
0.0726316
0.0656965
0.0209196
0.0159294
0.0154109
0.0168972
0.0185881
0.0212205
0.0218149
0.0266249
0.0287272
0.017155
0.0164768
0.0155522
0.0248405
0.023015
0.0196413
0.0177582
0.0163741
0.0189173
0.0207105
0.0149467
0.0149933
0.00966571
0.0106658
0.0104133
0.010075
0.0099597
0.00989159
0.00993325
0.0100386
0.0103296
0.0108334
0.0112173
0.0113558
0.0116124
0.0113849
0.011114
0.0107955
0.0106085
0.0104204
0.0102667
0.010148
0.0101828
0.0104995
0.0106429
0.00933947
0.00968452
0.00979145
0.00980104
0.00983042
0.00979311
0.00965443
0.00944612
0.00924642
0.00903968
0.00909344
0.00995318
0.0101128
0.010178
0.0100197
0.00989633
0.00987683
0.00980459
0.00978271
0.00977073
0.00964556
0.00932997
0.00860609
0.00846055
0.00906471
0.00941174
0.00959438
0.0096818
0.00967517
0.009628
0.00940596
0.00923186
0.00901851
0.00866556
0.00819221
0.00673378
0.00700077
0.00735931
0.00786189
0.00838049
0.00883528
0.00914218
0.00930576
0.00939979
0.00932071
0.00903141
0.00850583
0.00845096
0.00883792
0.00901263
0.00896507
0.00869585
0.00827872
0.00770995
0.00700593
0.00632702
0.005815
0.00558698
0.00520769
0.0065594
0.00716786
0.00773259
0.00825216
0.00873979
0.00925094
0.00944498
0.00949305
0.00946533
0.00930454
0.0089717
0.00844336
0.00845137
0.00892754
0.00923889
0.00936772
0.00935322
0.00917599
0.00877505
0.00787405
0.00706201
0.0063968
0.00579725
0.00519733
0.00511562
0.00536927
0.00512287
0.00530479
0.00586735
0.00665897
0.00743299
0.00804837
0.00848475
0.00867855
0.00863669
0.00839204
0.00829099
0.00840375
0.00833418
0.0080177
0.00744359
0.00669945
0.00591241
0.00530154
0.00514208
0.00547553
0.00580777
0.00549909
0.004372
0.00492401
0.00549398
0.00610196
0.00702177
0.00819117
0.0087715
0.00908377
0.00923869
0.00917134
0.00888344
0.00844521
0.00842597
0.00884589
0.00912386
0.00917032
0.00903056
0.00875227
0.00826917
0.00685468
0.0053923
0.00475335
0.0043922
0.00395194
0.00557544
0.00593639
0.00551329
0.00523812
0.00566639
0.00619307
0.00680099
0.00730761
0.00774178
0.00805862
0.00817605
0.00815865
0.00802227
0.00800906
0.00793771
0.00772161
0.00746968
0.00727108
0.0068522
0.00640707
0.00587756
0.00643417
0.00673478
0.00631318
0.00466069
0.00494781
0.00540421
0.00570889
0.00715774
0.00856079
0.00894708
0.00908555
0.0092217
0.00915417
0.00884135
0.00840433
0.00838806
0.0089048
0.00929919
0.00943196
0.00952964
0.00965019
0.00976009
0.00863537
0.00674344
0.00625237
0.00526385
0.00481475
0.00663347
0.00704481
0.0068251
0.00655056
0.00749539
0.00788982
0.00802475
0.00802819
0.00804
0.00802654
0.00795288
0.00790251
0.00778582
0.00820434
0.00882081
0.00871625
0.00862451
0.00847715
0.00812408
0.00767052
0.00714945
0.00783968
0.00841421
0.00814684
0.00594886
0.00631822
0.00718864
0.00741351
0.0089493
0.0101128
0.0104343
0.0104111
0.0102928
0.010272
0.00927063
0.0083525
0.0082041
0.00955037
0.0154792
0.015313
0.0153414
0.015268
0.0147038
0.0145334
0.0139764
0.0137195
0.0130301
0.0125818
0.0119058
0.0139073
0.0175761
0.0196237
0.0219624
0.0244318
0.0230968
0.018658
0.016467
0.010118
0.00798071
0.00688476
0.00597135
0.00527991
0.00507613
0.00748568
0.00929724
0.0114048
0.0133075
0.0136461
0.0160431
0.0199435
0.0303794
0.0483138
0.0407915
0.0385063
0.0386758
0.0957111
2.54289
2.71687
2.48345
2.88626
3.3281
0.386816
0.150071
0.278524
0.293401
0.325547
0.303665
0.276664
0.253564
0.264933
0.254342
0.266236
0.248211
0.258232
0.225667
0.231916
0.241193
0.718305
1.05498
1.26932
1.7687
1.76555
1.99026
1.93686
1.95262
1.80259
1.91798
1.66695
1.38231
1.30672
1.23483
1.32548
1.44044
1.24987
1.1327
1.0166
0.924652
0.792118
1.00435
0.762079
0.720276
0.71885
0.75102
1.0005
0.911635
1.04883
0.96464
1.0022
0.599801
0.672421
0.488464
0.406365
0.33781
0.405229
0.543011
0.722266
0.906566
0.702976
0.961782
0.895728
0.895681
0.852469
0.776024
0.736541
0.723844
0.745112
0.758155
0.773996
0.802521
0.824405
0.844126
0.996643
1.06327
1.05519
0.864298
0.772175
0.534498
0.572445
0.606193
0.609278
0.567077
0.549269
0.498863
0.486422
0.441765
0.422542
0.384506
0.365165
0.333108
0.460545
0.78682
0.816582
0.887034
0.939909
0.990775
1.01268
1.03055
1.01351
0.980338
0.909128
0.877329
0.813288
0.922426
1.10869
1.10599
1.01567
0.862202
0.815802
3.80454
4.62695
3.06296
6.60355
10.0374
16.8334
7.65441
2.07471
3.46968
2.3838
2.11493
2.06123
2.1762
3.42915
2.50812
3.27659
2.73143
2.86076
2.26256
2.47614
2.32064
1.77358
1.48806
1.25954
1.12744
0.910023
0.891218
0.732274
0.685633
0.645785
0.543925
0.677466
0.701319
1.72289
2.33056
2.90344
4.55182
4.99103
5.45012
8.58601
6.92698
8.65054
5.13699
5.19695
3.84136
3.612
3.65073
5.02011
7.18562
4.94742
8.63833
4.81208
15.6203
34.925
9.2114
19.0563
10.9837
9.92368
9.5577
9.84161
13.9861
9.55696
15.5225
13.1557
17.4979
17.1757
18.0581
13.857
10.2643
11.2149
12.021
15.438
10.8846
12.4345
9.43957
9.2181
8.72954
7.24566
6.54277
5.04941
6.00433
7.03315
8.0194
12.7585
15.958
18.309
22.0633
16.2572
18.5297
11.1513
12.2584
9.46602
8.88319
9.0198
11.8701
21.0367
14.8968
27.259
0.499017
0.226309
0.546697
0.229912
0.487624
0.390933
0.403442
0.404346
0.400031
0.461485
0.220365
0.185252
0.177466
0.175319
0.176851
0.100284
0.124531
0.0804658
0.127
0.229566
0.505329
0.366279
0.140659
0.0826555
0.0546329
0.0429719
0.0634995
0.0612922
0.0980165
0.0993734
0.105709
0.132273
0.228506
0.434189
31.857
7.11032
1.13057
0.531284
0.282638
0.173546
0.149878
0.169565
0.182578
0.185626
0.174668
0.148797
0.107123
0.071248
0.0480915
0.04063
0.0296342
0.0280375
0.0396765
0.0535103
0.0497119
0.065394
0.0837387
0.106486
0.130779
0.150168
0.164751
0.168568
0.156405
0.122303
0.0804399
0.0442583
0.0263947
0.0227405
0.0208087
0.0193211
0.0166867
0.0144669
0.0130662
0.0111848
0.00987577
0.00892506
0.00863288
0.008764
0.00957795
0.0121079
0.0145645
0.0188509
0.0179715
0.0134539
0.0125867
0.00779515
0.00720321
0.00735046
0.00760195
0.00840372
0.0131266
0.013432
0.0133083
0.0133286
0.0131497
0.0131404
0.0129754
0.0128219
0.0126057
0.0121951
0.011905
0.0113823
0.0110985
0.0104269
0.0104541
0.0108186
0.0111157
0.0100471
0.00992569
0.00925681
0.0214759
0.0502197
0.0703985
0.0787966
0.0884993
0.0811795
0.0422671
0.0234663
0.00799222
0.00764911
0.00814551
0.0088108
0.008383
0.00614436
0.00667984
0.00785053
0.0110591
0.0110502
0.0110833
0.0129116
0.0134475
0.0147726
0.0153098
0.0156795
0.0159041
0.0158303
0.015959
0.0156857
0.0157818
0.0155973
0.0156912
0.015293
0.0271577
0.0255556
0.0262424
0.0262716
0.0274457
0.0269373
0.0264596
0.0254862
0.0247936
0.0232913
0.0217429
0.0201759
0.0180907
0.0188261
0.0181161
0.0112609
0.0106808
0.00762107
0.00766659
0.00738206
0.0102454
0.00928076
0.00779779
0.00916183
0.0066906
0.00685564
0.00720612
0.0102977
0.0108207
0.0172627
0.0173098
0.0153536
0.0163558
0.0173754
0.0186952
0.0198355
0.0212378
0.022223
0.0232988
0.0251528
0.0255696
0.0238527
0.023517
0.0224572
0.0244059
0.0233824
0.0216202
0.0231263
0.0247684
0.0272647
0.0269399
0.0248117
0.0235083
0.0221144
0.0198208
0.0172041
0.0158277
0.0148064
0.0148169
0.0137643
0.0160313
0.0144426
0.0100465
0.0104932
0.00807804
0.00629515
0.00603788
0.00932063
0.0134144
0.028542
0.0179049
0.00961658
0.0106467
0.0171183
0.0357562
0.0214451
0.0348146
0.0146684
0.0162043
0.0125001
0.0124678
0.0137597
0.0160347
0.0171408
0.020776
0.0234408
0.0254121
0.0263239
0.0276288
0.0280192
0.0294158
0.0298588
0.0325205
0.0327793
0.0328263
0.0323646
0.0300074
0.0269784
0.0247913
0.0306636
0.0355411
0.0388045
0.0412082
0.043643
0.0423678
0.0387193
0.03785
0.0359494
0.0348342
0.0334457
0.0303513
0.026553
0.0217794
0.0211666
0.0271293
0.0328228
0.0489983
0.0529798
0.0527185
0.0549889
0.0554969
0.0572424
0.0576858
0.060303
0.0608791
0.0620319
0.0623687
0.0675131
0.0684002
0.0694024
0.0697249
0.0694491
0.070406
0.0704139
0.0478423
0.042872
0.038821
0.0322132
0.0269626
0.0341904
0.0426234
0.0478632
0.0731231
0.0735963
0.0772248
0.0798186
0.0846461
0.088279
0.0930437
0.0974585
0.101754
0.105109
0.107102
0.107418
0.107861
0.106937
0.10565
0.114399
0.148722
0.165221
0.19573
0.210776
0.223321
0.227414
0.2188
0.222641
0.21463
0.217262
0.211093
0.209231
0.204019
0.1978
0.194262
0.188045
0.183994
0.212062
0.160205
0.122813
0.0815351
0.0654497
0.0587856
0.0554151
0.0578616
0.0448851
0.0384358
0.0573312
0.0529812
0.0426336
0.0288723
0.0190942
0.0326417
0.048281
0.065138
0.0822088
0.0977816
0.107968
0.110526
0.109465
0.104637
0.0967324
0.081515
0.0612809
0.0419826
0.0344998
0.0317826
0.0278554
0.0219733
0.0176696
0.0155779
0.0140155
0.0122786
0.011055
0.0105181
0.0107072
0.0110246
0.0132118
0.0172813
0.0172661
0.0115705
0.0110822
0.00762386
0.00771116
0.00796854
0.0132284
0.0133763
0.0207453
0.0231755
0.0218197
0.0224944
0.0222337
0.0225313
0.0221886
0.0210168
0.0201914
0.0192374
0.0183994
0.0176516
0.0168234
0.0160081
0.017322
0.0162549
0.0136883
0.013814
0.0144378
0.015093
0.0159777
0.0172267
0.0182932
0.0209719
0.0211283
0.0206322
0.0207231
0.0192686
0.0185547
0.0198078
0.0193304
0.0131703
0.0129916
0.0189635
0.0186027
0.0185016
0.0222926
0.0207281
0.0212434
0.0223638
0.0222728
0.0193517
0.0180014
0.0164557
0.015275
0.0138928
0.0123799
0.0119974
0.0147139
0.0128854
0.0105965
0.0118101
0.0141839
0.0167725
0.0182347
0.0202126
0.0229079
0.0238837
0.0261191
0.0275413
0.0296307
0.0304658
0.0352512
0.0358971
0.0337401
0.0319108
0.0309319
0.0271843
0.0232959
0.0256918
0.0265515
0.0269257
0.0270563
0.026938
0.0233778
0.0229478
0.0214394
0.0209212
0.0193539
0.0187911
0.0176298
0.0168652
0.015842
0.0140263
0.0133938
0.0125744
0.0122075
0.0172454
0.0107598
0.0105096
0.0159092
0.00977594
0.0115097
0.011254
0.0117678
0.0124563
0.0102852
0.015041
0.0102544
0.011166
0.0114387
0.0145294
0.0102183
0.0230877
0.0681671
0.0949977
0.113994
0.206099
0.245282
0.264947
0.285306
0.298986
0.314821
0.332122
0.349585
0.362374
0.363581
0.33763
0.318911
0.25377
0.227066
0.250689
0.280622
0.193159
0.165613
0.167802
0.168508
0.170981
0.172118
0.175623
0.173525
0.178424
0.174077
0.181161
0.17514
0.181405
0.174241
0.159203
0.142793
0.110775
0.100217
0.0646431
0.0500635
0.039149
0.0284518
0.0207554
0.0186379
0.0176579
0.0163433
0.0164319
0.0125987
0.0130774
0.00838332
0.00617171
0.00983836
0.00964451
0.0072108
0.00977001
0.0111511
0.0116514
0.0121773
0.0124682
0.0190545
0.0190702
0.0244188
0.0243473
0.0288877
0.0344649
0.0356894
0.0393013
0.0565589
0.0570737
0.0568209
0.0566597
0.0562432
0.0490493
0.0487692
0.047666
0.0470817
0.0441466
0.0435904
0.0415099
0.0403694
0.0374361
0.0366141
0.035507
0.0360532
0.0417169
0.0587548
0.104516
0.0303912
0.0292895
0.0213607
0.014527
0.0215733
0.0158223
0.0154397
0.0135657
0.0185904
0.0133838
0.0136175
0.0164305
0.0169711
0.0164055
0.0216198
0.0268816
0.0235751
0.0263729
0.121367
0.0808359
0.0257605
0.0507679
0.0741687
0.160953
0.205244
0.141188
0.160875
0.184714
0.167856
0.141064
0.111153
0.0826452
0.0596065
0.0467778
0.011249
0.0134167
0.0187609
0.0427159
0.063365
0.100976
0.0836319
0.109134
0.149005
0.173525
0.209423
0.201204
0.173178
0.148991
0.145159
0.159753
0.164071
0.107938
0.104986
0.0784875
0.174308
0.218879
0.184719
0.231931
0.245557
0.148725
0.0326204
0.0182982
0.0150312
0.0138323
0.0123445
0.0192314
0.0113857
0.0115666
0.0122816
0.0131765
0.0168549
0.0292268
0.0133618
0.0148305
0.0182298
0.0157809
0.0147974
0.0145418
0.0144418
0.0150541
0.0163941
0.0214258
0.0215304
0.0211936
0.0158801
0.0171811
0.015604
0.0199327
0.0211164
0.0330495
0.015176
0.0161156
0.0214071
0.480435
0.0245292
0.0177198
0.0231463
0.0218209
0.0300053
0.0434446
0.462085
0.0445677
0.0350385
0.0582067
0.0603345
0.0649304
0.0685814
0.0721007
0.0746127
0.0785673
0.0811979
0.0824436
0.0836973
0.0992595
0.099195
0.098143
0.102697
0.0968471
0.0571985
0.0573938
0.0966242
0.104261
0.0589367
0.040679
0.0381949
0.0309293
0.0320371
0.0415179
0.04358
0.0611632
0.060972
0.101681
0.092745
0.094135
0.0958805
0.0909539
0.0914231
0.0934187
0.093504
0.0748861
0.0725574
0.0707925
0.067765
0.0642257
0.061352
0.0585154
0.0556244
0.0533804
0.0540709
0.0597738
0.0583117
0.0668326
0.0763744
0.236587
0.163876
0.11571
0.084066
0.0668186
0.0594196
0.058362
0.0612661
0.0644279
0.0660603
0.06687
0.0702463
0.0918329
0.094064
0.0969114
0.0944314
0.0982142
0.0962378
0.0937985
0.103607
0.111377
0.0650975
0.067173
0.0473801
0.0441722
0.032204
0.0327468
0.0233757
0.0193919
0.0194005
0.019388
0.0195889
0.0224318
0.0313239
0.0314348
0.0459249
0.0458641
0.0512939
0.0747456
0.0718252
0.128096
0.117407
0.107814
0.100557
0.100919
0.103065
0.105626
0.100647
0.0971672
0.0916498
0.0719847
0.0679724
0.065861
0.0646905
0.0636942
0.0679979
0.0935736
0.153781
0.235927
0.344224
0.443827
0.453273
0.408727
0.261
0.297377
0.149614
0.168336
0.191506
0.17055
0.178988
0.3241
0.269425
0.383218
0.486703
0.540678
0.607463
0.646033
0.638797
0.512127
0.335517
0.343288
0.455267
0.776422
0.869956
0.744022
0.760878
0.657945
0.539707
0.521057
0.496172
0.559504
0.6096
0.575366
0.591282
0.535621
0.511751
0.44208
0.492967
0.360031
0.324223
0.304716
0.295874
0.354445
0.286786
0.323068
0.265568
0.271875
0.220944
0.226342
0.188929
0.144637
0.137134
0.127137
0.142356
0.161435
0.147947
0.152527
0.133216
0.11394
0.0906994
0.0978438
0.0731507
0.0693943
0.0709835
0.081849
0.129985
0.380939
0.175685
0.164047
0.167424
0.1772
0.317876
0.281497
0.71963
0.503898
0.703731
0.470618
0.558252
0.467116
0.360432
0.375993
0.41556
0.594892
0.817528
6.64054
0.28445
4.25476
3.15936
3.31887
3.46499
4.44091
7.78998
7.10113
9.36669
6.7951
9.06545
4.97364
4.97264
4.32447
4.47042
4.43969
4.26575
5.23468
6.70933
0.240065
0.0911336
0.0854315
0.0855949
0.0873654
0.197694
0.0525229
0.201809
0.0539009
0.213209
0.0494463
0.246381
0.196716
0.038217
0.0192559
0.0200843
0.0168059
0.0203708
0.0169222
0.0250447
0.0235421
0.0237038
0.0266193
0.0766818
0.29371
13.9722
1.71115
0.719307
0.820221
1.22674
0.837
1.23953
1.71722
1.15853
0.581201
0.384355
0.453526
0.548479
0.522608
0.66233
0.949638
0.927558
0.729506
0.732555
0.650209
0.912534
0.920026
1.08595
1.26564
1.15535
0.910012
0.719101
0.613674
1.04591
1.04547
0.97727
0.421165
0.121753
0.048242
0.0511268
0.0363678
0.0382762
0.0349629
0.0580031
0.170875
0.231848
0.141887
0.441642
0.422562
0.568984
0.405513
0.414594
0.328607
0.351546
0.537249
0.5861
0.645
0.675504
0.727091
0.676392
1.30083
2.23756
2.53167
12.9364
17.4607
3.2242
3.10438
13.9501
0.315139
0.0840388
0.0233442
0.0174377
0.0162185
0.0161301
0.0150007
0.0155378
0.015999
0.0169624
0.0188262
0.0231895
0.0458069
0.201297
0.203254
0.064295
0.0324102
0.0229638
0.0196135
0.0170452
0.0163862
0.0155311
0.0154587
0.0150083
0.0156587
0.0174672
0.0237851
0.0773957
0.270604
11.2961
2.43311
2.25047
8.36814
5.78415
0.20653
0.0437588
0.0200898
0.0169255
0.0158832
0.0167525
0.0162649
0.0182099
0.0184008
0.0230132
0.0250159
0.0317492
0.0570262
0.110069
0.31502
9.55149
8.62623
8.34626
7.78897
0.309676
0.115051
0.0543488
0.038217
0.0346167
0.033813
0.0226468
0.02367
0.0189801
0.0216352
0.0182922
0.0226739
0.04827
0.211691
5.3427
1.56682
1.69771
1.2065
0.611863
0.654936
0.669178
0.689176
1.78404
4.09657
5.02526
3.44799
3.37435
4.73193
3.18516
2.49256
1.83778
1.75173
2.55369
1.96624
1.8268
1.35846
1.46853
1.06664
1.4656
0.810087
0.974797
1.0711
1.53019
1.39562
1.40814
0.906477
1.04851
1.47366
1.72064
1.64442
0.842303
1.22422
1.01209
0.653868
0.606938
0.633866
0.604375
0.579923
0.575986
0.579627
0.558242
0.575205
0.555193
0.586601
0.545965
0.531703
0.506637
0.526484
0.544528
0.577291
0.359822
0.422294
0.426357
0.440846
0.453742
0.375203
0.450856
0.44244
0.659209
0.994594
0.843938
1.17507
0.685897
1.00586
2.00977
5.20638
2.38988
0.828575
1.34929
1.57826
1.13781
0.627505
2.54924
3.54998
1.22734
1.77751
10.3471
8.40724
16.4784
10.9841
18.6941
6.05888
4.63762
17.843
6.69831
6.94209
4.53414
4.53428
2.96826
1.59034
1.63624
1.75195
1.23119
1.30646
1.21592
1.13395
1.47858
1.44713
1.89764
2.04499
2.59204
1.81732
1.78734
2.62076
1.06573
1.40977
1.84804
1.84179
1.36787
2.36195
3.17889
3.00656
2.16945
2.35088
3.52303
4.84306
4.62323
3.20455
4.02018
10.1754
13.589
13.7262
4.24146
19.2805
18.3224
2.11521
0.586007
0.337988
0.0939496
0.045181
0.0365246
0.0385051
0.144608
0.0455865
0.0570759
0.0458265
0.075602
0.0708602
0.0886495
0.224151
0.129052
0.222657
0.159556
0.197976
0.126598
0.202226
0.236961
0.247907
0.197681
0.121688
0.222897
0.319885
0.111599
0.369263
0.406559
0.272756
0.347475
0.413744
0.206073
1.01505
0.189674
0.132357
0.154181
0.409925
1.29639
0.228551
0.475152
4.53398
14.7429
3.73792
0.962971
0.702384
0.0559575
0.0303313
0.0325955
0.028111
0.0193432
0.0866725
0.10218
0.414001
0.213131
0.278074
0.660888
2.91583
2.39937
1.1531
5.5447
10.2694
15.1484
9.15256
2.27584
9.79831