/*--------------------------------*- C++ -*----------------------------------*\
| =========                 |                                                 |
| \\      /  F ield         | OpenFOAM: The Open Source CFD Toolbox           |
|  \\    /   O peration     | Version:  v2012                                 |
|   \\  /    A nd           | Website:  www.openfoam.com                      |
|    \\/     M anipulation  |                                                 |
\*---------------------------------------------------------------------------*/
FoamFile
{
    version     2.0;
    format      ascii;
    class       surfaceScalarField;
    location    "135";
    object      phi;
}
// * * * * * * * * * * * * * * * * * * * * * * * * * * * * * * * * * * * * * //

dimensions      [1 0 -1 0 0 0 0];
oriented        oriented;


internalField   nonuniform List<scalar> 
50655
(
0.00259631
-0.00360378
-0.00147245
-0.00516473
0.00156753
0.00348582
-0.00336275
0.00402161
0.00432829
-0.0024773
-0.00290241
0.00318101
-0.00372019
-0.00383015
0.00257015
-0.0017052
-0.00492106
0.000689798
0.000354009
-0.00480189
0.00146392
-0.00165368
-0.00712093
0.00223149
-0.0103863
0.0026934
0.000473247
-0.011215
-0.00336328
0.00408188
-0.0119841
-0.0047853
0.00545198
-0.0128529
-0.00559649
0.00636114
-0.026093
-0.00927347
0.0223197
-0.0485901
-0.0281633
0.0501
-0.0481918
-0.0526294
0.0515339
-0.0310486
-0.0710593
0.0531381
-0.00460388
-0.0779625
0.0507347
0.00778806
-0.0547323
0.0415289
-0.00174774
-0.0314818
0.0402447
-0.0209902
-0.0216761
0.0401517
-0.0168871
-0.0512506
0.0464251
-0.00701566
-0.0551588
0.0447296
-0.0387279
0.0313832
-0.0411224
0.0188161
-0.016723
-0.0157884
-0.075562
0.0497333
0.0202424
-0.0797666
0.0432393
0.0305474
-0.0291504
0.0185384
0.0340382
-0.00382821
0.0364463
0.0178882
-0.0206188
0.0252875
-0.0179175
0.0288004
0.0163646
-0.0094863
0.01824
0.00337177
-0.00137339
0.0142392
-0.00646722
0.00673083
0.00301289
-0.00541482
0.000115095
-0.00120821
-0.00538635
-0.00124739
0.00120053
-0.00631305
0.00025724
0.000652172
-0.0075823
0.000248876
0.00100377
-0.00873131
0.000126818
0.00100506
-0.00913027
-0.000217666
0.000600259
-0.00940111
-0.000634792
0.000889035
-0.00896356
-0.0010609
0.000607073
-0.00834071
-0.00152692
0.000887384
-0.0071148
-0.00197247
0.000730133
-0.0056904
-0.00243455
0.00099328
-0.00381268
-0.00273534
0.000841437
-0.0019768
-0.00292864
0.00107581
0.000919159
-0.00291356
0.000645059
-0.00250732
0.00275577
-0.00554832
0.00503683
0.00111478
-0.0109497
0.00477774
0.000567143
-0.0130841
0.00519771
-0.00313028
-0.0129755
0.00540982
-0.0055854
-0.00545868
0.00467477
-0.0122481
0.000497556
0.00561193
-0.0116099
0.000597616
0.00357696
-0.00370265
-0.00151004
0.00209007
-0.00296308
0.00214376
-0.000707866
-0.00452539
0.00219047
-0.00064431
-0.00583964
0.00234836
-0.00105049
-0.00710627
0.00230482
-0.00105315
-0.00860839
0.00249724
-0.00100914
-0.0101752
0.0025837
-0.00103025
-0.0114713
0.00237624
-0.00109329
-0.0123745
0.00201522
-0.00112509
-0.0128426
0.00160246
-0.00114739
-0.0131615
0.00143731
-0.00113169
-0.0137669
0.00156541
-0.000974165
-0.0139757
0.00112104
-0.000927326
-0.0136822
0.000894486
-0.00120339
-0.0136736
0.000779897
-0.000804216
-0.0133997
0.000823605
-0.00111355
-0.0131528
0.000897653
-0.00116049
-0.0130083
0.000839848
-0.00100015
-0.0127321
0.000569023
-0.000860812
-0.0121923
0.000119457
-0.00067475
-0.0112897
-0.000457415
-0.000460363
-0.0101675
-0.000918017
-0.000219523
-0.0088486
-0.00101386
-0.000319827
-0.00739871
-0.000763886
-0.000699857
-0.00759609
-0.00069542
0.000880789
-0.0164163
0.000817437
0.00797624
-0.0212037
0.000379285
0.00434751
-0.0226599
0.00113185
0.000259152
-0.042713
0.0163594
0.00357613
-0.0547568
0.00552168
0.00622375
-0.0295722
-0.0164718
-0.00902031
-0.0131715
-0.0150466
-0.00148633
-0.0113135
-0.00402213
0.00208604
-0.0100644
-0.00311447
0.00177534
-0.00814406
-0.00347092
0.00144906
-0.0047609
-0.0033323
-0.000146149
-0.00321334
-0.00163287
-0.00450039
0.00463947
-0.00344732
-0.00274343
0.00677118
-0.00864178
0.000815541
0.00625858
-0.00994976
0.00606944
0.00595705
-0.0113558
0.0147458
0.00890699
-0.0177644
0.0283494
0.0139482
-0.0278344
0.0250684
0.0197748
-0.0167753
0.0170003
0.00655106
0.00133241
0.00899099
-1.16457e-06
0.00786307
-0.000206644
-0.00342763
0.0124903
-0.00417014
-0.00647757
0.0103247
-0.00752709
0.00549098
0.00415101
0.0010552
-0.0101374
0.0015604
-0.00779952
0.00379887
-0.00571795
-0.00377483
0.00749976
-0.0128362
0.00187391
0.00511035
-0.0144473
0.00577892
0.00224638
-0.0382661
0.0274054
0.0233763
-0.00776959
-0.0132015
0.0374594
-0.00954116
-0.0396121
-0.00470606
0.00938571
-0.00910867
-0.000466076
0.00903547
-0.00744849
0.00272763
0.00965374
-0.00671131
0.00462869
0.00966581
-0.00490563
0.00718244
-0.00134042
0.0113374
-0.00504156
-0.00270149
0.0125162
-0.00195295
-0.00244278
0.00885403
-0.000390598
-0.00421993
-0.00202297
-0.0211758
-0.0022237
0.0296654
-0.0106604
-0.0143961
-0.00176781
-0.00711058
-0.00260081
-0.00731764
0.0159558
0.0011872
-0.0102541
0.0220236
0.00100549
-0.00899731
0.0326371
0.000192241
-0.0132063
0.083483
-0.00235551
-0.0359725
0.0469335
-0.00185372
0.0456311
-0.00237564
0.00752935
-0.00319471
0.0385355
0.00389317
0.0218642
0.00197787
0.0232806
-0.000311576
0.0113431
0.0139588
0.00626845
-0.00800939
9.38223e-05
0.00682346
0.00522818
-0.0015029
0.00733454
0.0082038
-0.00154295
0.00713534
-0.0151089
0.00799555
-0.00212595
0.007383
-0.0153406
0.00852081
-0.00128405
0.00744916
-0.0167422
0.00843066
-0.00132732
0.00743321
-0.0160414
0.00863062
-0.000642281
0.00730284
-0.0166363
0.00862782
-0.000266354
0.00705299
-0.0160331
0.00858414
0.000710823
0.00626215
-0.0155153
0.00825734
0.00581108
0.00443637
-0.0170209
0.00746979
0.00148737
-0.00413083
0.0057289
0.0027113
0.00080071
0.00540628
-0.000290228
0.000629164
0.0071695
-0.000746564
0.000787164
0.00804039
-0.0011577
0.00094695
0.00834053
-0.00121045
0.00128526
0.00840144
-0.00131979
0.00150978
0.00857522
-0.00136385
0.00151103
0.00872197
-0.00135319
0.00127252
0.00873326
-0.00137173
0.00094233
0.00884955
-0.0011967
0.00732227
-0.000262292
0.00937224
-0.00201234
-0.00081549
0.0110519
-0.00185756
-0.0008514
0.0123371
-0.00155445
-0.000664591
0.0131236
-0.000316979
-0.000942619
0.013555
0.000848928
-0.00117657
0.0137329
0.00170806
-0.0013329
0.0137317
0.00223934
-0.00141447
0.0137901
0.00225487
-0.00143222
0.0137438
0.00183289
-0.000979463
0.0137491
0.00135711
-0.000598574
0.0139302
0.00123754
-0.000539773
0.0133161
0.0011569
0.000563036
0.0124614
0.00244126
0.000238387
-0.000273758
0.0127022
-0.000417907
0.00244523
-0.000844069
0.0123638
-0.000241343
0.00280686
-0.000637834
0.0114897
-7.66008e-05
0.00311858
-0.000165908
0.0102267
4.70914e-05
0.000297031
0.00328193
0.00862696
0.000721898
0.0033191
0.000128876
0.00688047
0.00104011
0.00305244
0.000137359
0.00587584
0.000962857
0.00224349
8.81417e-05
0.00443159
0.00462647
-0.000850257
0.00287592
0.00428336
-0.00055343
0.00142552
-0.000502548
0.0040803
0.00390239
-0.000403735
0.00561416
-0.000511747
-0.00121617
0.00683967
-0.000405569
-0.000836789
0.00781189
-0.00060266
-0.000386056
0.00817665
-0.000468123
8.66444e-05
0.00823278
-0.000600859
0.000528268
0.00754378
-0.00025427
0.000926669
0.00656734
-0.000290545
0.00125042
0.00475178
0.000294315
0.00150416
0.00206689
0.00113315
0.00153461
-0.00170336
0.00205707
0.00169523
-0.00446036
0.000570344
0.00216867
-0.00598225
-0.000870784
0.0023734
-0.00726091
0.000617882
0.000638834
-0.0137006
0.000499262
0.00589552
-0.0247449
-0.00655592
0.0174844
-0.0308987
-0.0160995
0.022088
-0.0390623
-0.0259901
0.0338871
-0.0315515
0.0235621
0.0161797
-0.0383104
0.00915935
0.0258415
-0.0166323
0.00690208
-0.00456254
0.00435991
-0.0321725
0.0260503
0.00151094
-0.0146641
-0.0233023
0.00575859
-0.0374317
0.006089
0.041095
-0.0572921
-0.000772285
0.0289086
-0.049826
0.0151193
0.0125737
-0.00998782
0.0169325
-0.0103041
0.010897
-0.0024637
0.0188707
0.00789739
0.0112366
-0.0125659
0.0135283
0.00526828
-0.00618372
0.00129598
0.0112305
0.00485029
0.00102442
0.00268199
0.00128729
-0.0010374
0.00153567
0.00273249
-0.00488608
0.00382627
0.00205795
-0.00544956
-0.000498387
0.00217406
-0.00958555
0.00199121
0.00241861
-0.00823298
-0.00368291
0.00201971
-0.0118867
0.00196477
0.0014148
-0.0089238
-0.00417537
0.000591819
-0.0112622
0.00216195
-0.000311396
-0.00733711
-0.00320073
-0.00134672
-0.00817679
0.00229789
-0.00188395
-0.00441752
-0.00171711
-0.00257314
0.00130172
-0.00256509
0.00397678
0.0117821
-0.0106217
0.0113759
0.00661259
-0.0093894
0.0127786
0.0089836
-0.00504626
0.00974333
0.0106005
-0.00243729
0.00401986
0.00956324
0.000885473
0.0127993
-0.00257949
-0.00213097
0.000908469
0.0152251
-0.00580999
0.00438007
-0.00324356
0.00217231
0.0151452
-0.00742595
-0.00305207
0.00329852
0.00718612
0.0105175
-0.00786811
-0.00266474
0.00332026
0.0117661
0.00175294
-0.00669629
-0.00197334
0.00119327
0.0161559
-0.0010516
-0.00426761
0.00753374
-0.00045846
-0.00524676
0.0110029
-0.0001851
-0.0103232
0.0125884
-0.00899686
-0.0142155
-0.0141235
0.00841945
0.00569997
-0.024078
0.00411399
-0.018502
0.00622972
-0.0164379
-0.0114015
0.00926834
0.00795954
0.00962304
-0.0340671
-0.023712
0.0075583
0.0111885
0.00753153
-0.0100084
-0.0325122
-0.00913185
0.00774752
-0.00160836
7.56064e-05
0.00771787
-0.00655275
-0.0104358
0.0114449
-0.00761136
-0.0141253
0.0106087
0.0104924
-0.000923685
-0.00881794
0.0103078
-0.00143712
0.00791034
-0.00795393
0.00409624
0.0010411
0.00451151
-0.00381284
0.0060992
-0.00635868
0.0139711
-0.0121825
-0.00357133
0.0108105
-0.0170617
-0.00261136
0.00569908
-0.0169961
-0.000996255
-0.00115625
0.00202757
-0.00821982
0.00827023
0.00973431
-0.00943324
0.0106633
0.0114271
-0.00491675
0.0112438
0.0120858
-0.00214599
0.0108553
0.00407287
-0.0107032
0.0112322
0.00282997
-0.00894382
0.0123723
-0.00212943
-0.00483487
0.0119153
-0.00468077
0.00983443
-0.00600205
0.00212915
0.00393882
0.00108239
0.00775597
0.0078419
-0.00164067
0.0108041
0.00904493
0.000192203
0.00782542
0.00627111
-0.0091151
0.0101785
-5.7618e-06
-0.00709555
0.00355277
0.00338416
0.000199694
0.00166289
-0.00120571
0.0050037
-0.00664392
-0.00144552
-0.00229878
0.0187369
-0.00351084
-0.0195334
0.0169316
-0.0013094
-0.00181037
-0.0163286
-0.0118113
-0.000756933
0.00320492
-0.00870527
-0.0105783
-0.0130572
0.00644978
-0.00595643
-0.00494877
0.0008469
0.00133965
0.000379018
-0.00208691
-0.004251
-0.000991301
0.00396076
-0.00259202
-0.000414709
0.00179723
-0.00237521
0.00130668
-0.00381049
0.00672444
0.000676562
-0.0110551
0.000638483
-0.00348245
0.0104007
-0.00346134
-0.00447865
-0.0189169
0.0138836
-0.0117823
-0.0194207
-0.0117425
0.00784571
0.00430849
-0.0266202
-0.0153462
0.00257906
0.00932461
0.0105309
-0.0356122
-0.0164321
0.013073
0.00183214
0.0104167
-0.0423287
-0.0146035
0.00983352
8.55493e-05
0.0112976
-0.0437012
-0.0107717
0.00323109
-0.00152787
0.0103365
-0.0431983
-0.00615657
-0.00150919
-0.00183719
0.00889022
-0.0395188
-0.00333384
-0.00451331
0.00407351
-0.0347724
-0.00116548
-0.00712135
0.00648883
-0.00305645
-0.0322125
0.0013719
-0.00612375
0.00560904
-0.0035191
-0.0291676
0.00269655
0.00447697
-0.00400795
-0.00631327
-0.0289723
0.00210603
0.00396237
-0.00358176
-0.00279395
-0.0298846
0.000242471
0.00179847
-0.00123576
-0.0278311
-0.00155619
0.00134679
-0.00195778
-0.0230427
-0.00259582
0.00152585
-0.00381475
-0.0302524
0.00168691
0.0226891
-0.0172419
-0.0594722
0.0293819
-0.0128798
0.0123436
0.00610099
-0.0199887
-0.00126896
-0.0131876
-0.0252659
-0.00928841
-0.0122973
-0.000462716
-0.00879692
-0.0112018
0.000639418
0.000282018
-0.00946921
-0.000560542
0.000506728
-0.00582891
-0.00375401
0.00145247
-0.00311849
-0.00399698
0.00104201
-0.0045489
-0.000272138
-0.00446944
0.000806499
-0.000933215
-0.00685794
0.00205618
0.000269117
-0.0108051
0.00221488
0.00165263
-0.0131198
0.000820731
0.00141536
-0.0133869
-0.000352299
0.000549666
-0.0130959
-0.00175167
0.00140658
-0.0236834
0.00142569
0.00908714
-0.0569335
0.0175339
0.0155094
-0.101431
0.00885129
0.0350736
-0.118102
-0.00590108
0.0218783
-0.127459
-0.0116304
0.0202125
-0.133883
-0.0165315
0.0221207
-0.13753
-0.0222242
0.024986
-0.138845
-0.0272933
0.0276976
-0.138752
-0.0307734
0.0297566
-0.137923
-0.0329191
0.0311648
-0.136449
-0.0341566
0.0317658
-0.134287
-0.0347924
0.0317288
-0.130432
-0.0352917
0.0305654
-0.122446
0.0277766
-0.036596
-0.103285
0.0207439
-0.0406648
-0.0534547
0.00326199
-0.0537111
-0.022611
-0.00124537
-0.0298173
-0.0123794
-0.00428756
-0.00602126
-0.0121015
0.00198699
-0.00232006
-0.0112012
0.00432314
-0.00529416
-0.00876509
0.00383716
-0.00635375
-0.00425026
0.00400187
-0.00860107
-0.00478373
0.00347166
-0.00300942
-0.00804681
-6.2083e-05
0.00327434
-0.00780777
0.00235747
-0.0026677
-0.00892147
0.00102589
-0.0137836
0.00697505
-0.00221156
-0.0166112
0.00714539
-0.00442767
-0.0188847
0.00764243
-0.0054716
-0.0237355
0.0070024
-0.00225635
-0.0532396
0.0187263
0.0105813
-0.097802
-0.00811229
0.052101
-0.110785
-0.0316761
0.0439382
-0.112251
-0.0418158
0.0424712
-0.107568
-0.0476487
0.0421432
-0.0987989
-0.0521073
0.0424815
-0.0861243
-0.0543151
0.0408158
-0.0691688
-0.0558076
0.0380321
-0.0494372
-0.0567794
0.0362817
-0.0237702
-0.0480728
0.021769
-0.0375815
0.0133726
-0.0534246
0.0232967
-0.00792083
-0.0592524
0.0255293
-0.0202044
-0.0593368
0.0268424
-0.0272842
-0.0503455
0.0265969
-0.0361145
-0.0402893
0.0244536
-0.0350127
-0.0231227
0.0165285
-0.0341623
0.00916454
-0.032726
0.0269349
0.0381598
-0.0565669
0.0507188
0.0494961
-0.074046
0.0745862
0.0495907
-0.0742779
0.0947783
0.0498409
-0.0708575
0.110561
0.0470679
-0.0637073
0.118846
0.0397702
-0.0488779
0.116879
0.0330018
-0.0318445
0.101215
0.0301116
-0.015168
0.0544869
0.0398908
0.00626351
0.0254666
0.0250568
0.00376703
0.0213612
0.00418585
-0.000185135
0.0194537
0.000597732
0.00120719
0.0158815
0.00030581
0.00315646
0.00914535
-0.000242255
0.00687987
-0.000915002
0.00997257
-0.000946329
-0.00972379
0.00965936
0.000751152
-0.0131047
0.0112982
0.00260296
-0.0142347
0.0122597
0.00411724
-0.0135663
0.0119164
0.0043787
-0.0191431
0.0187037
0.00790283
-0.028591
0.0247817
0.00385822
0.0235848
-0.0198239
-0.000176668
0.0168768
-0.0130211
-0.000386964
0.00841864
-0.00834401
-0.000549685
0.00772935
-0.00768984
-0.00109239
0.00735895
-0.00692525
0.00630594
-0.00646823
0.00343495
0.00545184
-0.000285929
0.00320931
0.00618537
0.00132716
0.00329937
0.00590896
0.00165258
0.00395501
0.00477715
0.00290762
0.0102865
0.0115959
-0.00115624
0.0193761
-0.00901462
-0.000120403
0.00905448
-0.00420726
0.0144881
-0.0230508
-0.0114015
0.043437
-0.0154884
-0.00573842
-0.0019026
-0.000974788
0.00358522
0.00485671
-0.00943245
0.00604458
-0.00259052
0.00359678
-0.00177438
-0.00826628
0.000432987
-0.00917257
-0.0102349
-0.0126079
0.0184451
-0.00490043
-0.0307197
0.00323458
0.00367507
0.00406252
-0.017636
-0.049581
0.00592307
0.0101562
0.000801499
-0.0580839
-0.0157041
0.0261663
-0.00425663
-0.0203835
0.00616094
-0.00327825
-0.0202805
0.00560333
-0.00229134
-0.020646
0.00529979
-0.000912205
-0.0190273
0.00443092
-0.0149999
0.00402486
-0.0211345
0.00228052
0.00403506
-0.0219468
-0.00133112
0.00262703
-0.0178826
8.37626e-05
0.0054618
0.0016475
-0.0465607
0.0354389
0.00832681
0.00804064
-0.114972
0.0351158
0.0514641
0.0208308
-0.125019
0.0473761
-0.00807203
-0.125807
0.054855
-0.0219324
-0.117922
0.0645968
-0.0335874
-0.102949
0.0732098
-0.041998
-0.0838519
0.0768924
-0.0470159
-0.0613294
0.0746253
-0.0483964
-0.0365467
0.0742824
-0.0503829
0.0504771
-0.032903
0.0588976
0.0457211
-0.0302954
0.0684647
0.0516706
-0.0352659
0.0687595
0.0528875
-0.0269648
0.0633248
0.0506548
-0.0202984
0.0439536
-0.00597231
-0.0881814
0.0718117
0.0027297
-0.0979832
0.0754147
-0.0158667
-0.0994782
0.0798232
-0.0263832
-0.0881411
0.0789961
-0.039605
0.0716817
-0.040728
0.0879433
0.0942057
-0.036733
0.0975823
0.101427
-0.0329998
0.0944565
0.10089
-0.0188706
0.0818877
0.0958826
-0.00879015
0.0902156
0.00683689
-0.0812307
0.103271
0.0129923
-0.0944399
0.110319
-0.00214852
-0.0983317
0.115759
-0.0119384
-0.0904359
0.116619
-0.0240486
0.11115
-0.0314089
0.0870121
0.124015
-0.0276035
0.0946648
0.128048
-0.0200582
0.0912352
0.126201
-0.00798896
0.0783054
0.120131
0.00218168
0.111923
0.0166636
-0.0724441
0.116486
0.0193555
-0.0843962
0.125223
0.00592274
-0.0867502
0.131798
-0.00422203
-0.07885
0.134204
-0.0150364
0.131156
-0.0223318
0.0682646
0.131886
-0.0150766
0.0761414
0.134596
-0.00924504
0.0750317
0.130982
0.000947611
0.0640798
0.124578
0.0106602
0.115299
0.0225841
-0.0525994
0.105597
0.0297701
-0.0646483
0.116147
0.0195363
-0.0642257
0.11974
0.00985582
-0.0562989
0.125186
0.000519264
0.126108
-0.00408729
0.0352245
0.0191182
0.0613263
0.0446155
0.0514975
0.0946019
0.0134362
0.054776
0.0923481
0.0232388
0.035763
0.0482321
0.0451371
0.0408516
0.0444472
0.0364512
0.051458
-0.0123054
0.0267975
0.0153679
0.014371
-0.018743
0.0276162
0.015071
-0.0153016
0.031083
0.0135044
-0.0135766
0.0290021
0.0142009
-0.0400442
0.0275613
0.0407607
-0.000842496
0.02483
-0.028426
-0.00829917
0.0384757
0.00579041
-0.0370095
-0.00682272
0.0299507
0.00547788
-0.0370816
-0.00461019
0.0290796
-0.0365459
0.00508387
0.0258743
0.00346134
0.00383292
0.0051406
0.00495171
0.00714404
0.00683625
0.00760652
0.00903428
0.008943
0.00839378
-0.00417068
-0.0199435
0.0156737
0.00266456
-0.000598563
0.000602978
0.00624384
0.00289723
0.00030145
-0.000538149
0.000359326
0.00408653
-0.0015535
-0.00243608
-0.00132614
0.00411738
-0.00164536
-0.000492912
0.00116981
0.0105851
0.0120878
0.0316067
-0.0532065
0.00537202
0.0178194
-0.00425572
-0.00730895
0.056818
0.00124639
-0.0150383
0.00285172
0.00349625
-0.0065476
0.0050423
0.00399494
-0.00620024
-0.0221937
0.00972993
0.0174658
-0.00935922
-0.012563
-0.000315088
0.0179381
-0.00256938
0.0238683
-0.00790921
0.0462432
-0.0127146
0.0214574
0.0766095
-0.024499
-0.0327693
0.00448888
0.00703224
0.0297614
0.00205622
-0.0175519
0.00798052
0.0136609
-0.00405169
-0.0106498
0.00841501
0.0149727
-0.00404782
-0.0114659
0.00752479
0.014459
-0.00237902
-0.0112963
0.00610038
0.0128189
-0.0104515
-0.00104169
0.00366214
0.0105568
-0.00881573
0.000609803
0.00876216
-0.00792645
0.00274599
0.00846838
-0.00314231
0.00336537
0.00806857
-0.00279517
0.0031399
0.0152451
-0.00809203
0.00083822
0.0393925
-0.0159514
-0.00841481
0.07303
-0.0388611
0.00460496
0.0831562
-0.0275811
0.0166954
0.0847628
-0.0234465
0.0210059
0.0822699
-0.0202151
0.0218354
0.0771634
-0.015838
0.0200415
0.0704308
-0.00880447
0.0146186
0.0612175
0.00148907
0.00679604
0.0427485
0.017025
0.000516078
0.015957
0.0409107
-0.0150373
-0.00447971
0.0549911
-0.0354568
-0.00143625
0.0503618
-0.0542772
0.0123106
0.0392002
-0.0537802
0.0151655
0.0264949
-0.0301083
0.00907344
0.0285037
-0.023029
0.00172666
0.0110735
-0.00394506
4.87286e-05
0.00356469
-0.00196373
-0.000816772
0.00164218
-0.000831269
-0.0022846
0.0031608
-0.0017625
0.00310395
-0.00228533
0.00344809
0.00512641
-0.00153404
0.00071488
0.00640578
-0.000587198
0.00249358
-0.00015809
0.00655705
-0.000527434
0.00218674
0.00577619
-0.00417049
0.00265183
0.00628554
0.00602248
0.000781003
0.0122035
0.0170304
-0.0116451
0.0162205
-0.0108832
0.0239968
0.0246793
-0.0309668
0.0435197
0.0148449
-0.0456445
0.0503801
0.0137242
-0.0639206
0.045831
0.0264837
-0.0794027
0.0288248
0.0266028
-0.0903107
0.00717652
0.0197839
-0.0956736
-0.00885695
0.0147358
-0.0989247
-0.0209417
0.0144221
-0.10105
-0.0294259
0.0147591
-0.101184
-0.0351163
0.0140983
-0.0977682
-0.0394341
0.01165
-0.0888675
-0.0438073
0.00641711
-0.0319857
-0.0406359
-0.0446312
-0.0114591
-0.0184761
-0.0103929
-0.0192399
0.00258618
-0.015414
-0.00707356
0.00131203
-0.00579115
0.00025641
-0.00946259
0.000854533
-0.00377011
0.00164556
-0.00744499
0.000975395
-0.00876942
0.015861
-0.000183638
-0.00791494
0.0158583
-0.00184046
-0.00611233
0.0139382
-0.00216148
-0.00195045
0.0198075
0.00565081
0.020364
0.107084
-0.0442966
-0.00961905
0.00398369
0.0306576
0.00542493
0.00759045
0.0105268
-0.00024735
0.00839949
0.0143045
0.000666077
0.0151719
0.00192488
-0.0161986
-0.0198028
-0.0126279
0.0308881
-0.0202863
0.0463278
-0.0178755
-0.0509077
0.107055
-0.0246698
-0.0519313
0.12199
-0.0150468
-0.10449
-0.044231
0.125786
-0.0301601
-0.0752633
-0.0285141
-0.0173168
-0.0288197
-0.014216
-0.00277884
-0.040287
0.0170063
-0.00205527
-0.0241099
-0.00524367
0.0279673
-0.00538925
-0.00850999
0.0163766
-0.00780161
-0.00926306
0.0145243
-0.00615018
-0.00941963
-0.0118281
-0.00268887
0.0501777
-0.0212408
-0.0125816
-0.00606531
0.000616638
-0.0119243
-0.00843389
-0.000106575
-0.0087443
-0.00709544
-0.00156619
-0.00498915
-0.00434006
-0.00157007
-0.00012898
-0.000745389
-0.00372644
-0.000454623
-0.0098619
3.90397e-06
0.000443186
0.00127428
-0.00169534
0.00137395
-0.00206398
0.00334555
0.00175039
-0.00263778
0.00436964
0.00205628
-0.00196988
0.00371515
0.00174915
0.00267042
0.000703295
0.00449274
0.00263823
-0.00105781
0.00468523
0.00384783
-0.00040095
0.00453637
0.00492341
-0.000485965
0.00482499
-0.00074297
-0.00632573
0.0108738
-0.0041736
-0.00616744
0.0108991
-0.00624571
-0.00531084
0.0100548
-0.00716907
0.00901291
-0.00777488
0.0065494
0.0118734
-0.00566007
0.00796603
0.0136013
-0.00506183
0.00814283
0.0151217
-0.00450585
0.0149263
-0.00311173
-0.00915644
0.0168686
-0.00132006
-0.00928776
0.0178752
-0.00272837
-0.00963954
0.0177737
-0.00392509
0.010483
-0.00400252
0.0128632
-0.000414973
0.0102193
-0.00167253
0.00747394
0.023297
-0.0028913
0.00732184
0.0183113
-0.000374162
0.0173032
0.00074322
-0.00878821
0.048469
-0.0251987
-0.00516497
0.0421859
-0.0276424
0.0450076
-0.0282927
0.0292483
0.117735
-0.0575116
0.127583
-0.0450263
0.0506011
0.135053
-0.0385407
-0.0205768
0.0552223
0.134992
-0.0149435
0.0518504
0.130264
-0.00601819
0.115462
-0.00140975
-0.0500795
0.119969
0.00511756
-0.0557876
0.135275
-0.000386318
-0.0533343
0.140947
-0.00949101
-0.0447165
-0.0146119
0.140027
-0.128319
-0.0232874
0.133745
-0.0292886
-0.0127882
-0.0511142
-0.114462
0.0285482
0.119464
-0.106172
-0.0667202
0.118522
-0.03843
-0.0495658
-0.0680146
-0.0048591
0.013849
-0.0135091
-0.0193471
-0.0195768
-0.00999019
-0.00603043
-0.013129
-0.00290577
-0.0140197
-0.00405627
0.00257226
-0.0143916
-0.00816705
0.00316451
-0.0127492
-0.0106034
0.00252059
-0.00980056
-0.0144902
0.00285004
-0.0107361
0.00113801
-0.0137669
0.0160519
-0.0137235
0.000606216
-0.00947784
-8.18198e-05
-0.0153338
0.0144728
-0.0015856
-0.0167329
0.0116534
-0.00271625
-0.0180143
0.00965947
-0.00145969
0.0149452
-0.0254246
0.0110676
0.0252074
0.0186968
0.0207001
-0.0497954
0.0188563
0.016148
0.0178008
-0.0277294
0.0305726
0.016031
0.0191426
-0.0470257
0.0213668
0.0134085
-0.0227003
0.0183692
0.0392648
-0.0421663
0.00892055
0.015247
0.0200847
0.0463704
-0.0101166
-0.0171751
0.0253592
0.0301449
-0.0202576
-0.01529
-0.0172357
-0.0206166
0.00990178
-0.0182656
0.00381323
-0.0127676
-0.0179509
0.00436761
-0.0172372
-0.0122764
0.0032981
-0.0161241
-0.0140886
0.00227374
-0.0167589
0.00208953
-0.0176592
-0.0170359
0.0174537
0.000365985
-0.016249
-0.000778977
-0.018351
0.0156379
-0.0019946
0.0130065
-0.00309118
0.0175293
0.0143283
-0.00279018
0.0174332
-0.00141064
0.01646
0.018246
-0.0170087
-0.000369292
0.018392
0.00132596
-0.0151026
0.00285214
-0.0154653
0.00100518
0.0175071
-0.0154126
-0.00120325
0.0144827
-0.00214698
-0.00753336
-0.0160214
0.023593
0.0168374
-0.00150109
-0.0143803
-0.0171469
-0.0261948
-0.0242568
-0.002656
-0.105132
0.103849
0.00755035
0.00121664
0.0182224
0.012693
0.0238861
0.0146721
-0.0202557
0.0176242
-0.00845852
0.0179376
-0.0122456
-0.00477123
0.00235397
-0.000511112
-0.00554462
0.00484348
-0.00582646
-0.00170433
-0.00210152
-0.0021707
-0.00378636
0.0131418
-0.000991069
-0.00315804
-0.00140252
-0.00337888
0.0163536
-0.0200504
-0.0115649
0.0154493
0.00688344
-0.0116143
0.0175712
0.00911365
-0.0132837
0.0201818
0.00893381
-0.0142235
0.0229282
0.00891788
0.0301376
0.0120022
0.00991291
0.0134538
0.0125038
0.00950516
0.0132395
0.00991719
0.00786531
0.011899
0.00975189
0.00608653
0.010782
0.0084139
0.00998549
0.00699774
-0.00221238
0.00342131
-0.00262853
0.00416034
-0.00330029
0.00475624
-0.00393974
0.0054023
0.00651125
0.00165864
0.00289995
0.00142814
0.000514696
0.000411803
0.0013928
-0.000148432
0.00198484
-0.00154259
-3.33997e-05
-0.000932002
0.00195551
0.000957897
-0.000328737
0.000786742
-0.00042575
0.00182953
-0.00111447
0.00121599
-0.000530387
0.000313098
-1.89379e-06
0.00202277
-0.0017465
3.3531e-05
0.003787
-0.000552653
-0.00359089
0.0111491
-0.00637673
0.00360808
-0.0180074
0.00332908
0.0170591
0.00391487
-0.018114
0.0204278
0.00713847
0.00295689
0.0067626
-0.0170523
0.020842
0.000306662
0.0059552
0.0197881
-0.0148258
-0.0136098
0.0141842
0.00503115
0.0109819
-0.00739587
0.0171763
-0.00766649
0.0172774
0.0109007
-0.000428717
0.0199781
0.00717308
0.00333286
-0.0011506
0.00152993
-0.00351938
0.000373753
-0.0022891
0.0125941
0.00135514
-0.00233408
0.00078019
0.000619398
-0.000776219
0.00151012
-0.000567172
0.00155863
-0.000392655
-0.00124146
0.00106567
-0.00206851
0.000898151
-0.000211548
-0.000224672
-0.00163377
-0.000454156
-0.00209347
0.000248132
-0.00185487
0.00140181
-0.00137975
0.000390795
0.000111273
-0.00188308
0.000169983
-0.00141438
-0.000659265
-0.00126616
-0.00240472
0.00115064
0.00123825
0.000227672
0.000472878
-0.00129817
0.000445783
-0.00168192
-0.000479329
0.000535686
0.00038791
0.000109143
6.73722e-05
-0.000657197
0.00104327
0.00030239
0.000310765
-0.000890441
-0.00161144
0.00280924
-0.000774861
0.000269679
0.000179483
-0.00088938
-0.00113251
0.00380005
0.00137199
-0.000361411
-0.00303006
0.0122691
-0.00264512
-0.00129319
-0.00174684
5.89508e-06
-0.000829264
0.000256361
-0.000723217
0.000329626
-4.36642e-05
-0.0011176
-4.83347e-05
0.00188116
-0.000307373
-0.00162545
-0.00132149
0.00320422
-0.000893713
-0.000174555
-0.00124729
0.00111399
0.00204058
0.000344134
0.000324374
0.0009202
-0.000133156
0.00191377
-0.00141623
-0.000176517
-0.00136959
0.00320103
7.7965e-05
-0.000647227
0.000194656
0.00285884
-0.0040521
0.0132996
-0.0011048
-0.0180395
0.000712869
0.00704788
0.0245408
-0.0164713
0.0218975
0.00640187
-0.0177537
0.0225852
-0.00212754
-0.014894
-0.00440912
-0.0206618
-0.0218349
-0.00633422
-0.0218654
-0.0057466
0.0151589
-0.00257051
0.0197607
0.031752
0.0374157
-0.023653
-0.101001
0.0665932
-0.0966321
0.0700753
-0.107706
0.0712931
-0.0171251
-0.109954
0.0687154
-0.0248724
-0.106505
0.067471
-0.0296677
-0.0980376
0.0663073
-0.0331944
-0.0859589
0.0636403
-0.0357974
-0.0685589
0.0576863
-0.0379379
-0.0487901
0.0532837
-0.0376711
-0.0386838
0.0426473
-0.031732
0.00420292
-0.0299254
0.0166762
0.0323265
-0.0454672
0.0144322
0.0446746
-0.0430982
-0.00715474
0.0477103
-0.0265347
-0.0342648
0.0266713
-0.0510316
-0.0128787
0.0291783
-0.0597254
-0.0244677
0.0326586
-0.0620529
-0.0309829
0.0327841
-0.0556304
-0.0382009
0.0312521
-0.0475772
-0.0352893
0.0267332
-0.0301768
-0.0335641
0.0156965
0.00328369
-0.0338992
0.0202165
0.0443762
-0.0619459
0.0430816
0.0553989
-0.0790301
0.0683185
0.0546395
-0.0806963
0.0882714
0.0522214
-0.072999
0.0993419
0.0476612
-0.0595885
0.100234
0.040022
-0.0417363
0.0945042
0.0341427
-0.0292234
0.0826316
0.030896
-0.0197438
0.0466817
0.0377652
-0.00238887
0.0224933
0.0228833
0.00110867
0.0193363
0.00392064
-0.000868379
0.0179631
0.000509147
0.000761228
0.0148017
0.000144386
0.00290666
0.00854396
1.32444e-05
0.00614555
0.00906876
-0.000612435
0.00715472
0.0034845
-0.00164109
0.00454951
0.003884
-0.00132591
0.00476983
0.00171382
-0.00199696
0.00574945
0.0019157
-0.00297418
0.0054704
0.00309582
-0.00289459
0.00434653
0.00336639
-0.00231208
0.00335973
0.00272307
-0.0017909
0.00551676
0.00164908
-0.00388313
0.0110277
0.00206945
-0.00779894
-0.0216184
0.032414
-0.000385933
-0.0492884
0.0240027
0.00290806
-0.0627353
0.011874
0.00073901
-0.0669107
0.00101313
0.00228921
-0.0691995
-0.0129636
0.0143479
-0.0733914
-0.0282196
0.0314894
-0.0744085
-0.0435823
0.0436623
-0.0717153
-0.0575773
0.0539391
-0.0618502
-0.0702399
0.0594227
-0.0443074
-0.0803181
0.0618181
-0.0170891
-0.0868166
0.0586349
0.0165834
-0.0828112
0.0481778
0.0319671
-0.0571428
0.0407978
0.0309971
-0.0440411
0.0440886
0.0233271
-0.0345311
0.0412977
0.00924209
-0.0256395
0.0388973
-0.00103632
-0.0229255
0.032402
-0.0348057
0.0330201
-0.0501479
-0.0194029
0.0339471
-0.0572509
-0.0341732
0.0404655
-0.0576833
-0.0490093
0.048567
-0.0492001
-0.0640866
0.0547282
-0.0253721
-0.0817115
0.0569846
0.00463882
-0.0833533
0.0524663
0.0100177
-0.0475639
0.0413196
-0.007448
-0.0267232
0.0433789
-0.0208165
-0.0282981
0.0408807
-0.0047119
-0.0601757
0.0433328
-0.0519948
0.0428854
-0.0148142
-0.0687104
0.0016771
0.0185082
-0.0546728
-0.0397101
0.0284732
-0.0392705
0.000131888
0.0321603
-0.0480975
0.016793
0.0304628
-0.0781745
0.0313837
0.0409627
-0.126762
0.0319698
0.0541
-0.123392
0.0275979
0.0566186
-0.0960689
0.0285324
0.0515523
-0.0725282
0.0276796
0.0410406
-0.0515812
0.0270597
-0.0300014
0.0278909
-0.0367436
-0.0465306
0.0267623
-0.038831
-0.0559099
0.0225368
-0.0332224
-0.0669546
0.0163346
-0.00477217
-0.0823343
-0.00425677
0.0355338
-0.11787
-0.00625305
0.0606379
-0.124329
0.0114022
0.0751698
-0.117827
0.0219759
0.0817989
-0.10313
0.0252647
0.0809603
-0.0841711
0.0264425
0.0770685
-0.0631975
0.0225245
0.0702014
-0.0413105
0.0189862
0.0658474
-0.0196257
0.010058
0.0599995
0.00060825
0.00531127
0.0472032
0.016205
0.00753864
0.0229181
0.033244
0.0141276
-0.00858705
0.00104983
0.0462068
0.0156767
0.00833863
-0.00328477
-0.00882434
-0.00497048
0.0150415
-0.00267671
-0.00311287
0.0106021
-0.00222705
0.00708052
-0.000542252
0.0143743
-0.000629502
-0.00553344
0.00228941
-0.00663003
0.0269278
0.00273414
-0.00875833
-0.0076708
-0.00113649
0.00149811
-0.00796397
-0.00344787
0.00143881
-0.00666217
-0.00465008
0.000589218
-0.0049527
-0.00542215
0.000346479
0.00215969
-0.00391466
-0.000528908
0.004827
-0.00104152
-0.00198012
-0.00032152
-0.000397063
-0.00126547
-0.000733409
-0.000631678
-0.000567348
-0.000578366
0.000409739
-0.0010799
-0.00339926
0.0131656
-0.00544122
-0.0118931
0.00297587
0.0228588
-0.00769182
-0.00997174
0.0654925
-0.0314052
-0.0291355
0.0165384
0.0639127
-0.024224
0.027804
0.0496161
-0.0189448
0.0330589
0.013462
-0.0104493