/*--------------------------------*- C++ -*----------------------------------*\
| =========                 |                                                 |
| \\      /  F ield         | OpenFOAM: The Open Source CFD Toolbox           |
|  \\    /   O peration     | Version:  v2012                                 |
|   \\  /    A nd           | Website:  www.openfoam.com                      |
|    \\/     M anipulation  |                                                 |
\*---------------------------------------------------------------------------*/
FoamFile
{
    version     2.0;
    format      ascii;
    class       volVectorField;
    location    "135";
    object      U;
}
// * * * * * * * * * * * * * * * * * * * * * * * * * * * * * * * * * * * * * //

dimensions      [0 1 -1 0 0 0 0];


internalField   nonuniform List<vector> 
18258
(
(-0.177836 0.125008 0.135401)
(-0.0526496 0.247997 0.154293)
(-0.105161 0.218888 0.0965306)
(-0.033561 0.0741745 0.0830017)
(-0.225548 0.208435 0.0145633)
(-0.156906 0.36929 0.013005)
(-0.220841 0.0466217 0.0509134)
(-0.338695 -0.0494675 0.0729966)
(-0.445322 -0.103533 0.106941)
(-0.531986 -0.157925 0.144904)
(-0.618356 -0.215828 0.179252)
(-0.685178 -0.270345 0.308784)
(-0.676822 -0.333198 0.35684)
(-0.620637 -0.444621 0.385656)
(-0.486818 -0.54232 0.369551)
(-0.204784 -0.586423 0.340521)
(0.0730746 -0.374105 0.288446)
(0.0784887 -0.165345 0.298123)
(-0.12624 -0.078682 0.235614)
(-0.39485 -0.274304 0.115636)
(-0.135337 -0.523579 0.288604)
(-0.190494 -0.363398 0.405829)
(-0.292561 -0.733895 0.299118)
(-0.350552 -0.774961 0.262423)
(-0.126775 -0.708889 0.138748)
(0.00867027 -0.644653 0.18654)
(-0.0132703 -0.337422 0.421462)
(0.176246 -0.111423 0.800644)
(0.299961 -0.0945752 0.885784)
(0.317542 0.0585075 0.902013)
(0.320135 0.188662 0.798698)
(0.164009 0.302185 0.0711209)
(0.0866291 0.117778 -0.435355)
(0.0237151 0.069596 -0.73219)
(-0.0579111 0.0712307 -0.903676)
(-0.0487843 0.0687613 -1.0842)
(-0.0634065 0.0685065 -1.22746)
(-0.0910149 0.0870243 -1.32479)
(-0.130345 0.0775415 -1.37389)
(-0.175973 0.0827805 -1.36024)
(-0.22469 0.0686681 -1.27614)
(-0.270106 0.0769595 -1.12211)
(-0.307888 0.071466 -0.910884)
(-0.338358 0.0711449 -0.654956)
(-0.349365 0.0723193 -0.359308)
(-0.334938 0.0679087 -0.159199)
(-0.166303 0.145999 -0.204271)
(0.33165 -0.0952218 -0.140727)
(0.586358 -0.132332 -0.163795)
(0.650067 -0.110805 -0.171767)
(0.770599 -0.135009 -0.17956)
(0.804747 -0.13342 -0.196001)
(0.505207 -0.00768073 -0.258037)
(0.259377 -0.138322 -0.218895)
(0.113672 -0.0424984 -0.159214)
(0.282932 -0.00981789 -0.16927)
(0.538324 -0.00268973 -0.173805)
(0.792812 -0.0300778 -0.177976)
(1.09347 -0.034698 -0.175715)
(1.42938 -0.0487937 -0.185149)
(1.7641 -0.064525 -0.183515)
(2.04835 -0.0811115 -0.166615)
(2.24913 -0.0928428 -0.138212)
(2.34951 -0.0989924 -0.102636)
(2.35649 -0.0963376 -0.0680981)
(2.29647 -0.0886533 -0.0414623)
(2.2032 -0.082108 -0.0247448)
(2.11092 -0.0759366 -0.0179413)
(2.04161 -0.0670878 -0.0188786)
(1.99605 -0.0641768 -0.0234411)
(1.97177 -0.0589866 -0.0257526)
(1.96123 -0.0500363 -0.0201171)
(1.94692 -0.0394836 -0.00303334)
(1.90336 -0.0246167 0.0245899)
(1.81563 -0.00753173 0.0541864)
(1.69449 0.00989906 0.0775245)
(1.57354 0.0221304 0.0803651)
(1.48089 0.0311459 0.0756893)
(1.40282 0.0382712 0.0709582)
(1.34052 0.0511955 0.0635464)
(1.28965 0.0578435 0.0654231)
(1.19607 0.0448512 0.0791612)
(1.09916 0.0194996 0.110999)
(1.0165 0.0012041 0.128566)
(0.909447 -0.0203908 0.121692)
(0.765402 0.0170638 0.146787)
(0.644394 0.0819809 0.133871)
(0.520532 0.100896 0.134893)
(0.383225 0.118495 0.119349)
(0.226118 0.127607 0.0974021)
(0.121098 0.18965 0.0928871)
(0.123468 0.00958598 0.198797)
(0.165098 -0.101168 0.145622)
(0.114234 -0.129865 0.0422424)
(0.105935 -0.11543 -0.138877)
(0.218549 -0.210817 -0.365648)
(0.264526 -0.235711 -0.551096)
(0.206464 -0.144406 -0.728737)
(0.108697 -0.0872595 -0.723023)
(0.0368752 0.0464307 -0.508743)
(-0.0673632 0.219207 -0.221702)
(-0.209136 0.205007 0.169533)
(-0.23372 0.0677524 0.142494)
(-0.338782 0.0196978 0.160788)
(-0.263636 0.148872 0.167241)
(-0.236427 0.292163 -0.0832636)
(-0.10614 0.153514 -0.415851)
(0.069597 -0.00197268 -0.593868)
(0.338434 -0.0974812 -0.631335)
(0.500047 -0.231927 -0.485811)
(0.353465 -0.210874 -0.275945)
(0.272949 -0.191518 -0.0976729)
(0.284265 -0.186356 0.0422365)
(0.282069 -0.139972 0.161974)
(0.227128 -0.0990249 0.192894)
(0.398798 -0.0810172 0.18203)
(0.53837 -0.0630237 0.177498)
(0.590963 -0.0517763 0.165424)
(0.703199 -0.0784425 0.161658)
(0.735442 -0.133436 0.133792)
(0.603365 -0.13406 0.13659)
(0.456365 -0.151506 0.141256)
(0.463275 -0.18551 0.0378473)
(0.613089 -0.16265 0.0535998)
(0.738895 -0.161916 0.051047)
(0.907579 -0.14147 0.0827196)
(1.09098 -0.109704 0.112131)
(1.19202 -0.0775598 0.149447)
(1.21124 -0.0104044 0.140794)
(1.24841 -0.00878137 0.121215)
(1.33824 -0.00671185 0.140714)
(1.38031 -0.00142189 0.130508)
(1.37181 -0.0122874 0.159474)
(1.33121 -0.0480219 0.194892)
(1.32549 -0.0509633 0.191804)
(1.28819 -0.0619433 0.153115)
(1.28161 -0.0602302 0.136344)
(1.26146 -0.0482131 0.108966)
(1.2532 -0.0462095 0.110986)
(1.20623 0.00317005 0.109062)
(1.19903 0.0260969 0.137122)
(1.08476 0.134474 0.268663)
(1.23087 0.051315 0.251499)
(1.22299 0.0189285 0.157889)
(1.27044 -0.0212468 0.128389)
(1.28212 -0.0253671 0.119397)
(1.2916 -0.0382518 0.145225)
(1.31039 -0.041453 0.184396)
(1.3532 -0.0365977 0.218423)
(1.38908 -0.036548 0.223352)
(1.42604 -0.012576 0.184291)
(1.43955 -0.00167475 0.13881)
(1.51566 -0.00631755 0.151957)
(1.61366 -0.0165238 0.160046)
(1.75307 -0.0314627 0.144386)
(1.88541 -0.0540867 0.049548)
(1.96697 -0.075591 -0.0709142)
(1.98642 -0.0905152 -0.164215)
(1.96894 -0.0966346 -0.200672)
(1.9525 -0.0970846 -0.194764)
(1.96249 -0.091566 -0.17511)
(2.00929 -0.0831587 -0.144896)
(2.09054 -0.0708304 -0.108493)
(2.20153 -0.0606833 -0.0849033)
(2.31536 -0.0603587 -0.113793)
(2.39188 -0.0613973 -0.174099)
(2.39429 -0.0589009 -0.277762)
(2.28826 -0.0505316 -0.392744)
(2.07278 -0.0427149 -0.483972)
(1.77237 -0.0368357 -0.540337)
(1.42847 -0.0316477 -0.549085)
(1.08235 -0.0193784 -0.52791)
(0.79364 -0.024398 -0.459645)
(0.537767 -0.0158128 -0.415852)
(0.283536 -0.0212702 -0.387299)
(0.109279 -0.0401045 -0.36137)
(0.102376 -0.0419055 -0.638148)
(0.0775164 -0.0370132 -0.874433)
(0.0507968 -0.0389036 -1.05903)
(0.0119102 -0.0401612 -1.17771)
(-0.0231977 -0.0278712 -1.2175)
(-0.0597846 -0.0154848 -1.17003)
(-0.0934983 0.00333412 -1.04127)
(-0.118931 0.026493 -0.825405)
(-0.121346 0.0816077 -0.563222)
(-0.145829 0.133091 -0.0518552)
(-0.191758 0.0271286 0.564868)
(-0.207658 -0.0329531 0.751248)
(-0.226279 -0.00159416 0.920064)
(-0.231458 -0.0442079 1.06251)
(-0.317242 -0.103325 1.12476)
(-0.370584 -0.109115 1.13864)
(-0.3686 -0.231469 1.0009)
(-0.29551 -0.249933 0.769137)
(-0.457738 -0.664389 0.686309)
(-0.485155 -0.541667 0.703948)
(-0.413539 -0.410049 0.830884)
(-0.550184 -0.763584 0.853951)
(-0.685602 -0.829408 0.602472)
(-0.475639 -0.752031 0.798423)
(-0.436643 -0.573303 0.740032)
(-0.785094 -0.523608 0.745797)
(-0.905134 -0.407217 0.854345)
(-0.531554 -0.704691 0.81838)
(-0.441438 -0.576966 0.659159)
(-0.320641 -0.317212 0.39889)
(-0.299074 -0.178293 0.392911)
(-0.282023 -0.142627 0.345956)
(-0.232887 0.11667 0.107085)
(-0.162489 0.294195 -0.420803)
(-0.152503 0.18374 -0.640208)
(-0.131812 0.0276716 -0.915799)
(-0.086628 -0.0570621 -1.08722)
(-0.0286004 -0.0692513 -1.23499)
(0.0381802 -0.101614 -1.2698)
(0.0977902 -0.0983563 -1.23489)
(0.172042 -0.109072 -1.12105)
(0.216099 -0.123319 -0.921185)
(0.260196 -0.14672 -0.706529)
(0.249236 -0.139377 -0.399241)
(0.417521 -0.0514207 -0.638804)
(0.764146 -0.117559 -0.460621)
(0.712994 -0.107997 -0.417931)
(0.60661 -0.0725708 -0.413171)
(0.521866 -0.107471 -0.425142)
(0.0970835 -0.1125 -0.539891)
(0.153818 -0.12283 -0.936289)
(0.241866 -0.228186 -1.08816)
(0.333226 -0.285487 -0.972656)
(0.391355 -0.354419 -0.539519)
(0.200866 0.0107594 0.164885)
(0.260659 0.103889 0.172707)
(0.428091 -0.3258 0.331639)
(0.515531 -0.528487 0.5027)
(0.544723 -0.521087 0.551822)
(0.412342 -0.233793 0.6744)
(0.471543 -0.335782 0.566397)
(0.486954 -0.606687 0.551967)
(0.702835 -0.670281 0.320361)
(0.745085 -0.485048 0.458433)
(0.795814 -0.344672 0.598899)
(0.230926 -0.223328 0.572086)
(-0.242894 -0.266627 0.822476)
(-0.181359 -0.191052 0.672307)
(-0.677127 -0.298294 0.814865)
(-0.476389 -0.178279 0.687923)
(-0.325428 -0.000461049 0.536503)
(-0.218786 0.173232 -0.298507)
(-0.192864 -0.045256 -0.620506)
(-0.0567554 -0.168845 -1.10172)
(0.103823 -0.157729 -1.25089)
(0.27447 -0.0877693 -1.11903)
(0.42953 -0.106004 -0.704398)
(0.494055 -0.0729816 -0.631576)
(0.48343 -0.0421275 -0.624396)
(0.522568 -0.0886119 -0.655771)
(0.575214 -0.121217 -0.748333)
(0.387953 -0.0417405 -0.695139)
(0.350684 -0.0777256 -0.67324)
(0.129825 -0.1119 -0.67728)
(-0.110562 -0.0494663 -0.588305)
(0.286622 0.00021275 -0.60124)
(0.341779 0.0101508 -0.625869)
(0.628311 -0.102064 -0.662755)
(0.574621 -0.0990083 -0.415183)
(0.265254 0.0660316 -0.390717)
(0.279011 0.0510073 -0.286625)
(-0.306481 -0.043342 0.0887617)
(-0.307752 0.143903 -0.0139961)
(-0.282193 -0.02435 -0.454808)
(0.0832735 -0.198699 -0.581709)
(0.356484 -0.277089 -0.57327)
(0.720955 -0.342326 -0.40911)
(0.807871 -0.415333 -0.379577)
(0.767957 -0.288564 -0.297286)
(0.810067 -0.362641 -0.2209)
(0.825656 -0.48334 -0.285441)
(0.737362 -0.427326 -0.280782)
(0.71237 -0.301709 -0.335017)
(0.7407 -0.249555 -0.344931)
(0.787277 -0.309476 -0.213897)
(0.80012 -0.365534 -0.162223)
(0.890729 -0.463703 -0.157017)
(1.15803 -0.629757 -0.117903)
(1.61783 -0.725211 -0.0991116)
(1.99585 -0.671409 -0.0382172)
(2.15275 -0.489777 0.0473534)
(2.07301 -0.290733 0.0956283)
(1.90771 -0.162497 0.103325)
(1.81012 -0.0938307 0.099718)
(1.71332 0.00210052 0.0992116)
(1.57582 0.0910888 0.0913876)
(1.43845 0.109948 0.0484244)
(1.33387 0.0603772 0.0277529)
(1.24407 -0.00161461 0.0221543)
(1.14236 -0.0510931 0.0239578)
(1.05838 -0.0761436 0.0221051)
(1.00084 -0.0602744 0.0177398)
(0.824962 -0.108246 -0.0230588)
(0.719536 0.00432334 0.0109826)
(0.636015 0.0707623 0.00987607)
(0.499935 0.0257906 0.00754537)
(0.361129 -0.0589408 -0.0125852)
(0.139692 -0.146014 -0.0316501)
(0.226434 -0.308375 0.00124269)
(0.354451 -0.0820762 0.0119158)
(-0.00232588 -0.230453 -0.00918142)
(0.043307 -0.546948 -0.0504288)
(0.0121964 -0.713708 -0.0525407)
(-0.00790086 -0.877917 -0.0531946)
(-0.0258982 -1.00813 -0.0649117)
(-0.0359585 -1.10422 -0.0957738)
(-0.0464608 -1.15873 -0.105072)
(-0.057996 -1.21618 -0.118257)
(-0.0882684 -1.27806 -0.13426)
(-0.113417 -1.32289 -0.149551)
(-0.137405 -1.35672 -0.162434)
(-0.159421 -1.37844 -0.173443)
(-0.178432 -1.38979 -0.183042)
(-0.193801 -1.39136 -0.189687)
(-0.205895 -1.38412 -0.193473)
(-0.215867 -1.36923 -0.193536)
(-0.224373 -1.34716 -0.191576)
(-0.232613 -1.31655 -0.186105)
(-0.240249 -1.27549 -0.177736)
(-0.245681 -1.22105 -0.164694)
(-0.243559 -1.15174 -0.146978)
(-0.19073 -1.07205 -0.12665)
(-0.141095 -0.969311 -0.112318)
(-0.165591 -0.868731 -0.0793068)
(-0.189564 -0.75467 -0.0816808)
(-0.204755 -0.543223 -0.0852684)
(-0.273322 -0.450148 -0.0917324)
(0.022558 0.0529555 -0.11595)
(-0.350516 -0.308028 0.0252534)
(-0.231501 -0.616809 -0.0544674)
(-0.270038 -0.0990507 -0.0109686)
(-0.457363 -0.182317 0.0646351)
(-0.677706 -0.19857 0.0823214)
(-0.840926 -0.209183 0.114063)
(-0.952223 -0.223055 0.14414)
(-1.03294 -0.232478 0.20371)
(-1.1163 -0.244261 0.245235)
(-1.18552 -0.244171 0.301933)
(-1.19924 -0.248402 0.336159)
(-1.17238 -0.250171 0.366014)
(-1.10565 -0.248889 0.394255)
(-0.995156 -0.243232 0.422372)
(-0.840913 -0.230253 0.453735)
(-0.667419 -0.206039 0.493105)
(-0.420618 -0.147004 0.542071)
(-0.138121 -0.118333 0.565933)
(-0.156589 0.0284616 0.821683)
(-0.16011 0.0827465 1.04192)
(-0.159868 0.114856 1.11196)
(-0.161012 0.163779 1.02093)
(-0.164095 0.152685 0.838582)
(-0.150372 0.130595 0.568488)
(-0.121085 0.142975 0.286654)
(-0.222604 0.44037 0.37137)
(-0.504159 0.467901 0.334783)
(-0.689398 0.480518 0.339028)
(-0.914404 0.465479 0.332822)
(-1.09692 0.425122 0.309011)
(-1.22472 0.353973 0.266444)
(-1.2813 0.274072 0.219352)
(-1.26475 0.206691 0.182046)
(-1.23221 0.148389 0.158769)
(-1.18947 0.115657 0.140838)
(-1.1 0.0928971 0.0905196)
(-0.958395 0.0455568 0.0701312)
(-0.767233 -0.0202765 0.0596642)
(-0.50097 -0.113441 0.0191257)
(-0.253545 -0.207346 -0.0187915)
(-0.274425 -0.197127 -0.0655248)
(-0.318316 -0.176491 0.00939418)
(-0.314519 -0.173719 0.0609505)
(-0.272757 -0.156371 0.152383)
(-0.380308 -0.233509 0.120152)
(-0.42188 -0.296592 0.120022)
(-0.32598 -0.287741 0.178228)
(-0.269081 -0.214936 0.0463021)
(-0.140008 -0.100618 -0.0258155)
(-0.140477 -0.0764815 -0.00729967)
(-0.138218 -0.0738545 -0.0357003)
(-0.169069 -0.055413 -0.0680295)
(-0.16773 -0.500888 -0.148712)
(-0.126093 -0.479041 -0.138351)
(-0.110495 -0.446448 -0.0956145)
(-0.10013 -0.423353 -0.145367)
(-0.266053 -0.53755 -0.0306956)
(-0.275958 -0.574915 -0.0246488)
(-0.28371 -0.631359 -0.0824711)
(-0.337107 -0.582126 -0.018415)
(-0.33975 -0.529373 0.0565762)
(-0.300888 -0.358655 0.0867637)
(-0.443714 -0.316652 0.115897)
(-0.361233 -0.431271 0.0414734)
(-0.347366 -0.522195 0.0152094)
(-0.377697 -0.507847 -0.0223799)
(-0.428068 -0.394055 0.033302)
(-0.496942 -0.346388 0.0741285)
(-0.52806 -0.254686 0.164877)
(-0.590192 -0.215354 0.24238)
(-0.679271 -0.197444 0.256985)
(-0.57589 -0.206526 0.212633)
(-0.516649 -0.187517 0.182278)
(-0.545081 -0.184609 0.118883)
(-0.539646 -0.171631 0.0926392)
(-0.496587 -0.18371 0.00120444)
(-0.762064 -0.086326 0.064854)
(-0.972115 -0.00501479 0.089939)
(-1.0796 0.0525401 0.10385)
(-1.12874 0.0754867 0.138541)
(-1.166 0.0361059 0.23843)
(-1.25041 0.0692984 0.267737)
(-1.31583 0.119729 0.349699)
(-1.32889 0.171288 0.432488)
(-1.27088 0.22234 0.524894)
(-1.14536 0.261167 0.604262)
(-0.972509 0.281121 0.648463)
(-0.772715 0.283082 0.657171)
(-0.620658 0.288361 0.644089)
(-0.340449 0.272208 0.644847)
(-0.434465 0.244202 0.875115)
(-0.466848 0.226645 1.00333)
(-0.460268 0.178921 1.08157)
(-0.441391 0.122924 1.01357)
(-0.440147 0.0581586 0.797465)
(-0.710837 -0.00534492 0.744004)
(-0.721132 0.0710689 0.944488)
(-0.739355 0.11689 1.0233)
(-0.743512 0.164061 0.979089)
(-0.69303 0.198637 0.871732)
(-0.835622 0.186196 0.861503)
(-0.877761 0.145893 0.96443)
(-0.881052 0.088229 1.00074)
(-0.871792 0.0417859 0.926023)
(-0.865819 -0.0391474 0.706613)
(-1.00863 -0.0603665 0.675498)
(-1.02281 0.020439 0.900808)
(-1.03542 0.06953 0.965975)
(-1.04333 0.122041 0.943802)
(-1.01809 0.173924 0.853707)
(-1.16177 0.163053 0.804244)
(-1.16253 0.110669 0.892812)
(-1.14598 0.0571694 0.914576)
(-1.12908 0.00643413 0.859269)
(-1.10931 -0.0731039 0.639873)
(-1.16927 -0.0837158 0.595377)
(-1.1946 -0.00620853 0.796858)
(-1.22085 0.0436724 0.840314)
(-1.2502 0.0919479 0.811919)
(-1.26783 0.141537 0.717498)
(-1.31788 0.111058 0.610999)
(-1.28923 0.0689721 0.70985)
(-1.25064 0.025058 0.747643)
(-1.21523 -0.0217114 0.716524)
(-1.18521 -0.0934864 0.539754)
(-1.15201 -0.104703 0.472769)
(-1.18015 -0.0413635 0.62161)
(-1.2191 0.000250844 0.641217)
(-1.27368 0.0392506 0.607122)
(-1.30704 0.0744355 0.509947)
(-1.22439 0.0358732 0.415107)
(-1.18719 0.00295014 0.500801)
(-1.12717 -0.0321404 0.531752)
(-1.08483 -0.0600651 0.52056)
(-1.0385 -0.111759 0.386935)
(-0.917709 -0.120134 0.315339)
(-0.922011 -0.109369 0.358435)
(-0.971401 -0.0803852 0.438657)
(-0.955278 -0.0870379 0.425522)
(-0.926654 -0.102592 0.395453)
(-1.00367 -0.068392 0.382162)
(-0.995789 -0.0629148 0.308179)
(-1.00074 -0.0390551 0.283532)
(-1.0442 -0.0269841 0.209826)
(-1.03926 -0.00926558 0.20301)
(-0.806438 -0.104904 0.145917)
(-0.819328 -0.125024 0.158659)
(-0.788052 -0.128294 0.21709)
(-0.823634 -0.141349 0.250246)
(-0.610089 -0.281537 0.133812)
(-0.557015 -0.291303 0.11568)
(-0.503488 -0.326626 0.133444)
(-0.420163 -0.399271 0.117081)
(-0.396523 -0.383669 0.150611)
(-0.487471 -0.284015 0.16638)
(-0.60533 -0.238842 0.184771)
(-0.615432 -0.267588 0.0977924)
(-0.513628 -0.37765 0.0451071)
(-0.439503 -0.459884 0.0291788)
(-0.396891 -0.525851 0.0591114)
(-0.383281 -0.697087 0.124076)
(-0.386397 -0.66259 0.129729)
(-0.404719 -0.379875 0.108774)
(-0.408033 -0.535727 0.0830563)
(-0.398927 -0.601328 0.0455967)
(-0.215819 -0.787789 -0.156817)
(-0.193437 -0.793727 -0.257908)
(-0.115359 -0.703574 -0.367616)
(-0.0784422 -0.624112 -0.38352)
(-0.0452493 -0.58935 -0.346033)
(-0.0141075 -0.556767 -0.300095)
(0.0310185 -0.502877 -0.231457)
(0.123767 -0.456746 -0.108719)
(0.12432 -0.581746 -0.121638)
(0.116408 -0.638598 -0.119927)
(0.084456 -0.696675 -0.157165)
(0.0917836 -0.751332 -0.155184)
(0.0998399 -0.807773 -0.174262)
(0.117456 -0.836276 -0.166422)
(0.125435 -0.843404 -0.152363)
(0.125676 -0.83017 -0.13001)
(0.117192 -0.794812 -0.0959873)
(0.103584 -0.739594 -0.0430854)
(0.0399587 -0.662114 0.0320122)
(0.000663454 -0.554191 0.149334)
(0.0111921 -0.309944 0.355925)
(-0.139723 -0.00394946 0.448668)
(-0.360407 0.0911694 0.352317)
(-0.388577 -0.043445 0.254455)
(-0.216305 -0.171902 0.253116)
(-0.174116 -0.185768 0.26954)
(-0.151221 -0.172497 0.213352)
(-0.075073 -0.130087 0.204241)
(0.00860691 0.00816153 0.0589622)
(-0.0452551 0.118705 0.0786711)
(-0.0827809 0.159733 0.0797716)
(-0.0518428 0.221686 0.167219)
(-0.0176295 0.192141 0.183587)
(0.00986575 0.0776295 0.137985)
(-0.031826 -0.00703912 0.220325)
(0.0270992 0.112944 0.316626)
(0.00410577 -0.0517481 0.283623)
(0.084285 0.149903 0.243578)
(0.0954386 -0.0260624 0.229346)
(-0.0161515 -0.263966 0.456918)
(0.0556074 -0.368591 0.543692)
(0.173886 -0.517477 0.509976)
(0.161512 -0.701861 0.346557)
(0.0733628 -0.824024 0.139603)
(0.0593155 -0.894784 -0.00993865)
(0.0648734 -0.92748 -0.120236)
(0.0628929 -0.95281 -0.197737)
(0.059752 -0.966837 -0.248198)
(0.0516438 -0.964512 -0.278533)
(0.0415461 -0.944233 -0.291648)
(0.0290198 -0.906403 -0.288345)
(0.0233056 -0.832018 -0.248797)
(0.00718828 -0.786164 -0.327766)
(0.0432474 -0.70554 -0.224556)
(0.0471625 -0.655324 -0.210916)
(0.0443764 -0.637593 -0.231507)
(0.00443547 -0.703407 -0.324018)
(-0.0225419 -0.742597 -0.381438)
(-0.0572687 -0.777404 -0.409029)
(-0.0732611 -0.84379 -0.399893)
(-0.13216 -0.904138 -0.344043)
(-0.0941233 -0.968892 -0.329767)
(-0.0891016 -0.979666 -0.371203)
(-0.0538113 -0.918144 -0.416291)
(-0.0435438 -0.868484 -0.430245)
(-0.0177279 -0.826832 -0.402744)
(-0.00979368 -0.87027 -0.339769)
(-0.0395218 -0.902076 -0.372506)
(-0.0562036 -0.948424 -0.394718)
(-0.0240002 -0.991842 -0.404255)
(-0.0487892 -1.06016 -0.418668)
(-0.0665984 -1.04283 -0.422634)
(-0.0935381 -0.920437 -0.343343)
(-0.186612 -0.761518 -0.222902)
(-0.198772 -0.613061 -0.0400078)
(-0.100244 -0.733205 -0.195604)
(-0.079797 -0.839416 -0.257952)
(-0.059419 -0.928877 -0.321749)
(-0.0607512 -0.946293 -0.332488)
(-0.0275217 -0.829498 -0.379088)
(-0.0236777 -0.724611 -0.335359)
(-0.0317895 -0.542469 -0.251912)
(-0.0156264 -0.353403 -0.161045)
(0.0326308 -0.0920005 -0.205794)
(-0.248727 -0.433553 0.0741489)
(-0.329618 -0.461066 0.02698)
(0.222145 -0.117844 -0.24431)
(-0.171942 -0.246975 0.0432616)
(-0.21771 -0.266074 -0.116345)
(-0.258089 -0.268349 -0.103203)
(-0.208334 -0.281242 -0.0211976)
(0.0810258 0.140472 -0.218758)
(0.102539 0.0593542 -0.23125)
(0.100853 -0.000448801 -0.259757)
(0.0966403 -0.000115339 -0.264899)
(-0.0793928 -0.429661 -0.200124)
(-0.132568 -0.44975 -0.221546)
(-0.185755 -0.458121 -0.205783)
(-0.248726 -0.444913 -0.168711)
(-0.168776 -0.547464 -0.1838)
(-0.126632 -0.559321 -0.256489)
(-0.0960307 -0.565642 -0.290406)
(-0.060282 -0.553905 -0.290442)
(-0.0504682 -0.742819 -0.347764)
(-0.0814521 -0.757425 -0.331038)
(-0.106231 -0.769698 -0.281075)
(-0.147024 -0.759936 -0.194352)
(-0.134366 -0.821722 -0.182011)
(-0.128664 -0.882715 -0.199938)
(-0.0980532 -0.905422 -0.296778)
(-0.0725776 -0.872536 -0.372855)
(-0.0490009 -0.852377 -0.398834)
(-0.0766126 -0.967993 -0.369644)
(-0.112026 -0.989613 -0.334919)
(-0.137982 -1.00987 -0.282917)
(-0.137068 -1.09271 -0.346093)
(-0.0800337 -1.06712 -0.397946)
(-0.0724575 -1.1449 -0.439685)
(-0.0493907 -1.12345 -0.472147)
(-0.0270378 -1.11454 -0.457251)
(-0.00355553 -1.04277 -0.414063)
(0.0118189 -1.07525 -0.405463)
(-0.0128223 -1.1534 -0.468397)
(-0.0398673 -1.18031 -0.493015)
(-0.0684927 -1.20837 -0.461916)
(-0.131434 -1.22893 -0.378448)
(-0.134762 -1.16643 -0.368438)
(-0.283445 -1.04659 -0.224767)
(-0.456882 -1.14635 -0.0767023)
(-0.463208 -1.10018 -0.0672757)
(-0.415584 -1.04565 -0.0645622)
(-0.30253 -1.03609 -0.0735993)
(-0.255483 -0.967344 -0.063848)
(-0.308864 -0.944791 -0.0574544)
(-0.341935 -0.848845 -0.0420345)
(-0.377671 -0.713449 -0.0376945)
(-0.473251 -0.626554 -0.0365039)
(-0.409453 -0.401208 -0.0338663)
(-0.464343 -0.660355 -0.00569377)
(-0.316353 -0.457253 0.0246818)
(-0.637573 -0.398617 0.00557701)
(-0.814189 -0.379319 0.0601806)
(-0.916521 -0.384503 0.084646)
(-0.966462 -0.397337 0.124381)
(-0.978557 -0.525488 0.0977921)
(-0.939068 -0.689626 0.0654152)
(-0.922836 -0.750498 0.0525418)
(-0.873457 -0.848884 0.0365034)
(-0.857896 -0.896194 0.0305294)
(-0.82009 -0.928467 0.00768907)
(-0.702877 -0.968066 -0.0229028)
(-0.591777 -1.00256 -0.0418544)
(-0.626021 -0.953111 -0.0171404)
(-0.484379 -0.972074 -0.0306164)
(-0.502235 -0.893657 -0.0300167)
(-0.529815 -0.797082 -0.0231506)
(-0.55862 -0.73069 -0.0193265)
(-0.685536 -0.712426 -0.00969407)
(-0.674091 -0.598036 -0.00764247)
(-0.823024 -0.577257 0.0304032)
(-0.917233 -0.559727 0.050443)
(-0.880253 -0.697222 0.0231974)
(-0.799383 -0.704686 0.0122597)
(-0.776571 -0.789985 0.00234059)
(-0.66009 -0.798383 -0.0106845)
(-0.634996 -0.88287 -0.0169595)
(-0.747603 -0.866518 -0.00507711)
(-0.82456 -0.850955 0.00449729)
(-0.862094 -0.773291 0.013562)
(-0.800612 -0.739115 -0.0116285)
(-0.623444 -0.612149 0.00229133)
(-0.846081 -0.659764 0.0118135)
(-0.866963 -0.518387 0.0522122)
(-0.869329 -0.379748 0.0582776)
(-0.842205 -0.282137 0.121803)
(-0.831154 -0.302152 0.0766785)
(-0.877699 -0.350556 0.0526582)
(-0.87388 -0.203809 0.129175)
(-0.892848 -0.184194 0.174224)
(-0.759612 -0.16148 0.158645)
(-0.765286 -0.129052 0.259409)
(-0.776544 -0.120761 0.302381)
(-0.820137 -0.108667 0.355885)
(-0.827697 -0.119242 0.353398)
(-0.6411 -0.181692 0.251869)
(-0.60621 -0.173639 0.249101)
(-0.566505 -0.180417 0.216114)
(-0.550108 -0.175562 0.18927)
(-0.567878 -0.191075 0.120613)
(-0.337797 -0.194596 0.0770399)
(-0.319516 -0.189102 0.102029)
(-0.32862 -0.191836 0.114802)
(-0.359672 -0.198824 0.125089)
(-0.448311 -0.216756 0.142777)
(-0.40443 -0.253159 0.0608458)
(-0.381504 -0.284627 0.0695974)
(-0.409995 -0.340809 0.0481887)
(-0.315442 -0.426644 0.0371417)
(-0.311259 -0.394026 0.0503731)
(-0.283076 -0.415973 0.0168562)
(-0.192567 -0.4192 -0.019279)
(-0.336512 -0.253897 0.036562)
(-0.402289 -0.330738 0.0421271)
(-0.247818 -0.457121 -0.00554479)
(-0.291186 -0.459552 0.00149061)
(-0.451052 -0.321066 0.0729355)
(-0.523829 -0.298891 0.132148)
(-0.497317 -0.31853 0.137089)
(-0.470314 -0.336627 0.112044)
(-0.45816 -0.350436 0.0947081)
(-0.492567 -0.372912 0.0089306)
(-0.709704 -0.317699 0.0633902)
(-0.716818 -0.529717 0.0391497)
(-0.548322 -0.554133 -0.00147761)
(-0.509322 -0.606713 -0.00373992)
(-0.465164 -0.64891 -0.0172249)
(-0.436473 -0.652131 -0.0208411)
(-0.412503 -0.530524 -0.0227142)
(-0.410655 -0.540496 -0.0481931)
(-0.409524 -0.540884 -0.0342119)
(-0.335184 -0.549929 -0.0168988)
(-0.267282 -0.595369 -0.00712663)
(-0.319207 -0.580415 -0.00321965)
(-0.402994 -0.512599 0.00736595)
(-0.331722 -0.534913 -0.00400635)
(-0.438252 -0.629889 -0.0117248)
(-0.292728 -0.4728 -0.00494583)
(-0.210216 -0.539212 -0.0180821)
(-0.280806 -0.524206 -0.0159202)
(-0.394009 -0.435761 -0.000425978)
(-0.413391 -0.362491 -0.0100852)
(-0.260441 -0.393798 -0.0108476)
(-0.156853 -0.422471 -0.0361044)
(-0.136201 -0.399074 -0.0222978)
(-0.23784 -0.205085 0.0227015)
(-0.382158 -0.342586 -0.00161029)
(-0.251497 -0.474183 -0.0193261)
(-0.218824 -0.467584 -0.0231892)
(-0.121958 -0.392427 -0.0295899)
(-0.218895 -0.194242 0.0396548)
(-0.346407 -0.33767 0.0126918)
(-0.3657 -0.363037 0.0547116)
(-0.195643 -0.510678 -0.0102629)
(-0.173932 -0.467654 0.0193106)
(-0.109903 -0.419781 0.00255807)
(-0.221947 -0.22879 0.0452838)
(-0.325413 -0.341595 0.0529685)
(-0.334743 -0.33872 0.0577504)
(-0.180522 -0.462844 0.0174431)
(-0.109297 -0.408586 0.000821064)
(-0.231662 -0.220247 0.0628634)
(-0.285481 -0.221255 0.0782381)
(-0.240085 -0.230042 0.0721084)
(-0.349918 -0.336765 0.0793878)
(-0.189571 -0.464939 0.0493109)
(-0.117703 -0.415221 0.0382988)
(-0.14041 -0.449245 -0.0030555)
(-0.196387 -0.497213 0.0265728)
(-0.381254 -0.350474 0.0799554)
(-0.334126 -0.625065 -0.00273727)
(-0.355356 -0.63173 -0.0110504)
(-0.498776 -0.511713 0.0583451)
(-0.650495 -0.444687 0.0986538)
(-0.665855 -0.286752 0.136714)
(-0.797087 -0.271574 0.170762)
(-0.889782 -0.320804 0.166725)
(-1.01956 -0.489011 0.126004)
(-1.10638 -0.49528 0.167747)
(-1.13131 -0.502875 0.192885)
(-1.11143 -0.505202 0.215838)
(-1.04831 -0.501443 0.238678)
(-0.942956 -0.490463 0.260527)
(-0.79433 -0.467084 0.287105)
(-0.639938 -0.431957 0.32661)
(-0.3976 -0.380352 0.395037)
(-0.163822 -0.292028 0.482454)
(0.0389932 -0.15043 0.486475)
(0.334101 -0.158529 0.428543)
(0.33607 -0.217254 0.379176)
(0.204731 -0.127467 0.488822)
(0.271783 -0.00270829 0.768175)
(0.28257 0.0466675 1.03378)
(0.267498 0.0816375 1.14317)
(0.249408 0.134137 1.09143)
(0.21194 0.12313 0.952908)
(0.142014 0.120771 0.700715)
(0.0398739 0.185239 0.401861)
(0.173844 0.511796 0.423093)
(0.423446 0.514658 0.372624)
(0.611289 0.536474 0.37363)
(0.854059 0.495398 0.350291)
(1.01131 0.415723 0.317261)
(1.0756 0.32285 0.274296)
(1.06076 0.255269 0.234692)
(1.01071 0.211001 0.199235)
(1.02912 0.158744 0.167511)
(1.04305 0.118875 0.144522)
(0.983779 0.0928676 0.0907941)
(0.878996 0.0422462 0.0680191)
(0.713387 -0.0229592 0.0543448)
(0.468247 -0.109969 0.0207515)
(0.240655 -0.21664 -0.0226524)
(0.101398 -0.621972 -0.111015)
(0.177618 -0.384149 -0.0794134)
(-0.179603 -0.172283 0.005657)
(-0.10019 -0.394573 -0.0407497)
(-0.109426 -0.318759 -0.0670672)
(-0.111629 -0.347188 -0.0751462)
(-0.108902 -0.310087 -0.0650374)
(-0.0762014 -0.23721 -0.0609898)
(-0.14739 -0.18852 -0.0292005)
(-0.225497 0.188278 0.160194)
(-0.14036 0.457412 0.134064)
(-0.0483043 0.588797 0.0776517)
(0.0233257 0.649032 0.0746607)
(0.106433 0.670156 0.15692)
(0.201599 0.71079 0.273859)
(0.298237 0.74541 0.329174)
(0.385618 0.742478 0.364766)
(0.465678 0.682637 0.373304)
(0.532088 0.547751 0.370572)
(0.58303 0.330562 0.334977)
(0.563504 0.0074768 0.259957)
(0.383594 -0.328751 0.250902)
(0.284332 -0.327346 0.315518)
(0.219206 -0.280848 0.325327)
(0.15256 -0.188849 0.33306)
(0.144642 0.00979097 0.308897)
(0.289316 0.0108879 0.335579)
(0.448471 -0.155724 0.328441)
(0.598371 -0.253217 0.341063)
(0.637156 -0.342558 0.350636)
(0.617984 -0.435002 0.352716)
(0.472625 -0.540651 0.335298)
(0.104945 -0.567533 0.319938)
(-0.171288 -0.302145 0.305522)
(-0.0426964 -0.130293 0.356084)
(0.226403 -0.148943 0.237694)
(0.282162 -0.398279 0.0728233)
(0.00908096 -0.513465 0.236344)
(-0.139866 -0.74204 -0.138086)
(0.206397 -0.717026 -0.478768)
(0.30497 -0.38934 -0.175948)
(0.332393 -0.376584 0.0947751)
(0.343641 -0.549516 0.187319)
(0.324287 -0.891655 0.122729)
(0.525546 -0.870611 0.0653692)
(0.601514 -0.688911 0.0979601)
(0.56603 -0.534554 0.139099)
(0.496352 -0.391819 0.189605)
(0.329592 -0.226408 0.246414)
(0.351167 -0.341187 0.196377)
(0.412824 -0.371957 0.143293)
(0.493834 -0.359532 0.0815951)
(0.59788 -0.288881 -0.0542478)
(0.848554 0.20003 -0.112919)
(0.89771 0.475949 -0.0177707)
(0.84471 0.6713 0.0543922)
(0.743774 0.766718 0.0963123)
(0.610818 0.789318 0.142397)
(0.460421 0.75974 0.157007)
(0.294283 0.699939 0.160319)
(0.123285 0.639394 0.0947413)
(-0.0447864 0.599841 0.0518944)
(-0.163834 0.543654 0.0666092)
(-0.287409 0.42567 0.1331)
(-0.405784 0.2003 0.172289)
(-0.285634 -0.14222 0.0106701)
(-0.398941 -0.0589201 0.0514081)
(-0.480681 0.00151209 0.0804366)
(-0.538412 0.123974 0.124014)
(-0.534306 0.0839373 0.0960879)
(-0.493718 -0.0542026 0.0218765)
(-0.455077 -0.11432 0.0119349)
(-0.390797 -0.169094 -0.0112043)
(-0.295824 -0.226011 -0.0260794)
(-0.19011 -0.25804 -0.0398565)
(-0.142483 -0.232383 -0.032201)
(-0.196823 -0.19789 -0.0252076)
(-0.181723 -0.345939 -0.042082)
(-0.122217 -0.341683 -0.0498641)
(-0.0997847 -0.360376 -0.0775883)
(-0.0772087 -0.396328 -0.112301)
(-0.0472226 -0.577803 -0.228559)
(-0.0852694 -0.517749 -0.158703)
(-0.0992566 -0.629954 -0.125113)
(-0.145097 -0.633377 -0.0826959)
(-0.185951 -0.554542 -0.0690679)
(-0.284901 -0.374301 -0.0329804)
(-0.267136 0.139571 0.108567)
(-0.113286 0.37407 0.270089)
(-0.014794 0.463388 0.410538)
(0.0614288 0.470718 0.539101)
(0.133998 0.412263 0.614097)
(0.186044 0.305917 0.647437)
(0.236914 0.158429 0.622709)
(0.225962 -0.0118563 0.524369)
(0.0937138 -0.130431 0.419871)
(-0.0198953 -0.0959869 0.433435)
(-0.038378 0.0264357 0.410123)
(-0.0354668 0.148213 0.413258)
(0.0387705 0.252361 0.351776)
(0.201143 0.138311 0.366397)
(0.156131 0.278664 0.439758)
(-0.0662372 0.157703 -0.107252)
(-0.176778 -0.0658944 -0.637599)
(-0.181756 -0.303653 -0.528828)
(-0.169022 -0.340894 -0.297107)
(-0.145775 -0.299998 -0.092796)
(-0.0622405 -0.583879 -0.104938)
(-0.0282604 -0.861567 -0.0929957)
(0.00204789 -1.01953 -0.0909755)
(0.0323197 -1.14394 -0.100659)
(0.065562 -1.22767 -0.114902)
(0.0960942 -1.28036 -0.128811)
(0.122785 -1.30686 -0.140723)
(0.146846 -1.31539 -0.152708)
(0.167791 -1.3134 -0.165148)
(0.186036 -1.30443 -0.175883)
(0.201579 -1.29001 -0.184316)
(0.215391 -1.27057 -0.189415)
(0.227611 -1.24575 -0.192088)
(0.238776 -1.2142 -0.190885)
(0.248293 -1.17457 -0.185635)
(0.254008 -1.12458 -0.174763)
(0.251098 -1.06164 -0.158085)
(0.194277 -0.998164 -0.138282)
(0.139448 -0.913001 -0.12216)
(0.163963 -0.828791 -0.0865304)
(0.187182 -0.728063 -0.087703)
(0.203286 -0.559319 -0.0875876)
(0.245874 -0.442077 -0.0839478)
(0.0716983 -0.0304317 -0.0948186)
(0.365251 -0.297746 0.0439251)
(0.245123 -0.550054 -0.0565652)
(0.285248 -0.0944114 -0.0264778)
(0.179962 -0.0365715 -0.146508)
(0.200983 -0.112153 -0.123618)
(0.193858 -0.119026 -0.0796682)