/*--------------------------------*- C++ -*----------------------------------*\
| =========                 |                                                 |
| \\      /  F ield         | OpenFOAM: The Open Source CFD Toolbox           |
|  \\    /   O peration     | Version:  v2012                                 |
|   \\  /    A nd           | Website:  www.openfoam.com                      |
|    \\/     M anipulation  |                                                 |
\*---------------------------------------------------------------------------*/
FoamFile
{
    version     2.0;
    format      ascii;
    class       volVectorField;
    location    "375";
    object      U;
}
// * * * * * * * * * * * * * * * * * * * * * * * * * * * * * * * * * * * * * //

dimensions      [0 1 -1 0 0 0 0];


internalField   nonuniform List<vector> 
18258
(
(-0.17702 0.118328 0.13725)
(-0.0520653 0.24671 0.156839)
(-0.105032 0.215448 0.0961374)
(-0.0378781 0.070856 0.0837687)
(-0.226418 0.203749 0.0172633)
(-0.158981 0.362932 0.0158151)
(-0.22279 0.0451 0.0532144)
(-0.341212 -0.0522334 0.074695)
(-0.448494 -0.10524 0.107866)
(-0.535326 -0.159234 0.145472)
(-0.621101 -0.216857 0.179739)
(-0.687427 -0.271243 0.309344)
(-0.678443 -0.334008 0.35713)
(-0.62199 -0.445299 0.385793)
(-0.487709 -0.542746 0.369458)
(-0.205148 -0.586628 0.340215)
(0.0732897 -0.373904 0.28814)
(0.078494 -0.165364 0.29831)
(-0.125809 -0.0785827 0.235656)
(-0.394026 -0.274005 0.11563)
(-0.134871 -0.523549 0.288734)
(-0.190165 -0.363314 0.406008)
(-0.292139 -0.733982 0.299197)
(-0.349811 -0.774971 0.262457)
(-0.126217 -0.709081 0.139031)
(0.00908147 -0.644727 0.186701)
(-0.0130515 -0.33728 0.421405)
(0.176453 -0.111407 0.800653)
(0.30008 -0.0945129 0.88614)
(0.317629 0.0586216 0.902327)
(0.32034 0.189123 0.799431)
(0.163739 0.302406 0.069075)
(0.0859969 0.118103 -0.436473)
(0.0232215 0.069821 -0.732724)
(-0.058234 0.0713918 -0.90386)
(-0.0490173 0.0689158 -1.0841)
(-0.0635241 0.0686396 -1.22706)
(-0.091104 0.0871989 -1.32424)
(-0.130466 0.0777681 -1.37328)
(-0.176108 0.0830668 -1.35964)
(-0.224852 0.0689872 -1.2756)
(-0.270272 0.0773375 -1.12166)
(-0.308015 0.0718637 -0.910573)
(-0.33843 0.0715951 -0.654777)
(-0.349313 0.0728384 -0.359329)
(-0.334861 0.0686183 -0.159223)
(-0.167112 0.145453 -0.204005)
(0.330182 -0.0922512 -0.140872)
(0.585895 -0.13112 -0.16348)
(0.64983 -0.110291 -0.171289)
(0.769892 -0.13496 -0.179039)
(0.803635 -0.133627 -0.195508)
(0.504489 -0.00823007 -0.257688)
(0.259009 -0.138349 -0.218658)
(0.113314 -0.0426972 -0.158943)
(0.282175 -0.00976101 -0.169044)
(0.537325 -0.00254118 -0.173592)
(0.791697 -0.0299037 -0.177776)
(1.09226 -0.0345564 -0.175534)
(1.42807 -0.0486541 -0.18498)
(1.76276 -0.0643496 -0.183344)
(2.04702 -0.0808674 -0.16641)
(2.24774 -0.0925048 -0.137902)
(2.34787 -0.0985759 -0.102205)
(2.35442 -0.09586 -0.0675235)
(2.29389 -0.0881516 -0.0408016)
(2.20022 -0.0816429 -0.0241857)
(2.10776 -0.0755485 -0.017461)
(2.03839 -0.0667656 -0.0184855)
(1.99284 -0.0638876 -0.0231546)
(1.96865 -0.0587441 -0.0255718)
(1.95822 -0.0498368 -0.0200093)
(1.94407 -0.0393254 -0.00296754)
(1.90068 -0.0244948 0.0246386)
(1.81311 -0.0074376 0.0542375)
(1.69211 0.00997544 0.0775966)
(1.57124 0.0222033 0.0804668)
(1.47862 0.0312191 0.0758112)
(1.40057 0.0383541 0.0710762)
(1.33831 0.051303 0.0636545)
(1.28747 0.057949 0.0655276)
(1.19388 0.0449221 0.0792784)
(1.09694 0.0195384 0.111239)
(1.01423 0.0012269 0.128952)
(0.907321 -0.0204201 0.121912)
(0.76336 0.0170313 0.146988)
(0.64245 0.0818427 0.133991)
(0.518831 0.100698 0.135025)
(0.381869 0.118293 0.119436)
(0.225194 0.127635 0.0974734)
(0.120361 0.190094 0.0928044)
(0.122793 0.00980943 0.198284)
(0.164349 -0.10086 0.144889)
(0.113395 -0.129582 0.0409793)
(0.104991 -0.115288 -0.140722)
(0.217288 -0.210561 -0.368983)
(0.263353 -0.233492 -0.554381)
(0.204903 -0.140575 -0.729002)
(0.106634 -0.0826207 -0.715488)
(0.0363852 0.0552653 -0.494103)
(-0.0857535 0.229105 -0.169494)
(-0.214982 0.196416 0.17813)
(-0.234564 0.0654944 0.152273)
(-0.340375 0.0161196 0.168001)
(-0.271575 0.140226 0.17641)
(-0.245376 0.287528 -0.0525887)
(-0.106268 0.161392 -0.404997)
(0.0653564 0.00296939 -0.58605)
(0.335047 -0.0948929 -0.631654)
(0.49714 -0.230619 -0.488348)
(0.352198 -0.210981 -0.27878)
(0.272033 -0.191967 -0.099405)
(0.283253 -0.186567 0.0409558)
(0.281134 -0.140025 0.161278)
(0.226285 -0.0990243 0.192464)
(0.397579 -0.0811266 0.181786)
(0.536727 -0.0630253 0.177428)
(0.589165 -0.051757 0.16539)
(0.701239 -0.0784958 0.161743)
(0.733281 -0.13352 0.133732)
(0.601597 -0.134116 0.136363)
(0.455019 -0.151646 0.140786)
(0.461907 -0.185745 0.036802)
(0.611368 -0.162763 0.0527759)
(0.73681 -0.162024 0.050327)
(0.905344 -0.141662 0.0822396)
(1.08882 -0.109881 0.111766)
(1.1899 -0.0777189 0.149387)
(1.20909 -0.0104839 0.140906)
(1.24622 -0.0088513 0.121235)
(1.33598 -0.00677658 0.140744)
(1.37803 -0.00146587 0.130548)
(1.36955 -0.0123454 0.159509)
(1.32909 -0.0481225 0.194872)
(1.3234 -0.0510694 0.191762)
(1.2863 -0.061993 0.152946)
(1.27965 -0.0602132 0.13611)
(1.25913 -0.0478421 0.109247)
(1.25064 -0.045795 0.111239)
(1.20209 0.00426946 0.109964)
(1.19502 0.0276427 0.138456)
(1.07802 0.136571 0.271793)
(1.22676 0.0527295 0.254327)
(1.2187 0.0199768 0.159352)
(1.26766 -0.020821 0.128926)
(1.2797 -0.0250209 0.119838)
(1.2897 -0.038187 0.145102)
(1.30855 -0.0414546 0.184325)
(1.35115 -0.0366572 0.218321)
(1.38697 -0.0366128 0.223283)
(1.42378 -0.0126203 0.184302)
(1.43726 -0.00170847 0.138848)
(1.51337 -0.00634481 0.151973)
(1.61134 -0.0165504 0.160013)
(1.75066 -0.0314793 0.144296)
(1.88282 -0.0540741 0.0494532)
(1.96418 -0.0755307 -0.0709393)
(1.98342 -0.0903819 -0.164124)
(1.96576 -0.0964011 -0.200431)
(1.94917 -0.096739 -0.194423)
(1.95908 -0.0911241 -0.174651)
(2.00592 -0.0826184 -0.144206)
(2.08727 -0.0701471 -0.107537)
(2.19841 -0.0598674 -0.0835463)
(2.31277 -0.0595053 -0.112253)
(2.38995 -0.0605963 -0.172533)
(2.39284 -0.0582233 -0.276452)
(2.28706 -0.0500132 -0.39178)
(2.07156 -0.0424274 -0.483216)
(1.77105 -0.0366676 -0.539683)
(1.42713 -0.0315405 -0.548477)
(1.08108 -0.0192962 -0.527328)
(0.792427 -0.0242842 -0.459111)
(0.536654 -0.0157305 -0.415359)
(0.282691 -0.0213092 -0.386823)
(0.108891 -0.0404196 -0.360804)
(0.101987 -0.0422949 -0.637342)
(0.0771699 -0.0374252 -0.873464)
(0.0505385 -0.0393516 -1.05815)
(0.0117242 -0.0405949 -1.17708)
(-0.023343 -0.0282813 -1.21725)
(-0.0599141 -0.0158318 -1.17025)
(-0.0936343 0.00299086 -1.04195)
(-0.11905 0.0259968 -0.826886)
(-0.121566 0.0807069 -0.564692)
(-0.145707 0.133133 -0.0569555)
(-0.191524 0.0275044 0.562415)
(-0.207472 -0.032898 0.748919)
(-0.226134 -0.00146805 0.918309)
(-0.23136 -0.0439635 1.06148)
(-0.317208 -0.103063 1.12405)
(-0.370648 -0.108724 1.13838)
(-0.368746 -0.231177 1.00109)
(-0.295514 -0.249663 0.769456)
(-0.458053 -0.664318 0.686608)
(-0.485438 -0.541541 0.704106)
(-0.413791 -0.40985 0.830994)
(-0.550569 -0.763492 0.853635)
(-0.686129 -0.829566 0.60214)
(-0.475977 -0.752283 0.798388)
(-0.436832 -0.573608 0.739797)
(-0.785529 -0.523858 0.745596)
(-0.905264 -0.407291 0.854208)
(-0.53178 -0.704616 0.817887)
(-0.441386 -0.576859 0.658585)
(-0.320386 -0.316583 0.398479)
(-0.298883 -0.17741 0.391911)
(-0.281743 -0.141832 0.344533)
(-0.232506 0.118159 0.105446)
(-0.162842 0.293235 -0.421992)
(-0.153094 0.181754 -0.640825)
(-0.132328 0.0265933 -0.916505)
(-0.0870852 -0.0582357 -1.08748)
(-0.0290384 -0.0702343 -1.23516)
(0.0378195 -0.102792 -1.26963)
(0.0973919 -0.0991968 -1.23443)
(0.171697 -0.109987 -1.12039)
(0.215637 -0.123866 -0.920347)
(0.259769 -0.147153 -0.705799)
(0.248763 -0.139634 -0.398776)
(0.417051 -0.0527079 -0.638145)
(0.763417 -0.118313 -0.459887)
(0.712894 -0.108373 -0.417297)
(0.607092 -0.0724945 -0.412586)
(0.522313 -0.106587 -0.424478)
(0.0962059 -0.110298 -0.540025)
(0.153557 -0.120992 -0.935951)
(0.24182 -0.226803 -1.08753)
(0.333249 -0.284481 -0.972065)
(0.391255 -0.353986 -0.5385)
(0.200645 0.0108329 0.16327)
(0.260783 0.106066 0.171769)
(0.428551 -0.325115 0.333145)
(0.515565 -0.528484 0.503334)
(0.544782 -0.521192 0.552709)
(0.412333 -0.233919 0.674966)
(0.471517 -0.336148 0.56688)
(0.48694 -0.606985 0.552749)
(0.702812 -0.670406 0.321322)
(0.745044 -0.485148 0.459309)
(0.795766 -0.344724 0.599832)
(0.231267 -0.22351 0.573018)
(-0.242555 -0.266745 0.822399)
(-0.180584 -0.191084 0.67238)
(-0.676509 -0.29834 0.814717)
(-0.475442 -0.178497 0.687805)
(-0.324887 -0.000960229 0.535344)
(-0.219081 0.172349 -0.296773)
(-0.193508 -0.0479219 -0.619826)
(-0.0572206 -0.1706 -1.10151)
(0.103515 -0.159807 -1.25045)
(0.274199 -0.0896001 -1.11854)
(0.429005 -0.107356 -0.703924)
(0.494326 -0.0738484 -0.631039)
(0.484243 -0.0421548 -0.623735)
(0.523317 -0.0878911 -0.654672)
(0.575929 -0.120629 -0.747331)
(0.388998 -0.0417523 -0.694741)
(0.351177 -0.0787246 -0.673267)
(0.129333 -0.113204 -0.678062)
(-0.111695 -0.0503102 -0.589079)
(0.286845 -0.000708548 -0.601254)
(0.342592 0.0104784 -0.624941)
(0.628684 -0.101319 -0.661575)
(0.574791 -0.0986939 -0.412157)
(0.266448 0.067114 -0.389616)
(0.27976 0.0508984 -0.287496)
(-0.306822 -0.0445468 0.0841308)
(-0.307599 0.141832 -0.0202937)
(-0.282473 -0.0266471 -0.456044)
(0.0833378 -0.200052 -0.583049)
(0.356038 -0.278368 -0.573667)
(0.71943 -0.343353 -0.40942)
(0.806528 -0.416342 -0.379673)
(0.766898 -0.289531 -0.297025)
(0.808903 -0.363416 -0.220801)
(0.824169 -0.484289 -0.285851)
(0.735239 -0.428199 -0.281588)
(0.710718 -0.302352 -0.335366)
(0.739523 -0.250226 -0.344717)
(0.785906 -0.309843 -0.213934)
(0.798508 -0.365381 -0.162251)
(0.889377 -0.463558 -0.157121)
(1.15678 -0.629071 -0.11778)
(1.61606 -0.723975 -0.0987131)
(1.99372 -0.669593 -0.0379062)
(2.15047 -0.48758 0.0475631)
(2.07039 -0.288573 0.0956651)
(1.90514 -0.160794 0.103098)
(1.80777 -0.0925947 0.0996577)
(1.71112 0.00276346 0.0992349)
(1.57383 0.0913649 0.0914053)
(1.43665 0.110067 0.0484219)
(1.33222 0.0604626 0.0277406)
(1.24249 -0.00155145 0.022147)
(1.14082 -0.0510364 0.0239794)
(1.05678 -0.0761122 0.0222076)
(0.999013 -0.0602403 0.0179561)
(0.823251 -0.108114 -0.0229042)
(0.717692 0.0047802 0.011193)
(0.63426 0.0714209 0.0100711)
(0.498457 0.0265985 0.00773306)
(0.360042 -0.0582616 -0.0125191)
(0.139367 -0.14546 -0.0317203)
(0.225923 -0.307449 0.00103976)
(0.353552 -0.0817222 0.012098)
(-0.00230426 -0.229874 -0.00919612)
(0.0431913 -0.545781 -0.0504003)
(0.0121599 -0.712372 -0.0525189)
(-0.00789439 -0.876401 -0.0531593)
(-0.0258609 -1.0065 -0.0648516)
(-0.0359017 -1.10251 -0.0956544)
(-0.0463813 -1.15697 -0.104935)
(-0.0579004 -1.21439 -0.118093)
(-0.0881536 -1.27628 -0.134115)
(-0.113295 -1.32116 -0.149451)
(-0.137307 -1.35505 -0.162381)
(-0.159366 -1.37686 -0.173452)
(-0.178428 -1.38831 -0.183119)
(-0.193853 -1.38999 -0.189835)
(-0.205999 -1.38288 -0.193688)
(-0.216019 -1.36815 -0.193805)
(-0.224568 -1.34624 -0.191886)
(-0.232846 -1.31579 -0.186441)
(-0.240517 -1.27491 -0.178086)
(-0.245978 -1.22064 -0.165042)
(-0.243882 -1.15146 -0.147299)
(-0.190978 -1.07192 -0.126913)
(-0.14125 -0.969211 -0.112554)
(-0.165785 -0.868671 -0.0794807)
(-0.189797 -0.754679 -0.0818891)
(-0.205005 -0.543193 -0.0854903)
(-0.273702 -0.450277 -0.0919808)
(0.0225064 0.0531634 -0.116182)
(-0.350812 -0.308337 0.0251605)
(-0.231694 -0.617403 -0.0545945)
(-0.270395 -0.0992617 -0.0110687)
(-0.458018 -0.182478 0.0645774)
(-0.678701 -0.198693 0.0822752)
(-0.842166 -0.209298 0.114092)
(-0.953616 -0.223177 0.144226)
(-1.03437 -0.232591 0.203825)
(-1.1177 -0.244392 0.245366)
(-1.18689 -0.24431 0.302118)
(-1.20058 -0.248563 0.336389)
(-1.17365 -0.250351 0.366293)
(-1.10683 -0.249092 0.394579)
(-0.996211 -0.243455 0.422746)
(-0.841859 -0.230503 0.45415)
(-0.668315 -0.206308 0.493582)
(-0.421262 -0.147254 0.542598)
(-0.138763 -0.11838 0.566414)
(-0.157533 0.02859 0.822361)
(-0.161226 0.0830331 1.04278)
(-0.161084 0.115268 1.11285)
(-0.162338 0.164349 1.02177)
(-0.16546 0.153257 0.839371)
(-0.151741 0.131118 0.569089)
(-0.122188 0.143541 0.287039)
(-0.223724 0.440803 0.371934)
(-0.505317 0.468367 0.335497)
(-0.690266 0.481198 0.339748)
(-0.915352 0.466167 0.333371)
(-1.09796 0.425606 0.309385)
(-1.22565 0.354162 0.266614)
(-1.28189 0.274089 0.219394)
(-1.26498 0.206731 0.182047)
(-1.23235 0.14842 0.158747)
(-1.18961 0.115668 0.140792)
(-1.10016 0.0929037 0.0904847)
(-0.958512 0.0455066 0.0701016)
(-0.767266 -0.0204357 0.0596302)
(-0.500865 -0.113762 0.0191116)
(-0.25328 -0.207787 -0.0189638)
(-0.274383 -0.197603 -0.066026)
(-0.318427 -0.17697 0.00861996)
(-0.314615 -0.174165 0.0599131)
(-0.272787 -0.156646 0.151194)
(-0.380793 -0.233791 0.118813)
(-0.422629 -0.296953 0.118846)
(-0.32674 -0.288048 0.177359)
(-0.269693 -0.215197 0.045492)
(-0.140606 -0.100879 -0.0259985)
(-0.14078 -0.0768372 -0.00750394)
(-0.138508 -0.0741882 -0.0358192)
(-0.169329 -0.0556873 -0.0682401)
(-0.167869 -0.501465 -0.148984)
(-0.126213 -0.479643 -0.13863)
(-0.110612 -0.447057 -0.0959583)
(-0.100384 -0.423967 -0.145827)
(-0.266509 -0.538094 -0.0314272)
(-0.276365 -0.575571 -0.0256479)
(-0.283862 -0.631956 -0.0837918)
(-0.337339 -0.582835 -0.0198468)
(-0.340194 -0.530017 0.0553225)
(-0.301563 -0.35916 0.0855732)
(-0.444392 -0.317047 0.115015)
(-0.361577 -0.431815 0.0405021)
(-0.347473 -0.52271 0.0140288)
(-0.377927 -0.508412 -0.0236526)
(-0.428488 -0.394489 0.0322332)
(-0.497262 -0.346606 0.0732192)
(-0.528837 -0.254898 0.164149)
(-0.591104 -0.215478 0.2418)
(-0.680051 -0.197564 0.256481)
(-0.576469 -0.206716 0.21205)
(-0.516951 -0.187757 0.18166)
(-0.54531 -0.184896 0.118268)
(-0.539889 -0.171945 0.0922232)
(-0.496652 -0.184071 0.000950701)
(-0.762161 -0.0864625 0.0647116)
(-0.9722 -0.00510813 0.0898402)
(-1.07973 0.0524953 0.103758)
(-1.12889 0.0754388 0.138447)
(-1.1663 0.036073 0.238323)
(-1.25076 0.0692984 0.267632)
(-1.31635 0.119767 0.349623)
(-1.32965 0.171318 0.432486)
(-1.27188 0.222449 0.525116)
(-1.14649 0.261371 0.604842)
(-0.973602 0.281403 0.649351)
(-0.773818 0.283257 0.658306)
(-0.622071 0.288373 0.645167)
(-0.341799 0.272295 0.645672)
(-0.435934 0.244298 0.875946)
(-0.468243 0.226799 1.00413)
(-0.46141 0.179045 1.08243)
(-0.442341 0.122965 1.01451)
(-0.440938 0.0580969 0.798273)
(-0.711842 -0.00541163 0.744688)
(-0.722325 0.0710729 0.945282)
(-0.740808 0.116892 1.02407)
(-0.745238 0.163932 0.980016)
(-0.694695 0.198501 0.872908)
(-0.836909 0.18613 0.862775)
(-0.879157 0.145715 0.965457)
(-0.882392 0.0881635 1.00152)
(-0.872982 0.0417604 0.926772)
(-0.866865 -0.0392128 0.707205)
(-1.00976 -0.060427 0.676039)
(-1.02403 0.020414 0.901517)
(-1.0367 0.069486 0.966731)
(-1.04458 0.121979 0.944737)
(-1.01926 0.173998 0.854761)
(-1.16292 0.163139 0.804981)
(-1.16374 0.110647 0.893534)
(-1.14726 0.0571492 0.915203)
(-1.13035 0.00641638 0.85988)
(-1.11053 -0.0731595 0.64034)
(-1.17055 -0.0837672 0.595765)
(-1.19588 -0.00622079 0.797347)
(-1.22208 0.0436714 0.840774)
(-1.25131 0.0919613 0.812376)
(-1.26888 0.141611 0.717883)
(-1.31876 0.111105 0.611121)
(-1.29023 0.0689932 0.710083)
(-1.2518 0.0250654 0.747931)
(-1.21648 -0.0217225 0.716881)
(-1.18651 -0.0935382 0.540053)
(-1.15329 -0.104757 0.47298)
(-1.18134 -0.0413781 0.621831)
(-1.22018 0.000256486 0.641354)
(-1.27458 0.0392754 0.607201)
(-1.30775 0.0744718 0.50993)
(-1.22498 0.0358756 0.415026)
(-1.18801 0.00296927 0.500781)
(-1.12818 -0.032142 0.531741)
(-1.08592 -0.0600896 0.520608)
(-1.0397 -0.111818 0.387019)
(-0.918827 -0.120194 0.315371)
(-0.923079 -0.109412 0.358386)
(-0.972443 -0.080397 0.438601)
(-0.956372 -0.0870436 0.425419)
(-0.927639 -0.102606 0.395189)
(-1.00448 -0.068371 0.381976)
(-0.996375 -0.0629392 0.307998)
(-1.0012 -0.0390493 0.283342)
(-1.04449 -0.0270128 0.209617)
(-1.03955 -0.00931191 0.202868)
(-0.806717 -0.105021 0.145697)
(-0.819597 -0.125104 0.158305)
(-0.788452 -0.128334 0.216759)
(-0.824206 -0.141403 0.249933)
(-0.610124 -0.281648 0.133303)
(-0.557061 -0.291404 0.115089)
(-0.503554 -0.326812 0.132768)
(-0.42016 -0.399534 0.116341)
(-0.396795 -0.383997 0.149855)
(-0.487987 -0.284211 0.165679)
(-0.605962 -0.239042 0.184122)
(-0.615364 -0.267747 0.0970242)
(-0.513518 -0.377846 0.0441981)
(-0.439541 -0.460077 0.0283369)
(-0.397196 -0.526289 0.0581194)
(-0.383813 -0.697871 0.122634)
(-0.386981 -0.663312 0.128378)
(-0.405368 -0.380348 0.107396)
(-0.408396 -0.536477 0.0818023)
(-0.399238 -0.601929 0.044119)
(-0.215792 -0.788203 -0.158572)
(-0.193444 -0.794034 -0.259466)
(-0.115363 -0.703863 -0.36907)
(-0.0785201 -0.624001 -0.385026)
(-0.0451503 -0.588883 -0.347375)
(-0.0137537 -0.556022 -0.301115)
(0.0314251 -0.502027 -0.231881)
(0.124042 -0.455596 -0.108843)
(0.124601 -0.580301 -0.12183)
(0.116697 -0.63679 -0.120118)
(0.0847357 -0.69478 -0.157539)
(0.0921106 -0.749443 -0.155665)
(0.100227 -0.80602 -0.1748)
(0.117933 -0.834408 -0.166881)
(0.12593 -0.841297 -0.152709)
(0.126138 -0.827677 -0.130201)
(0.117515 -0.791856 -0.0959365)
(0.103902 -0.735679 -0.0427612)
(0.0381358 -0.656499 0.0329134)
(0.0014017 -0.548221 0.152004)
(0.0140861 -0.302856 0.35879)
(-0.145068 0.0077314 0.448734)
(-0.364405 0.0939516 0.35097)
(-0.390827 -0.0407223 0.255999)
(-0.218584 -0.172256 0.25271)
(-0.178301 -0.188222 0.268959)
(-0.155567 -0.177038 0.214119)
(-0.0864273 -0.140265 0.205348)
(0.00272531 -0.0229633 0.0681487)
(-0.0386741 0.112768 0.0804396)
(-0.0815924 0.151162 0.080169)
(-0.0503457 0.215183 0.169688)
(-0.00962237 0.18401 0.189596)
(0.0139164 0.0484145 0.14153)
(-0.0407727 -0.0235334 0.225354)
(0.0254734 0.0973601 0.321494)
(-0.000545108 -0.0613179 0.285529)
(0.0795351 0.145017 0.245974)
(0.0923478 -0.0257958 0.227549)
(-0.0188808 -0.258535 0.456059)
(0.0525525 -0.362404 0.544237)
(0.173045 -0.508352 0.512879)
(0.165001 -0.696375 0.349824)
(0.0746853 -0.81961 0.142408)
(0.0590054 -0.891012 -0.00854559)
(0.0651686 -0.924823 -0.119811)
(0.0631715 -0.950813 -0.197764)
(0.0600679 -0.965233 -0.248604)
(0.0519534 -0.963243 -0.279185)
(0.0418211 -0.943202 -0.292474)
(0.0292505 -0.905529 -0.28928)
(0.023602 -0.830801 -0.24957)
(0.00732775 -0.785033 -0.328694)
(0.0434869 -0.704223 -0.225224)
(0.0475105 -0.654017 -0.211315)
(0.0447191 -0.636521 -0.232001)
(0.00461837 -0.70247 -0.325085)
(-0.0225337 -0.742004 -0.382817)
(-0.057302 -0.777247 -0.410512)
(-0.0732419 -0.84397 -0.401388)
(-0.13205 -0.904434 -0.345657)
(-0.0940372 -0.968949 -0.331479)
(-0.0889986 -0.979666 -0.372795)
(-0.0537779 -0.918192 -0.417798)
(-0.0435494 -0.868244 -0.431686)
(-0.0177199 -0.826156 -0.404085)
(-0.00961722 -0.869597 -0.340995)
(-0.0393476 -0.901791 -0.373906)
(-0.0560625 -0.948423 -0.396277)
(-0.0237892 -0.991573 -0.405576)
(-0.0486897 -1.05998 -0.420183)
(-0.0665949 -1.04268 -0.423953)
(-0.0935009 -0.920483 -0.344728)
(-0.186621 -0.761835 -0.224238)
(-0.198548 -0.61387 -0.0408088)
(-0.100089 -0.733467 -0.196776)
(-0.0796922 -0.839563 -0.259288)
(-0.0593955 -0.928868 -0.323176)
(-0.0608117 -0.946301 -0.333915)
(-0.0276789 -0.829433 -0.380651)
(-0.0238435 -0.724523 -0.336927)
(-0.0319757 -0.542176 -0.25352)
(-0.0159913 -0.353284 -0.162724)
(0.0334471 -0.0909238 -0.207972)
(-0.24836 -0.433792 0.0734093)
(-0.329396 -0.46138 0.0264628)
(0.221636 -0.118323 -0.244384)
(-0.172366 -0.247361 0.0433927)
(-0.217933 -0.266478 -0.116753)
(-0.258286 -0.268752 -0.103421)
(-0.208454 -0.281589 -0.0214202)
(0.0811615 0.140749 -0.219225)
(0.102726 0.0595984 -0.231872)
(0.100955 -0.000308516 -0.260664)
(0.0964929 -4.43566e-05 -0.265697)
(-0.0797602 -0.429704 -0.201326)
(-0.132833 -0.449915 -0.222485)
(-0.186044 -0.458286 -0.206559)
(-0.249069 -0.445075 -0.169211)
(-0.168971 -0.547468 -0.184263)
(-0.126796 -0.55932 -0.25724)
(-0.0961889 -0.56563 -0.291389)
(-0.0604854 -0.553869 -0.291631)
(-0.05065 -0.742831 -0.348956)
(-0.081585 -0.757451 -0.332008)
(-0.106365 -0.769741 -0.281773)
(-0.147198 -0.759999 -0.194788)
(-0.134524 -0.821771 -0.182371)
(-0.128817 -0.882732 -0.200354)
(-0.0981785 -0.905403 -0.297461)
(-0.0726961 -0.872497 -0.373802)
(-0.0491576 -0.852313 -0.400055)
(-0.0767935 -0.967955 -0.370789)
(-0.112201 -0.989607 -0.335806)
(-0.138161 -1.00985 -0.283653)
(-0.137229 -1.09259 -0.346878)
(-0.0801306 -1.06699 -0.399128)
(-0.0725447 -1.14464 -0.440777)
(-0.0493835 -1.12315 -0.473357)
(-0.0269394 -1.11415 -0.458577)
(-0.00334706 -1.04228 -0.415258)
(0.0120535 -1.07448 -0.406442)
(-0.0127193 -1.1528 -0.469519)
(-0.0398512 -1.17984 -0.494078)
(-0.0685694 -1.20797 -0.462888)
(-0.131576 -1.2285 -0.379108)
(-0.134919 -1.16616 -0.369173)
(-0.283682 -1.04637 -0.225298)
(-0.457399 -1.14586 -0.0769152)
(-0.463804 -1.09989 -0.0674524)
(-0.416091 -1.04552 -0.0647548)
(-0.302927 -1.03601 -0.0738188)
(-0.255769 -0.967265 -0.0640299)
(-0.309253 -0.944746 -0.0576204)
(-0.342365 -0.848891 -0.0421952)
(-0.378113 -0.713562 -0.0378628)
(-0.473784 -0.62682 -0.0366857)
(-0.409897 -0.401463 -0.0340627)
(-0.464901 -0.66077 -0.00581239)
(-0.316746 -0.457618 0.0246035)
(-0.638419 -0.398822 0.00546815)
(-0.8153 -0.379481 0.0601611)
(-0.917757 -0.384654 0.0846489)
(-0.967721 -0.397465 0.124392)
(-0.979741 -0.525587 0.0977931)
(-0.940161 -0.689713 0.0653846)
(-0.923887 -0.750508 0.0525036)
(-0.874422 -0.848834 0.0364487)
(-0.858817 -0.896038 0.0304681)
(-0.820974 -0.928303 0.00761403)
(-0.703695 -0.967918 -0.0230109)
(-0.592517 -1.00242 -0.0419944)
(-0.626774 -0.953014 -0.0172023)
(-0.484987 -0.971998 -0.0307039)
(-0.502883 -0.893686 -0.0301194)
(-0.530493 -0.797208 -0.023267)
(-0.559319 -0.730962 -0.0194526)
(-0.686405 -0.712607 -0.00978388)
(-0.67496 -0.598283 -0.00775476)
(-0.824089 -0.577429 0.0303588)
(-0.918393 -0.559855 0.0504241)
(-0.881328 -0.697328 0.0231585)
(-0.800389 -0.704821 0.0122077)
(-0.777528 -0.790041 0.00229018)
(-0.660919 -0.798465 -0.0107619)
(-0.635778 -0.882871 -0.0170304)
(-0.748491 -0.866501 -0.00512912)
(-0.825511 -0.850922 0.00444911)
(-0.86312 -0.773318 0.0135199)
(-0.801595 -0.739187 -0.0117545)
(-0.62409 -0.612296 0.00194459)
(-0.847108 -0.659892 0.0117067)
(-0.868022 -0.51854 0.0520925)
(-0.870429 -0.379909 0.058175)
(-0.843265 -0.282302 0.121678)
(-0.832254 -0.30232 0.0765778)
(-0.878868 -0.350737 0.0526067)
(-0.875081 -0.203955 0.129136)
(-0.894049 -0.184287 0.174205)
(-0.760614 -0.161548 0.158558)
(-0.766258 -0.129087 0.259333)
(-0.777502 -0.120777 0.302189)
(-0.821127 -0.108657 0.355654)
(-0.828688 -0.119245 0.353077)
(-0.642114 -0.181714 0.25139)
(-0.607133 -0.173653 0.248713)
(-0.567302 -0.18048 0.215776)
(-0.550884 -0.175639 0.189072)
(-0.568675 -0.191208 0.120435)
(-0.338279 -0.194775 0.0768574)
(-0.320052 -0.189283 0.101834)
(-0.329178 -0.19199 0.114446)
(-0.360416 -0.198908 0.12466)
(-0.449106 -0.216886 0.142164)
(-0.405131 -0.253361 0.0600653)
(-0.382068 -0.2849 0.0687601)
(-0.410509 -0.341023 0.0473239)
(-0.315831 -0.426926 0.0361981)
(-0.311701 -0.394344 0.0494669)
(-0.283493 -0.416252 0.015928)
(-0.192842 -0.419499 -0.0201925)
(-0.337026 -0.254099 0.0357229)
(-0.40275 -0.330896 0.0413101)
(-0.248091 -0.457404 -0.00643529)
(-0.291509 -0.459797 0.000539347)
(-0.451584 -0.321194 0.0721571)
(-0.52438 -0.298974 0.131472)
(-0.497789 -0.318643 0.136495)
(-0.470747 -0.336792 0.111515)
(-0.45861 -0.350635 0.0943591)
(-0.493114 -0.373163 0.00861334)
(-0.710597 -0.317846 0.0631966)
(-0.717711 -0.529924 0.0389477)
(-0.548946 -0.554412 -0.00178593)
(-0.50986 -0.607073 -0.00405143)
(-0.465656 -0.649336 -0.0175433)
(-0.436885 -0.652588 -0.0212455)
(-0.412819 -0.530927 -0.0230953)
(-0.411041 -0.54092 -0.0485091)
(-0.409929 -0.541374 -0.0344544)
(-0.335391 -0.55043 -0.0171936)
(-0.267448 -0.595885 -0.00743039)
(-0.319493 -0.580878 -0.00361232)
(-0.403348 -0.512999 0.00704925)
(-0.331952 -0.535377 -0.00427125)
(-0.438701 -0.630382 -0.0119653)
(-0.292907 -0.473224 -0.0052219)
(-0.210348 -0.539693 -0.0184084)
(-0.281041 -0.524646 -0.0163302)
(-0.394351 -0.436104 -0.000768087)
(-0.413771 -0.362774 -0.0104399)
(-0.260581 -0.394211 -0.0111212)
(-0.156959 -0.422904 -0.0364362)
(-0.136314 -0.3995 -0.0226921)
(-0.238108 -0.205341 0.0223632)
(-0.382497 -0.342887 -0.00201691)
(-0.251685 -0.474598 -0.0197627)
(-0.218977 -0.468013 -0.0236645)
(-0.12205 -0.392858 -0.0300205)
(-0.219144 -0.1945 0.0392656)
(-0.346713 -0.337959 0.0122209)
(-0.366049 -0.363303 0.0542702)
(-0.195755 -0.511136 -0.0108091)
(-0.173998 -0.468093 0.0187355)
(-0.109954 -0.42026 0.00199661)
(-0.222235 -0.229079 0.0448294)
(-0.325714 -0.341895 0.0524631)
(-0.334949 -0.338979 0.0571455)
(-0.180531 -0.46327 0.0168174)
(-0.109311 -0.409023 0.000212575)
(-0.231895 -0.22049 0.0623246)
(-0.285882 -0.22148 0.0777088)
(-0.240382 -0.23029 0.0714831)
(-0.350182 -0.337026 0.0786938)
(-0.189603 -0.465355 0.0485525)
(-0.117776 -0.415677 0.0375941)
(-0.140477 -0.449727 -0.0036902)
(-0.196432 -0.497644 0.0258659)
(-0.381566 -0.350698 0.0793383)
(-0.334287 -0.625535 -0.00343831)
(-0.35562 -0.632235 -0.0115767)
(-0.499239 -0.511999 0.0579761)
(-0.651182 -0.44486 0.0983873)
(-0.666599 -0.28686 0.13648)
(-0.797993 -0.271689 0.170639)
(-0.890708 -0.320916 0.166555)
(-1.02074 -0.489116 0.126022)
(-1.10756 -0.49544 0.167778)
(-1.13246 -0.503078 0.192942)
(-1.11253 -0.505448 0.215927)
(-1.04933 -0.501743 0.238797)
(-0.943887 -0.490819 0.260672)
(-0.795202 -0.467511 0.28727)
(-0.640836 -0.432429 0.326816)
(-0.398373 -0.380757 0.395255)
(-0.164801 -0.292056 0.482603)
(0.0374133 -0.150232 0.486942)
(0.333666 -0.158431 0.429067)
(0.335831 -0.217606 0.379647)
(0.20484 -0.127444 0.489425)
(0.271984 -0.00246546 0.768867)
(0.282944 0.0470877 1.03441)
(0.268095 0.0821247 1.14366)
(0.250228 0.134683 1.09178)
(0.212975 0.123643 0.953141)
(0.143227 0.121164 0.700814)
(0.0409844 0.185507 0.401856)
(0.17467 0.511918 0.423456)
(0.424513 0.515005 0.373096)
(0.612261 0.536871 0.374084)
(0.854963 0.495714 0.350716)
(1.01196 0.415896 0.317636)
(1.07578 0.322903 0.274673)
(1.0603 0.255231 0.235124)
(1.00951 0.211128 0.199817)
(1.02756 0.15894 0.167969)
(1.04235 0.118862 0.144905)
(0.983197 0.0927523 0.0910178)
(0.878652 0.0422314 0.0681843)
(0.712936 -0.0230892 0.0544417)
(0.467594 -0.110217 0.0208873)
(0.239904 -0.216872 -0.0229623)
(0.100536 -0.621482 -0.111409)
(0.176728 -0.383768 -0.0792395)
(-0.180209 -0.171747 0.00532556)
(-0.100448 -0.393441 -0.0410502)
(-0.109729 -0.317035 -0.067351)
(-0.111917 -0.345286 -0.075435)
(-0.10915 -0.307739 -0.0651532)
(-0.0763222 -0.234839 -0.0611853)
(-0.148597 -0.186481 -0.0285266)
(-0.22658 0.195536 0.161686)
(-0.140402 0.460621 0.133706)
(-0.0488374 0.591361 0.0770423)
(0.0224974 0.650212 0.0730977)
(0.105191 0.669854 0.154498)
(0.200214 0.709128 0.27161)
(0.297184 0.743647 0.328526)
(0.384867 0.741078 0.364417)
(0.465141 0.681633 0.373223)
(0.531694 0.54709 0.3705)
(0.582643 0.330259 0.334885)
(0.563306 0.00739546 0.259874)
(0.383874 -0.328692 0.250575)
(0.284639 -0.32787 0.315077)
(0.21976 -0.281907 0.32487)
(0.153308 -0.190579 0.332295)
(0.144907 0.00768595 0.308796)
(0.289753 0.0106475 0.335696)
(0.449266 -0.15644 0.328353)
(0.599431 -0.253885 0.340872)
(0.638284 -0.343105 0.350511)
(0.619131 -0.435365 0.352648)
(0.473615 -0.540758 0.33515)
(0.105818 -0.567457 0.319511)
(-0.171113 -0.302183 0.304888)
(-0.0440034 -0.130153 0.355667)
(0.225576 -0.147874 0.237806)
(0.281991 -0.397488 0.0728056)
(0.00906429 -0.513278 0.236321)
(-0.139711 -0.741843 -0.137777)
(0.206059 -0.716982 -0.478417)
(0.303985 -0.388898 -0.175664)
(0.331509 -0.376598 0.0944722)
(0.343691 -0.549926 0.18693)
(0.325023 -0.891757 0.122411)
(0.526499 -0.870946 0.0653203)
(0.602674 -0.689533 0.0977223)
(0.567219 -0.535413 0.13851)
(0.497484 -0.393005 0.18887)
(0.330577 -0.227815 0.245806)
(0.352042 -0.342712 0.195461)
(0.413498 -0.37317 0.142568)
(0.494174 -0.360363 0.0810273)
(0.59774 -0.288961 -0.0543159)
(0.848063 0.199884 -0.112796)
(0.897264 0.475606 -0.017523)
(0.844148 0.670419 0.0547124)
(0.742876 0.765375 0.0967181)
(0.60943 0.78752 0.142654)
(0.458574 0.757648 0.156947)
(0.291911 0.697849 0.159021)
(0.120861 0.638574 0.0925842)
(-0.0464427 0.600863 0.0506919)
(-0.164858 0.545973 0.0661528)
(-0.287469 0.42884 0.132818)
(-0.406748 0.206257 0.172683)
(-0.286437 -0.139172 0.0109227)
(-0.400306 -0.0497723 0.0536786)
(-0.482634 0.0100803 0.0826768)
(-0.538402 0.13311 0.125683)
(-0.535606 0.091561 0.0970179)
(-0.494786 -0.0464797 0.0218591)
(-0.455652 -0.107742 0.0120877)
(-0.391012 -0.163673 -0.0112184)
(-0.295949 -0.222116 -0.0260296)
(-0.19078 -0.255123 -0.0398407)
(-0.14254 -0.229664 -0.0323668)
(-0.197375 -0.19533 -0.0253517)
(-0.181921 -0.344518 -0.0420826)
(-0.122414 -0.339856 -0.0500413)
(-0.100022 -0.358934 -0.077849)
(-0.077445 -0.395502 -0.112729)
(-0.0473958 -0.577425 -0.229329)
(-0.0855593 -0.517576 -0.159068)
(-0.0994988 -0.63145 -0.126195)
(-0.145036 -0.637257 -0.0854061)
(-0.185474 -0.560596 -0.0725448)
(-0.283852 -0.383226 -0.036461)
(-0.270367 0.128057 0.104204)
(-0.115623 0.37074 0.267697)
(-0.0158116 0.460263 0.408789)
(0.0607581 0.469131 0.538027)
(0.133535 0.410953 0.61351)
(0.185705 0.305022 0.647128)
(0.236548 0.157859 0.622591)
(0.226016 -0.0123472 0.524088)
(0.0944558 -0.130897 0.420064)
(-0.0191624 -0.097188 0.4335)
(-0.0379186 0.0244159 0.410852)
(-0.0355746 0.14626 0.414517)
(0.0386959 0.250988 0.354799)
(0.201415 0.138037 0.3706)
(0.157839 0.27573 0.441551)
(-0.0623117 0.164648 -0.0883197)
(-0.175317 -0.0676536 -0.635911)
(-0.18204 -0.305408 -0.528822)
(-0.168869 -0.341465 -0.298085)
(-0.145556 -0.30023 -0.092284)
(-0.062599 -0.583147 -0.104326)
(-0.0285656 -0.860316 -0.0922665)
(0.0016724 -1.01806 -0.0904036)
(0.031886 -1.14233 -0.100127)
(0.0650477 -1.22613 -0.114446)
(0.095577 -1.279 -0.128374)
(0.122312 -1.3057 -0.140332)
(0.146438 -1.31443 -0.152374)
(0.167465 -1.31261 -0.16489)
(0.185785 -1.3038 -0.17571)
(0.201394 -1.28953 -0.184224)
(0.215258 -1.27025 -0.189397)
(0.227523 -1.24561 -0.192127)
(0.238729 -1.21423 -0.190965)
(0.24829 -1.17476 -0.185738)
(0.254051 -1.12488 -0.174878)
(0.251201 -1.06199 -0.158188)
(0.194392 -0.998526 -0.138367)
(0.139523 -0.913296 -0.12224)
(0.164052 -0.829035 -0.086589)
(0.18729 -0.728281 -0.087794)
(0.20341 -0.559485 -0.0876961)
(0.24603 -0.442269 -0.0840886)
(0.0717437 -0.030477 -0.0949561)
(0.365477 -0.298085 0.0438719)
(0.245255 -0.550564 -0.0566118)
(0.285501 -0.094592 -0.0265352)
(0.180188 -0.0368326 -0.146582)
(0.201272 -0.112512 -0.123579)