/*--------------------------------*- C++ -*----------------------------------*\
| =========                 |                                                 |
| \\      /  F ield         | OpenFOAM: The Open Source CFD Toolbox           |
|  \\    /   O peration     | Version:  v2012                                 |
|   \\  /    A nd           | Website:  www.openfoam.com                      |
|    \\/     M anipulation  |                                                 |
\*---------------------------------------------------------------------------*/
FoamFile
{
    version     2.0;
    format      ascii;
    class       volScalarField;
    location    "40";
    object      k;
}
// * * * * * * * * * * * * * * * * * * * * * * * * * * * * * * * * * * * * * //

dimensions      [0 2 -2 0 0 0 0];


internalField   nonuniform List<scalar> 
18258
(
0.043969
0.0214914
0.0189803
0.0162076
0.0170659
0.0200298
0.0216337
0.0268841
0.0319157
0.0372544
0.0434035
0.0511096
0.056017
0.0618412
0.0639043
0.0619267
0.051338
0.0487619
0.0608823
0.0863042
0.0759723
0.0550216
0.0690544
0.0669306
0.0714809
0.0741046
0.0578611
0.0547387
0.0506889
0.0457175
0.0386202
0.0220419
0.0259061
0.0321081
0.0337286
0.037189
0.0396781
0.0414859
0.0428752
0.0440209
0.044041
0.042911
0.0401995
0.0362576
0.0306886
0.0247028
0.0287748
0.0313916
0.0215667
0.0202674
0.0272662
0.0335897
0.0440067
0.0375739
0.0263149
0.0358196
0.0435295
0.0502839
0.0551249
0.058205
0.0596243
0.0593638
0.0576867
0.054968
0.0514524
0.0474413
0.0435664
0.039597
0.0343637
0.0309948
0.0266361
0.0230359
0.0203347
0.0184035
0.0171336
0.0162494
0.0154907
0.0148365
0.0142348
0.0139463
0.013863
0.0138716
0.0138149
0.0138863
0.0141723
0.0116501
0.0096638
0.00914082
0.00907411
0.00877226
0.00756417
0.0103606
0.0120294
0.012831
0.0131449
0.0142629
0.013867
0.0131358
0.0196435
0.021977
0.0229172
0.0231792
0.0227714
0.0289561
0.0288126
0.0280715
0.0263887
0.0233679
0.0170169
0.0199704
0.0211581
0.0200418
0.0186258
0.0181118
0.0152734
0.0147272
0.0138527
0.0135369
0.0141228
0.0179312
0.0173893
0.0177959
0.0189261
0.0191558
0.0204253
0.0217319
0.0208023
0.0205614
0.0151917
0.0151311
0.0161588
0.0159913
0.0164334
0.0203671
0.0204056
0.0204796
0.0204987
0.0226391
0.0226521
0.0227987
0.0229527
0.0250046
0.0230856
0.0222584
0.0221258
0.0221566
0.0206059
0.0207002
0.0205692
0.0206571
0.017127
0.0163202
0.0171588
0.0181747
0.0200719
0.0235593
0.0300112
0.0388748
0.0487183
0.0585041
0.0657724
0.0695325
0.0733932
0.0722712
0.072563
0.0741286
0.0742812
0.0731848
0.0714852
0.0694361
0.0664494
0.0617631
0.0615391
0.0546536
0.0446328
0.0300723
0.0348967
0.0372624
0.0396083
0.0396814
0.0400605
0.0392724
0.0382385
0.0357624
0.032239
0.0270495
0.0222301
0.0276752
0.0333747
0.0381021
0.0431506
0.0479904
0.0511197
0.0535635
0.0657774
0.0618041
0.0590239
0.0593518
0.0615156
0.065767
0.0646983
0.0598587
0.0519365
0.05293
0.0445858
0.0308721
0.0279046
0.0249699
0.0252545
0.0363227
0.0441635
0.0518259
0.0555825
0.0607276
0.0637303
0.067226
0.0707041
0.0665897
0.0622981
0.0474628
0.0657822
0.046864
0.0331942
0.0237993
0.0301656
0.0503633
0.0619278
0.0535903
0.045505
0.0365926
0.0280008
0.0276161
0.0404718
0.0500392
0.0574105
0.0580746
0.0620162
0.0652174
0.0603636
0.0600899
0.0509409
0.052407
0.0531118
0.0462722
0.0438576
0.0339693
0.023214
0.0292026
0.0402992
0.0532601
0.0647491
0.0780501
0.0465835
0.0327617
0.0241961
0.0291361
0.0264771
0.0237682
0.0300105
0.0399116
0.0332947
0.0270441
0.0227512
0.0239545
0.0208601
0.0208667
0.0234078
0.026238
0.0365142
0.0401911
0.0454353
0.0617824
0.0708084
0.086987
0.0829076
0.0724862
0.0777173
0.0523734
0.0519898
0.0642657
0.050606
0.0384999
0.049654
0.0637753
0.0772168
0.0896042
0.100125
0.108628
0.11368
0.105532
0.0785994
0.0470216
0.0231032
0.020947
0.0202778
0.0194274
0.018427
0.0168358
0.0156067
0.0123933
0.0100512
0.0100692
0.0102078
0.00998742
0.00839149
0.00977416
0.0118898
0.0140435
0.0155028
0.0166648
0.0176441
0.0183332
0.0189101
0.0193069
0.0196099
0.0198706
0.0200894
0.0202525
0.0203574
0.0204092
0.0204155
0.0203752
0.0202856
0.0201451
0.0199474
0.0196698
0.0192002
0.0176409
0.0158759
0.0151837
0.0152831
0.0150746
0.0148419
0.0122192
0.0124591
0.0145612
0.0151356
0.0178417
0.0198374
0.0215095
0.0229304
0.0244302
0.0252095
0.0260321
0.0262579
0.0262437
0.02605
0.025781
0.0254089
0.0249215
0.023689
0.0212228
0.024999
0.0275193
0.0294167
0.0309631
0.0321061
0.0323667
0.0296746
0.0372318
0.0391666
0.0402304
0.0405158
0.039466
0.0370158
0.0339821
0.031455
0.0298437
0.0286631
0.0264267
0.0241913
0.0219353
0.0195917
0.0165105
0.0179897
0.0199393
0.02016
0.0199316
0.0210538
0.0223882
0.020621
0.018257
0.0156854
0.0148181
0.0145808
0.0145639
0.0153564
0.014791
0.0144025
0.0146486
0.0171923
0.0182276
0.0199348
0.0234507
0.0223412
0.0203927
0.0280102
0.0294236
0.0299156
0.0304534
0.0304439
0.0298828
0.026466
0.0248657
0.0262372
0.024633
0.0238968
0.0238576
0.0234635
0.0213642
0.0235845
0.025502
0.0270388
0.0279019
0.0295844
0.0312723
0.0338083
0.0360187
0.03809
0.0393614
0.0392685
0.0381725
0.0377634
0.0380593
0.0370543
0.035619
0.0335544
0.0314373
0.0282716
0.0286761
0.0307806
0.032369
0.0340208
0.0357509
0.0356326
0.0336252
0.0319378
0.0304511
0.0285965
0.0286699
0.0305197
0.0321124
0.034031
0.0364084
0.0368534
0.0344823
0.0324285
0.0307047
0.0288044
0.0288765
0.0307795
0.0325142
0.0344523
0.0364503
0.0353653
0.0339193
0.0322418
0.0306018
0.0287595
0.0283269
0.0300639
0.0315528
0.0329134
0.0338578
0.0318582
0.031489
0.0304494
0.0290029
0.0271593
0.0258562
0.0263786
0.0278006
0.0278986
0.0283441
0.0294155
0.0290564
0.0286525
0.0283651
0.0280354
0.0257887
0.0262383
0.0264682
0.0272743
0.0312387
0.0306456
0.0328962
0.0348798
0.0323824
0.0311887
0.0281387
0.034652
0.0342332
0.0344732
0.0328292
0.023181
0.02139
0.0225099
0.0240181
0.0255559
0.0248196
0.0222002
0.0216707
0.0219616
0.0209557
0.018884
0.0160061
0.0121095
0.0120957
0.0119832
0.0126476
0.0153924
0.0171643
0.0172678
0.0169892
0.0163809
0.0151921
0.0138218
0.033623
0.0483212
0.0554
0.0589602
0.0597729
0.0564193
0.0468513
0.0438254
0.0365141
0.0304116
0.0259659
0.0233365
0.0203602
0.0210575
0.0246686
0.0257492
0.0289551
0.0251527
0.0309868
0.0329351
0.0327217
0.0412607
0.0468566
0.0489467
0.0455339
0.0356608
0.0232991
0.0171687
0.0186433
0.019296
0.0197543
0.0201447
0.0205058
0.0197943
0.0172923
0.0150545
0.0149866
0.0155887
0.0181217
0.0198203
0.0209171
0.0209346
0.0216106
0.0231588
0.0220195
0.0204894
0.0199709
0.0189853
0.0217401
0.0223187
0.0220991
0.0221009
0.0227146
0.0229847
0.023043
0.0235818
0.0194577
0.0220487
0.0226961
0.0229911
0.0237361
0.0192107
0.0194529
0.0195666
0.0184568
0.0147824
0.0171216
0.0159999
0.0118751
0.0132239
0.0136113
0.0143047
0.0145757
0.0178012
0.017309
0.0163768
0.0163663
0.0224618
0.0234535
0.0234191
0.0205354
0.0192391
0.0217477
0.022513
0.0221115
0.0211587
0.0212096
0.0201703
0.0183245
0.0175954
0.0177388
0.0191074
0.0199617
0.0200862
0.0235998
0.023109
0.0215644
0.0226397
0.0232898
0.0228656
0.0226781
0.0222778
0.021569
0.0211664
0.0219117
0.0223992
0.0225473
0.0221219
0.0223622
0.0255559
0.0214024
0.0212136
0.0201782
0.0195301
0.0178957
0.0176981
0.0178261
0.0178088
0.0177376
0.0169225
0.0187304
0.0179728
0.020113
0.021701
0.0228198
0.0239577
0.0241172
0.0236887
0.0236464
0.0232409
0.0231901
0.0226508
0.0218307
0.0212581
0.020496
0.0193025
0.0193308
0.0193073
0.0191742
0.0205632
0.0204652
0.0220033
0.0230906
0.0227981
0.0218643
0.0217457
0.0205971
0.0205483
0.0215643
0.0224289
0.022699
0.0235974
0.0263536
0.0237524
0.0253669
0.0260924
0.0268779
0.0261352
0.0250068
0.0256735
0.0240166
0.0228894
0.0241897
0.0249108
0.0261755
0.0269827
0.0248801
0.0238432
0.0226658
0.0218364
0.0209166
0.018398
0.0188871
0.0195628
0.0207383
0.0225549
0.025194
0.0277107
0.0307725
0.030734
0.0283959
0.0269202
0.0314959
0.0309881
0.0360986
0.0364772
0.0325907
0.0301573
0.0274808
0.0269696
0.025934
0.0253281
0.0241147
0.0254372
0.0258829
0.0248629
0.0270958
0.0284424
0.0327304
0.0377746
0.0341456
0.0317549
0.0374496
0.0367356
0.0421245
0.0359288
0.0343814
0.0281023
0.0328791
0.0358932
0.0429727
0.03349
0.0294386
0.0292032
0.0311629
0.0385646
0.0366671
0.0388408
0.0444676
0.043938
0.039552
0.036156
0.0411264
0.0313873
0.0373206
0.0393479
0.0331279
0.0321339
0.0388084
0.0395473
0.0400699
0.0345272
0.0330787
0.0248408
0.0329292
0.039458
0.0394629
0.0329391
0.0267106
0.035888
0.0314196
0.0312055
0.0312072
0.0268114
0.0269244
0.0261688
0.0265702
0.0274749
0.0246879
0.0255191
0.0257283
0.0257758
0.0257308
0.0256862
0.0257254
0.0259454
0.0258893
0.0223671
0.0234461
0.0233867
0.0223206
0.0211502
0.0250014
0.0275776
0.0295271
0.0311176
0.032312
0.0326161
0.0298471
0.0372335
0.0392838
0.040778
0.0410262
0.0397557
0.0371591
0.0341342
0.0316555
0.0300451
0.0288667
0.0266529
0.0244448
0.0222478
0.0199976
0.0170144
0.0154941
0.014374
0.0129739
0.0131048
0.0128625
0.0125277
0.01232
0.0126588
0.015155
0.0167508
0.0168913
0.0166511
0.0160405
0.0147695
0.0150321
0.0404677
0.0526398
0.0594254
0.0628654
0.0634771
0.0597263
0.0471717
0.042948
0.0387122
0.0345703
0.0319359
0.0325767
0.0412814
0.049529
0.0564986
0.0625673
0.0660848
0.0641496
0.05008
0.0483269
0.0635256
0.0903297
0.079173
0.102061
0.122255
0.0815711
0.0667391
0.0654951
0.0780179
0.0808523
0.074931
0.0660446
0.0559466
0.0447157
0.0486918
0.0525011
0.0561092
0.0592324
0.0740089
0.0780045
0.0768803
0.072776
0.065087
0.0527533
0.0244738
0.0151774
0.016556
0.0179886
0.0187846
0.0191637
0.0173297
0.0181168
0.0179638
0.0184814
0.0177603
0.0126869
0.013304
0.013883
0.0144215
0.014079
0.0146914
0.0161461
0.0211394
0.0189524
0.0180081
0.0147264
0.0166892
0.0190123
0.0199414
0.0198004
0.0195166
0.0190959
0.0184027
0.0169362
0.026923
0.0411376
0.0492849
0.052648
0.0501798
0.0442892
0.034228
0.0325434
0.0298071
0.0281584
0.0284086
0.0295851
0.0257988
0.01513
0.0150873
0.0161895
0.0155819
0.0144224
0.0163905
0.0176303
0.0184136
0.0190381
0.0195125
0.0198868
0.0201615
0.0203523
0.0204663
0.0205192
0.0205225
0.0204772
0.0203805
0.0202303
0.020019
0.0197226
0.0192256
0.0176105
0.0158174
0.0150637
0.0151319
0.0148876
0.0145065
0.0126297
0.0128959
0.0147474
0.0153624
0.0149068
0.0154894
0.0159103
0.0170328
0.0190455
0.0210775
0.0228467
0.0216491
0.0211396
0.0212236
0.020798
0.0182636
0.021746
0.0239227
0.0243921
0.0244867
0.0251614
0.0266174
0.0276807
0.0269009
0.0266357
0.0261569
0.0238715
0.0257536
0.0283517
0.0286889
0.0290119
0.029419
0.0297639
0.0311795
0.0307348
0.0303356
0.0298946
0.0281015
0.0272509
0.0307696
0.0229817
0.0191023
0.0173008
0.0134459
0.0127669
0.0127009
0.0136982
0.0144271
0.0155964
0.0152137
0.0161791
0.0167864
0.015345
0.0173939
0.0167862
0.0163594
0.0145806
0.0141676
0.0143582
0.0160475
0.0177749
0.0290634
0.0313802
0.025724
0.0336849
0.0343821
0.0290194
0.0330779
0.0313326
0.0311462
0.0341849
0.0364097
0.0359941
0.0339694
0.0335182
0.0314318
0.0211893
0.0205764
0.0198251
0.0181695
0.0191107
0.0188635
0.0182705
0.0178462
0.0205135
0.0214895
0.0219189
0.0214633
0.0210907
0.0207334
0.0203551
0.0198036
0.0210621
0.0277687
0.0363565
0.04162
0.0400831
0.0308095
0.023438
0.0248934
0.0245089
0.0245477
0.0252473
0.018484
0.015384
0.0179767
0.0175465
0.0186256
0.0192972
0.0198171
0.020225
0.0205628
0.0208523
0.021126
0.0213795
0.021599
0.0217785
0.0219225
0.0220227
0.0221248
0.0222481
0.0224557
0.0226572
0.0214025
0.0189584
0.0176812
0.0175415
0.0182511
0.0191918
0.0203729
0.0196466
0.015781
0.0157592
0.022398
0.0227513
0.0213491
0.0199122
0.0199564
0.019144
0.0226977
0.0224024
0.0228452
0.0226867
0.0225034
0.0223307
0.0221638
0.0219816
0.0217631
0.0215627
0.0213753
0.0211967
0.0210208
0.0208282
0.0206003
0.0202388
0.0196243
0.0189394
0.0163528
0.0180975
0.0196353
0.0212113
0.0226877
0.0228673
0.0219603
0.0212573
0.0212122
0.0213997
0.0216177
0.0218428
0.0220927
0.0223532
0.0226048
0.0228784
0.0228627
0.0217997
0.0224052
0.0175304
0.0184537
0.018706
0.0186456
0.0203887
0.0194954
0.0148371
0.0154878
0.0161684
0.0173367
0.0197817
0.0200717
0.0212339
0.0214412
0.01738
0.017103
0.0167238
0.0177382
0.015531
0.0160539
0.0263367
0.0272142
0.0354665
0.0386472
0.0404918
0.0335933
0.0466551
0.0534464
0.0515797
0.0419262
0.0238114
0.0356101
0.0431254
0.0496415
0.046548
0.0361411
0.0459765
0.0486724
0.0658901
0.0613793
0.0547585
0.0663312
0.0461403
0.0278691
0.0161922
0.0167267
0.0154788
0.0314431
0.0357344
0.0323321
0.0330469
0.041112
0.0421465
0.0371135
0.0355327
0.0373694
0.0368744
0.0409148
0.0379762
0.0346136
0.0236396
0.0192845
0.0200251
0.0213119
0.0230005
0.0252286
0.0251938
0.024165
0.0229335
0.0220771
0.0211087
0.0186224
0.0180466
0.0200317
0.021691
0.0230992
0.0245883
0.0253606
0.026183
0.0263973
0.0263596
0.0261282
0.0258072
0.0253734
0.0248193
0.0235292
0.0254588
0.0257377
0.0256694
0.0257318
0.0258423
0.0259242
0.0258929
0.025684
0.0248454
0.0241181
0.0229811
0.0218384
0.0202145
0.0180841
0.0187575
0.0205178
0.0221147
0.023234
0.0242722
0.0238344
0.0242406
0.0247963
0.0249272
0.0249675
0.0249679
0.025065
0.0253967
0.0263081
0.0282381
0.0269076
0.0271122
0.0285939
0.0265158
0.0254788
0.0250453
0.0248697
0.0248257
0.0247662
0.0246351
0.0240887
0.0235064
0.0239785
0.0241651
0.0243265
0.0245348
0.024895
0.0255125
0.02657
0.0277814
0.0272124
0.0270152
0.0275334
0.026358
0.0253815
0.0248543
0.024589
0.0244363
0.024305
0.024126
0.0236487
0.0233757
0.0237903
0.0228198
0.0229237
0.0219561
0.0206065
0.0191643
0.0177022
0.0170388
0.0365574
0.0364219
0.0475005
0.0437311
0.038177
0.0489137
0.0626078
0.0540914
0.0655241
0.0694446
0.0562723
0.0522271
0.0285627
0.0248133
0.0177758
0.0193041
0.0206442
0.0218313
0.021647
0.0225412
0.0224214
0.0233258
0.0227832
0.0219461
0.021544
0.0205444
0.0205971
0.0193326
0.0177887
0.0176663
0.0193092
0.0202318
0.0213644
0.021304
0.0226653
0.0232692
0.0236772
0.0239243
0.024128
0.0243325
0.0246038
0.0250225
0.0256956
0.026094
0.0259592
0.0260392
0.0261935
0.0258321
0.0251435
0.0246741
0.024312
0.0240487
0.0238076
0.0235432
0.0231325
0.0225323
0.0224006
0.0229168
0.0233028
0.0236398
0.0238479
0.0239573
0.0239685
0.0239528
0.0239951
0.0238007
0.0236248
0.0236485
0.0238238
0.0239565
0.0238888
0.0239314
0.0240072
0.0239405
0.0237582
0.0234357
0.0230543
0.0225364
0.0215133
0.0216007
0.022434
0.0228768
0.0231967
0.0234332
0.0234099
0.0231404
0.0226224
0.0221208
0.0216974
0.0212524
0.0207999
0.0207936
0.0212261
0.0217089
0.0221603
0.0226456
0.0230788
0.0233127
0.0233161
0.0230641
0.0227376
0.0222952
0.0214784
0.0214916
0.0221766
0.0225449
0.0227588
0.0228055
0.0225542
0.0219111
0.0210248
0.0201007
0.0192907
0.0186234
0.0179047
0.0178264
0.0185987
0.0192501
0.0200396
0.0210083
0.0220079
0.0226713
0.0229256
0.0228945
0.0226878
0.0223191
0.0216213
0.0215898
0.0221817
0.0224832
0.0225959
0.0225236
0.0219349
0.0207216
0.0190572
0.0176109
0.0164724
0.0157384
0.014694
0.0149204
0.0158833
0.016624
0.0177335
0.0190775
0.0205703
0.021776
0.0223826
0.0224502
0.0223343
0.0220347
0.0214549
0.0213717
0.0218604
0.0220997
0.0220601
0.0216377
0.0206822
0.0189965
0.0172904
0.0159587
0.01527
0.0151156
0.014459
0.0145294
0.0152289
0.0153256
0.0159108
0.0172762
0.0191874
0.0208835
0.0218031
0.022224
0.0222613
0.0220153
0.0215116
0.0213945
0.0218428
0.0220724
0.0220212
0.0216938
0.0207459
0.019179
0.0171488
0.0153224
0.0152862
0.0153901
0.0146233
0.0146437
0.0152177
0.0148668
0.0150308
0.0167039
0.0186163
0.0203185
0.0213963
0.0218095
0.0218867
0.0216751
0.021249
0.0210919
0.0214837
0.0217303
0.0216738
0.0212695
0.0204038
0.0189525
0.0174505
0.0163861
0.01714
0.0168224
0.0160334
0.0158959
0.016854
0.0177758
0.0171574
0.0184998
0.0200236
0.0211643
0.021773
0.0220015
0.0219723
0.0216764
0.0212454
0.0210702
0.021541
0.0219955
0.0223531
0.0225031
0.0222903
0.0220748
0.0212293
0.0196729
0.0196409
0.0174157
0.0160242
0.0162366
0.0173886
0.0187406
0.0185522
0.0198475
0.0206927
0.0212739
0.0217689
0.0218671
0.0216773
0.0213138
0.0209085
0.0206763
0.0210688
0.0214885
0.0217931
0.0215954
0.0210361
0.0202672
0.0194804
0.0187698
0.0198277
0.0196529
0.0189762
0.0186278
0.0195688
0.0207211
0.0198713
0.0210704
0.0216003
0.0220688
0.0223693
0.0223354
0.021857
0.0213228
0.0208385
0.0205249
0.0209371
0.0216793
0.0217826
0.0218895
0.0218184
0.0211551
0.0209575
0.0202672
0.0199287
0.0190779
0.0183765
0.0176446
0.0196424
0.0228199
0.0249504
0.02628
0.0279761
0.0260738
0.0225643
0.0201802
0.0143848
0.0143671
0.0145227
0.0142009
0.0140668
0.0140869
0.0190127
0.0217594
0.0243043
0.025869
0.0235364
0.0234599
0.0233735
0.0232721
0.023097
0.0229135
0.0226441
0.0229035
0.0372236
0.279988
0.19906
0.22947
0.219194
0.313932
0.0696812
0.0378845
0.0421894
0.0482358
0.0543868
0.0522193
0.0489307
0.0431348
0.0389481
0.0387167
0.0377697
0.0377061
0.0365502
0.0372485
0.0385443
0.0867215
0.127876
0.14584
0.157099
0.163995
0.168962
0.163379
0.169985
0.159401
0.159018
0.160099
0.165009
0.157332
0.150227
0.146763
0.142448
0.124365
0.124399
0.104812
0.108389
0.0902628
0.0954651
0.0994015
0.0986168
0.09733
0.0971232
0.0974866
0.0984564
0.102487
0.0970464
0.100782
0.0891909
0.0697227
0.0675697
0.0683148
0.062778
0.0549425
0.0618657
0.0759929
0.0922059
0.111324
0.0963136
0.12313
0.118585
0.122155
0.115478
0.107955
0.103865
0.102871
0.10345
0.104711
0.107635
0.110115
0.112303
0.115989
0.125425
0.128729
0.128095
0.109874
0.0930391
0.10241
0.107878
0.11169
0.111489
0.105854
0.10402
0.0988203
0.0969661
0.0920894
0.0890815
0.0840622
0.0802167
0.0753795
0.0935764
0.0905582
0.0979491
0.104682
0.108466
0.112479
0.113799
0.115475
0.114086
0.111657
0.105805
0.103092
0.0976924
0.117714
0.136533
0.138359
0.132633
0.11805
0.111545
0.357782
0.433159
0.435371
0.650285
0.698437
0.907332
0.351126
0.182493
0.197257
0.193765
0.184962
0.181616
0.181547
0.193442
0.204581
0.194043
0.213609
0.185429
0.186296
0.165732
0.18615
0.181999
0.16227
0.142321
0.110262
0.0852498
0.0820103
0.0705288
0.0711454
0.0661261
0.0707865
0.0812551
0.149832
0.214088
0.241378
0.266538
0.294611
0.358652
0.325166
0.480383
0.37731
0.457989
0.312574
0.340185
0.324778
0.315407
0.314032
0.331537
0.361339
0.315841
0.395141
0.313901
0.669924
0.815324
0.499699
0.467901
0.414093
0.398526
0.387592
0.381371
0.373773
0.495894
0.458585
0.582892
0.542276
0.694618
0.580846
0.570631
0.536593
0.565863
0.578105
0.588173
0.459743
0.484117
0.384599
0.415122
0.360289
0.400135
0.289663
0.313434
0.359799
0.394369
0.427566
0.503395
0.765916
0.644778
0.862539
0.608959
0.729009
0.503891
0.555656
0.527857
0.511036
0.514861
0.545615
0.652687
0.628897
0.728744
0.514963
0.526992
0.516962
0.53423
0.52368
0.558327
0.563052
0.564353
0.562529
0.523473
0.534281
0.532338
0.532029
0.532025
0.532405
0.509676
0.512913
0.505313
0.511085
0.526814
0.514704
0.514544
0.512404
0.504858
0.502794
0.502291
0.504072
0.503821
0.508979
0.508841
0.509196
0.512291
0.527015
0.51449
1.86189
0.920443
0.447499
0.356314
0.227619
0.14117
0.0590619
0.0641862
0.0677575
0.0693197
0.0678898
0.063101
0.0553744
0.0463756
0.0378568
0.0375543
0.0332736
0.0249368
0.0204834
0.0283586
0.0249331
0.0347
0.0444098
0.054133
0.0624936
0.0693406
0.0750587
0.0796572
0.07876
0.0685076
0.052266
0.0365181
0.0276895
0.0256229
0.0239508
0.0215509
0.019185
0.0178143
0.0164934
0.0148497
0.0138572
0.0135713
0.0134489
0.0135023
0.0136688
0.0151592
0.0164086
0.0175255
0.0183706
0.0186122
0.0185195
0.0190468
0.0196734
0.0200584
0.0203813
0.0206937
0.0209453
0.0212262
0.0212018
0.0214744
0.0213507
0.0212671
0.0210623
0.0206705
0.0204073
0.0198432
0.0195586
0.0189836
0.0187026
0.018151
0.0181711
0.0184837
0.018814
0.0180748
0.0181856
0.0174113
0.0174377
0.0248311
0.049731
0.0602326
0.0676364
0.0622889
0.0476459
0.0271279
0.0188675
0.0196924
0.0201476
0.0207568
0.0194566
0.0190838
0.0206666
0.0210939
0.0193275
0.019238
0.0192094
0.0201506
0.0204859
0.0208973
0.021125
0.0214668
0.0216696
0.0218747
0.0220278
0.0219335
0.0220037
0.0216037
0.0215874
0.0213005
0.0209946
0.0213759
0.0222178
0.022219
0.0226775
0.0224176
0.0217125
0.02121
0.0207679
0.0202907
0.0199792
0.019402
0.0185736
0.0182964
0.0187209
0.0196627
0.0189321
0.0209469
0.0222047
0.0218166
0.0222671
0.0223361
0.0207651
0.0214605
0.0211591
0.0211044
0.0199088
0.0185377
0.0192391
0.0181693
0.0182777
0.0182698
0.0187431
0.0193723
0.0198568
0.020069
0.0205524
0.0212772
0.0219457
0.0238147
0.0239408
0.0231764
0.023092
0.021539
0.0206468
0.0203383
0.0215498
0.0233548
0.022881
0.0235458
0.0234701
0.021657
0.0208608
0.0199746
0.0193577
0.0190674
0.0187177
0.0178785
0.0177428
0.0166803
0.0170529
0.015746
0.0183178
0.0195439
0.0220816
0.0200402
0.0182303
0.0187635
0.0215171
0.0337653
0.022544
0.018763
0.0256979
0.0343971
0.0435088
0.0336286
0.0331716
0.0185058
0.0243583
0.0154665
0.0156835
0.0168328
0.016766
0.0180933
0.0188665
0.0190277
0.0195391
0.0197985
0.0206259
0.0208799
0.0216469
0.0218429
0.0236666
0.0236907
0.0236002
0.0235642
0.0230114
0.0229994
0.0233949
0.0238068
0.0234126
0.0236688
0.0236711
0.023874
0.0239073
0.0220673
0.0217259
0.0209035
0.0203688
0.0194009
0.0189627
0.0184391
0.018222
0.0175117
0.0176745
0.0182432
0.018351
0.0192427
0.0192563
0.0200658
0.0202824
0.0207792
0.0209112
0.0216399
0.0217648
0.0220588
0.0221092
0.0238289
0.0239075
0.0238481
0.0238123
0.0237551
0.0239263
0.0239324
0.0239298
0.024043
0.0246213
0.0244916
0.0242682
0.0255544
0.0263318
0.0251997
0.0247295
0.0249337
0.0260784
0.0266969
0.0280095
0.0289217
0.0300975
0.0309611
0.0317617
0.0322987
0.0326755
0.03256
0.0324653
0.031737
0.0312472
0.032663
0.0387144
0.0417367
0.0465522
0.0488003
0.0501344
0.0507458
0.049745
0.0505973
0.0494889
0.0497991
0.0488732
0.0486151
0.048023
0.0472298
0.0466687
0.0454281
0.0448005
0.0492961
0.0567393
0.0572654
0.0500755
0.0473244
0.0441781
0.0399783
0.040257
0.0479625
0.0437336
0.039634
0.0376819
0.033423
0.0274895
0.0197464
0.0125427
0.0196683
0.0290275
0.03833
0.0464431
0.0522136
0.0552674
0.0566509
0.0593377
0.0583966
0.0519393
0.0426293
0.0351874
0.0326932
0.0311639
0.0282643
0.024159
0.0214342
0.0201128
0.0187011
0.016919
0.0155706
0.0151799
0.0149782
0.0149646
0.0162754
0.0174622
0.017535
0.0186347
0.0190421
0.0195219
0.0200672
0.0204146
0.0213949
0.021318
0.0203007
0.0206523
0.020942
0.0216353
0.0215153
0.0217244
0.0213598
0.0206555
0.0200773
0.019489
0.0189378
0.0185468
0.0180362
0.0175408
0.0173431
0.0178184
0.0176971
0.0179648
0.0183081
0.0185838
0.0192046
0.0200029
0.0207604
0.0224044
0.0227329
0.0223208
0.022389
0.021045
0.0209903
0.0199898
0.0198073
0.0215187
0.0214655
0.0196659
0.0211516
0.0209997
0.0225332
0.0225306
0.0220171
0.0223825
0.0220878
0.0204426
0.0196012
0.0186709
0.0179401
0.0174918
0.0172194
0.0170775
0.0172953
0.016866
0.0162063
0.0162675
0.0162645
0.0163315
0.0166385
0.0169765
0.0176461
0.0182337
0.0191403
0.0196803
0.0204809
0.0207806
0.0225072
0.0225014
0.0225148
0.02253
0.0223935
0.0228516
0.0221083
0.0220969
0.0224201
0.0224283
0.0222944
0.022234
0.0205841
0.0203945
0.0196268
0.019358
0.0185458
0.0182377
0.0176247
0.0173839
0.0170707
0.0169221
0.0251168
0.0277805
0.028537
0.0439936
0.0220012
0.0223149
0.0381626
0.0190449
0.0255194
0.0266286
0.0274788
0.0280845
0.0250172
0.0338915
0.0232239
0.0249929
0.0261904
0.0272634
0.0149639
0.0149873
0.0147607
0.014632
0.0155233
0.0162451
0.0358497
0.0451646
0.0527125
0.0572414
0.0603547
0.0639134
0.0670874
0.069981
0.071162
0.0688593
0.0668762
0.0588939
0.0555576
0.059585
0.0645187
0.0516179
0.0467699
0.0475267
0.0485009
0.0492957
0.0498869
0.0509436
0.0510339
0.0525026
0.0518476
0.0533281
0.0524659
0.0539146
0.0520846
0.0483479
0.0447648
0.037215
0.0346487
0.0333858
0.0304961
0.0276884
0.0246934
0.0225798
0.0221842
0.0203123
0.0182127
0.0178677
0.0166171
0.0163245
0.0172437
0.0201626
0.0174262
0.0188733
0.0269909
0.0202598
0.0193545
0.0200676
0.0206467
0.0208448
0.0198373
0.0216271
0.0238252
0.0234585
0.0234855
0.0234297
0.0228841
0.0228013
0.022405
0.0224419
0.0224749
0.0225251
0.0224457
0.0208309
0.0207799
0.0205437
0.0204149
0.0197202
0.0195828
0.0190882
0.0188357
0.0180885
0.0178797
0.0174459
0.0174241
0.016009
0.0157367
0.015588
0.0160346
0.0156206
0.0153981
0.0154777
0.0256388
0.0253972
0.0291217
0.0282684
0.041936
0.0280647
0.0249978
0.0248385
0.0301898
0.0296149
0.0317917
0.0449626
0.0326979
0.0261265
0.0304403
0.0287172
0.032005
0.0363525
0.038972
0.0564522
0.0615325
0.0328768
0.038957
0.052149
0.0486351
0.0464657
0.0219285
0.0261957
0.0166998
0.014736
0.0154969
0.024965
0.0327573
0.0285714
0.0327738
0.0672793
0.0407742
0.0498608
0.0603332
0.059708
0.0638715
0.0592868
0.0561189
0.0553841
0.100598
0.0980707
0.040022
0.0488976
0.0449276
0.0589364
0.0873407
0.113972
0.113314
0.123336
0.0749857
0.0309811
0.0265874
0.0253021
0.0253147
0.0283867
0.0280249
0.0510871
0.0223433
0.0239715
0.0247522
0.0301237
0.0323466
0.057768
0.0246849
0.027319
0.0348919
0.0366044
0.0502237
0.0284687
0.0297691
0.0366989
0.0385989
0.0419275
0.0356378
0.0336589
0.031058
0.0275421
0.0258654
0.025592
0.0322078
0.0506325
0.0292378
0.0296852
0.031801
0.123011
0.0326012
0.0283758
0.0279605
0.0266875
0.0343998
0.0384255
0.0952157
0.0324103
0.0177418
0.0175111
0.0179995
0.0186987
0.0192341
0.0197227
0.0201459
0.0206547
0.021079
0.0211369
0.021286
0.023519
0.0235983
0.0230685
0.0225249
0.0234158
0.0226604
0.0227506
0.0233815
0.0229077
0.0228993
0.0239897
0.0249394
0.0245641
0.0252494
0.0265465
0.0254628
0.0236431
0.0235027
0.0237724
0.0244424
0.0257606
0.0244686
0.0250381
0.0241612
0.025351
0.0251034
0.0218243
0.0215263
0.0214511
0.020926
0.0203515
0.0197837
0.0191817
0.0185052
0.0177439
0.0170776
0.0164545
0.0170248
0.0165971
0.0158781
0.0149654
0.0156555
0.0165174
0.0174379
0.0183033
0.0189683
0.0196693
0.0203796
0.0210116
0.0215862
0.0216916
0.0221928
0.0260125
0.0265398
0.0277967
0.0262865
0.0277097
0.0267639
0.0252479
0.024387
0.0256097
0.0247105
0.0251483
0.0269407
0.0279331
0.0256058
0.0260732
0.0235454
0.022073
0.0202069
0.0206653
0.0224174
0.0230769
0.0257298
0.0255957
0.029333
0.0289563
0.0285201
0.0270388
0.0263435
0.0280492
0.0265063
0.0277159
0.026509
0.0281111
0.0292437
0.0298604
0.0291502
0.0275481
0.0266392
0.0224782
0.021781
0.0215113
0.0209128
0.0202518
0.0195141
0.0187881
0.0182434
0.0175673
0.0166932
0.0158366
0.0151707
0.0149216
0.0145931
0.0144263
0.0155567
0.0147306
0.0158422
0.0348729
0.0169246
0.0232251
0.0204347
0.0153738
0.0355941
0.038452
0.0391754
0.0365886
0.0310014
0.0254652
0.0216487
0.0210738
0.0215607
0.0471495
0.0490538
0.074584
0.0745568
0.0799329
0.0793237
0.0773396
0.0763777
0.0751874
0.0718375
0.0717051
0.0705252
0.0710944
0.0628976
0.0638071
0.0646306
0.0622844
0.0595377
0.0572801
0.0551406
0.0528649
0.0488157
0.0473883
0.0446478
0.0426102
0.0390557
0.0386874
0.038202
0.0359126
0.0342607
0.0329389
0.0315951
0.0297933
0.0298318
0.0277538
0.0275393
0.0225178
0.0222795
0.0214413
0.0210142
0.0204501
0.0198017
0.0191516
0.018156
0.033821
0.0305519
0.0327026
0.0341156
0.0350091
0.0410519
0.0483709
0.0757989
0.0707648
0.0795467
0.0666835
0.0696157
0.0680163
0.0671844
0.0696821
0.0734135
0.0786394
0.0912742
0.339771
0.51424
0.258029
0.241181
0.250019
0.254371
0.262001
0.34848
0.36483
0.36819
0.367016
0.335454
0.318011
0.197324
0.226635
0.23855
0.237056
0.223958
0.190148
0.327288
0.522917
0.518995
0.523693
0.523804
0.51873
0.522803
0.502879
0.514237
0.501766
0.515078
0.502334
0.522039
0.519347
0.50436
0.501121
0.501127
0.500892
0.501338
0.501523
0.504825
0.505993
0.506045
0.505043
0.503412
0.514953
0.317712
0.0469452
0.0398272
0.0590291
0.079274
0.0595305
0.0702143
0.0910368
0.0645634
0.0387807
0.0350021
0.0411538
0.0429211
0.0392441
0.0421595
0.0548205
0.0517975
0.0429537
0.0411709
0.0402404
0.0552583
0.051217
0.0649874
0.0807108
0.0813709
0.0524437
0.0400107
0.03863
0.0673009
0.0755911
0.0701495
0.0303963
0.0223773
0.0198883
0.0207064
0.0296519
0.0166074
0.0181659
0.0183938
0.018862
0.0410785
0.0214791
0.0286473
0.0257193
0.0721863
0.0643611
0.0949314
0.0548944
0.0907588
0.0501556
0.0592775
0.0679449
0.0755255
0.066394
0.0501116
0.100606
0.129895
0.0888419
0.424063
0.431722
0.116025
0.180374
0.535006
0.513524
0.502931
0.501657
0.501659
0.501826
0.501784
0.500943
0.500891
0.500711
0.500752
0.500709
0.501155
0.504762
0.520841
0.51495
0.50525
0.501385
0.500819
0.500788
0.500678
0.500712
0.50073
0.500778
0.500985
0.501009
0.50109
0.501573
0.503789
0.512611
0.449589
0.16573
0.185348
0.416465
0.371798
0.511783
0.504622
0.501323
0.500895
0.500819
0.500794
0.500767
0.500942
0.500873
0.501377
0.501215
0.501279
0.502794
0.508338
0.506564
0.460118
0.383431
0.43519
0.342082
0.506844
0.507853
0.503263
0.502864
0.503213
0.503365
0.501483
0.50148
0.500956
0.501018
0.500852
0.501309
0.504788
0.511434
0.355215
0.175611
0.181678
0.267403
0.086913
0.0874329
0.0859262
0.0837332
0.206347
0.331087
0.437188
0.368004
0.414964
0.466206
0.337821
0.324401
0.257319
0.279711
0.356756
0.319604
0.296442
0.230125
0.261613
0.231632
0.292561
0.210768
0.23428
0.220585
0.276727
0.282996
0.286126
0.228727
0.217223
0.26968
0.293093
0.328948
0.220667
0.26665
0.201733
0.19261
0.0821393
0.0805659
0.0710783
0.0605615
0.0641545
0.0734757
0.0740994
0.0809316
0.0790221
0.0844348
0.0824049
0.0789006
0.0705556
0.072056
0.064649
0.0663612
0.127406
0.167873
0.150193
0.149173
0.177004
0.11719
0.147928
0.122723
0.161878
0.19606
0.0746341
0.102454
0.0895468
0.178078
0.265399
0.592493
0.159394
0.0947402
0.211811
0.349858
0.278247
0.182155
0.438057
0.560751
0.30434
0.387154
1.28063
1.0817
1.82954
0.918857
0.967202
0.503325
0.55591
0.956785
0.576239
0.54283
0.449876
0.509237
0.312759
0.205683
0.189174
0.18948
0.142611
0.14842
0.142091
0.204804
0.224766
0.174184
0.209199
0.248494
0.298466
0.26807
0.20963
0.253761
0.132621
0.146975
0.192267
0.184606
0.145806
0.18749
0.253317
0.180374
0.141998
0.221756
0.302956
0.34148
0.257217
0.209218
0.232351
0.683495
0.622966
0.677635
0.363895
1.87415
1.47142
0.152343
0.0600994
0.0299092
0.0236303
0.0217345
0.0193969
0.0188824
0.0442498
0.0207155
0.0237767
0.0208712
0.0231921
0.0247126
0.028442
0.0408472
0.0331359
0.0398438
0.0327665
0.0321384
0.028771
0.0338231
0.0356188
0.0331837
0.0269883
0.0264573
0.0328118
0.0349949
0.0251098
0.0335545
0.0360266
0.0289265
0.037198
0.0382059
0.0245212
0.100759
0.043043
0.0382895
0.0364658
0.0497753
0.107102
0.0441702
0.065987
0.393129
1.36019
0.354715
0.117943
0.0872745
0.040393