/*--------------------------------*- C++ -*----------------------------------*\
| =========                 |                                                 |
| \\      /  F ield         | OpenFOAM: The Open Source CFD Toolbox           |
|  \\    /   O peration     | Version:  v2012                                 |
|   \\  /    A nd           | Website:  www.openfoam.com                      |
|    \\/     M anipulation  |                                                 |
\*---------------------------------------------------------------------------*/
FoamFile
{
    version     2.0;
    format      ascii;
    class       volScalarField;
    location    "95";
    object      epsilon;
}
// * * * * * * * * * * * * * * * * * * * * * * * * * * * * * * * * * * * * * //

dimensions      [0 2 -3 0 0 0 0];


internalField   nonuniform List<scalar> 
18258
(
0.0252218
0.0127347
0.00973163
0.00783953
0.0132893
0.0130909
0.0135532
0.0179899
0.0249376
0.0378672
0.0544239
0.0486294
0.0438016
0.0453873
0.0474526
0.0450012
0.03508
0.0305269
0.0407972
0.0675784
0.0611218
0.0501524
0.0610963
0.0520605
0.0672321
0.0853076
0.0655731
0.058792
0.0528627
0.0501137
0.0439367
0.0274081
0.0324395
0.0513551
0.0720207
0.0799325
0.0865084
0.0918813
0.0975978
0.100385
0.101144
0.096121
0.086789
0.0705334
0.051129
0.0379637
0.0269902
0.0332372
0.0462381
0.0451701
0.0551885
0.0844482
0.106691
0.080174
0.0515066
0.0822135
0.112073
0.143787
0.17031
0.192787
0.20054
0.197167
0.185699
0.169034
0.147651
0.122715
0.101742
0.0848177
0.0670349
0.0572193
0.0462329
0.038289
0.0326901
0.0290034
0.026784
0.0250925
0.023954
0.0248922
0.0247874
0.0176973
0.0139205
0.0130736
0.00935103
0.00777135
0.00808466
0.00767486
0.00794827
0.00700617
0.0060169
0.00524675
0.00446585
0.00656532
0.00710075
0.00736308
0.00740321
0.00792709
0.00799564
0.00765912
0.00771716
0.00695951
0.00892274
0.0128645
0.014218
0.0179645
0.0165098
0.0123867
0.00871219
0.00982063
0.010397
0.0132128
0.0128923
0.0135565
0.0119973
0.0109979
0.00925011
0.0089169
0.00909863
0.00966476
0.0100332
0.0117446
0.0116051
0.0108098
0.0119317
0.0131432
0.0128516
0.0122649
0.0116338
0.0142715
0.0113581
0.0120314
0.0135187
0.0217692
0.0213114
0.0259933
0.0255063
0.0258806
0.0260349
0.0314562
0.0315784
0.0319303
0.0322567
0.0340856
0.0569431
0.0506522
0.0495969
0.0494043
0.0426796
0.0422824
0.0416812
0.0425239
0.0357584
0.0343748
0.0312004
0.0308551
0.0344243
0.043402
0.0607645
0.0878468
0.121571
0.157668
0.187725
0.208506
0.230068
0.235436
0.249194
0.253901
0.254898
0.249428
0.24126
0.232048
0.219426
0.201046
0.188513
0.148287
0.105026
0.0589215
0.0782695
0.0902858
0.100001
0.101901
0.103067
0.0989716
0.0926359
0.0814062
0.0657783
0.0430375
0.0504924
0.0681948
0.0703051
0.0708979
0.0561491
0.0538516
0.0497465
0.0494956
0.0649184
0.0750124
0.0631982
0.0879178
0.103196
0.0900989
0.0652204
0.0999638
0.148003
0.0831804
0.0710636
0.0553817
0.0543565
0.0459817
0.0380161
0.0621769
0.0928117
0.128103
0.149325
0.171151
0.188711
0.201996
0.216213
0.187874
0.170662
0.114687
0.201161
0.153085
0.0776573
0.0582253
0.0589351
0.0384104
0.0470983
0.0532321
0.0493992
0.0371981
0.0264315
0.0287024
0.0492326
0.0668689
0.0798785
0.0637922
0.0809205
0.0906093
0.0982967
0.103578
0.133328
0.0984389
0.10986
0.0796929
0.107556
0.0768982
0.0494069
0.0529406
0.100096
0.159535
0.219236
0.256823
0.14647
0.0744511
0.0556786
0.0570525
0.0538935
0.0480275
0.0595925
0.105962
0.0711207
0.0462184
0.0401026
0.0476263
0.0392808
0.0295567
0.0311947
0.0396089
0.0554858
0.0685304
0.0825902
0.125206
0.119251
0.144474
0.152421
0.128261
0.123323
0.0788604
0.081493
0.121352
0.0901593
0.072766
0.102452
0.145261
0.19893
0.244757
0.284628
0.310015
0.300657
0.272599
0.172915
0.0759171
0.0230608
0.0180364
0.0170877
0.0175634
0.0106702
0.00636038
0.00588849
0.00667217
0.00705216
0.00600623
0.0055457
0.00554233
0.00583708
0.0103186
0.0088692
0.0109551
0.0132563
0.015816
0.0188744
0.0195958
0.0129981
0.00879656
0.00825391
0.0081878
0.0081172
0.00808668
0.00809771
0.00813787
0.00815359
0.00812093
0.00804171
0.00790371
0.00776719
0.00770912
0.00834856
0.0112531
0.0154429
0.0149353
0.0136398
0.0122777
0.0111108
0.00876678
0.015246
0.0129291
0.0110062
0.01348
0.0166059
0.0209889
0.0246665
0.017799
0.0142537
0.0129038
0.012781
0.0126708
0.0127226
0.0126072
0.0126834
0.0124985
0.0131232
0.0136695
0.0170716
0.0191073
0.0212844
0.0227775
0.0233326
0.024053
0.021243
0.0230168
0.0227848
0.0235681
0.023372
0.0226754
0.0207542
0.0189417
0.0177002
0.0191079
0.023665
0.032295
0.0266904
0.0207092
0.0167525
0.0136981
0.0149868
0.0166846
0.0168635
0.015885
0.0156645
0.0154689
0.0139447
0.013145
0.0111535
0.0105535
0.0101019
0.0102552
0.0144926
0.013628
0.0138151
0.0145277
0.015584
0.0147338
0.0151765
0.0143455
0.0145872
0.0150036
0.0171026
0.0186684
0.0179153
0.0165973
0.0160889
0.0138037
0.0159141
0.0157765
0.0170892
0.0186593
0.0191396
0.0190576
0.018415
0.0167881
0.0186795
0.0220454
0.0256927
0.0246963
0.0244205
0.0204812
0.0192987
0.0202921
0.0215826
0.0224975
0.022587
0.0224403
0.022552
0.0266685
0.0264074
0.0251676
0.0230706
0.020584
0.0179228
0.0153808
0.016864
0.0183568
0.0197535
0.0210209
0.0207497
0.0192285
0.0178696
0.0166329
0.0151284
0.0148253
0.0162891
0.017515
0.0189435
0.0206477
0.020707
0.0190071
0.0175166
0.0162312
0.0147485
0.0146918
0.0161996
0.0174998
0.0189119
0.0203821
0.0197352
0.0185973
0.0173526
0.0161108
0.0146531
0.0147149
0.016039
0.0171038
0.0181771
0.0191077
0.0199483
0.0180073
0.0171096
0.0172153
0.0162303
0.0194336
0.0186688
0.019609
0.0181432
0.0168958
0.0178894
0.0210671
0.0240971
0.0246189
0.0243328
0.0201922
0.0206543
0.0206534
0.0192436
0.0160065
0.015408
0.0181783
0.0209096
0.0213759
0.020076
0.0169871
0.0133442
0.0143585
0.017504
0.0198227
0.0185734
0.0184121
0.0170042
0.0159245
0.0162208
0.0139375
0.0166842
0.026737
0.0241732
0.0221186
0.0196079
0.0156058
0.0105705
0.011465
0.0126115
0.0130247
0.0105357
0.00789869
0.00709334
0.0068986
0.00673595
0.00650784
0.00612053
0.00553846
0.00553883
0.0114067
0.0287479
0.0372802
0.036203
0.0242336
0.0214912
0.0216523
0.0219395
0.0136545
0.00922267
0.00878763
0.010211
0.00864428
0.0120508
0.0186227
0.0120463
0.0158082
0.0117177
0.0147826
0.0234802
0.0229613
0.0159213
0.00831201
0.00685133
0.00733311
0.00765985
0.00787071
0.00806904
0.00830196
0.00868556
0.0100013
0.015696
0.020259
0.0177102
0.0167124
0.0152498
0.0187946
0.0213034
0.0232719
0.026067
0.0161483
0.0118274
0.0166913
0.0273059
0.0247558
0.023267
0.0171402
0.0177002
0.017159
0.0110353
0.0107115
0.0106522
0.0114622
0.0128422
0.0147725
0.0159754
0.0167424
0.0170812
0.0180035
0.023336
0.0218502
0.021344
0.0175483
0.0135081
0.0154308
0.0517034
0.0196959
0.0208241
0.0190818
0.0193542
0.0206368
0.0153094
0.0137025
0.0131272
0.0148219
0.0217367
0.0217427
0.0215798
0.0183853
0.0175879
0.0210608
0.0221784
0.0225956
0.0219588
0.021495
0.0196019
0.0167922
0.0182303
0.0197553
0.0209644
0.0230017
0.0233597
0.0180831
0.0173527
0.0159439
0.0106218
0.0113729
0.00979854
0.00975966
0.00970576
0.00940896
0.00896194
0.00927106
0.00940702
0.00941195
0.00906304
0.0093615
0.0083982
0.00874389
0.00984103
0.0153148
0.0148753
0.0176892
0.0196138
0.0168449
0.0156801
0.0143101
0.0132815
0.0155482
0.0143767
0.0169708
0.0213539
0.0266872
0.0192745
0.0182778
0.0180567
0.0176521
0.0174922
0.0175471
0.0168403
0.0158204
0.0152408
0.023747
0.0214251
0.0182841
0.0173299
0.0158874
0.0181577
0.0175962
0.0215259
0.0270575
0.0272668
0.0216965
0.0217765
0.0190946
0.0202069
0.0224192
0.0273067
0.0272304
0.0145466
0.00966777
0.015555
0.0158964
0.0185204
0.0171225
0.0186599
0.0198582
0.0205846
0.0204412
0.0178199
0.0190035
0.0197932
0.0207771
0.018703
0.0166791
0.0174801
0.0162585
0.0153578
0.0148559
0.0127678
0.013012
0.0139812
0.0154307
0.0163679
0.017864
0.0195173
0.0195597
0.0202273
0.0198147
0.0192351
0.025376
0.024098
0.0256581
0.028397
0.0225661
0.0179155
0.0147754
0.0150925
0.0148616
0.0147714
0.0155161
0.0168864
0.0152571
0.0146286
0.0171473
0.0195199
0.024814
0.0332227
0.0289285
0.0263675
0.033447
0.0316088
0.0384601
0.028833
0.0283222
0.0209843
0.0264641
0.0307355
0.0394511
0.0256634
0.0210831
0.0225655
0.0257305
0.03505
0.033014
0.0333504
0.0414652
0.0402312
0.036479
0.031406
0.0355621
0.0213865
0.0304291
0.0324971
0.0270787
0.0259117
0.030959
0.0312755
0.0332804
0.0286445
0.0269723
0.0180354
0.0276271
0.0315856
0.0333204
0.0280504
0.0207432
0.0282343
0.0206843
0.0193156
0.020433
0.013863
0.0128128
0.0149
0.0139734
0.0112906
0.0122494
0.0112711
0.0112642
0.011351
0.0114716
0.0116104
0.0118771
0.0118604
0.0129478
0.0134863
0.0127892
0.0117154
0.0123246
0.0125692
0.0161444
0.0182593
0.0205393
0.0221361
0.0229759
0.0241359
0.0229368
0.0247699
0.0235211
0.0252953
0.0251035
0.0239986
0.0212578
0.018436
0.0160946
0.0169519
0.0207218
0.0275801
0.0226516
0.0175794
0.0142843
0.0118854
0.0131328
0.0164063
0.00869691
0.00783528
0.00750222
0.00732182
0.00724685
0.0065037
0.00570874
0.00456025
0.0107754
0.0154172
0.0207718
0.0268791
0.032567
0.0373717
0.0410868
0.0439118
0.045803
0.0463479
0.0437461
0.0345062
0.0298813
0.0258915
0.0216599
0.017872
0.0177435
0.0256436
0.0332456
0.0405592
0.0467283
0.0509977
0.0485854
0.0324142
0.0313197
0.0487788
0.0807783
0.0760732
0.0994696
0.113702
0.0656253
0.047808
0.0456835
0.0613264
0.0645308
0.0572912
0.0478061
0.0377939
0.0276492
0.0321383
0.0364466
0.0404762
0.04488
0.0568757
0.0595219
0.0582075
0.0551928
0.0515069
0.0470936
0.0409901
0.0333452
0.0247811
0.0172104
0.0113584
0.00530104
0.00782053
0.00835783
0.00803191
0.00754868
0.00829381
0.00945307
0.00905067
0.00914707
0.00876052
0.00856008
0.00756941
0.0067947
0.00987442
0.00937542
0.00938744
0.0100452
0.0130528
0.00992661
0.00708091
0.00649215
0.00666323
0.0127284
0.0209121
0.0263853
0.0308984
0.0352144
0.0371425
0.0359694
0.033048
0.028025
0.0230869
0.0209268
0.0180286
0.0154832
0.0143258
0.0154954
0.0130309
0.00758053
0.00517625
0.00571939
0.00564918
0.0051686
0.00621634
0.00692315
0.00755086
0.00798566
0.0083021
0.00835825
0.0082858
0.00818076
0.00811793
0.00807688
0.00802711
0.0079422
0.00782924
0.00767293
0.00752574
0.00745346
0.0080366
0.0106245
0.014524
0.0143484
0.0132536
0.0121583
0.0113141
0.0095808
0.01539
0.0131281
0.0109991
0.0101449
0.00994481
0.0101852
0.0110609
0.0126233
0.0136256
0.015662
0.0156982
0.0156157
0.0159343
0.0156926
0.0133945
0.015185
0.0176791
0.0184739
0.0190414
0.0188046
0.0172894
0.0193482
0.0204928
0.0199765
0.0193957
0.0167335
0.0195077
0.0232829
0.0236959
0.0239315
0.0212524
0.0184105
0.0216066
0.0227888
0.0224173
0.0233452
0.0216497
0.0224503
0.0285356
0.015008
0.0137659
0.00871565
0.00943874
0.00981887
0.00958687
0.009164
0.00941491
0.00950715
0.00889075
0.00960158
0.00991236
0.0090589
0.012064
0.0111691
0.0108005
0.010352
0.0106154
0.0110369
0.0112882
0.0126951
0.0200872
0.0207079
0.0185269
0.0211996
0.0219054
0.0181696
0.0206639
0.0215121
0.0218045
0.0222385
0.0235826
0.0221297
0.024264
0.023572
0.0220785
0.0212722
0.0377211
0.0249459
0.0163606
0.0150962
0.0146501
0.0146174
0.0163506
0.0121171
0.0136549
0.00942136
0.00815921
0.00776892
0.00769651
0.00934348
0.013973
0.0223779
0.0261849
0.0274456
0.0262551
0.0233392
0.0185099
0.0146749
0.0142273
0.0128994
0.012043
0.0119481
0.00856368
0.00573114
0.00648728
0.00667155
0.00726246
0.00767615
0.00800813
0.00825551
0.00838641
0.00844501
0.00850989
0.00861838
0.00873604
0.00883525
0.00890976
0.00895649
0.00900431
0.00910292
0.00938277
0.0105427
0.0150937
0.0194428
0.018386
0.0169367
0.0156385
0.016362
0.017088
0.0178428
0.0220405
0.0190845
0.0219238
0.0204381
0.0194236
0.0180472
0.0188679
0.0206211
0.016387
0.0162953
0.0111148
0.00971494
0.00935219
0.00914858
0.00898511
0.00882529
0.0086973
0.00858259
0.00847455
0.0083822
0.00832552
0.00826009
0.00811467
0.00785786
0.00748699
0.00702279
0.00662479
0.00726836
0.00739459
0.00804087
0.00956453
0.0105841
0.0102261
0.00923278
0.00851587
0.00836907
0.00850635
0.00868221
0.00888455
0.00916312
0.00963394
0.0105852
0.0112177
0.0158947
0.016636
0.0199827
0.01984
0.0177935
0.0171535
0.0187961
0.0174701
0.0127841
0.0172728
0.016661
0.02063
0.0152592
0.0144234
0.0148684
0.0153589
0.0181178
0.0169521
0.0154337
0.0156203
0.0124647
0.0138631
0.0159655
0.0176012
0.0277013
0.0270217
0.0341288
0.0346315
0.058605
0.0556156
0.0487845
0.0533541
0.0237657
0.0453944
0.0531943
0.0485417
0.0419399
0.0267326
0.0424169
0.0643402
0.0917774
0.0662947
0.0541607
0.0998928
0.0739727
0.0364221
0.0264814
0.0150101
0.0152017
0.0249533
0.0289411
0.0238767
0.0230625
0.0331316
0.034542
0.027742
0.0284769
0.030891
0.0298934
0.0322501
0.027857
0.0273415
0.0154475
0.0126721
0.0136524
0.0153441
0.0163463
0.0159031
0.0167491
0.0174137
0.0159939
0.0149973
0.0144716
0.0124036
0.0132012
0.016183
0.0204092
0.0239309
0.0172795
0.0138817
0.0125828
0.0123866
0.0121516
0.0120193
0.0116844
0.0114846
0.011005
0.0112039
0.00975961
0.00977206
0.010327
0.0105098
0.0107299
0.0108958
0.0110152
0.0111177
0.0119896
0.0187711
0.0259727
0.020767
0.0164539
0.0139736
0.0151581
0.0170771
0.020976
0.0264102
0.0178436
0.0176643
0.0115162
0.0107379
0.0105443
0.0103764
0.0102122
0.010098
0.0101473
0.010154
0.0119166
0.0117034
0.0137681
0.0148318
0.0122385
0.0117948
0.0113134
0.0110204
0.0108582
0.0107689
0.0108529
0.011712
0.0115454
0.0106157
0.010526
0.0106502
0.0108682
0.0111973
0.0116526
0.0121654
0.0131032
0.0128927
0.0113345
0.0112628
0.0105648
0.010238
0.0100097
0.0100018
0.0100704
0.0102215
0.0104295
0.0113311
0.0171254
0.0173061
0.0266207
0.0266055
0.0211357
0.0176663
0.015514
0.014257
0.013529
0.0339591
0.0300188
0.0475056
0.0378618
0.0303259
0.0486813
0.0689736
0.0537739
0.0869283
0.0940366
0.0699108
0.063463
0.0203941
0.0156876
0.0154135
0.0169092
0.0186019
0.0212368
0.0218275
0.0266561
0.0287603
0.0171867
0.0164978
0.0155412
0.0248485
0.0230055
0.0196455
0.0177565
0.0163639
0.0188875
0.0206882
0.0148883
0.0149613
0.00962953
0.010663
0.0104215
0.0101037
0.0099988
0.00990572
0.0099204
0.0100104
0.0103045
0.0108376
0.0112669
0.0114377
0.0117298
0.011501
0.0112304
0.0109151
0.0107266
0.0105361
0.0103789
0.0102565
0.0102864
0.0105999
0.0107405
0.00942449
0.00977711
0.00989027
0.00990442
0.00993581
0.00989787
0.00975487
0.0095392
0.00932682
0.00911032
0.009157
0.0100298
0.0101898
0.0102095
0.0100058
0.00987481
0.00987416
0.00983784
0.0098501
0.00982637
0.00968001
0.00934353
0.008591
0.00846282
0.00910499
0.00948699
0.00970143
0.00981492
0.00976374
0.00966616
0.00941654
0.00925
0.00908322
0.0087631
0.00828328
0.00679497
0.00706907
0.00742789
0.00793819
0.00846594
0.00892924
0.00924104
0.00940546
0.00949647
0.00941147
0.0091143
0.00857728
0.00852306
0.00892155
0.00910504
0.00906296
0.00879459
0.00837346
0.00779692
0.00708756
0.00640601
0.00589933
0.00568354
0.00531165
0.00668748
0.00729982
0.00782644
0.00828846
0.00876014
0.00929532
0.0095623
0.00967246
0.00961936
0.00942544
0.00904509
0.00846568
0.00849879
0.00904391
0.00942061
0.00959792
0.00964065
0.00939197
0.00890463
0.00796501
0.00714507
0.00652179
0.00594654
0.00532843
0.00519711
0.00544869
0.00519535
0.00537235
0.00594152
0.00674304
0.00753113
0.008151
0.00858738
0.00877558
0.00872334
0.00846577
0.00836731
0.00849534
0.00843828
0.00812682
0.00754907
0.00679489
0.00599168
0.00536822
0.00520417
0.00554944
0.00587321
0.00555717
0.00449603
0.00508637
0.0056587
0.00622046
0.00714072
0.00835749
0.00904813
0.00942223
0.00953886
0.00941818
0.0090483
0.00852238
0.00853639
0.00906389
0.00943971
0.00954992
0.00946222
0.00907444
0.00847627
0.00701401
0.00557016
0.00497889
0.00456473
0.00405446
0.00561333
0.00598798
0.00558135
0.00531268
0.00574285
0.00627339
0.00689312
0.00741564
0.00785569
0.00816921
0.00827336
0.00823832
0.00810567
0.00811245
0.00805549
0.00784267
0.00758648
0.0073717
0.00694929
0.00651685
0.00599591
0.00653637
0.00679899
0.00636393
0.00477468
0.00513644
0.00572656
0.00593571
0.00729237
0.00875776
0.009288
0.00957094
0.00967568
0.00953903
0.00911264
0.00854914
0.00856554
0.00922756
0.00974526
0.00994425
0.0100468
0.00995647
0.0099505
0.00883035
0.00724266
0.00686014
0.00549755
0.00493474
0.00666518
0.00712008
0.00696054
0.00671894
0.00765248
0.00802155
0.00814375
0.00815962
0.00817913
0.00815439
0.00806335
0.00798978
0.0078761
0.00832484
0.00896622
0.00886605
0.00876495
0.00861052
0.00827174
0.00784743
0.00734171
0.00798896
0.00853128
0.00820368
0.00614011
0.00664413
0.00803773
0.00809684
0.00923167
0.0103952
0.0107675
0.0109096
0.0108644
0.0107985
0.00964513
0.00855486
0.00841479
0.00994815
0.0163717
0.0162609
0.016359
0.0163354
0.0156562
0.0154851
0.0148178
0.0145516
0.0137324
0.0132455
0.012441
0.0146404
0.018653
0.020899
0.0234062
0.026037
0.0246144
0.0197789
0.0173717
0.0103681
0.00819519
0.0070947
0.00612335
0.00539109
0.00516225
0.00766665
0.00963177
0.0119215
0.0139393
0.0142022
0.0166621
0.0206438
0.0313679
0.0496567
0.0417398
0.0392396
0.0394978
0.0984318
2.5566
2.73962
2.49251
2.88201
3.34675
0.36909
0.153892
0.289411
0.316569
0.368945
0.349078
0.314077
0.287153
0.295417
0.28308
0.291935
0.271356
0.27664
0.241019
0.242476
0.228932
0.5286
0.916016
1.13521
1.61211
1.66376
1.88198
1.86318
1.90007
1.76566
1.88682
1.64409
1.36425
1.28472
1.20847
1.29628
1.40404
1.22088
1.10426
0.994369
0.898815
0.762179
0.968687
0.734833
0.692653
0.689467
0.718162
0.953347
0.860346
0.991614
0.938303
1.00404
0.638463
0.725817
0.542559
0.456904
0.38238
0.464502
0.617223
0.800423
0.957217
0.721825
0.951891
0.868019
0.841544
0.806353
0.743401
0.709877
0.702475
0.725796
0.739742
0.755931
0.783044
0.805
0.822976
0.974965
1.03424
1.0203
0.840348
0.759854
0.529231
0.566566
0.606291
0.611743
0.576349
0.552164
0.490412
0.476074
0.425606
0.408475
0.365208
0.347103
0.31281
0.43605
0.75223
0.786444
0.856858
0.916793
0.963661
0.986809
0.997544
0.978328
0.94315
0.882735
0.856783
0.797823
0.895936
1.07469
1.08008
0.996766
0.841979
0.796877
3.61328
4.36977
2.92149
6.21926
9.28575
15.479
7.41474
2.07297
3.43973
2.36236
2.09487
2.03557
2.13687
3.34416
2.42607
3.19466
2.61016
2.84133
2.14495
2.59759
2.56906
2.01014
1.72538
1.48256
1.42653
1.14414
1.15157
0.920807
0.853275
0.756067
0.613944
0.729893
0.667409
1.37832
2.06653
2.61291
4.15166
4.57166
5.04045
7.95973
6.59316
8.36192
5.08112
5.10595
3.7838
3.56324
3.59825
4.93558
6.92909
4.80382
8.30447
4.66918
15.2806
33.9506
9.24915
18.9814
10.9656
9.92792
9.57347
9.86194
13.956
9.40006
15.3575
12.6238
16.8295
15.9315
17.7238
14.204
10.5241
11.7521
12.7847
16.5086
11.8652
14.0745
10.6641
10.4205
9.4767
7.77197
6.73108
5.0598
5.72217
6.74395
7.62594
11.9441
15.0657
17.5212
21.0937
15.7888
18.0779
10.9605
11.9406
9.25687
8.67376
8.78601
11.5541
20.6005
14.629
26.4042
0.49271
0.225373
0.538972
0.228376
0.487935
0.390048
0.402387
0.403064
0.397956
0.457935
0.218492
0.184201
0.176812
0.174818
0.176411
0.100061
0.124229
0.0803742
0.126998
0.228649
0.500222
0.363886
0.140385
0.0826825
0.0545889
0.0428943
0.0633707
0.0611164
0.097729
0.0989877
0.105085
0.131109
0.225234
0.426607
31.1309
6.99352
1.08545
0.503598
0.279402
0.172695
0.144711
0.162474
0.173304
0.174024
0.161038
0.1341
0.0941768
0.0614266
0.0399298
0.0327184
0.0231947
0.029485
0.0390502
0.0521612
0.04773
0.0633813
0.0818662
0.104649
0.128728
0.147899
0.162334
0.166609
0.155032
0.121614
0.0800287
0.0444219
0.0268413
0.0232116
0.0213026
0.0197814
0.0171136
0.0149358
0.0134729
0.0115025
0.010129
0.00913021
0.00879356
0.00890359
0.00969444
0.0122456
0.0147174
0.0190339
0.0181263
0.0135699
0.0127445
0.00789131
0.00729336
0.00744076
0.0076928
0.00853093
0.0133413
0.0136526
0.0135287
0.0135554
0.0133715
0.0133536
0.0131856
0.0130253
0.0128131
0.0124196
0.0121368
0.0116471
0.0113657
0.0107171
0.0107441
0.0111821
0.0115015
0.0104774
0.0104356
0.00959271
0.0176522
0.0442253
0.0686407
0.0774017
0.0874746
0.0804007
0.0407068
0.0216143
0.00772997
0.0079522
0.00839563
0.00901248
0.00849462
0.00641181
0.00709353
0.00894688
0.0123312
0.0120641
0.0120885
0.0134948
0.0139118
0.0152476
0.0157639
0.0161928
0.0164251
0.0165286
0.0167075
0.016511
0.0166437
0.016399
0.016482
0.0160703
0.0285022
0.0269144
0.0277579
0.0276925
0.0287574
0.0281577
0.0274945
0.026518
0.0257766
0.024319
0.0228238
0.0215062
0.0198685
0.0206966
0.0202379
0.0127062
0.0121003
0.00896691
0.00825196
0.00778668
0.0104145
0.00961588
0.00815369
0.00953827
0.00730355
0.00763146
0.00838749
0.0119217
0.0124998
0.019892
0.0195434
0.017318
0.0182173
0.0189418
0.0200186
0.0210175
0.0223501
0.0233552
0.0244419
0.0263899
0.0268775
0.0252717
0.0250392
0.023763
0.0256591
0.0246385
0.0229716
0.0247229
0.026241
0.0286595
0.0282908
0.026084
0.0247915
0.023422
0.0212025
0.0186658
0.0175823
0.0166604
0.0170443
0.0160242
0.0189066
0.0173852
0.011802
0.0119791
0.00845509
0.00683525
0.00634321
0.00904466
0.0125054
0.0268995
0.0165144
0.00877998
0.00946618
0.0150281
0.028668
0.0167262
0.0233634
0.0159941
0.014018
0.0148027
0.0144381
0.0157329
0.0180487
0.0188827
0.0224577
0.0251857
0.02712
0.0279622
0.0292534
0.029588
0.0309865
0.0314099
0.034174
0.0344204
0.0345088
0.0340383
0.0318058
0.0286351
0.0265974
0.0327899
0.0377989
0.0408349
0.0433063
0.0458015
0.0445244
0.0407496
0.0399215
0.0380434
0.0370375
0.0357353
0.0326618
0.0287926
0.0238225
0.0234298
0.0297734
0.0357139
0.0533234
0.0566863
0.0563815
0.0586775
0.0590616
0.0606915
0.0610505
0.0636728
0.0641898
0.0652993
0.0656186
0.0709663
0.0718378
0.0728016
0.0731414
0.0728044
0.0738192
0.0738989
0.0502686
0.045185
0.0415187
0.0346155
0.0291273
0.0370081
0.0458839
0.0507692
0.0771048
0.0775454
0.0818168
0.0844975
0.0901665
0.0941303
0.0997848
0.104704
0.109839
0.113685
0.116267
0.116813
0.117586
0.116676
0.115469
0.124962
0.161773
0.179139
0.211325
0.227023
0.241164
0.246024
0.235944
0.239115
0.229771
0.231802
0.223962
0.220593
0.213789
0.205574
0.200793
0.192574
0.187549
0.216619
0.162127
0.124368
0.0841918
0.0666913
0.0540373
0.0456326
0.0543271
0.04203
0.0345726
0.0546007
0.048431
0.036564
0.0221939
0.0169509
0.0302586
0.0454726
0.0622301
0.0798483
0.0959664
0.10651
0.109132
0.107975
0.103492
0.095955
0.081042
0.0614781
0.0427353
0.0355643
0.0328856
0.0287822
0.0226828
0.018192
0.0160396
0.0144246
0.0126165
0.011327
0.0107575
0.0108928
0.0111985
0.013405
0.017511
0.0175065
0.0117202
0.0112852
0.00775884
0.00784015
0.00809484
0.0134559
0.0136005
0.021085
0.023552
0.0221789
0.0228666
0.022599
0.0229023
0.0225575
0.0213834
0.0205711
0.0196404
0.0188224
0.0181251
0.0173116
0.0165377
0.0178931
0.0168989
0.0142542
0.0143335
0.0149215
0.0155226
0.0163758
0.0176079
0.0186569
0.021332
0.0214879
0.0209641
0.021058
0.0195897
0.0188692
0.020139
0.0196675
0.0134036
0.0132314
0.0193192
0.0189535
0.0188282
0.0226474
0.0210575
0.0215865
0.0227485
0.0226635
0.0197494
0.018424
0.0169025
0.0157621
0.0144254
0.0129347
0.0126427
0.0154535
0.0139267
0.0113437
0.0123882
0.0148606
0.0175152
0.0189497
0.0209333
0.0236668
0.0245954
0.0268145
0.0282116
0.0302703
0.0310859
0.0358679
0.0365126
0.0343159
0.0324498
0.0314079
0.0276062
0.0236678
0.0261032
0.0270068
0.0273891
0.0275269
0.0274127
0.0238574
0.0234351
0.0219496
0.0214465
0.0198948
0.0193573
0.018227
0.0174881
0.0164929
0.0146407
0.0135044
0.0127795
0.0125168
0.0175816
0.011083
0.0108433
0.0162831
0.0100911
0.0118687
0.0116122
0.0120983
0.012598
0.0105612
0.0154113
0.0105867
0.011379
0.0114286
0.0143049
0.0101159
0.0118287
0.0411663
0.0833695
0.102009
0.187425
0.231064
0.253774
0.276052
0.292805
0.309349
0.327807
0.345932
0.359964
0.362114
0.337483
0.319698
0.255808
0.229413
0.253298
0.283651
0.196481
0.168829
0.171175
0.172193
0.174818
0.176174
0.17986
0.17787
0.183004
0.17866
0.18602
0.180117
0.186724
0.17898
0.163161
0.146405
0.113341
0.102397
0.0660473
0.0511826
0.0401219
0.0290996
0.0212275
0.0190841
0.0180691
0.016673
0.0167627
0.0128731
0.0132794
0.00847498
0.00621919
0.00996202
0.009813
0.00728613
0.00994154
0.0113594
0.0118747
0.0124091
0.0126983
0.0194341
0.0194514
0.0248676
0.0247461
0.0293296
0.0349726
0.0362696
0.0399596
0.0575091
0.058046
0.0577864
0.0576396
0.0572268
0.0500354
0.0497567
0.048682
0.0481124
0.0452134
0.0446764
0.0426216
0.0415118
0.0385651
0.0377553
0.0365975
0.0368431
0.0364961
0.0463796
0.0797677
0.0262072
0.0236618
0.0176892
0.0140881
0.019907
0.0157347
0.0151261
0.0135584
0.018765
0.0134905
0.0138015
0.0164753
0.0169031
0.0160652
0.0200956
0.0255793
0.0225738
0.0239196
0.0975837
0.049984
0.0194635
0.0368974
0.0622202
0.145064
0.197656
0.131975
0.151782
0.176865
0.160375
0.134105
0.0982891
0.0753749
0.0512642
0.0370508
0.0119456
0.0132178
0.0177761
0.035194
0.0527848
0.100925
0.0815331
0.107029
0.146791
0.170814
0.20686
0.197036
0.169011
0.145637
0.145833
0.166072
0.143089
0.0935582
0.0878486
0.0739424
0.170292
0.218694
0.183138
0.227194
0.233937
0.124056
0.0291223
0.0183639
0.0152416
0.0140764
0.0126555
0.0195674
0.011671
0.0118752
0.012554
0.0134778
0.0171621
0.0294365
0.013629
0.0150753
0.0184966
0.0159867
0.0149713
0.0147505
0.0146462
0.0152578
0.0166287
0.0216892
0.0218153
0.0215262
0.0161738
0.017431
0.0158226
0.0199933
0.0212481
0.0337221
0.0153379
0.0163102
0.0217189
0.482743
0.0248915
0.0179956
0.0232639
0.0218919
0.0303254
0.0442997
0.449112
0.042797
0.0351108
0.0592867
0.0619175
0.0667199
0.0703967
0.0738778
0.0763653
0.0802462
0.0828436
0.0840622
0.0853447
0.100959
0.10088
0.0997578
0.104405
0.0984239
0.05815
0.0583477
0.0981707
0.105961
0.0598835
0.0413224
0.0387447
0.0314102
0.0325449
0.0421212
0.0442497
0.0620954
0.0619328
0.103284
0.0941785
0.0955882
0.0974011
0.0923679
0.0928868
0.094997
0.0950957
0.0763136
0.0739454
0.0721903
0.0692033
0.0656999
0.0627752
0.0597098
0.0562126
0.0527033
0.0513284
0.0536311
0.0581839
0.063591
0.0641593
0.17626
0.120189
0.0888844
0.0698972
0.0606276
0.0574732
0.0585367
0.0623483
0.0657218
0.0673251
0.0681011
0.0715353
0.0933753
0.0956256
0.0984637
0.0958508
0.0996401
0.0976863
0.0952119
0.105198
0.11303
0.0660799
0.068153
0.0480822
0.0448498
0.0327639
0.0333375
0.0238369
0.0198056
0.0198036
0.0198
0.020023
0.0229033
0.0319594
0.032033
0.0467717
0.046627
0.052064
0.0758158
0.0728697
0.129915
0.119116
0.109351
0.10202
0.102386
0.104518
0.107184
0.102192
0.0986826
0.0931588
0.0732549
0.0691742
0.0670274
0.0656573
0.063644
0.0648292
0.0818938
0.125592
0.188438
0.279085
0.372908
0.394069
0.363135
0.210798
0.259981
0.124942
0.149836
0.166424
0.136785
0.143509
0.297859
0.246572
0.344647
0.453542
0.505338
0.568728
0.603743
0.57821
0.446125
0.28375
0.290756
0.39149
0.730812
0.822885
0.734929
0.756921
0.653503
0.537582
0.519924
0.495914
0.560184
0.612078
0.577473
0.5963
0.540826
0.515605
0.445305
0.497288
0.363524
0.327499
0.307929
0.299149
0.358573
0.290234
0.326895
0.268702
0.274956
0.223536
0.229191
0.191361
0.146531
0.138946
0.128838
0.144278
0.163627
0.149929
0.154624
0.135029
0.11565
0.0920792
0.0993417
0.0741315
0.0696137
0.0692614
0.076143
0.114406
0.338047
0.167126
0.162026
0.168099
0.178627
0.322105
0.284805
0.726683
0.509285
0.712056
0.476288
0.565257
0.472779
0.364632
0.380117
0.42002
0.600829
0.824467
6.6593
0.284923
4.26783
3.1682
3.32658
3.47226
4.452
7.81874
7.11776
9.40391
6.81295
9.0954
4.98143
4.9753
4.3275
4.472
4.43588
4.2519
5.09714
6.42126
0.234306
0.0905156
0.0853857
0.0856209
0.087406
0.197863
0.0526005
0.202116
0.053993
0.213554
0.0495462
0.246765
0.196969
0.0382416
0.0192568
0.0200912
0.0168071
0.0203779
0.0169227
0.0250491
0.0235395
0.0236826
0.026478
0.0747952
0.285841
13.2289
1.48531
0.608629
0.704298
1.06297
0.7123
1.09247
1.53268
1.01876
0.498904
0.319511
0.378217
0.456388
0.436227
0.566947
0.826564
0.811515
0.636347
0.641666
0.556025
0.799625
0.809598
0.973279
1.14532
1.0556
0.811816
0.632658
0.523587
0.934425
0.953477
0.89065
0.356008
0.0955308
0.0432285
0.0436518
0.0339137
0.0357729
0.0342488
0.0467266
0.131526
0.190581
0.109251
0.384658
0.378848
0.540168
0.386913
0.399263
0.310257
0.339276
0.513587
0.563606
0.624503
0.658785
0.703917
0.634384
1.22029
2.06827
2.33276
12.4897
17.1327
3.0726
3.0363
13.8545
0.31281
0.0831257
0.023205
0.0174057
0.0162105
0.016128
0.0149998
0.0155377
0.0159989
0.0169631
0.0188286
0.0231965
0.0458425
0.201562
0.203535
0.0643639
0.0324352
0.0229708
0.0196154
0.0170456
0.0163862
0.0155308
0.0154588
0.015006
0.0156523
0.0174485
0.0237389
0.0772996
0.271587
11.3694
2.42386
2.25109
8.38911
5.80181
0.206985
0.0438338
0.0200971
0.016927
0.0158836
0.016755
0.0162656
0.0182105
0.0184012
0.0230142
0.0250203
0.031769
0.0570976
0.110238
0.315836
9.60393
8.67154
8.39667
7.82825
0.310443
0.115273
0.0544072
0.0382297
0.0346207
0.0338122
0.0226469
0.0236737
0.0189838
0.0216488
0.0183002
0.0226983
0.0483694
0.212178
5.35951
1.56961
1.69912
1.21043
0.609277
0.64952
0.66034
0.678509
1.73168
3.92444
4.85693
3.33919
3.29709
4.60992
3.10926
2.43533
1.79011
1.71677
2.50048
1.93671
1.80767
1.3368
1.44376
1.05765
1.45729
0.804193
0.973444
1.06818
1.52158
1.39116
1.40594
0.905453
1.0467
1.46781
1.72614
1.65235
0.840376
1.22699
1.01038
0.650746
0.599948
0.622795
0.590873
0.563331
0.565068
0.571431
0.552775
0.570623
0.552095
0.585391
0.54602
0.530117
0.503426
0.522316
0.538476
0.569342
0.356567
0.418573
0.423659
0.436752
0.447079
0.367024
0.443947
0.43074
0.645921
0.977988
0.787373
1.06609
0.64429
0.977586
1.97195
5.17507
2.19756
0.776942
1.31935
1.57983
1.12854
0.621423
2.54086
3.56972
1.2274
1.79043
10.4596
8.4696
16.5959
10.8628
18.3741
5.90913
4.58487
17.6462
6.56215
6.76191
4.41448
4.44725
2.89184
1.54098
1.57603
1.68218
1.18898
1.25418
1.16846
1.11252
1.43874
1.39422
1.82377
1.97636
2.504
1.77316
1.72045
2.50442
1.03415
1.3446
1.77313
1.76267
1.31143
2.24718
3.04712
2.81413
2.01655
2.25536
3.40417
4.68777
4.3887
3.02389
3.77434
9.92691
13.2464
13.4948
4.11852
19.3823
18.186
1.95282
0.509435
0.279821
0.0776051
0.0426959
0.0368995
0.0391466
0.142205
0.0462451
0.0569406
0.0447391
0.0665173
0.06721
0.0836266
0.202369
0.119748
0.197945
0.143854
0.166746
0.107507
0.17126
0.199872
0.206543
0.162733
0.101024
0.187233
0.27016
0.0924106
0.30963
0.340123
0.224084
0.290255
0.345601
0.168755
0.940678
0.174772
0.113864
0.127026
0.345092
1.15371
0.192133
0.426961
4.30679
14.5866
3.5432
0.873901
0.623514
0.0543701
0.02945
0.0294497
0.0270794
0.0194161
0.0749733
0.0883332
0.3743
0.19115
0.273352
0.654082
2.94333
2.36715
1.04296
5.30569
10.2423
15.1222
9.03633
2.1024
9.62163