/*--------------------------------*- C++ -*----------------------------------*\
| =========                 |                                                 |
| \\      /  F ield         | OpenFOAM: The Open Source CFD Toolbox           |
|  \\    /   O peration     | Version:  v2012                                 |
|   \\  /    A nd           | Website:  www.openfoam.com                      |
|    \\/     M anipulation  |                                                 |
\*---------------------------------------------------------------------------*/
FoamFile
{
    version     2.0;
    format      ascii;
    class       volScalarField;
    location    "245";
    object      alphat;
}
// * * * * * * * * * * * * * * * * * * * * * * * * * * * * * * * * * * * * * //

dimensions      [1 -1 -1 0 0 0 0];


internalField   nonuniform List<scalar> 
18258
(
0.00483033
0.00210342
0.00172164
0.00149034
0.000989834
0.0016181
0.00224791
0.0026768
0.00280925
0.00278695
0.00288716
0.00487408
0.006842
0.00845829
0.00888711
0.00887422
0.00805867
0.00769584
0.00835961
0.0102768
0.00863469
0.00553122
0.00662369
0.00765871
0.00833975
0.00738609
0.00597381
0.00553042
0.00500637
0.00417337
0.00350183
0.00240019
0.00174944
0.00162153
0.00147058
0.00167678
0.00182661
0.00194809
0.00199191
0.00202344
0.00200975
0.00199826
0.00194405
0.00191004
0.00185195
0.00152949
0.00184076
0.00191893
0.00209657
0.00289178
0.0031051
0.00261113
0.00288873
0.00257618
0.00169708
0.00194297
0.002109
0.00215415
0.00212616
0.0020377
0.0020078
0.0019825
0.00195049
0.00191252
0.00188937
0.00190827
0.00192808
0.0019072
0.00181358
0.00173781
0.00161518
0.00149224
0.00140115
0.0013306
0.00127741
0.0012182
0.00115165
0.00101162
0.000937604
0.00124143
0.00155853
0.00166536
0.00236056
0.00287819
0.00289802
0.0021695
0.00154616
0.00160474
0.00178377
0.00180132
0.00152603
0.00181365
0.00205384
0.00212856
0.00221801
0.00247946
0.00282441
0.00275388
0.00245308
0.00226188
0.00219516
0.00252427
0.00240486
0.00311953
0.00313715
0.00272547
0.00254096
0.00285744
0.0036856
0.00396144
0.00307547
0.00288944
0.00283285
0.00279593
0.0025296
0.00261927
0.00237949
0.00214406
0.00233632
0.00282235
0.00267665
0.00292273
0.00302916
0.00284225
0.00329366
0.00379793
0.0037434
0.00299547
0.00244315
0.00227738
0.00229451
0.00140329
0.00151537
0.00163233
0.00167234
0.00170052
0.00172439
0.00183843
0.00183427
0.00180714
0.00180312
0.00183343
0.00101092
0.00109547
0.00112282
0.00113069
0.00107413
0.00106301
0.0010431
0.00102694
0.000968657
0.000926884
0.00110893
0.00124508
0.00135599
0.00148571
0.00167897
0.00191549
0.00216416
0.00241556
0.00258191
0.00262941
0.00267733
0.00258043
0.00248279
0.00257141
0.00258633
0.0025696
0.00253503
0.00249139
0.0024325
0.00232463
0.00244939
0.00244271
0.00229504
0.00196719
0.0020112
0.00200788
0.00206032
0.00204983
0.00207052
0.00204101
0.00200616
0.00190911
0.00177343
0.00147539
0.00144522
0.00146226
0.0018765
0.00227729
0.0035168
0.00428803
0.00497573
0.00532229
0.00569358
0.0046096
0.00513176
0.00395788
0.0035527
0.00451463
0.00590461
0.00336913
0.0018405
0.00349149
0.00309856
0.00225015
0.00200331
0.00206508
0.00206497
0.0023653
0.00272896
0.00303239
0.00317923
0.00330802
0.00341077
0.00352374
0.00366677
0.00370601
0.00358
0.00303015
0.00365272
0.00296834
0.00346846
0.00313576
0.00212067
0.0022077
0.00235052
0.00215483
0.00209721
0.00200436
0.00180872
0.00224319
0.00289673
0.00335962
0.00384014
0.00512235
0.00473862
0.00454189
0.0035173
0.00340108
0.00176532
0.00251701
0.00261587
0.00294407
0.00195729
0.00178639
0.00169649
0.00224529
0.00260211
0.00307037
0.00340589
0.00404442
0.00313804
0.00358514
0.00324477
0.00226343
0.00217583
0.00311402
0.00335407
0.00275819
0.00246408
0.00309095
0.00292615
0.00207677
0.0016539
0.00254234
0.00262953
0.00189172
0.00468836
0.00502188
0.00480077
0.00583804
0.00731723
0.00833021
0.00776586
0.00688816
0.00768188
0.0061105
0.00592849
0.00632012
0.00530737
0.00371222
0.00380462
0.00393304
0.00403923
0.00433705
0.004608
0.0049389
0.00525219
0.00477363
0.00396327
0.00299938
0.00206322
0.00203443
0.00202373
0.00181728
0.00269338
0.00407682
0.00405097
0.00230283
0.00134172
0.00151648
0.00171204
0.00169516
0.0012306
0.000925856
0.00159474
0.00182372
0.00185332
0.00180741
0.00170655
0.00178333
0.00286392
0.00441209
0.00484799
0.0050212
0.00518513
0.00530095
0.00536545
0.00538597
0.00539745
0.0054115
0.00542382
0.00544251
0.00542566
0.00531009
0.00467059
0.00293641
0.00171617
0.00159388
0.00175903
0.00189038
0.00200493
0.00170581
0.00104324
0.00166611
0.00213354
0.00245272
0.00247384
0.00230893
0.00223998
0.00353232
0.0046968
0.00553658
0.00570703
0.00578327
0.00572041
0.00571295
0.00558919
0.00555153
0.00486924
0.00347936
0.00380365
0.00408388
0.00413017
0.00422521
0.00436806
0.00426688
0.00403215
0.00588833
0.00679739
0.0068847
0.00703089
0.00694776
0.0068285
0.00651932
0.00616569
0.00519084
0.00389287
0.00245649
0.00250785
0.00266979
0.00264425
0.00230178
0.00242486
0.00263169
0.0026581
0.00274524
0.00307858
0.00349675
0.00333602
0.00287159
0.00243827
0.00227025
0.00222188
0.00213125
0.00159558
0.00161998
0.00157537
0.00160167
0.00215238
0.0025618
0.00295442
0.00418947
0.0037371
0.00303907
0.00481849
0.0049385
0.00530615
0.00586266
0.00600781
0.00665631
0.00463093
0.00417365
0.00428715
0.00350199
0.00324159
0.0032761
0.00328843
0.00306503
0.00335466
0.0033251
0.00320483
0.0035382
0.0038987
0.00514075
0.00622879
0.00657172
0.00676986
0.00685133
0.00682679
0.00669588
0.00673979
0.00592131
0.00591989
0.00566936
0.00550712
0.00545015
0.00518197
0.00592694
0.0061521
0.0062268
0.00638146
0.00662268
0.00644111
0.00624219
0.0060906
0.0059808
0.00586597
0.00592706
0.00603657
0.00615343
0.00631749
0.00653641
0.00657157
0.00634467
0.00617311
0.00605579
0.00594554
0.00594928
0.00604748
0.00616199
0.00632459
0.00653227
0.00641626
0.00625476
0.00611097
0.00599309
0.00588931
0.00568289
0.00581952
0.00596981
0.00609355
0.00617363
0.00533433
0.00570216
0.00560438
0.00507438
0.00474966
0.00360688
0.00390341
0.0041161
0.00448315
0.00497612
0.00507272
0.00425668
0.00364787
0.00355463
0.00352596
0.00360912
0.003639
0.0036567
0.00413186
0.00622478
0.00626856
0.00628748
0.0062909
0.00538001
0.00522691
0.00486786
0.00890103
0.00828835
0.0071813
0.00592116
0.00317218
0.00271895
0.0032207
0.00391699
0.00437962
0.00483395
0.0032086
0.00198793
0.00231704
0.00240282
0.00234467
0.00216729
0.00180487
0.00166605
0.00151224
0.0016275
0.00288202
0.00459835
0.00517943
0.00523447
0.00518279
0.00508245
0.0049608
0.00479147
0.00472019
0.00592873
0.00799421
0.00907507
0.00904503
0.00777201
0.00632479
0.00355763
0.00181932
0.00131873
0.0014552
0.00159718
0.00188094
0.00168005
0.00139118
0.00152323
0.00145225
0.00294766
0.00510139
0.00652716
0.00773781
0.00759869
0.0065878
0.00541079
0.0051409
0.00526197
0.00534131
0.0054102
0.00548101
0.00552967
0.00549904
0.00500551
0.00309297
0.00184629
0.0016404
0.00176411
0.00206746
0.00219678
0.00221888
0.00218777
0.00189634
0.00313556
0.00498031
0.0031668
0.00172801
0.00186732
0.00185389
0.00327055
0.00326538
0.00319439
0.00497004
0.00525486
0.0052416
0.00492485
0.00470177
0.00278348
0.00315843
0.0031689
0.00318575
0.00323822
0.00163537
0.00178252
0.0018379
0.00197814
0.00173273
0.00219947
0.000569154
0.000788559
0.000916053
0.00099584
0.0010728
0.0010524
0.00201258
0.00204159
0.00194896
0.00189813
0.00240952
0.00258595
0.00264327
0.00243485
0.00224683
0.0023918
0.00239683
0.00225847
0.00213941
0.00221857
0.00222021
0.00212742
0.00180947
0.00169557
0.0018616
0.00184152
0.00182667
0.00328113
0.0032754
0.00309964
0.00509301
0.00501093
0.00561252
0.0055759
0.00556941
0.00554698
0.00560639
0.00563743
0.00566097
0.00568871
0.0056776
0.00562301
0.00782863
0.00553046
0.00482599
0.00279073
0.0026881
0.00189828
0.00166353
0.00195879
0.00209497
0.00227119
0.00221978
0.0023403
0.0023376
0.00248032
0.00230234
0.00204449
0.00313166
0.00334574
0.00326787
0.00333266
0.0032543
0.00323528
0.00321134
0.00316553
0.00311038
0.00185176
0.00181632
0.00212685
0.00223255
0.00239886
0.00242071
0.0024732
0.00234578
0.00206324
0.00199724
0.00229996
0.002269
0.00231291
0.00218071
0.00217187
0.00193502
0.00198401
0.00400324
0.00739551
0.00380286
0.00422446
0.0038263
0.00435228
0.00381163
0.00328677
0.00336379
0.00296256
0.00309024
0.00324162
0.00330023
0.00346849
0.00408835
0.00393624
0.00345529
0.00335503
0.00328892
0.0031009
0.00279105
0.00292406
0.00295058
0.0030139
0.00334954
0.00384275
0.00430831
0.00523543
0.00508065
0.0044509
0.004069
0.0042676
0.00434069
0.00546475
0.00510593
0.00507554
0.00535322
0.00529977
0.00503067
0.00476724
0.00460178
0.00395031
0.0040153
0.00459672
0.00444781
0.00458369
0.0045035
0.00468099
0.00476574
0.00457487
0.00425191
0.00446753
0.00445757
0.00495123
0.00481625
0.00446707
0.00408888
0.00436803
0.00431388
0.0049847
0.00469336
0.00438965
0.00403942
0.00386831
0.00439076
0.00431112
0.00488969
0.00503023
0.00503239
0.00438626
0.00428492
0.00509744
0.00490471
0.0047362
0.00493333
0.00408464
0.00420214
0.00517758
0.00528618
0.00501435
0.00418496
0.00424992
0.00364404
0.00428625
0.00533554
0.00503891
0.00412975
0.00342569
0.00479476
0.00504534
0.00533835
0.00504462
0.00549568
0.00592108
0.00482512
0.00525011
0.0068627
0.00523469
0.00607539
0.0062108
0.00624831
0.00625264
0.00627814
0.00631109
0.00665121
0.0064746
0.00411128
0.00491981
0.00477674
0.00399259
0.00339166
0.00373685
0.00402446
0.00408204
0.004185
0.00434406
0.00427021
0.00413277
0.00604802
0.00689979
0.00705251
0.00719378
0.00707615
0.00690103
0.00649713
0.00600125
0.00497377
0.00370801
0.00231153
0.0023556
0.00250987
0.00248509
0.00215543
0.0016271
0.00106863
0.00158718
0.00164095
0.00154505
0.00140773
0.00124082
0.0012813
0.00234815
0.00471994
0.00633765
0.00696707
0.00748252
0.00804138
0.0085849
0.00899919
0.00929749
0.00949684
0.00961669
0.00963621
0.00943839
0.00858427
0.00821019
0.00774822
0.00737247
0.00684831
0.00642673
0.00725989
0.00796936
0.00840696
0.00890011
0.0091278
0.00903201
0.00785313
0.00763103
0.00877853
0.0108028
0.00918393
0.0115335
0.0135599
0.0105752
0.00951019
0.00949676
0.0105955
0.0107981
0.0104126
0.00981386
0.00912918
0.00826746
0.00868851
0.0090696
0.00943565
0.00977264
0.0107249
0.0109063
0.010833
0.0106734
0.010458
0.0101435
0.00963989
0.00894184
0.00816475
0.0074136
0.00654483
0.00475405
0.00217255
0.00251259
0.00245304
0.0027393
0.00261353
0.00116426
0.00128295
0.00130035
0.00131009
0.00124
0.00140971
0.00204449
0.00334094
0.00239974
0.00196805
0.00136215
0.00160703
0.00268824
0.00457532
0.00516713
0.00525702
0.00531268
0.00682674
0.00790843
0.00841397
0.00880022
0.00907031
0.00894519
0.00864605
0.00812229
0.00749262
0.00724927
0.00686204
0.00650996
0.0063213
0.00611851
0.00575069
0.00454984
0.00430563
0.00448448
0.00443595
0.00424847
0.00453637
0.00469949
0.00469529
0.00474738
0.00479312
0.00493494
0.00510195
0.00524752
0.00532433
0.00535342
0.0053633
0.00537538
0.0053852
0.00540276
0.00538544
0.00526833
0.00462645
0.00289242
0.00168776
0.00156007
0.00171055
0.00180887
0.00185086
0.00164318
0.00105756
0.00164379
0.00212761
0.00218243
0.00239474
0.00247086
0.00262074
0.00292083
0.00337602
0.00348409
0.00309134
0.00292772
0.00286432
0.00279136
0.00238073
0.00296752
0.00328113
0.00327596
0.00324635
0.00350934
0.00431972
0.00414863
0.00365723
0.00361465
0.00357707
0.00322739
0.00317758
0.00347999
0.0035193
0.00365314
0.00428537
0.00514133
0.00476799
0.00434109
0.00415825
0.00383839
0.00337231
0.00304758
0.00377055
0.00310254
0.00160736
0.00136233
0.00136827
0.00136877
0.00131584
0.00155912
0.00164019
0.00166338
0.00155191
0.00172289
0.00191806
0.00185819
0.00210529
0.00207506
0.0018538
0.0018339
0.00199347
0.00211315
0.00217237
0.00222115
0.00363752
0.00374586
0.00290917
0.0042196
0.00486267
0.00485943
0.00515219
0.00422796
0.00378265
0.00449255
0.00520627
0.00599693
0.00472872
0.00446436
0.00457914
0.0020921
0.00110066
0.00155333
0.00192858
0.00214874
0.00208475
0.00197041
0.00166682
0.00296477
0.00304392
0.00483541
0.00542262
0.00548966
0.00544931
0.00546054
0.00597154
0.00689621
0.00787098
0.0081501
0.0080271
0.00766692
0.00700626
0.0063595
0.00632025
0.00611467
0.00595728
0.00591503
0.00515865
0.00451963
0.0048183
0.00474948
0.00490913
0.00498386
0.00503813
0.00509361
0.00518617
0.00529797
0.00540009
0.00547049
0.00551811
0.00555858
0.00559992
0.0056414
0.00568608
0.00571093
0.00565834
0.00511497
0.00306601
0.00182663
0.00166565
0.00177718
0.00208896
0.00219954
0.00236377
0.00209795
0.00110484
0.00129951
0.0022582
0.00250577
0.00231865
0.00216982
0.00213168
0.00178544
0.00323776
0.00319674
0.0050216
0.0056463
0.00572337
0.00570523
0.00565869
0.00560609
0.00555459
0.00551225
0.00547838
0.00544314
0.00539442
0.00533658
0.0052816
0.00522468
0.00513005
0.00499386
0.00484938
0.00505223
0.00520286
0.00543468
0.00568809
0.00581365
0.00570662
0.00554272
0.00546975
0.0055072
0.00555903
0.00561241
0.00566091
0.00568725
0.00562626
0.00530418
0.00497617
0.00314914
0.0031909
0.00156722
0.00174068
0.00200884
0.00207484
0.00225312
0.00224211
0.00176127
0.00137222
0.00154833
0.00144796
0.00258899
0.00284796
0.00316037
0.00312959
0.00169741
0.00174098
0.0018089
0.00204044
0.00189549
0.00183278
0.0045591
0.00435938
0.00455589
0.00559469
0.00481794
0.00332404
0.00364386
0.00507032
0.00534875
0.00323258
0.00242229
0.00268948
0.0034073
0.0050152
0.0050791
0.00482679
0.00479867
0.00350122
0.00430068
0.00517637
0.00503724
0.00392544
0.00270536
0.00201427
0.000975533
0.00185572
0.00158676
0.00389387
0.0043102
0.00426125
0.00466266
0.00495169
0.00500252
0.00486308
0.0043086
0.00439467
0.00443881
0.00506094
0.00508625
0.00430016
0.00362821
0.00294286
0.00296997
0.0030285
0.00335726
0.00420462
0.00396106
0.00347107
0.00336501
0.00329158
0.00309543
0.00279264
0.00244915
0.0024665
0.00229608
0.00222237
0.00350395
0.00466507
0.00550201
0.00566034
0.00571748
0.00562927
0.00558871
0.00542799
0.00534436
0.0046421
0.00592599
0.00626433
0.00604671
0.00609313
0.00613265
0.0061807
0.0061827
0.00606689
0.00521149
0.00311138
0.00203197
0.00229346
0.00247513
0.00232371
0.002311
0.00246363
0.00233815
0.00205395
0.00332808
0.00325311
0.00520267
0.00589363
0.00601907
0.00602486
0.00599929
0.00597764
0.00598403
0.00629807
0.00615647
0.00625161
0.0065942
0.0066014
0.00667949
0.00627009
0.00618907
0.00613682
0.00610155
0.00604496
0.00589565
0.00521644
0.00505752
0.00574425
0.00592206
0.00600143
0.00605663
0.00612223
0.00620776
0.00645364
0.00663703
0.00670884
0.00642944
0.00632139
0.00617337
0.00596519
0.00591672
0.00590839
0.00590478
0.00587751
0.0057261
0.00503981
0.00324016
0.00332027
0.00197492
0.00198762
0.00228914
0.00240388
0.00236061
0.00218582
0.00213103
0.00367582
0.00418567
0.0044484
0.00479825
0.00458413
0.00455646
0.00520881
0.00504073
0.00449254
0.0046753
0.00418996
0.00398936
0.00386976
0.00389374
0.00203753
0.00219893
0.002294
0.00225636
0.0021575
0.00192459
0.00176484
0.00322139
0.00319784
0.0031568
0.00187631
0.00183496
0.00216188
0.00209918
0.00192004
0.00163662
0.00179448
0.00277241
0.00310129
0.00480875
0.00498183
0.00533155
0.00570107
0.00584027
0.00587719
0.00589953
0.00592407
0.00597952
0.00604523
0.00606501
0.00606505
0.00611901
0.00610808
0.00611042
0.00608007
0.00604416
0.00600146
0.00595522
0.00587888
0.00572178
0.00534605
0.00497779
0.00561216
0.00566424
0.00577006
0.00587907
0.0059252
0.0059317
0.00590877
0.00586374
0.00580988
0.00574906
0.0057458
0.00591284
0.00595576
0.0059848
0.00596644
0.00594521
0.00593876
0.00591263
0.00587081
0.0057633
0.00565502
0.00560928
0.00551521
0.00566145
0.00572688
0.00573606
0.00579062
0.00587828
0.00590363
0.00590323
0.00585941
0.00582309
0.00577528
0.00569602
0.00558738
0.00524256
0.00531794
0.00541122
0.00553417
0.00565267
0.0057484
0.00580275
0.00580799
0.00575595
0.00572064
0.00572207
0.00567352
0.0056986
0.00572434
0.00569462
0.0056899
0.00569181
0.00562312
0.00550179
0.00533415
0.0051581
0.00501613
0.00495036
0.00483514
0.00520736
0.00536364
0.00549952
0.0056186
0.00572525
0.00583241
0.00586383
0.00585093
0.00578667
0.0057502
0.00574914
0.00569381
0.00568997
0.00574332
0.005745
0.00577519
0.00582959
0.00581563
0.00573975
0.00553808
0.00534267
0.00517183
0.00500686
0.00482848
0.00482066
0.00489928
0.00481948
0.00487263
0.00503665
0.00524836
0.0054336
0.00555596
0.00559654
0.00563358
0.00568621
0.00568127
0.00565021
0.00563231
0.0055612
0.00549853
0.00542194
0.00525838
0.00505394
0.00487833
0.00483236
0.00493811
0.00503559
0.00494374
0.00456665
0.00475012
0.00492482
0.00509626
0.00533887
0.005619
0.00573805
0.00578102
0.00575332
0.00573165
0.00572894
0.00567837
0.00565957
0.00570625
0.00571012
0.00573241
0.0057675
0.00573546
0.00564036
0.00529821
0.00488874
0.00469107
0.00457333
0.00441886
0.00496782
0.00507236
0.00494688
0.00486115
0.00498919
0.00513457
0.00528653
0.00538875
0.00543053
0.00549098
0.00557039
0.00560909
0.00555348
0.00548773
0.00540721
0.0053664
0.00536891
0.00534706
0.00525109
0.00513468
0.00499286
0.00516135
0.00526138
0.00516652
0.00466038
0.0047366
0.0048594
0.00492922
0.00531342
0.00564522
0.0057174
0.00571618
0.0056791
0.00565494
0.00565508
0.00562544
0.00556945
0.00555968
0.00555553
0.00562286
0.00571101
0.00576743
0.00579839
0.00555185
0.00509564
0.00501568
0.00479384
0.0046969
0.00523603
0.00529423
0.00516823
0.00505491
0.00530215
0.00540494
0.00543068
0.00540549
0.00534532
0.00530611
0.00537456
0.00548306
0.00540143
0.00504997
0.00473833
0.00489975
0.00494131
0.00493145
0.0048666
0.00475552
0.00450941
0.00503903
0.00555681
0.00559705
0.00503388
0.00504184
0.00489679
0.00456134
0.00500456
0.00523449
0.00528129
0.0052538
0.00516795
0.00496886
0.00524774
0.00549382
0.00544617
0.00492977
0.00319868
0.00324186
0.00326357
0.00326558
0.00322302
0.00321059
0.00316404
0.00313948
0.00306764
0.00299404
0.00292481
0.00311551
0.00327767
0.0034997
0.00351801
0.00361016
0.00345901
0.00327907
0.00306642
0.00239535
0.00303887
0.00362402
0.00385119
0.00414258
0.00420227
0.00483171
0.00507497
0.0052035
0.0050999
0.00409687
0.00347618
0.00277912
0.00180782
0.00112678
0.00132278
0.00137605
0.00144436
0.00176614
0.00328617
0.0016732
0.00232301
0.00181463
0.00313202
0.00164248
0.00102815
0.000682239
0.000871678
0.00103966
0.00105359
0.0010126
0.000846205
0.000670741
0.000685853
0.000641143
0.000681477
0.000609873
0.000697885
0.000647391
0.000895374
0.00131855
0.00151208
0.00154803
0.00125239
0.0014145
0.00118197
0.00136435
0.00121896
0.00132886
0.00127471
0.00155919
0.00170873
0.00163565
0.00163987
0.00143499
0.00100362
0.00116346
0.000914052
0.00109761
0.000839823
0.00108408
0.000929696
0.00120803
0.00124526
0.00124163
0.00119545
0.000913282
0.00108306
0.000852891
0.00105192
0.000864409
0.000926437
0.000771707
0.00111996
0.00114065
0.00105135
0.00111673
0.00125438
0.00134651
0.00148169
0.00140145
0.00159156
0.00153335
0.00154752
0.00146574
0.00142484
0.00139248
0.00139556
0.00137274
0.00138026
0.0014247
0.00142665
0.00143202
0.00147696
0.00145534
0.0014199
0.00139837
0.00124224
0.0010027
0.00174702
0.00180149
0.00182867
0.00182856
0.00178787
0.00176722
0.00170468
0.00168828
0.00163438
0.00160358
0.00153172
0.00147365
0.00140676
0.00158238
0.000885671
0.00100574
0.00106174
0.00109352
0.00111528
0.0011254
0.00113328
0.00112682
0.00111263
0.00108536
0.00107635
0.00104655
0.00133873
0.00152306
0.00159272
0.00161161
0.00151057
0.00143868
0.00315521
0.00382119
0.00580626
0.00593389
0.00445697
0.00444202
0.00153454
0.00162108
0.00110784
0.00155677
0.00160528
0.00158892
0.00150093
0.00108268
0.00162541
0.00113319
0.0015267
0.00114787
0.00141923
0.00117953
0.00168241
0.00214603
0.00207216
0.00187781
0.00129436
0.00108579
0.00109327
0.000939565
0.00103097
0.000842943
0.00102605
0.000857918
0.00125444
0.00175659
0.00195565
0.00199642
0.00157509
0.00217348
0.00163445
0.00236767
0.00188184
0.00232287
0.00186531
0.00215791
0.00267013
0.00268216
0.00261834
0.00211016
0.00168998
0.00189731
0.00168052
0.00193602
0.00280103
0.00183544
0.0027886
0.00115158
0.00156977
0.00161822
0.0015962
0.00150518
0.00101407
0.00258236
0.00136626
0.00242988
0.00157326
0.00252223
0.00183576
0.00243973
0.0029184
0.00305343
0.00304132
0.00248358
0.00224538
0.0023283
0.00186429
0.00223969
0.00166697
0.00241434
0.00136021
0.00176169
0.00194149
0.00204454
0.00205171
0.00168471
0.00332918
0.00209137
0.00315696
0.00219662
0.00281529
0.0022568
0.00246787
0.00291483
0.00289644
0.00287174
0.00243504
0.00197091
0.00260193
0.00185492
0.0555427
0.128141
0.0510837
0.129592
0.058633
0.0832636
0.0820494
0.0822255
0.08255
0.0620196
0.135262
0.159743
0.166542
0.168542
0.167272
0.270285
0.220383
0.331047
0.21452
0.126314
0.0548097
0.0755213
0.194809
0.321634
0.482783
0.612703
0.417573
0.432306
0.275875
0.272049
0.256195
0.207312
0.127113
0.0637897
0.010916
0.0119279
0.0170733
0.0227475
0.0178746
0.0109229
0.00215684
0.00222572
0.0022759
0.00230719
0.00229902
0.00224953
0.00228367
0.00215351
0.00202123
0.00225879
0.0024638
0.00269595
0.00316426
0.00349329
0.00314728
0.00344814
0.00365318
0.00382014
0.00395868
0.00416557
0.00439873
0.00460328
0.00461394
0.00422723
0.00360287
0.00292982
0.00246134
0.0023314
0.00218905
0.00193037
0.00176567
0.00165243
0.00159834
0.00157615
0.00162003
0.00177077
0.00190181
0.00194778
0.00190971
0.00187469
0.00184416
0.00164214
0.00192003
0.00263376
0.00265402
0.00454705
0.00523928
0.00534819
0.00535567
0.00474656
0.00303179
0.00303867
0.00305435
0.00311317
0.00312565
0.00313483
0.00313192
0.00312228
0.00310439
0.00307161
0.00305482
0.00300577
0.00296377
0.00285783
0.00286253
0.0028999
0.00292925
0.00288073
0.0028924
0.00283141
0.00369739
0.00493433
0.00555546
0.00580534
0.00602009
0.00584279
0.00810066
0.00693448
0.00487236
0.00479398
0.00473362
0.00561959
0.00565734
0.00509483
0.00511434
0.00467947
0.00292106
0.00291382
0.00291566
0.00311773
0.0031789
0.00328386
0.00331316
0.00333678
0.00335196
0.00334215
0.00333914
0.00330715
0.00328423
0.00320867
0.00318363
0.00317274
0.00174939
0.00190938
0.00198116
0.00199522
0.00202571
0.00201443
0.00200441
0.0019808
0.00196635
0.00193383
0.00189712
0.00184083
0.00173106
0.00157677
0.00173523
0.00294422
0.00294338
0.00479834
0.0053972
0.00543803
0.00607107
0.00576174
0.0054575
0.00585827
0.00527068
0.00522571
0.00474053
0.00294491
0.00298435
0.00177174
0.00175603
0.00205369
0.00199699
0.00213368
0.00219173
0.00219703
0.00222662
0.00225428
0.00228941
0.00234521
0.00236085
0.0023216
0.0023133
0.00217896
0.00188304
0.00190499
0.00224547
0.00235512
0.00218881
0.00215289
0.00213771
0.00208727
0.00204822
0.00201106
0.0020381
0.00219563
0.00219377
0.00215483
0.00205125
0.00199775
0.00173181
0.00167356
0.00292335
0.00296221
0.00487345
0.00499565
0.00496941
0.00573253
0.00639877
0.00727411
0.0062076
0.00503349
0.00520268
0.00594624
0.00441851
0.00369799
0.00219222
0.00166582
0.00205721
0.0019333
0.00201423
0.00208662
0.00185241
0.0019899
0.00183892
0.00167095
0.00166114
0.00165907
0.00169947
0.0017166
0.00174727
0.00175139
0.00179238
0.00178811
0.00179217
0.00181383
0.00182153
0.00201231
0.00218449
0.00183947
0.00156032
0.001522
0.00143751
0.00136933
0.001403
0.00137032
0.00136204
0.00133733
0.00131475
0.00125492
0.00130788
0.0013882
0.00162441
0.001555
0.00125654
0.00112239
0.000767041
0.000782285
0.000787691
0.000811722
0.000820594
0.000831437
0.000835505
0.000848948
0.000851581
0.000855822
0.00085548
0.000875709
0.000872668
0.000862472
0.000855982
0.000860098
0.000863875
0.000863095
0.00126376
0.00140674
0.00153455
0.00182184
0.00214251
0.00184439
0.0015641
0.00135014
0.000868186
0.000881216
0.000896972
0.000905246
0.000924065
0.000941432
0.000960532
0.000972628
0.000981495
0.000990927
0.00100082
0.0010047
0.00100202
0.000982557
0.000971012
0.0009959
0.00109478
0.00115233
0.00122605
0.001254
0.00127774
0.00128976
0.00128349
0.00129698
0.00128152
0.0012795
0.00125739
0.00124813
0.00123899
0.00122783
0.00121371
0.0011794
0.00116776
0.00122872
0.00207858
0.00271685
0.00312585
0.00344161
0.0031806
0.00257915
0.00271284
0.00476363
0.00450937
0.00266519
0.00248745
0.00229353
0.00199943
0.00176755
0.00214169
0.00244281
0.00267067
0.00287093
0.00305393
0.00317823
0.00333855
0.00354813
0.00391792
0.00396423
0.00361587
0.00292896
0.00247768
0.00231235
0.00223332
0.00209707
0.00194836
0.0019974
0.00201202
0.00195234
0.00187825
0.00185746
0.00188841
0.00192844
0.00190549
0.00190477
0.0017018
0.00170115
0.00290697
0.00296029
0.0045538
0.00479816
0.00484502
0.00311388
0.00307159
0.00179395
0.00166637
0.00181797
0.00188753
0.00189168
0.00189971
0.00189067
0.00185775
0.00183394
0.00180588
0.00178319
0.00176293
0.00172781
0.00166051
0.00153404
0.00167136
0.00187337
0.00195687
0.00197877
0.00198939
0.00202069
0.00207249
0.00211348
0.0022092
0.00221803
0.00221687
0.00222446
0.00207866
0.00214334
0.0018138
0.00181089
0.00313919
0.00313014
0.00179812
0.00212325
0.00213806
0.00211424
0.00227664
0.00208316
0.00201732
0.00200755
0.00192259
0.00187751
0.00181682
0.00178081
0.00181538
0.0019309
0.0018692
0.00165701
0.00159569
0.00179049
0.00172329
0.00142958
0.00122134
0.00118786
0.00113714
0.00110635
0.00115971
0.00120156
0.00122538
0.00125555
0.00126442
0.00131974
0.00128368
0.00134646
0.00142791
0.00149283
0.00177049
0.00191898
0.00173358
0.00170044
0.0016794
0.00167836
0.00168392
0.00161451
0.00160998
0.00157411
0.00155639
0.00150916
0.00148794
0.00146097
0.00146567
0.00148098
0.00162815
0.00418993
0.00534344
0.00556341
0.0095105
0.00384163
0.00392153
0.00771164
0.00317923
0.0047857
0.00512753
0.00535868
0.00559737
0.00512163
0.00652456
0.00454562
0.00506536
0.00527335
0.00461335
0.00173602
0.00199484
0.00229175
0.00203725
0.00179876
0.00122498
0.00131943
0.00136192
0.00139666
0.00141894
0.00144408
0.00147082
0.001496
0.00151354
0.00151358
0.00146723
0.00141741
0.00130309
0.00126506
0.00131386
0.00136427
0.00119788
0.00112788
0.00114102
0.00115954
0.00116984
0.00117185
0.00118303
0.00118592
0.00120368
0.00119388
0.00120267
0.0011819
0.00119194
0.00117671
0.00113687
0.00108056
0.00098524
0.000962102
0.00138592
0.0014761
0.00155069
0.00176063
0.00203395
0.00217095
0.0019462
0.00179525
0.00172325
0.00191159
0.00191346
0.00348366
0.00668946
0.00299126
0.00334827
0.00977465
0.00388406
0.00301563
0.00306066
0.00309247
0.00309689
0.00179946
0.00213087
0.00206552
0.0020749
0.00176004
0.00147806
0.00132569
0.00118523
0.000804005
0.000801472
0.000807516
0.000820106
0.000824063
0.000788708
0.000788618
0.000784129
0.000782394
0.000765726
0.000761089
0.00074751
0.00073927
0.000719692
0.000709134
0.000690666
0.000687662
0.000721019
0.000804921
0.00097355
0.00107952
0.00122975
0.00125088
0.00139959
0.00346316
0.0040121
0.00553618
0.00548937
0.00865382
0.00540873
0.00408406
0.00368693
0.00539769
0.00558034
0.00517703
0.00701108
0.00484754
0.00321603
0.00491894
0.00410679
0.00478654
0.0047206
0.00501524
0.00795667
0.00834422
0.00234305
0.00208772
0.0021951
0.00249126
0.00295876
0.00272845
0.00310659
0.003112
0.00240906
0.00152066
0.00484494
0.00585985
0.00473815
0.00571086
0.00872944
0.00350174
0.00341432
0.0030202
0.00252057
0.00229033
0.00226037
0.00252112
0.00301715
0.00754965
0.00808118
0.0075045
0.00751119
0.00681557
0.0074466
0.0092545
0.00919452
0.00812947
0.00760192
0.00789635
0.00495535
0.00303554
0.00352535
0.00391151
0.00522029
0.00538273
0.0113412
0.0038638
0.00426064
0.00432596
0.00578118
0.00561059
0.00987935
0.00420851
0.00452987
0.00597023
0.00798135
0.0146558
0.00538359
0.00565242
0.00812047
0.0082472
0.00754133
0.00546105
0.00494126
0.00537346
0.00405012
0.00396118
0.00337884
0.00498529
0.0066963
0.00531341
0.00515856
0.00437969
0.00392448
0.00399506
0.00415075
0.00345021
0.00340085
0.00391839
0.00293169
0.00283257
0.00298411
0.000829293
0.000424795
0.000434164
0.000445492
0.000454683
0.000464193
0.000471086
0.00047934
0.000482962
0.00048343
0.000484784
0.000512557
0.000507644
0.000491575
0.00044635
0.000509225
0.000808117
0.000808557
0.000508545
0.000448275
0.000804528
0.00128175
0.00151106
0.0017871
0.00180883
0.00156102
0.00135362
0.00083345
0.000820288
0.000497118
0.000580626
0.000630509
0.000559318
0.000624326
0.000578735
0.000612896
0.000619613
0.000573437
0.000570077
0.000572214
0.000567924
0.000557756
0.000545421
0.000530372
0.000518693
0.00051261
0.000508323
0.000498353
0.000412536
0.000385235
0.000465415
0.000744484
0.000745113
0.000697241
0.000655368
0.000619288
0.000602353
0.000597259
0.000593685
0.000604045
0.000623484
0.000629035
0.000634762
0.0006839
0.000661983
0.000707017
0.000663658
0.000708926
0.000665278
0.000612037
0.00051389
0.000530178
0.00085546
0.00086458
0.00139646
0.00159701
0.00181067
0.0018196
0.00203174
0.00214047
0.00181329
0.00188266
0.00215693
0.00200814
0.00178913
0.00179635
0.00161547
0.00161745
0.00143334
0.000896053
0.000883938
0.000555043
0.000539085
0.000642778
0.000631614
0.000702396
0.000751808
0.000752037
0.000749637
0.000731507
0.00072484
0.000637354
0.000624648
0.000625488
0.000606692
0.000602876
0.000629595
0.000689094
0.000810703
0.000981221
0.00106746
0.00110278
0.00105669
0.000945411
0.000700316
0.000630948
0.00109577
0.00113461
0.00205033
0.00488417
0.0022931
0.0043018
0.00310199
0.000768934
0.000856789
0.00109239
0.00122386
0.00132171
0.00137932
0.00126245
0.00105449
0.000793753
0.000655356
0.000975553
0.000843451
0.000951266
0.000830548
0.00107493
0.00124267
0.00120199
0.00121086
0.00102315
0.000833246
0.000882432
0.000791931
0.000872803
0.000730816
0.000879213
0.000793721
0.000997334
0.00100668
0.000985702
0.000934282
0.000711349
0.000746381
0.000626105
0.000679305
0.000609987
0.000630567
0.000597484
0.000696793
0.00080296
0.000770685
0.000767719
0.00063085
0.000494425
0.000546167
0.00047261
0.00053495
0.000415935
0.000503762
0.000422303
0.000546794
0.000563879
0.000567308
0.000564573
0.000460282
0.000541589
0.000661724
0.000693964
0.000699282
0.000665495
0.000513377
0.000794018
0.000715544
0.000873545
0.000755075
0.000827041
0.000752958
0.000877632
0.0011241
0.00117377
0.00118156
0.000958758
0.000952786
0.00174018
0.0966009
0.0015654
0.0018503
0.0019082
0.00190147
0.00157204
0.00153335
0.00189991
0.00140479
0.00199012
0.00125323
0.0021235
0.000809276
0.00123023
0.00132082
0.00131805
0.00122502
0.000822484
0.00243328
0.1189
0.307861
0.33428
0.333734
0.320745