/*--------------------------------*- C++ -*----------------------------------*\
| =========                 |                                                 |
| \\      /  F ield         | OpenFOAM: The Open Source CFD Toolbox           |
|  \\    /   O peration     | Version:  v2012                                 |
|   \\  /    A nd           | Website:  www.openfoam.com                      |
|    \\/     M anipulation  |                                                 |
\*---------------------------------------------------------------------------*/
FoamFile
{
    version     2.0;
    format      ascii;
    class       volScalarField;
    location    "1120";
    object      k;
}
// * * * * * * * * * * * * * * * * * * * * * * * * * * * * * * * * * * * * * //

dimensions      [0 2 -2 0 0 0 0];


internalField   nonuniform List<scalar> 
18258
(
0.0334473
0.0157684
0.0123093
0.0101588
0.0109864
0.0139889
0.0167867
0.0211541
0.0255748
0.0315163
0.0385879
0.0475231
0.0535281
0.0606845
0.0636545
0.0619247
0.0520575
0.0473107
0.0564844
0.0809838
0.0710764
0.0513935
0.0623404
0.0614976
0.0722384
0.0763147
0.0600743
0.0548588
0.0494426
0.0437568
0.0371914
0.0230377
0.0240871
0.0288471
0.0320553
0.0357576
0.0386065
0.0409242
0.0425795
0.0433953
0.0433002
0.0420048
0.0393172
0.0352876
0.0298433
0.0238848
0.0235993
0.0237248
0.0294292
0.0350725
0.0405449
0.0461511
0.0545765
0.0446683
0.0290415
0.0391889
0.0476612
0.0545524
0.058982
0.061434
0.0622005
0.0612901
0.0590027
0.0557454
0.0517863
0.0474497
0.043435
0.0394527
0.0342123
0.0309547
0.0268468
0.0235052
0.0210673
0.0193566
0.0182389
0.0172338
0.0163667
0.0156324
0.0150159
0.0145914
0.0145001
0.0145264
0.0146268
0.0147229
0.0150657
0.0127189
0.0109469
0.0104788
0.0102214
0.00956715
0.00810715
0.0106567
0.0117575
0.0121731
0.0124418
0.0136202
0.014783
0.0143614
0.0136353
0.0125209
0.0125664
0.0170321
0.0178104
0.022852
0.0216729
0.0168626
0.0148839
0.0166702
0.0195073
0.0225397
0.0192501
0.0192314
0.0179377
0.0170291
0.0148894
0.0149337
0.0144253
0.0141194
0.0150421
0.0177926
0.0172006
0.0173077
0.0185297
0.0188544
0.0200819
0.0211001
0.0204479
0.0202661
0.0164201
0.016321
0.0173624
0.0172365
0.0177164
0.0202028
0.0202605
0.020609
0.0208266
0.0236097
0.0236282
0.023593
0.0236842
0.0245228
0.0235597
0.023147
0.0231763
0.0232122
0.021049
0.0208251
0.0204584
0.0204958
0.0183371
0.0176018
0.018332
0.0193113
0.0212866
0.0250399
0.0314782
0.0404029
0.0504999
0.060741
0.0685085
0.0728602
0.0772208
0.0766731
0.0773683
0.0794597
0.0798258
0.0786815
0.0768268
0.0746607
0.0717067
0.06707
0.0665888
0.0589392
0.0480606
0.0333862
0.0388771
0.0417084
0.0444602
0.0447742
0.0452656
0.0440691
0.0423274
0.0387585
0.0336628
0.0247685
0.02573
0.0301763
0.0348404
0.0386276
0.04279
0.0464228
0.048279
0.0499925
0.0593531
0.0570859
0.0551785
0.0568703
0.0584289
0.061631
0.0600601
0.0561231
0.0501609
0.0518079
0.0449189
0.0335743
0.0313653
0.0292504
0.0269865
0.0378751
0.0496608
0.061174
0.0674814
0.0736164
0.0784314
0.0824472
0.0869581
0.0815259
0.0763975
0.0577143
0.0837584
0.0657056
0.0504837
0.0411753
0.0332278
0.0316066
0.0343561
0.0343997
0.0325882
0.0280337
0.0220487
0.0229833
0.035809
0.0455971
0.0535971
0.0551775
0.0598658
0.0622729
0.0570102
0.057582
0.0467616
0.0479579
0.0513852
0.0459823
0.0437268
0.0351143
0.0274146
0.033564
0.0499469
0.0685229
0.0843795
0.0993935
0.0659266
0.0501341
0.0410637
0.0342243
0.033072
0.037705
0.0436441
0.0527919
0.0412143
0.0371553
0.0336377
0.0307602
0.0258258
0.0275514
0.0287748
0.0269475
0.0498022
0.0573317
0.0610182
0.0834481
0.0923726
0.108318
0.107001
0.0925633
0.0962429
0.0690284
0.0687471
0.0860677
0.06816
0.0513194
0.0615885
0.0745243
0.0883846
0.101586
0.11292
0.122003
0.123689
0.112176
0.0813254
0.0468217
0.0212966
0.0186363
0.0180793
0.0173727
0.0164886
0.015702
0.0150867
0.0121504
0.00951394
0.00928225
0.00945918
0.00940313
0.00826786
0.00951514
0.0115769
0.0137705
0.0152798
0.0164899
0.017511
0.0182462
0.0188353
0.0192343
0.0195313
0.0197996
0.0200358
0.0202227
0.0203618
0.0204537
0.0204973
0.0204843
0.0204081
0.0202672
0.0200599
0.0197703
0.0192949
0.0177624
0.0159087
0.0150805
0.0151395
0.0148898
0.0145875
0.0119522
0.0123254
0.0143458
0.0149787
0.0177703
0.0198063
0.0215094
0.0229632
0.0244894
0.0252652
0.0260922
0.0263562
0.0264068
0.0263043
0.0261517
0.0259244
0.025618
0.024549
0.0212929
0.0248959
0.0272899
0.0289786
0.0303311
0.0312355
0.0313371
0.0285864
0.0360734
0.0385288
0.0394319
0.0396983
0.0388817
0.0368765
0.0344342
0.032384
0.0308777
0.0297612
0.0276192
0.0253725
0.0230639
0.0206487
0.0174266
0.0186969
0.0205326
0.0207427
0.0204523
0.021497
0.0227567
0.0211031
0.0190134
0.0161222
0.0151242
0.0146332
0.0144434
0.014849
0.0145051
0.0144042
0.0149029
0.0179174
0.0190121
0.0207132
0.02397
0.0228369
0.0208927
0.0280645
0.0296765
0.0301243
0.0304724
0.0303809
0.0296251
0.0265464
0.0250893
0.0264755
0.0250178
0.0243872
0.0244765
0.024109
0.0222463
0.0245463
0.0265467
0.0281372
0.028985
0.0302227
0.0317764
0.033936
0.0357286
0.0373865
0.0383877
0.0383622
0.0378216
0.0379991
0.0386446
0.0383231
0.036635
0.0345656
0.032481
0.0295265
0.0293503
0.0313158
0.0328708
0.0345255
0.0362975
0.035617
0.0337324
0.032112
0.0306991
0.0289969
0.028878
0.0305471
0.0319841
0.0337181
0.0358363
0.0360185
0.0338767
0.0320616
0.0305625
0.0288663
0.0288346
0.0305294
0.0320377
0.0337593
0.0356473
0.0347789
0.0333081
0.0317873
0.0303229
0.0286633
0.0282262
0.0298262
0.0312058
0.0325183
0.0335835
0.0319104
0.0313208
0.030252
0.0288648
0.0271098
0.0258545
0.026363
0.0277488
0.0278596
0.0283379
0.0294549
0.0293006
0.0290178
0.0289732
0.0286917
0.0264461
0.0268533
0.0269019
0.0275937
0.0308912
0.0304126
0.0330834
0.0354944
0.0331866
0.0316991
0.0281329
0.0336915
0.0337347
0.0346942
0.0335215
0.023751
0.0218972
0.0228983
0.0244314
0.0260717
0.0253847
0.0226316
0.0225624
0.0231646
0.0225785
0.021019
0.0180377
0.0135555
0.0135646
0.0135566
0.0142909
0.0170954
0.018695
0.0188073
0.0186527
0.0183504
0.0178785
0.0171618
0.0160907
0.0156275
0.0246054
0.0445249
0.0563857
0.0558055
0.0424412
0.0355097
0.0261441
0.0179299
0.0105286
0.0107322
0.011372
0.0137312
0.0115808
0.0105053
0.0144755
0.0117874
0.019699
0.0228832
0.0302554
0.0412951
0.0398263
0.0302
0.0204295
0.0184631
0.0193289
0.0198431
0.0202312
0.0206128
0.0209978
0.0214158
0.0219237
0.0215941
0.0189594
0.0167177
0.0168441
0.0174154
0.0199179
0.0212965
0.0220895
0.0217592
0.0220109
0.0237346
0.0224876
0.0212586
0.0210497
0.0203442
0.023187
0.0235346
0.0229087
0.0229184
0.023197
0.023078
0.0232091
0.0240147
0.0198158
0.0219269
0.0224765
0.0227599
0.0235546
0.0190532
0.0192409
0.0193027
0.0181449
0.0148931
0.0180246
0.0167813
0.0121632
0.0134788
0.0134423
0.0140538
0.0143798
0.0171231
0.016284
0.0155593
0.0163214
0.0223038
0.0231141
0.0232942
0.0206533
0.0194094
0.0218991
0.0224874
0.0220263
0.0211402
0.0213072
0.0203632
0.018459
0.0177393
0.0178766
0.0192894
0.0200876
0.0201546
0.0237699
0.0232686
0.0217046
0.0227048
0.023299
0.0228918
0.0227833
0.0227303
0.0223592
0.0219381
0.0223509
0.0225388
0.0225906
0.0221488
0.0223995
0.025041
0.0214788
0.0212864
0.0201989
0.0195387
0.0179066
0.0176531
0.0177513
0.017711
0.0176161
0.0167771
0.0186385
0.0179112
0.0200472
0.0216625
0.0228161
0.0239904
0.0241417
0.0237124
0.0236733
0.0232888
0.0232554
0.0227037
0.0218546
0.0212682
0.0204893
0.0192778
0.0192701
0.0192204
0.0190758
0.0204838
0.0203822
0.0219505
0.023074
0.0227888
0.0218203
0.0217122
0.0205323
0.0205097
0.0215543
0.0224467
0.0226964
0.0235603
0.0260955
0.0237472
0.0253003
0.0259979
0.026661
0.0260488
0.0249509
0.0256997
0.0240362
0.0229223
0.024241
0.024964
0.026225
0.0270196
0.0250418
0.0240135
0.0228165
0.0219535
0.0209673
0.0184415
0.0190542
0.0198444
0.0210763
0.022892
0.0256143
0.0283508
0.0312715
0.0313277
0.0290288
0.0273301
0.0321287
0.0316047
0.0365779
0.0371768
0.0330552
0.0302532
0.0273415
0.0269171
0.025998
0.0254627
0.0241859
0.0254369
0.0258637
0.0249165
0.0273861
0.0289581
0.0332889
0.0388522
0.0355189
0.0326865
0.0377368
0.0366499
0.0426176
0.0364012
0.0347391
0.0286031
0.0332031
0.035555
0.0433036
0.0338998
0.0297172
0.0294886
0.0308089
0.0382936
0.0368386
0.0394403
0.0445948
0.0439318
0.0390489
0.0358176
0.0415834
0.0316262
0.0370502
0.0390601
0.0324325
0.0322011
0.0390818
0.0396985
0.0398534
0.0337654
0.0330479
0.0250363
0.0335924
0.0400765
0.0399796
0.0331946
0.0259881
0.0358998
0.0315463
0.0313475
0.0313467
0.0269551
0.0268899
0.0261813
0.0264382
0.027152
0.0247147
0.0255212
0.0257819
0.0259453
0.0260769
0.0262695
0.0266146
0.0272595
0.0279894
0.0229055
0.0243544
0.0229958
0.0216441
0.0202798
0.0240612
0.0265369
0.0283422
0.0297952
0.0309292
0.0314115
0.029993
0.0379631
0.0396849
0.0413161
0.0414782
0.0402564
0.0376254
0.0342104
0.0307536
0.0285329
0.0271984
0.0246799
0.0225489
0.0204754
0.0183204
0.0155204
0.0142098
0.012904
0.0115724
0.0112572
0.0107339
0.0101448
0.00947071
0.00911119
0.0115217
0.0185464
0.0277751
0.0328109
0.0381238
0.0446836
0.051442
0.0570128
0.061116
0.0639505
0.0656624
0.0660752
0.0633716
0.0524531
0.0474569
0.0426059
0.037702
0.032759
0.0320867
0.0411682
0.0494654
0.0565071
0.0628745
0.0670428
0.0654431
0.0499723
0.0467733
0.0622651
0.0896945
0.0804041
0.103315
0.119847
0.0794583
0.0648741
0.0642071
0.0795464
0.0820127
0.0753285
0.0663017
0.0563936
0.0454474
0.0504355
0.0551827
0.0597059
0.0642382
0.0776339
0.0802383
0.0791049
0.0767605
0.0735611
0.0689394
0.0619491
0.053051
0.0440909
0.0365513
0.02966
0.0196719
0.0125923
0.0135109
0.0129616
0.0149171
0.0143911
0.00989137
0.0102259
0.0104464
0.0103927
0.0101717
0.0102243
0.0116177
0.0183213
0.0150015
0.0136229
0.0117271
0.0145041
0.0164197
0.0183681
0.0189834
0.0191317
0.0195957
0.0316579
0.0433935
0.0495225
0.0543964
0.0582011
0.0568172
0.0531655
0.046898
0.0396003
0.0369533
0.0330246
0.0297202
0.0280757
0.0290503
0.0255341
0.0158838
0.0146393
0.0157074
0.0154051
0.0144148
0.0163637
0.017586
0.0183638
0.018993
0.0194636
0.0198259
0.0200849
0.0202573
0.0203485
0.0203767
0.0203565
0.0202926
0.0201836
0.0200269
0.0198115
0.0195074
0.0189882
0.0172719
0.0154259
0.0147067
0.0147903
0.0145584
0.0141937
0.0123141
0.0125396
0.0143994
0.015003
0.0146147
0.0152087
0.0156828
0.0168966
0.0190745
0.0212144
0.023052
0.0217384
0.0210781
0.021044
0.0206401
0.0174473
0.0207553
0.0236646
0.0241834
0.0244617
0.0252849
0.0268877
0.0278372
0.0268972
0.0263863
0.0258505
0.0227295
0.0243584
0.0279225
0.0283414
0.0290249
0.0296275
0.030207
0.0314898
0.0308552
0.0299573
0.0293563
0.0264964
0.0256183
0.0316601
0.0206561
0.0144174
0.0103067
0.0107954
0.0109845
0.0106369
0.0114084
0.0119529
0.0122056
0.0116031
0.0126828
0.013601
0.0129102
0.0154396
0.0147327
0.0137126
0.0132427
0.0140928
0.0148912
0.015289
0.0163035
0.0263985
0.0271793
0.0227443
0.0292512
0.0318356
0.0290392
0.0319089
0.0295439
0.0281905
0.0309736
0.0343904
0.0356814
0.0333226
0.0319148
0.0313039
0.0208402
0.0201533
0.0194373
0.0175872
0.0178602
0.0174017
0.0169515
0.0165498
0.0191073
0.020503
0.0217252
0.0214246
0.0211246
0.0207115
0.020795
0.024657
0.0326133
0.0431353
0.046928
0.0457328
0.0417698
0.034753
0.0283332
0.027987
0.0261676
0.0250082
0.0247953
0.0188827
0.0148809
0.0174042
0.0173587
0.0184295
0.0191078
0.0196433
0.0200726
0.0204332
0.0207472
0.0210533
0.0213383
0.0215877
0.0217974
0.0219768
0.022125
0.022283
0.022473
0.0227343
0.0229431
0.0212884
0.0186435
0.0172893
0.0171414
0.0178604
0.0187662
0.0198932
0.0191302
0.0154032
0.0154898
0.0219099
0.0223781
0.0210115
0.0195853
0.0197889
0.0189451
0.0227874
0.0225957
0.0234144
0.0232126
0.022932
0.0226482
0.0223641
0.0220679
0.0217672
0.0215034
0.0212627
0.021039
0.0208199
0.020586
0.0203014
0.0198829
0.0191858
0.0183753
0.0168769
0.0180062
0.0192557
0.0209835
0.0228373
0.02369
0.0227907
0.0215924
0.0211157
0.0213719
0.0216932
0.0220336
0.0223954
0.022816
0.0232327
0.0236215
0.0235555
0.0222047
0.022854
0.0174894
0.0183421
0.0186435
0.0186023
0.0202625
0.0193945
0.0146616
0.015179
0.0159094
0.0172046
0.0198093
0.0201792
0.0215459
0.0217775
0.0173448
0.0170412
0.0166125
0.0176146
0.0152347
0.0158833
0.0266801
0.0272711
0.0350258
0.0384076
0.0399927
0.0331732
0.0456325
0.0525066
0.0506463
0.0409368
0.0235381
0.0346944
0.0422152
0.048888
0.0458384
0.0356793
0.0449989
0.0474313
0.0633562
0.0590309
0.0526656
0.0633977
0.0448036
0.0269686
0.0158309
0.0164009
0.0151983
0.0306902
0.0348019
0.0315098
0.0323674
0.0399966
0.0410083
0.0362773
0.0345635
0.0363206
0.0358685
0.0398405
0.0371519
0.0337401
0.0233231
0.019038
0.0198837
0.0212997
0.0231328
0.0254775
0.0253736
0.0242259
0.0228551
0.021874
0.0208139
0.0183119
0.0176492
0.019612
0.0212435
0.0226231
0.0241355
0.0249583
0.0258006
0.0259641
0.0258538
0.0255283
0.0250971
0.0245398
0.023854
0.0224441
0.0236866
0.0243659
0.0245751
0.0248543
0.0251686
0.0254472
0.0255915
0.0254788
0.0245229
0.0237068
0.0225359
0.0214179
0.0198094
0.0176898
0.0183744
0.0201371
0.0217405
0.0228557
0.0239076
0.0235196
0.0240155
0.0246775
0.0246982
0.0245137
0.024289
0.0241388
0.0242336
0.024869
0.02659
0.0263192
0.029149
0.0303274
0.0277592
0.02643
0.0257386
0.0253138
0.0250694
0.0248639
0.024665
0.0241186
0.0235794
0.0240816
0.0243341
0.0246286
0.0249815
0.0254814
0.0261641
0.0272494
0.0286512
0.0285389
0.0263268
0.0261764
0.025113
0.0243222
0.0239393
0.0238847
0.0239274
0.0240305
0.02397
0.0234468
0.0231153
0.02352
0.0225055
0.022569
0.0215955
0.0202328
0.0187891
0.0173362
0.0166733
0.035347
0.0353287
0.0458194
0.0425082
0.0371817
0.0472533
0.0602523
0.0522309
0.0629227
0.066724
0.0542342
0.0503315
0.0279461
0.0244564
0.0174094
0.0189368
0.0202851
0.0214934
0.0213098
0.0222339
0.022116
0.0230888
0.0225453
0.0217642
0.021206
0.0201872
0.0202423
0.0189679
0.0174204
0.0172873
0.018939
0.0200008
0.0211832
0.0211807
0.0226443
0.023143
0.0235435
0.0236978
0.0236933
0.0237907
0.0239681
0.0244252
0.0251439
0.0256125
0.0257494
0.0261177
0.0258506
0.0255433
0.025104
0.0248084
0.0245016
0.0242302
0.0239402
0.0236636
0.0232312
0.0225732
0.0224539
0.0229684
0.0233076
0.0235374
0.0236648
0.0236353
0.0234283
0.0230972
0.0227625
0.0223984
0.0224606
0.0238295
0.024092
0.0242318
0.0240152
0.023831
0.0237995
0.0236612
0.0235509
0.0233151
0.0229432
0.0224741
0.0214046
0.0215035
0.0223856
0.0228293
0.0231621
0.0234475
0.0234865
0.0234227
0.0230557
0.0227637
0.0224037
0.0218197
0.0210499
0.018535
0.0190108
0.0196493
0.0205158
0.0213862
0.0221288
0.0226058
0.0228111
0.0228178
0.0226497
0.0222977
0.0215466
0.0215256
0.0220654
0.0222288
0.0221682
0.0218481
0.0212065
0.0202572
0.0190277
0.0177901
0.016809
0.0163309
0.0155608
0.0181808
0.0192574
0.0202427
0.0211373
0.0219636
0.0228181
0.0231257
0.0231638
0.0230003
0.0227301
0.0223161
0.0215442
0.0215484
0.0222525
0.0226434
0.022863
0.0229562
0.022704
0.0220465
0.020498
0.0190568
0.017847
0.0167254
0.0155711
0.0153011
0.0158069
0.0153667
0.015785
0.016908
0.0183977
0.0197766
0.0207866
0.0214032
0.0217051
0.0217448
0.0214194
0.0212339
0.0213534
0.0211428
0.0206347
0.0197566
0.0184654
0.0169943
0.0157794
0.0154151
0.0160549
0.0166937
0.0160946
0.0138699
0.0150043
0.0161329
0.0172916
0.0189984
0.0210744
0.022052
0.0225295
0.0226661
0.0225384
0.0221724
0.0215197
0.0214607
0.0220851
0.0224442
0.0225508
0.0224535
0.0220389
0.0212326
0.0187128
0.0159155
0.0146423
0.0139027
0.0129662
0.0162486
0.0169433
0.0161338
0.0155981
0.0164546
0.0174866
0.0186281
0.0195111
0.020156
0.0206661
0.0209515
0.0209893
0.0207119
0.0205867
0.0203585
0.0200116
0.0196793
0.0193537
0.018589
0.0177581
0.0167768
0.0178368
0.0183986
0.0176461
0.0144668
0.0150331
0.0159113
0.0164666
0.0191789
0.0216413
0.0222712
0.0224346
0.0225209
0.0223811
0.0219844
0.0213693
0.0212428
0.0218815
0.02237
0.0226822
0.0229983
0.0232631
0.0234603
0.0215792
0.0182139
0.0173909
0.0155969
0.0147533
0.018207
0.0188861
0.0184126
0.0178581
0.0195535
0.0202574
0.0204929
0.0204666
0.0203789
0.020283
0.0203055
0.0204278
0.0201259
0.0199945
0.0200963
0.0203197
0.0202912
0.020085
0.0195229
0.0187504
0.0176327
0.0194836
0.0211524
0.0208772
0.0169929
0.017532
0.0184253
0.0180581
0.0208414
0.0226884
0.023155
0.0230653
0.0227286
0.0222422
0.0216942
0.0210526
0.0207707
0.021339
0.0219095
0.0219432
0.0220416
0.0219955
0.0214375
0.0212745
0.0207027
0.0204335
0.0196721
0.0190906
0.018344
0.0205074
0.0237235
0.0259385
0.0275279
0.0294247
0.0279672
0.0244274
0.0221507
0.0152609
0.0152694
0.0154923
0.0148658
0.0144902
0.0143053
0.0187264
0.0214595
0.0241257
0.0258248
0.0233902
0.0233505
0.0232608
0.0231437
0.023027
0.0229136
0.0226934
0.0233118
0.0405285
0.28242
0.208411
0.234453
0.223527
0.314524
0.0782246
0.0385405
0.0427009
0.0493797
0.0565787
0.0548652
0.0513018
0.0448354
0.040636
0.0402553
0.0398106
0.0396282
0.0384206
0.0384516
0.0377098
0.0454822
0.0964438
0.124454
0.137992
0.146427
0.155331
0.150743
0.159685
0.151507
0.151967
0.153538
0.158291
0.150909
0.143592
0.139807
0.135513
0.118162
0.118501
0.0999987
0.103802
0.0865998
0.0911052
0.0949948
0.0943293
0.0931152
0.0928952
0.0931781
0.0940105
0.0977141
0.0929827
0.0985512
0.0908057
0.0724038
0.0699532
0.0717642
0.0660602
0.0578068
0.0653144
0.0801491
0.0957402
0.112625
0.0965877
0.120748
0.114695
0.11583
0.109947
0.103432
0.0995945
0.0988151
0.0994161
0.100549
0.10321
0.105172
0.106806
0.109777
0.118402
0.120814
0.11946
0.101892
0.0864899
0.0949511
0.0997908
0.103426
0.103662
0.0988419
0.0967493
0.0906172
0.089057
0.0835318
0.0809042
0.0754558
0.0721136
0.0673074
0.0838865
0.082024
0.0890387
0.0953558
0.0996011
0.103296
0.10491
0.106233
0.10507
0.102709
0.0976773
0.0955291
0.0906864
0.109268
0.127769
0.13047
0.125753
0.112181
0.106478
0.339898
0.412309
0.413764
0.614208
0.656111
0.848518
0.336565
0.179878
0.192366
0.189029
0.180801
0.177592
0.177386
0.189152
0.198221
0.189099
0.200513
0.177505
0.175759
0.166442
0.191996
0.189421
0.170337
0.148998
0.116064
0.0948999
0.0937168
0.0785902
0.0796751
0.070423
0.0717497
0.0737585
0.0916946
0.171854
0.210171
0.236907
0.26338
0.323913
0.293489
0.44311
0.354563
0.439877
0.303685
0.328638
0.3143
0.305462
0.303447
0.31948
0.342287
0.300911
0.374275
0.299783
0.649018
0.785684
0.49665
0.459298
0.4071
0.39283
0.382852
0.377247
0.369201
0.487165
0.451462
0.555095
0.514973
0.646689
0.563819
0.567873
0.534603
0.570853
0.589275
0.602931
0.479585
0.519799
0.404577
0.437964
0.368997
0.405438
0.291128
0.291839
0.335045
0.372106
0.398218
0.455512
0.715733
0.607405
0.819106
0.586221
0.708305
0.491988
0.539599
0.515287
0.497672
0.499434
0.527644
0.631783
0.610771
0.698019
0.514721
0.526978
0.516719
0.534047
0.523494
0.558423
0.563119
0.564311
0.562307
0.523426
0.534043
0.532204
0.531976
0.531993
0.532341
0.509586
0.512769
0.505229
0.511011
0.526914
0.514605
0.514519
0.512374
0.504798
0.502742
0.502257
0.504017
0.503785
0.508919
0.508789
0.509131
0.512194
0.526915
0.514426
1.82654
0.902884
0.430731
0.340605
0.220442
0.135302
0.0560001
0.0605101
0.0635024
0.0644886
0.0624813
0.0570974
0.0488801
0.0388028
0.0309684
0.0301453
0.0268804
0.0266618
0.0344991
0.0421707
0.0385738
0.0463704
0.0540608
0.0623849
0.0704054
0.0774072
0.0833256
0.0862496
0.0832069
0.0704639
0.0527685
0.0353111
0.0250044
0.0225931
0.0209467
0.0189539
0.0168474
0.0151858
0.0141894
0.0130289
0.0124052
0.0123234
0.0125519
0.0127957
0.0132406
0.0147545
0.0160542
0.0172394
0.0182035
0.0184483
0.0179242
0.0184665
0.0190609
0.0194564
0.0198017
0.0196184
0.0196099
0.019859
0.0198201
0.0200295
0.0199337
0.0199518
0.0198149
0.0196588
0.0194347
0.0190074
0.0187277
0.0181621
0.017809
0.016954
0.0169893
0.0173846
0.0177089
0.0167023
0.0166396
0.0158942
0.0271715
0.0483515
0.0611979
0.0661998
0.0714774
0.0674401
0.0571741
0.0392774
0.0192449
0.0187815
0.019265
0.021785
0.021297
0.0173657
0.0181571
0.0188257
0.0176426
0.0176144
0.017648
0.0197395
0.020354
0.0217041
0.022201
0.0225515
0.0227667
0.0226777
0.0227602
0.0224424
0.0224304
0.0220241
0.0220002
0.021679
0.0214467
0.0217463
0.0224691
0.0225647
0.0232528
0.0229703
0.0227024
0.0221447
0.0217585
0.0209032
0.0199901
0.0189508
0.0173745
0.0169066
0.0174132
0.0178768
0.0174036
0.0187824
0.0199878
0.0196722
0.0243827
0.0226512
0.0202079
0.0226698
0.0184198
0.0185894
0.0181446
0.0170895
0.0176415
0.0171788
0.0171219
0.0174461
0.0177568
0.0189386
0.0199263
0.0205587
0.0214265
0.0220582
0.0227676
0.0239694
0.0242485
0.0232114
0.0230037
0.0217845
0.0210911
0.0207622
0.021703
0.023026
0.0229631
0.0239049
0.0236785
0.0224283
0.0216187
0.0207711
0.0197855
0.0191243
0.0183216
0.0175578
0.0171264
0.0162832
0.0163527
0.0152484
0.0168099
0.0173366
0.0195664
0.0174198
0.0169346
0.0225407
0.0285288
0.0444439
0.032475
0.0214622
0.0232949
0.0316684
0.0395625
0.0280402
0.027567
0.0154363
0.0182185
0.0152619
0.0155788
0.0166513
0.0169443
0.018165
0.0192375
0.0194807
0.0202317
0.0205817
0.0213461
0.0216059
0.0223422
0.0225385
0.0238244
0.0238904
0.0239324
0.0239061
0.0230603
0.0229836
0.022966
0.0234423
0.0232334
0.023977
0.024011
0.024119
0.0240561
0.0226996
0.0223718
0.021597
0.0210763
0.0201705
0.0196122
0.0188929
0.018506
0.0178454
0.0181626
0.0188862
0.0190737
0.0200394
0.0200585
0.0208005
0.0210119
0.0214827
0.0216194
0.0222878
0.0224297
0.0227004
0.0227581
0.0239843
0.0241003
0.0241322
0.0240981
0.0241
0.0243163
0.0243095
0.0242544
0.0242296
0.0240983
0.0239235
0.0237349
0.024815
0.0255139
0.0250882
0.0248499
0.0251101
0.0259652
0.026519
0.0276122
0.0284673
0.029538
0.0304245
0.0312407
0.0319047
0.0323732
0.0324803
0.0325075
0.032045
0.0316664
0.0333475
0.0398514
0.0430813
0.0483656
0.0507477
0.052705
0.0533928
0.0522776
0.0530182
0.0517761
0.05205
0.0508969
0.0504916
0.0497078
0.0487297
0.0480354
0.0465882
0.0458707
0.0505007
0.0571832
0.0572807
0.0500729
0.0470667
0.0429241
0.0375745
0.0392915
0.0459267
0.0413475
0.0387257
0.0359769
0.0310114
0.0238797
0.0179172
0.025695
0.0334599
0.0407048
0.0474715
0.0534482
0.0573285
0.0594638
0.0610101
0.0627027
0.0606637
0.0531989
0.0415401
0.0316503
0.0277451
0.026187
0.0237584
0.0203363
0.0184622
0.0173953
0.0162493
0.0149114
0.014064
0.0138264
0.0140833
0.0142024
0.0155502
0.0168142
0.0168055
0.0179876
0.017787
0.0182995
0.0188944
0.0193013
0.0199549
0.0199276
0.0189665
0.0193187
0.0195818
0.0202617
0.0201649
0.0203414
0.0201312
0.0194219
0.0189109
0.0183156
0.0177974
0.0173331
0.0167531
0.0160229
0.0160129
0.016198
0.0157497
0.0161719
0.0166224
0.0170372
0.0176669
0.0185749
0.0193308
0.0211552
0.0212855
0.0210285
0.0211116
0.0196792
0.0196115
0.0186373
0.0183985
0.0199924
0.0198292
0.0181581
0.0195489
0.019561
0.0213472
0.0213583
0.0206868
0.0208878
0.020785
0.0189648
0.0180758
0.0170051
0.0162217
0.0156236
0.0152129
0.0147337
0.0153555
0.014121
0.0135645
0.0140389
0.0140168
0.014088
0.0144832
0.0149171
0.0156638
0.0163725
0.0174223
0.0180638
0.0189627
0.0192956
0.0211984
0.0211036
0.020963
0.0209939
0.0211296
0.0215757
0.0207927
0.0207545
0.0208974
0.0209131
0.0209481
0.0209336
0.019101
0.0188979
0.0180633
0.0177441
0.0168101
0.0164485
0.0157887
0.0154697
0.0150733
0.0148723
0.0232672
0.0254662
0.025621
0.0397847
0.0199824
0.019954
0.034353
0.0173326
0.0230526
0.0236018
0.024682
0.0259193
0.0225405
0.0307392
0.0212052
0.0233404
0.0240744
0.0252262
0.0129201
0.0202691
0.0379104
0.0427745
0.0440775
0.0489964
0.0556129
0.0587855
0.0618098
0.0638159
0.0660741
0.0685098
0.0709032
0.0726315
0.0727711
0.0690654
0.0659907
0.0564641
0.0526326
0.0563712
0.060792
0.0472743
0.0424752
0.0430133
0.0434685
0.0439926
0.0441912
0.0448668
0.0446649
0.045647
0.0449112
0.0460021
0.0448529
0.0458658
0.0446487
0.0419369
0.0387212
0.0325465
0.0305802
0.0294744
0.0267644
0.0242586
0.0220216
0.0202011
0.0197702
0.0182125
0.0168209
0.0165231
0.0152327
0.0155081
0.0167436
0.019895
0.016818
0.0176388
0.0260121
0.0191176
0.0180113
0.0185544
0.0190728
0.0193146
0.0182042
0.0198278
0.0220977
0.0221072
0.0221778
0.0221926
0.0213908
0.0212268
0.0209659
0.0210266
0.0210588
0.0211865
0.0211563
0.0193364
0.01928
0.0190071
0.018869
0.0180788
0.0179104
0.0173241
0.0169918
0.0161484
0.015853
0.0154047
0.0154731
0.0168237
0.0208987
0.0306031
0.0175466
0.0183009
0.0158053
0.0139847
0.0266776
0.0247363
0.028631
0.0267776
0.0393937
0.0264191
0.0231703
0.0241679
0.0296969
0.0296571
0.0326455
0.042396
0.0330334
0.0283306
0.0744562
0.0548487
0.0336513
0.0469638
0.05891
0.109878
0.127928
0.0561698
0.0566559
0.0623123
0.0632424
0.0631489
0.0536712
0.049418
0.0417544
0.0323377
0.0128498
0.0249352
0.0322608
0.0432741
0.0578593
0.092142
0.0529597
0.0597738
0.0657241
0.0647998
0.067886
0.066072
0.0647064
0.0656539
0.10263
0.11152
0.108329
0.0873091
0.081923
0.074424
0.124249
0.139039
0.120036
0.130127
0.136219
0.0828688
0.030529
0.0249251
0.0238137
0.0263933
0.0253333
0.0459592
0.020599
0.0218214
0.0226583
0.0271414
0.0301826
0.0528334
0.0232738
0.0254644
0.0323973
0.0348616
0.0458592
0.0274564
0.0280824
0.0343828
0.036156
0.0394885
0.033643
0.0317539
0.028705
0.025908
0.0244144
0.025461
0.0318408
0.0462679
0.0278793
0.0283076
0.0300658
0.134022
0.0307335
0.0266398
0.0277218
0.0267218
0.0336525
0.0350677
0.111733
0.0355831
0.0167211
0.015453
0.0159178
0.0167281
0.0173676
0.0179892
0.0184353
0.0190782
0.0194708
0.0196253
0.0197956
0.0221656
0.0220607
0.0215932
0.0210498
0.0218358
0.0211413
0.0211857
0.0217989
0.0212635
0.0214116
0.0224565
0.0236245
0.023128
0.0236849
0.0250402
0.0238873
0.0221973
0.0219914
0.0221112
0.0228193
0.0239574
0.0227715
0.0234268
0.0226129
0.0235293
0.023652
0.020363
0.019992
0.0197875
0.0192851
0.0186092
0.0179848
0.0173157
0.0166787
0.0162062
0.0161824
0.0167636
0.0152123
0.0156724
0.0182148
0.0402702
0.0332822
0.027162
0.0226086
0.0197583
0.0184941
0.0183185
0.018741
0.0193901
0.0199505
0.0201596
0.0207486
0.0246201
0.0245397
0.0257398
0.024611
0.0259426
0.0248834
0.0235615
0.022692
0.0238959
0.0232038
0.0236933
0.0252994
0.0261321
0.0237649
0.0240269
0.0214419
0.0200368
0.0184337
0.0187721
0.0202084
0.0208759
0.0233014
0.0233885
0.0268146
0.0268061
0.0266741
0.0254487
0.0247775
0.0262217
0.0247398
0.0258874
0.0247815
0.0261822
0.0273694
0.0277127
0.0270095
0.0261873
0.0253152
0.0210459
0.0202534
0.0199491
0.0194631
0.0192259
0.0202172
0.0246403
0.0340956
0.0464294
0.0586446
0.0679757
0.0673042
0.0605236
0.0412993
0.0421042
0.0391971
0.0425263
0.0608388
0.0876924
0.0616899
0.115137
0.0891841
0.0528986
0.0630999
0.0751296
0.0843164
0.0903159
0.0915131
0.0781395
0.0576479
0.0505995
0.0529996
0.0850812
0.083766
0.082515
0.0780098
0.0825169
0.0803742
0.0776796
0.076093
0.0742901
0.0700024
0.0699847
0.0672505
0.0672088
0.0601003
0.0612775
0.0614949
0.0589199
0.0561779
0.0538953
0.0517086
0.0493891
0.045509
0.0442369
0.0417753
0.0400458
0.0367007
0.036164
0.035681
0.0335141
0.0319695
0.0307223
0.0294677
0.0277758
0.0279423
0.0263747
0.0262223
0.0213797
0.0209979
0.0199774
0.0196491
0.0194154
0.0196503
0.0209647
0.0237477
0.0440713
0.0332892
0.033046
0.0335611
0.0337273
0.0396521
0.04643
0.0706001
0.0652742
0.0717778
0.0613769
0.0638033
0.0629989
0.0626172
0.0653395
0.0689183
0.0742614
0.0867533
0.333496
0.513796
0.253177
0.237156
0.24679
0.251684
0.259065
0.3391
0.360136
0.355979
0.360625
0.33058
0.318463
0.19666
0.226047
0.238132
0.237037
0.223954
0.202813
0.394478
0.522646
0.518784
0.523655
0.523768
0.518766
0.522598
0.502913
0.514275
0.501758
0.515027
0.502298
0.521663
0.518922
0.504364
0.501138
0.501157
0.500917
0.50138
0.501557
0.504895
0.506056
0.506108
0.505103
0.504124
0.514518
0.438792
0.123703
0.0862236
0.143544
0.199501
0.163527
0.235739
0.270777
0.195242
0.111208
0.0910145
0.102677
0.126499
0.127953
0.155069
0.202676
0.189616
0.15483
0.155743
0.156677
0.202021
0.193391
0.219582
0.262118
0.255085
0.190353
0.151735
0.151419
0.229643
0.244042
0.239214
0.124847
0.0450771
0.0220227
0.0229957
0.0328343
0.0166365
0.016873
0.022528
0.059354
0.0983191
0.0511123
0.137812
0.139167
0.182625
0.147867
0.178691
0.115954
0.119087
0.0677819
0.0797966
0.0897241
0.0954576
0.0998078
0.0940725
0.217526
0.321659
0.191664
0.562563
0.538647
0.196704
0.217518
0.576197
0.513007
0.503529
0.501786
0.501698
0.501859
0.501816
0.50097
0.500916
0.500728
0.500765
0.500717
0.501164
0.504768
0.520386
0.514602
0.505241
0.501386
0.500825
0.5008
0.500691
0.500731
0.500751
0.500808
0.501018
0.50105
0.501152
0.501671
0.503943
0.512024
0.435391
0.169986
0.182375
0.406075
0.361834
0.511501
0.504623
0.50137
0.500943
0.500856
0.50083
0.500795
0.50097
0.50089
0.501398
0.501232
0.501287
0.502777
0.508258
0.506395
0.442919
0.369162
0.416797
0.329769
0.50667
0.507777
0.503278
0.502901
0.503248
0.503415
0.501515
0.501528
0.500993
0.501061
0.500894
0.501341
0.504756
0.51101
0.345991
0.170894
0.177829
0.258121
0.0879385
0.0908962
0.0928445
0.0949473
0.247573
0.442686
0.556747
0.472101
0.475941
0.543088
0.38619
0.364965
0.294579
0.318023
0.402493
0.347622
0.313095
0.250631
0.288946
0.247946
0.303719
0.218084
0.234338
0.221896
0.283278
0.287145
0.287489
0.226888
0.216725
0.271831
0.286028
0.316983
0.218939
0.259129
0.203467
0.192531
0.0872191
0.0894194
0.0813185
0.0713787
0.0711047
0.0792323
0.0776568
0.0838316
0.0808058
0.0844828
0.0815796
0.0795848
0.0728116
0.0748591
0.0686541
0.0713195
0.130416
0.166635
0.150509
0.151932
0.179704
0.131218
0.157566
0.153725
0.197811
0.248225
0.227828
0.293909
0.22596
0.276032
0.406125
0.754693
0.441901
0.245506
0.318527
0.340091
0.288866
0.189732
0.449708
0.53853
0.298133
0.360224
1.19573
1.04336
1.78095
0.992951
1.12011
0.67186
0.598105
1.02934
0.654626
0.66726
0.560586
0.574175
0.500359
0.325005
0.324644
0.306415
0.242439
0.281461
0.272123
0.267094
0.296808
0.262047
0.317281
0.353019
0.397776
0.323047
0.286027
0.36776
0.215997
0.291749
0.347274
0.316482
0.260457
0.339097
0.451377
0.423636
0.364734
0.400293
0.510907
0.564811
0.535192
0.454303
0.516545
1.00944
0.966543
0.932541
0.592044
1.93406
1.72161
0.356381
0.139926
0.0976873
0.0369403
0.0225471
0.0182792
0.0178869
0.0489975
0.0195492
0.0235629
0.021249
0.0303935
0.0274882
0.0317938
0.0561037
0.0378819
0.0534371
0.0395617
0.0529452
0.0421488
0.0579972
0.0622687
0.0656524
0.0530911
0.0418593
0.063238
0.0843737
0.0395119
0.101562
0.107345
0.0694612
0.084383
0.104203
0.0539573
0.166992
0.057834
0.0576858
0.0689043
0.129227
0.255384
0.0870971
0.113726
0.590349
1.53347
0.514428
0.203989
0.166571
0.0414521
0.0359379