/*--------------------------------*- C++ -*----------------------------------*\
| =========                 |                                                 |
| \\      /  F ield         | OpenFOAM: The Open Source CFD Toolbox           |
|  \\    /   O peration     | Version:  v2012                                 |
|   \\  /    A nd           | Website:  www.openfoam.com                      |
|    \\/     M anipulation  |                                                 |
\*---------------------------------------------------------------------------*/
FoamFile
{
    version     2.0;
    format      ascii;
    class       volScalarField;
    location    "1120";
    object      nut;
}
// * * * * * * * * * * * * * * * * * * * * * * * * * * * * * * * * * * * * * //

dimensions      [0 2 -1 0 0 0 0];


internalField   nonuniform List<scalar> 
18258
(
0.00418947
0.00182201
0.00149183
0.0012921
0.000857139
0.00140191
0.00194735
0.00231834
0.00243255
0.00241225
0.00249798
0.00421583
0.00591688
0.00731269
0.00768121
0.00766743
0.00695944
0.00664615
0.00721298
0.00887079
0.0074619
0.00477969
0.00572813
0.00661676
0.00719201
0.00636657
0.0051479
0.00476857
0.00431738
0.00359794
0.00301516
0.00205341
0.00151683
0.00140717
0.00127451
0.00145224
0.00158105
0.00168491
0.00172303
0.00175022
0.00173825
0.0017284
0.00168179
0.00165366
0.00160547
0.00132959
0.00161609
0.0016424
0.0017976
0.00248847
0.00267548
0.00225088
0.00249074
0.00222249
0.00146551
0.00167705
0.00182042
0.00185967
0.00183588
0.00175981
0.00173425
0.00171262
0.00168518
0.00165257
0.00163275
0.00164927
0.00166653
0.0016486
0.0015678
0.00150236
0.00139638
0.00129009
0.0012113
0.00115026
0.00110421
0.001053
0.000995453
0.000874397
0.000810406
0.00107299
0.00134702
0.00143922
0.00203985
0.00248692
0.00250359
0.00187457
0.00133622
0.00138685
0.00154148
0.00155658
0.00131888
0.00156698
0.00177436
0.00183892
0.0019162
0.002142
0.00244023
0.00237958
0.00211934
0.00195326
0.00190776
0.00218884
0.00208266
0.00270115
0.00271933
0.00236912
0.00219305
0.00246736
0.00318257
0.00342148
0.00265637
0.0024955
0.0024467
0.00241502
0.00218507
0.00226243
0.00205538
0.00185214
0.00201797
0.00243733
0.00231163
0.00252425
0.00261595
0.00245443
0.00284405
0.00327963
0.00323302
0.00258727
0.00211084
0.00196772
0.00198255
0.00121256
0.00130934
0.00141005
0.00144461
0.00146899
0.00148961
0.00158795
0.00158436
0.00156105
0.00155761
0.0015849
0.000873464
0.000946325
0.000969875
0.000976678
0.000927914
0.000918313
0.000901091
0.000887132
0.000836961
0.000800934
0.000958248
0.00107591
0.0011718
0.00128396
0.00145107
0.00165547
0.00187025
0.00208723
0.00223066
0.00227142
0.00231255
0.00222871
0.0021442
0.0022205
0.0022333
0.00221884
0.00218901
0.00215134
0.00210045
0.00200713
0.00211448
0.00210827
0.00198053
0.00169809
0.00173573
0.00173258
0.00177767
0.00176884
0.00178697
0.00176206
0.00173279
0.00164978
0.00153378
0.0012767
0.00124251
0.0012583
0.00161624
0.00196244
0.00303174
0.00369902
0.00429602
0.00459817
0.00492181
0.00398049
0.00442972
0.00341311
0.0030643
0.00389507
0.00509638
0.00290738
0.00158663
0.00300924
0.00266838
0.00193455
0.00172177
0.00177393
0.00177851
0.00204535
0.00235739
0.0026148
0.00273939
0.0028497
0.00293758
0.00303485
0.00315807
0.00319238
0.00308441
0.00261176
0.00314584
0.00255503
0.00298471
0.00269553
0.00181721
0.00193385
0.00204803
0.00187295
0.00182112
0.00174467
0.00156909
0.001928
0.0024993
0.00290131
0.00331679
0.00442201
0.00409095
0.00392332
0.00303836
0.00293802
0.00152557
0.00217652
0.00225433
0.00253336
0.00168492
0.00153619
0.00145725
0.00193467
0.00224142
0.00264465
0.00293194
0.00348217
0.00269961
0.00308389
0.00279017
0.00194292
0.00187153
0.00268171
0.00288878
0.00237519
0.00212605
0.00266722
0.00252375
0.00178989
0.00143601
0.00220513
0.00228409
0.00163646
0.00406415
0.00432186
0.00412301
0.00502555
0.0063012
0.00718432
0.0066881
0.00593492
0.00662683
0.00526434
0.00509788
0.00543607
0.00456587
0.00320207
0.00328236
0.00339435
0.00348624
0.00374286
0.00397588
0.00426029
0.00453141
0.00411984
0.0034226
0.00259116
0.00178217
0.00175717
0.001748
0.00156969
0.00232647
0.00352143
0.00349853
0.00198931
0.00115938
0.00131043
0.00147929
0.00146462
0.00106345
0.000800159
0.00137832
0.001576
0.00160149
0.00156176
0.00147457
0.00154096
0.00247476
0.00381266
0.00418932
0.00433912
0.00448096
0.00458129
0.00463732
0.00465536
0.00466558
0.00467796
0.0046888
0.00470508
0.00469056
0.00459063
0.0040377
0.00253834
0.00148375
0.00137837
0.00152128
0.00163496
0.0017342
0.00147569
0.000902285
0.00144113
0.00184541
0.00212095
0.00213901
0.00199619
0.00193639
0.0030534
0.00405974
0.00478505
0.00493177
0.00499693
0.0049418
0.00493433
0.00482622
0.00479207
0.00420145
0.00300683
0.003287
0.00352897
0.00356928
0.00365162
0.00377546
0.00368779
0.00348396
0.00509295
0.00587676
0.00595214
0.00607945
0.00600825
0.00590504
0.00563712
0.00533082
0.00448798
0.00336569
0.00212363
0.00216807
0.00230821
0.00228625
0.00199049
0.00209696
0.00227556
0.00229832
0.00237353
0.00266154
0.00302288
0.00288374
0.00248182
0.00210751
0.00196235
0.00192101
0.00184306
0.00138021
0.00140091
0.00136189
0.00138441
0.00186005
0.00221399
0.00255308
0.00362089
0.00323009
0.00262705
0.00416406
0.00426644
0.00458309
0.00506305
0.0051887
0.00574834
0.0040025
0.00360769
0.00370597
0.00302748
0.00280244
0.00283241
0.00284312
0.00265015
0.0029005
0.00287479
0.00277079
0.00305907
0.00337049
0.00444428
0.00538493
0.00568151
0.00585275
0.00592241
0.0058994
0.00578374
0.00581968
0.00511104
0.00510506
0.00488922
0.00474912
0.00469988
0.00446754
0.00511467
0.00530891
0.00537329
0.00550687
0.00571562
0.0055613
0.00538869
0.00525766
0.00516304
0.00506419
0.00511843
0.00521282
0.00531369
0.00545582
0.00564615
0.00567856
0.00548117
0.00533231
0.00523077
0.00513558
0.00513981
0.00522472
0.00532399
0.00546517
0.00564583
0.00554612
0.00540566
0.00528082
0.0051786
0.00508881
0.00491107
0.00502926
0.00515944
0.00526682
0.00533664
0.00461121
0.00492878
0.00484398
0.00438569
0.00410501
0.00311748
0.00337382
0.0035576
0.00387491
0.00430125
0.00438492
0.00367982
0.00315354
0.0030731
0.00304833
0.00312038
0.00314618
0.00316133
0.00357201
0.00537965
0.00541644
0.00543155
0.00543341
0.00464691
0.00451578
0.00420752
0.00768772
0.00715739
0.00620146
0.00511286
0.00274183
0.00235042
0.0027842
0.00338566
0.00378524
0.00417743
0.00277334
0.00171774
0.00200179
0.0020756
0.00202498
0.001872
0.00155998
0.00144001
0.00130693
0.00140635
0.00249023
0.00397437
0.00447725
0.00452527
0.00448085
0.00439421
0.00428902
0.00414259
0.00408224
0.00513456
0.00693252
0.00785159
0.00782364
0.00672174
0.00547228
0.00307849
0.00157478
0.00114232
0.00126106
0.0013837
0.00162873
0.00145596
0.0012042
0.00131912
0.00125682
0.00255045
0.00441298
0.0056398
0.00669238
0.00657713
0.00570827
0.00468183
0.00444446
0.00454873
0.00461751
0.00467687
0.00473785
0.00477955
0.00475251
0.00432517
0.00267162
0.00159506
0.00141732
0.00152401
0.00178611
0.00189769
0.0019169
0.00189019
0.0016387
0.00271034
0.00430406
0.0027372
0.00149335
0.00161347
0.00160172
0.00282516
0.00282091
0.00276033
0.00429504
0.00454155
0.00453008
0.00425627
0.00406316
0.00240543
0.00272981
0.00273893
0.00275347
0.00279861
0.00141377
0.001541
0.00158892
0.00171041
0.00149566
0.00190042
0.000491751
0.000681583
0.000791692
0.000860892
0.000927517
0.000909873
0.00174073
0.00176605
0.0016853
0.00164087
0.00208281
0.00223523
0.00228463
0.00210442
0.00194188
0.00206696
0.00207145
0.00195205
0.00184914
0.00191735
0.00191876
0.00183883
0.00156404
0.00146555
0.00160889
0.00159156
0.00157879
0.00283498
0.0028301
0.00267849
0.00440117
0.00433029
0.00485044
0.00481913
0.00481364
0.00479411
0.00484585
0.00487263
0.00489279
0.00491652
0.00490709
0.00485958
0.00675852
0.00478052
0.00417152
0.00241233
0.00232368
0.00164112
0.00143831
0.00169367
0.00181144
0.00196384
0.00191941
0.00202344
0.00202104
0.00214452
0.00199042
0.00176735
0.00270694
0.00289182
0.00282449
0.00288038
0.00281269
0.00279617
0.0027756
0.00273611
0.00268854
0.00160087
0.00157034
0.0018389
0.00193031
0.00207413
0.00209291
0.00213833
0.00202792
0.00178348
0.00172641
0.00198828
0.00196147
0.00199965
0.00188531
0.00187749
0.00167259
0.00171494
0.00345778
0.00638057
0.00328515
0.00364883
0.00330606
0.00375984
0.00329347
0.00284061
0.00290725
0.0025609
0.00267136
0.00280196
0.0028526
0.002998
0.00353389
0.0034025
0.00298672
0.00290011
0.00284303
0.00268074
0.00241291
0.00252758
0.00255033
0.00260502
0.00289524
0.00332049
0.00372181
0.0045211
0.00438718
0.00384426
0.00351449
0.00368482
0.00374949
0.00471875
0.00440791
0.0043824
0.00462342
0.00457817
0.00434487
0.00411719
0.00397414
0.00341262
0.00346879
0.00396955
0.00384105
0.00395817
0.00388868
0.00404249
0.00411504
0.00394969
0.00367118
0.0038593
0.00385166
0.00427703
0.00415989
0.003859
0.00353065
0.00377386
0.00372828
0.0043062
0.0040538
0.00379173
0.0034905
0.00334367
0.00379438
0.00372514
0.00422347
0.0043458
0.00434769
0.00379073
0.00370294
0.00440282
0.00423582
0.00409162
0.00426151
0.00352962
0.00363051
0.0044716
0.00456516
0.00433095
0.00361624
0.00367183
0.00314862
0.00370209
0.00460716
0.00435074
0.00356625
0.00295982
0.00414068
0.00435709
0.00460851
0.00435588
0.00474396
0.00511078
0.00416674
0.00453315
0.00592187
0.00452425
0.00524969
0.00536561
0.00539677
0.00539904
0.00541929
0.00544555
0.00573589
0.00557744
0.00354847
0.00424307
0.00412301
0.00344938
0.00293443
0.00323143
0.00347992
0.00352987
0.00361922
0.00375689
0.00369216
0.00356865
0.00522465
0.00596426
0.00609271
0.00621424
0.00611354
0.00596472
0.00561871
0.00519497
0.00431448
0.00321781
0.00200851
0.00204716
0.00218129
0.00215998
0.00187336
0.00141336
0.000928938
0.0013791
0.00142671
0.00134442
0.00122626
0.00108365
0.00112296
0.00204466
0.00395689
0.00544053
0.00600198
0.00645845
0.00694605
0.00742325
0.00778911
0.0080538
0.00823055
0.00833645
0.00835538
0.00818705
0.00742988
0.00709808
0.00668832
0.0063535
0.00589375
0.00554106
0.00626215
0.00687987
0.00726193
0.00769117
0.00789004
0.00780676
0.00678306
0.00657448
0.00756122
0.00931607
0.00791584
0.00994709
0.0117034
0.00910991
0.008194
0.00819258
0.00915783
0.00933595
0.00900242
0.00848208
0.00788496
0.00713182
0.00750292
0.0078414
0.00816915
0.00847034
0.00931062
0.00946219
0.00939513
0.00925471
0.0090627
0.00878011
0.00833443
0.00772382
0.00704736
0.00638612
0.00561661
0.00400887
0.00190313
0.0021423
0.00210704
0.00224982
0.00219962
0.00102102
0.00112727
0.00114214
0.0011503
0.00108648
0.00123651
0.00178892
0.00291246
0.00209424
0.00172333
0.00118767
0.00139472
0.00233011
0.00395963
0.00447494
0.00456226
0.00461905
0.00584884
0.00682399
0.00727043
0.00760654
0.00785865
0.00775821
0.00749958
0.00704247
0.00647079
0.00625724
0.00590894
0.00560341
0.00543898
0.0052702
0.00494539
0.00387939
0.0037274
0.00388499
0.00383761
0.00367362
0.00392593
0.00406836
0.0040654
0.00411101
0.00415093
0.00427398
0.00441876
0.00454486
0.00461126
0.00463622
0.00464441
0.00465441
0.00466238
0.00467699
0.00466143
0.00455957
0.00400376
0.00250337
0.00146108
0.00135046
0.00148067
0.00156572
0.00160203
0.0014226
0.00091574
0.00142293
0.00184195
0.00188927
0.00207341
0.0021395
0.0022692
0.0025275
0.00292042
0.00301337
0.00267388
0.00253227
0.00247813
0.00241539
0.0020642
0.0025734
0.00283986
0.00283457
0.002808
0.00303523
0.0037352
0.00358791
0.00316366
0.00312812
0.00309638
0.00279938
0.00275732
0.00301294
0.00304631
0.00316032
0.00370603
0.0044446
0.00412301
0.00375507
0.00359978
0.0033241
0.00292631
0.00264511
0.00325435
0.00267184
0.00140614
0.00119313
0.0011891
0.00119347
0.00115152
0.0013657
0.00143738
0.00145715
0.00135618
0.00150507
0.00167552
0.00162285
0.00183321
0.00180887
0.00161921
0.0016037
0.00173591
0.00183308
0.00188171
0.00193076
0.00316451
0.00326751
0.00253038
0.00366471
0.00422134
0.00419022
0.00444572
0.00365665
0.00327864
0.00389211
0.00449881
0.00516237
0.00407815
0.00385721
0.00394715
0.00181072
0.000952815
0.00134423
0.00166929
0.00186138
0.00180666
0.00170736
0.00144429
0.00256494
0.00263396
0.00418377
0.00469372
0.00475531
0.00472549
0.00472873
0.00513805
0.00589697
0.00677022
0.00705301
0.00695648
0.0066433
0.0060575
0.00547227
0.00544324
0.00526023
0.00512597
0.00508812
0.0044199
0.00390231
0.00418144
0.00411279
0.00425224
0.00431765
0.00436527
0.00441381
0.00449448
0.00459181
0.00468067
0.00474144
0.00478204
0.0048161
0.00485072
0.00488534
0.00492269
0.0049429
0.00489615
0.00442503
0.00265313
0.00158123
0.00144198
0.00153859
0.00180844
0.00190425
0.00204661
0.00181692
0.000956664
0.00112539
0.00195531
0.00216898
0.00200703
0.0018783
0.00184473
0.00154528
0.00280102
0.00276513
0.0043431
0.00488509
0.00495369
0.00494002
0.00490179
0.00485821
0.00481493
0.00477921
0.00475038
0.00471994
0.00467748
0.00462627
0.0045789
0.00453054
0.00444837
0.00433213
0.00419682
0.00436311
0.00451856
0.00471461
0.00492144
0.00502075
0.00492877
0.00479591
0.00474254
0.00477635
0.00481959
0.00486354
0.004903
0.0049231
0.00486776
0.00458685
0.00430206
0.00272336
0.00275915
0.00135632
0.00150643
0.00173827
0.00179534
0.00194948
0.0019396
0.00152401
0.00118808
0.00134086
0.00125363
0.00224042
0.00246416
0.00273351
0.00270675
0.001469
0.00150698
0.00156609
0.00176602
0.00164175
0.00158718
0.00392945
0.00376285
0.00393672
0.00482905
0.00416035
0.00287127
0.00314439
0.00437568
0.00461567
0.00278921
0.00209256
0.00231971
0.00293837
0.00432661
0.00438109
0.00416319
0.00413937
0.00302014
0.0037134
0.00447121
0.00434961
0.003388
0.00233416
0.00173918
0.000844523
0.00160629
0.00137309
0.00336884
0.00372894
0.00368625
0.00403098
0.00428277
0.00432642
0.00420397
0.00372718
0.00380192
0.00383974
0.00437605
0.00439579
0.00371971
0.00313782
0.00254721
0.00257042
0.00262054
0.00290396
0.00363586
0.00342574
0.00300259
0.00291136
0.00284829
0.00267879
0.00241715
0.00212003
0.00213481
0.00198701
0.00192294
0.00303134
0.00403516
0.00475831
0.00489495
0.00494434
0.00486834
0.00483382
0.00469556
0.00462411
0.00401729
0.00513086
0.00542292
0.00523274
0.00527129
0.00530413
0.00534463
0.0053456
0.00524529
0.00450723
0.00269154
0.00175801
0.00198442
0.00214189
0.00201114
0.00199987
0.00213169
0.00202281
0.00177677
0.00287866
0.00281374
0.00449927
0.00509553
0.00520449
0.00521071
0.00518991
0.0051728
0.00517971
0.00545212
0.0053273
0.00539656
0.00567929
0.00568939
0.00576024
0.00540935
0.00534147
0.00529827
0.00526943
0.00522195
0.00509413
0.00450827
0.00437086
0.00496331
0.00511576
0.00518301
0.00522931
0.00528461
0.00535737
0.00556877
0.00572511
0.00578455
0.00555581
0.00547227
0.00534602
0.00516536
0.00512221
0.00511323
0.00510868
0.00508373
0.0049519
0.00435884
0.00280254
0.00287164
0.00170831
0.00171937
0.00198038
0.00207996
0.00204274
0.00189167
0.00184431
0.0031807
0.00362025
0.00384966
0.00414873
0.00396307
0.0039406
0.00450344
0.00435808
0.00388283
0.00404139
0.00362573
0.00345312
0.00334303
0.00336297
0.00176336
0.00190281
0.00198484
0.00195197
0.00186652
0.00166484
0.00152671
0.00278631
0.002766
0.00273038
0.00162331
0.00158771
0.00187053
0.00181652
0.00166171
0.00141646
0.00155288
0.00239852
0.00268252
0.00416007
0.00430888
0.00461144
0.00493149
0.00505302
0.00508652
0.00510724
0.00513032
0.00517919
0.00523635
0.00525172
0.00524786
0.00528525
0.00527609
0.00527778
0.00525067
0.00521948
0.00518297
0.0051438
0.0050788
0.00494403
0.00462023
0.00430241
0.00485077
0.0048953
0.00498612
0.00507983
0.00511929
0.00512493
0.00510573
0.0050681
0.00502363
0.00497257
0.00497196
0.00512123
0.00515716
0.00518322
0.00516782
0.00514942
0.00514265
0.00511889
0.00508128
0.00498691
0.0048925
0.00485272
0.0047719
0.00489921
0.0049555
0.00496376
0.00501188
0.00508924
0.00511232
0.00511267
0.00507548
0.00504368
0.00500204
0.00493388
0.00484415
0.00454557
0.00460534
0.0046845
0.0047882
0.00488835
0.00496951
0.00501559
0.00501978
0.00497457
0.00494426
0.00494582
0.00490419
0.00492582
0.00494782
0.00492205
0.0049182
0.00492073
0.00486323
0.00475971
0.00461619
0.00446476
0.00434011
0.0042776
0.00417521
0.00451303
0.00464511
0.00476279
0.00486662
0.00495947
0.00505161
0.00507847
0.00506663
0.00500951
0.00497702
0.00497572
0.00492802
0.00492547
0.0049715
0.00497328
0.00500022
0.00504877
0.00503669
0.0049706
0.00479658
0.00462649
0.00447779
0.0043347
0.00418227
0.00414587
0.004214
0.00415499
0.00421064
0.00435635
0.00454065
0.00470082
0.00480437
0.00483814
0.00486955
0.00491488
0.00491072
0.00488369
0.0048682
0.00480704
0.00475348
0.00468811
0.00454733
0.00436922
0.00421341
0.00416574
0.00425158
0.00433499
0.00425619
0.0039511
0.00410981
0.00426191
0.00441198
0.00462324
0.00486544
0.0049692
0.00500598
0.00498134
0.00496216
0.00495969
0.00491611
0.00490042
0.00494058
0.00494394
0.00496347
0.00499478
0.00496607
0.004882
0.00458598
0.00423015
0.00405839
0.0039557
0.00382103
0.00427747
0.00436697
0.00426011
0.00418781
0.00430039
0.00443053
0.00456588
0.00465659
0.00469371
0.00474596
0.00481441
0.00484788
0.00479947
0.00474257
0.00467289
0.00463685
0.00463612
0.00461431
0.00452788
0.00442478
0.00430393
0.00444845
0.00453223
0.00445062
0.0040297
0.00409665
0.00420138
0.00426382
0.00459833
0.00488533
0.00494953
0.00494927
0.00491723
0.00489649
0.00489675
0.00487135
0.00482328
0.00481468
0.00481104
0.00486907
0.00494559
0.00499253
0.00501745
0.0048039
0.00440399
0.00433186
0.00414516
0.00406017
0.00451055
0.00456151
0.00445752
0.00436099
0.00457293
0.00466256
0.00468633
0.00466621
0.00461663
0.00458466
0.00464428
0.00473823
0.00466735
0.00436351
0.00409394
0.00423249
0.00426732
0.00425788
0.00420082
0.00410378
0.00389217
0.00434644
0.00478825
0.00482353
0.00435161
0.00435898
0.00422608
0.00393887
0.00432736
0.00452896
0.00457123
0.00454919
0.00447559
0.0043035
0.00454502
0.00475812
0.00471705
0.00426997
0.00277137
0.00280936
0.00282926
0.00283156
0.00279466
0.00278436
0.00274397
0.00272307
0.00266019
0.00259604
0.0025351
0.00270402
0.00284956
0.00304469
0.00306118
0.00314199
0.0030072
0.00284666
0.00265837
0.00206964
0.0026262
0.00313301
0.00332943
0.00358112
0.00363266
0.00418968
0.00440797
0.00452492
0.00443639
0.00355877
0.00301848
0.00241186
0.00156846
0.000977218
0.00114688
0.00119267
0.00125172
0.00152927
0.00282121
0.00143734
0.00199086
0.00155679
0.00267524
0.00141776
0.000887769
0.000587593
0.000746493
0.000884134
0.00089174
0.000856441
0.000714846
0.000563634
0.000576216
0.000538763
0.000572674
0.000516914
0.000592376
0.000553826
0.000773716
0.00116341
0.00131934
0.00134839
0.00108975
0.00122875
0.0010266
0.00118391
0.00105716
0.00115211
0.0011052
0.00135158
0.00148127
0.00141832
0.00142244
0.00124479
0.00087067
0.00100922
0.000792826
0.000951895
0.000728217
0.000940404
0.000806286
0.00104764
0.00107993
0.00107679
0.00103678
0.000792079
0.000939165
0.000739263
0.000904898
0.000740311
0.000786702
0.000654584
0.000947717
0.000964981
0.000889569
0.000945277
0.0010607
0.00113782
0.00125562
0.00119212
0.00136134
0.00131846
0.00134184
0.00127076
0.0012355
0.00120726
0.00120969
0.00118981
0.00119637
0.00123498
0.00123694
0.00124191
0.0012814
0.00126278
0.00123257
0.00121443
0.00107886
0.00087043
0.00151607
0.00156345
0.00158632
0.00158576
0.00154954
0.00153239
0.00147965
0.00146561
0.00141963
0.00139253
0.00133095
0.00128023
0.00122254
0.0013743
0.000769008
0.000873124
0.000921792
0.000949115
0.000968263
0.000977062
0.000984273
0.000978855
0.000966806
0.000942875
0.000934633
0.000908576
0.00116261
0.00132241
0.00138217
0.00139801
0.0013103
0.00124754
0.0027272
0.00330041
0.00501951
0.0051313
0.00385201
0.00384097
0.00132966
0.00140188
0.000958327
0.00134669
0.00138844
0.00137421
0.00129818
0.000936369
0.0014055
0.000978979
0.0013199
0.000988029
0.00122403
0.00100341
0.00142291
0.00181246
0.00174792
0.00158232
0.00107553
0.000894232
0.000891422
0.000763915
0.000838418
0.000694767
0.000855493
0.000725
0.00108058
0.00154032
0.00170345
0.00173759
0.00137002
0.00189005
0.00142105
0.00205685
0.00163254
0.00201251
0.00161504
0.00186936
0.002313
0.00232328
0.00226814
0.00182804
0.00146538
0.00164482
0.00145717
0.00167821
0.00242426
0.0015886
0.00240869
0.000995278
0.00135646
0.00139785
0.00137841
0.00129946
0.000875361
0.00222997
0.00117892
0.00210149
0.00135985
0.00218543
0.00158109
0.00208837
0.00249756
0.00260813
0.00259546
0.00211872
0.00190507
0.00196175
0.00156565
0.00187893
0.00140653
0.00204484
0.00116658
0.00151846
0.00168202
0.00177099
0.00177863
0.00146256
0.0028873
0.00181258
0.00273566
0.00190182
0.00243617
0.00195283
0.00213661
0.00252312
0.00250753
0.00248664
0.00210869
0.00170585
0.00225155
0.00160647
0.0477501
0.110402
0.04392
0.11159
0.050557
0.0717549
0.0707022
0.0708393
0.0710865
0.0533669
0.116385
0.137535
0.143463
0.145235
0.144166
0.232976
0.189965
0.285428
0.18502
0.108814
0.0471382
0.0650273
0.167945
0.277417
0.416276
0.528205
0.359945
0.372552
0.237735
0.234359
0.220584
0.178375
0.109242
0.0547693
0.0094097
0.0102974
0.0147279
0.0195984
0.0154448
0.00947569
0.00187546
0.00193601
0.00198053
0.00200898
0.00200369
0.00196312
0.00199632
0.00188722
0.00177681
0.00198947
0.00216907
0.00230888
0.00272519
0.00301246
0.00271613
0.00297636
0.00315356
0.00329815
0.00341809
0.00359675
0.00379777
0.00397386
0.00398328
0.00365015
0.00311135
0.00253025
0.00212552
0.00201331
0.00189049
0.0016671
0.00152498
0.00142755
0.00138083
0.00136166
0.00139957
0.00152987
0.00164311
0.00168286
0.00165004
0.00161974
0.00159335
0.00141883
0.00165904
0.00227573
0.00229287
0.00392839
0.00452655
0.00462084
0.00462753
0.0041012
0.00261964
0.00262544
0.00263893
0.00268938
0.00270009
0.00270759
0.00270498
0.00269627
0.00268069
0.00265191
0.00263722
0.00259429
0.00255802
0.00246687
0.00247087
0.00250192
0.00252672
0.00248484
0.00249446
0.00244279
0.00319318
0.00426249
0.00479863
0.00501383
0.00519925
0.00504597
0.00699635
0.00599023
0.00420472
0.00413337
0.00408245
0.00484234
0.00487494
0.00440199
0.00442048
0.00403551
0.00252054
0.00251616
0.00251792
0.00269506
0.00274867
0.00284068
0.00286641
0.00288765
0.00290105
0.00289342
0.0028911
0.00286376
0.00284409
0.00277878
0.00275716
0.00274781
0.0015149
0.00165357
0.00171594
0.00172788
0.001754
0.00174382
0.00173428
0.00171358
0.00170068
0.00167222
0.00163984
0.00159053
0.00149469
0.00136114
0.00149754
0.00253958
0.0025383
0.00413448
0.00466429
0.00469853
0.00523101
0.00496563
0.00470295
0.00504483
0.00454733
0.00451063
0.00408495
0.00253756
0.0025722
0.00152761
0.00151495
0.00177218
0.00172393
0.00184274
0.00189367
0.00189901
0.00192512
0.00194945
0.00198028
0.00203039
0.0020446
0.00201123
0.00200451
0.00188745
0.00163069
0.00164982
0.00194545
0.00204138
0.0018962
0.00186434
0.00185056
0.00180521
0.00177095
0.00173838
0.00176114
0.00189644
0.00189365
0.00185937
0.00176885
0.00172168
0.00149149
0.00144006
0.00251679
0.0025576
0.00423038
0.00431864
0.00428646
0.00494527
0.00552645
0.00628429
0.00536584
0.00436245
0.00455018
0.00520839
0.00388115
0.00325384
0.00193603
0.00144858
0.00181712
0.00166496
0.00173669
0.00179943
0.00159818
0.00171802
0.0015886
0.00144372
0.00143559
0.00143397
0.00146919
0.00148413
0.001511
0.00151469
0.00155155
0.00154799
0.00155194
0.00157077
0.00157811
0.00174355
0.00189401
0.00159459
0.00135208
0.00131808
0.00124476
0.00118542
0.00121442
0.00118506
0.00117775
0.00115609
0.00113641
0.00108444
0.00112999
0.00119909
0.0014028
0.00134237
0.00108496
0.000969386
0.000662477
0.000675962
0.000680633
0.000701506
0.000709228
0.000718687
0.000722239
0.000734008
0.000736321
0.000740069
0.000739794
0.000757904
0.000755322
0.000746578
0.00074098
0.000744495
0.000747825
0.00074725
0.00109429
0.00121838
0.00133031
0.00157982
0.00185855
0.00160019
0.00135663
0.00116969
0.000751881
0.000763113
0.000777039
0.000784224
0.000800933
0.000816121
0.000833063
0.000843715
0.000851702
0.00086003
0.000868838
0.000872302
0.000870132
0.000853274
0.000843371
0.000864725
0.000950468
0.0010003
0.00106431
0.00108848
0.00110894
0.00111898
0.00111402
0.00112584
0.00111292
0.00111121
0.0010926
0.00108474
0.00107735
0.00106787
0.00105601
0.00102632
0.00101652
0.00106942
0.0018116
0.00236968
0.00272748
0.00300295
0.00278111
0.00226131
0.00237055
0.00416929
0.00395008
0.00232706
0.00217441
0.00200899
0.00175858
0.00153048
0.00184871
0.00210948
0.00230654
0.00247915
0.00263722
0.00274481
0.0028835
0.00306453
0.00338374
0.00342374
0.0031228
0.00252974
0.00214005
0.00199758
0.00192961
0.00181193
0.00168331
0.00172569
0.00173823
0.00168665
0.00162262
0.00160471
0.00163152
0.00166608
0.0016463
0.00164566
0.00147026
0.00146966
0.00251136
0.00255749
0.00393422
0.00414562
0.0041862
0.00269098
0.0026543
0.00155041
0.00143998
0.0015709
0.00163082
0.00163431
0.00164115
0.00163297
0.00160467
0.00158387
0.00155962
0.00153979
0.0015221
0.00149169
0.0014337
0.00132424
0.00144268
0.00161769
0.00168983
0.00170889
0.00171818
0.00174547
0.00178999
0.00182557
0.00190803
0.00191623
0.00191532
0.00192197
0.00179632
0.00185239
0.00156773
0.00156532
0.00271303
0.00270536
0.00155421
0.00183519
0.00184792
0.00182694
0.00196703
0.00180007
0.0017431
0.00173406
0.0016608
0.00162173
0.0015695
0.00153817
0.00156785
0.00166736
0.00161391
0.00143026
0.00137734
0.00154577
0.00148796
0.00123457
0.0010549
0.00102605
0.000982302
0.000955779
0.00100192
0.00103794
0.0010585
0.00108455
0.00109227
0.00113994
0.00110906
0.00116365
0.00123401
0.00129004
0.00153013
0.0016583
0.00149812
0.00146943
0.00145122
0.00144987
0.00145448
0.00139467
0.0013907
0.00135971
0.00134439
0.00130377
0.00128538
0.00126198
0.00126598
0.00127912
0.00140608
0.0036204
0.00461702
0.00480816
0.00821769
0.00331735
0.00338841
0.00664787
0.00274851
0.00413261
0.00442818
0.00462854
0.00483365
0.00442357
0.00562575
0.00392509
0.00437352
0.00455384
0.00397645
0.00149927
0.00172442
0.00197984
0.00176
0.00155409
0.00105859
0.00114041
0.00117722
0.00120727
0.00122655
0.00124829
0.00127149
0.00129331
0.00130856
0.00130865
0.00126865
0.0012256
0.00112674
0.0010938
0.00113615
0.00117992
0.00103588
0.000975177
0.000986643
0.0010028
0.00101186
0.00101374
0.0010236
0.00102623
0.00104184
0.00103342
0.00104127
0.00102342
0.00103243
0.00101907
0.000984417
0.000935613
0.000852736
0.0008325
0.00119909
0.00127684
0.00134118
0.00152215
0.00175769
0.00187571
0.00168141
0.00155102
0.00148887
0.00165155
0.00165312
0.00300611
0.00576929
0.00258297
0.00289206
0.00842899
0.00335262
0.00260536
0.00264447
0.00267221
0.00267617
0.00155508
0.00184168
0.0017857
0.0017934
0.00152128
0.00127735
0.0011457
0.00102437
0.000694749
0.000692481
0.000697705
0.000708429
0.000711761
0.000681347
0.000681266
0.000677374
0.000675846
0.000661477
0.000657457
0.000645756
0.000638641
0.00062181
0.000612684
0.000596718
0.000594099
0.000622509
0.000694483
0.000839998
0.000931785
0.00106094
0.00107932
0.0012092
0.0029877
0.00346563
0.00477689
0.00474168
0.00748021
0.00467296
0.00352929
0.00318586
0.0046626
0.00481771
0.00446338
0.00604589
0.00418311
0.00277423
0.00422863
0.00352861
0.00411123
0.0040547
0.00430977
0.00684751
0.00720421
0.00202472
0.0018044
0.00189735
0.00215285
0.00255647
0.00235762
0.00268408
0.00268859
0.00208113
0.0013127
0.00417936
0.00503987
0.00407174
0.00490993
0.00753905
0.00302524
0.00294979
0.00260976
0.00217836
0.00197971
0.00195376
0.00217869
0.00260697
0.00652212
0.0069791
0.00647504
0.00646693
0.00586157
0.0064033
0.00798217
0.00793844
0.00702305
0.00657203
0.00682168
0.00426182
0.00261683
0.0030448
0.00337796
0.00450807
0.00464814
0.00982581
0.00333302
0.00368144
0.00373845
0.00499855
0.00484005
0.00855587
0.00362805
0.00391185
0.00515326
0.00689075
0.0127069
0.00463872
0.00488354
0.00702314
0.00712969
0.00651572
0.00470798
0.00426244
0.00464408
0.00349882
0.00342074
0.00291765
0.0043062
0.00579889
0.00458883
0.00445542
0.00378844
0.00337989
0.00345437
0.00358648
0.00297932
0.00293692
0.00338781
0.00252108
0.00244341
0.00257438
0.000716467
0.000367082
0.000375185
0.000384921
0.000392855
0.000401037
0.000407016
0.000414109
0.000417303
0.000417654
0.000418727
0.000442759
0.00043864
0.000424772
0.000385714
0.000440109
0.000698399
0.000698829
0.000439569
0.000387511
0.000695317
0.00110785
0.00130606
0.0015449
0.00156389
0.00134952
0.00117011
0.000720304
0.000708983
0.000429744
0.000501903
0.000545052
0.000483463
0.000539579
0.000500127
0.000529709
0.000535251
0.000495321
0.000492548
0.000494444
0.000490666
0.000481922
0.000471258
0.000458298
0.000448218
0.000442969
0.000439196
0.000430464
0.000356463
0.000332778
0.000401846
0.000642726
0.000643007
0.000601883
0.000565981
0.000535037
0.000520517
0.000516107
0.000512995
0.000521898
0.000538764
0.000543533
0.000548333
0.000590736
0.00057221
0.000611165
0.000573618
0.000612818
0.000575162
0.000529103
0.000444261
0.000458346
0.000739413
0.000747278
0.00120727
0.00138093
0.00156571
0.0015736
0.00175644
0.00184985
0.00156675
0.00162654
0.00186378
0.00173574
0.00154719
0.00155339
0.00139736
0.00139889
0.00123937
0.000774622
0.000764118
0.000479892
0.000466072
0.000555751
0.000546047
0.000607288
0.00064996
0.000650155
0.000648051
0.000631894
0.000626045
0.00055061
0.000539783
0.000540515
0.000524233
0.000521032
0.000544197
0.00059559
0.000700492
0.000847671
0.000922238
0.00095299
0.000913208
0.000817074
0.000604829
0.0005452
0.000946401
0.000980328
0.00176808
0.00419579
0.00197122
0.00371295
0.002679
0.000664565
0.000740662
0.00094445
0.00105826
0.00114296
0.00119249
0.00109128
0.000911481
0.00068635
0.00056652
0.000843624
0.000729381
0.00082278
0.000718469
0.000929832
0.00107498
0.0010398
0.00104748
0.000885106
0.000720873
0.000763451
0.000685245
0.000755299
0.000632344
0.000760806
0.000686797
0.000863015
0.000871086
0.000852929
0.000808433
0.000615527
0.000645816
0.000541749
0.000587715
0.000527704
0.000545412
0.000516824
0.000602654
0.000694456
0.000666504
0.000663906
0.000545506
0.00042748
0.000472175
0.000408375
0.000462238
0.000359317
0.000435272
0.00036499
0.00047256
0.000487353
0.000490436
0.000488114
0.000397866
0.000467835
0.000571807
0.000599544
0.000604076
0.000575237
0.000443388
0.000686162
0.000619221
0.000755866
0.000653666
0.000715493
0.000651513
0.000759316
0.000972462
0.00101533
0.00102209
0.000829276
0.000824203
0.00150412
0.0834389
0.00135296
0.00159917
0.00164906
0.00164312
0.0013584
0.00132528
0.0016415
0.00121423
0.00171965
0.00108281
0.00183425
0.000699354