/*--------------------------------*- C++ -*----------------------------------*\
| =========                 |                                                 |
| \\      /  F ield         | OpenFOAM: The Open Source CFD Toolbox           |
|  \\    /   O peration     | Version:  v2012                                 |
|   \\  /    A nd           | Website:  www.openfoam.com                      |
|    \\/     M anipulation  |                                                 |
\*---------------------------------------------------------------------------*/
FoamFile
{
    version     2.0;
    format      ascii;
    class       volScalarField;
    location    "220";
    object      alphat;
}
// * * * * * * * * * * * * * * * * * * * * * * * * * * * * * * * * * * * * * //

dimensions      [1 -1 -1 0 0 0 0];


internalField   nonuniform List<scalar> 
22960
(
0.00449276
0.00248002
0.00210688
0.00184188
0.00108742
0.00158792
0.00180689
0.00214898
0.0020627
0.00180529
0.00164753
0.0026986
0.00385134
0.00463475
0.00475442
0.0047505
0.00462255
0.00496782
0.00590124
0.00645093
0.00585438
0.00369286
0.005044
0.00617465
0.0050176
0.00382571
0.00336843
0.00455122
0.00516524
0.00520693
0.00530182
0.00531195
0.00536489
0.00539027
0.00547735
0.00553377
0.00571984
0.0058352
0.00597733
0.00667361
0.00695963
0.00704946
0.00721071
0.00727851
0.00738983
0.00747211
0.00756027
0.00762583
0.00764648
0.00805685
0.00842429
0.00822648
0.00810214
0.00797814
0.00774854
0.00680407
0.00439294
0.00265869
0.00247842
0.00264888
0.00276586
0.00282182
0.00242507
0.00129303
0.00169245
0.00197198
0.00242415
0.00238814
0.00215411
0.00203424
0.00332516
0.00445705
0.00515104
0.00526236
0.0053152
0.00526096
0.00526589
0.00516436
0.00513622
0.00454077
0.00338196
0.00387627
0.00452553
0.00453448
0.00381761
0.00286704
0.00478241
0.00540768
0.0053227
0.00574858
0.00634163
0.00678597
0.00686998
0.00669691
0.00557366
0.00410806
0.00251188
0.00251681
0.00263896
0.00255387
0.00217065
0.00171361
0.00107173
0.00178894
0.00202935
0.00184092
0.00168417
0.00149063
0.00163595
0.00293214
0.00533381
0.00612534
0.00611833
0.00602308
0.00596696
0.00595422
0.00594555
0.00617975
0.00636951
0.00652546
0.00683457
0.00712652
0.00718345
0.00628649
0.0038028
0.00216866
0.0019452
0.0020705
0.00213145
0.00243219
0.00243877
0.00211145
0.00202091
0.0021722
0.00348693
0.00614461
0.00687656
0.00678687
0.00650803
0.00618011
0.00597169
0.00572491
0.00543711
0.00538797
0.00543241
0.00554986
0.00569276
0.00573169
0.00509282
0.00289939
0.00177621
0.00159888
0.0016906
0.00203601
0.00210053
0.00225157
0.0018467
0.00110688
0.00184852
0.0023013
0.0024446
0.00249524
0.00263209
0.00293775
0.00330468
0.00321023
0.0028627
0.00258851
0.00241937
0.00231793
0.00212042
0.00191321
0.00148892
0.000921929
0.00155279
0.00168264
0.00158718
0.00147085
0.00133768
0.00144487
0.00253573
0.00407821
0.0046013
0.00462781
0.004504
0.0042577
0.00395485
0.00369757
0.00416018
0.00453142
0.0048153
0.00502456
0.00511663
0.00506124
0.00447344
0.00264811
0.00149162
0.00134422
0.00151373
0.00160761
0.00162468
0.00135388
0.000820173
0.00130767
0.00175657
0.00197469
0.00202532
0.00196293
0.00196806
0.00195657
0.00189765
0.00167832
0.00125163
0.000852916
0.000917276
0.00105208
0.00114024
0.0012174
0.00132992
0.00148053
0.00163705
0.00177458
0.00187339
0.00192619
0.00193842
0.00190915
0.00182536
0.00159015
0.00150985
0.00244179
0.00320775
0.00339389
0.00333414
0.0030561
0.00259168
0.00185566
0.00119426
0.00117902
0.00121056
0.000987775
0.000697636
0.000484696
0.000408677
0.000225517
0.000234394
0.000285385
0.000303998
0.000324801
0.000253403
0.000224623
0.000429815
0.00056735
0.000669864
0.000745671
0.000807106
0.000856531
0.000859035
0.000847065
0.000795134
0.000542241
0.000360241
0.000480667
0.000590264
0.00054796
0.000505443
0.000405299
0.000374941
0.000630045
0.000716551
0.000804512
0.00073824
0.000664321
0.000681424
0.000698433
0.0007112
0.000723152
0.000720969
0.000725014
0.000713265
0.00071188
0.000687471
0.000678478
0.00062916
0.000606566
0.000545876
0.000517124
0.000518571
0.000668899
0.000904487
0.00154082
0.00240511
0.0029014
0.00319887
0.00341977
0.0034701
0.00473746
0.00464611
0.0041257
0.003335
0.00271774
0.00162287
0.00100519
0.000917684
0.00093199
0.000848076
0.000822343
0.000693197
0.00077531
0.000879658
0.00108953
0.00110855
0.000868549
0.000938342
0.00097134
0.00102203
0.001035
0.0010637
0.00106281
0.00108231
0.00107266
0.00108549
0.00106776
0.00107468
0.00107247
0.00109256
0.00113527
0.0012036
0.000959072
0.00129023
0.00153186
0.00143529
0.0014274
0.00195038
0.00253714
0.00267468
0.00445283
0.00511903
0.00461958
0.00248593
0.00238225
0.00169532
0.00110793
0.00114999
0.00127752
0.00129231
0.00121268
0.00118326
0.00121544
0.00130165
0.0013167
0.00130746
0.00129565
0.00127846
0.00125345
0.00121593
0.00109255
0.00103913
0.00137201
0.00177188
0.00192892
0.00310013
0.00430137
0.00501299
0.00417489
0.00508115
0.00570171
0.00600508
0.00605261
0.00611058
0.00607318
0.00679893
0.00679944
0.00671617
0.00656126
0.0062554
0.0056897
0.00474366
0.00552487
0.00607334
0.0065374
0.0067924
0.00701851
0.0071326
0.00715583
0.00713968
0.00730111
0.00741283
0.00764774
0.00770401
0.00766513
0.00750612
0.0071803
0.00611104
0.0037216
0.00200037
0.00175294
0.00182959
0.00182989
0.00185168
0.001678
0.00105204
0.00164925
0.00225208
0.00243711
0.00236639
0.00213065
0.0020112
0.00323394
0.00436783
0.00511079
0.00525696
0.00536762
0.00528013
0.0051702
0.00447708
0.0033708
0.00208521
0.00193458
0.00150044
0.00114643
0.00119609
0.00130616
0.0011255
0.000864677
0.000670921
0.000760472
0.00071672
0.000699556
0.000697292
0.000692046
0.000687668
0.000690916
0.00068485
0.000689121
0.000678659
0.000681489
0.00065961
0.000654445
0.000607547
0.000588846
0.000530857
0.000494364
0.000480981
0.000605728
0.000828789
0.0014716
0.00237876
0.00280596
0.00313696
0.00340144
0.00346367
0.00398793
0.00375907
0.00309312
0.00330966
0.00274055
0.00294441
0.00327138
0.00423385
0.00443975
0.00509252
0.00486835
0.00443496
0.00413057
0.0032602
0.00332163
0.00296542
0.00150789
0.0024611
0.0021502
0.00136993
0.00136379
0.00103254
0.00122005
0.00158761
0.00142217
0.00135773
0.00264873
0.00226276
0.00240046
0.00252788
0.00267364
0.0040744
0.00293428
0.00297374
0.00468519
0.00404194
0.00339339
0.00349928
0.00409558
0.0039818
0.00372434
0.00341518
0.00378244
0.00372008
0.00373521
0.00369766
0.00368891
0.00367801
0.0036625
0.00384652
0.00398864
0.00423051
0.00434136
0.00437635
0.00430976
0.00403637
0.00375266
0.0013878
0.000521455
0.000596685
0.000713858
0.000847347
0.00100771
0.00113819
0.00127012
0.00147602
0.00147721
0.00137081
0.00125262
0.00110678
0.00091332
0.000563958
0.000339346
0.000305442
0.000526985
0.000866874
0.00121043
0.00134471
0.00191079
0.00180694
0.00271296
0.00455
0.00489461
0.00520671
0.005362
0.00539955
0.00530578
0.00457475
0.00296626
0.00296924
0.0030695
0.00300765
0.00298174
0.00299029
0.00292316
0.00286407
0.00248056
0.00226527
0.00157979
0.00135944
0.00161728
0.00173742
0.0018851
0.0018715
0.00209688
0.00198204
0.00203554
0.00195519
0.00175
0.00160275
0.00264359
0.00378774
0.00460724
0.00476792
0.00483698
0.00465376
0.00442047
0.00368218
0.00271486
0.00166333
0.00152217
0.00117155
0.000887369
0.000916633
0.000991116
0.000841946
0.000633571
0.000474564
0.000418654
0.000247416
0.000258328
0.000317532
0.000329814
0.000336826
0.000270391
0.000252839
0.000503334
0.000651692
0.000750866
0.000824836
0.000891736
0.000939275
0.000941312
0.00092857
0.000864253
0.000521565
0.000352145
0.000466174
0.000563941
0.000528274
0.000490955
0.000395117
0.000365971
0.0006052
0.000549614
0.000607964
0.000692641
0.000739766
0.000783218
0.000797174
0.000802355
0.000816312
0.000908281
0.0010588
0.00138054
0.00192387
0.00220547
0.00256516
0.00256428
0.00248916
0.00239492
0.00223679
0.0020395
0.00179166
0.00146818
0.000871612
0.000581124
0.000552943
0.00158103
0.00161305
0.00174412
0.00235146
0.00255418
0.00220437
0.00355325
0.00376287
0.00549372
0.00500019
0.00505904
0.00524857
0.00531744
0.00524352
0.00470091
0.00458996
0.00512086
0.00520499
0.00513713
0.00495343
0.00510264
0.00518483
0.00365244
0.00382689
0.00220679
0.00226252
0.00267374
0.0025429
0.00225257
0.0022849
0.00199768
0.00185338
0.00174315
0.00183675
0.00180318
0.00220905
0.00238426
0.00261123
0.00269005
0.00266589
0.00269753
0.00278167
0.0027823
0.00253869
0.0023266
0.00169856
0.00142792
0.00155083
0.00190157
0.00204753
0.00213855
0.00204519
0.00197326
0.00196117
0.00200654
0.0020799
0.00201171
0.00193624
0.00168466
0.00176179
0.00176503
0.0017344
0.00172688
0.00172731
0.00174644
0.00177085
0.00175704
0.00154015
0.00141354
0.00149289
0.00144624
0.00149799
0.00166034
0.0017571
0.00180563
0.00179319
0.00182476
0.00180801
0.00180608
0.00174059
0.00169389
0.00175538
0.00179433
0.00188914
0.00194466
0.00187045
0.00222972
0.00218862
0.00251227
0.00259624
0.00244824
0.00211144
0.00188857
0.00348034
0.00333209
0.00332359
0.00207825
0.00214522
0.00251344
0.00235083
0.00230338
0.0020363
0.00183746
0.0017971
0.00183159
0.00182125
0.00181768
0.00177955
0.00177323
0.00173689
0.00167782
0.00157454
0.00158971
0.00157268
0.00154762
0.00141427
0.00127227
0.00123876
0.00113592
0.00143794
0.00153586
0.00148105
0.00152212
0.00176077
0.00165463
0.00154685
0.00289627
0.00192691
0.00129337
0.0012952
0.00129549
0.00129598
0.00129254
0.0012841
0.00126446
0.0012276
0.0011684
0.00101854
0.00163365
0.00263323
0.00322677
0.00401527
0.00458018
0.004694
0.0054543
0.00543768
0.0054961
0.00554435
0.00557957
0.00557614
0.0054726
0.00471903
0.00366681
0.0032684
0.00297447
0.00319618
0.00345702
0.00362289
0.00222842
0.0024314
0.0024906
0.00260303
0.00296426
0.00353889
0.00371344
0.00339683
0.00319124
0.00302706
0.00286705
0.0025279
0.00297448
0.0032357
0.00330886
0.0033329
0.00359802
0.00437836
0.00454254
0.00438479
0.00393313
0.00390736
0.00381935
0.00387566
0.00387064
0.00385553
0.0040869
0.00522877
0.00548614
0.00519824
0.00519871
0.0054962
0.00521356
0.0047336
0.00479359
0.00259201
0.000691641
0.00286439
0.00353999
0.0049293
0.00442846
0.00355912
0.00309266
0.0041909
0.00401536
0.00500193
0.00511818
0.00454409
0.00506726
0.00502774
0.00529232
0.00549673
0.00483346
0.00443956
0.00462779
0.00484573
0.00492057
0.00469937
0.00493942
0.00486986
0.00511464
0.00515137
0.00440271
0.00532085
0.00404463
0.00347063
0.0056171
0.00638777
0.00718346
0.00800173
0.00860768
0.00918883
0.00981709
0.0104925
0.0107789
0.0109575
0.0103649
0.00959727
0.00895443
0.00842351
0.00798918
0.00765424
0.0073943
0.00711338
0.00700186
0.00674574
0.00627674
0.00672521
0.00706889
0.00733129
0.00756684
0.00776094
0.00790526
0.00807272
0.00866364
0.00869443
0.00870154
0.00854453
0.00830514
0.00801626
0.00759987
0.00652017
0.00386534
0.00228458
0.00207151
0.00213378
0.00237092
0.00232569
0.00234262
0.00197866
0.00112707
0.00143289
0.00216789
0.00254362
0.00251977
0.00253399
0.00262547
0.00233853
0.0040695
0.00418771
0.00660653
0.00777485
0.00827945
0.00869035
0.00912106
0.00951857
0.00974901
0.00988673
0.00888917
0.00848515
0.00821034
0.0079329
0.00766375
0.00740176
0.00711419
0.00732008
0.00757533
0.00784276
0.00819792
0.00865292
0.00925805
0.0100744
0.0113083
0.0108234
0.0101408
0.00949072
0.00891294
0.00840265
0.00786745
0.0070914
0.0063581
0.00408092
0.00416702
0.00224781
0.00240796
0.0026532
0.00265099
0.00264627
0.00259854
0.00221392
0.00168383
0.0019873
0.00186857
0.00327674
0.00364737
0.00398949
0.00408597
0.00239195
0.00239973
0.00246872
0.00260226
0.00251418
0.00249035
0.00355241
0.00354824
0.00359364
0.00369955
0.00379829
0.00279105
0.00308924
0.00395175
0.003878
0.00330792
0.00318679
0.00334763
0.00328263
0.00404342
0.00395267
0.00378245
0.0037868
0.00286128
0.00312409
0.0039016
0.00376744
0.00299432
0.00271495
0.00302258
0.00113447
0.00214405
0.00176976
0.0030015
0.00371479
0.00398876
0.00470245
0.00455812
0.00448354
0.00440212
0.00363872
0.00336178
0.00308621
0.00430755
0.0042526
0.00353222
0.0036089
0.00406825
0.0037747
0.00467125
0.00476205
0.00447842
0.00425722
0.00281195
0.00418641
0.00432098
0.00443426
0.00420872
0.00379316
0.00335663
0.00309688
0.00373981
0.0037321
0.00372305
0.00317275
0.00265584
0.00212653
0.00301497
0.00326022
0.00391665
0.00376867
0.00359965
0.00276624
0.0028566
0.00206093
0.00232385
0.00243712
0.00225417
0.00191385
0.00334701
0.00513359
0.00581704
0.00588804
0.00589091
0.00584802
0.00573581
0.00500804
0.00320556
0.00315966
0.00324283
0.00322295
0.00323239
0.00323436
0.00316494
0.00325566
0.00321139
0.00325219
0.00326195
0.00329185
0.00334246
0.00335909
0.00342745
0.00531743
0.00505893
0.00521352
0.00500981
0.00492929
0.00508969
0.00514462
0.00507209
0.00480435
0.00450733
0.00436027
0.00488422
0.00495477
0.00498258
0.00503912
0.00510154
0.00505882
0.00493649
0.00486883
0.0046424
0.00493488
0.00530333
0.00541751
0.00530714
0.0051124
0.00505221
0.0049905
0.00534735
0.00500941
0.00504982
0.00564
0.00574929
0.00578987
0.00577547
0.00567181
0.00510112
0.00323625
0.00181802
0.00214453
0.00232086
0.00232239
0.00216373
0.00204806
0.00216077
0.00219132
0.00207452
0.00177145
0.0032884
0.00326796
0.00506244
0.00563615
0.00574915
0.00576214
0.0057151
0.00560189
0.00564653
0.00574314
0.00580261
0.0058194
0.00576459
0.00555422
0.00541089
0.00328921
0.00333029
0.00163632
0.00173903
0.00200926
0.00210901
0.00213603
0.0020378
0.00180247
0.00190522
0.00185692
0.0018001
0.00333999
0.00339872
0.00307602
0.00314821
0.00199562
0.00300245
0.00394641
0.00406829
0.00420956
0.00325645
0.00377495
0.00282753
0.00288812
0.00374907
0.00372532
0.00356515
0.00369627
0.00386917
0.00400755
0.0037493
0.0037681
0.00535874
0.00402705
0.0040909
0.00380574
0.00414803
0.00416523
0.0041088
0.00386602
0.00600454
0.00481015
0.00442072
0.00426647
0.00479439
0.00477078
0.00460679
0.00314017
0.00339761
0.00350694
0.00358593
0.00406664
0.00401044
0.00478473
0.00487589
0.00454246
0.00417306
0.00405401
0.0035462
0.00343712
0.00472202
0.00536145
0.005375
0.00365642
0.00426004
0.00533813
0.00530188
0.00546135
0.00563374
0.00560733
0.00341819
0.0032831
0.00318475
0.00299225
0.00277956
0.00311688
0.00345288
0.00377535
0.0039161
0.00430408
0.00468004
0.00510939
0.00517802
0.00488152
0.00541532
0.00534373
0.00528679
0.00523066
0.00520889
0.00446147
0.00573586
0.00553899
0.00524882
0.00483401
0.00309696
0.00193131
0.00223795
0.00250213
0.00241541
0.0036037
0.00445694
0.00360553
0.00464224
0.00468702
0.00483834
0.00436074
0.00417689
0.00461677
0.00510539
0.00494938
0.00494774
0.00572945
0.00484149
0.00483987
0.00513414
0.00504303
0.00550101
0.00500581
0.00475773
0.00505751
0.00532949
0.00491747
0.00456468
0.00488938
0.00505262
0.00440399
0.00417318
0.0037019
0.00291869
0.00319707
0.00340703
0.00330132
0.00367591
0.00443678
0.00500724
0.00384292
0.00484553
0.00484743
0.00480111
0.00475558
0.00519418
0.00575473
0.00556257
0.00586084
0.00578081
0.005738
0.0054346
0.00529552
0.00494695
0.00524738
0.00537807
0.00535414
0.00516065
0.00488972
0.00523993
0.00482396
0.00419883
0.00435017
0.00495864
0.00516617
0.00465266
0.00474091
0.00523887
0.00568591
0.00550532
0.00503658
0.00461643
0.00504997
0.00518416
0.00464694
0.00443088
0.00392998
0.00410069
0.0047671
0.00501143
0.00440204
0.00438736
0.00431077
0.00425398
0.00494258
0.0052802
0.00518183
0.00537675
0.00553287
0.0056931
0.00560065
0.00555374
0.00549804
0.00566421
0.00554249
0.0056058
0.00550151
0.00518263
0.00536022
0.00514313
0.00540506
0.00453116
0.00530718
0.00548749
0.0048588
0.00552415
0.0056085
0.00545281
0.0057198
0.00419318
0.00418441
0.00387446
0.00413754
0.0049031
0.00599327
0.00536838
0.00535744
0.00465738
0.00477817
0.00539495
0.00537978
0.00525127
0.00498021
0.00626123
0.00672639
0.00568795
0.00670069
0.00622585
0.00596835
0.00588652
0.00589084
0.00585315
0.00577295
0.00568283
0.00559659
0.00552951
0.00547886
0.00540484
0.00492642
0.00519268
0.00540322
0.00513831
0.00477382
0.00480754
0.00489894
0.0049744
0.00498161
0.00492765
0.00487986
0.00488305
0.00487393
0.00474691
0.00454509
0.00425657
0.00433581
0.00433872
0.00435375
0.00434005
0.00435299
0.00446625
0.00485138
0.00514605
0.00522031
0.00520817
0.00505567
0.0049523
0.00508605
0.00531458
0.00556978
0.00569799
0.00578996
0.00588105
0.0059644
0.00613782
0.00650642
0.00704805
0.00725719
0.00643041
0.00566149
0.00549245
0.00530206
0.00518959
0.0050555
0.00478976
0.00432891
0.00459537
0.00454845
0.00528525
0.00551594
0.00559279
0.00553215
0.00505312
0.00350751
0.00363349
0.00361211
0.00326154
0.00277507
0.00317921
0.00324904
0.00362755
0.00366941
0.00337956
0.00323826
0.00309016
0.00348609
0.00374446
0.00370335
0.00367216
0.00353259
0.00337002
0.00324805
0.00309007
0.00300848
0.00291187
0.00287507
0.00282612
0.00280728
0.00276131
0.00437007
0.00497824
0.00487966
0.00460697
0.00418968
0.00441071
0.00459177
0.00416252
0.00264811
0.00274616
0.00268988
0.00276635
0.00271518
0.00271413
0.00272333
0.00272293
0.00272971
0.00272105
0.00273492
0.00272879
0.00279702
0.00274022
0.00287037
0.00318324
0.00160002
0.00172424
0.00174659
0.00173537
0.00169429
0.00167186
0.00166283
0.00165272
0.00165041
0.00165015
0.00166747
0.00166033
0.00161554
0.00148007
0.00157275
0.00264318
0.00260443
0.00408704
0.00257087
0.0015338
0.00156149
0.00180666
0.00180115
0.0018714
0.00183168
0.0016884
0.00164519
0.00165068
0.00166139
0.00167289
0.00173935
0.00195493
0.00202204
0.00200305
0.00175119
0.00178877
0.0020902
0.00201474
0.00173467
0.00142315
0.00126897
0.0012433
0.00124177
0.0012384
0.0012328
0.00122546
0.00121731
0.00120752
0.00119723
0.00121199
0.0013452
0.00161794
0.00184313
0.0016731
0.00176009
0.00168939
0.00147445
0.00246825
0.00387187
0.00242102
0.001426
0.00161805
0.00149229
0.00156538
0.00134232
0.00139297
0.00153941
0.00133148
0.0012318
0.00109605
0.00103972
0.00107223
0.00108435
0.00109677
0.0011074
0.00111493
0.00112021
0.00109955
0.00116805
0.00132291
0.0014472
0.00169756
0.00187262
0.00158507
0.00130735
0.00117891
0.00105488
0.000743263
0.00073212
0.000720767
0.000720075
0.000736592
0.000747461
0.00074936
0.000749216
0.000741395
0.000731113
0.00071532
0.000666332
0.000672908
0.000688799
0.000704793
0.00070531
0.00071319
0.000724693
0.000732436
0.000739531
0.000734294
0.00073125
0.000735547
0.000741979
0.000742129
0.000735569
0.000732911
0.000727997
0.000726073
0.000717868
0.0007105
0.000700665
0.000695177
0.000690015
0.000684244
0.000672619
0.000665256
0.000654719
0.000959264
0.00105961
0.00115395
0.00137068
0.00161131
0.00176066
0.00155851
0.00263591
0.00416927
0.00259111
0.00151726
0.00170281
0.00155143
0.00130123
0.00125945
0.00127668
0.00131935
0.0011133
0.00113241
0.00117832
0.00107547
0.000968369
0.000659167
0.000667392
0.000671333
0.000682168
0.000686098
0.00068949
0.000692961
0.000701105
0.000706242
0.000711732
0.00071014
0.000712214
0.000713136
0.000718685
0.000718354
0.000712485
0.000708265
0.000717272
0.000404154
0.000443211
0.000457654
0.000456125
0.000455443
0.000450217
0.000455592
0.000449354
0.000445992
0.000435618
0.000427378
0.000422373
0.000420959
0.000416905
0.000405397
0.000370829
0.000413214
0.000662367
0.000661558
0.00040983
0.000362386
0.000637653
0.000992716
0.000641427
0.00039142
0.00045432
0.000485517
0.00044347
0.000491403
0.000464736
0.000485323
0.000502398
0.000510257
0.000520392
0.000530232
0.00053528
0.000542206
0.000563819
0.000560546
0.000568047
0.000567406
0.00055902
0.000532114
0.000471279
0.00052289
0.0005812
0.000603149
0.000611274
0.000561932
0.000562281
0.000587643
0.000578713
0.000573022
0.000566399
0.000533817
0.00051287
0.000536512
0.00051176
0.000533538
0.000508718
0.000526993
0.000500094
0.000467118
0.000395077
0.000640644
0.000996253
0.000639956
0.000394608
0.000466876
0.00051114
0.000540304
0.000541867
0.000550067
0.000548278
0.000561614
0.000547661
0.000497526
0.000535162
0.000211858
0.000376765
0.000297684
0.000372225
0.000308409
0.000419025
0.000506791
0.000499438
0.000510909
0.000433853
0.000412812
0.000405886
0.000413938
0.000424067
0.00041204
0.000454409
0.000460498
0.000574551
0.000573586
0.000584558
0.000610342
0.000511844
0.00052666
0.000484243
0.000535501
0.000519589
0.000531607
0.000539148
0.000549512
0.000652751
0.000669528
0.000685564
0.000577468
0.000407272
0.000500857
0.000374795
0.000472849
0.000249144
0.000575141
0.000574408
0.000550311
0.000575834
0.000580933
0.000581801
0.000582547
0.000558228
0.000725473
0.000687694
0.000779178
0.00027876
0.000561801
0.00038401
0.000530793
0.000395428
0.000523333
0.000673246
0.000707374
0.000699293
0.000593577
0.000645264
0.00178519
0.128074
0.00136087
0.00166405
0.00169143
0.00165972
0.00127398
0.000941355
0.00127087
0.000803533
0.0013188
0.00057673
0.00192165
0.00169691
0.00188609
0.00199355
0.000886644
0.000943011
0.000977338
0.00102807
0.000893134
0.000869433
0.0010476
0.00107055
0.10593
0.129894
0.136877
0.13074
0.100047
0.128335
0.345199
0.545419
0.645306
0.187933
0.00141967
0.00151907
0.00100699
0.00085464
0.000382444
0.000847748
0.00162104
0.136643
0.292878
0.747563
1.38275
0.9936
0.646092
0.335138
0.124764
0.294296
0.119303
0.326499
0.133072
0.171049
0.447991
0.825724
0.638364
0.977032
0.610895
0.986471
1.27226
1.50439
1.75583
1.21257
0.477545
0.138177
0.00113769
0.000816899
0.000853214
0.00160101
0.00123412
0.000697769
0.000821194
0.00165449
0.143268
0.500347
1.31814
1.63794
1.73295
1.6417
1.47648
1.26042
1.39097
1.15793
1.20389
0.870047
0.470121
0.170707
0.177099
0.470493
0.866207
1.17922
1.40186
1.42153
1.55405
1.53866
1.69697
1.7675
1.78013
1.65746
1.07162
0.213598
0.00205979
0.00106934
0.00117093
0.00209775
0.209596
1.13534
1.73526
1.81497
1.77837
1.70921
1.70352
1.56705
1.44882
1.26782
1.03192
0.68156
0.369971
0.119705
0.00161671
0.00161338
0.00171009
0.00150433
0.117847
0.309756
0.589711
0.945699
1.18086
1.35681
1.5953
1.70148
1.78077
1.82009
1.81304
1.22499
0.20338
0.00208825
0.00116449
0.000872663
0.00170474
0.120586
0.460253
1.79697
1.7929
1.60038
1.5267
0.852248
0.771585
0.657002
0.485139
0.289435
0.112823
0.00192784
0.0012365
0.00160256
0.16429
0.178193
0.184423
0.185614
0.122235
0.463944
0.119732
0.451715
0.118204
0.00197352
0.00218208
0.00090077
0.000822595
0.000926012
0.00198729
0.00206187
0.000910345
0.000954235
0.00185241
0.00214409
0.000844996
0.00068908
0.0014042
0.00172656
0.000850073
0.000844635
0.00175618
0.00170521
0.000810633
0.000744752
0.00053962
0.000657196
0.000569923
0.00064257
0.000615926
0.000658209
0.00130526
0.00113328
0.00101361
0.00112392
0.00124657
0.00149314
0.00152289
0.00168361
0.00169007
0.00176832
0.0018351
0.0018511
0.00170392
0.00130909
0.00159065
0.00170027
0.00167259
0.00141451
0.00200067
0.00118747
0.00102064
0.00108614
0.00110425
0.000863529
0.00108896
0.00120058
0.00127452
0.00113035
0.000967544
0.00114693
0.00130756
0.00165864
0.00166421
0.00147248
0.00152002
0.00192517
0.00171904
0.00179475
0.00188294
0.00169168
0.00158114
0.00176835
0.00141701
0.00150472
0.00312717
0.0120986
0.0196129
0.0323809
0.0379605
0.0352363
0.0209567
0.0144003
0.00555047
0.00114919
0.0012131
0.000816057
0.00113689
0.0014279
0.001538
0.00140797
0.00104301
0.00129483
0.00155461
0.00105338
0.000902989
0.000942616
0.00106294
0.00097725
0.000766324
0.000700992
0.000963931
0.00100085
0.00106988
0.0009819
0.000779244
0.000869923
0.00104594
0.00112146
0.00100086
0.000952587
0.000792233
0.000553324
0.00103433
0.00116342
0.00128603
0.00124245
0.00125243
0.0014089
0.00150875
0.00153801
0.0010917
0.000905761
0.00124655
0.00149375
0.00166285
0.00161774
0.00711718
0.00271657
0.0014593
0.00105086
0.000962571
0.000945743
0.00104184
0.000765059
0.000900233
0.000999528
0.00104907
0.000991869
0.00096042
0.000845256
0.000961333
0.00102559
0.00100168
0.00093321
0.000782585
0.000879814
0.00089214
0.000977679
0.000932264
0.000816629
0.000853214
0.000922907
0.000980378
0.000944125
0.00107647
0.000828351
0.00107989
0.00107076
0.00103202
0.00117248
0.000999804
0.00121495
0.000906252
0.000845375
0.00126794
0.000879021
0.000813942
0.00140105
0.00090912
0.000847026
0.00163391
0.000967067
0.000851904
0.00204384
0.000781893
0.00121763
0.00115264
0.00117607
0.00101213
0.0010455
0.0011791
0.00118683
0.00162917
0.00123557
0.000921064
0.000469579
0.000409776
0.000455273
0.000538087
0.000591199
0.000616405
0.000641347
0.00065082
0.000603551
0.000624999
0.000654372
0.000678035
0.000655794
0.000622983
0.000566075
0.000469455
0.000474563
0.000574309
0.000649771
0.000691076
0.000687013
0.00066272
0.000932308
0.00157229
0.001571
0.00135014
0.00146649
0.0016794
0.00149758
0.0012249
0.00104583
0.00114376
0.00125641
0.00121044
0.0011272
0.00102363
0.00118852
0.00119466
0.00121484
0.00121438
0.00123257
0.00104231
0.00112973
0.00123448
0.00128136
0.00126281
0.00117493
0.00120562
0.00138678
0.00151092
0.00139157
0.00147948
0.00157168
0.00142832
0.00108122
0.000682895
0.000679046
0.000661477
0.000573079
0.000473148
0.000466894
0.000570241
0.000663781
0.000671451
0.000683539
0.000647787
0.000561011
0.000454492
0.000434875
0.000538946
0.000610644
0.00065977
0.000637489
0.000579565
0.000493244
0.000400539
0.000411082
0.00050243
0.000598344
0.000629138
0.00065103
0.000682741
0.000695898
0.000690439
0.000677736
0.000658
0.00062611
0.000609998
0.00060384
0.000577611
0.000566616
0.000564801
0.000546846
0.000540127
0.000551619
0.000523313
0.000487827
0.000438852
0.000404221
0.000356532
0.000630798
0.000981984
0.00112581
0.00134838
0.00131254
0.00110216
0.0010908
0.00106346
0.00108269
0.000972569
0.000628002
0.000388735
0.000459846
0.000511461
0.000518423
0.000523451
0.000760487
0.000795707
0.000941492
0.00098934
0.000869183
0.000967849
0.00107635
0.000967298
0.000829174
0.000954811
0.00105321
0.00122553
0.0013625
0.00120489
0.00113911
0.00131102
0.00144576
0.00127963
0.00102663
0.00069348
0.00110237
0.00118223
0.00103441
0.000878792
0.00485574
0.000954033
0.00148109
0.000987913
0.000871525
0.000910805
0.00100718
0.000921645
0.000743275
0.000677972
0.000903499
0.00093363
0.00099432
0.000909605
0.000738895
0.000825082
0.000972801
0.00104104
0.000945689
0.00101755
0.000782385
0.000534267
0.000859194
0.0009838
0.00109623
0.0010177
0.00113817
0.00142199
0.00129756
0.00120619
0.00127249
0.000882492
0.000887723
0.000844359
0.00081991
0.00211099
0.000818483
0.000759981
0.00205738
0.000913714
0.000832726
0.00104954
0.00084951
0.000915101
0.000912844
0.000932806
0.00175337
0.00196405
0.00183452
0.00137776
0.00134188
0.00142125
0.00200426
0.00202505
0.00200627
0.0017905
0.00120322
0.00171038
0.00215496
0.00224
0.00183723
0.00144931
0.00159947
0.00165796
0.00147352
0.00105904
0.00104483
0.00102535
0.000957592
0.000992591
0.00100711
0.00100723
0.00101037
0.000941096
0.00104363
0.0010725
0.00111379
0.00103616
0.000976694
0.00108942
0.00113026
0.00125058
0.0010664
0.00113094
0.000867954
0.00124151
0.00146276
0.00170955
0.00174241
0.00154038
0.00119969
0.000950225
0.00112127
0.00136064
0.00164121
0.00153895
0.00131192
0.00154164
0.00122819
0.00130429
0.00159166
0.00114357
0.0010844
0.00106012
0.0010761
0.000941179
0.00152264
0.00117317
0.00120449
0.00110376
0.00105396
0.0015303
0.000892453
0.00118226
0.0011757
0.00124666
0.00131209
0.00120493
0.00209941
0.00080188
0.00120416
0.00122753
0.00195615
0.00126332
0.00137543
0.00135073
0.00130235
0.00203898
0.00141341
0.00146318
0.00126353
0.00122556
0.00281363
0.0014932
0.0015158
0.00119226
0.00108836
0.00255452
0.00141103
0.0013848
0.00108036
0.00113699
0.000425755
0.00051842
0.000615451
0.000611462
0.000672492
0.000635243
0.000690602
0.000639981
0.000657763
0.000592009
0.000596616
0.000581788
0.000569612
0.000541678
0.000532945
0.000531765
0.00052725
0.000517631
0.000505255
0.000484254
0.000461487
0.000408989
0.000654472
0.000653266
0.000646497
0.000643584
0.00193532
0.000875607
0.000448563
0.000385995
0.000634262
0.000628866
0.000982077
0.000970631
0.000952805
0.00061363
0.000623281
0.000385523
0.000456576
0.000509376
0.000504737
0.000511153
0.000501417
0.000454309
0.000380884
0.000379566
0.000611378
0.000621495
0.000383958
0.000455843
0.000453211
0.000488252
0.0005001
0.000512388
0.000501198
0.000506079
0.000454628
0.000384658
0.000622366
0.000629994
0.000388642
0.000459387
0.000511615
0.000518791
0.000506376
0.000776194
0.000946709
0.00101218
0.00112581
0.00110925
0.000945977
0.000978979
0.0010607
0.00117662
0.00116848
0.00116281
0.00120184
0.00108755
0.000859591
0.000780058
0.000988583
0.00104511
0.00114676
0.00183115
0.00133125
0.00102549
0.000959485
0.00104919
0.00098639
0.000989498
0.000941493
0.00088366
0.000939481
0.000914153
0.000734433
0.000794613
0.000898833
0.000937196
0.000861357
0.000926552
0.000821452
0.000720811
0.000858076
0.000918681
0.000912756
0.00083277
0.000659378
0.000873902
0.000903924
0.000938302
0.000818853
0.000713094
0.000855287
0.000849619
0.000898649
0.00192234
0.000837222
0.000873185
0.001895
0.000758899
0.000719657
0.000665027
0.000744722
0.000743193
0.000805188
0.00080529
0.000843094
0.000851622
0.00188662
0.000787696
0.000846831
0.00182693
0.000741266
0.000649646
0.00065733
0.000720423
0.000675175
0.00072874
0.000671922
0.00197649
0.000771222
0.000817307
0.00086183
0.000867264
0.000915446
0.000873866
0.00209845
0.000803223
0.000854409
0.000714682
0.00066029
0.000688948
0.000661486
0.00213445
0.000831475
0.000903867
0.000892389
0.000952938
0.000901771
0.000503664
0.000458928
0.000387818
0.000666848
0.00206242
0.000880564
0.000839915
0.000672906
0.000713621
0.000838195
0.00187841
0.00165832
0.00172851
0.00175393
0.00165783
0.00156218
0.00161762
0.0016775
0.00168569
0.00172401
0.00172088
0.0018387
0.00182562
0.00218856
0.00256717
0.00163117
0.00229721
0.00502943
0.00649487
0.00850081
0.00172173
0.00126693
0.000988736
0.00101386
0.000914769
0.000999636
0.000959467
0.00117851
0.00122048
0.0011728
0.00092277
0.000939683
0.00097392
0.00106645
0.00102796
0.00127138
0.00167231
0.00817243
0.00681588
0.0038377
0.00257171
0.00149521
0.00157244
0.00158398
0.00159588
0.00106175
0.00537055
0.00325473
0.00183932
0.00398033
0.0025731
0.00347676
0.00317058
0.00385059
0.00379183
0.00144358
0.00143992
0.0014354
0.00142905
0.00142275
0.0014161
0.00141333
0.00142551
0.00155461
0.00258152
0.00319107
0.00327786
0.00353701
0.00366921
0.00414394
0.00448644
0.00505118
0.00565911
0.00608572
0.00553002
0.00806891
0.00583652
0.00719259
0.00707194
0.00795867
0.00754872
0.00779877
0.00760105