/*--------------------------------*- C++ -*----------------------------------*\
| =========                 |                                                 |
| \\      /  F ield         | OpenFOAM: The Open Source CFD Toolbox           |
|  \\    /   O peration     | Version:  v2012                                 |
|   \\  /    A nd           | Website:  www.openfoam.com                      |
|    \\/     M anipulation  |                                                 |
\*---------------------------------------------------------------------------*/
FoamFile
{
    version     2.0;
    format      ascii;
    class       volScalarField;
    location    "55";
    object      k;
}
// * * * * * * * * * * * * * * * * * * * * * * * * * * * * * * * * * * * * * //

dimensions      [0 2 -2 0 0 0 0];


internalField   nonuniform List<scalar> 
22960
(
0.0343386
0.0218985
0.018475
0.0155902
0.0132724
0.013352
0.0107943
0.0135422
0.0137484
0.0131876
0.0125278
0.0146335
0.016765
0.017958
0.017988
0.0175744
0.0170097
0.0206335
0.0293495
0.0346683
0.0355747
0.0246143
0.034612
0.0383477
0.0250362
0.0188591
0.0196017
0.0210522
0.0218545
0.0223034
0.0225856
0.0227879
0.0230156
0.0233528
0.0238484
0.0245478
0.0255291
0.0266896
0.0279255
0.0316031
0.0339257
0.0354382
0.0366586
0.0376865
0.0386727
0.0396095
0.0405332
0.0412781
0.0415205
0.0459664
0.0498231
0.0471218
0.0450787
0.0435265
0.0422555
0.0410714
0.03986
0.038242
0.0364716
0.0343207
0.031859
0.0288881
0.0241526
0.0189371
0.0148434
0.0128482
0.0174204
0.0185252
0.0187875
0.0189949
0.0217224
0.0227128
0.0225264
0.0223408
0.0222358
0.0221884
0.0221449
0.0220246
0.0217503
0.0211352
0.0199128
0.0194844
0.0195947
0.0196846
0.0189388
0.0144262
0.0235424
0.0242162
0.0235318
0.0266613
0.0325938
0.0366403
0.0384911
0.0384758
0.0358682
0.0333994
0.0291193
0.0257516
0.0227049
0.0194177
0.0156473
0.0152447
0.0130422
0.013183
0.0150065
0.0141763
0.0139177
0.0132192
0.0144676
0.0176569
0.0252651
0.0264417
0.0256059
0.0248735
0.0246927
0.0247403
0.0248439
0.0268953
0.0284519
0.0297013
0.0322291
0.0349057
0.0364541
0.0351615
0.0299828
0.0256274
0.0230304
0.0217866
0.0203012
0.0229946
0.0244229
0.0243434
0.0255778
0.0264854
0.0277478
0.0332438
0.0337829
0.0319869
0.0294117
0.0267034
0.0250468
0.0230686
0.020758
0.0202852
0.0205526
0.0213226
0.0224282
0.0234023
0.02282
0.0191332
0.0176494
0.0159637
0.0155642
0.0169761
0.0170502
0.0177612
0.0144659
0.0159672
0.0200126
0.0169907
0.0178761
0.0184454
0.0189781
0.0197483
0.020503
0.0197171
0.0190669
0.0183443
0.0173244
0.0160365
0.0143699
0.0120802
0.0114945
0.00966985
0.00996082
0.0103375
0.0105502
0.0106319
0.0106656
0.0113436
0.0133489
0.0147812
0.0150481
0.0149475
0.0145375
0.0137367
0.0125543
0.011379
0.0143655
0.016421
0.0175324
0.0181241
0.0183855
0.018362
0.0177699
0.0145352
0.0119357
0.0109004
0.0116157
0.0115348
0.0110132
0.00834073
0.00751941
0.00927174
0.0106244
0.0109696
0.0114739
0.0118172
0.0121195
0.0123705
0.0125186
0.0123673
0.0122284
0.0123142
0.0127849
0.0137646
0.0152062
0.0166988
0.0194269
0.023619
0.0286658
0.0337291
0.037944
0.040904
0.0424757
0.0428379
0.0416765
0.038724
0.0389921
0.0470374
0.0461394
0.0418436
0.0379152
0.0341408
0.0306473
0.0279772
0.0245032
0.0212796
0.0185307
0.0156968
0.0123708
0.00849164
0.00665679
0.0054232
0.00571651
0.00627792
0.00706613
0.00811884
0.00839351
0.0111218
0.0181542
0.0284352
0.0401639
0.050885
0.0597557
0.067646
0.0688963
0.0668802
0.0599562
0.0321449
0.0299106
0.0283113
0.0252445
0.021654
0.0186565
0.0162599
0.0144941
0.0156143
0.0179303
0.0166349
0.0150748
0.0125
0.0128976
0.0138084
0.0142778
0.0147984
0.0146627
0.0147932
0.0143699
0.0142939
0.0136873
0.0134889
0.0127746
0.0126456
0.012007
0.0115048
0.0116618
0.0133307
0.0149546
0.0173521
0.0190343
0.0199246
0.0203548
0.0209594
0.0209608
0.0231151
0.0228427
0.0222911
0.0216225
0.0206637
0.0191596
0.0176945
0.0165521
0.0156425
0.0148585
0.0139411
0.0138124
0.0160168
0.0170774
0.0182307
0.0188397
0.0161092
0.0166285
0.0167499
0.0175863
0.0176736
0.018479
0.018397
0.0191179
0.0187957
0.0193367
0.0187044
0.0189648
0.0188528
0.0194935
0.0207115
0.02151
0.0227346
0.0263543
0.02917
0.0316678
0.0346865
0.0373059
0.0395728
0.0424546
0.0455457
0.0468786
0.0489174
0.0363473
0.0340991
0.0272894
0.0215501
0.0212265
0.0210658
0.020766
0.0203007
0.0199468
0.0196758
0.0194687
0.0192688
0.0190982
0.0189263
0.0187496
0.0185778
0.0184304
0.0182819
0.0182185
0.0181667
0.0184373
0.0188258
0.0195377
0.02026
0.0208703
0.0207996
0.0251587
0.0274041
0.0284752
0.0289602
0.0291047
0.0287506
0.0330286
0.0334168
0.0329905
0.0321877
0.0307492
0.0280539
0.0224263
0.0256391
0.0285197
0.0311976
0.03348
0.0356403
0.0376196
0.0394849
0.0413789
0.0447597
0.0459324
0.0469162
0.0448932
0.0420533
0.0393078
0.0366491
0.0332344
0.0287145
0.0216631
0.0185295
0.0169079
0.0149152
0.0142432
0.0128649
0.0124098
0.0145208
0.0168328
0.0174991
0.0180862
0.018332
0.0185794
0.0206348
0.0220698
0.0223883
0.0225714
0.0227057
0.0227925
0.0228167
0.022769
0.0227822
0.0225622
0.0222982
0.0221922
0.0220508
0.0216553
0.0211583
0.0202856
0.0187057
0.0159315
0.0150349
0.0142912
0.0140825
0.0138813
0.013862
0.0135913
0.013715
0.0134114
0.0135297
0.0131589
0.0132393
0.012736
0.0126816
0.0120508
0.012072
0.011441
0.0106043
0.0100722
0.0108511
0.0126286
0.0158979
0.0180836
0.019007
0.0196088
0.0206314
0.0209879
0.0222455
0.0222909
0.0213977
0.0198548
0.0218422
0.0277981
0.0244459
0.0256421
0.0243162
0.0296885
0.0271251
0.024279
0.0244291
0.0253545
0.0263426
0.0270172
0.0228096
0.0220961
0.0233409
0.0190848
0.0222881
0.0228212
0.0232047
0.0237057
0.0236925
0.0236407
0.0320278
0.0411371
0.0434166
0.0406698
0.0358813
0.0344378
0.0399846
0.0378125
0.0285333
0.0363826
0.0411
0.0487719
0.0441466
0.046289
0.0469401
0.0498463
0.0468821
0.0473693
0.0480256
0.0473673
0.0450652
0.0443228
0.040014
0.0431883
0.0457401
0.0546484
0.0646456
0.0821244
0.0902808
0.0940257
0.0904239
0.0410865
0.0278242
0.0313859
0.0366655
0.0389661
0.0563611
0.0731531
0.0943094
0.129453
0.128882
0.1094
0.0882662
0.067618
0.0448446
0.0226237
0.0101477
0.00964406
0.010332
0.0111965
0.0125236
0.0135477
0.0179508
0.0184916
0.0178178
0.0182826
0.0162628
0.0177491
0.0187182
0.0192348
0.0193483
0.0188544
0.0190313
0.019632
0.020146
0.0199531
0.0198238
0.0197556
0.0187125
0.0181183
0.0160408
0.0139482
0.0124729
0.011857
0.0121845
0.0122875
0.0122565
0.0120311
0.0150337
0.0129237
0.0122782
0.012419
0.0124154
0.0118189
0.0138073
0.0166173
0.0182274
0.0185951
0.0184535
0.0176955
0.0166605
0.0153919
0.0147836
0.0141907
0.013651
0.013373
0.0130563
0.0125732
0.0120585
0.0112693
0.01004
0.00809449
0.0070282
0.00650895
0.00685282
0.0075315
0.00796701
0.00833201
0.00905281
0.0148481
0.0280431
0.041824
0.0548608
0.0664554
0.0771022
0.0857083
0.0867767
0.0842816
0.0741522
0.0307107
0.0292275
0.0270793
0.0234193
0.020414
0.0178285
0.015637
0.0139605
0.0145195
0.0174179
0.0181409
0.0208574
0.0210204
0.0222976
0.0228462
0.0240582
0.0243494
0.0304415
0.0524579
0.0840197
0.103808
0.130633
0.172556
0.187288
0.190456
0.176047
0.142106
0.108838
0.0860892
0.0601984
0.0331897
0.0154995
0.011247
0.0431628
0.0326763
0.0248429
0.0322246
0.0301322
0.0277991
0.0274017
0.0321817
0.0267126
0.017554
0.0171459
0.0182968
0.0190349
0.0194026
0.0195548
0.0194115
0.0190453
0.018638
0.0178926
0.0167851
0.0189487
0.0243158
0.0291488
0.0315628
0.0292971
0.0308732
0.0333798
0.035765
0.038772
0.0408607
0.0431191
0.0460326
0.0516875
0.0568679
0.0603686
0.0714866
0.0834277
0.0962897
0.109331
0.115833
0.11862
0.116929
0.109336
0.0946031
0.0792886
0.0535396
0.0350833
0.0405212
0.0590138
0.066799
0.0712303
0.0721119
0.0721485
0.0712597
0.0693902
0.0673471
0.0644823
0.0612016
0.0541329
0.0554431
0.056724
0.0575196
0.0584306
0.0584552
0.0583046
0.0570775
0.0551178
0.0452238
0.0339686
0.0298438
0.0315422
0.0383145
0.0448948
0.0485585
0.0501867
0.0496866
0.0514469
0.0503242
0.0513042
0.0493538
0.0490149
0.0465019
0.0425007
0.0408655
0.0392988
0.0354269
0.0370401
0.034465
0.0326254
0.0311239
0.0285113
0.0273061
0.0253759
0.0262831
0.0239381
0.0249058
0.0261645
0.026829
0.0294584
0.0299997
0.0323315
0.0307378
0.0326273
0.0328561
0.0360981
0.0364999
0.0365055
0.0435666
0.0433368
0.0415784
0.0387254
0.0327105
0.0289165
0.02568
0.0258619
0.0250126
0.0238601
0.0225905
0.0211539
0.0219343
0.0221697
0.0221714
0.022222
0.0229161
0.0231708
0.0227549
0.0288436
0.0255671
0.0209553
0.0207903
0.0204612
0.0202166
0.0199651
0.0197168
0.0193973
0.0191638
0.0188973
0.0187063
0.0192078
0.0195221
0.0203957
0.0210124
0.0221492
0.0228206
0.0237599
0.0243634
0.0247979
0.0250592
0.0252789
0.0256024
0.0261005
0.0267181
0.0267103
0.0247453
0.0242335
0.0245116
0.0260252
0.030956
0.0158625
0.0175313
0.0182326
0.0184263
0.0202875
0.0237546
0.0256586
0.0258132
0.0250798
0.0235646
0.0218293
0.0196394
0.0207987
0.0230357
0.0247095
0.0258363
0.026626
0.0276836
0.0297262
0.0310457
0.031078
0.0308996
0.0295591
0.0334239
0.0340982
0.0344413
0.0340499
0.0467436
0.0507113
0.047644
0.0464796
0.05016
0.0449243
0.0395527
0.0419564
0.0260001
0.0246772
0.0305115
0.0300286
0.0329162
0.0320905
0.0288234
0.0279195
0.0333052
0.0323243
0.0317134
0.032403
0.0333788
0.0334815
0.0331327
0.0299222
0.0284293
0.0315935
0.0350339
0.0368243
0.0391092
0.040232
0.037844
0.0429659
0.04106
0.0436644
0.0451165
0.0359449
0.0295047
0.0323977
0.0308747
0.0342228
0.0391482
0.0435398
0.0471672
0.052377
0.0590173
0.0673849
0.0772943
0.0818977
0.0847484
0.0757699
0.0648972
0.0564832
0.0499712
0.0448654
0.0410561
0.0383315
0.035923
0.0351345
0.033621
0.0308347
0.0334273
0.035994
0.0385261
0.0410643
0.0435962
0.0461372
0.0492959
0.0577878
0.0579718
0.0567361
0.0529366
0.0486123
0.0448796
0.0414621
0.0376117
0.034018
0.0292188
0.0267722
0.0247114
0.0230184
0.0209925
0.0195543
0.0170187
0.0160287
0.0188326
0.0201997
0.0230787
0.0248364
0.0267418
0.0300746
0.0325846
0.0362068
0.0389797
0.0407945
0.0442911
0.0481929
0.0527355
0.0586277
0.0647915
0.0687358
0.0708568
0.0568292
0.0513739
0.0478639
0.0446633
0.0416791
0.0388903
0.036239
0.0377188
0.0403244
0.0433216
0.0473482
0.0526696
0.06029
0.071574
0.0903701
0.0826458
0.0721677
0.0628278
0.0553737
0.0498471
0.0456074
0.0424442
0.0387016
0.0374473
0.0391845
0.0360614
0.0351836
0.0325885
0.0304263
0.0279969
0.0260943
0.0231948
0.0228581
0.026099
0.028865
0.0315845
0.0331689
0.0344658
0.0372769
0.0345175
0.032431
0.0309353
0.0286841
0.0267758
0.0293312
0.0306638
0.028618
0.0284584
0.0288842
0.0293285
0.0262483
0.0291097
0.0319014
0.0318516
0.0289654
0.0269182
0.0316175
0.0324917
0.0346794
0.0340139
0.0328738
0.0304777
0.0260201
0.0290645
0.0338187
0.0353811
0.0296931
0.0275118
0.0307404
0.0214069
0.0219204
0.018935
0.0300214
0.036555
0.0377374
0.0408151
0.0385647
0.0371184
0.0362298
0.03177
0.0314678
0.0280242
0.0338447
0.0337211
0.0295834
0.0279473
0.0306237
0.0293901
0.0332236
0.0339489
0.0324523
0.0309685
0.0252518
0.0279388
0.0309091
0.0326908
0.0305615
0.0335716
0.0310698
0.0302335
0.0349794
0.0354193
0.0321004
0.0294042
0.0272087
0.0228083
0.0303257
0.0312967
0.0350611
0.0358155
0.0299232
0.0250557
0.026013
0.0155928
0.018598
0.0197481
0.0202583
0.0198832
0.024203
0.0237228
0.0232383
0.0228658
0.0226047
0.0224374
0.0223932
0.022497
0.022543
0.0224527
0.0224072
0.0224811
0.0224749
0.0224212
0.0225195
0.0226993
0.0231509
0.0238331
0.0240894
0.0245323
0.0251787
0.0253417
0.0252075
0.0252051
0.0233156
0.0213733
0.0179354
0.0166659
0.0176201
0.0182338
0.018556
0.018775
0.0185659
0.0174598
0.0169455
0.0178012
0.0180998
0.0180558
0.0179419
0.0174788
0.0167591
0.0165803
0.0153019
0.0179626
0.0202083
0.020773
0.0254673
0.0236297
0.0226949
0.0225276
0.0225098
0.0224464
0.0223452
0.0222491
0.0222309
0.022317
0.0224803
0.0227065
0.0230259
0.0233079
0.0189355
0.0190268
0.0189233
0.0182365
0.0170242
0.0176083
0.0183326
0.0185804
0.0182415
0.0181676
0.0231274
0.0235774
0.0236351
0.0230965
0.0227842
0.0225809
0.0224634
0.0224144
0.0225783
0.0227374
0.0229785
0.0233858
0.0240045
0.025126
0.0267838
0.0238972
0.024741
0.0190249
0.0182145
0.0185472
0.0193171
0.0196543
0.0196157
0.0209521
0.0213361
0.0206559
0.0195313
0.0244111
0.0254868
0.024633
0.0269673
0.0199449
0.0322351
0.0354386
0.0354958
0.0372734
0.033694
0.034227
0.0311119
0.0319036
0.0302955
0.0286329
0.0267532
0.0279664
0.0296244
0.0307005
0.028866
0.0296726
0.0268056
0.0308913
0.0330312
0.0317096
0.0342081
0.0320651
0.0321725
0.0305323
0.0321771
0.0301583
0.0296869
0.0285549
0.0288794
0.0295404
0.0310096
0.0214607
0.023347
0.0248693
0.0259045
0.0267924
0.0259935
0.0262278
0.0272091
0.028574
0.0284986
0.0284047
0.0287871
0.0272262
0.0305824
0.0321488
0.0316625
0.0291141
0.0293103
0.0305645
0.0262827
0.0248811
0.0266356
0.027288
0.0254497
0.0246859
0.023409
0.0215458
0.0212689
0.0226113
0.0238002
0.0247415
0.0251742
0.0257079
0.0245818
0.0251531
0.0258064
0.026674
0.0257815
0.0249769
0.0244682
0.0241381
0.0238298
0.0240366
0.0248314
0.027655
0.0289876
0.0284397
0.0234979
0.020387
0.0204274
0.0202663
0.019107
0.0337406
0.0396677
0.0321387
0.0282844
0.028388
0.0281921
0.0282387
0.0266292
0.027606
0.0285409
0.0286424
0.0282598
0.0264227
0.0274277
0.0278778
0.0293854
0.0301266
0.0303586
0.0280066
0.027115
0.0297302
0.0296573
0.0335988
0.0303427
0.0335109
0.0347359
0.0328066
0.0319746
0.0285049
0.0242039
0.0270415
0.0295158
0.0317698
0.030968
0.0317999
0.0335604
0.0326445
0.0321185
0.0323544
0.0329241
0.0323066
0.0323336
0.0285005
0.0292787
0.0294643
0.0289747
0.0299475
0.0313673
0.0337707
0.0329822
0.0311537
0.0327892
0.0324992
0.0336619
0.0326004
0.0314631
0.0302673
0.0309886
0.0323354
0.0318407
0.0328694
0.0328954
0.0322267
0.0322142
0.0298976
0.0296512
0.0329089
0.0298254
0.033443
0.0338235
0.0330008
0.0327376
0.0303309
0.0317029
0.0315871
0.0337567
0.0327253
0.0314567
0.0267245
0.0269378
0.0264731
0.0256898
0.0267852
0.0287138
0.0279513
0.0269283
0.0253872
0.0265999
0.0239798
0.0258437
0.0229508
0.0252419
0.0241598
0.0224634
0.0248013
0.026662
0.027645
0.0279341
0.0297197
0.0251507
0.0222459
0.027203
0.0342273
0.0277118
0.0279426
0.0351267
0.0348982
0.0324299
0.0362983
0.0218802
0.0279302
0.030328
0.0312801
0.0307531
0.0334958
0.0326314
0.031591
0.0304912
0.0287953
0.028198
0.0333526
0.0297542
0.0319321
0.0281495
0.0260129
0.0246807
0.0239955
0.0234872
0.0230241
0.0226965
0.0224473
0.0220966
0.0214501
0.0206673
0.0166273
0.0185994
0.0204368
0.0191897
0.0166834
0.0164194
0.016906
0.0173803
0.0175492
0.0175022
0.0173885
0.0169941
0.0162902
0.0155707
0.0161232
0.0165809
0.0168612
0.0170343
0.0170921
0.0169492
0.0167227
0.0180518
0.0184288
0.0185645
0.0184898
0.0182985
0.0176656
0.017096
0.0184287
0.0203226
0.0221277
0.0229416
0.0236178
0.0245028
0.0256643
0.0275299
0.0301962
0.0340943
0.0363568
0.0322374
0.0293119
0.0270478
0.0254331
0.0242505
0.0229234
0.0201308
0.0166089
0.0162533
0.0178489
0.0194175
0.020414
0.0210001
0.0213554
0.0221825
0.0257434
0.0269235
0.0264379
0.0215877
0.0157356
0.0197338
0.0206794
0.0260595
0.026996
0.0237958
0.0221416
0.0198092
0.0250402
0.0283672
0.027497
0.0269602
0.0250198
0.0227956
0.0211567
0.0192097
0.0182931
0.0172582
0.0170412
0.0169334
0.0169026
0.0163026
0.0166116
0.0171308
0.0162666
0.0143911
0.0119371
0.0133439
0.0146596
0.0151178
0.0150502
0.0163485
0.016346
0.01646
0.0165785
0.0166238
0.0167453
0.016718
0.0168056
0.0166673
0.0167014
0.0165029
0.016505
0.0166109
0.0173396
0.0213078
0.0177773
0.0175683
0.0172827
0.0171241
0.0168212
0.0166137
0.0165222
0.0163399
0.0162574
0.0160937
0.0159992
0.0158382
0.0156793
0.0154395
0.0147907
0.0148703
0.0140764
0.013832
0.0136097
0.013378
0.0140277
0.0142223
0.0149913
0.0151936
0.0154012
0.0155556
0.0157639
0.0159197
0.0161131
0.0162503
0.0164105
0.0173608
0.0175617
0.0183693
0.0182044
0.0183821
0.0189374
0.017152
0.0168012
0.0164638
0.016317
0.0162656
0.0161768
0.016028
0.0158535
0.0156621
0.015485
0.0153046
0.0151104
0.0149341
0.0147643
0.0147203
0.0144861
0.0136752
0.0134642
0.012447
0.012328
0.0124884
0.0122893
0.0120214
0.0115455
0.0114509
0.011509
0.0126207
0.0129817
0.01366
0.0140108
0.0142928
0.0144206
0.0146097
0.0148483
0.0151183
0.0154024
0.0157134
0.0160461
0.0163371
0.0165332
0.0166
0.0165579
0.0165749
0.0167935
0.0169178
0.0169537
0.0176025
0.016949
0.0167915
0.016906
0.0179745
0.0174596
0.0170627
0.0172196
0.0177786
0.0178896
0.0178308
0.0178269
0.0174727
0.0169762
0.0162403
0.0141515
0.0144493
0.0151648
0.0159868
0.0163602
0.0169006
0.0172342
0.0174881
0.0178731
0.0175724
0.017582
0.0175939
0.017548
0.0174601
0.0171857
0.0169898
0.0166148
0.0163883
0.0160181
0.0158201
0.0155185
0.0153348
0.0150783
0.0149068
0.0146925
0.0145302
0.0139604
0.0139267
0.0136892
0.0135401
0.0134489
0.0133263
0.0134663
0.0137241
0.0141993
0.0142072
0.0137306
0.0130394
0.0126658
0.0124396
0.0122663
0.0114811
0.0117728
0.0125985
0.0127366
0.0132335
0.0138321
0.0140234
0.0142636
0.0142991
0.0148258
0.0148725
0.0150576
0.0151618
0.0153864
0.0155041
0.0157599
0.0158831
0.0161595
0.0162839
0.0165169
0.0165904
0.0167374
0.0167524
0.0167729
0.0166963
0.016924
0.0174365
0.0178388
0.018328
0.0181931
0.0184052
0.0179394
0.0179778
0.0171978
0.016894
0.0162861
0.0159474
0.0156202
0.0153369
0.0151126
0.0148825
0.0146672
0.0144889
0.0142877
0.014265
0.0142201
0.0139423
0.0135134
0.0134915
0.0134976
0.013745
0.0140326
0.0142944
0.0144104
0.0146719
0.0147507
0.0150532
0.0153619
0.0157153
0.016199
0.0168186
0.0176984
0.0182885
0.0194961
0.0196175
0.0202538
0.0200889
0.020213
0.019428
0.0188734
0.0200751
0.0206471
0.0212618
0.0209855
0.0209472
0.020486
0.0199684
0.0189093
0.0181569
0.0172605
0.0164194
0.015889
0.0154231
0.0150404
0.0149881
0.0146171
0.0144819
0.014135
0.0137763
0.0134508
0.0131499
0.0129607
0.013011
0.0132768
0.013588
0.0139377
0.0142465
0.0144968
0.014805
0.0151072
0.0153655
0.0157653
0.0158548
0.0154748
0.0147997
0.0144183
0.0141038
0.0138116
0.0135598
0.0134026
0.0134931
0.0134721
0.0135648
0.0138025
0.0145469
0.0149241
0.0158583
0.0158496
0.0162919
0.0162944
0.0165059
0.0170747
0.0176923
0.0183648
0.0192553
0.0203828
0.0212489
0.0224514
0.0246319
0.0248863
0.0248907
0.0246778
0.0213137
0.0221638
0.0241823
0.0246551
0.0245483
0.0235649
0.0243447
0.0223477
0.0221124
0.0204164
0.0212838
0.0214647
0.0207561
0.019998
0.0190482
0.0182468
0.0174108
0.0166391
0.0274283
0.0266574
0.0305031
0.0286384
0.0303431
0.0256832
0.0275863
0.0239831
0.0229143
0.0226641
0.0237911
0.0240798
0.0281726
0.0318611
0.246229
0.503671
0.188638
0.191138
0.194869
0.19413
0.17982
0.189813
0.20542
0.17457
0.216353
0.183423
0.215981
0.177452
0.194065
0.195278
0.0314591
0.03552
0.0382705
0.0406339
0.0369362
0.0357564
0.0549034
0.248072
0.518414
0.511326
0.511309
0.505949
0.50192
0.506062
0.512531
0.506755
0.507654
0.511374
0.400806
0.239291
0.0560388
0.0330272
0.0524203
0.0657307
0.303079
0.529416
0.543069
0.514326
0.503996
0.502426
0.50361
0.50968
0.507555
0.511034
0.509805
0.511628
0.508246
0.510093
0.511176
0.503437
0.503914
0.501725
0.503441
0.5015
0.501225
0.501716
0.503858
0.510659
0.506834
0.536005
0.337147
0.114896
0.0685514
0.306787
0.322604
0.0742532
0.0537083
0.28085
0.533429
0.505295
0.502509
0.502593
0.501575
0.501024
0.500922
0.501092
0.501109
0.501644
0.501677
0.503578
0.511897
0.510634
0.508702
0.511219
0.50337
0.501571
0.501032
0.50112
0.500929
0.500934
0.500843
0.500984
0.501296
0.50155
0.502602
0.519784
0.28031
0.0549481
0.0627476
0.281733
0.522561
0.502435
0.501206
0.500958
0.500816
0.500787
0.500744
0.500833
0.50087
0.501022
0.501544
0.503602
0.510369
0.504372
0.24937
0.250321
0.253671
0.24213
0.503944
0.508554
0.50319
0.50161
0.501371
0.501321
0.500833
0.500805
0.500753
0.5008
0.500802
0.501813
0.519213
0.282554
0.0645517
0.0581819
0.273397
0.525512
0.502405
0.500194
0.500601
0.500318
0.501068
0.503833
0.504305
0.504365
0.505127
0.50934
0.50532
0.252009
0.168688
0.183577
0.506908
0.511019
0.513006
0.513297
0.51638
0.502362
0.518036
0.501695
0.520284
0.34963
0.36631
0.0618139
0.0564093
0.0746561
0.378239
0.348451
0.0656422
0.0850386
0.366339
0.294583
0.0484673
0.0397248
0.21682
0.212687
0.0360192
0.0332878
0.210247
0.198401
0.0306653
0.0276499
0.0244129
0.030488
0.0303494
0.0340431
0.0332509
0.0379521
0.0573737
0.0283774
0.022309
0.0212986
0.0277794
0.0463056
0.0433344
0.060115
0.0660602
0.0824263
0.0676208
0.0587752
0.0771948
0.151892
0.0717099
0.0455494
0.0465353
0.143929
0.034361
0.0201372
0.0163471
0.0173875
0.0180468
0.0176376
0.022673
0.0208174
0.0241573
0.0189942
0.0200199
0.0251483
0.0453001
0.0514028
0.0587025
0.0426693
0.0381015
0.0543076
0.067849
0.0767877
0.0625694
0.0428508
0.100117
0.0430715
0.151276
0.148641
0.258447
1.12907
0.744915
0.665705
0.672741
0.674058
0.74917
1.24648
0.550542
0.0660403
0.028499
0.109646
0.0450663
0.0382102
0.0531521
0.0632377
0.125179
0.0335733
0.0273277
0.0179895
0.0138248
0.0151277
0.0187291
0.0200601
0.0172363
0.0164765
0.0157939
0.0170699
0.018748
0.0199279
0.0177833
0.0199234
0.0188549
0.0212692
0.0218024
0.0323493
0.0239405
0.0154663
0.0237363
0.0448114
0.0598855
0.0411104
0.0307365
0.0493702
0.0922631
0.100957
0.0592722
0.151143
0.0386103
0.0808714
0.110599
0.152606
0.704484
0.1785
0.074183
0.0272844
0.0161903
0.0203918
0.029446
0.0197291
0.0169254
0.0166599
0.0188105
0.0188658
0.0170931
0.0152671
0.0149243
0.0170579
0.0164176
0.0141174
0.0147444
0.0146783
0.0149941
0.0163687
0.0166224
0.0150051
0.0154884
0.0157472
0.0174034
0.0173649
0.0304368
0.018143
0.0176988
0.0290343
0.0218494
0.0374519
0.0192169
0.0279455
0.0196404
0.0190844
0.0436225
0.0241994
0.0204514
0.043979
0.0241939
0.0206463
0.0396202
0.022639
0.0191217
0.034131
0.0174057
0.0235836
0.0242449
0.0279473
0.0254562
0.0269866
0.0283795
0.0259592
0.0472481
0.0245903
0.0198194
0.0186798
0.0178278
0.018604
0.0197052
0.0212544
0.0216037
0.0220815
0.0218066
0.0216431
0.02193
0.0224569
0.0228353
0.0225477
0.0219961
0.0202635
0.0190097
0.0192287
0.0206015
0.0225777
0.0233875
0.0234928
0.023254
0.0700465
0.171922
0.123091
0.0831468
0.0968185
0.148378
0.179905
0.102045
0.0808976
0.0460994
0.0673522
0.0527109
0.0597772
0.0457074
0.0377069
0.033089
0.0409101
0.0345158
0.0355847
0.0332495
0.0579521
0.0416101
0.0440387
0.0373398
0.0478066
0.063251
0.102013
0.0779603
0.0564492
0.0612671
0.0876573
0.101038
0.0616627
0.0242116
0.0239639
0.0228759
0.0206851
0.0191468
0.0186459
0.0203993
0.0227516
0.02416
0.0240169
0.021935
0.0194743
0.017609
0.0160882
0.0178556
0.0202924
0.023152
0.0208623
0.0176275
0.0150825
0.0136843
0.0144394
0.0158448
0.0185852
0.0209969
0.0223989
0.0242559
0.0243066
0.0241739
0.0230154
0.0226192
0.0213576
0.0202317
0.0193016
0.0182935
0.0176034
0.0168801
0.0162441
0.0158479
0.015436
0.0149634
0.0145112
0.0141316
0.013849
0.0135037
0.0132189
0.0132114
0.0131305
0.0131686
0.0124697
0.0125028
0.0121963
0.0115737
0.0119989
0.0122849
0.0125269
0.0129046
0.0132915
0.0136497
0.0139289
0.0141996
0.021947
0.0170694
0.0155548
0.0171341
0.0179766
0.0298078
0.0358572
0.0206808
0.018224
0.0161771
0.0199258
0.0321996
0.0443418
0.0328964
0.0243618
0.0331205
0.0438288
0.0532644
0.040275
0.0981825
0.0256186
0.0277625
0.0522028
0.109207
0.417655
0.0465815
0.0224
0.0158817
0.0132541
0.0144976
0.0169337
0.0179595
0.0160882
0.0153628
0.0138974
0.0148694
0.0162653
0.0173368
0.0161677
0.0181586
0.0162065
0.0181078
0.0190256
0.0305358
0.0235132
0.0148149
0.019752
0.0168532
0.0218059
0.0230294
0.0406927
0.0500851
0.0348942
0.0263429
0.0368722
0.0132814
0.012952
0.0128605
0.0132083
0.0150003
0.0142092
0.0144646
0.0190551
0.0158626
0.0163224
0.0162061
0.0142225
0.0137026
0.013602
0.0148379
0.0245764
0.0182533
0.0346318
0.0695258
0.0594234
0.0599643
0.205047
0.212966
0.209351
0.155075
0.05756
0.0873364
0.124917
0.115978
0.0910747
0.0616004
0.0581825
0.0702101
0.0581
0.0304856
0.0318314
0.0327344
0.0301015
0.0275873
0.0274875
0.0276929
0.0282339
0.0277494
0.0336759
0.0318591
0.0348992
0.0299939
0.0302461
0.037143
0.0514609
0.0494925
0.0360231
0.0468434
0.0309605
0.056519
0.075618
0.103005
0.137762
0.100501
0.0669494
0.0466054
0.0657226
0.0696727
0.102854
0.120235
0.103699
0.113907
0.0815442
0.0698465
0.10396
0.0574895
0.0316956
0.0357993
0.0380189
0.0401032
0.1145
0.0639177
0.0671443
0.040555
0.0570862
0.126168
0.0349222
0.032574
0.0299136
0.0292848
0.0303945
0.0241607
0.0354342
0.0176753
0.023065
0.0233796
0.0419813
0.0256428
0.02855
0.0271653
0.0273583
0.0625855
0.0311629
0.0361881
0.0296905
0.0306146
0.107609
0.040661
0.0463381
0.0327713
0.0283548
0.0939163
0.0415011
0.033807
0.0239936
0.0232659
0.0155251
0.016956
0.0199065
0.0205328
0.0225846
0.0220166
0.0236382
0.022432
0.0219979
0.0210815
0.0208707
0.0196399
0.0190479
0.0178904
0.0173148
0.0165846
0.0160981
0.0156706
0.0153168
0.014911
0.0145208
0.0141763
0.0139423
0.0138727
0.0136859
0.0128954
0.0145799
0.0131766
0.0137222
0.0134082
0.0132121
0.0127171
0.0126114
0.0122498
0.0117942
0.0119654
0.0123551
0.0126897
0.0130499
0.0133752
0.0136265
0.0134256
0.0131193
0.0127441
0.012345
0.012236
0.0118757
0.0122763
0.0125454
0.012843
0.0126017
0.0129533
0.0133067
0.0134395
0.0131376
0.0132831
0.0129699
0.0126444
0.012334
0.0126505
0.0129318
0.0133026
0.0137253
0.0141828
0.0135884
0.0240549
0.0176869
0.0205582
0.0273769
0.0358667
0.030429
0.0259055
0.019511
0.0264706
0.0329989
0.0338447
0.0239399
0.0196717
0.0197608
0.0169182
0.0157855
0.0182048
0.0211052
0.0338279
0.0768177
0.029928
0.0242543
0.0366449
0.0266755
0.0266438
0.0244089
0.0190434
0.0231026
0.0156544
0.0199069
0.0164382
0.015194
0.0167042
0.0173413
0.0257852
0.0157076
0.0147622
0.0137246
0.0152214
0.0144291
0.012953
0.0144264
0.0134227
0.0143381
0.0152956
0.0161279
0.0152231
0.0128447
0.0123645
0.0125596
0.0137652
0.0128059
0.0132899
0.013623
0.0137574
0.0138037
0.0139549
0.0135506
0.0128952
0.0124632
0.0121684
0.0122789
0.0124493
0.0137557
0.0123836
0.012775
0.0133442
0.0132518
0.0132884
0.0141975
0.0129155
0.0125545
0.0125716
0.0121935
0.0151924
0.0122228
0.0125494
0.0135743
0.0147656
0.0155666
0.0133915
0.0175505
0.0127314
0.012721
0.0123466
0.0119165
0.0121764
0.0122054
0.0179835
0.0133442
0.015789
0.0152182
0.0148254
0.0138949
0.0138924
0.0134158
0.0130173
0.0124689
0.0159366
0.0135383
0.0134198
0.0123285
0.0126913
0.0131209
0.0210518
0.0250819
0.0249075
0.0243719
0.0231193
0.0193506
0.0159607
0.0141417
0.0136232
0.0142217
0.0174513
0.0154967
0.0145315
0.0150814
0.0185357
0.0275354
0.121041
0.303177
0.417715
0.589081
0.0797694
0.0463779
0.0249253
0.0292655
0.0242807
0.0273439
0.0262977
0.0416078
0.0452846
0.0438792
0.0312358
0.030967
0.0269314
0.0341296
0.0338388
0.0486795
0.0774471
0.609142
0.508977
0.253517
0.142882
0.0505274
0.0453305
0.0532983
0.0650294
0.0295372
0.411874
0.205043
0.0798537
0.231699
0.103273
0.0351088
0.0262091
0.0213843
0.0203639
0.0161285
0.0160193
0.0159051
0.0157705
0.0156529
0.0155466
0.0153952
0.0152691
0.0150566
0.0146652
0.0155313
0.0164414
0.0172455
0.0179195
0.0196508
0.0209433
0.0229322
0.0256349
0.0275011
0.0280587
0.0445383
0.0320628
0.0381835
0.0347868
0.0394909
0.0505531
0.0428639
0.0451727
0.0190668
0.0199813
0.0186258
0.0167788
0.0173383
0.0170205
0.0174926
0.0172825
0.0170338
0.0175264
0.0308242
0.0301905
0.0293708
0.0304798
0.0288966
0.0317297
0.046583
0.0444944
0.0437301
0.0308209
0.0235605
0.0277267
0.024626
0.0240787
0.0221252
0.0208599
0.021661
0.0184582
0.020155
0.0216809
0.0230875
0.0243039
0.0256734
0.0221565
0.0215132
0.0203554
0.0142611
0.0146924
0.0141876
0.0136841
0.0128938
0.0116248
0.00973556
0.00856857
0.00734882
0.00721061
0.00684637
0.00681083
0.00644199
0.00648078
0.00630841
0.0066121
0.00659073
0.00690507
0.00675948
0.00688875
0.00686303
0.00751915
0.00837789
0.00834709
0.00840103
0.00824826
0.0102383
0.0103674
0.0102862
0.0101838
0.00934856
0.00921257
0.00948901
0.00934048
0.00956729
0.00931642
0.00949784
0.00917498
0.00939053
0.00911421
0.00947125
0.00931853
0.00972128
0.0104091
0.0101721
0.00943387
0.00884831
0.0110668
0.0111698
0.0111385
0.0111362
0.0109687
0.0145248
0.00952933
0.0158905
0.017239
0.0221574
0.0281868
0.0354734
0.0225163
0.0252911
0.0317667
0.0378802
0.0287128
0.0211251
0.0177296
0.0160652
0.0165049
0.0164625
0.0177773
0.0212954
0.0191938
0.022523
0.023543
0.0267331
0.0276897
0.0272033
0.0215364
0.0143341
0.0121685
0.0154115
0.0244305
0.0237832
0.0198325
0.0153514
0.0165061
0.0179444
0.019472
0.0198616
0.017095
0.0173169
0.0177339
0.0181204
0.0184105
0.0186857
0.0189774
0.0193724
0.0196818
0.0181628
0.0179781
0.0178293
0.0175304
0.0174117
0.0170648
0.0171055
0.0167517
0.0168303
0.0164634
0.0165132
0.016104
0.0160477
0.0155963
0.0154977
0.015175
0.0150794
0.0136473
0.0135176
0.0144657
0.0162786
0.0174265
0.0170836
0.0172497
0.0175063
0.0172197
0.0227863
0.0221935
0.0146858
0.0119474
0.010162
0.0108723
0.0107888
0.0107543
0.0112961
0.0114172
0.0118517
0.0118588
0.0121849
0.0121835
0.0124774
0.0125087
0.0128299
0.0130033
0.0133625
0.0137497
0.0143949
0.0190873
0.0188582
0.0187563
0.0178531
0.017287
0.0163527
0.0161065
0.0154988
0.0155648
0.0149913
0.0149847
0.0143287
0.0140964
0.0133576
0.0131207
0.0166612
0.016268
0.0206068
0.0206272
0.024879
0.026642
0.0208653
0.0210697
0.0170206
0.0176476
0.0180893
0.0187142
0.0189288
0.019499
0.0196758
0.0204561
0.0212734
0.0227761
0.0243079
0.0257778
0.0260796
0.0269385
0.0248133
0.0187106
0.0170401
0.025975
0.0258903
0.0234731
0.0185719
0.0169219
0.0227708
0.0238636
0.0255911
0.0235544
0.0256101
0.0339327
0.0205836
0.0212354
0.0197082
0.0221826
0.0286253
0.0374546
0.0284906
0.0309162
0.028892
0.0242959
0.0222029
0.0216973
0.0214396
0.0212509
0.0210305
0.0208271
0.0205385
0.0203834
0.0201688
0.0200616
0.0202349
0.0207358
0.0211236
0.0217769
0.0220587
0.0229135
0.0234115
0.0237219
0.0240444
0.0244876
0.0250636
0.0242426
0.0238969
0.0237911
0.0236779
0.0235523
0.0235283
0.0234319
0.0236432
0.0231981
0.0230749
0.0233083
0.0234305
0.0232885
0.02307
0.0228199
0.0228863
0.022633
0.0224766
0.0227676
0.0230822
0.0229495
0.0228597
0.0225523
0.022436
0.0221912
0.0221789
0.0206658
0.0203978
0.0201307
0.0200376
0.0206557
0.020656
0.0224853
0.0225325
0.0224605
0.0226489
0.0226139
0.0227237
0.0226899
0.0227776
0.0232509
0.0238229
0.0237367
0.0305779
0.0308927
0.0248753
0.0231239
0.0224753
0.0225475
0.0223854
0.0225423
0.0226793
0.0225621
0.0226673
0.0226619
0.0224809
0.022134
0.0219303
0.0216519
0.0202728
0.0202807