/*--------------------------------*- C++ -*----------------------------------*\
| =========                 |                                                 |
| \\      /  F ield         | OpenFOAM: The Open Source CFD Toolbox           |
|  \\    /   O peration     | Version:  v2012                                 |
|   \\  /    A nd           | Website:  www.openfoam.com                      |
|    \\/     M anipulation  |                                                 |
\*---------------------------------------------------------------------------*/
FoamFile
{
    version     2.0;
    format      ascii;
    class       volScalarField;
    location    "1105";
    object      alphat;
}
// * * * * * * * * * * * * * * * * * * * * * * * * * * * * * * * * * * * * * //

dimensions      [1 -1 -1 0 0 0 0];


internalField   nonuniform List<scalar> 
18258
(
0.00483209
0.0021042
0.00172284
0.00149201
0.000990249
0.00161912
0.00224915
0.00267798
0.0028102
0.00278754
0.00288749
0.00487431
0.00684207
0.00845813
0.008887
0.00887461
0.00805921
0.00769614
0.00836324
0.0102778
0.00863102
0.00553045
0.00661962
0.00765896
0.00835007
0.0073981
0.00598317
0.00553716
0.00501243
0.00417899
0.00350826
0.00241005
0.00174904
0.00162043
0.00147029
0.00167688
0.00182718
0.00194944
0.00199302
0.00202456
0.00201087
0.00199936
0.00194509
0.00191039
0.00185128
0.00152709
0.00182848
0.00192848
0.00210633
0.00289905
0.00310986
0.00261403
0.00289118
0.00257737
0.00169712
0.00194356
0.00210981
0.00215494
0.00212673
0.00203803
0.00200795
0.00198251
0.00195038
0.00191233
0.00188912
0.00190801
0.00192781
0.00190697
0.00181336
0.00173758
0.00161495
0.00149199
0.00140088
0.00133031
0.0012771
0.00121788
0.00115133
0.00101132
0.000937304
0.00124102
0.00155802
0.00166483
0.00235984
0.00287735
0.00289728
0.00216876
0.00154556
0.00160412
0.00178309
0.0018006
0.00152533
0.00181289
0.00205319
0.00212796
0.00221753
0.00247895
0.00282349
0.00275272
0.00245183
0.00226025
0.00219966
0.0025273
0.00240606
0.00312079
0.00314005
0.00273063
0.00253873
0.00285565
0.00368353
0.00396048
0.00307541
0.0028892
0.00283231
0.00279521
0.00252874
0.00261838
0.00237867
0.00214329
0.00233564
0.0028218
0.00267602
0.00292201
0.00302861
0.00284178
0.00329324
0.00379755
0.00374285
0.00299495
0.00244253
0.00227678
0.00229393
0.00140292
0.001515
0.00163199
0.00167199
0.00170017
0.00172404
0.00183798
0.00183382
0.00180669
0.00180269
0.00183339
0.00101073
0.00109518
0.00112252
0.0011304
0.0010739
0.00106279
0.00104288
0.00102673
0.000968427
0.000926643
0.00110867
0.00124483
0.00135578
0.00148555
0.00167886
0.00191538
0.00216402
0.00241537
0.00258169
0.00262921
0.0026771
0.00258046
0.00248284
0.00257154
0.00258649
0.00256975
0.00253526
0.00249171
0.00243296
0.00232534
0.0024506
0.0024441
0.00229624
0.00196776
0.00201206
0.00200881
0.00206122
0.00205041
0.00207083
0.00204094
0.00200566
0.00190836
0.00177227
0.00147433
0.00144855
0.00146506
0.00187929
0.00228004
0.00352023
0.00429068
0.00497663
0.00532164
0.00569073
0.00460949
0.00513268
0.00396044
0.00355455
0.00451626
0.00590586
0.00337008
0.00184228
0.00349496
0.00310317
0.00225518
0.00200803
0.00207029
0.00206739
0.00236335
0.00272741
0.00303311
0.00318144
0.00331105
0.00341487
0.00352855
0.00367238
0.00371153
0.00358521
0.00303366
0.00365916
0.00297465
0.0034761
0.00314519
0.00213102
0.00218995
0.00233989
0.00214844
0.00209218
0.00199771
0.00180486
0.00224821
0.0028998
0.00336302
0.00384423
0.00512813
0.004744
0.00454728
0.00352115
0.00340498
0.00176726
0.00251983
0.00261905
0.00295049
0.00196088
0.00179072
0.00170131
0.00224678
0.00260438
0.00307397
0.00341184
0.0040523
0.00314573
0.00359389
0.00325385
0.00227203
0.00218149
0.00311998
0.00335953
0.00276225
0.00246442
0.00309313
0.00292947
0.00207988
0.00165051
0.00253854
0.00262401
0.00188959
0.00470081
0.0050411
0.00482254
0.00586998
0.00734905
0.00836656
0.00780417
0.00691865
0.00771282
0.0061297
0.00595125
0.00635044
0.0053293
0.00371504
0.00380715
0.00393481
0.0040401
0.0043373
0.00460786
0.0049386
0.00525225
0.00477387
0.00396341
0.00299945
0.00206315
0.00203432
0.00202366
0.0018172
0.00269319
0.00407628
0.00405038
0.00230216
0.00134119
0.00151587
0.00171137
0.00169447
0.00123004
0.000925553
0.00159431
0.00182333
0.00185301
0.00180717
0.00170639
0.00178323
0.00286382
0.00441201
0.00484802
0.00502133
0.00518532
0.00530118
0.00536567
0.00538616
0.00539759
0.00541159
0.00542387
0.00544253
0.00542567
0.0053101
0.00467061
0.00293642
0.0017162
0.00159393
0.00175909
0.00189046
0.00200503
0.00170589
0.00104331
0.00166622
0.0021337
0.0024529
0.00247402
0.0023091
0.00224013
0.00353253
0.00469706
0.00553689
0.00570736
0.00578362
0.00572079
0.00571339
0.00558975
0.00555235
0.00487037
0.0034797
0.00380375
0.00408388
0.00413003
0.00422499
0.00436777
0.00426666
0.00403221
0.00588887
0.00679791
0.00688513
0.00703114
0.00694784
0.00682844
0.00651919
0.0061655
0.00519065
0.00389271
0.0024564
0.00250775
0.00266967
0.0026441
0.00230162
0.00242478
0.00263169
0.00265811
0.00274528
0.00307874
0.00349703
0.00333632
0.0028719
0.00243859
0.00227048
0.00222207
0.00213141
0.00159562
0.00162006
0.00157548
0.00160185
0.00215263
0.00256206
0.0029547
0.00418983
0.00373742
0.00303937
0.00481913
0.00493925
0.00530711
0.00586364
0.00600885
0.00665782
0.00463154
0.00417397
0.00428742
0.00350217
0.00324168
0.00327612
0.00328844
0.00306492
0.00335455
0.00332499
0.00320471
0.00353806
0.00389872
0.0051408
0.00622894
0.00657193
0.00677015
0.00685176
0.00682746
0.00669691
0.00674124
0.00592386
0.00592272
0.00567148
0.00550897
0.00545185
0.00518369
0.00592792
0.00615311
0.00622791
0.00638275
0.00662424
0.00644218
0.00624313
0.00609141
0.00598151
0.00586662
0.00592759
0.00603718
0.00615413
0.00631827
0.00653722
0.0065722
0.00634534
0.00617374
0.00605634
0.00594601
0.00594972
0.006048
0.00616256
0.00632517
0.00653277
0.00641667
0.00625527
0.00611148
0.00599357
0.00588974
0.00568328
0.00581996
0.00597026
0.00609398
0.00617396
0.00533457
0.00570253
0.00560478
0.00507475
0.00474999
0.00360713
0.00390368
0.0041164
0.00448347
0.00497646
0.00507303
0.00425687
0.00364799
0.00355466
0.00352598
0.00360913
0.00363903
0.00365682
0.00413204
0.00622621
0.00626992
0.00628873
0.00629211
0.00538073
0.00522761
0.00486852
0.00890389
0.00829082
0.00718321
0.00592214
0.00317239
0.00271913
0.00322095
0.00391729
0.00437992
0.00483427
0.00320886
0.00198804
0.00231716
0.0024028
0.00234442
0.00216691
0.00180454
0.00166576
0.00151197
0.00162725
0.00288176
0.0045981
0.00517915
0.00523415
0.00518243
0.00508202
0.00496019
0.00479051
0.00471972
0.00593055
0.00800173
0.0090765
0.0090455
0.00777172
0.00632664
0.00356089
0.00182439
0.00132707
0.00145512
0.001598
0.00188062
0.00167805
0.00139563
0.00152904
0.00145518
0.00295231
0.00510533
0.00652681
0.00773892
0.00760196
0.00659307
0.00541158
0.00514041
0.0052616
0.00534114
0.00541007
0.0054809
0.00552958
0.00549897
0.00500546
0.00309286
0.00184617
0.00164023
0.00176384
0.00206716
0.00219661
0.00221887
0.00218786
0.00189645
0.00313583
0.00498056
0.00316702
0.00172811
0.00186739
0.00185389
0.0032706
0.00326549
0.00319454
0.0049702
0.00525509
0.00524194
0.00492523
0.00470215
0.00278372
0.00315875
0.00316921
0.00318602
0.00323847
0.00163545
0.00178264
0.00183805
0.00197833
0.00173272
0.00219964
0.000569226
0.000788657
0.000916161
0.000995891
0.00107284
0.00105243
0.00201258
0.00204153
0.00194887
0.00189821
0.00240969
0.00258603
0.00264333
0.0024349
0.00224686
0.00239184
0.00239689
0.00225859
0.00213949
0.0022186
0.00222022
0.00212744
0.00180949
0.00169558
0.0018616
0.00184153
0.00182671
0.00328124
0.00327545
0.00309966
0.00509307
0.00501114
0.00561272
0.00557619
0.00556962
0.0055471
0.00560648
0.00563761
0.00566123
0.00568889
0.00567771
0.00562308
0.00783004
0.00553056
0.00482608
0.0027908
0.00268817
0.00189834
0.00166359
0.00195887
0.00209507
0.00227131
0.00221989
0.00234044
0.00233774
0.00248049
0.00230249
0.00204462
0.00313183
0.00334591
0.00326801
0.0033328
0.00325441
0.00323538
0.00321144
0.00316562
0.00311048
0.00185183
0.00181638
0.00212695
0.00223266
0.002399
0.00242084
0.00247335
0.00234592
0.00206335
0.00199734
0.00230008
0.0022691
0.00231302
0.00218081
0.00217196
0.0019351
0.0019841
0.00400349
0.00739693
0.00380312
0.00422481
0.00382659
0.00435269
0.00381196
0.00328702
0.00336406
0.00296276
0.00309046
0.00324185
0.00330046
0.00346874
0.00408864
0.00393655
0.00345556
0.00335528
0.00328916
0.00310111
0.00279127
0.0029243
0.00295084
0.00301419
0.00334983
0.00384328
0.00430892
0.00523658
0.0050817
0.0044516
0.00406963
0.00426828
0.00434144
0.00546602
0.00510697
0.0050766
0.00535445
0.00530094
0.00503179
0.00476814
0.00460253
0.00395076
0.00401574
0.00459722
0.00444831
0.0045843
0.00450411
0.00468177
0.00476661
0.00457564
0.00425246
0.00446818
0.00445817
0.0049521
0.00481708
0.00446771
0.00408924
0.00436866
0.00431442
0.00498552
0.00469414
0.00439032
0.00403997
0.00386878
0.00439129
0.00431167
0.00489048
0.00503099
0.00503306
0.00438674
0.00428543
0.00509822
0.00490553
0.00473671
0.00493385
0.00408479
0.0042026
0.00517841
0.00528707
0.00501492
0.00418521
0.00425045
0.00364446
0.00428686
0.00533657
0.00503966
0.0041301
0.00342565
0.00479538
0.0050463
0.00533943
0.00504545
0.00549671
0.00592214
0.00482585
0.00525085
0.00686395
0.00523494
0.0060757
0.00621111
0.00624862
0.00625296
0.00627852
0.0063116
0.00665214
0.00647676
0.00411182
0.00492041
0.00477731
0.00399283
0.0033912
0.00373665
0.00402439
0.00408213
0.00418522
0.00434443
0.00427071
0.00413386
0.0060479
0.00689917
0.00705291
0.00719451
0.00707646
0.00690017
0.00649523
0.00599796
0.00496822
0.00370356
0.00230803
0.00235209
0.00250633
0.00248171
0.00215277
0.0016254
0.00106732
0.00158531
0.00163836
0.00154197
0.00140424
0.00123651
0.00127498
0.0023424
0.00476198
0.00635412
0.00697779
0.00749009
0.00804873
0.0085881
0.00899813
0.00929326
0.00949111
0.00961087
0.00963063
0.0094343
0.00859512
0.00822651
0.0077691
0.00739581
0.00686859
0.00643438
0.00726939
0.00797661
0.0084108
0.00890059
0.00912572
0.00902986
0.00785063
0.00763507
0.00878989
0.0108153
0.0091978
0.0115511
0.0135714
0.0105935
0.00952079
0.00949995
0.0105929
0.0107945
0.0104121
0.00981846
0.00913963
0.00828343
0.00870558
0.00908467
0.00944574
0.00977651
0.0107138
0.0108946
0.0108219
0.0106622
0.0104485
0.0101387
0.00964083
0.0089474
0.00817124
0.00742394
0.00656186
0.00479113
0.00216204
0.00252894
0.00247124
0.00278234
0.00263875
0.0011652
0.00127614
0.00129344
0.00130296
0.00123408
0.00140229
0.00203564
0.00332539
0.00238924
0.00195801
0.00135795
0.00160463
0.00268462
0.00457107
0.00516235
0.00525015
0.00530767
0.00688421
0.00791965
0.00841847
0.00880241
0.00906134
0.0089351
0.00863966
0.00812205
0.007512
0.00727068
0.00688822
0.0065307
0.00633656
0.00612631
0.00575953
0.00456931
0.00430657
0.00448326
0.00444104
0.0042533
0.00453866
0.00469973
0.00469415
0.00474542
0.00479078
0.00493235
0.00509918
0.00524461
0.00532135
0.00535043
0.00536035
0.00537251
0.00538244
0.00540011
0.00538293
0.005266
0.00462453
0.0028914
0.00168725
0.00155968
0.00171012
0.00180842
0.00185043
0.00164282
0.00105732
0.00164343
0.00212712
0.00218192
0.0023941
0.00247015
0.00261991
0.00291999
0.00337511
0.00348324
0.00309071
0.00292726
0.00286379
0.00279079
0.00237917
0.00296528
0.00328022
0.00327522
0.00324573
0.00350858
0.0043187
0.00414775
0.00365641
0.00361366
0.00357593
0.00322463
0.00317432
0.00347856
0.00351802
0.00365218
0.00428446
0.0051403
0.00476706
0.00433996
0.00415647
0.00383636
0.00336846
0.00304403
0.00377393
0.00310841
0.00160137
0.00135769
0.00136645
0.00136539
0.00131062
0.0015522
0.00163253
0.00165574
0.00154608
0.0017169
0.00191177
0.00185279
0.00210132
0.00206999
0.00184757
0.00182691
0.00198892
0.00211129
0.00217172
0.0022182
0.00363093
0.00373601
0.00290377
0.00421428
0.00485634
0.00486324
0.00515597
0.00422842
0.00378027
0.00449016
0.00520825
0.00600707
0.00473338
0.00446603
0.00458406
0.00209155
0.0011003
0.00155297
0.001928
0.00214721
0.00208274
0.00196847
0.00166511
0.00296223
0.00304103
0.00483005
0.00541655
0.00548277
0.0054411
0.00546352
0.0059929
0.00695029
0.00787933
0.00814458
0.00802068
0.00766646
0.00701891
0.00639048
0.0063457
0.00613808
0.00597355
0.00592656
0.00517428
0.00452829
0.00481166
0.00475218
0.00490973
0.00498278
0.00503577
0.00509044
0.00518246
0.00529374
0.00539532
0.00546543
0.00551288
0.00555329
0.00559466
0.00563625
0.00568107
0.0057061
0.00565379
0.00511119
0.00306433
0.00182582
0.00166502
0.00177651
0.00208815
0.00219867
0.00236284
0.00209718
0.00110446
0.00129907
0.00225744
0.00250473
0.0023176
0.00216884
0.00213074
0.00178465
0.00323584
0.00319474
0.0050175
0.00564116
0.00571773
0.00569924
0.00565242
0.00559964
0.0055484
0.00550632
0.00547277
0.00543789
0.00538962
0.00533261
0.00527775
0.00522067
0.00512589
0.00498662
0.00485821
0.00506911
0.00520187
0.00543128
0.00569042
0.00581864
0.00571028
0.00554237
0.00546498
0.00550041
0.00555213
0.0056057
0.00565444
0.00568099
0.00562063
0.00529954
0.00497271
0.00314713
0.00318877
0.0015665
0.00173989
0.00200794
0.00207392
0.0022522
0.00224138
0.00176089
0.00137184
0.00154784
0.0014475
0.00258808
0.00284677
0.00315873
0.0031278
0.00169662
0.00174017
0.00180813
0.00203959
0.00189478
0.00183213
0.00455686
0.00435639
0.00455298
0.00559168
0.00481478
0.00332193
0.00364123
0.00506714
0.00534548
0.00323034
0.00242095
0.00268765
0.00340486
0.00501207
0.00507607
0.00482395
0.00479512
0.0034986
0.00429726
0.00517244
0.00503363
0.0039226
0.00270351
0.00201311
0.000975262
0.00185524
0.0015864
0.00389247
0.00430851
0.00425935
0.00466099
0.00494978
0.00500064
0.00486137
0.00430712
0.00439302
0.00443712
0.00505896
0.00508443
0.00429867
0.00362705
0.00294193
0.00296899
0.00302751
0.00335627
0.00420349
0.0039599
0.00346997
0.00336392
0.00329052
0.00309449
0.00279184
0.00244853
0.00246584
0.00229548
0.00222181
0.00350307
0.00466394
0.00550082
0.00565929
0.00571657
0.00562848
0.00558795
0.00542722
0.00534347
0.00464123
0.00592429
0.0062627
0.00604537
0.00609191
0.00613147
0.00617948
0.0061814
0.00606548
0.00521011
0.00311056
0.00203144
0.00229285
0.00247446
0.00232312
0.00231039
0.00246295
0.00233751
0.00205339
0.00332717
0.00325214
0.00520108
0.00589197
0.00601746
0.0060233
0.00599777
0.00597607
0.00598236
0.0062962
0.00615467
0.00625158
0.0065957
0.00660284
0.00668031
0.0062706
0.00618942
0.00613709
0.00610179
0.0060452
0.00589588
0.00521665
0.00505768
0.00574445
0.00592229
0.00600169
0.00605695
0.00612264
0.00620832
0.00645443
0.00663825
0.00670988
0.00642861
0.00631906
0.00617115
0.00596314
0.00591477
0.0059065
0.00590285
0.00587551
0.00572412
0.00503801
0.00323907
0.00331923
0.00197432
0.00198704
0.00228848
0.0024032
0.00235997
0.00218522
0.00213046
0.00367288
0.00418301
0.0044457
0.00479498
0.00458098
0.00455268
0.00520483
0.00503715
0.00448914
0.00467145
0.00418617
0.00398613
0.0038667
0.00389056
0.00203696
0.0021983
0.00229332
0.00225567
0.00215682
0.00192396
0.00176424
0.00322025
0.00319667
0.00315558
0.0018757
0.00183438
0.00216121
0.00209856
0.00191949
0.00163615
0.00179393
0.00277131
0.00310006
0.00480652
0.00497957
0.00532943
0.00569877
0.00583793
0.00587492
0.0058973
0.00592174
0.00597707
0.00604257
0.00606226
0.00606328
0.00611936
0.00610876
0.00611105
0.00608065
0.00604465
0.00600188
0.00595557
0.00587915
0.005722
0.00534622
0.00497794
0.00561233
0.00566447
0.00577037
0.00587948
0.00592571
0.00593229
0.00590943
0.00586445
0.00581059
0.00574975
0.00574599
0.00591026
0.00595251
0.00598158
0.00596345
0.00594236
0.00593608
0.00590996
0.00586809
0.00576061
0.00565242
0.00560656
0.0055125
0.00565849
0.00572389
0.00573312
0.00578765
0.00587525
0.00590068
0.00590028
0.00585626
0.00581989
0.00577203
0.00569282
0.00558488
0.0052434
0.00531942
0.0054125
0.00553531
0.00565368
0.00574929
0.00580352
0.0058086
0.00575643
0.00572098
0.00572231
0.00567365
0.00569878
0.00572469
0.00569515
0.00569064
0.00569279
0.00562431
0.00550314
0.00533565
0.0051597
0.0050178
0.0049522
0.0048366
0.00520515
0.0053607
0.00549633
0.0056152
0.00572188
0.00582942
0.00586081
0.00584774
0.00578352
0.00574703
0.00574592
0.00569066
0.00568666
0.00573993
0.00574169
0.00577205
0.00582666
0.00581323
0.00573766
0.00553529
0.00533965
0.00516906
0.00500435
0.00482685
0.00482234
0.00490109
0.00482062
0.00487386
0.00503816
0.00524999
0.0054353
0.00555738
0.00559763
0.00563436
0.00568672
0.00568154
0.00565059
0.00563302
0.00556229
0.0055
0.00542371
0.00526027
0.00505559
0.00487962
0.00483338
0.00493955
0.00503781
0.00494598
0.00456512
0.00474778
0.00492236
0.00509308
0.00533601
0.00561729
0.00573625
0.00577863
0.00575041
0.00572834
0.00572546
0.00567494
0.00565608
0.00570276
0.0057069
0.00572984
0.00576583
0.00573479
0.00564014
0.00529652
0.00488598
0.00468855
0.00457075
0.00441645
0.00497036
0.00507496
0.00494862
0.00486239
0.00499038
0.00513603
0.00528845
0.00539082
0.00543231
0.00549235
0.00557131
0.0056096
0.00555411
0.00548884
0.0054088
0.0053684
0.00537115
0.00534898
0.00525251
0.00513608
0.00499471
0.00516356
0.00526447
0.00516933
0.00465768
0.00473402
0.00485764
0.00492614
0.00531222
0.00564607
0.00571808
0.00571539
0.00567703
0.00565194
0.0056517
0.00562197
0.00556607
0.00555648
0.00555276
0.00562122
0.0057112
0.00576885
0.00579995
0.00555165
0.00509414
0.0050166
0.0047919
0.00469455
0.00523896
0.00529765
0.00517041
0.00505691
0.00530368
0.00540646
0.00543255
0.00540771
0.0053475
0.00530785
0.0053758
0.00548378
0.00540218
0.0050512
0.00473992
0.00490169
0.00494323
0.00493309
0.00486796
0.00475661
0.00451118
0.00504143
0.00556129
0.00560058
0.00503195
0.00504089
0.00490053
0.004562
0.00500554
0.00523605
0.00528261
0.00525412
0.00516668
0.0049666
0.0052449
0.0054906
0.00544312
0.00492725
0.00319702
0.00324021
0.00326182
0.0032639
0.0032219
0.00320998
0.00316409
0.00314034
0.00306933
0.00299674
0.00292815
0.00312116
0.00328596
0.00350943
0.0035289
0.00362183
0.0034725
0.00329207
0.00307834
0.00240316
0.00304823
0.00363457
0.00385983
0.00414981
0.00420841
0.00484075
0.00508781
0.00521898
0.00511623
0.00410727
0.00348458
0.00278538
0.00181168
0.00112904
0.00132542
0.00137879
0.00144997
0.00177617
0.00328832
0.00167781
0.00232658
0.00181727
0.00313434
0.00165063
0.00103222
0.000685538
0.000878135
0.00104848
0.00106222
0.00101781
0.000849641
0.000670524
0.000685466
0.000639406
0.000679362
0.00060791
0.000695683
0.000645781
0.000889113
0.0012977
0.00150296
0.00154038
0.00124697
0.00140994
0.0011783
0.00136098
0.0012165
0.0013265
0.00127262
0.00155662
0.00170586
0.00163255
0.00163636
0.00143181
0.00100131
0.00116088
0.00091199
0.00109529
0.000838051
0.00108145
0.000927464
0.00120512
0.0012422
0.00123851
0.00119233
0.000910794
0.00107974
0.000850444
0.00105019
0.000864474
0.000927805
0.00077336
0.00112492
0.00114685
0.00105711
0.00112683
0.0012658
0.00135658
0.00148844
0.00140309
0.00159097
0.0015306
0.00154235
0.00146125
0.00142121
0.00138916
0.00139247
0.00136978
0.00137726
0.00142153
0.00142332
0.00142856
0.00147316
0.0014517
0.00141607
0.00139427
0.00123875
0.00100033
0.00174288
0.00179721
0.00182495
0.00182531
0.00178553
0.00176438
0.00170054
0.00168407
0.00162944
0.00159907
0.00152656
0.00146895
0.00140183
0.00157713
0.000883155
0.00100299
0.0010588
0.00109083
0.00111233
0.00112247
0.00112998
0.00112339
0.001109
0.00108209
0.00107349
0.00104397
0.00133497
0.00151879
0.00158871
0.00160784
0.0015069
0.00143542
0.00315381
0.00382134
0.00579891
0.00592719
0.00445526
0.00443941
0.0015314
0.00161965
0.00110626
0.00155447
0.00160298
0.00158657
0.00149851
0.0010808
0.00162226
0.00113137
0.00152251
0.00114698
0.00141417
0.00118264
0.00169364
0.00216423
0.00209368
0.00189975
0.00131611
0.00110278
0.00111347
0.000953635
0.00104568
0.000849548
0.00103082
0.000859335
0.00124923
0.00173715
0.00194536
0.00198664
0.00156777
0.00216411
0.00162777
0.00235936
0.00187711
0.0023189
0.00186295
0.002154
0.00266542
0.00267764
0.00261385
0.00210645
0.00168596
0.00189321
0.00167643
0.00193187
0.00279666
0.00183228
0.0027874
0.00115037
0.00156828
0.00161689
0.00159503
0.00150414
0.00101321
0.00257925
0.00136497
0.00242414
0.00156976
0.00251272
0.00183407
0.00244432
0.00292512
0.00306635
0.00305923
0.00249911
0.00226276
0.00235387
0.00188378
0.00226345
0.00167836
0.00242827
0.00136258
0.00176169
0.00193664
0.00204041
0.00204635
0.00167844
0.0033192
0.00208613
0.00314931
0.00219278
0.00281109
0.00225373
0.00246314
0.0029097
0.0028911
0.00286608
0.00243011
0.00196765
0.00259812
0.00185111
0.0556998
0.128303
0.0512314
0.129798
0.0586962
0.0833729
0.0821529
0.082325
0.0826598
0.0621322
0.135476
0.15993
0.166704
0.168698
0.167427
0.270514
0.220585
0.331291
0.214642
0.126477
0.0549554
0.0756639
0.194981
0.321801
0.483107
0.613142
0.417914
0.43269
0.276123
0.272315
0.256503
0.207639
0.127418
0.0639882
0.0109043
0.0118939
0.0170357
0.0227076
0.0178237
0.0108749
0.00215058
0.00221846
0.00226761
0.00229772
0.0022882
0.00223708
0.00226893
0.00213715
0.00200354
0.0022372
0.00244119
0.00271247
0.00317119
0.00349693
0.00314926
0.0034494
0.00365444
0.00382124
0.00395931
0.00416566
0.00439835
0.00460296
0.0046136
0.00422698
0.00360271
0.00292984
0.00246154
0.00233166
0.00218933
0.0019306
0.00176585
0.00165263
0.00159847
0.00157616
0.00161993
0.00177057
0.00190147
0.0019474
0.0019093
0.00187439
0.00184394
0.00164201
0.00191992
0.00263365
0.00265408
0.00454726
0.00523978
0.00534883
0.00535638
0.00474767
0.00303275
0.00303967
0.0030554
0.00311437
0.00312685
0.00313602
0.00313309
0.00312333
0.00310541
0.00307249
0.00305567
0.00300649
0.00296453
0.00285897
0.00286368
0.00290178
0.00293124
0.00288292
0.00289493
0.0028332
0.0036892
0.00492754
0.00555486
0.0058053
0.00602053
0.00584334
0.00809795
0.00692847
0.00487113
0.00479773
0.0047368
0.00562446
0.00566177
0.00509428
0.00511466
0.00468638
0.00292338
0.00291409
0.00291585
0.00311828
0.00317947
0.00328478
0.0033141
0.00333764
0.00335276
0.00334248
0.0033393
0.00330658
0.00328343
0.00320742
0.00318223
0.00317135
0.00174863
0.00190865
0.00198061
0.00199493
0.00202593
0.00201498
0.00200519
0.00198172
0.00196725
0.00193476
0.00189796
0.00184163
0.00173157
0.00157736
0.00173666
0.00294756
0.00294712
0.0048104
0.00539955
0.00543831
0.0060776
0.00576768
0.0054633
0.00586741
0.00527623
0.00523191
0.00475001
0.00295046
0.00299001
0.00177497
0.00175804
0.00205589
0.00199837
0.00213547
0.00219354
0.00219875
0.00222817
0.0022559
0.00229083
0.00234637
0.00236136
0.00232127
0.00231257
0.00217809
0.0018822
0.00190413
0.00224457
0.00235439
0.00218851
0.00215338
0.00213884
0.00208874
0.00204988
0.00201272
0.00203999
0.00219785
0.00219637
0.00215795
0.00205488
0.00200209
0.00173643
0.00167932
0.00293006
0.00296172
0.00485905
0.00499461
0.00497398
0.00573405
0.00639427
0.00726942
0.00620194
0.00502619
0.00516978
0.00591111
0.00438676
0.00365314
0.00216534
0.00166047
0.00202686
0.00193825
0.00201791
0.00209051
0.00185565
0.00199244
0.001841
0.0016727
0.00166278
0.00166057
0.00170102
0.0017181
0.00174868
0.00175273
0.00179345
0.00178903
0.00179263
0.0018142
0.00182129
0.00201199
0.00218382
0.00183902
0.00156005
0.00152226
0.00143786
0.00136997
0.00140386
0.00137143
0.00136323
0.00133859
0.00131609
0.00125623
0.0013094
0.00138992
0.00162652
0.00155746
0.00125844
0.00112398
0.000768162
0.000783128
0.00078853
0.000812601
0.000821441
0.00083225
0.000836286
0.000849706
0.000852305
0.00085651
0.000856149
0.000876272
0.000873179
0.00086286
0.000856361
0.000860438
0.000864113
0.000863275
0.00126402
0.00140689
0.00153422
0.00182133
0.00214192
0.00184382
0.0015637
0.00135019
0.000868259
0.000881259
0.000896984
0.00090526
0.000924035
0.000941393
0.000960441
0.000972524
0.000981353
0.000990789
0.00100068
0.00100461
0.00100197
0.00098263
0.000971169
0.000995994
0.00109465
0.00115208
0.00122566
0.00125356
0.00127741
0.00128948
0.0012834
0.00129685
0.00128157
0.00127954
0.00125757
0.0012483
0.00123928
0.00122808
0.00121406
0.00117964
0.00116808
0.00122897
0.00207893
0.0027176
0.0031288
0.00344559
0.00317632
0.00256742
0.00270995
0.0047543
0.00449277
0.00266227
0.00248006
0.00228084
0.00198014
0.00176968
0.00214403
0.00244346
0.00267065
0.00287115
0.00305434
0.00317863
0.00333875
0.003548
0.00391779
0.00396405
0.00361575
0.00292905
0.00247803
0.00231291
0.00223396
0.00209767
0.00194885
0.00199784
0.00201241
0.00195264
0.00187842
0.00185752
0.00188838
0.00192824
0.00190526
0.00190465
0.00170176
0.00170114
0.00290706
0.00296072
0.00455455
0.00479912
0.00484608
0.00311483
0.00307253
0.00179449
0.0016669
0.00181858
0.00188822
0.00189237
0.00190041
0.00189133
0.00185842
0.0018346
0.0018065
0.00178378
0.00176349
0.00172843
0.00166132
0.00153485
0.00167249
0.00187453
0.00195787
0.00197963
0.00199021
0.00202152
0.00207333
0.00211432
0.00220994
0.00221882
0.00221765
0.00222524
0.00207935
0.00214404
0.00181434
0.00181142
0.0031401
0.00313103
0.00179864
0.00212393
0.00213876
0.00211493
0.0022774
0.00208387
0.00201803
0.00200822
0.00192336
0.0018783
0.00181764
0.00178164
0.00181633
0.00193208
0.00187057
0.00165834
0.0015976
0.00179215
0.00172446
0.00143055
0.00122211
0.00118856
0.00113776
0.00110694
0.00116029
0.00120211
0.00122592
0.00125605
0.00126491
0.00132015
0.00128409
0.00134692
0.0014284
0.00149331
0.00177108
0.00191963
0.00173417
0.00170103
0.00167998
0.00167891
0.00168446
0.00161515
0.00161062
0.00157479
0.00155708
0.00150986
0.00148867
0.00146171
0.00146646
0.00148183
0.00162914
0.00419559
0.00535078
0.00557098
0.00952607
0.00384525
0.0039257
0.00772517
0.00318088
0.00479128
0.00513474
0.0053662
0.00560543
0.00512885
0.00653336
0.00454986
0.0050691
0.00528086
0.00462504
0.00173451
0.0019837
0.00228452
0.00203508
0.00179716
0.00122429
0.00131911
0.00136184
0.00139668
0.0014191
0.00144428
0.0014711
0.00149633
0.00151387
0.00151393
0.00146759
0.00141778
0.00130345
0.00126541
0.00131423
0.00136466
0.00119825
0.00112822
0.00114138
0.00115994
0.00117026
0.00117229
0.00118351
0.00118641
0.00120422
0.00119442
0.00120324
0.00118248
0.00119254
0.00117728
0.00113739
0.00108105
0.000985655
0.000962492
0.00138648
0.00147667
0.00155128
0.00176122
0.00203452
0.00217148
0.00194657
0.00179547
0.00172344
0.0019117
0.00191336
0.0034842
0.00669357
0.00299143
0.00334904
0.00978391
0.00388519
0.00301613
0.00306128
0.0030932
0.00309767
0.00179994
0.00213155
0.00206623
0.00207559
0.00176063
0.00147852
0.00132613
0.00118563
0.000804259
0.000801726
0.000807771
0.00082036
0.000824316
0.000789007
0.000788918
0.000784438
0.000782708
0.000766055
0.000761424
0.000747856
0.000739627
0.000720053
0.000709496
0.000691009
0.000687912
0.000720016
0.00080282
0.000970828
0.00107786
0.0012271
0.00124859
0.00139963
0.00346949
0.00401896
0.00554596
0.00549737
0.00866786
0.0054164
0.00408946
0.0036931
0.005407
0.00558991
0.00518861
0.00702686
0.00485883
0.00322123
0.0048995
0.00408584
0.00479259
0.00471687
0.00500756
0.00794233
0.00833694
0.00234208
0.00208717
0.00219492
0.00249084
0.00295811
0.00272654
0.00310483
0.00310746
0.00240316
0.00152192
0.00485093
0.00587037
0.00473081
0.0056932
0.00872627
0.0035015
0.00341453
0.00302066
0.00252093
0.00229073
0.00226061
0.00252126
0.00301734
0.0075581
0.00808671
0.00748971
0.00748635
0.00679606
0.00744319
0.00925675
0.00920236
0.00813522
0.007608
0.0078945
0.00493762
0.00303976
0.0035311
0.00391642
0.00522698
0.00538974
0.0113562
0.00386719
0.00426484
0.00432992
0.00578842
0.00561652
0.00989092
0.00421172
0.00453321
0.00597554
0.00798553
0.0146699
0.00538554
0.00565525
0.00812563
0.0082523
0.0075463
0.00546547
0.00494672
0.00538033
0.00405482
0.00396587
0.00338367
0.00499334
0.00670716
0.00532042
0.00516539
0.00438651
0.00392756
0.00400113
0.00415526
0.00345358
0.00340481
0.00392474
0.00293493
0.0028309
0.00298891
0.00082946
0.000424942
0.000434356
0.000445699
0.000454889
0.000464393
0.000471283
0.000479527
0.000483146
0.000483609
0.000484957
0.000512713
0.000507804
0.000491725
0.000446488
0.000509382
0.000808377
0.000808822
0.000508705
0.000448421
0.000804783
0.00128217
0.00151153
0.0017877
0.00180945
0.00156152
0.00135405
0.000833704
0.000820548
0.000497275
0.000580804
0.000630699
0.000559488
0.000624507
0.000578907
0.000613097
0.000619802
0.000573634
0.000570282
0.000572425
0.000568141
0.000557983
0.000545642
0.000530564
0.000518808
0.000512562
0.000508022
0.000497724
0.000412572
0.000385051
0.000464497
0.00074238
0.000742202
0.000694863
0.000653761
0.000618476
0.000602096
0.000597321
0.000593878
0.000604264
0.000623707
0.000629252
0.000634971
0.000684102
0.0006622
0.000707242
0.000663847
0.000709125
0.000665477
0.000612222
0.000514049
0.000530338
0.000855724
0.00086484
0.00139691
0.00159755
0.00181131
0.00182026
0.00203243
0.00214113
0.00181374
0.00188307
0.00215753
0.00200877
0.00178979
0.001797
0.00161607
0.00161802
0.00143381
0.00089633
0.000884212
0.00055521
0.000539247
0.000642969
0.000631801
0.000702603
0.000752018
0.000752262
0.000749867
0.000731702
0.000725042
0.000637555
0.000624856
0.000625696
0.000606866
0.000602916
0.000629243
0.000688004
0.000808886
0.000978993
0.00106549
0.00110146
0.00105558
0.000944663
0.00069901
0.000630298
0.00109402
0.00113357
0.0020442
0.00486628
0.00227713
0.00429615
0.00309858
0.000768431
0.000856548
0.00109213
0.00122359
0.0013213
0.00137839
0.00126097
0.00105275
0.00079238
0.000654372
0.000975249
0.000843232
0.000951401
0.000830685
0.00107509
0.00124288
0.00120221
0.00121109
0.00102335
0.000833432
0.000882621
0.000792144
0.000873045
0.000730998
0.00087944
0.000793942
0.000997622
0.00100697
0.000985992
0.000934559
0.000711563
0.000746601
0.000626284
0.000679488
0.000610145
0.000630733
0.000597649
0.00069699
0.000803187
0.000770903
0.000767937
0.00063103
0.000494563
0.000546313
0.000472725
0.000535078
0.000416041
0.0005039
0.000422429
0.00054694
0.000563945
0.00056716
0.000564076
0.000459584
0.000540756
0.000661283
0.000693863
0.000699344
0.000665614
0.000513495
0.000794178
0.000715694
0.000873762
0.000755302
0.000827275
0.000753184
0.000877878
0.00112439
0.00117405
0.00118183
0.00095897
0.000952959
0.00174026
0.0965951
0.00156547
0.00185037
0.00190826
0.00190152
0.00157211
0.00153348
0.00190001
0.00140492
0.00199024
0.00125331
0.00212354
0.000809289
0.00123024
0.00132083
0.00131803
0.00122496
0.000822162
0.00243197
0.119008
0.307941
0.334282
0.333724
0.320734