/*--------------------------------*- C++ -*----------------------------------*\
| =========                 |                                                 |
| \\      /  F ield         | OpenFOAM: The Open Source CFD Toolbox           |
|  \\    /   O peration     | Version:  v2012                                 |
|   \\  /    A nd           | Website:  www.openfoam.com                      |
|    \\/     M anipulation  |                                                 |
\*---------------------------------------------------------------------------*/
FoamFile
{
    version     2.0;
    format      ascii;
    class       volScalarField;
    location    "1105";
    object      epsilon;
}
// * * * * * * * * * * * * * * * * * * * * * * * * * * * * * * * * * * * * * //

dimensions      [0 2 -3 0 0 0 0];


internalField   nonuniform List<scalar> 
18258
(
0.0239922
0.0122366
0.00910893
0.00716074
0.0126399
0.0125147
0.0129752
0.0173069
0.0241109
0.0369418
0.0535114
0.048122
0.0435177
0.0452757
0.0474555
0.0450327
0.035103
0.0303583
0.0400176
0.0667003
0.0607321
0.0496496
0.060701
0.0513842
0.0658096
0.0831883
0.0638289
0.0572966
0.0513799
0.0483477
0.0419056
0.0242751
0.0341005
0.0525171
0.0719895
0.0788277
0.0846074
0.0895069
0.0946651
0.0968064
0.0970638
0.0918449
0.0826556
0.0674857
0.0494468
0.0378005
0.0290099
0.0322023
0.0449736
0.045341
0.0559575
0.0859131
0.10833
0.0811569
0.0518925
0.0827147
0.112728
0.144491
0.170973
0.19338
0.201053
0.197592
0.186034
0.169286
0.147831
0.122843
0.101859
0.0849462
0.0671662
0.0573742
0.0464317
0.0385252
0.0329623
0.0293046
0.0271049
0.0253766
0.0242098
0.0251427
0.0250296
0.0178503
0.0140428
0.0131936
0.00944012
0.0078471
0.00816647
0.00776882
0.00807008
0.00712562
0.00610086
0.00529356
0.00448461
0.00652438
0.00701678
0.00725721
0.00727627
0.00780173
0.00806342
0.0078003
0.00789691
0.00723054
0.00737744
0.0118659
0.0136612
0.0173385
0.0154651
0.010685
0.00910903
0.0101496
0.0107744
0.0133812
0.012578
0.0133624
0.0118525
0.0108188
0.00913938
0.00888024
0.00911962
0.00969383
0.0101024
0.0117094
0.0115363
0.0106953
0.011833
0.0130593
0.0127884
0.0122413
0.0116565
0.0143042
0.0115022
0.0121883
0.0136894
0.0220558
0.0215814
0.0260734
0.0255948
0.0260415
0.0262264
0.0316239
0.0317453
0.0321166
0.0324364
0.034131
0.0572143
0.0509913
0.0498877
0.049694
0.0430023
0.0425326
0.0418345
0.04265
0.0361694
0.0348176
0.0315683
0.0312021
0.0348102
0.0439583
0.061457
0.0887291
0.12269
0.159047
0.189338
0.210359
0.232115
0.237573
0.251498
0.256248
0.257173
0.2515
0.243087
0.233623
0.220779
0.202242
0.189379
0.148917
0.105439
0.0592912
0.0787212
0.0908207
0.100594
0.102448
0.103556
0.0994005
0.0930644
0.0818166
0.0661868
0.0429648
0.0489822
0.0662433
0.068465
0.0691438
0.0548202
0.0527189
0.0489087
0.0488588
0.0641272
0.0736823
0.0619712
0.0857843
0.100755
0.0880776
0.0638322
0.0977733
0.143851
0.0809679
0.0689259
0.0534984
0.0525348
0.0444394
0.0372985
0.062752
0.0939012
0.12939
0.150792
0.172744
0.190476
0.20386
0.218008
0.189493
0.172119
0.115808
0.203129
0.154443
0.0781816
0.0579386
0.0568249
0.0435347
0.0498814
0.0553401
0.0513099
0.0392427
0.0273864
0.0252149
0.0464408
0.0646643
0.0781255
0.0622268
0.0791592
0.0891594
0.0964516
0.101777
0.129105
0.0950178
0.10643
0.076402
0.103653
0.0736925
0.047586
0.0528642
0.101113
0.16139
0.221449
0.258705
0.147521
0.0747538
0.0555721
0.0559081
0.0536728
0.0484027
0.060106
0.106898
0.0720944
0.0467917
0.0406564
0.0481016
0.0409033
0.0304562
0.0318694
0.0396031
0.0551431
0.0697123
0.0826172
0.126244
0.122277
0.14759
0.15508
0.13064
0.126253
0.0815865
0.0837771
0.123557
0.0921042
0.0744751
0.104502
0.147647
0.201894
0.24825
0.288732
0.314686
0.304044
0.275067
0.173979
0.0761958
0.0229434
0.0178225
0.016859
0.0173339
0.0105335
0.00631028
0.0058659
0.00668561
0.00702768
0.00591781
0.00544516
0.00543526
0.00578605
0.0101856
0.00875255
0.010832
0.0131257
0.015677
0.0187246
0.0194543
0.0129088
0.00873787
0.00819992
0.00813552
0.00806648
0.0080369
0.00804838
0.00808862
0.0081044
0.00807196
0.00799318
0.007856
0.00772047
0.00766329
0.00830033
0.011194
0.01536
0.0148505
0.0135597
0.012203
0.0110403
0.0087095
0.0151571
0.0128497
0.0109411
0.0134034
0.0165126
0.0208702
0.0245233
0.0176901
0.0141629
0.0128185
0.0126933
0.0125802
0.0126273
0.012507
0.0125752
0.0123806
0.0129848
0.0135869
0.0169823
0.0190066
0.0211812
0.0226756
0.0232523
0.0239668
0.021138
0.0229556
0.0227284
0.0235098
0.0233246
0.0226379
0.0207242
0.0189377
0.0177196
0.0191373
0.0237088
0.0323723
0.0267632
0.020772
0.0168083
0.0137481
0.015015
0.0166913
0.0168668
0.0158792
0.0156471
0.0154385
0.0139191
0.0131358
0.011121
0.0105089
0.0100412
0.0101887
0.0143652
0.0135189
0.0137279
0.0144648
0.0155695
0.0147267
0.0151597
0.0143081
0.0145558
0.0149771
0.017039
0.018601
0.0178405
0.0165186
0.0160217
0.0137517
0.0158615
0.0157226
0.0170434
0.0186306
0.0191235
0.0190584
0.0184203
0.0168241
0.0187175
0.0220897
0.0257452
0.0247429
0.0244173
0.0204683
0.0192641
0.0202343
0.0215044
0.0224098
0.022484
0.0223195
0.0224133
0.026435
0.0261005
0.0248911
0.0228116
0.020354
0.0177089
0.0152362
0.0167108
0.0181932
0.0195852
0.0208543
0.0206095
0.0190845
0.0177257
0.0164943
0.0150005
0.0147079
0.0161616
0.0173835
0.0188135
0.020524
0.0205954
0.0188861
0.017393
0.0161117
0.0146379
0.0145868
0.0160869
0.0173839
0.018799
0.02028
0.0196479
0.0184954
0.0172466
0.0160053
0.0145532
0.0146194
0.0159409
0.0170087
0.0180909
0.0190396
0.0198956
0.0179336
0.0170241
0.0171183
0.016131
0.0193183
0.0185601
0.0195026
0.0180487
0.0168223
0.0178279
0.0210226
0.0240601
0.0246126
0.0243328
0.0201959
0.020652
0.0206287
0.0192083
0.0159807
0.0153838
0.018162
0.0209071
0.0213712
0.0200578
0.0169459
0.0133014
0.0143254
0.0174957
0.0198128
0.0185518
0.0183899
0.0169725
0.0158931
0.0161932
0.0139114
0.0166498
0.026745
0.0242064
0.0221901
0.0197217
0.015706
0.0106302
0.0115308
0.012692
0.0131086
0.0105937
0.00793005
0.00712015
0.00692637
0.0067682
0.00655006
0.00618262
0.00562624
0.00538232
0.0105765
0.0255905
0.036396
0.0357943
0.0241043
0.0207249
0.0199963
0.0184672
0.00885603
0.00817243
0.0083837
0.0103762
0.00821292
0.00830445
0.0143954
0.00998868
0.0137334
0.010695
0.0146427
0.0229284
0.021668
0.0143259
0.00801036
0.00690342
0.00739424
0.00767687
0.00788057
0.00807743
0.00831165
0.00869924
0.0100248
0.0157657
0.0203514
0.0178046
0.0168155
0.0153378
0.0188856
0.0213684
0.0233056
0.0260679
0.0161119
0.0118002
0.0166521
0.0272969
0.024785
0.0233298
0.0171848
0.017725
0.0171491
0.0110258
0.0106785
0.0105946
0.0114082
0.0127997
0.014725
0.0158786
0.0166262
0.0169563
0.0178694
0.0231363
0.0216474
0.021131
0.017344
0.0134329
0.0154299
0.0516897
0.0195909
0.0207035
0.0189157
0.0191828
0.0204693
0.0151585
0.0135068
0.0129364
0.0146368
0.0215294
0.0215437
0.0214089
0.0182729
0.0174879
0.0209206
0.0220092
0.0224052
0.0217856
0.0213471
0.0194832
0.0166992
0.018131
0.0196495
0.0208451
0.0228531
0.0231922
0.0179735
0.0172493
0.0158536
0.0105542
0.0112979
0.00973362
0.00970378
0.0096705
0.00939751
0.00894704
0.00923489
0.00935158
0.00934918
0.00900245
0.00929989
0.00834949
0.00868561
0.00977791
0.0152281
0.0147937
0.017593
0.0195044
0.0167481
0.0155883
0.014225
0.0132014
0.0154567
0.014294
0.0168719
0.021228
0.0265237
0.0191485
0.0181518
0.0179276
0.0175216
0.017363
0.0174152
0.0167202
0.015716
0.0151473
0.0236059
0.021303
0.0181771
0.0172272
0.0157931
0.0180478
0.0174903
0.0213929
0.0268825
0.0270867
0.0215603
0.0216378
0.0189783
0.0200845
0.0222768
0.027122
0.0270463
0.0144514
0.00960792
0.0154546
0.0157957
0.0184076
0.0170221
0.0185515
0.0197325
0.0204619
0.02032
0.0177166
0.0188947
0.0196842
0.0206716
0.0186149
0.0166083
0.0173991
0.0161751
0.0152734
0.0147711
0.0126942
0.0129423
0.0139168
0.0153705
0.0163132
0.0178105
0.0194705
0.019498
0.0201689
0.0197639
0.0191608
0.0252688
0.0240256
0.0255677
0.0282857
0.0224821
0.0178383
0.0147085
0.0150229
0.0147887
0.0146966
0.0154366
0.0167973
0.0151732
0.0145537
0.0170733
0.0194408
0.0247195
0.0331138
0.028849
0.0262603
0.0332681
0.0314197
0.0382952
0.0287147
0.0281805
0.0208862
0.0263222
0.0305369
0.0392648
0.0255538
0.0209882
0.0224419
0.0255609
0.0348215
0.03284
0.0332182
0.0412534
0.0400158
0.0362369
0.0312069
0.0354166
0.0212842
0.0302309
0.0322646
0.0268412
0.0257434
0.0307959
0.0311207
0.0330541
0.0283973
0.0268078
0.0179434
0.0274966
0.0314428
0.0331393
0.0278675
0.0205468
0.0280581
0.0205838
0.0192178
0.0203305
0.0137962
0.0127413
0.0148178
0.0138874
0.0112106
0.0121614
0.0111812
0.0111695
0.0112526
0.0113702
0.011506
0.011767
0.0117395
0.0127763
0.013365
0.0126627
0.0115897
0.0122362
0.012574
0.0160958
0.0181846
0.020448
0.0220364
0.0228768
0.0240299
0.0227711
0.0248515
0.0237457
0.0252563
0.0249776
0.0239107
0.0213786
0.0187276
0.0163127
0.0167772
0.0204116
0.0267991
0.0219429
0.0169869
0.0137334
0.0113743
0.012666
0.0158496
0.00860171
0.00784362
0.00753961
0.00734868
0.00716917
0.006305
0.00568662
0.00883082
0.0131614
0.016416
0.0204397
0.0260332
0.0321246
0.0374319
0.0414497
0.0443173
0.0460896
0.0465319
0.0436501
0.0333431
0.0287287
0.02474
0.0205229
0.0167593
0.0169182
0.024607
0.0322077
0.0396841
0.0462625
0.0511735
0.0492685
0.0331125
0.0302396
0.0467339
0.078369
0.0742555
0.0973581
0.110944
0.0631947
0.0467223
0.0454992
0.0620469
0.0646503
0.0566364
0.0466972
0.0364988
0.0263747
0.0307855
0.0351079
0.0392211
0.0435564
0.0573431
0.0603799
0.0591831
0.0566096
0.0532118
0.0484779
0.0414627
0.0329607
0.0250272
0.0191359
0.0145472
0.00960243
0.00711711
0.00816778
0.00749596
0.0109018
0.00947375
0.00830399
0.00784574
0.00808941
0.00795463
0.00813411
0.00718661
0.00647736
0.0103506
0.00951354
0.00946341
0.0100845
0.0133804
0.0103049
0.00763189
0.00719711
0.00711645
0.00734117
0.0162665
0.0251039
0.0304719
0.0350715
0.0384357
0.036971
0.0335153
0.0278662
0.0220573
0.0199162
0.0170077
0.0145152
0.0133268
0.0146257
0.0121099
0.00617896
0.00515413
0.00567133
0.0055685
0.00510179
0.00612323
0.00680859
0.00741903
0.00784097
0.00815132
0.00821193
0.0081507
0.0080611
0.00801766
0.00799849
0.00797118
0.00790763
0.00781356
0.00767284
0.00753785
0.00747524
0.00806927
0.0106792
0.0145923
0.0143576
0.0132469
0.0121394
0.0112798
0.00955746
0.0153861
0.0130664
0.0109555
0.010134
0.00999295
0.0102939
0.0112667
0.0129162
0.0138432
0.0158529
0.0158907
0.0157815
0.0160613
0.0158451
0.0131548
0.0149179
0.0176974
0.0185343
0.0191616
0.0189409
0.0174095
0.019425
0.0205551
0.019982
0.0193592
0.0164314
0.019123
0.0231881
0.0236448
0.023949
0.0213019
0.0184781
0.0216332
0.0227812
0.0223414
0.0232015
0.0213097
0.0220237
0.0278103
0.0141387
0.0127221
0.00764713
0.00867049
0.00882573
0.00844582
0.00815647
0.00848912
0.0087434
0.00857431
0.00924846
0.00956044
0.00890968
0.0114122
0.0104802
0.0100553
0.00942331
0.0100304
0.0107728
0.0111297
0.012165
0.0195174
0.0199494
0.0181999
0.0206131
0.0212087
0.0180031
0.0204158
0.0212826
0.0215135
0.0218508
0.0234157
0.0220804
0.0244209
0.0235788
0.0223041
0.0215302
0.0382279
0.0252407
0.0166291
0.0153226
0.0149573
0.0150232
0.0169248
0.0127647
0.0142971
0.0101011
0.00874417
0.00836761
0.00806098
0.0082047
0.0109242
0.0171854
0.0252081
0.0279721
0.0268071
0.0234799
0.018046
0.0135937
0.0132649
0.0120319
0.0112311
0.0111046
0.00752694
0.00515479
0.00641384
0.00656574
0.00714229
0.00755013
0.00788299
0.00813461
0.00827355
0.00834484
0.00842599
0.0085454
0.00867558
0.00878832
0.00887738
0.00894232
0.00901061
0.00913638
0.00944847
0.0106574
0.0153042
0.0196873
0.0185667
0.0171044
0.0158
0.0165631
0.0173149
0.0180326
0.0222098
0.0191096
0.0219978
0.0206894
0.0197057
0.0182921
0.0190323
0.020816
0.0166201
0.0165617
0.0113177
0.00987472
0.00948976
0.00926783
0.00909335
0.00892073
0.00875038
0.00859858
0.00845612
0.008333
0.00823704
0.00815107
0.00800801
0.00775756
0.00735711
0.00690782
0.00612358
0.00677989
0.00728248
0.00830356
0.00952528
0.0101154
0.00952647
0.00872074
0.00836106
0.00848864
0.00867694
0.0088852
0.00912208
0.00944703
0.0099264
0.0109116
0.0115873
0.0162528
0.0169963
0.0202205
0.0200216
0.0179342
0.01729
0.0188949
0.0174149
0.0126639
0.0173726
0.0168975
0.0211525
0.0157135
0.0148266
0.0152466
0.0157285
0.0183618
0.0172698
0.0157861
0.0157512
0.0126501
0.014232
0.0162385
0.0177185
0.0279331
0.0273851
0.0344386
0.0343632
0.0592425
0.056387
0.0497213
0.053756
0.0237497
0.0463822
0.0542346
0.0494488
0.0429195
0.0273524
0.0436969
0.0664931
0.0962324
0.0694117
0.0567628
0.105416
0.076638
0.0373583
0.0265896
0.0150129
0.0150961
0.0250479
0.0290848
0.0241079
0.0232648
0.0334194
0.0347828
0.0280187
0.0286833
0.0310594
0.0299922
0.0324532
0.0280933
0.027389
0.0155345
0.012753
0.0137904
0.0155324
0.0165531
0.0160511
0.016889
0.0175531
0.0161025
0.015068
0.0145025
0.0124347
0.0131715
0.0161538
0.0203677
0.023875
0.0172457
0.0138605
0.0125661
0.0123725
0.0121449
0.0120232
0.0116986
0.0115075
0.0110336
0.0112355
0.00977681
0.00979455
0.010338
0.0105082
0.0107183
0.0108815
0.0110089
0.0111228
0.0119807
0.0187391
0.025917
0.0207364
0.0164318
0.0139515
0.0151411
0.0170654
0.020967
0.0263858
0.0178229
0.017645
0.011509
0.0107369
0.0105255
0.0103482
0.0101914
0.0100881
0.0101445
0.010145
0.0118833
0.0115871
0.0136079
0.0146741
0.0121193
0.0116848
0.0112099
0.0109205
0.0107604
0.0106737
0.0107614
0.0116217
0.0114552
0.0105269
0.0104344
0.0105568
0.0107729
0.0110989
0.0115493
0.0120569
0.0129788
0.0127604
0.0112217
0.0111942
0.0105365
0.0102324
0.0100043
0.00998783
0.0100418
0.0101871
0.0104125
0.0113168
0.0171066
0.0172906
0.0266053
0.0265835
0.02113
0.0176556
0.0155006
0.0142478
0.0135171
0.0350683
0.0307991
0.048693
0.0389011
0.0311654
0.0505391
0.0718411
0.0558215
0.0907981
0.0981221
0.0723642
0.0654668
0.020878
0.0159133
0.0154127
0.0169024
0.0185964
0.0212341
0.0218231
0.0266385
0.0287356
0.0171645
0.0164851
0.0155651
0.0248441
0.0230162
0.0196465
0.0177611
0.0163741
0.0189139
0.0207097
0.0149567
0.0150068
0.00966772
0.0106729
0.0104167
0.0100762
0.00995517
0.00987614
0.00990824
0.0099992
0.01028
0.0107718
0.0111544
0.0113137
0.0116309
0.011414
0.0111436
0.0108256
0.0106369
0.0104469
0.0102907
0.0101696
0.0102021
0.0105175
0.0106616
0.00935513
0.00970156
0.00981083
0.00982281
0.00985448
0.00981849
0.0096794
0.0094698
0.00926616
0.00905478
0.00909191
0.00989398
0.0100462
0.0101074
0.00995604
0.00984034
0.0098357
0.00977438
0.00976388
0.0097594
0.00963882
0.00932625
0.00860164
0.00844987
0.00905328
0.00939718
0.0095737
0.00965219
0.00963365
0.00957595
0.00934005
0.00916338
0.00894993
0.00860372
0.00813671
0.00673378
0.00701988
0.00738014
0.0078848
0.00840491
0.00886069
0.00916709
0.00932869
0.00942075
0.00933887
0.00904713
0.00851919
0.00846482
0.00885533
0.00903401
0.00899034
0.00872356
0.0083064
0.00773729
0.00703188
0.00635127
0.00583958
0.0056145
0.00523188
0.00652148
0.00712153
0.00767442
0.00818575
0.00867138
0.00919519
0.00939751
0.00945445
0.00943718
0.0092831
0.00895351
0.00842646
0.0084286
0.00890406
0.00921358
0.00933777
0.00931574
0.00913547
0.00873107
0.00781432
0.00700444
0.00635048
0.00576242
0.00517139
0.00515658
0.00541281
0.00515089
0.00532687
0.00589291
0.00668968
0.00746797
0.00808358
0.00851678
0.00870518
0.00865737
0.00840734
0.00830867
0.00842915
0.00836779
0.00805782
0.00748613
0.00673909
0.00594478
0.00532803
0.00517109
0.00551712
0.00585382
0.00554083
0.00435657
0.00489964
0.0054595
0.00605011
0.00696685
0.00815437
0.00873904
0.00905499
0.00921256
0.00914559
0.00885649
0.00841733
0.00839398
0.00881725
0.00910022
0.00915158
0.00901442
0.00874359
0.00826522
0.00682694
0.00535436
0.00472576
0.00437255
0.0039405
0.00561742
0.0059855
0.00555701
0.00527742
0.00571082
0.00624153
0.00685637
0.00736493
0.00779203
0.0081002
0.00820714
0.00817948
0.00804662
0.00804622
0.00798786
0.00778289
0.0075423
0.0073415
0.00691612
0.00646984
0.00593175
0.00649027
0.00678995
0.00635844
0.00465062
0.00493684
0.00540286
0.00569017
0.00715733
0.00858978
0.00896966
0.00909166
0.0092156
0.0091354
0.00881248
0.00836919
0.00835031
0.00887609
0.00928535
0.0094393
0.0095616
0.0097078
0.00983495
0.00868265
0.00676423
0.0062903
0.0052575
0.00480503
0.0066786
0.00710501
0.00688757
0.00661785
0.00757239
0.0079668
0.00810551
0.00811319
0.00811801
0.00808641
0.00799632
0.00793031
0.00781599
0.00825375
0.00889066
0.00879882
0.00870862
0.00855519
0.00819728
0.00774472
0.00721886
0.00790853
0.00849138
0.00820204
0.00594859
0.00632328
0.00726576
0.00746268
0.00901569
0.0101948
0.0105075
0.0104595
0.0103094
0.0102594
0.00924007
0.00831206
0.00816072
0.00951411
0.0154382
0.0152669
0.0152771
0.0151926
0.0146294
0.0144602
0.0139039
0.013653
0.0129731
0.0125377
0.0118768
0.0138884
0.0175852
0.0196495
0.0220213
0.0245087
0.0232561
0.0188284
0.0166447
0.0102366
0.00806631
0.00694856
0.00600801
0.00530027
0.00508899
0.00749909
0.00933047
0.0114624
0.013391
0.0137272
0.0161426
0.0200723
0.0305714
0.0486142
0.0410515
0.0387608
0.0392134
0.0977131
2.54875
2.74596
2.49725
2.90055
3.34211
0.393816
0.152731
0.286186
0.308764
0.350577
0.331225
0.29944
0.274092
0.286277
0.274761
0.285362
0.265659
0.269618
0.234681
0.236361
0.235624
0.644432
1.00809
1.2227
1.71167
1.72259
1.94367
1.90001
1.92192
1.7767
1.89183
1.64428
1.36335
1.28716
1.21452
1.3033
1.41596
1.22958
1.11457
1.00131
0.911109
0.77907
0.988261
0.749975
0.708728
0.707153
0.738507
0.983323
0.895083
1.03159
0.972008
1.02765
0.634397
0.715748
0.527485
0.440653
0.36595
0.443723
0.597214
0.791804
0.975406
0.739916
0.990152
0.904028
0.879192
0.837715
0.763801
0.725625
0.713885
0.735104
0.747822
0.76312
0.790451
0.811254
0.829366
0.978996
1.04237
1.03221
0.845717
0.757474
0.524539
0.561637
0.595936
0.599833
0.559903
0.541149
0.488988
0.476511
0.431413
0.41314
0.374712
0.35623
0.324371
0.44924
0.769319
0.798944
0.867671
0.920998
0.969661
0.991294
1.00696
0.989582
0.956017
0.887998
0.858975
0.79729
0.902593
1.08551
1.0856
0.998755
0.847812
0.803305
3.73133
4.53584
3.00546
6.46846
9.79906
16.4168
7.55088
2.0641
3.4417
2.36441
2.09884
2.04548
2.15832
3.39999
2.48765
3.2619
2.70575
2.88848
2.25718
2.62074
2.53101
1.95287
1.65371
1.40819
1.3312
1.09605
1.11405
0.912461
0.852028
0.757085
0.610855
0.725286
0.69813
1.59729
2.24274
2.80284
4.40419
4.83676
5.28906
8.36241
6.7972
8.5358
5.08745
5.12709
3.79097
3.56629
3.6039
4.95469
7.06227
4.87078
8.49151
4.74046
15.4548
34.532
9.19079
18.9449
10.929
9.88507
9.52841
9.81655
13.9384
9.50174
15.4741
12.977
17.302
16.7912
18.1169
14.2743
10.6064
11.7263
12.6665
16.2928
11.7189
13.7821
10.5517
10.3392
9.53004
7.80157
6.71327
5.07869
5.90583
6.93215
7.87334
12.435
15.628
17.9931
21.6906
16.059
18.335
11.046
12.098
9.35171
8.77088
8.89774
11.7053
20.7952
14.7455
26.8735
0.495592
0.225658
0.543033
0.229092
0.486539
0.389979
0.402517
0.403448
0.398996
0.460061
0.219698
0.184814
0.177123
0.174995
0.17651
0.100099
0.124268
0.0803299
0.126826
0.228865
0.502114
0.364633
0.14035
0.08255
0.0545482
0.0429041
0.0633866
0.0611787
0.0978331
0.099177
0.105454
0.131859
0.227431
0.431607
31.5842
7.07555
1.11492
0.521375
0.28007
0.17158
0.146396
0.165215
0.177416
0.179792
0.168457
0.142685
0.102043
0.0672876
0.0449429
0.0377136
0.0275721
0.0289716
0.0399331
0.0535668
0.04956
0.0652493
0.083659
0.106422
0.130651
0.149972
0.16453
0.168532
0.156492
0.122491
0.0806378
0.044433
0.0265419
0.0228792
0.0209415
0.0194428
0.016789
0.0145604
0.0131401
0.0112324
0.00990468
0.00894018
0.00863462
0.00876083
0.00956688
0.0121028
0.0145671
0.0188636
0.0179866
0.013468
0.0126216
0.00782001
0.00723061
0.00737972
0.00763226
0.00845472
0.0132264
0.0135369
0.0134162
0.013451
0.0132707
0.0132638
0.013096
0.0129358
0.0127174
0.0123009
0.01201
0.011488
0.0112028
0.0105269
0.0105546
0.0109377
0.0112448
0.0101743
0.0100676
0.00936362
0.0207063
0.0492182
0.070307
0.0787737
0.0885465
0.0812272
0.0420639
0.0231405
0.0079487
0.00774371
0.00823998
0.00890817
0.00845162
0.00615574
0.00669799
0.00797749
0.0111772
0.0111135
0.011145
0.0129954
0.0135373
0.0148807
0.0154248
0.0157852
0.0160087
0.0159058
0.0160275
0.0157162
0.0158019
0.0155847
0.0156697
0.0152662
0.0271126
0.0255339
0.0262664
0.0263287
0.0275758
0.0270992
0.0266639
0.0256938
0.0250091
0.0234889
0.0219268
0.0203399
0.0182196
0.018962
0.0183219
0.0114129
0.0108336
0.00779445
0.00770397
0.00740404
0.0103349
0.00939158
0.00789673
0.00929346
0.00675709
0.00693179
0.00734936
0.0104931
0.0110233
0.017583
0.0175463
0.01556
0.0165314
0.0175792
0.0189145
0.0200517
0.0214632
0.0224513
0.0235247
0.0253524
0.02572
0.0239103
0.0235349
0.0224338
0.0243568
0.0233249
0.02159
0.0231346
0.0248228
0.0274221
0.0271571
0.0250589
0.0237587
0.0223604
0.0200523
0.0174238
0.0160525
0.0150423
0.0150865
0.0140539
0.0164162
0.0148579
0.0102756
0.0105856
0.00795541
0.00630326
0.00606234
0.00929209
0.0132416
0.0282473
0.0176164
0.00937114
0.0101495
0.0163395
0.0338156
0.0198476
0.0318955
0.014379
0.0147155
0.0128099
0.0127249
0.0140232
0.0163232
0.0173886
0.0210468
0.0237312
0.0257194
0.0266305
0.0279438
0.0283291
0.029728
0.0301681
0.032803
0.0330444
0.0330245
0.0325465
0.0300763
0.0270319
0.0247856
0.030697
0.0356094
0.0390114
0.0414515
0.0439806
0.0427416
0.0391261
0.0382621
0.0363594
0.0352501
0.0338577
0.0307477
0.0269137
0.0220911
0.0215101
0.0275453
0.0332994
0.0497074
0.0536316
0.0533627
0.0556553
0.0561525
0.0578943
0.0583294
0.0609551
0.0615227
0.0626689
0.0630016
0.06811
0.0689801
0.0699218
0.0702446
0.0699311
0.0708344
0.0708063
0.0481111
0.0430798
0.0388842
0.0322357
0.0269404
0.0341864
0.0426708
0.0480608
0.0734449
0.0738954
0.077506
0.0801025
0.0848919
0.0885067
0.0932112
0.0975832
0.101809
0.105105
0.107037
0.107301
0.107704
0.106754
0.105454
0.114143
0.148255
0.164646
0.194966
0.20991
0.222388
0.22645
0.217882
0.221653
0.213658
0.216229
0.210016
0.208071
0.2028
0.196495
0.192902
0.186573
0.182484
0.210295
0.158481
0.121333
0.0806197
0.0647434
0.0573446
0.0530917
0.0565294
0.0435688
0.0369811
0.056059
0.0513007
0.0406794
0.0268759
0.0188327
0.032344
0.0478846
0.0647282
0.0819531
0.0976593
0.107905
0.11045
0.109363
0.104631
0.0967985
0.0816499
0.0614827
0.0422152
0.0347506
0.0320351
0.0280785
0.0221472
0.0178028
0.015691
0.0141091
0.0123479
0.011104
0.0105533
0.0107206
0.0110332
0.0132324
0.0173188
0.0173093
0.011606
0.0111453
0.00766928
0.0077582
0.00801744
0.0133262
0.0134757
0.0208933
0.0233469
0.0219917
0.0226897
0.022429
0.0227319
0.0223898
0.0212021
0.0203733
0.0194068
0.0185674
0.0178212
0.0169921
0.0161725
0.0175004
0.0164475
0.0138501
0.0139746
0.0145932
0.0152441
0.0161289
0.0173931
0.0184648
0.0211629
0.0213153
0.0208108
0.0209001
0.0194191
0.0186975
0.0199455
0.019464
0.0132646
0.0130832
0.0190973
0.0187483
0.0186441
0.0224737
0.0209025
0.0214201
0.0225552
0.0224716
0.0195325
0.0181764
0.0166174
0.0154367
0.0140547
0.0125387
0.0121581
0.014917
0.0131154
0.0107703
0.0119721
0.0143784
0.0169896
0.0184551
0.020443
0.0231599
0.0241312
0.0263843
0.0278112
0.0299103
0.0307455
0.0355608
0.0361995
0.0340152
0.032172
0.0311794
0.0274007
0.0234872
0.0259017
0.0267746
0.0271523
0.0272926
0.0271786
0.0235956
0.0231653
0.0216488
0.02113
0.0195476
0.0189878
0.0178243
0.0170614
0.0160363
0.0142077
0.0134967
0.0126811
0.0123218
0.017378
0.0108729
0.0106145
0.0160353
0.00987781
0.0116286
0.0113652
0.0118875
0.0125533
0.0103813
0.0151772
0.0103666
0.011259
0.0114856
0.0144117
0.0100114
0.0210684
0.0648388
0.0934385
0.112395
0.203925
0.243951
0.264122
0.284767
0.29883
0.314787
0.332226
0.349827
0.362737
0.364075
0.338243
0.319636
0.254573
0.227892
0.251565
0.281577
0.194056
0.166492
0.168704
0.169455
0.171946
0.173113
0.176631
0.174541
0.17945
0.175096
0.1822
0.176168
0.182441
0.175223
0.16009
0.143621
0.111456
0.100858
0.0650708
0.0504158
0.0394443
0.0286689
0.0209132
0.0187779
0.0177771
0.0164339
0.0165166
0.012655
0.0131024
0.00839937
0.00618079
0.0098628
0.0096927
0.00723329
0.00982213
0.0112179
0.0117269
0.0122604
0.0125534
0.0191934
0.019222
0.0246055
0.0245362
0.0291113
0.0347308
0.035973
0.0396123
0.0570099
0.0575449
0.0572877
0.0571433
0.0567333
0.0494901
0.0492088
0.0481051
0.0475226
0.0445707
0.0440162
0.0419253
0.0407832
0.0378191
0.0369935
0.0358664
0.0363362
0.0408765
0.0564548
0.100059
0.0297148
0.0283779
0.0208156
0.014569
0.0214584
0.0159449
0.0154886
0.0136481
0.0187433
0.0134859
0.0137336
0.016556
0.0170811
0.0164777
0.0215053
0.0268134
0.0235403
0.0260777
0.117695
0.0760228
0.0245963
0.0486791
0.0724045
0.158619
0.204322
0.140194
0.160035
0.184136
0.167224
0.140441
0.109855
0.0818448
0.0581841
0.0449572
0.0113813
0.0134166
0.0186037
0.0411392
0.0610668
0.101518
0.0835188
0.109145
0.149121
0.173598
0.209567
0.201144
0.17307
0.148963
0.145554
0.160688
0.163067
0.105826
0.102837
0.0780499
0.174302
0.219361
0.184752
0.231866
0.244617
0.144758
0.0321029
0.0184327
0.015162
0.0139573
0.0124711
0.0193942
0.0114992
0.0116766
0.0123956
0.0133039
0.0170039
0.0293482
0.0134914
0.0149529
0.0183615
0.015895
0.0148858
0.0146608
0.0145583
0.0151666
0.0165141
0.0215595
0.0216821
0.0213702
0.0160224
0.0173229
0.0157365
0.0200668
0.0212756
0.0333741
0.0153024
0.0162499
0.0215795
0.481105
0.0247252
0.0178669
0.023288
0.0219563
0.0302285
0.0436843
0.459747
0.0443899
0.0351791
0.0586195
0.0608666
0.0655503
0.0692313
0.0727735
0.0752877
0.0792658
0.0818891
0.083152
0.0844409
0.100081
0.0999854
0.0989065
0.103499
0.0975707
0.0576434
0.0578385
0.097332
0.105026
0.059386
0.0409881
0.0384768
0.0311619
0.0322728
0.0418113
0.0438961
0.0616111
0.0614266
0.1024
0.0933955
0.094778
0.0965612
0.0916037
0.0921059
0.0941284
0.0942612
0.0755263
0.0731562
0.0713727
0.0683491
0.0647854
0.0618833
0.058965
0.0559123
0.0533669
0.0536174
0.0586426
0.0584714
0.0664315
0.0741074
0.226108
0.15405
0.109655
0.0809019
0.0654935
0.0590907
0.0585581
0.061707
0.0649525
0.0665822
0.0673963
0.0708208
0.0925696
0.0947493
0.0975901
0.0950797
0.098858
0.09687
0.0944289
0.104313
0.112115
0.0655629
0.0676425
0.0477098
0.0444749
0.0324402
0.0329852
0.023555
0.0195467
0.019543
0.0195251
0.0197417
0.0226044
0.0315572
0.0316675
0.046238
0.0461741
0.0516382
0.0752452
0.0723168
0.1289
0.118162
0.108488
0.10121
0.101559
0.103713
0.106306
0.101321
0.0978918
0.0923758
0.0725473
0.068482
0.0663491
0.0651231
0.0638617
0.0674655
0.0913211
0.148547
0.227798
0.334429
0.435317
0.445425
0.402804
0.253154
0.292155
0.145807
0.165825
0.188074
0.164684
0.173307
0.321087
0.266921
0.378436
0.4833
0.537197
0.603699
0.641116
0.630705
0.50197
0.326629
0.333799
0.444385
0.771025
0.864635
0.744201
0.761583
0.658298
0.540189
0.52161
0.496803
0.560353
0.610804
0.576457
0.59288
0.537174
0.513164
0.443369
0.494535
0.361252
0.325373
0.305841
0.297011
0.355862
0.28799
0.324421
0.266745
0.273091
0.222002
0.227489
0.189921
0.145417
0.137889
0.127851
0.143174
0.162385
0.148827
0.153519
0.134083
0.114733
0.091322
0.0984863
0.0735999
0.0696382
0.0707584
0.0807616
0.126973
0.372524
0.174163
0.164031
0.168075
0.177968
0.319939
0.283007
0.721951
0.505867
0.706333
0.472791
0.560773
0.469187
0.362031
0.37765
0.417349
0.597371
0.820197
6.64671
0.28455
4.25952
3.16255
3.3218
3.46798
4.44458
7.79889
7.10828
9.37708
6.80166
9.07741
4.97849
4.97526
4.32603
4.47159
4.43949
4.26296
5.20837
6.65548
0.238988
0.0910154
0.0854264
0.0856078
0.0873854
0.197796
0.0525633
0.201924
0.0539401
0.213322
0.0494892
0.246461
0.196765
0.0382279
0.0192576
0.0200894
0.016807
0.0203751
0.016923
0.0250482
0.0235426
0.0237005
0.0265956
0.0763814
0.292521
13.8509
1.67317
0.698466
0.799391
1.19703
0.81441
1.21543
1.68713
1.13544
0.567088
0.37259
0.439721
0.531869
0.507452
0.646252
0.929438
0.908826
0.714465
0.718236
0.63439
0.894203
0.902559
1.06892
1.248
1.14151
0.895259
0.705715
0.598412
1.02857
1.03259
0.965217
0.410784
0.116406
0.0473034
0.0496873
0.0360302
0.037923
0.034934
0.055828
0.163123
0.2244
0.135306
0.4337
0.417526
0.566363
0.404077
0.413785
0.326963
0.350857
0.535413
0.584627
0.643996
0.675171
0.726111
0.671596
1.29064
2.2125
2.5027
12.8714
17.4323
3.20768
3.09854
13.9496
0.315041
0.0839354
0.0233242
0.0174328
0.0162174
0.01613
0.0150007
0.0155381
0.0159991
0.0169629
0.0188268
0.0231914
0.045817
0.201351
0.20331
0.0643093
0.032415
0.0229654
0.019614
0.0170454
0.0163863
0.0155312
0.0154589
0.0150081
0.015658
0.0174651
0.0237827
0.0774261
0.270927
11.3205
2.43577
2.2542
8.37979
5.79238
0.206683
0.0437842
0.0200928
0.0169262
0.0158835
0.0167531
0.0162651
0.0182101
0.018401
0.0230135
0.025017
0.0317537
0.0570397
0.110109
0.315185
9.56457
8.6364
8.35702
7.79861
0.309818
0.115101
0.0543629
0.0382202
0.0346177
0.0338134
0.0226471
0.0236712
0.018981
0.0216382
0.0182939
0.0226794
0.0482965
0.211839
5.34988
1.56944
1.70055
1.20886
0.612531
0.655391
0.669474
0.689208
1.77774
4.06994
5.00179
3.43483
3.36635
4.71617
3.17573
2.48578
1.83257
1.74996
2.54942
1.96516
1.82657
1.3578
1.46791
1.06807
1.46745
0.811397
0.976806
1.0728
1.53151
1.3976
1.41037
0.908403
1.05026
1.47532
1.72432
1.64855
0.843948
1.22664
1.0137
0.654902
0.607167
0.63385
0.604036
0.579073
0.575733
0.579755
0.558555
0.575534
0.555599
0.587342
0.546784
0.532259
0.506996
0.526797
0.544624
0.577324
0.360109
0.422667
0.426874
0.441324
0.454007
0.375035
0.451075
0.442107
0.659313
0.995357
0.837345
1.15904
0.681358
1.00442
2.00911
5.20806
2.35842
0.822699
1.34835
1.58218
1.13911
0.628313
2.55272
3.55776
1.22999
1.78305
10.3721
8.424
16.5055
10.975
18.6482
6.04248
4.63697
17.819
6.68174
6.91879
4.52017
4.52535
2.96246
1.58733
1.63155
1.74469
1.22862
1.30243
1.21235
1.13458
1.47639
1.4421
1.88954
2.03848
2.58214
1.81412
1.77915
2.60445
1.06453
1.40363
1.84137
1.83334
1.36278
2.34772
3.16396
2.9795
2.14818
2.34136
3.51031
4.82607
4.59051
3.17921
3.98283
10.1455
13.5414
13.7019
4.23027
19.31
18.304
2.08865
0.572231
0.327829
0.0906193
0.0447862
0.036738
0.0387952
0.144481
0.0458635
0.0572002
0.0457463
0.0737732
0.0702258
0.087775
0.219866
0.127391
0.217934
0.156595
0.191958
0.122501
0.195948
0.229803
0.239981
0.190948
0.117266
0.215826
0.31079
0.107428
0.359047
0.395029
0.263634
0.336827
0.401505
0.198972
1.00129
0.186989
0.128826
0.14895
0.398594
1.27024
0.221608
0.46582
4.49164
14.7181
3.69482
0.945128
0.687355
0.055889
0.0303158
0.0321171
0.0280715
0.0194909
0.0848697
0.0999349
0.408268
0.20998
0.278258
0.661878
2.92651
2.40043
1.13616
5.5057
10.2722
15.149
9.13884
2.24763
9.77189
19.6095
13.9008