/*--------------------------------*- C++ -*----------------------------------*\
| =========                 |                                                 |
| \\      /  F ield         | OpenFOAM: The Open Source CFD Toolbox           |
|  \\    /   O peration     | Version:  v2012                                 |
|   \\  /    A nd           | Website:  www.openfoam.com                      |
|    \\/     M anipulation  |                                                 |
\*---------------------------------------------------------------------------*/
FoamFile
{
    version     2.0;
    format      ascii;
    class       volVectorField;
    location    "845";
    object      U;
}
// * * * * * * * * * * * * * * * * * * * * * * * * * * * * * * * * * * * * * //

dimensions      [0 1 -1 0 0 0 0];


internalField   nonuniform List<vector> 
18258
(
(-0.176123 0.11489 0.138362)
(-0.0515786 0.245308 0.158443)
(-0.104682 0.212975 0.0962401)
(-0.0399712 0.0690626 0.0844349)
(-0.226188 0.201298 0.018875)
(-0.159462 0.359411 0.0171789)
(-0.223048 0.0444335 0.0542183)
(-0.341445 -0.0533452 0.0754139)
(-0.448727 -0.105851 0.108218)
(-0.535704 -0.159629 0.145739)
(-0.621441 -0.217134 0.179913)
(-0.687739 -0.271495 0.309551)
(-0.678625 -0.334195 0.357243)
(-0.622249 -0.445385 0.385826)
(-0.488057 -0.542835 0.369383)
(-0.205264 -0.587142 0.340289)
(0.0735983 -0.374071 0.28874)
(0.0776045 -0.163713 0.298064)
(-0.128531 -0.078901 0.236804)
(-0.401252 -0.273635 0.117033)
(-0.139612 -0.526467 0.29312)
(-0.19966 -0.366034 0.407294)
(-0.304951 -0.737981 0.301808)
(-0.366158 -0.779729 0.262728)
(-0.137342 -0.707915 0.132058)
(0.00303861 -0.645313 0.182837)
(-0.0181604 -0.340622 0.423041)
(0.173458 -0.113199 0.805687)
(0.298477 -0.0953564 0.893799)
(0.316071 0.0576211 0.914644)
(0.317166 0.18456 0.816578)
(0.167363 0.301445 0.10519)
(0.0765316 0.133714 -0.429915)
(0.00988912 0.0816922 -0.721982)
(-0.0683241 0.0783712 -0.897206)
(-0.0584353 0.0743542 -1.07989)
(-0.0714181 0.0734668 -1.21932)
(-0.0998976 0.0914475 -1.31307)
(-0.141744 0.0827433 -1.36049)
(-0.189638 0.089278 -1.34639)
(-0.239346 0.0756783 -1.26225)
(-0.286028 0.0850071 -1.10841)
(-0.32497 0.0794299 -0.897488)
(-0.355964 0.0806467 -0.643081)
(-0.365651 0.0835269 -0.350451)
(-0.348407 0.0785432 -0.152994)
(-0.155283 0.181898 -0.194117)
(0.366157 -0.100535 -0.136141)
(0.633547 -0.130376 -0.156459)
(0.677811 -0.11311 -0.16632)
(0.788878 -0.136011 -0.175764)
(0.815687 -0.132773 -0.193434)
(0.508428 -0.00361191 -0.257458)
(0.260099 -0.137895 -0.217954)
(0.113465 -0.0417698 -0.158587)
(0.282636 -0.00950765 -0.16899)
(0.5379 -0.0023867 -0.173651)
(0.792333 -0.0300556 -0.177964)
(1.09285 -0.0347569 -0.175789)
(1.42864 -0.0489235 -0.185243)
(1.76324 -0.0646682 -0.183612)
(2.04736 -0.0812428 -0.166694)
(2.24799 -0.0929227 -0.13824)
(2.34815 -0.0990234 -0.102609)
(2.35484 -0.0963239 -0.0680081)
(2.29451 -0.0886321 -0.0413408)
(2.20093 -0.0821224 -0.0246974)
(2.10841 -0.0759952 -0.0179542)
(2.03892 -0.0671919 -0.0189646)
(1.9932 -0.0643394 -0.0236346)
(1.96878 -0.0591964 -0.0260793)
(1.95815 -0.0502966 -0.0205618)
(1.94382 -0.0397959 -0.00356969)
(1.9003 -0.0249788 0.023996)
(1.81268 -0.00793566 0.0535735)
(1.69172 0.0094395 0.0768556)
(1.57083 0.0216348 0.0796976)
(1.47807 0.0306083 0.0750532)
(1.39994 0.0376617 0.0703827)
(1.33776 0.0503946 0.0630057)
(1.28693 0.0570528 0.0647684)
(1.19327 0.0441757 0.078278)
(1.09614 0.0188612 0.109828)
(1.01319 0.000560579 0.127302)
(0.905955 -0.0210471 0.120183)
(0.76199 0.0166422 0.145482)
(0.641225 0.0816418 0.132936)
(0.517595 0.100585 0.133781)
(0.380629 0.11803 0.118169)
(0.224241 0.127029 0.0960774)
(0.119967 0.189993 0.0916046)
(0.12186 0.0106369 0.197175)
(0.164083 -0.100765 0.143224)
(0.113033 -0.129748 0.0388944)
(0.104413 -0.115156 -0.143283)
(0.2165 -0.210384 -0.372578)
(0.262623 -0.231959 -0.557909)
(0.204108 -0.138643 -0.730638)
(0.105538 -0.0804021 -0.713741)
(0.0362509 0.0588861 -0.489284)
(-0.0921224 0.232593 -0.151514)
(-0.21694 0.193399 0.181034)
(-0.234448 0.064703 0.155679)
(-0.340308 0.014759 0.170433)
(-0.273855 0.137382 0.179472)
(-0.248011 0.285726 -0.0435831)
(-0.106592 0.164166 -0.402255)
(0.0631667 0.00497585 -0.58431)
(0.332994 -0.0937894 -0.633222)
(0.495371 -0.229815 -0.491443)
(0.3514 -0.210995 -0.281974)
(0.271628 -0.192219 -0.101926)
(0.282837 -0.186811 0.038566)
(0.280598 -0.140096 0.159619)
(0.225152 -0.0989353 0.19122)
(0.396317 -0.0813208 0.180303)
(0.535364 -0.0632895 0.175873)
(0.587814 -0.0520527 0.163996)
(0.699728 -0.0787601 0.160112)
(0.732058 -0.133776 0.131718)
(0.60061 -0.134304 0.134483)
(0.454227 -0.151812 0.138989)
(0.461264 -0.186019 0.0343954)
(0.61053 -0.16293 0.050352)
(0.735866 -0.162129 0.0478425)
(0.904302 -0.141804 0.0801379)
(1.0879 -0.10994 0.109709)
(1.18923 -0.0777799 0.147323)
(1.20825 -0.0107443 0.139186)
(1.24542 -0.00913153 0.119761)
(1.3355 -0.00701756 0.139272)
(1.37747 -0.00178036 0.129267)
(1.36909 -0.0125583 0.157983)
(1.32853 -0.0482159 0.193065)
(1.32286 -0.0511415 0.189978)
(1.28573 -0.0620366 0.151024)
(1.27901 -0.0602112 0.134137)
(1.258 -0.0477551 0.107635)
(1.24945 -0.0457386 0.109676)
(1.20128 0.0046564 0.108396)
(1.19426 0.0281679 0.137097)
(1.07651 0.137475 0.271004)
(1.22605 0.0531651 0.253692)
(1.21771 0.0203128 0.158081)
(1.26648 -0.0207552 0.127524)
(1.27864 -0.0249471 0.118306)
(1.28914 -0.0381882 0.143306)
(1.30805 -0.0414981 0.182595)
(1.35063 -0.0367169 0.216596)
(1.38645 -0.036707 0.221529)
(1.42334 -0.0128166 0.182757)
(1.4367 -0.0019764 0.137606)
(1.51294 -0.00658325 0.150733)
(1.61102 -0.0167716 0.158845)
(1.75034 -0.0316793 0.143238)
(1.8825 -0.0542608 0.04862)
(1.96393 -0.0757243 -0.0716153)
(1.98329 -0.0905792 -0.164706)
(1.96583 -0.0965921 -0.200937)
(1.94951 -0.0969231 -0.194873)
(1.95971 -0.0912956 -0.175099)
(2.00677 -0.0827646 -0.144691)
(2.08827 -0.0703242 -0.10812)
(2.19947 -0.0601037 -0.084309)
(2.31366 -0.059771 -0.113156)
(2.39057 -0.0608683 -0.173466)
(2.39326 -0.0584977 -0.277283)
(2.28741 -0.0502744 -0.392477)
(2.072 -0.0426187 -0.483872)
(1.77163 -0.0368182 -0.540354)
(1.42779 -0.0316586 -0.549163)
(1.0817 -0.0193656 -0.527981)
(0.793114 -0.0243726 -0.459556)
(0.537356 -0.0156693 -0.415525)
(0.28331 -0.0211403 -0.386783)
(0.109241 -0.0397988 -0.360574)
(0.102413 -0.0416398 -0.637036)
(0.0775046 -0.0369142 -0.873041)
(0.050748 -0.038955 -1.05741)
(0.0117741 -0.040303 -1.17587)
(-0.0234132 -0.028022 -1.21535)
(-0.0601109 -0.0155459 -1.16741)
(-0.093889 0.00358223 -1.03798)
(-0.119321 0.0277006 -0.819549)
(-0.121024 0.0853179 -0.558137)
(-0.147105 0.131985 -0.0300234)
(-0.194219 0.0243494 0.574849)
(-0.210236 -0.0344778 0.76104)
(-0.228482 -0.00321743 0.929131)
(-0.233623 -0.0464379 1.07088)
(-0.319187 -0.106291 1.13411)
(-0.372108 -0.113756 1.14634)
(-0.370666 -0.235041 1.00536)
(-0.299564 -0.253751 0.771033)
(-0.460622 -0.66996 0.687156)
(-0.485581 -0.548121 0.705076)
(-0.413826 -0.4155 0.833067)
(-0.548915 -0.769062 0.860148)
(-0.682894 -0.834055 0.607784)
(-0.473689 -0.756775 0.800214)
(-0.435037 -0.575912 0.743328)
(-0.782738 -0.526182 0.751442)
(-0.901959 -0.40946 0.86171)
(-0.530303 -0.708036 0.827018)
(-0.439845 -0.57785 0.668161)
(-0.320495 -0.320835 0.407842)
(-0.299789 -0.183297 0.401766)
(-0.28349 -0.147122 0.356058)
(-0.235229 0.108887 0.116762)
(-0.162362 0.298596 -0.416571)
(-0.151853 0.190954 -0.637608)
(-0.132166 0.0293494 -0.912409)
(-0.0870652 -0.0564838 -1.08491)
(-0.0287732 -0.0691914 -1.23299)
(0.0383409 -0.10171 -1.26808)
(0.0980912 -0.0985038 -1.23335)
(0.172723 -0.109077 -1.11965)
(0.216823 -0.123418 -0.919929)
(0.261227 -0.14664 -0.705523)
(0.250121 -0.13935 -0.398354)
(0.420052 -0.0489089 -0.637407)
(0.776112 -0.118248 -0.455996)
(0.732367 -0.109731 -0.410747)
(0.634656 -0.0760715 -0.402815)
(0.573235 -0.105191 -0.408008)
(0.134512 -0.0994697 -0.517305)
(0.180518 -0.115701 -0.90172)
(0.259773 -0.223978 -1.05415)
(0.344163 -0.282076 -0.943435)
(0.389033 -0.351284 -0.503431)
(0.199164 0.0452256 0.125317)
(0.266028 0.124406 0.181961)
(0.429099 -0.324167 0.336127)
(0.516142 -0.528926 0.505684)
(0.545795 -0.522531 0.551804)
(0.412652 -0.235336 0.678543)
(0.471591 -0.337761 0.564529)
(0.487066 -0.609843 0.54468)
(0.70428 -0.672864 0.317402)
(0.746426 -0.489207 0.452559)
(0.79859 -0.345828 0.598933)
(0.236283 -0.226042 0.57689)
(-0.234716 -0.269483 0.830663)
(-0.171012 -0.191609 0.682273)
(-0.672384 -0.299214 0.820889)
(-0.468516 -0.184124 0.69707)
(-0.319371 -0.00623821 0.545356)
(-0.218795 0.17761 -0.292544)
(-0.192458 -0.0408026 -0.615887)
(-0.0575139 -0.168529 -1.09904)
(0.104473 -0.157479 -1.24945)
(0.276317 -0.0865815 -1.11769)
(0.438437 -0.108069 -0.697592)
(0.508935 -0.0738806 -0.620964)
(0.504126 -0.0437102 -0.609188)
(0.557701 -0.0879816 -0.632752)
(0.598201 -0.121196 -0.725032)
(0.404106 -0.0430176 -0.676744)
(0.362183 -0.0792072 -0.657375)
(0.136581 -0.113816 -0.666813)
(-0.11148 -0.0482781 -0.578174)
(0.297342 0.00703783 -0.587878)
(0.35734 0.0161086 -0.604816)
(0.642804 -0.0962264 -0.641123)
(0.574877 -0.0975704 -0.365117)
(0.271026 0.0750866 -0.352432)
(0.271589 0.055863 -0.228914)
(-0.302914 -0.0380137 0.124113)
(-0.308523 0.14376 -0.00303553)
(-0.283612 -0.0246861 -0.446561)
(0.0893386 -0.201925 -0.573916)
(0.363369 -0.280467 -0.567801)
(0.728016 -0.346374 -0.404965)
(0.811778 -0.419186 -0.377527)
(0.773114 -0.291199 -0.295348)
(0.814496 -0.365789 -0.219462)
(0.829082 -0.487691 -0.283816)
(0.74264 -0.433516 -0.277666)
(0.722082 -0.306954 -0.330526)
(0.749062 -0.252329 -0.34115)
(0.794732 -0.31228 -0.211849)
(0.807155 -0.36805 -0.160279)
(0.893836 -0.465278 -0.156586)
(1.15912 -0.631887 -0.117883)
(1.61743 -0.727427 -0.0990848)
(1.99449 -0.673028 -0.0383992)
(2.15104 -0.490989 0.0470889)
(2.07127 -0.291861 0.0951862)
(1.90595 -0.163676 0.102863)
(1.80816 -0.095266 0.0993808)
(1.71114 -9.82042e-05 0.0989004)
(1.57343 0.0883132 0.0910382)
(1.4359 0.106708 0.0480283)
(1.33126 0.0570368 0.0272854)
(1.24137 -0.00495308 0.0215789)
(1.13955 -0.0543416 0.0232863)
(1.05556 -0.0789903 0.021453)
(0.997685 -0.0626061 0.0170198)
(0.821536 -0.110209 -0.0237927)
(0.716497 0.00241615 0.00987517)
(0.633178 0.0686119 0.00898374)
(0.497567 0.0233625 0.00663623)
(0.359409 -0.0606161 -0.0131657)
(0.139106 -0.146738 -0.032192)
(0.225611 -0.308206 0.00124449)
(0.353284 -0.0819415 0.0120571)
(-0.00249982 -0.230237 -0.00922171)
(0.0429822 -0.546041 -0.0504906)
(0.0119733 -0.712614 -0.0526268)
(-0.00806745 -0.876575 -0.0532537)
(-0.0260228 -1.00663 -0.064968)
(-0.0360614 -1.10259 -0.0958401)
(-0.0465827 -1.157 -0.105134)
(-0.0581179 -1.21432 -0.118272)
(-0.0883502 -1.27611 -0.134275)
(-0.113458 -1.32089 -0.149599)
(-0.137443 -1.35468 -0.162524)
(-0.159482 -1.37642 -0.173592)
(-0.178522 -1.38783 -0.183261)
(-0.19394 -1.38953 -0.189978)
(-0.20609 -1.38248 -0.193834)
(-0.216125 -1.3678 -0.193951)
(-0.224691 -1.34594 -0.192026)
(-0.232978 -1.31551 -0.18657)
(-0.240644 -1.27464 -0.178201)
(-0.246091 -1.2204 -0.16514)
(-0.243975 -1.15124 -0.147378)
(-0.191027 -1.07178 -0.126972)
(-0.141263 -0.969109 -0.112599)
(-0.165803 -0.868595 -0.0795083)
(-0.189824 -0.754631 -0.081922)
(-0.205035 -0.543131 -0.0855228)
(-0.273794 -0.450271 -0.0920294)
(0.0224984 0.0532444 -0.116222)
(-0.350875 -0.308403 0.0251515)
(-0.231714 -0.61753 -0.0545959)
(-0.270477 -0.0992809 -0.0110899)
(-0.458176 -0.182454 0.0645263)
(-0.678957 -0.198652 0.0822075)
(-0.842503 -0.209227 0.114022)
(-0.954025 -0.223076 0.144143)
(-1.03484 -0.232472 0.203712)
(-1.11821 -0.244273 0.245224)
(-1.18743 -0.244163 0.301962)
(-1.20113 -0.248389 0.336245)
(-1.17416 -0.250148 0.366176)
(-1.10721 -0.24886 0.394498)
(-0.996364 -0.243188 0.422707)
(-0.841683 -0.230202 0.454152)
(-0.667724 -0.205979 0.493625)
(-0.420618 -0.146995 0.542891)
(-0.137346 -0.118818 0.567093)
(-0.155233 0.0284028 0.82289)
(-0.158411 0.082896 1.04281)
(-0.158031 0.115128 1.11237)
(-0.159236 0.164159 1.02081)
(-0.163073 0.153291 0.83803)
(-0.150763 0.131293 0.567624)
(-0.123932 0.143414 0.285613)
(-0.225551 0.439555 0.370838)
(-0.50733 0.467463 0.335179)
(-0.692458 0.480491 0.339226)
(-0.917468 0.465262 0.332699)
(-1.09972 0.424551 0.30867)
(-1.22684 0.353103 0.265911)
(-1.28249 0.273198 0.218766)
(-1.2652 0.206052 0.181526)
(-1.23216 0.14785 0.158257)
(-1.18921 0.115159 0.140352)
(-1.09978 0.0924573 0.0901974)
(-0.958004 0.0450823 0.0698521)
(-0.766669 -0.0207994 0.0594184)
(-0.500317 -0.114039 0.018995)
(-0.252794 -0.20778 -0.0190584)
(-0.273835 -0.197552 -0.0664671)
(-0.318141 -0.176986 0.00779185)
(-0.31436 -0.174184 0.0589635)
(-0.272472 -0.15657 0.150075)
(-0.380824 -0.233739 0.117658)
(-0.422701 -0.297008 0.117717)
(-0.326677 -0.288052 0.176425)
(-0.269636 -0.215095 0.0443416)
(-0.140945 -0.100777 -0.0265939)
(-0.140959 -0.0768874 -0.00799757)
(-0.138717 -0.0742172 -0.0360004)
(-0.169422 -0.055725 -0.068338)
(-0.167917 -0.501588 -0.149021)
(-0.126346 -0.479768 -0.138793)
(-0.110763 -0.447216 -0.0964137)
(-0.100614 -0.424096 -0.146576)
(-0.266505 -0.538045 -0.032369)
(-0.2762 -0.575505 -0.0266992)
(-0.283547 -0.631819 -0.0850169)
(-0.33721 -0.582917 -0.0211178)
(-0.340127 -0.530026 0.0542238)
(-0.301509 -0.35919 0.0843748)
(-0.444475 -0.317112 0.114114)
(-0.361478 -0.431892 0.0396298)
(-0.347255 -0.522742 0.0131393)
(-0.377888 -0.50859 -0.0246511)
(-0.428569 -0.394597 0.0313403)
(-0.497361 -0.346699 0.0725001)
(-0.528967 -0.254961 0.163337)
(-0.591287 -0.215539 0.240992)
(-0.680195 -0.197647 0.255579)
(-0.57657 -0.206804 0.211191)
(-0.516765 -0.187896 0.180797)
(-0.545029 -0.185037 0.117486)
(-0.539581 -0.172122 0.0916261)
(-0.495998 -0.18431 0.000620187)
(-0.761453 -0.0867414 0.0643894)
(-0.971531 -0.00546123 0.0895131)
(-1.07918 0.0520647 0.1034)
(-1.12839 0.0749627 0.137977)
(-1.16611 0.0357899 0.237666)
(-1.25085 0.0689706 0.266927)
(-1.31694 0.119397 0.348813)
(-1.33064 0.170862 0.431506)
(-1.27345 0.221976 0.524022)
(-1.14864 0.261028 0.603759)
(-0.976007 0.281426 0.648373)
(-0.775777 0.283702 0.657484)
(-0.623201 0.288874 0.644466)
(-0.342055 0.272639 0.644219)
(-0.435711 0.245213 0.87486)
(-0.467766 0.227899 1.00322)
(-0.460685 0.180094 1.08163)
(-0.441467 0.123879 1.01374)
(-0.440087 0.0586951 0.798011)
(-0.711412 -0.00495103 0.744368)
(-0.722022 0.0716635 0.94467)
(-0.740748 0.117475 1.02351)
(-0.74564 0.164503 0.979564)
(-0.69545 0.199001 0.872654)
(-0.838297 0.186527 0.862576)
(-0.880114 0.14608 0.965139)
(-0.882932 0.0885183 1.00114)
(-0.873221 0.0421495 0.926373)
(-0.866897 -0.0388697 0.707001)
(-1.01017 -0.0601538 0.675816)
(-1.02473 0.0206794 0.901109)
(-1.03774 0.0697064 0.966268)
(-1.046 0.122186 0.944217)
(-1.02112 0.174175 0.854209)
(-1.16475 0.163081 0.804094)
(-1.16525 0.110695 0.89277)
(-1.14847 0.0572616 0.914572)
(-1.13128 0.00658474 0.859415)
(-1.11117 -0.0729484 0.640066)
(-1.1713 -0.0836103 0.595436)
(-1.19686 -0.00612455 0.796804)
(-1.22326 0.0436988 0.84002)
(-1.25266 0.0919052 0.811466)
(-1.27036 0.141423 0.716844)
(-1.31982 0.110878 0.610102)
(-1.29132 0.0688796 0.709154)
(-1.25285 0.0250383 0.747137)
(-1.21742 -0.0216774 0.716299)
(-1.18727 -0.0934274 0.539689)
(-1.15401 -0.104679 0.47261)
(-1.18217 -0.0413617 0.621251)
(-1.22103 0.000207718 0.640575)
(-1.27539 0.0391544 0.6063)
(-1.30849 0.0742535 0.509016)
(-1.22537 0.0356722 0.414162)
(-1.18859 0.00285615 0.499937)
(-1.12885 -0.0321954 0.531004)
(-1.08661 -0.0600892 0.520051)
(-1.04032 -0.111761 0.386669)
(-0.919382 -0.120139 0.315106)
(-0.923659 -0.10938 0.358007)
(-0.973079 -0.0803877 0.438117)
(-0.957018 -0.0870439 0.424901)
(-0.928077 -0.102671 0.394457)
(-1.00482 -0.0684662 0.381167)
(-0.99651 -0.0631091 0.307189)
(-1.00118 -0.0392043 0.282568)
(-1.04422 -0.0272155 0.208927)
(-1.03922 -0.00956469 0.202253)
(-0.806361 -0.105222 0.145144)
(-0.819273 -0.125248 0.15761)
(-0.788315 -0.128456 0.215993)
(-0.824281 -0.141533 0.249123)
(-0.61021 -0.281785 0.132747)
(-0.557123 -0.291511 0.114479)
(-0.503625 -0.326943 0.132083)
(-0.420222 -0.399671 0.11561)
(-0.396919 -0.38408 0.149046)
(-0.488207 -0.284234 0.164854)
(-0.606097 -0.239113 0.183255)
(-0.615418 -0.267927 0.0964543)
(-0.51354 -0.378001 0.0435303)
(-0.439659 -0.460211 0.0276038)
(-0.397394 -0.526411 0.0571919)
(-0.384006 -0.698011 0.121445)
(-0.387117 -0.663386 0.127262)
(-0.405423 -0.380369 0.106145)
(-0.408359 -0.536611 0.0807044)
(-0.3993 -0.601986 0.042964)
(-0.215769 -0.788309 -0.159655)
(-0.193422 -0.794065 -0.260345)
(-0.115384 -0.704028 -0.369862)
(-0.0786121 -0.623995 -0.38591)
(-0.045169 -0.588736 -0.348152)
(-0.0136466 -0.555747 -0.30172)
(0.0315613 -0.501732 -0.232163)
(0.124136 -0.455175 -0.108974)
(0.124716 -0.57985 -0.121973)
(0.116827 -0.636242 -0.12023)
(0.0848745 -0.69422 -0.157744)
(0.092285 -0.748867 -0.155912)
(0.100453 -0.805485 -0.175085)
(0.118215 -0.833787 -0.167139)
(0.126237 -0.840495 -0.152908)
(0.126432 -0.826576 -0.130303)
(0.117718 -0.790401 -0.0958695)
(0.104142 -0.733464 -0.0425043)
(0.0366564 -0.652937 0.0336393)
(0.00197557 -0.544187 0.154227)
(0.0166032 -0.297733 0.361186)
(-0.1494 0.0171865 0.448729)
(-0.367663 0.096132 0.349723)
(-0.392834 -0.0387004 0.257095)
(-0.219969 -0.172727 0.251668)
(-0.181379 -0.189853 0.268192)
(-0.15877 -0.180069 0.214641)
(-0.0948707 -0.147001 0.20639)
(-0.00316119 -0.0454045 0.0748566)
(-0.0339768 0.107297 0.0813666)
(-0.0804232 0.144748 0.0806953)
(-0.0488283 0.209748 0.171536)
(-0.00336911 0.176698 0.194356)
(0.0152337 0.0229902 0.144392)
(-0.0488058 -0.0354535 0.229739)
(0.0232459 0.0854172 0.325959)
(-0.00410156 -0.068519 0.287311)
(0.0753845 0.140733 0.248594)
(0.0897125 -0.0256782 0.2263)
(-0.0215318 -0.253843 0.455455)
(0.049819 -0.357282 0.544746)
(0.172301 -0.500834 0.515376)
(0.168036 -0.69225 0.352564)
(0.0758517 -0.81648 0.144698)
(0.0587439 -0.888481 -0.0073993)
(0.0653905 -0.923259 -0.119429)
(0.0633434 -0.949786 -0.197696)
(0.0602646 -0.964515 -0.248799)
(0.0521419 -0.962784 -0.279533)
(0.0419787 -0.942916 -0.292917)
(0.0293716 -0.905347 -0.289768)
(0.0237409 -0.830471 -0.24999)
(0.007383 -0.78475 -0.329231)
(0.0435964 -0.703872 -0.225594)
(0.0476545 -0.653628 -0.21155)
(0.0448464 -0.636209 -0.232297)
(0.00466041 -0.702197 -0.325691)
(-0.022576 -0.741861 -0.38358)
(-0.0573427 -0.77728 -0.41134)
(-0.0732523 -0.844122 -0.402186)
(-0.131967 -0.904537 -0.346529)
(-0.0939813 -0.968932 -0.332442)
(-0.0889325 -0.979669 -0.373656)
(-0.0537817 -0.918308 -0.418597)
(-0.0435629 -0.868273 -0.432474)
(-0.0177399 -0.826025 -0.404816)
(-0.00954625 -0.869469 -0.341642)
(-0.0392706 -0.901803 -0.374658)
(-0.0560077 -0.948505 -0.397103)
(-0.0236843 -0.991592 -0.406265)
(-0.0486461 -1.0599 -0.421001)
(-0.0666345 -1.04254 -0.424599)
(-0.0934686 -0.920359 -0.345441)
(-0.186562 -0.761778 -0.224983)
(-0.198134 -0.614204 -0.0414511)
(-0.0999143 -0.733393 -0.197579)
(-0.0796121 -0.839449 -0.26013)
(-0.0594103 -0.928703 -0.323981)
(-0.0609164 -0.946179 -0.334659)
(-0.0278238 -0.829408 -0.38154)
(-0.0240402 -0.724468 -0.337896)
(-0.0322322 -0.541942 -0.254713)
(-0.0164634 -0.353231 -0.164271)
(0.0342924 -0.0898305 -0.210001)
(-0.247572 -0.433522 0.0727051)
(-0.328677 -0.461153 0.0257921)
(0.220406 -0.118733 -0.244169)
(-0.17281 -0.247356 0.0430186)
(-0.218075 -0.26653 -0.117306)
(-0.2584 -0.268791 -0.103633)
(-0.208503 -0.281627 -0.0215426)
(0.0811579 0.140897 -0.219356)
(0.102722 0.0597697 -0.232092)
(0.100849 -0.000166329 -0.261187)
(0.0961016 -9.83823e-05 -0.266126)
(-0.0802562 -0.429707 -0.202031)
(-0.133136 -0.449971 -0.222894)
(-0.186258 -0.458314 -0.206801)
(-0.24922 -0.445091 -0.169326)
(-0.169021 -0.547418 -0.184341)
(-0.126884 -0.559283 -0.257414)
(-0.0963384 -0.5656 -0.291721)
(-0.0607603 -0.553858 -0.292141)
(-0.0508544 -0.742848 -0.349408)
(-0.0816754 -0.757444 -0.332317)
(-0.106413 -0.769722 -0.281928)
(-0.14723 -0.759967 -0.19487)
(-0.134548 -0.821726 -0.182439)
(-0.128839 -0.882672 -0.200431)
(-0.0981986 -0.905353 -0.297604)
(-0.0727401 -0.872469 -0.374084)
(-0.0492906 -0.852287 -0.400506)
(-0.0769479 -0.967841 -0.371232)
(-0.112287 -0.989509 -0.336107)
(-0.138216 -1.00975 -0.28386)
(-0.137322 -1.09243 -0.347132)
(-0.0802513 -1.06683 -0.399644)
(-0.0726564 -1.14447 -0.441249)
(-0.049436 -1.12295 -0.473946)
(-0.0269078 -1.11399 -0.459284)
(-0.0032376 -1.04219 -0.41589)
(0.0121818 -1.07421 -0.406955)
(-0.0126908 -1.15254 -0.470111)
(-0.0399063 -1.1796 -0.494587)
(-0.0686738 -1.20776 -0.463307)
(-0.13169 -1.22827 -0.379358)
(-0.13503 -1.16595 -0.369428)
(-0.283851 -1.0461 -0.22547)
(-0.457598 -1.14554 -0.0769709)
(-0.46398 -1.09962 -0.0674905)
(-0.416196 -1.04531 -0.0648058)
(-0.30301 -1.03583 -0.0738769)
(-0.255807 -0.967116 -0.0640795)
(-0.309314 -0.944604 -0.0576681)
(-0.342437 -0.848784 -0.0422385)
(-0.378179 -0.713477 -0.0379089)
(-0.473887 -0.626802 -0.0367347)
(-0.409971 -0.401466 -0.0341212)
(-0.464998 -0.660768 -0.00585423)
(-0.316794 -0.457628 0.0245697)
(-0.638604 -0.398771 0.0054035)
(-0.81556 -0.37938 0.0601154)
(-0.918074 -0.384509 0.084585)
(-0.96809 -0.397293 0.124305)
(-0.980062 -0.525342 0.0977366)
(-0.940426 -0.689439 0.0653428)
(-0.924137 -0.750185 0.0524739)
(-0.874645 -0.848495 0.0364205)
(-0.85904 -0.895657 0.0304446)
(-0.821181 -0.927954 0.00759558)
(-0.703886 -0.967618 -0.0230357)
(-0.592694 -1.00216 -0.042028)
(-0.626928 -0.95277 -0.0172264)
(-0.485108 -0.971802 -0.0307321)
(-0.503015 -0.893524 -0.0301485)
(-0.53063 -0.797079 -0.0233028)
(-0.559468 -0.730895 -0.0194935)
(-0.686596 -0.71248 -0.00982151)
(-0.675154 -0.5982 -0.00780752)
(-0.824334 -0.577273 0.0303205)
(-0.918677 -0.559638 0.0503793)
(-0.881571 -0.697088 0.0231236)
(-0.800608 -0.704633 0.0121769)
(-0.777732 -0.789812 0.00226482)
(-0.661092 -0.798288 -0.0107917)
(-0.635937 -0.88266 -0.0170555)
(-0.748676 -0.866241 -0.0051515)
(-0.825717 -0.850617 0.00442409)
(-0.863348 -0.773035 0.0134919)
(-0.801859 -0.73895 -0.0118064)
(-0.624367 -0.612132 0.00179596)
(-0.847378 -0.65969 0.0116559)
(-0.868342 -0.518373 0.052016)
(-0.870754 -0.379801 0.0580962)
(-0.843642 -0.282245 0.121537)
(-0.832622 -0.302256 0.0764816)
(-0.879206 -0.35065 0.0525334)
(-0.875514 -0.203916 0.12899)
(-0.894508 -0.184227 0.174032)
(-0.761008 -0.16151 0.158384)
(-0.76675 -0.12905 0.259065)
(-0.77801 -0.120753 0.301793)
(-0.821688 -0.108643 0.355172)
(-0.829161 -0.119268 0.352466)
(-0.642525 -0.181722 0.250809)
(-0.607617 -0.173637 0.248248)
(-0.567704 -0.180476 0.215383)
(-0.551272 -0.175625 0.188808)
(-0.56898 -0.191206 0.120261)
(-0.33845 -0.194768 0.0767002)
(-0.320329 -0.189266 0.101589)
(-0.329452 -0.191978 0.114026)
(-0.360773 -0.198852 0.124166)
(-0.449303 -0.216916 0.141437)
(-0.405365 -0.253396 0.0593113)
(-0.382209 -0.284944 0.0679366)
(-0.410785 -0.341036 0.0466606)
(-0.31607 -0.426896 0.0354592)
(-0.311829 -0.394326 0.0486403)
(-0.283702 -0.416198 0.0151079)
(-0.193038 -0.41944 -0.0209427)
(-0.337218 -0.254092 0.0349929)
(-0.403082 -0.330871 0.0407494)
(-0.248388 -0.457358 -0.00706651)
(-0.291791 -0.459746 -0.00014456)
(-0.451908 -0.321199 0.0716219)
(-0.524692 -0.298981 0.130976)
(-0.498141 -0.318643 0.136087)
(-0.471042 -0.336798 0.11116)
(-0.458871 -0.350632 0.0941288)
(-0.49332 -0.373165 0.00844993)
(-0.710923 -0.317797 0.0630718)
(-0.718012 -0.529824 0.0388509)
(-0.549168 -0.554363 -0.00191704)
(-0.510058 -0.607049 -0.00418136)
(-0.465838 -0.649338 -0.0176685)
(-0.437068 -0.652609 -0.0214037)
(-0.412961 -0.530961 -0.0232359)
(-0.411188 -0.540966 -0.0486236)
(-0.410063 -0.541437 -0.034532)
(-0.335489 -0.550501 -0.0172806)
(-0.267538 -0.595957 -0.00751754)
(-0.31965 -0.580927 -0.00375262)
(-0.403489 -0.513032 0.00692139)
(-0.332024 -0.53543 -0.00435831)
(-0.438842 -0.630421 -0.0120473)
(-0.292961 -0.473271 -0.005315)
(-0.210424 -0.539757 -0.0184969)
(-0.281189 -0.524689 -0.0164728)
(-0.394492 -0.436127 -0.000907692)
(-0.413929 -0.362792 -0.0105909)
(-0.26062 -0.394262 -0.0112194)
(-0.157018 -0.422942 -0.0365267)
(-0.136393 -0.399514 -0.0228309)
(-0.238222 -0.205336 0.0221808)
(-0.382675 -0.342919 -0.00218985)
(-0.251827 -0.474633 -0.0199179)
(-0.219146 -0.46805 -0.0238502)
(-0.122136 -0.392856 -0.0301919)
(-0.219278 -0.194478 0.0390286)
(-0.346937 -0.337988 0.0120051)
(-0.366314 -0.363319 0.0540373)
(-0.195932 -0.511178 -0.0110389)
(-0.174189 -0.468127 0.0184701)
(-0.110067 -0.420265 0.00173188)
(-0.22242 -0.229081 0.044528)
(-0.325994 -0.341937 0.052199)
(-0.335195 -0.33902 0.0568006)
(-0.180712 -0.463314 0.0164968)
(-0.109411 -0.409027 -0.00011495)
(-0.232045 -0.220488 0.0619398)
(-0.286093 -0.22149 0.0772779)
(-0.240584 -0.230285 0.0710218)
(-0.350486 -0.337073 0.0782878)
(-0.189829 -0.46541 0.0481267)
(-0.117942 -0.415709 0.037156)
(-0.140637 -0.449802 -0.00406221)
(-0.196627 -0.497707 0.025495)
(-0.38185 -0.350731 0.0789684)
(-0.33451 -0.625576 -0.00377643)
(-0.355829 -0.632273 -0.0117952)
(-0.499505 -0.511961 0.0577856)
(-0.651517 -0.44477 0.0982181)
(-0.666973 -0.286811 0.136268)
(-0.798411 -0.27161 0.170454)
(-0.89112 -0.320787 0.166367)
(-1.02108 -0.488876 0.125966)
(-1.10792 -0.495182 0.167711)
(-1.1328 -0.502786 0.192887)
(-1.1128 -0.505117 0.215893)
(-1.04947 -0.501373 0.238781)
(-0.943816 -0.490399 0.260667)
(-0.794811 -0.46704 0.287258)
(-0.640035 -0.431936 0.326816)
(-0.397413 -0.380658 0.395492)
(-0.162825 -0.292884 0.483572)
(0.0424531 -0.150464 0.487317)
(0.337346 -0.15837 0.428215)
(0.337989 -0.216017 0.377995)
(0.204983 -0.127481 0.487323)
(0.272614 -0.00296004 0.766389)
(0.283815 0.0463077 1.03215)
(0.268957 0.0811826 1.14227)
(0.250893 0.133637 1.09204)
(0.212955 0.122906 0.955344)
(0.142393 0.121248 0.703977)
(0.0396923 0.187289 0.404729)
(0.174302 0.512817 0.425074)
(0.420084 0.513933 0.374428)
(0.605861 0.53869 0.375674)
(0.850635 0.497793 0.351322)
(1.00887 0.417135 0.317478)
(1.07319 0.322746 0.2738)
(1.05671 0.25495 0.234257)
(1.00552 0.210811 0.199399)
(1.02349 0.158868 0.167969)
(1.04003 0.118457 0.144922)
(0.981443 0.0923287 0.0910445)
(0.877992 0.0421628 0.0681663)
(0.713301 -0.0230148 0.0544936)
(0.468698 -0.11004 0.0210761)
(0.241644 -0.217329 -0.0223148)
(0.101715 -0.620675 -0.110174)
(0.176969 -0.383659 -0.0796628)
(-0.178716 -0.171265 0.00684096)
(-0.0997457 -0.38853 -0.037459)
(-0.109127 -0.306466 -0.0634708)
(-0.111141 -0.32944 -0.0715632)
(-0.108729 -0.284708 -0.0605276)
(-0.0745532 -0.200434 -0.0535901)
(-0.15343 -0.150538 -0.0230335)
(-0.22303 0.231983 0.146389)
(-0.129833 0.465562 0.111157)
(-0.035914 0.581917 0.0662995)
(0.0413716 0.638642 0.0939602)
(0.129119 0.677941 0.192564)
(0.223466 0.732254 0.299799)
(0.31469 0.769328 0.337234)
(0.397402 0.765524 0.367074)
(0.474708 0.700829 0.374402)
(0.540348 0.559919 0.371184)
(0.59285 0.336798 0.33721)
(0.57245 0.0030431 0.26348)
(0.395224 -0.336699 0.259102)
(0.294663 -0.336081 0.32141)
(0.228964 -0.290438 0.330646)
(0.161673 -0.199763 0.335777)
(0.147749 -0.00316267 0.313359)
(0.288933 0.00892163 0.340601)
(0.451747 -0.158009 0.331157)
(0.60409 -0.255379 0.342699)
(0.643081 -0.344435 0.35172)
(0.623783 -0.436381 0.353633)
(0.476992 -0.541433 0.334799)
(0.107137 -0.566417 0.316894)
(-0.171441 -0.298584 0.302743)
(-0.0386177 -0.128349 0.355897)
(0.230721 -0.152205 0.23795)
(0.281791 -0.404218 0.0723924)
(0.00868009 -0.51986 0.238309)
(-0.141387 -0.749343 -0.141986)
(0.199898 -0.720647 -0.480791)
(0.308861 -0.394021 -0.177217)
(0.331941 -0.375316 0.0933327)
(0.345009 -0.545616 0.183555)
(0.326928 -0.890254 0.119604)
(0.531855 -0.872739 0.0645367)
(0.611326 -0.691906 0.0983536)
(0.577025 -0.538249 0.138211)
(0.507565 -0.395935 0.188701)
(0.338365 -0.230844 0.246977)
(0.363082 -0.346903 0.195405)
(0.427075 -0.377763 0.142617)
(0.508564 -0.363751 0.0802785)
(0.620514 -0.296488 -0.0568083)
(0.865566 0.192628 -0.118732)
(0.909691 0.477737 -0.023424)
(0.855015 0.681672 0.0469936)
(0.757181 0.78544 0.0899637)
(0.631425 0.813331 0.135741)
(0.488088 0.782636 0.15534)
(0.329191 0.719556 0.173055)
(0.161995 0.643648 0.123602)
(-0.0134569 0.58451 0.0617268)
(-0.148078 0.532153 0.0534588)
(-0.278254 0.430288 0.111291)
(-0.405422 0.233911 0.156213)
(-0.28694 -0.108374 0.0151261)
(-0.40567 0.0101941 0.0654231)
(-0.490105 0.0581615 0.090417)
(-0.538151 0.17483 0.127861)
(-0.543128 0.125817 0.0992391)
(-0.501007 -0.00989821 0.0226228)
(-0.457124 -0.0742361 0.0131301)
(-0.386935 -0.132627 -0.00918587)
(-0.290344 -0.19692 -0.0229222)
(-0.190221 -0.230016 -0.0361508)
(-0.138432 -0.198552 -0.0268045)
(-0.197396 -0.161434 -0.0211376)
(-0.183456 -0.321887 -0.0326215)
(-0.122376 -0.316908 -0.0430796)
(-0.100604 -0.336992 -0.0699388)
(-0.0793102 -0.371153 -0.1019)
(-0.0486059 -0.561612 -0.219731)
(-0.0887063 -0.499843 -0.151074)
(-0.10676 -0.604752 -0.12087)
(-0.157526 -0.587904 -0.0821105)
(-0.217084 -0.47632 -0.0563026)
(-0.312351 -0.174845 0.00583905)
(-0.196583 0.307644 0.172591)
(-0.0743915 0.427357 0.308587)
(0.00934456 0.509657 0.447084)
(0.0769532 0.497799 0.56392)
(0.145564 0.433755 0.624811)
(0.199394 0.320059 0.65495)
(0.249914 0.164654 0.627595)
(0.235821 -0.0151448 0.532071)
(0.105281 -0.137166 0.440808)
(-0.0118374 -0.100269 0.450094)
(-0.0322789 0.014458 0.426825)
(-0.0341417 0.137993 0.427448)
(0.0371719 0.24437 0.367886)
(0.199043 0.136418 0.382724)
(0.157074 0.272624 0.450678)
(-0.0597601 0.17585 -0.0619584)
(-0.172816 -0.0675904 -0.643267)
(-0.180225 -0.30704 -0.540921)
(-0.167894 -0.344243 -0.30534)
(-0.144498 -0.302981 -0.0949666)
(-0.0618718 -0.586486 -0.107092)
(-0.027904 -0.864212 -0.0941292)
(0.00216176 -1.0213 -0.0913882)
(0.0324813 -1.14478 -0.100359)
(0.0656707 -1.22836 -0.114575)
(0.0960144 -1.28092 -0.128596)
(0.122525 -1.3071 -0.140467)
(0.146441 -1.31521 -0.152422)
(0.167292 -1.31271 -0.164993)
(0.185578 -1.30307 -0.175871)
(0.201271 -1.28782 -0.184417)
(0.215301 -1.26752 -0.189648)
(0.227745 -1.24197 -0.192418)
(0.239107 -1.20996 -0.19133)
(0.248755 -1.17028 -0.186252)
(0.254569 -1.12063 -0.175472)
(0.251724 -1.05813 -0.158819)
(0.194705 -0.995294 -0.138973)
(0.139747 -0.910582 -0.122754)
(0.164383 -0.82677 -0.087007)
(0.187668 -0.726472 -0.0882269)
(0.203816 -0.558056 -0.0881117)
(0.246645 -0.441331 -0.0844253)
(0.072072 -0.0295927 -0.0954794)
(0.365665 -0.297641 0.0435279)
(0.245591 -0.550091 -0.0571615)
(0.285862 -0.0944934 -0.0269337)
(0.180558 -0.0367293 -0.147395)
(0.201316 -0.112142 -0.124811)
(0.194062 -0.119065 -0.0811325)