/*--------------------------------*- C++ -*----------------------------------*\
| =========                 |                                                 |
| \\      /  F ield         | OpenFOAM: The Open Source CFD Toolbox           |
|  \\    /   O peration     | Version:  v2012                                 |
|   \\  /    A nd           | Website:  www.openfoam.com                      |
|    \\/     M anipulation  |                                                 |
\*---------------------------------------------------------------------------*/
FoamFile
{
    version     2.0;
    format      ascii;
    class       volVectorField;
    location    "910";
    object      U;
}
// * * * * * * * * * * * * * * * * * * * * * * * * * * * * * * * * * * * * * //

dimensions      [0 1 -1 0 0 0 0];


internalField   nonuniform List<vector> 
18258
(
(-0.176173 0.115634 0.137991)
(-0.0516049 0.245578 0.157974)
(-0.104655 0.213515 0.0961599)
(-0.0394673 0.0694885 0.0842504)
(-0.226121 0.201862 0.0185045)
(-0.159264 0.360161 0.0168091)
(-0.22287 0.0446243 0.0539229)
(-0.341189 -0.0530266 0.0751837)
(-0.448373 -0.10564 0.10807)
(-0.53527 -0.159454 0.145629)
(-0.621042 -0.21698 0.179829)
(-0.687395 -0.27134 0.309448)
(-0.678395 -0.334055 0.35719)
(-0.622081 -0.445275 0.385803)
(-0.488023 -0.542783 0.369425)
(-0.205379 -0.587214 0.340415)
(0.0734134 -0.374307 0.288951)
(0.0774259 -0.16375 0.297999)
(-0.12858 -0.0788407 0.236937)
(-0.40219 -0.273366 0.117278)
(-0.140302 -0.526809 0.2937)
(-0.200869 -0.366379 0.407375)
(-0.306501 -0.738405 0.302075)
(-0.368082 -0.780317 0.262736)
(-0.13838 -0.707569 0.131254)
(0.00240499 -0.645068 0.182454)
(-0.0186916 -0.340873 0.423184)
(0.173085 -0.113242 0.805968)
(0.298314 -0.0953591 0.894091)
(0.315922 0.0576483 0.91526)
(0.316879 0.184157 0.817424)
(0.167664 0.301448 0.108608)
(0.0757912 0.134829 -0.428986)
(0.00891017 0.0825743 -0.720838)
(-0.0690442 0.0788486 -0.896385)
(-0.0591275 0.0746245 -1.07914)
(-0.072056 0.0735979 -1.21829)
(-0.100602 0.0916532 -1.31179)
(-0.142605 0.0829949 -1.35905)
(-0.190651 0.0896116 -1.34493)
(-0.240444 0.0760384 -1.26084)
(-0.287213 0.0854155 -1.1071)
(-0.32627 0.0797948 -0.896261)
(-0.357339 0.0810898 -0.642019)
(-0.366997 0.0840621 -0.349623)
(-0.34956 0.0788255 -0.152442)
(-0.153798 0.185365 -0.193374)
(0.370219 -0.102907 -0.135659)
(0.637879 -0.13107 -0.155926)
(0.680201 -0.113624 -0.166038)
(0.79066 -0.136101 -0.175637)
(0.817079 -0.132535 -0.193396)
(0.509065 -0.00293035 -0.257509)
(0.260319 -0.137881 -0.217936)
(0.113494 -0.0416402 -0.158595)
(0.282834 -0.00937957 -0.169)
(0.538275 -0.00228489 -0.173654)
(0.792828 -0.029996 -0.177965)
(1.09345 -0.0347149 -0.175788)
(1.42932 -0.0488891 -0.185233)
(1.76397 -0.0646387 -0.183591)
(2.04812 -0.0812132 -0.16666)
(2.24876 -0.0928888 -0.138194)
(2.34894 -0.0989817 -0.102551)
(2.35566 -0.0962752 -0.067932)
(2.29534 -0.0885809 -0.0412409)
(2.20175 -0.0820731 -0.0245762)
(2.1092 -0.075946 -0.0178094)
(2.03966 -0.0671386 -0.0188008)
(1.99388 -0.0642726 -0.023465)
(1.9694 -0.0591246 -0.025911)
(1.95872 -0.0502174 -0.0203935)
(1.94435 -0.0397083 -0.00339366)
(1.9008 -0.0248806 0.0241819)
(1.81312 -0.00782686 0.0537641)
(1.69207 0.00956464 0.0770671)
(1.57111 0.0217728 0.0799143)
(1.47832 0.0307618 0.0752634)
(1.40016 0.0378409 0.0705736)
(1.33792 0.0506332 0.0631808)
(1.28706 0.057293 0.0649716)
(1.1934 0.044378 0.0785423)
(1.0963 0.0190452 0.110201)
(1.01341 0.000740206 0.127733)
(0.906252 -0.0208753 0.120637)
(0.762294 0.0167541 0.145882)
(0.641502 0.0816978 0.133216)
(0.517887 0.100617 0.134114)
(0.380938 0.118105 0.118512)
(0.224488 0.127196 0.0964557)
(0.120067 0.190009 0.0919251)
(0.122114 0.0104091 0.197478)
(0.164153 -0.100777 0.143688)
(0.113127 -0.129677 0.0395115)
(0.104514 -0.115184 -0.142554)
(0.216701 -0.210429 -0.371548)
(0.262827 -0.232426 -0.556967)
(0.204323 -0.139189 -0.730331)
(0.105816 -0.0810162 -0.714391)
(0.0363281 0.057911 -0.490786)
(-0.0904494 0.231688 -0.15621)
(-0.216477 0.194156 0.180143)
(-0.234385 0.0649218 0.154628)
(-0.340167 0.0151317 0.169618)
(-0.273207 0.138151 0.178495)
(-0.24715 0.286145 -0.0465321)
(-0.106356 0.163312 -0.403342)
(0.0637513 0.00438001 -0.584979)
(0.333542 -0.0941358 -0.632938)
(0.495877 -0.230079 -0.490617)
(0.351616 -0.211011 -0.281058)
(0.271734 -0.192164 -0.101192)
(0.28294 -0.186725 0.0392643)
(0.280739 -0.140055 0.160086)
(0.225457 -0.0989444 0.191567)
(0.396632 -0.0812449 0.180716)
(0.535691 -0.0631986 0.1763)
(0.588132 -0.0519545 0.164376)
(0.70008 -0.0786746 0.16055)
(0.73234 -0.133687 0.132267)
(0.600836 -0.134229 0.135005)
(0.454416 -0.151738 0.139493)
(0.461412 -0.185922 0.0350901)
(0.610717 -0.162869 0.0510466)
(0.736076 -0.162089 0.0485465)
(0.904531 -0.141755 0.0807201)
(1.08809 -0.109915 0.110286)
(1.18937 -0.0777562 0.147904)
(1.20844 -0.0106734 0.139657)
(1.24561 -0.00905682 0.120169)
(1.33564 -0.00695545 0.139696)
(1.37765 -0.0017008 0.129639)
(1.36924 -0.0125064 0.158424)
(1.32869 -0.0481857 0.193612)
(1.32301 -0.0511138 0.190534)
(1.28585 -0.0620092 0.151673)
(1.27914 -0.0601942 0.134811)
(1.25818 -0.0477424 0.108248)
(1.24963 -0.0457078 0.110276)
(1.20113 0.00461611 0.109076)
(1.19411 0.0281299 0.137724)
(1.07631 0.137409 0.271658)
(1.22586 0.0531631 0.25427)
(1.21759 0.0203011 0.158784)
(1.26661 -0.020717 0.128165)
(1.27878 -0.0249249 0.11897)
(1.28924 -0.0381637 0.143984)
(1.30816 -0.0414675 0.183228)
(1.35079 -0.0366924 0.217175)
(1.38663 -0.0366772 0.222085)
(1.42351 -0.0127706 0.183215)
(1.43692 -0.00191053 0.13797)
(1.51317 -0.00652718 0.151105)
(1.61128 -0.016723 0.159206)
(1.75067 -0.0316373 0.143569)
(1.88291 -0.054225 0.0488631)
(1.96439 -0.0756881 -0.0714398)
(1.98379 -0.0905444 -0.164568)
(1.96635 -0.0965578 -0.200811)
(1.95007 -0.096888 -0.194763)
(1.96033 -0.0912599 -0.175015)
(2.00746 -0.0827382 -0.144625)
(2.08904 -0.0703028 -0.108083)
(2.20027 -0.0600872 -0.0843075)
(2.31447 -0.0597498 -0.113174)
(2.39136 -0.0608517 -0.173484)
(2.39402 -0.0584915 -0.277286)
(2.28816 -0.0502778 -0.392476)
(2.07275 -0.0426257 -0.483881)
(1.77235 -0.036823 -0.540378)
(1.42845 -0.0316567 -0.549201)
(1.08227 -0.0193553 -0.528026)
(0.793586 -0.0243407 -0.459599)
(0.53772 -0.0155983 -0.415572)
(0.283508 -0.0210481 -0.386839)
(0.109283 -0.0397167 -0.360649)
(0.102463 -0.0415582 -0.637148)
(0.0775459 -0.0368571 -0.873187)
(0.0507747 -0.038908 -1.05756)
(0.0117814 -0.0402623 -1.17597)
(-0.0234177 -0.0279798 -1.21536)
(-0.0601255 -0.0155003 -1.16728)
(-0.0939021 0.00367467 -1.03769)
(-0.119329 0.0279668 -0.818784)
(-0.120922 0.085993 -0.557445)
(-0.147245 0.131902 -0.0263715)
(-0.194494 0.0239173 0.576456)
(-0.21048 -0.0346955 0.7625)
(-0.228686 -0.00347825 0.930326)
(-0.233853 -0.0468121 1.07179)
(-0.319369 -0.106704 1.13516)
(-0.372187 -0.11446 1.14713)
(-0.370778 -0.235545 1.00572)
(-0.299998 -0.254317 0.771103)
(-0.460659 -0.670627 0.687062)
(-0.485251 -0.54886 0.705052)
(-0.413568 -0.416147 0.833094)
(-0.548302 -0.769555 0.860835)
(-0.681936 -0.834347 0.608453)
(-0.472954 -0.757077 0.80027)
(-0.434373 -0.576023 0.743695)
(-0.781818 -0.526272 0.752095)
(-0.901185 -0.409502 0.862503)
(-0.529849 -0.708207 0.828123)
(-0.439584 -0.577761 0.669311)
(-0.320567 -0.321175 0.408964)
(-0.299877 -0.183971 0.403022)
(-0.283646 -0.147729 0.35756)
(-0.235507 0.10757 0.118101)
(-0.162197 0.29934 -0.416014)
(-0.151619 0.192376 -0.637498)
(-0.132072 0.0298291 -0.912173)
(-0.0869999 -0.0561624 -1.0849)
(-0.0286655 -0.0689702 -1.23299)
(0.0384743 -0.101468 -1.26817)
(0.0982613 -0.0983644 -1.23349)
(0.172927 -0.108911 -1.11982)
(0.21706 -0.123347 -0.920099)
(0.261485 -0.146564 -0.705669)
(0.250374 -0.139327 -0.398419)
(0.420519 -0.0482753 -0.637539)
(0.777399 -0.118023 -0.455878)
(0.734004 -0.109783 -0.410418)
(0.636803 -0.0765373 -0.402209)
(0.577602 -0.105684 -0.406872)
(0.138645 -0.0998985 -0.515196)
(0.183501 -0.116344 -0.89852)
(0.261791 -0.224525 -1.0509)
(0.345413 -0.282423 -0.940508)
(0.38902 -0.351433 -0.499843)
(0.199027 0.0480424 0.123611)
(0.266372 0.124448 0.182807)
(0.429087 -0.324598 0.335514)
(0.516291 -0.528939 0.50511)
(0.546145 -0.522375 0.551102)
(0.41288 -0.235318 0.678427)
(0.471904 -0.337658 0.563866)
(0.4875 -0.609819 0.543564)
(0.70486 -0.672829 0.316437)
(0.74701 -0.489327 0.451381)
(0.799065 -0.345904 0.598)
(0.236411 -0.22616 0.576369)
(-0.234079 -0.26957 0.831445)
(-0.170628 -0.19152 0.683141)
(-0.671967 -0.299175 0.821559)
(-0.467981 -0.184402 0.698069)
(-0.318843 -0.00636966 0.546615)
(-0.218574 0.178613 -0.293373)
(-0.19223 -0.0396682 -0.615943)
(-0.0574918 -0.168145 -1.09911)
(0.104648 -0.156977 -1.24965)
(0.276645 -0.0860481 -1.11783)
(0.439384 -0.107856 -0.697248)
(0.51011 -0.0737434 -0.620372)
(0.50563 -0.0439828 -0.60822)
(0.560759 -0.0884459 -0.631255)
(0.600151 -0.12159 -0.723352)
(0.405093 -0.0432393 -0.675359)
(0.362936 -0.0790455 -0.656151)
(0.137253 -0.113607 -0.66579)
(-0.111427 -0.0479886 -0.577176)
(0.298122 0.00796554 -0.586864)
(0.358325 0.0165177 -0.60337)
(0.644041 -0.0960216 -0.639661)
(0.574755 -0.0974907 -0.361375)
(0.270983 0.0755818 -0.349464)
(0.270423 0.056429 -0.223447)
(-0.30258 -0.0371572 0.128671)
(-0.308606 0.144627 -8.59079e-05)
(-0.283709 -0.0239451 -0.445629)
(0.0897864 -0.201758 -0.572953)
(0.364146 -0.280358 -0.5673)
(0.729164 -0.346284 -0.404595)
(0.812692 -0.419024 -0.377346)
(0.774086 -0.290972 -0.295282)
(0.815467 -0.365642 -0.219387)
(0.829999 -0.487565 -0.283587)
(0.743842 -0.433597 -0.277289)
(0.72347 -0.307103 -0.330143)
(0.750261 -0.252281 -0.340946)
(0.795966 -0.312306 -0.211713)
(0.808486 -0.368161 -0.160134)
(0.894847 -0.465128 -0.156487)
(1.15995 -0.631793 -0.117823)
(1.61825 -0.727401 -0.0990648)
(1.99532 -0.673041 -0.0383723)
(2.15183 -0.490993 0.0471245)
(2.07203 -0.291783 0.0952675)
(1.9066 -0.163469 0.103006)
(1.80869 -0.0949399 0.0995089)
(1.71159 0.000420858 0.0990196)
(1.57384 0.0889767 0.0911509)
(1.43628 0.107509 0.0481331)
(1.3316 0.0578826 0.0273972)
(1.24169 -0.00410651 0.0217168)
(1.13986 -0.0535104 0.0234544)
(1.05585 -0.0782545 0.0216363)
(0.997994 -0.0619875 0.0172495)
(0.821926 -0.109646 -0.0235763)
(0.716753 0.00306131 0.0102231)
(0.633409 0.0693871 0.00927776)
(0.497753 0.0242642 0.0069363)
(0.359539 -0.0599386 -0.0129848)
(0.139156 -0.146359 -0.0320611)
(0.225683 -0.30797 0.00118874)
(0.353331 -0.0818781 0.0120744)
(-0.00244974 -0.230129 -0.00921461)
(0.0430273 -0.545934 -0.0504676)
(0.0120165 -0.712504 -0.0526011)
(-0.00802555 -0.876482 -0.0532318)
(-0.0259812 -1.00656 -0.0649411)
(-0.036018 -1.10254 -0.0957962)
(-0.0465261 -1.15697 -0.105085)
(-0.0580538 -1.21434 -0.118227)
(-0.0882857 -1.27617 -0.134231)
(-0.113395 -1.321 -0.149554)
(-0.137382 -1.35484 -0.162474)
(-0.159422 -1.37661 -0.173537)
(-0.178464 -1.38805 -0.183202)
(-0.193883 -1.38976 -0.189917)
(-0.206032 -1.3827 -0.19377)
(-0.21606 -1.36802 -0.193886)
(-0.224616 -1.34615 -0.191959)
(-0.232895 -1.31572 -0.186502)
(-0.240556 -1.27486 -0.178133)
(-0.246002 -1.22062 -0.165075)
(-0.243891 -1.15147 -0.147317)
(-0.190973 -1.07199 -0.126917)
(-0.141234 -0.969294 -0.112542)
(-0.165762 -0.86875 -0.0794629)
(-0.189774 -0.754754 -0.0818738)
(-0.20498 -0.543238 -0.0854752)
(-0.273695 -0.450356 -0.091982)
(0.0225786 0.0531366 -0.116164)
(-0.350842 -0.308455 0.0251928)
(-0.23167 -0.61757 -0.0545368)
(-0.270406 -0.0992953 -0.011034)
(-0.458073 -0.182481 0.0645552)
(-0.678836 -0.198667 0.0822163)
(-0.842382 -0.209238 0.11402)
(-0.953915 -0.223084 0.144136)
(-1.03476 -0.23248 0.203703)
(-1.11816 -0.24428 0.245213)
(-1.18741 -0.244165 0.301952)
(-1.20112 -0.248384 0.336235)
(-1.17416 -0.250136 0.366168)
(-1.1072 -0.24884 0.394495)
(-0.996345 -0.243162 0.422715)
(-0.841623 -0.230167 0.454182)
(-0.667586 -0.205928 0.493694)
(-0.420486 -0.146926 0.543091)
(-0.136878 -0.118946 0.567429)
(-0.154531 0.0284174 0.823134)
(-0.157631 0.082934 1.04288)
(-0.157279 0.11515 1.11231)
(-0.15853 0.164153 1.02064)
(-0.162564 0.153349 0.83776)
(-0.150544 0.131383 0.567337)
(-0.124261 0.143456 0.285356)
(-0.225759 0.439289 0.37063)
(-0.507578 0.467243 0.335066)
(-0.692712 0.480271 0.339076)
(-0.917659 0.465065 0.332576)
(-1.09987 0.424441 0.308585)
(-1.22701 0.353054 0.265861)
(-1.2827 0.273186 0.218745)
(-1.26545 0.206053 0.181527)
(-1.23242 0.147859 0.158274)
(-1.18947 0.115173 0.140376)
(-1.10003 0.0924743 0.0902182)
(-0.958248 0.0451123 0.0698754)
(-0.7669 -0.0207596 0.0594467)
(-0.500504 -0.114003 0.019004)
(-0.252941 -0.207777 -0.0190348)
(-0.273962 -0.197548 -0.0663899)
(-0.318244 -0.176979 0.00794478)
(-0.314456 -0.174179 0.0591643)
(-0.272589 -0.156597 0.150327)
(-0.380902 -0.233793 0.117943)
(-0.422802 -0.297052 0.11802)
(-0.326828 -0.288112 0.176737)
(-0.269787 -0.215192 0.0447621)
(-0.14091 -0.100859 -0.0262863)
(-0.140963 -0.076912 -0.00766439)
(-0.138657 -0.0742526 -0.0357807)
(-0.16937 -0.0557467 -0.0681734)
(-0.167901 -0.501618 -0.14885)
(-0.126298 -0.479841 -0.138508)
(-0.110748 -0.447275 -0.096023)
(-0.10059 -0.424172 -0.146182)
(-0.266629 -0.538209 -0.0320096)
(-0.276396 -0.575697 -0.0263131)
(-0.28382 -0.632055 -0.0845447)
(-0.337406 -0.583019 -0.0206527)
(-0.340286 -0.530138 0.0546023)
(-0.301658 -0.359264 0.0847937)
(-0.444619 -0.317157 0.114388)
(-0.361656 -0.431962 0.0399116)
(-0.347495 -0.522853 0.0134666)
(-0.378065 -0.508637 -0.024299)
(-0.428712 -0.394643 0.0316223)
(-0.497505 -0.346741 0.0727201)
(-0.52911 -0.254992 0.163557)
(-0.591429 -0.215563 0.241192)
(-0.680339 -0.197669 0.255779)
(-0.57667 -0.20682 0.211389)
(-0.516892 -0.187891 0.180976)
(-0.545156 -0.185029 0.117637)
(-0.539714 -0.172107 0.0917322)
(-0.496158 -0.184281 0.000671507)
(-0.761667 -0.0867204 0.0644436)
(-0.971776 -0.00542799 0.0895571)
(-1.07943 0.0520905 0.103438)
(-1.12864 0.0749885 0.138016)
(-1.16635 0.0358034 0.237732)
(-1.25109 0.0689757 0.266981)
(-1.31719 0.119395 0.348847)
(-1.33087 0.170854 0.43151)
(-1.27366 0.221954 0.523981)
(-1.14887 0.260981 0.603657)
(-0.976285 0.281359 0.648197)
(-0.776046 0.283705 0.657243)
(-0.623325 0.288929 0.644248)
(-0.342046 0.272688 0.643914)
(-0.435611 0.245386 0.874631)
(-0.467627 0.228118 1.00306)
(-0.460536 0.180339 1.08147)
(-0.441291 0.124145 1.01356)
(-0.43991 0.0589117 0.797987)
(-0.711326 -0.00485528 0.744303)
(-0.721957 0.0717766 0.944549)
(-0.740692 0.117576 1.02343)
(-0.745606 0.164624 0.979467)
(-0.695488 0.199096 0.872508)
(-0.838482 0.186584 0.862407)
(-0.880218 0.14617 0.965033)
(-0.882978 0.0885824 1.00108)
(-0.873236 0.0422162 0.926304)
(-0.866884 -0.0388163 0.706964)
(-1.01021 -0.0601214 0.675783)
(-1.02482 0.0207165 0.901055)
(-1.03787 0.0697378 0.966211)
(-1.0462 0.122217 0.944115)
(-1.02137 0.174166 0.854064)
(-1.16498 0.163063 0.804004)
(-1.16546 0.110704 0.892702)
(-1.14864 0.0572743 0.914532)
(-1.1314 0.00660336 0.859382)
(-1.11124 -0.072931 0.640041)
(-1.17137 -0.0836046 0.595421)
(-1.197 -0.00611874 0.79679)
(-1.22344 0.0436998 0.840005)
(-1.25288 0.0919026 0.81144)
(-1.27059 0.141406 0.716812)
(-1.32005 0.110867 0.610114)
(-1.29154 0.0688742 0.709166)
(-1.25303 0.0250328 0.747149)
(-1.21755 -0.02168 0.716304)
(-1.18735 -0.0934308 0.539683)
(-1.15408 -0.10469 0.472614)
(-1.18231 -0.041371 0.621275)
(-1.22122 0.000199233 0.640613)
(-1.27561 0.0391459 0.606343)
(-1.30873 0.0742444 0.509063)
(-1.2256 0.0356668 0.414235)
(-1.1888 0.00284591 0.500007)
(-1.12903 -0.0322058 0.531068)
(-1.08673 -0.0601014 0.5201)
(-1.04037 -0.111777 0.386688)
(-0.919404 -0.120159 0.315124)
(-0.923705 -0.109399 0.358045)
(-0.973181 -0.0804034 0.438176)
(-0.957133 -0.0870583 0.424971)
(-0.928238 -0.102681 0.394568)
(-1.00501 -0.0684786 0.381284)
(-0.996702 -0.063106 0.307308)
(-1.00139 -0.0392036 0.282677)
(-1.04445 -0.0272043 0.209016)
(-1.03945 -0.009548 0.202327)
(-0.80655 -0.105215 0.145229)
(-0.819459 -0.125252 0.157725)
(-0.788492 -0.128467 0.216129)
(-0.824449 -0.141542 0.249273)
(-0.610382 -0.281821 0.1329)
(-0.55728 -0.29156 0.114656)
(-0.503767 -0.326996 0.132287)
(-0.420349 -0.399738 0.115833)
(-0.397011 -0.384144 0.149287)
(-0.488293 -0.284292 0.165086)
(-0.606232 -0.239146 0.183479)
(-0.615623 -0.267954 0.0966306)
(-0.51372 -0.378059 0.0437505)
(-0.43978 -0.460301 0.0278286)
(-0.39747 -0.5265 0.0574687)
(-0.384061 -0.698113 0.121804)
(-0.387182 -0.663493 0.127585)
(-0.405525 -0.380441 0.106509)
(-0.408504 -0.536682 0.0810502)
(-0.399415 -0.602091 0.0433363)
(-0.215863 -0.788473 -0.159259)
(-0.193494 -0.79426 -0.260056)
(-0.115417 -0.704171 -0.369646)
(-0.0786142 -0.624185 -0.385677)
(-0.0451915 -0.58898 -0.347944)
(-0.0137104 -0.556036 -0.301576)
(0.0315089 -0.502015 -0.232136)
(0.124131 -0.455485 -0.108972)
(0.12471 -0.58021 -0.121967)
(0.116816 -0.636669 -0.120237)
(0.0848506 -0.694679 -0.15773)
(0.0922473 -0.749353 -0.155873)
(0.100404 -0.805953 -0.175029)
(0.118157 -0.83427 -0.167092)
(0.126177 -0.841012 -0.152884)
(0.126383 -0.827153 -0.130313)
(0.117695 -0.791036 -0.0959365)
(0.10409 -0.734257 -0.0426197)
(0.0369553 -0.654102 0.0334001)
(0.00174449 -0.545693 0.153522)
(0.0160426 -0.299798 0.360361)
(-0.147786 0.0140163 0.448789)
(-0.366636 0.0953719 0.350151)
(-0.39229 -0.0394091 0.256858)
(-0.219563 -0.172588 0.251897)
(-0.180639 -0.189479 0.268331)
(-0.158075 -0.179483 0.214432)
(-0.093224 -0.145707 0.206051)
(-0.0018986 -0.0412164 0.0735572)
(-0.0347227 0.108531 0.0811089)
(-0.0806058 0.146021 0.0805073)
(-0.0491004 0.210765 0.170993)
(-0.00448136 0.178248 0.193268)
(0.0151688 0.0279006 0.143696)
(-0.0471596 -0.033311 0.228734)
(0.0237107 0.0876294 0.324904)
(-0.00337266 -0.0671558 0.286737)
(0.0763475 0.141637 0.247659)
(0.0902868 -0.0261589 0.22653)
(-0.020727 -0.255465 0.455692)
(0.0507741 -0.35908 0.544628)
(0.172708 -0.503425 0.514614)
(0.167172 -0.693897 0.351687)
(0.0754087 -0.817663 0.144034)
(0.0587242 -0.88936 -0.00774396)
(0.0653142 -0.923865 -0.119583)
(0.0633052 -0.950294 -0.197769)
(0.0602183 -0.964975 -0.248785)
(0.0520935 -0.963196 -0.279463)
(0.0419339 -0.943296 -0.292807)
(0.0293306 -0.905706 -0.289638)
(0.0236828 -0.830883 -0.249898)
(0.00735277 -0.785121 -0.329129)
(0.0435625 -0.704255 -0.225538)
(0.04761 -0.654001 -0.211537)
(0.0448046 -0.636539 -0.232263)
(0.00463414 -0.702532 -0.325555)
(-0.0225803 -0.742151 -0.383384)
(-0.0573537 -0.777507 -0.411121)
(-0.0732789 -0.844316 -0.401963)
(-0.132048 -0.904746 -0.346249)
(-0.0940476 -0.96918 -0.33208)
(-0.0889988 -0.979933 -0.373365)
(-0.0538073 -0.918535 -0.41837)
(-0.0435804 -0.868531 -0.432272)
(-0.0177507 -0.826341 -0.404641)
(-0.0095878 -0.869806 -0.341463)
(-0.0393204 -0.902081 -0.374435)
(-0.0560582 -0.948745 -0.396837)
(-0.0237354 -0.991865 -0.406052)
(-0.0486864 -1.06018 -0.420706)
(-0.0666494 -1.04281 -0.424329)
(-0.0935364 -0.920617 -0.34514)
(-0.186681 -0.761977 -0.224696)
(-0.19842 -0.614174 -0.0411352)
(-0.100057 -0.733601 -0.197179)
(-0.0796952 -0.839694 -0.259705)
(-0.0594387 -0.928973 -0.323572)
(-0.0608949 -0.946419 -0.334265)
(-0.027775 -0.829602 -0.381042)
(-0.0239752 -0.724669 -0.337361)
(-0.0321534 -0.542195 -0.254073)
(-0.0162969 -0.353335 -0.163444)
(0.0338002 -0.0903614 -0.208948)
(-0.248084 -0.433739 0.0730186)
(-0.329169 -0.461385 0.0260458)
(0.221167 -0.118505 -0.244287)
(-0.172683 -0.247401 0.0433674)
(-0.218072 -0.266574 -0.116898)
(-0.258409 -0.268838 -0.103395)
(-0.208542 -0.281662 -0.0213822)
(0.0811946 0.140797 -0.219197)
(0.102761 0.059648 -0.231836)
(0.100914 -0.000252536 -0.260794)
(0.0962846 -4.96108e-05 -0.265803)
(-0.0800648 -0.429833 -0.201578)
(-0.133002 -0.450059 -0.222603)
(-0.186141 -0.458409 -0.206582)
(-0.249116 -0.445173 -0.169204)
(-0.168975 -0.547534 -0.184228)
(-0.126837 -0.559419 -0.257225)
(-0.096273 -0.565746 -0.291458)
(-0.0606524 -0.554005 -0.29179)
(-0.0507697 -0.74301 -0.34909)
(-0.081633 -0.757603 -0.33207)
(-0.106383 -0.769872 -0.281755)
(-0.147194 -0.760098 -0.19476)
(-0.134518 -0.821867 -0.182344)
(-0.128812 -0.882833 -0.200325)
(-0.0981821 -0.905528 -0.297442)
(-0.0727189 -0.872648 -0.373852)
(-0.0492361 -0.852481 -0.400191)
(-0.0768879 -0.968077 -0.370954)
(-0.112249 -0.98972 -0.335898)
(-0.138182 -1.00995 -0.283677)
(-0.137277 -1.09266 -0.346969)
(-0.0802149 -1.06708 -0.399379)
(-0.0726192 -1.14472 -0.441027)
(-0.0494329 -1.12324 -0.473712)
(-0.0269306 -1.11429 -0.45904)
(-0.00327789 -1.04249 -0.415704)
(0.0121419 -1.07454 -0.40682)
(-0.0127062 -1.15285 -0.469918)
(-0.0398958 -1.17989 -0.494395)
(-0.0686378 -1.20802 -0.463123)
(-0.131639 -1.22851 -0.379227)
(-0.134977 -1.16619 -0.369282)
(-0.283774 -1.04633 -0.22541)
(-0.457455 -1.14573 -0.0769602)
(-0.463838 -1.09981 -0.0674784)
(-0.416089 -1.04551 -0.0647777)
(-0.302921 -1.03604 -0.0738367)
(-0.25575 -0.967316 -0.0640381)
(-0.309231 -0.944792 -0.0576281)
(-0.342348 -0.848945 -0.0422026)
(-0.378097 -0.71361 -0.0378717)
(-0.473794 -0.626899 -0.0366992)
(-0.409876 -0.401514 -0.0340707)
(-0.464858 -0.660851 -0.00582746)
(-0.316681 -0.457679 0.0245941)
(-0.638462 -0.398812 0.00541856)
(-0.815417 -0.379412 0.0601164)
(-0.917943 -0.384534 0.0845835)
(-0.967982 -0.397318 0.124304)
(-0.979952 -0.525395 0.0977353)
(-0.940295 -0.689513 0.0653437)
(-0.923999 -0.750279 0.0524727)
(-0.874497 -0.8486 0.0364169)
(-0.858885 -0.895773 0.0304379)
(-0.821021 -0.928086 0.00759266)
(-0.703726 -0.967778 -0.0230345)
(-0.592539 -1.00234 -0.0420166)
(-0.626777 -0.952946 -0.0172184)
(-0.484976 -0.971993 -0.0307152)
(-0.502875 -0.893699 -0.0301312)
(-0.530489 -0.797231 -0.0232814)
(-0.559324 -0.731019 -0.0194696)
(-0.686442 -0.712591 -0.00981284)
(-0.675001 -0.598277 -0.00779417)
(-0.824183 -0.577341 0.0303239)
(-0.918544 -0.559699 0.050379)
(-0.881428 -0.697175 0.0231238)
(-0.800454 -0.704732 0.0121797)
(-0.777576 -0.789937 0.00226731)
(-0.660939 -0.798427 -0.0107844)
(-0.635785 -0.88282 -0.0170483)
(-0.74852 -0.866384 -0.00514871)
(-0.825565 -0.850742 0.00442377)
(-0.8632 -0.773145 0.0134918)
(-0.801716 -0.739057 -0.0117964)
(-0.624308 -0.612256 0.00183201)
(-0.847242 -0.659772 0.0116661)
(-0.868235 -0.518433 0.0520323)
(-0.870648 -0.379832 0.0581151)
(-0.843579 -0.282277 0.121564)
(-0.832528 -0.302286 0.0765035)
(-0.879086 -0.35067 0.052547)
(-0.875435 -0.203934 0.129003)
(-0.89445 -0.184242 0.174045)
(-0.760958 -0.16153 0.158407)
(-0.766755 -0.129075 0.259098)
(-0.778051 -0.120777 0.301855)
(-0.821777 -0.108665 0.355253)
(-0.829287 -0.119285 0.352568)
(-0.64263 -0.18175 0.250941)
(-0.607679 -0.173672 0.248365)
(-0.567736 -0.180508 0.215486)
(-0.551263 -0.175663 0.188875)
(-0.568926 -0.191229 0.120308)
(-0.338412 -0.194819 0.0767991)
(-0.320307 -0.189322 0.101712)
(-0.329478 -0.192025 0.114206)
(-0.360809 -0.198909 0.124347)
(-0.449416 -0.216946 0.141645)
(-0.405449 -0.253436 0.0595353)
(-0.38231 -0.284986 0.0681784)
(-0.410871 -0.341103 0.04686)
(-0.316137 -0.426997 0.0356962)
(-0.311914 -0.394412 0.0489114)
(-0.283754 -0.416309 0.0153976)
(-0.193075 -0.419549 -0.0206727)
(-0.337296 -0.254151 0.035221)
(-0.403149 -0.330953 0.0409258)
(-0.248421 -0.457473 -0.00684582)
(-0.291837 -0.459866 8.78653e-05)
(-0.45199 -0.321265 0.0717826)
(-0.524786 -0.299037 0.131109)
(-0.498191 -0.318703 0.136208)
(-0.471057 -0.336856 0.111271)
(-0.458852 -0.350695 0.0941988)
(-0.49325 -0.373214 0.00851051)
(-0.710843 -0.31784 0.0631051)
(-0.71791 -0.529898 0.0388805)
(-0.54907 -0.554453 -0.00186359)
(-0.509954 -0.607151 -0.00411932)
(-0.465725 -0.649447 -0.017598)
(-0.43696 -0.65271 -0.021303)
(-0.412875 -0.531003 -0.0231345)
(-0.411078 -0.540993 -0.0485556)
(-0.409948 -0.541463 -0.0344686)
(-0.335421 -0.550542 -0.0171809)
(-0.267455 -0.596021 -0.00740617)
(-0.319531 -0.58101 -0.00363569)
(-0.403403 -0.5131 0.00701047)
(-0.331957 -0.535494 -0.00426183)
(-0.438724 -0.630501 -0.0119822)
(-0.292905 -0.473331 -0.00521343)
(-0.210345 -0.539823 -0.0183742)
(-0.281072 -0.524767 -0.0163505)
(-0.394411 -0.43619 -0.000817026)
(-0.413848 -0.362839 -0.0105108)
(-0.260564 -0.394305 -0.0111181)
(-0.156961 -0.42302 -0.0363927)
(-0.136331 -0.399611 -0.0226726)
(-0.238174 -0.205406 0.0223279)
(-0.382578 -0.342962 -0.00207831)
(-0.251717 -0.474711 -0.0197849)
(-0.21905 -0.468133 -0.0237018)
(-0.122091 -0.392961 -0.0300183)
(-0.219262 -0.194553 0.039195)
(-0.346862 -0.338039 0.012131)
(-0.366266 -0.36338 0.0541352)
(-0.195876 -0.511268 -0.0108804)
(-0.174143 -0.468217 0.0186378)
(-0.11005 -0.420366 0.00194222)
(-0.22241 -0.229149 0.0446992)
(-0.325945 -0.341994 0.0523244)
(-0.335186 -0.339079 0.0569515)
(-0.180687 -0.463402 0.0166821)
(-0.109411 -0.409128 0.000107296)
(-0.232068 -0.220554 0.0621364)
(-0.286115 -0.221544 0.0774793)
(-0.240599 -0.230352 0.0712372)
(-0.350479 -0.337133 0.0784594)
(-0.189811 -0.465493 0.0483438)
(-0.117929 -0.415793 0.0374169)
(-0.140626 -0.449879 -0.00380234)
(-0.196606 -0.497791 0.0256958)
(-0.381846 -0.350788 0.0791092)
(-0.334494 -0.625684 -0.00361384)
(-0.355778 -0.632377 -0.0116742)
(-0.49947 -0.512059 0.057848)
(-0.651484 -0.444852 0.0982552)
(-0.666955 -0.28686 0.136311)
(-0.798401 -0.271651 0.170483)
(-0.89112 -0.320836 0.166402)
(-1.021 -0.488917 0.125962)
(-1.10786 -0.49521 0.167714)
(-1.13274 -0.5028 0.192894)
(-1.11275 -0.505116 0.215904)
(-1.04941 -0.501356 0.238796)
(-0.943728 -0.490364 0.260688)
(-0.794667 -0.466981 0.287287)
(-0.639799 -0.431855 0.326873)
(-0.397119 -0.380672 0.395695)
(-0.162109 -0.293185 0.484058)
(0.0441893 -0.15062 0.487563)
(0.33874 -0.158366 0.428211)
(0.339095 -0.215568 0.377746)
(0.20521 -0.127738 0.487088)
(0.273011 -0.00324213 0.766252)
(0.284185 0.0459682 1.03221)
(0.269209 0.0808317 1.14251)
(0.251021 0.133329 1.09242)
(0.212982 0.122682 0.95581)
(0.142345 0.121164 0.704499)
(0.0397465 0.187513 0.405179)
(0.174244 0.513223 0.425225)
(0.42061 0.514411 0.374513)
(0.60671 0.538908 0.375698)
(0.851586 0.497741 0.351369)
(1.0094 0.416717 0.317557)
(1.07273 0.322203 0.274025)
(1.05473 0.253975 0.234705)
(1.00098 0.210439 0.200575)
(1.01734 0.158858 0.169037)
(1.03614 0.118298 0.145794)
(0.977984 0.091963 0.0914769)
(0.875472 0.0420279 0.0683853)
(0.711079 -0.0232838 0.0545091)
(0.466586 -0.110293 0.021187)
(0.239698 -0.217244 -0.0230102)
(0.0999554 -0.61888 -0.110852)
(0.175286 -0.382296 -0.0794058)
(-0.179364 -0.170327 0.00605981)
(-0.099911 -0.386635 -0.0380455)
(-0.109354 -0.303914 -0.063807)
(-0.11137 -0.326214 -0.071731)
(-0.108852 -0.280527 -0.0598786)
(-0.0741258 -0.193973 -0.0524801)
(-0.159288 -0.140243 -0.0145894)
(-0.222571 0.268065 0.159504)
(-0.125768 0.485626 0.116843)
(-0.0368767 0.605524 0.0708244)
(0.0360915 0.64719 0.0815409)
(0.124142 0.67221 0.175976)
(0.220093 0.724905 0.296298)
(0.312386 0.763658 0.335126)
(0.396068 0.76085 0.367093)
(0.474 0.697634 0.374587)
(0.539941 0.557558 0.371581)
(0.592371 0.335314 0.337283)
(0.571997 0.00189328 0.263442)
(0.395072 -0.337052 0.258749)
(0.29459 -0.336813 0.32094)
(0.229028 -0.291206 0.330322)
(0.161881 -0.200593 0.335407)
(0.147886 -0.00400958 0.313359)
(0.289121 0.00890596 0.340738)
(0.452146 -0.158277 0.331138)
(0.604636 -0.25567 0.342608)
(0.6437 -0.344685 0.351631)
(0.624477 -0.436543 0.353569)
(0.477609 -0.541355 0.334786)
(0.108361 -0.566158 0.316687)
(-0.170684 -0.298347 0.302456)
(-0.0375918 -0.128585 0.355774)
(0.23081 -0.152761 0.237898)
(0.28167 -0.404639 0.0723442)
(0.00844339 -0.520337 0.238432)
(-0.141611 -0.749785 -0.14239)
(0.199689 -0.721014 -0.481132)
(0.309179 -0.395067 -0.177535)
(0.332298 -0.375926 0.0929451)
(0.346004 -0.545988 0.183229)
(0.328436 -0.890125 0.119696)
(0.532856 -0.872885 0.0647474)
(0.612213 -0.692276 0.0982788)
(0.577739 -0.538707 0.137918)
(0.508128 -0.396499 0.188355)
(0.338816 -0.231447 0.246706)
(0.363303 -0.34769 0.194942)
(0.427092 -0.378611 0.142182)
(0.50837 -0.364592 0.0797831)
(0.61983 -0.296835 -0.0569117)
(0.864739 0.191849 -0.118522)
(0.909125 0.476686 -0.0230914)
(0.854474 0.679603 0.0479579)
(0.755947 0.782162 0.0907786)
(0.62895 0.808361 0.136642)
(0.48387 0.776584 0.154347)
(0.323068 0.712212 0.170719)
(0.15286 0.639643 0.112731)
(-0.0240953 0.593563 0.0535742)
(-0.149427 0.552988 0.0564733)
(-0.271965 0.448743 0.113447)
(-0.402306 0.26056 0.162292)
(-0.288078 -0.0997719 0.0203119)
(-0.408467 0.0427994 0.0764203)
(-0.49327 0.0854764 0.100912)
(-0.531377 0.202543 0.134636)
(-0.542079 0.149722 0.104158)
(-0.502396 0.0145094 0.0254196)
(-0.456176 -0.0578552 0.0138922)
(-0.383513 -0.119734 -0.00807823)
(-0.286958 -0.189529 -0.021231)
(-0.190839 -0.224528 -0.0351823)
(-0.137393 -0.192214 -0.0258119)
(-0.198811 -0.152066 -0.0179331)
(-0.182538 -0.315994 -0.0293561)
(-0.121596 -0.312171 -0.0418446)
(-0.100456 -0.333344 -0.0687442)
(-0.0795347 -0.368227 -0.100727)
(-0.0485832 -0.560267 -0.219229)
(-0.0896789 -0.499849 -0.147899)
(-0.108141 -0.60648 -0.114552)
(-0.154131 -0.607782 -0.0847348)
(-0.203849 -0.502183 -0.0713833)
(-0.313316 -0.27834 -0.0301274)
(-0.217788 0.283744 0.161653)
(-0.0781458 0.40708 0.304773)
(0.00739453 0.501266 0.444526)
(0.0760127 0.491043 0.562819)
(0.145044 0.429406 0.624688)
(0.198625 0.316638 0.655042)
(0.249666 0.162473 0.627618)
(0.235743 -0.0170976 0.531828)
(0.105739 -0.138241 0.440781)
(-0.0114349 -0.101835 0.449951)
(-0.0321247 0.0129568 0.427219)
(-0.0342256 0.137046 0.428134)
(0.0372067 0.243786 0.36928)
(0.199179 0.136401 0.384425)
(0.157541 0.271952 0.451494)
(-0.0585387 0.178655 -0.055792)
(-0.171855 -0.0686412 -0.643901)
(-0.180005 -0.307102 -0.543533)
(-0.167847 -0.345179 -0.308416)
(-0.144199 -0.30426 -0.0958219)
(-0.0620529 -0.587929 -0.107273)
(-0.0281599 -0.865792 -0.0939746)
(0.00182043 -1.0226 -0.0910318)
(0.0320545 -1.14574 -0.0998944)
(0.065118 -1.22903 -0.114006)
(0.0954076 -1.28133 -0.127953)
(0.121928 -1.30727 -0.139817)
(0.145891 -1.31517 -0.15178)
(0.166813 -1.31243 -0.164388)
(0.18517 -1.30255 -0.175326)
(0.200923 -1.28711 -0.18395)
(0.214996 -1.26673 -0.189271)
(0.227468 -1.24128 -0.192146)
(0.238848 -1.20952 -0.191151)
(0.248517 -1.17012 -0.186104)
(0.254354 -1.12064 -0.175334)
(0.251549 -1.05821 -0.15867)
(0.194615 -0.995324 -0.138855)
(0.139692 -0.910572 -0.122677)
(0.16432 -0.826746 -0.0869546)
(0.187597 -0.726439 -0.0881713)
(0.203739 -0.558029 -0.0880557)
(0.246548 -0.44129 -0.0843741)
(0.0720397 -0.0296478 -0.0954006)
(0.365566 -0.297562 0.0435489)
(0.245498 -0.549953 -0.0570738)
(0.285732 -0.0944405 -0.0268686)
(0.180457 -0.0366857 -0.147266)
(0.201214 -0.112109 -0.124617)
(0.193955 -0.119049 -0.0808445)