/*--------------------------------*- C++ -*----------------------------------*\
| =========                 |                                                 |
| \\      /  F ield         | OpenFOAM: The Open Source CFD Toolbox           |
|  \\    /   O peration     | Version:  v2012                                 |
|   \\  /    A nd           | Website:  www.openfoam.com                      |
|    \\/     M anipulation  |                                                 |
\*---------------------------------------------------------------------------*/
FoamFile
{
    version     2.0;
    format      ascii;
    class       volVectorField;
    location    "720";
    object      U;
}
// * * * * * * * * * * * * * * * * * * * * * * * * * * * * * * * * * * * * * //

dimensions      [0 1 -1 0 0 0 0];


internalField   nonuniform List<vector> 
18258
(
(-0.176012 0.114415 0.138518)
(-0.051534 0.245088 0.158634)
(-0.104652 0.212627 0.0962602)
(-0.0402161 0.0688641 0.0845132)
(-0.226173 0.200996 0.0190549)
(-0.15953 0.358984 0.0173344)
(-0.2231 0.0443499 0.0543444)
(-0.341492 -0.0534987 0.0755138)
(-0.448762 -0.105952 0.10828)
(-0.53574 -0.159703 0.145789)
(-0.621467 -0.217192 0.179956)
(-0.687761 -0.27156 0.309611)
(-0.67863 -0.334268 0.3573)
(-0.622255 -0.445483 0.385884)
(-0.488024 -0.542987 0.369431)
(-0.205126 -0.587422 0.34041)
(0.073888 -0.374301 0.288851)
(0.0777072 -0.163853 0.298319)
(-0.128528 -0.0787016 0.236912)
(-0.401202 -0.273488 0.117145)
(-0.139723 -0.526699 0.293313)
(-0.199663 -0.366036 0.407276)
(-0.305158 -0.738091 0.301798)
(-0.366352 -0.779829 0.262628)
(-0.137247 -0.708006 0.13198)
(0.00314787 -0.645301 0.182795)
(-0.0180757 -0.340605 0.42303)
(0.173632 -0.113145 0.805592)
(0.298666 -0.0952886 0.893476)
(0.316246 0.0577376 0.914182)
(0.317422 0.184905 0.81606)
(0.167135 0.301837 0.103659)
(0.0768261 0.133178 -0.430293)
(0.0104444 0.0812376 -0.722493)
(-0.0679187 0.0780864 -0.897517)
(-0.0580102 0.0740895 -1.08002)
(-0.0710034 0.0732339 -1.21954)
(-0.0993805 0.0911847 -1.3134)
(-0.141082 0.0824342 -1.36087)
(-0.188838 0.0889003 -1.34678)
(-0.238471 0.0752757 -1.26266)
(-0.285047 0.0845472 -1.10888)
(-0.323888 0.0789668 -0.898019)
(-0.354813 0.0800812 -0.643612)
(-0.364552 0.0828271 -0.350905)
(-0.3475 0.0778581 -0.153355)
(-0.155954 0.179742 -0.194801)
(0.364338 -0.100051 -0.13646)
(0.631015 -0.130463 -0.156859)
(0.6764 -0.112976 -0.166599)
(0.787956 -0.135926 -0.175911)
(0.815181 -0.132679 -0.193476)
(0.5083 -0.00360729 -0.257362)
(0.26008 -0.137869 -0.217959)
(0.113521 -0.0417046 -0.158618)
(0.282787 -0.00953621 -0.169047)
(0.538089 -0.00246832 -0.173709)
(0.792513 -0.0301366 -0.178009)
(1.09301 -0.0348594 -0.175836)
(1.42876 -0.0490225 -0.185289)
(1.76334 -0.0647479 -0.183648)
(2.04743 -0.0812906 -0.166708)
(2.24796 -0.0929361 -0.13821)
(2.34791 -0.0990066 -0.102527)
(2.35428 -0.0962812 -0.067874)
(2.29359 -0.0885645 -0.0411903)
(2.19975 -0.0820481 -0.0246034)
(2.10712 -0.0759377 -0.0179145)
(2.03759 -0.0671486 -0.0189796)
(1.99192 -0.0643041 -0.0236912)
(1.96759 -0.059173 -0.0261658)
(1.95707 -0.0502867 -0.0206665)
(1.94285 -0.0398012 -0.00369038)
(1.89944 -0.0250009 0.0238628)
(1.81194 -0.00797333 0.0534365)
(1.69111 0.00938429 0.0767073)
(1.57035 0.0215665 0.0795501)
(1.47767 0.0305268 0.0749139)
(1.39961 0.0375626 0.0702581)
(1.3375 0.0502601 0.0628935)
(1.28671 0.056914 0.0646399)
(1.19309 0.0440596 0.0781134)
(1.09597 0.0187579 0.109593)
(1.01301 0.000460684 0.127028)
(0.90574 -0.0211449 0.119899)
(0.761785 0.0165749 0.145233)
(0.641046 0.0816035 0.132764)
(0.517413 0.100561 0.133576)
(0.380442 0.11798 0.117957)
(0.224093 0.126917 0.0958424)
(0.119911 0.189959 0.091406)
(0.121712 0.0107626 0.196983)
(0.164041 -0.100752 0.142937)
(0.112984 -0.129779 0.0385469)
(0.104386 -0.115121 -0.143683)
(0.216382 -0.210312 -0.373017)
(0.262523 -0.231743 -0.558358)
(0.204014 -0.138389 -0.730796)
(0.105414 -0.080118 -0.713464)
(0.0362384 0.0593422 -0.488605)
(-0.0929398 0.233017 -0.149184)
(-0.21718 0.193011 0.181407)
(-0.234444 0.0646047 0.156131)
(-0.340314 0.0145814 0.170769)
(-0.274167 0.137009 0.17988)
(-0.248373 0.285487 -0.042303)
(-0.106629 0.164548 -0.401815)
(0.0629103 0.00524606 -0.584022)
(0.332751 -0.0936267 -0.63337)
(0.495115 -0.229684 -0.491838)
(0.351276 -0.210956 -0.282406)
(0.27156 -0.192215 -0.102334)
(0.282771 -0.186843 0.0381689)
(0.280513 -0.140109 0.159335)
(0.224971 -0.098928 0.191001)
(0.39612 -0.0813601 0.180042)
(0.535158 -0.0633393 0.175601)
(0.587612 -0.052108 0.163754)
(0.699499 -0.078805 0.159832)
(0.731874 -0.133814 0.131375)
(0.600463 -0.134335 0.13416)
(0.454106 -0.15184 0.13868)
(0.461166 -0.186055 0.0339923)
(0.610404 -0.16295 0.0499419)
(0.735724 -0.162138 0.0474234)
(0.904137 -0.141815 0.0797841)
(1.08773 -0.109935 0.109358)
(1.18906 -0.0777786 0.146961)
(1.20804 -0.0107754 0.138887)
(1.24521 -0.00916326 0.119501)
(1.33526 -0.00704229 0.138994)
(1.37719 -0.00181594 0.129023)
(1.36884 -0.0125756 0.157694)
(1.32829 -0.0482192 0.192709)
(1.32263 -0.0511432 0.189616)
(1.28553 -0.0620327 0.150612)
(1.2788 -0.0601997 0.133711)
(1.25776 -0.0477314 0.107282)
(1.24921 -0.0457214 0.109332)
(1.20121 0.00473852 0.108087)
(1.19419 0.0282649 0.136841)
(1.07638 0.137622 0.270852)
(1.226 0.0532409 0.253524)
(1.21761 0.020379 0.157768)
(1.26625 -0.0207433 0.127169)
(1.27842 -0.0249301 0.11792)
(1.28894 -0.038183 0.142871)
(1.30784 -0.0414971 0.182182)
(1.35037 -0.036715 0.216204)
(1.38617 -0.0367077 0.221154)
(1.42304 -0.0128277 0.182453)
(1.43637 -0.00200318 0.137362)
(1.51255 -0.00660086 0.150478)
(1.61054 -0.016779 0.158589)
(1.74974 -0.0316776 0.142998)
(1.88177 -0.0542454 0.0484485)
(1.96309 -0.0756944 -0.0717143)
(1.98234 -0.0905294 -0.164745)
(1.96478 -0.0965238 -0.200934)
(1.94834 -0.0968393 -0.194826)
(1.95842 -0.0912042 -0.174982)
(2.00542 -0.0826603 -0.144479)
(2.08694 -0.0701755 -0.107784)
(2.19825 -0.0598951 -0.0837983)
(2.31275 -0.059558 -0.112545)
(2.3901 -0.0606717 -0.172854)
(2.39314 -0.058326 -0.276808)
(2.28749 -0.0501411 -0.392178)
(2.07215 -0.0425493 -0.483687)
(1.77177 -0.0367839 -0.540237)
(1.42792 -0.0316383 -0.549087)
(1.08184 -0.0193473 -0.527929)
(0.793231 -0.0243465 -0.459536)
(0.537448 -0.0156669 -0.415563)
(0.283391 -0.0211517 -0.386864)
(0.109291 -0.0397809 -0.360644)
(0.102452 -0.0416558 -0.637163)
(0.0775661 -0.0369613 -0.873272)
(0.0508456 -0.039015 -1.05786)
(0.0118848 -0.0403289 -1.17658)
(-0.02329 -0.0280163 -1.21635)
(-0.0599843 -0.0155024 -1.16864)
(-0.0937716 0.003647 -1.03939)
(-0.119207 0.0277614 -0.82122)
(-0.120965 0.0851541 -0.559561)
(-0.146869 0.132427 -0.0327229)
(-0.194041 0.0246186 0.5738)
(-0.210038 -0.034446 0.759951)
(-0.228303 -0.00321606 0.92818)
(-0.23347 -0.0464154 1.07001)
(-0.319057 -0.106115 1.13342)
(-0.372049 -0.113486 1.14596)
(-0.37065 -0.234866 1.00542)
(-0.299535 -0.253721 0.77121)
(-0.460698 -0.670017 0.687301)
(-0.485633 -0.547865 0.705314)
(-0.413865 -0.4152 0.833101)
(-0.549083 -0.76874 0.859782)
(-0.6832 -0.833878 0.607549)
(-0.473969 -0.756611 0.800327)
(-0.435307 -0.575902 0.74334)
(-0.783006 -0.526141 0.751299)
(-0.902028 -0.409351 0.861563)
(-0.530381 -0.707798 0.826445)
(-0.439822 -0.577594 0.667436)
(-0.320585 -0.320252 0.407269)
(-0.29976 -0.182788 0.401117)
(-0.283379 -0.146641 0.355215)
(-0.234976 0.109717 0.11558)
(-0.162237 0.298478 -0.417679)
(-0.151941 0.190664 -0.638894)
(-0.132262 0.0292824 -0.91389)
(-0.08714 -0.056676 -1.08628)
(-0.0288054 -0.069331 -1.23421)
(0.0383696 -0.101926 -1.26909)
(0.0981639 -0.0986958 -1.23411)
(0.172832 -0.10933 -1.12015)
(0.216876 -0.123547 -0.920168)
(0.261247 -0.146712 -0.705643)
(0.250118 -0.139368 -0.39842)
(0.420077 -0.0491335 -0.637471)
(0.77582 -0.118313 -0.456197)
(0.731683 -0.109737 -0.41112)
(0.633512 -0.075923 -0.40337)
(0.570786 -0.105226 -0.408885)
(0.132525 -0.10003 -0.518647)
(0.179301 -0.116008 -0.903556)
(0.25902 -0.22418 -1.05585)
(0.343813 -0.282247 -0.94487)
(0.3894 -0.351482 -0.505113)
(0.19907 0.0436626 0.127464)
(0.265722 0.124031 0.18105)
(0.429215 -0.324379 0.335504)
(0.516301 -0.529032 0.50499)
(0.54601 -0.522485 0.551257)
(0.412848 -0.235285 0.678096)
(0.471804 -0.337678 0.564156)
(0.487158 -0.609817 0.544305)
(0.704555 -0.672861 0.316825)
(0.746625 -0.489218 0.45206)
(0.798772 -0.345861 0.598252)
(0.236118 -0.226051 0.576039)
(-0.23506 -0.269336 0.830466)
(-0.171226 -0.191456 0.681996)
(-0.67218 -0.299099 0.820804)
(-0.468248 -0.183793 0.696973)
(-0.31932 -0.00561498 0.545325)
(-0.218538 0.17861 -0.295093)
(-0.19245 -0.0412436 -0.617122)
(-0.0574847 -0.169038 -1.10032)
(0.104549 -0.157959 -1.25032)
(0.276518 -0.0870973 -1.11809)
(0.438481 -0.108261 -0.698206)
(0.508697 -0.0740778 -0.621719)
(0.503592 -0.0437135 -0.610095)
(0.556332 -0.0879956 -0.633931)
(0.59744 -0.12118 -0.726277)
(0.403832 -0.0429716 -0.677886)
(0.362053 -0.0792952 -0.658494)
(0.136672 -0.113963 -0.667757)
(-0.111143 -0.0485462 -0.579223)
(0.297302 0.00660481 -0.588885)
(0.357212 0.0158273 -0.605968)
(0.64252 -0.0964619 -0.64228)
(0.575484 -0.0976665 -0.367524)
(0.271507 0.0747328 -0.354218)
(0.272349 0.055564 -0.2319)
(-0.303204 -0.0383077 0.122444)
(-0.308181 0.143984 -0.00320772)
(-0.28345 -0.0248544 -0.447336)
(0.0893356 -0.202058 -0.574669)
(0.363461 -0.280664 -0.568305)
(0.727714 -0.346317 -0.405339)
(0.811799 -0.419113 -0.377672)
(0.773176 -0.291248 -0.295426)
(0.81451 -0.365736 -0.219542)
(0.829048 -0.48755 -0.284037)
(0.742219 -0.43325 -0.278138)
(0.721523 -0.306781 -0.330959)
(0.748858 -0.252358 -0.34139)
(0.794405 -0.31222 -0.212045)
(0.806651 -0.367815 -0.160381)
(0.893675 -0.464932 -0.156562)
(1.15912 -0.631294 -0.117693)
(1.61721 -0.72656 -0.0987201)
(1.99408 -0.671858 -0.0380835)
(2.15043 -0.489563 0.0473151)
(2.07018 -0.290442 0.095346)
(1.90473 -0.162649 0.10275)
(1.80716 -0.0946375 0.0993019)
(1.71032 0.000117513 0.0988361)
(1.57278 0.0882265 0.0909716)
(1.43539 0.106404 0.047958)
(1.33086 0.056638 0.0272045)
(1.24104 -0.00538541 0.0214818)
(1.13926 -0.0547919 0.023171)
(1.05532 -0.0794038 0.0213289)
(0.997446 -0.062957 0.0168655)
(0.821267 -0.110535 -0.0239335)
(0.71632 0.00202489 0.00966118)
(0.633021 0.068144 0.00880468)
(0.497441 0.0228134 0.00645447)
(0.359319 -0.0610296 -0.0132762)
(0.139065 -0.146969 -0.032273)
(0.225558 -0.308347 0.00127766)
(0.353247 -0.0819838 0.0120413)
(-0.00253383 -0.230304 -0.00922798)
(0.0429508 -0.546098 -0.050505)
(0.0119449 -0.712667 -0.0526423)
(-0.00809308 -0.876615 -0.0532663)
(-0.026046 -1.00667 -0.0649829)
(-0.0360836 -1.10261 -0.0958642)
(-0.0466109 -1.15701 -0.10516)
(-0.0581479 -1.21432 -0.118294)
(-0.0883771 -1.27608 -0.134292)
(-0.11348 -1.32084 -0.149614)
(-0.137463 -1.35461 -0.162537)
(-0.159501 -1.37632 -0.173605)
(-0.17854 -1.38772 -0.183276)
(-0.193959 -1.38941 -0.189996)
(-0.206113 -1.38236 -0.193855)
(-0.216154 -1.36768 -0.193976)
(-0.224727 -1.34582 -0.192055)
(-0.233019 -1.31539 -0.186602)
(-0.240689 -1.27451 -0.178235)
(-0.246136 -1.22027 -0.165173)
(-0.244017 -1.15113 -0.147408)
(-0.191059 -1.07168 -0.127002)
(-0.141286 -0.969023 -0.112633)
(-0.165836 -0.868523 -0.0795369)
(-0.18986 -0.754574 -0.0819501)
(-0.205074 -0.543079 -0.0855498)
(-0.273855 -0.450232 -0.0920564)
(0.0224506 0.0533004 -0.11625)
(-0.350896 -0.308381 0.025134)
(-0.231741 -0.617513 -0.0546155)
(-0.270506 -0.0992733 -0.011105)
(-0.458199 -0.182443 0.0645251)
(-0.678969 -0.198643 0.0822116)
(-0.842498 -0.209218 0.114025)
(-0.954003 -0.223066 0.144144)
(-1.0348 -0.232459 0.203709)
(-1.11815 -0.244258 0.245218)
(-1.18737 -0.244146 0.301946)
(-1.20107 -0.248373 0.336218)
(-1.17412 -0.250134 0.36614)
(-1.10719 -0.248847 0.394454)
(-0.996386 -0.243179 0.422657)
(-0.841751 -0.2302 0.454097)
(-0.667853 -0.205994 0.493562)
(-0.42073 -0.147027 0.542763)
(-0.137674 -0.11872 0.566851)
(-0.155826 0.0284376 0.822653)
(-0.15917 0.0829416 1.04265)
(-0.158895 0.115217 1.1123)
(-0.160198 0.164328 1.0208)
(-0.16404 0.153483 0.83806)
(-0.151681 0.131473 0.567631)
(-0.124526 0.143537 0.285658)
(-0.225772 0.439401 0.370884)
(-0.507464 0.467354 0.335213)
(-0.692415 0.480385 0.339242)
(-0.917276 0.465185 0.332687)
(-1.09945 0.424496 0.308644)
(-1.22652 0.353062 0.265877)
(-1.28214 0.273169 0.218729)
(-1.26485 0.206042 0.181492)
(-1.23185 0.147855 0.158231)
(-1.18894 0.115169 0.140329)
(-1.09954 0.0924712 0.0901853)
(-0.957819 0.0451011 0.0698446)
(-0.76654 -0.0207797 0.05941)
(-0.500236 -0.114021 0.0189909)
(-0.252754 -0.207769 -0.0190702)
(-0.273816 -0.197545 -0.0664812)
(-0.31811 -0.176978 0.00777199)
(-0.314325 -0.174175 0.0589131)
(-0.272442 -0.156552 0.150009)
(-0.38079 -0.233712 0.117584)
(-0.422654 -0.296977 0.11763)
(-0.326624 -0.288019 0.176337)
(-0.269587 -0.215046 0.0442332)
(-0.140937 -0.100744 -0.0266826)
(-0.140946 -0.0768718 -0.00809675)
(-0.13873 -0.074199 -0.0360735)
(-0.169444 -0.0557122 -0.0683945)
(-0.167928 -0.501577 -0.149089)
(-0.126361 -0.479738 -0.138906)
(-0.11076 -0.447186 -0.0965526)
(-0.10061 -0.424065 -0.146696)
(-0.266464 -0.538006 -0.0324417)
(-0.276125 -0.575429 -0.0267981)
(-0.283432 -0.631722 -0.0851573)
(-0.337128 -0.582868 -0.0212638)
(-0.340067 -0.529971 0.0541109)
(-0.301456 -0.35915 0.0842539)
(-0.444413 -0.317075 0.114026)
(-0.361401 -0.431845 0.0395456)
(-0.347145 -0.522679 0.0130336)
(-0.377807 -0.508549 -0.0247707)
(-0.428507 -0.394555 0.0312438)
(-0.497297 -0.346655 0.0724146)
(-0.528901 -0.254928 0.163266)
(-0.591215 -0.215511 0.240922)
(-0.680107 -0.197617 0.2555)
(-0.576506 -0.206775 0.21112)
(-0.516704 -0.18787 0.180734)
(-0.544955 -0.185018 0.117434)
(-0.539518 -0.172101 0.0915962)
(-0.495947 -0.184288 0.000604091)
(-0.761347 -0.0867157 0.0643674)
(-0.971366 -0.00544316 0.0894916)
(-1.07897 0.0520788 0.103379)
(-1.12815 0.0749725 0.13795)
(-1.16588 0.0358021 0.237619)
(-1.25058 0.0689808 0.266873)
(-1.31664 0.119394 0.348741)
(-1.33033 0.17084 0.431426)
(-1.27317 0.221935 0.523944)
(-1.14843 0.260963 0.603693)
(-0.975886 0.28134 0.648323)
(-0.775798 0.283576 0.657465)
(-0.623394 0.288692 0.644478)
(-0.342417 0.272396 0.644258)
(-0.436101 0.244982 0.874861)
(-0.468109 0.227683 1.00323)
(-0.460971 0.179884 1.08165)
(-0.441712 0.123681 1.01381)
(-0.440278 0.0585632 0.797995)
(-0.711552 -0.00500577 0.744344)
(-0.722201 0.0715768 0.944648)
(-0.740979 0.117373 1.02344)
(-0.745908 0.164363 0.979507)
(-0.695711 0.198839 0.872629)
(-0.838386 0.186406 0.862528)
(-0.880239 0.145968 0.965049)
(-0.883063 0.0884487 1.00102)
(-0.87333 0.0421009 0.926284)
(-0.866978 -0.0388935 0.706935)
(-1.01019 -0.0601663 0.675736)
(-1.02476 0.020645 0.900999)
(-1.03776 0.0696525 0.966141)
(-1.04598 0.122109 0.944112)
(-1.02105 0.174095 0.85413)
(-1.16459 0.163025 0.803997)
(-1.16515 0.110639 0.89266)
(-1.14842 0.0572212 0.914448)
(-1.13125 0.00656051 0.859301)
(-1.11115 -0.072954 0.639985)
(-1.17125 -0.0836088 0.595365)
(-1.19679 -0.0061372 0.796701)
(-1.22315 0.0436755 0.839907)
(-1.25249 0.0918752 0.811356)
(-1.27014 0.141392 0.716738)
(-1.31956 0.110865 0.609998)
(-1.29112 0.068869 0.709051)
(-1.2527 0.0250311 0.747037)
(-1.21731 -0.021678 0.716212)
(-1.1872 -0.0934188 0.539632)
(-1.15393 -0.104664 0.472569)
(-1.18206 -0.0413515 0.621182)
(-1.22088 0.000213873 0.640491)
(-1.27519 0.0391595 0.60621)
(-1.30823 0.0742566 0.508921)
(-1.22514 0.0356862 0.414082)
(-1.18841 0.00287336 0.499862)
(-1.12871 -0.0321788 0.530934)
(-1.08651 -0.0600724 0.519997)
(-1.04026 -0.111743 0.386643)
(-0.919332 -0.120121 0.315091)
(-0.9236 -0.109361 0.357984)
(-0.972994 -0.0803683 0.438075)
(-0.95693 -0.0870245 0.424853)
(-0.927968 -0.10265 0.394392)
(-1.00468 -0.0684424 0.381095)
(-0.996359 -0.0630883 0.30712)
(-1.00103 -0.039183 0.282502)
(-1.04404 -0.0271994 0.208874)
(-1.03905 -0.00954765 0.20221)
(-0.806247 -0.105197 0.145109)
(-0.819147 -0.125224 0.157558)
(-0.788208 -0.128427 0.215932)
(-0.824168 -0.141505 0.249054)
(-0.610114 -0.281735 0.132669)
(-0.557039 -0.291456 0.114397)
(-0.50355 -0.326888 0.131994)
(-0.420156 -0.399612 0.115521)
(-0.39687 -0.384029 0.148957)
(-0.488154 -0.284188 0.164767)
(-0.606024 -0.239077 0.183172)
(-0.615324 -0.267877 0.0963631)
(-0.513461 -0.377942 0.0434374)
(-0.4396 -0.460139 0.027518)
(-0.39735 -0.526348 0.0571012)
(-0.383976 -0.697955 0.121347)
(-0.387086 -0.663329 0.127176)
(-0.405378 -0.380327 0.106042)
(-0.408302 -0.536564 0.0806016)
(-0.399251 -0.601929 0.0428558)
(-0.215723 -0.788232 -0.159772)
(-0.19339 -0.793983 -0.260422)
(-0.115366 -0.703957 -0.369909)
(-0.0786051 -0.623908 -0.38596)
(-0.0451563 -0.588625 -0.348201)
(-0.0136207 -0.555619 -0.30175)
(0.0315822 -0.501604 -0.23216)
(0.124141 -0.45504 -0.108965)
(0.124723 -0.579683 -0.121968)
(0.116837 -0.636032 -0.120225)
(0.0848901 -0.69398 -0.157748)
(0.092306 -0.748603 -0.155923)
(0.100478 -0.805208 -0.175101)
(0.118248 -0.833485 -0.167153)
(0.126271 -0.840161 -0.152915)
(0.126463 -0.826201 -0.130295)
(0.11774 -0.78999 -0.0958328)
(0.104187 -0.732958 -0.0424358)
(0.0365601 -0.652239 0.0337874)
(0.00212761 -0.543183 0.154705)
(0.0167706 -0.296473 0.361686)
(-0.150372 0.0188937 0.448731)
(-0.368307 0.0965218 0.349548)
(-0.393215 -0.0384009 0.257232)
(-0.220253 -0.172938 0.251599)
(-0.181789 -0.190211 0.268183)
(-0.159127 -0.180569 0.214816)
(-0.0956705 -0.147841 0.206597)
(-0.00371505 -0.0476338 0.0754564)
(-0.0335999 0.106504 0.0814913)
(-0.0802973 0.144009 0.0807713)
(-0.0486796 0.20914 0.171781)
(-0.00284082 0.175734 0.194889)
(0.01533 0.0204208 0.144713)
(-0.0496212 -0.0366601 0.230252)
(0.0230373 0.0841872 0.326486)
(-0.00446695 -0.0693594 0.287629)
(0.0749398 0.140196 0.249096)
(0.0894401 -0.0255412 0.226245)
(-0.0219666 -0.253123 0.455425)
(0.0492924 -0.356413 0.544895)
(0.172041 -0.499495 0.515835)
(0.168453 -0.691321 0.353081)
(0.0761193 -0.815761 0.1451)
(0.0587976 -0.887938 -0.00719745)
(0.065453 -0.922871 -0.119345)
(0.063374 -0.94946 -0.197657)
(0.0602953 -0.964223 -0.248799)
(0.0521714 -0.962525 -0.279555)
(0.042005 -0.942686 -0.292951)
(0.0293938 -0.905142 -0.289806)
(0.0237658 -0.830255 -0.250011)
(0.00739607 -0.784562 -0.329254)
(0.0436125 -0.703678 -0.225611)
(0.0476754 -0.653447 -0.211549)
(0.0448658 -0.636052 -0.232301)
(0.00467311 -0.702041 -0.325724)
(-0.0225707 -0.741723 -0.383627)
(-0.0573355 -0.777167 -0.411388)
(-0.0732364 -0.844024 -0.402238)
(-0.131932 -0.90444 -0.346604)
(-0.0939422 -0.968815 -0.33256)
(-0.0888976 -0.979544 -0.373742)
(-0.0537653 -0.918191 -0.418653)
(-0.0435538 -0.868141 -0.432519)
(-0.0177332 -0.825866 -0.404858)
(-0.00952636 -0.869291 -0.341687)
(-0.0392464 -0.901656 -0.374716)
(-0.0559793 -0.948379 -0.397179)
(-0.0236534 -0.991437 -0.40633)
(-0.0486152 -1.05976 -0.421104)
(-0.0666087 -1.0424 -0.424709)
(-0.0934191 -0.920241 -0.345551)
(-0.1865 -0.761693 -0.225069)
(-0.197994 -0.614249 -0.0415333)
(-0.0998238 -0.733311 -0.197723)
(-0.0795517 -0.839343 -0.260298)
(-0.0593771 -0.928577 -0.324155)
(-0.060911 -0.946062 -0.334834)
(-0.0278409 -0.829304 -0.381794)
(-0.0240593 -0.724361 -0.338161)
(-0.0322467 -0.541814 -0.255016)
(-0.0165018 -0.353204 -0.164659)
(0.0345814 -0.0895989 -0.210431)
(-0.247322 -0.433437 0.0726417)
(-0.328454 -0.461084 0.0257731)
(0.219984 -0.118863 -0.244027)
(-0.172851 -0.247332 0.0429272)
(-0.218068 -0.266508 -0.117471)
(-0.25839 -0.26877 -0.103727)
(-0.208491 -0.281605 -0.0216144)
(0.0811351 0.140957 -0.21944)
(0.102706 0.0598327 -0.232217)
(0.100826 -0.000133771 -0.261374)
(0.0960399 -0.000135055 -0.26624)
(-0.0803313 -0.429652 -0.202239)
(-0.133197 -0.449935 -0.22304)
(-0.186321 -0.458273 -0.206908)
(-0.249281 -0.445054 -0.16939)
(-0.16905 -0.547359 -0.184401)
(-0.126913 -0.559212 -0.257511)
(-0.0963709 -0.565524 -0.291858)
(-0.0608055 -0.553775 -0.292312)
(-0.0508963 -0.742757 -0.34957)
(-0.0817009 -0.757361 -0.332448)
(-0.106433 -0.769647 -0.28202)
(-0.147255 -0.759904 -0.194932)
(-0.13457 -0.821658 -0.182494)
(-0.128858 -0.882594 -0.200492)
(-0.0982111 -0.905264 -0.297696)
(-0.0727546 -0.872375 -0.374214)
(-0.0493198 -0.85218 -0.400673)
(-0.0769721 -0.967717 -0.371364)
(-0.112303 -0.989399 -0.33621)
(-0.138233 -1.00964 -0.283953)
(-0.137342 -1.09231 -0.347212)
(-0.0802583 -1.06669 -0.399768)
(-0.0726663 -1.14433 -0.441355)
(-0.0494212 -1.1228 -0.474045)
(-0.0268842 -1.11383 -0.459374)
(-0.00321045 -1.04202 -0.415952)
(0.0122092 -1.074 -0.407)
(-0.0126721 -1.15236 -0.470184)
(-0.0398986 -1.17944 -0.494669)
(-0.0686858 -1.20762 -0.463393)
(-0.131716 -1.22813 -0.379419)
(-0.135055 -1.16582 -0.369498)
(-0.283878 -1.04598 -0.225486)
(-0.457657 -1.14543 -0.0769723)
(-0.464037 -1.09951 -0.067492)
(-0.416245 -1.0452 -0.0648135)
(-0.303055 -1.03574 -0.0738925)
(-0.255839 -0.967022 -0.0640966)
(-0.309361 -0.944517 -0.0576831)
(-0.342484 -0.848709 -0.0422517)
(-0.378219 -0.713416 -0.037921)
(-0.473933 -0.62676 -0.0367445)
(-0.410014 -0.401446 -0.0341345)
(-0.465045 -0.660732 -0.00585574)
(-0.316828 -0.457605 0.024567)
(-0.638629 -0.398752 0.00540526)
(-0.815569 -0.379361 0.0601172)
(-0.918069 -0.384489 0.0845854)
(-0.968072 -0.397269 0.124303)
(-0.980048 -0.525303 0.097735)
(-0.94043 -0.689385 0.065342)
(-0.924149 -0.750121 0.052475)
(-0.87467 -0.848423 0.0364236)
(-0.859071 -0.89558 0.0304499)
(-0.821219 -0.927873 0.00759987)
(-0.703933 -0.967529 -0.023032)
(-0.592748 -1.00207 -0.0420277)
(-0.626981 -0.952684 -0.0172263)
(-0.485169 -0.971712 -0.0307355)
(-0.503075 -0.893443 -0.0301512)
(-0.530686 -0.79701 -0.0233058)
(-0.559523 -0.730841 -0.0194964)
(-0.686637 -0.712429 -0.00981931)
(-0.675186 -0.598166 -0.00780507)
(-0.824349 -0.577236 0.0303218)
(-0.918676 -0.559599 0.0503791)
(-0.881585 -0.697035 0.0231241)
(-0.800634 -0.704582 0.0121784)
(-0.777765 -0.789746 0.00226633)
(-0.661137 -0.798222 -0.0107899)
(-0.635988 -0.882583 -0.0170543)
(-0.748716 -0.866165 -0.00514984)
(-0.825747 -0.850543 0.0044262)
(-0.863369 -0.77297 0.0134932)
(-0.801881 -0.738883 -0.0118054)
(-0.624374 -0.612055 0.00178859)
(-0.847391 -0.659637 0.011655)
(-0.868338 -0.518331 0.0520128)
(-0.870746 -0.379774 0.0580916)
(-0.843626 -0.282218 0.12153)
(-0.832612 -0.302233 0.0764771)
(-0.8792 -0.35063 0.0525299)
(-0.875493 -0.203899 0.128988)
(-0.89448 -0.184213 0.17403)
(-0.76099 -0.161495 0.158384)
(-0.766714 -0.129031 0.259057)
(-0.777962 -0.120734 0.301772)
(-0.821619 -0.108622 0.355135)
(-0.82908 -0.119246 0.352416)
(-0.642465 -0.181696 0.250763)
(-0.607569 -0.173612 0.248213)
(-0.567671 -0.180455 0.215361)
(-0.551254 -0.175604 0.188801)
(-0.568978 -0.19119 0.12026)
(-0.338457 -0.194746 0.0766848)
(-0.320324 -0.189243 0.101571)
(-0.329429 -0.191956 0.113991)
(-0.360743 -0.198825 0.124123)
(-0.449254 -0.216889 0.141378)
(-0.405323 -0.253365 0.0592514)
(-0.38216 -0.284911 0.0678711)
(-0.410735 -0.340991 0.0466026)
(-0.316023 -0.426843 0.0353936)
(-0.311782 -0.394282 0.048568)
(-0.283667 -0.41615 0.0150365)
(-0.193006 -0.419393 -0.0210075)
(-0.337177 -0.254056 0.0349366)
(-0.403036 -0.330823 0.0407029)
(-0.248348 -0.457303 -0.00712086)
(-0.291747 -0.459688 -0.000205619)
(-0.451859 -0.321154 0.0715735)
(-0.524638 -0.298941 0.130929)
(-0.498099 -0.318604 0.136053)
(-0.471017 -0.336763 0.111136)
(-0.458861 -0.350598 0.0941198)
(-0.493327 -0.373138 0.00844468)
(-0.710918 -0.317771 0.0630693)
(-0.718016 -0.52978 0.0388496)
(-0.549183 -0.554318 -0.00192051)
(-0.510078 -0.606999 -0.00418688)
(-0.465863 -0.649287 -0.0176773)
(-0.43709 -0.652558 -0.0214208)
(-0.412979 -0.530936 -0.023255)
(-0.411219 -0.540949 -0.0486288)
(-0.410096 -0.541415 -0.0345403)
(-0.335507 -0.550473 -0.0173041)
(-0.267563 -0.595921 -0.00754522)
(-0.319677 -0.580885 -0.0037779)
(-0.403508 -0.512997 0.00690843)
(-0.332045 -0.535396 -0.00437656)
(-0.438874 -0.630378 -0.0120563)
(-0.292981 -0.473241 -0.00533523)
(-0.210451 -0.539725 -0.0185289)
(-0.281219 -0.52465 -0.0164997)
(-0.394511 -0.436095 -0.000920564)
(-0.413946 -0.362767 -0.0106006)
(-0.260643 -0.394238 -0.0112404)
(-0.15704 -0.422911 -0.0365639)
(-0.136417 -0.399478 -0.0228734)
(-0.238236 -0.205314 0.0221484)
(-0.382695 -0.342896 -0.00220899)
(-0.251857 -0.474598 -0.019948)
(-0.219171 -0.468013 -0.0238832)
(-0.122154 -0.392818 -0.0302374)
(-0.219281 -0.194454 0.0389929)
(-0.346949 -0.337962 0.0119828)
(-0.366314 -0.363287 0.0540218)
(-0.195942 -0.511136 -0.0110763)
(-0.174194 -0.468086 0.0184283)
(-0.110069 -0.420226 0.00167275)
(-0.222415 -0.229054 0.0444936)
(-0.325994 -0.341906 0.0521756)
(-0.335182 -0.338987 0.0567706)
(-0.180707 -0.463273 0.0164519)
(-0.109406 -0.408988 -0.000174942)
(-0.23203 -0.220461 0.0618988)
(-0.286075 -0.221465 0.0772365)
(-0.240566 -0.230257 0.0709748)
(-0.350465 -0.337038 0.0782504)
(-0.189815 -0.465369 0.0480724)
(-0.117935 -0.415673 0.0370843)
(-0.14063 -0.449766 -0.0041396)
(-0.196618 -0.497665 0.0254447)
(-0.381831 -0.350697 0.0789401)
(-0.334493 -0.625525 -0.00381151)
(-0.355833 -0.632222 -0.0118173)
(-0.4995 -0.511911 0.057779)
(-0.651506 -0.44472 0.0982121)
(-0.666954 -0.286779 0.13626)
(-0.798385 -0.271578 0.170442)
(-0.891095 -0.320745 0.166345)
(-1.02106 -0.488839 0.125964)
(-1.10789 -0.49514 0.1677)
(-1.13277 -0.502743 0.192868)
(-1.11279 -0.505075 0.215866)
(-1.04949 -0.501334 0.238749)
(-0.943875 -0.490366 0.260632)
(-0.79492 -0.46702 0.287222)
(-0.640211 -0.43194 0.326776)
(-0.39761 -0.380614 0.395373)
(-0.163321 -0.292622 0.483235)
(0.0412578 -0.150352 0.487169)
(0.336376 -0.158433 0.428226)
(0.337224 -0.216497 0.378227)
(0.204808 -0.127403 0.487698)
(0.272344 -0.00279012 0.766779)
(0.283535 0.0465528 1.03245)
(0.268721 0.0814493 1.14241)
(0.250709 0.13387 1.09203)
(0.212817 0.123058 0.955222)
(0.142253 0.121282 0.703795)
(0.0393739 0.187173 0.404574)
(0.174363 0.512735 0.424971)
(0.419797 0.513759 0.374364)
(0.605556 0.53874 0.375706)
(0.850447 0.497968 0.351379)
(1.00897 0.417397 0.317497)
(1.07374 0.323038 0.273726)
(1.05798 0.255417 0.234045)
(1.00799 0.210945 0.198808)
(1.02664 0.158815 0.167443)
(1.04199 0.118485 0.14449)
(0.983147 0.0924754 0.0908182)
(0.879174 0.0422106 0.0680287)
(0.714321 -0.0228866 0.0544605)
(0.469701 -0.109913 0.0210036)
(0.242588 -0.217334 -0.0219574)
(0.102579 -0.621555 -0.109819)
(0.177834 -0.384298 -0.0797277)
(-0.178351 -0.171766 0.00719685)
(-0.0996181 -0.389703 -0.0372692)
(-0.108956 -0.308269 -0.0634348)
(-0.110963 -0.331968 -0.0716684)
(-0.1085 -0.288269 -0.0612368)
(-0.075113 -0.20685 -0.0546551)
(-0.148968 -0.159021 -0.0296518)
(-0.221967 0.19993 0.136636)
(-0.133304 0.454721 0.111758)
(-0.0361614 0.569757 0.065765)
(0.0430665 0.634434 0.099536)
(0.130703 0.679364 0.199166)
(0.224428 0.734552 0.300891)
(0.315284 0.771082 0.337911)
(0.397714 0.767014 0.367003)
(0.474857 0.701872 0.374316)
(0.540402 0.560732 0.371017)
(0.592902 0.337354 0.337131)
(0.57253 0.00363283 0.263454)
(0.395167 -0.336363 0.259145)
(0.294582 -0.335536 0.321537)
(0.228893 -0.289875 0.330737)
(0.161616 -0.199236 0.335912)
(0.147788 -0.00272048 0.313366)
(0.288965 0.00892235 0.340565)
(0.451746 -0.157949 0.331178)
(0.604054 -0.255322 0.342727)
(0.642992 -0.344385 0.35173)
(0.623604 -0.436314 0.353615)
(0.476747 -0.541272 0.334782)
(0.107077 -0.566045 0.316796)
(-0.171314 -0.29806 0.302651)
(-0.0379212 -0.12821 0.355749)
(0.230825 -0.152314 0.237735)
(0.282176 -0.40422 0.0722369)
(0.00875331 -0.519906 0.238218)
(-0.141263 -0.749236 -0.142079)
(0.200421 -0.720135 -0.48084)
(0.308556 -0.392857 -0.176992)
(0.331472 -0.374939 0.0932571)
(0.345033 -0.544972 0.183438)
(0.327053 -0.88973 0.119679)
(0.531862 -0.872508 0.0646507)
(0.611329 -0.691813 0.0984317)
(0.577056 -0.538157 0.138313)
(0.50759 -0.395784 0.188809)
(0.338375 -0.230637 0.247074)
(0.363101 -0.346562 0.19556)
(0.427042 -0.377332 0.142765)
(0.508504 -0.363298 0.0804536)
(0.620497 -0.296162 -0.0567381)
(0.865689 0.193083 -0.118768)
(0.90974 0.478138 -0.0235001)
(0.855063 0.682329 0.0467546)
(0.757435 0.786411 0.0898189)
(0.631993 0.814768 0.13552)
(0.489172 0.784363 0.155752)
(0.330976 0.721729 0.173821)
(0.165045 0.644507 0.127849)
(-0.00984011 0.580177 0.0657294)
(-0.148253 0.521937 0.0534545)
(-0.282915 0.42092 0.111917)
(-0.406901 0.215778 0.152136)
(-0.285932 -0.115168 0.0118534)
(-0.403071 -0.00921616 0.0585453)
(-0.487464 0.0431315 0.0845568)
(-0.540664 0.158602 0.123012)
(-0.542674 0.112624 0.0960936)
(-0.500441 -0.0214236 0.0221772)
(-0.457388 -0.0838929 0.0126578)
(-0.38825 -0.140953 -0.00982479)
(-0.291836 -0.202375 -0.0238782)
(-0.189708 -0.234444 -0.0369158)
(-0.139345 -0.204331 -0.0278294)
(-0.196362 -0.169455 -0.0234481)
(-0.18365 -0.326577 -0.0354487)
(-0.122719 -0.320806 -0.0444312)
(-0.100567 -0.340189 -0.0713564)
(-0.0789667 -0.374234 -0.103553)
(-0.0485185 -0.562834 -0.220844)
(-0.088195 -0.500574 -0.154312)
(-0.106362 -0.599985 -0.123141)
(-0.158541 -0.574953 -0.0785847)
(-0.22181 -0.462537 -0.048504)
(-0.30983 -0.134616 0.0201306)
(-0.189061 0.315472 0.175939)
(-0.0731658 0.435018 0.309683)
(0.00992922 0.51245 0.447629)
(0.0771908 0.500101 0.564046)
(0.145648 0.435203 0.624731)
(0.199534 0.321257 0.654832)
(0.249863 0.165483 0.627553)
(0.235763 -0.0142608 0.532124)
(0.104994 -0.136577 0.440641)
(-0.0121238 -0.0994534 0.450022)
(-0.0324028 0.0153414 0.426583)
(-0.0340861 0.138556 0.427179)
(0.0372259 0.244705 0.367411)
(0.199081 0.136441 0.382193)
(0.156964 0.272846 0.450428)
(-0.0601238 0.174857 -0.0639638)
(-0.173204 -0.0673512 -0.64283)
(-0.180387 -0.307147 -0.539613)
(-0.167965 -0.343887 -0.303913)
(-0.144685 -0.302449 -0.0945209)
(-0.0618411 -0.585834 -0.106955)
(-0.02782 -0.863484 -0.094165)
(0.00228827 -1.0207 -0.0915194)
(0.0326453 -1.14434 -0.100555)
(0.0658903 -1.22807 -0.114825)
(0.0962633 -1.28076 -0.12888)
(0.122778 -1.30705 -0.140757)
(0.146682 -1.31526 -0.152708)
(0.16751 -1.31286 -0.165262)
(0.185769 -1.30332 -0.176111)
(0.201437 -1.28815 -0.184621)
(0.215445 -1.2679 -0.189811)
(0.227873 -1.24233 -0.192535)
(0.239225 -1.21021 -0.191405)
(0.248862 -1.17041 -0.18631)
(0.254666 -1.12066 -0.175526)
(0.2518 -1.05811 -0.158881)
(0.194737 -0.995292 -0.13902)
(0.13976 -0.910594 -0.122778)
(0.164397 -0.826786 -0.0870226)
(0.187688 -0.726489 -0.0882477)
(0.203839 -0.558068 -0.0881358)
(0.246682 -0.441351 -0.0844497)
(0.0720819 -0.029565 -0.0955188)
(0.365718 -0.297677 0.0435155)
(0.245637 -0.550162 -0.0572161)
(0.285935 -0.0945184 -0.0269819)
(0.18061 -0.0367471 -0.147487)
(0.20137 -0.112154 -0.124954)
(0.194125 -0.119065 -0.0813449)
(0.214534 -0.131422 -0.0240483)