/*--------------------------------*- C++ -*----------------------------------*\
| =========                 |                                                 |
| \\      /  F ield         | OpenFOAM: The Open Source CFD Toolbox           |
|  \\    /   O peration     | Version:  v2012                                 |
|   \\  /    A nd           | Website:  www.openfoam.com                      |
|    \\/     M anipulation  |                                                 |
\*---------------------------------------------------------------------------*/
FoamFile
{
    version     2.0;
    format      ascii;
    class       surfaceScalarField;
    location    "270";
    object      phi;
}
// * * * * * * * * * * * * * * * * * * * * * * * * * * * * * * * * * * * * * //

dimensions      [1 0 -1 0 0 0 0];
oriented        oriented;


internalField   nonuniform List<scalar> 
63799
(
0.00326604
-0.00546253
0.00429979
-0.00835541
-0.00580234
0.008824
-0.00502166
-0.00841541
0.0104922
0.00612393
0.00621895
-0.00779415
-0.00352574
0.00379516
0.00325615
-0.000895501
0.00431
0.00173035
-0.00229253
0.00547837
0.00294225
-0.00418152
0.00149342
0.00389709
0.00294403
-0.00642327
0.00487364
0.00447401
-0.00591085
0.00427069
0.00535601
-0.0044915
0.00350699
0.00642997
-0.00307099
0.00189282
0.0122044
-0.00515382
-0.000813767
0.0141807
-0.0116192
0.0090867
0.0152078
-0.0132395
0.0115188
0.0183892
-0.0124021
0.0084452
0.0181525
-0.00985356
0.00930918
0.0130554
-0.00760148
0.0118878
-0.00409209
-0.00722405
0.0235951
-0.0195054
-0.0159699
0.030621
-0.0172097
-0.0299676
0.0269797
-0.00667887
-0.0335007
0.0224174
-0.0146426
0.00760712
-0.0486753
0.0313696
0.00232227
-0.0540447
-0.0221475
0.0269655
-0.0628827
-0.0123602
0.0206461
-0.0442767
-0.0333582
0.0144096
-0.0556934
0.0110581
-0.0893968
0.0072056
0.0259417
-0.109279
0.0145699
0.00461469
-0.12292
0.00832465
0.00454598
-0.129039
0.00280101
0.00251604
-0.130537
-0.00114934
0.00179431
-0.129178
-0.00495254
0.00273654
-0.125567
-0.00970669
0.00521916
-0.118711
-0.0164863
0.00877649
-0.105716
-0.0268699
0.0130196
-0.0836473
-0.0393139
0.0164497
-0.0512108
-0.0508606
0.0176357
-0.0617927
0.00983446
-0.103207
0.00332116
0.0372906
-0.131669
-0.000608728
0.0282409
-0.150015
-0.00290093
0.0203394
-0.158568
-0.00462786
0.0122531
-0.158267
-0.00735357
0.00608635
-0.149805
-0.0111827
0.00175522
-0.132795
-0.0159958
-0.00198275
-0.106898
-0.0210132
-0.00584573
-0.0703094
-0.0253912
-0.0121544
-0.0413746
-0.0180024
-0.011882
0.0153298
-0.0145658
-0.0430802
0.0818803
-0.0182024
-0.0492746
0.119368
-0.00363709
-0.0347591
0.141627
0.00312678
-0.0262628
0.151175
0.00842133
-0.0188082
0.140852
0.016156
-0.00659533
0.0817102
0.036804
0.021716
0.0343764
0.0174854
0.0296284
0.0193179
0.0114449
0.00353584
0.0198482
0.000757071
-0.00134274
0.0196676
-0.00104476
0.00115427
0.0167285
0.000215442
0.00264285
0.0109759
0.000910492
0.00475733
0.0064179
0.000782582
0.00370383
0.0055785
0.000408414
0.000379933
-0.00254362
0.00629299
0.00175766
-0.000673707
-0.00195808
0.00658693
0.000109019
-0.00746868
0.0125153
0.00252741
-0.00856617
0.0176578
0.0021377
-0.00738328
0.0240382
-0.000879105
-0.00560643
0.0573386
-0.0171401
-0.0163574
0.111887
-0.0114961
-0.0436263
0.134204
0.00286705
-0.0259037
0.143537
0.00447963
-0.0146194
0.145906
0.00404086
-0.00722227
0.143196
0.00427889
-0.00240849
0.135443
0.00514531
0.0018107
0.120182
0.00685118
0.00763182
0.0983444
0.00613497
0.0149977
0.0613805
0.00748704
0.0289164
0.0500353
0.0109852
0.0801587
0.0141758
-0.044642
0.0758718
0.00891384
-0.0051788
0.0518857
0.0162939
0.00714063
-0.00140694
0.0533394
-0.000389767
-0.00597799
0.00421117
0.0111382
0.0174475
-0.0351241
0.0108077
0.0283665
-0.0287411
0.00180054
0.0319679
-0.0237384
0.00161848
0.0309632
-0.0315778
0.0147618
0.0343731
-0.0483551
0.0299416
0.0397701
-0.0557622
0.042955
0.0423023
-0.0561216
0.045746
0.0437734
-0.0472833
0.0247664
0.0467745
-0.0263688
0.0126268
0.0210694
-0.00912676
0.0122887
0.0061124
-0.00587933
0.0122059
0.00565775
-0.00567791
0.0109138
0.00631258
-0.00513087
0.00710874
0.00539152
-0.00168535
0.00196205
0.00505857
0.00307902
0.00347626
-0.00466467
0.0027003
0.00277293
-0.00244523
0.00182417
0.0041172
-0.00331256
0.00261193
0.00469514
-0.00556756
0.00216853
0.00430928
-0.00394664
0.00181386
0.00397112
-0.00368746
0.00211559
0.00198824
-0.00234526
0.00328524
0.00186614
-0.00311335
-0.00185666
0.0105723
-0.0056501
-0.0123244
0.0343353
-0.0244884
-0.0120318
0.0328435
-0.0338984
-0.0123481
0.0346814
-0.035202
-0.0143853
0.0371944
-0.0360329
-0.0132816
0.0365405
-0.0385505
-0.0110062
0.0369176
-0.0401149
-0.00697669
0.0374263
-0.0423876
0.00180126
0.0430393
-0.0527493
0.00633317
0.0486214
-0.0540756
0.00492428
0.0516054
-0.0511031
0.00331521
0.0525809
-0.051848
0.00899491
0.048399
-0.0549159
0.0190606
0.0457348
-0.0565628
0.0164742
0.0479483
-0.0459827
0.0055058
0.0186881
-0.00793922
0.00370647
0.00645985
-0.00473791
0.00555819
0.00257791
-0.00448452
0.00732107
0.00394087
-0.00577368
0.00453965
-0.00509096
-0.00808354
0.00949244
-0.00537024
-0.00561829
0.00763764
-0.00623789
-0.00118575
-0.00187631
0.00736711
-0.00212182
-0.00589534
0.0121817
0.00697298
-0.00600568
-0.00541586
0.0162452
0.00179126
-0.000635576
0.0747903
0.0148913
-0.0474999
0.0175409
0.0713483
-0.0447012
0.0260277
0.0711413
-0.0321533
0.0225202
0.0736163
-0.0184679
0.0151414
0.0697134
-0.0116859
0.0105153
0.0634735
-0.0111949
0.0102854
0.0533112
-0.0110176
0.00732595
0.0413871
-0.00197665
0.00253701
0.0406916
4.65492e-05
-0.00468614
0.0441251
-0.00131747
-0.0141321
0.0477448
-0.0020438
-0.0172114
0.0450753
-0.00823856
-0.0153325
0.0467088
-0.0166551
-0.00981311
0.0527731
-0.00497168
-0.0199721
-0.00600334
0.0106671
-0.00407702
-0.00753942
0.00901754
-0.00515708
-0.00243807
-0.0045474
-0.00115488
-0.0016765
-0.000904487
-0.00266182
0.00860661
-0.00372696
-0.0030535
0.00859811
-0.00398481
-0.00173792
0.00890375
-0.00561575
-0.00263448
0.00695305
-0.00200845
-0.00264411
0.00474744
-0.0020112
-0.00219336
0.00649166
-0.00352892
0.010161
-0.00739193
0.0147624
-0.00777251
0.00306181
0.0191
-0.00788975
0.00342848
0.0238951
-0.00832306
0.00339199
0.0341188
-0.0124537
0.00205148
0.0462868
-0.0190013
0.00654736
0.0342603
-0.000125179
0.011867
0.0248826
-0.000843148
0.0100412
0.0208934
-0.00190708
0.00576017
0.0172743
-0.00102604
0.00452151
0.0130429
0.000335552
0.00378652
0.00772126
0.00183295
0.00339261
0.00361404
0.00401911
0.00287187
0.00616222
-0.00549145
0.00277655
0.00394141
-0.00389709
0.00558889
0.00168019
-0.004564
0.00753188
0.00237871
-0.00440633
0.008732
0.00288481
-0.00416564
0.00852876
0.00337885
-0.00324656
0.00814218
0.00301218
-0.00268083
0.0150892
0.000943435
-0.00796788
0.0391738
-0.00675089
-0.0175529
0.0691176
0.0131197
-0.0436806
0.0766025
0.0246282
-0.0328689
0.0746608
0.0291538
-0.0280386
0.0665978
0.0308294
-0.0236223
0.0532191
0.0304262
-0.0179159
0.0258685
0.028491
-0.00200227
-0.0151006
0.0254483
0.014664
-0.0398343
0.0320151
-0.00813852
-0.0497788
0.0370661
-0.0279836
-0.0555089
0.0392739
-0.0344108
-0.0569591
0.0387071
-0.0381095
-0.0527491
0.0360984
-0.04113
-0.0421007
0.03248
-0.0438791
-0.0208381
0.0265604
-0.0484383
-0.00718454
0.00277725
-0.0166498
-0.00347671
0.0027939
-0.00657928
-0.00403916
0.00359985
-0.00309271
-0.00374866
0.00472218
-0.00508341
-0.00222479
0.00444256
-0.00604565
-0.000533872
0.00435947
-0.00613052
0.000615246
0.00190741
-0.00312013
0.000631327
0.00275073
-0.00281451
-0.000630892
0.00539576
-0.004204
0.00560551
-0.00632308
0.00954972
0.00212034
-0.00616379
0.0122023
0.00385299
-0.00661342
0.0145019
0.00373483
-0.00614088
0.0162035
0.00398169
-0.00578649
0.0172545
0.00420525
-0.00535651
0.016983
0.00454303
-0.00436561
0.0119451
0.00626442
-0.00130364
0.00554007
-0.000126592
0.00650142
0.00539253
-0.000773326
0.000907369
0.00645248
-0.000854513
-0.000220093
0.00748164
-0.00093278
-0.000111909
0.00831395
-0.000655455
-0.000192597
0.00882009
-2.78856e-05
-0.000493698
0.00891497
0.000615931
-0.000726231
0.00873161
0.00106365
-0.000895649
0.00840685
0.00126313
-0.000953747
0.00805884
0.00128576
-0.000953169
0.00771353
0.0012285
-0.000898648
0.00738251
0.00115233
-0.00083684
0.00703697
0.00109013
-0.00076005
0.00668604
0.00104666
-0.000711335
0.00615494
0.000962923
-0.000447014
0.00542668
0.000736438
-2.23917e-05
0.00579415
0.000610438
-0.00099071
0.0123608
-0.000822667
-0.00577211
0.0175292
-0.00318952
-0.00204774
0.0183825
-0.000898345
-3.72858e-05
0.0177463
-0.000195697
0.0007495
0.0156076
0.000384619
0.00167128
0.00957384
0.00213049
0.00383418
0.00390518
0.00388967
0.00175091
0.00322211
0.000282833
0.000387595
0.00299993
-0.000330442
0.000538981
0.00234744
4.93003e-05
0.000589629
0.000994728
0.000416788
0.000924778
0.000363221
0.000428929
0.000197118
0.000144713
0.000215401
9.46305e-05
0.000126711
-7.83244e-05
7.43717e-05
6.32649e-05
-4.37232e-05
0.000125121
2.49282e-05
-7.63247e-05
0.000212238
2.93827e-05
-0.000117405
0.000326276
3.58808e-05
-0.000151101
0.000543665
4.67644e-05
-0.000265419
0.000501828
-1.11358e-05
5.19414e-05
0.000739525
-0.000358377
0.000119916
0.00121965
-0.000734399
0.000253087
0.00188333
-0.000934836
0.000269922
0.0025417
-0.00104584
0.000386207
0.00298438
-0.000958687
0.000514767
0.00309109
-0.000755019
0.000647051
0.00301677
-0.000631442
0.000704497
0.00260535
-0.000287941
0.000698125
0.00167044
0.000233971
0.000699677
0.00014767
0.000796483
0.00072506
-0.00144446
0.0013909
0.000200035
-0.00223403
0.000626568
0.00016224
-0.00215965
1.42072e-05
-8.96077e-05
-0.00134004
-0.000796648
-2.4215e-05
-0.000813228
-0.000548218
2.02369e-05
-0.000445226
-0.000404769
3.58693e-05
-0.000249341
-0.00026255
6.60241e-05
-0.000304062
-0.000147354
0.000201365
-0.000470269
-0.000128839
0.000293373
0.000365351
-0.000838685
0.000244504
-0.000613029
0.00073034
2.67373e-05
-0.000399669
0.000614328
-0.00028147
-0.000241686
0.000546775
-0.000553601
-0.000258359
0.000527505
-0.000719631
-0.000348519
0.000511558
-0.000861664
-0.000344232
0.000483378
-0.000879203
-0.000460531
0.000475238
-0.000923842
-0.000412147
0.000454018
-0.000875313
-0.0005069
0.000455653
-0.000879093
-0.000441412
0.000442494
-0.000807814
-0.000521223
0.00044731
-0.000797605
-0.000443939
0.00043107
-0.000719827
-0.000504039
0.000423731
-0.000700253
-0.00040963
0.00038745
-0.000614376
-0.000459542
0.000371317
-0.000529794
-0.000421219
0.000334123
-0.000546673
-0.000489817
0.000504324
-0.00130607
-0.000300081
0.00105422
-0.00147474
-0.000585939
0.000748119
-0.00266401
-0.00035339
0.00152995
-0.004819
-0.00410036
0.00621985
-0.0107273
-0.0174563
0.0232395
-0.0157308
-0.0220115
0.0268445
-0.0174578
-0.0349651
0.036377
-0.0152577
-0.0461298
0.0435869
-0.0504804
0.0459079
0.0156409
-0.081196
0.0217523
0.0247732
-0.0819978
0.0261739
0.0217461
-0.0748429
0.00548538
0.0367527
0.0125884
-0.0232941
0.0102815
0.00490324
-0.0249173
0.0123414
0.00262718
0.00240895
0.00325291
-0.00488679
0.00280552
0.00166407
-0.00369169
0.00161213
0.00193155
0.000515784
0.00107882
0.000263839
0.00073694
-4.11343e-05
0.000381084
0.000348311
8.73123e-05
-0.000174777
3.24625e-05
-0.00115767
0.000819183
0.000162101
-0.00170191
0.000500869
0.00219325
-0.00403129
0.00178585
0.000963451
0.00135357
-0.00436724
0.00207636
0.00215008
0.000817003
0.000540456
0.00115152
0.000555637
0.000968523
-0.000803293
0.000572832
0.0013519
-0.00145437
0.000563163
0.00108491
-0.000777785
0.000597033
0.00145193
-0.00147271
0.000580647
0.00112538
-0.000735581
0.000616862
0.00145043
-0.00144135
0.000605506
0.00106215
-0.000685765
0.000657961
0.00126373
-0.00133244
0.000666326
0.000815981
-0.000635738
0.000735204
0.000800357
-0.00110163
0.000764633
0.000443093
-0.000746964
0.000841746
0.000352539
-0.00102096
0.000865693
9.62081e-05
-0.00106935
0.000921809
-0.000241379
-0.00124971
0.000969532
-0.00201265
0.000927241
-0.00435109
0.000586609
0.00174109
-0.00517344
-0.000182444
0.000992159
-0.00518623
-0.000235687
0.000235659
-0.00591345
-0.000271264
0.000987744
-0.013648
0.000887199
0.00682255
-0.0203662
0.00588354
0.000782997
-0.0245235
0.00235293
0.00174285
-0.0475107
0.00663295
0.016259
-0.0492459
0.00438161
-0.00285081
-0.0274237
-0.00404413
-0.0178719
-0.024388
-0.0013984
-0.00169723
-0.0185076
-0.0049454
-0.000985532
-0.00852616
-0.00124809
-0.00875799
-0.00794443
0.000381192
-0.000973712
-0.00904473
0.000208964
0.000878242
-0.00943954
8.51349e-05
0.000296201
-0.00900811
-0.000551966
0.000107025
-0.00872621
-0.000483609
0.00018903
-0.0086293
-0.00033379
0.000224089
-0.00882954
-0.0001243
0.000311297
-0.00938941
7.22185e-05
0.000473208
-0.00969469
-0.000359881
0.000649866
-0.00958041
-0.000906858
0.000776782
-0.00910923
-0.00137438
0.000887334
-0.00841007
-0.00168271
0.000967786
-0.0077787
-0.00164077
0.000993584
-0.00702217
-0.00153607
0.000764173
-0.0060489
-0.00130767
0.000319665
-0.00617008
-0.00119994
0.00130782
-0.0134469
-0.000694634
0.00794044
-0.0184398
0.00810654
-0.00318949
-0.0208232
0.00540322
-0.0031069
-0.0418778
0.01273
0.00815257
-0.05433
0.0250183
-0.013014
-0.0357189
0.00930656
-0.0284715
-0.0331811
-0.00310711
-0.0513854
-0.0254683
0.0429905
-0.0592443
-0.0391011
0.0462038
-0.0571947
-0.0501914
0.0473189
-0.0453359
-0.0578751
0.0451796
-0.0278576
-0.0613211
0.043037
-0.0624515
0.0436374
0.0193926
-0.104273
0.0249268
0.0383535
-0.103333
0.0221925
0.0521179
-0.0969041
0.0243766
0.0547464
-0.0838056
0.0301056
0.0461121
-0.0653788
0.0340852
0.0261632
-0.043022
0.036754
-0.0144101
0.0367893
-0.0290737
-0.0292108
0.0431145
-0.0401701
-0.0373909
0.0476147
-0.0455467
-0.0459352
0.0504028
-0.0439402
-0.0551747
0.0526154
-0.0365562
-0.063012
0.0546763
-0.0244639
-0.0696841
0.0566458
-0.00662672
-0.0745753
0.0558167
0.0111191
-0.0718414
0.0532019
0.0100261
-0.0547154
0.0549363
0.00457482
-0.0577983
0.0623847
0.00972315
-0.0687855
0.0627715
0.0182652
-0.0708767
0.0614642
0.0277382
-0.067822
0.0574919
0.0347035
-0.0613835
0.0535909
0.0346989
-0.0514097
0.0506582
0.0147729
-0.0343733
0.0536822
0.00614691
-0.0106387
0.0190457
0.00327001
-0.00119753
0.00399714
0.00276168
-0.00300901
0.00346252
0.0015716
-0.00417322
0.00529347
0.000102126
-0.00386879
0.00526014
-0.00100195
-0.0046616
0.00568649
0.000538409
-0.00405648
0.00245303
0.00140647
-0.00460318
0.0036878
-0.00119311
-0.00520753
0.00773617
0.00838103
-0.00966216
0.0139178
-0.00963791
0.00400178
0.0170139
-0.00994414
0.00673738
0.0191677
-0.008199
0.00594218
0.0224965
-0.00883517
0.00540171
0.050731
-0.0306735
0.00224413
0.107523
-0.000846552
-0.0565076
0.13324
0.0162332
-0.0426411
0.145935
0.0235977
-0.0370587
0.152109
0.0262939
-0.0332112
0.151417
0.0288347
-0.0288969
0.136418
0.0338181
-0.0194826
0.0791728
0.0490053
0.0077131
0.036398
0.0190905
0.0235076
0.0293071
0.0063033
0.000696926
0.0188057
0.0103063
0.000123224
0.00784723
0.0103067
0.000622206
0.00690785
0.00164659
-0.000719588
0.00687715
0.000634016
-0.000616963
0.0057216
0.00160183
-0.000459523
0.00259376
0.00248333
0.000633577
0.00106925
0.00126327
0.000255856
0.000432712
0.000633476
0.000257688
-0.000759278
0.000930754
3.21019e-05
-0.00059326
0.000815729
-0.000120768
-0.000649148
0.000798891
-0.000265971
-0.000614348
0.000756556
-0.000324092
-0.000656633
0.000711755
-0.000398041
-0.00057985
0.000650902
-0.000381084
-0.000641036
0.00062124
-0.000398805
-0.000563788
0.000578733
-0.000340627
-0.000628688
0.000567786
-0.00033364
-0.000554667
0.000544975
-0.000272124
-0.000611961
0.000547801
-0.000267079
-0.000538894
0.000531179
-0.000234329
-0.000561558
0.000526264
-0.000242481
-0.000489519
0.000495047
-0.000190758
-0.000519122
0.000465027
-6.15844e-05
-0.000477628
0.000345951
-2.85486e-06
-0.000436108
0.00037505
-0.000398113
-0.000691811
0.00108178
-0.000650108
0.00087257
-0.000627165
-0.00134153
0.00136636
-0.00068769
-0.00254384
0.00553714
-0.00437062
-0.00916257
0.0249233
-0.0184315
-0.016153
0.0303207
-0.0235062
-0.0205729
0.0407356
-0.0366361
-0.0164811
0.0447987
-0.049234
0.0493302
-0.0552026
0.0192032
0.0712479
-0.027256
0.0260546
0.0636363
-0.0259557
-0.0184511
0.0498314
-0.00540861
0.0269978
-0.00477923
0.0338891
-0.0020661
-0.00488256
0.000151097
0.0451387
-0.0114414
0.0649432
-0.0150276
-0.0121304
0.0512632
-0.00102669
-0.028309
0.0545838
-0.0293525
0.0698669
0.0104864
0.0638972
-0.0135595
0.0163098
0.0360706
0.0273391
0.00933628
0.008533
0.0678019
-0.00580013
-0.00586535
-0.0123397
0.0840447
-0.017947
0.00155134
-0.00244208
0.012941
-0.025754
-0.00337662
0.0100601
-0.0102346
0.00119901
-0.0307335
-0.0089563
0.0228053
0.00657916
0.0043244
-0.00693417
0.00623944
0.0145189
0.0221287
-0.0137621
0.00863838
0.00349385
-0.0059392
2.16433e-05
0.0161522
0.0038607
0.00312264
0.0115161
0.00135053
0.00327849
0.0106476
-2.59009e-05
0.000883794
-0.00928727
-0.000376877
0.0202981
-0.0192662
0.00100614
0.00420098
0.00354255
0.00543738
-0.00478521
0.00725749
-0.000440117
0.004661
0.00256645
-0.00468114
0.00896107
0.00175734
0.010768
0.0036143
-0.0118453
-0.00080493
-0.00564639
-0.00243912
-0.00295548
0.0307527
-0.0101886
-0.00250699
0.000925996
0.00972053
0.00426086
0.00267471
-0.0337767
0.00348738
-0.00230676
0.000569002
-0.00111425
0.00308435
-0.00443513
0.00292665
-0.00451275
0.0031496
-0.0115178
-0.0133294
0.00633313
0.0108288
0.00341163
-0.00819091
-0.0108841
0.00709016
0.0117007
-0.00293526
0.0022455
-0.0125311
0.0190599
-0.00256231
-0.00282284
-0.0027831
0.00571432
0.000645037
-0.00260822
-0.0020858
0.00182139
-0.000710389
0.00041002
0.00298464
-0.0024703
-0.00211439
0.00183227
0.000530173
0.00254249
0.00189744
-0.00251485
-0.00204802
0.000437224
-0.00255115
-0.00206889
0.00215911
0.00255089
0.000671504
-0.00262888
-0.00203646
0.0019948
0.00243338
0.000665051
-0.0022998
-0.00204096
0.00182418
0.00252023
0.00104391
-0.00256016
-0.00191834
0.00162601
0.00247092
0.000975689
-0.00232423
-0.00198633
0.00176412
0.00261205
0.00142183
-0.00287639
0.00265839
0.0017917
-0.00202238
0.00133547
-0.0026951
0.00202665
0.00307816
-0.00232595
0.00162043
-0.00268137
-0.00354424
0.00347397
0.00246394
0.00121936
-0.003652
0.00324556
-0.00319075
0.00399537
0.00103903
-0.00451165
-0.00346693
0.00379585
0.00436
0.000436268
-0.00438102
0.00513717
0.00364264
-0.00379896
5.18141e-05
0.00416725
-0.00483621
0.00556316
-0.00451292
6.94872e-05
-0.0019004
0.00242669
0.00179054
-0.0023358
0.00179966
-0.00110316
0.00122456
-0.00185233
0.00226314
0.00213392
0.000341132
-0.00293945
0.00208148
-0.000878761
0.000643845
0.00041562
0.00213344
-0.00164465
0.00134981
0.000241715
0.00174439
-0.00109049
0.00119817
0.000280255
0.0013486
-0.000655171
0.000769677
0.000280201
0.000647721
-3.88134e-05
0.000325675
0.000412971
-0.000351408
0.000508061
-8.52142e-05
0.000575217
-0.00104451
0.000560174
-0.000483804
0.000615669
-0.00125097
0.000752336
-0.00107669
0.000529767
-0.00124826
0.000965139
-0.00150337
0.000534441
-0.00113224
0.00100509
-0.00154834
0.000426114
-0.000924494
0.000927249
-0.00136579
0.000229627
-0.000783928
0.000377064
-0.000487144
-3.1448e-05
-0.000428019
0.000577751
0.000110182
-0.00104477
-0.000154799
0.000272218
-0.000577862
3.16787e-05
-0.000567644
0.000662472
-0.00056143
0.000310315
-0.00120216
0.00156214
0.00134709
6.12667e-05
-0.00235392
-0.00262849
0.00266334
-0.00217846
0.000919262
-0.00355323
0.000127808
0.00216466
0.000423536
-0.00261483
0.000712752
-0.00168119
-0.000534122
-0.00524077
0.00380066
-0.00245759
0.00200471
-0.00513142
0.0038248
-0.00679961
-0.0008555
-0.00403801
0.00911925
-0.0259197
-0.00989547
-0.0186237
-0.00697402
0.0537911
-0.0427998
-0.020362
0.0253687
0.0110775
-0.0494771
-0.0292848
0.0463321
-0.0111907
-0.0494564
-0.0310461
0.0512847
-0.0210885
-0.0464705
-0.032076
0.053554
-0.0252967
-0.0415105
-0.0299981
0.0526342
-0.0284135
-0.0121165
-0.0231346
0.0472815
-0.0164646
-0.0379271
0.0164758
-0.00726869
-0.00961839
-0.0118405
0.0136384
0.0260162
-0.0101704
-0.0131388
0.0217268
0.0166122
-0.014108
-0.0107269
0.0123127
0.0345474
-0.0112865
-0.0139738
0.0052993
0.027722
-0.00811318
-0.0126945
-0.00657333
0.0394207
-0.0104858
-0.0171622
-0.0125415
0.040227
-0.0144794
-0.0199066
-0.00759529
0.029276
-0.013823
-0.0205351
-0.00888225
0.0333241
-0.0132286
-0.0189623
-0.0106483
-0.00503719
-0.00739547
-0.00233278
-0.00926598
0.0058868
-0.00105875
-0.00991141
0.00641643
-0.00247262
-0.00868064
0.00449581
-0.00292864
-0.00626865
0.00288084
-0.00300475
0.00199052
-0.00270021
-0.00913613
0.00587057
0.0101343
-0.00497468
-0.00432106
0.00658137
-0.00533459
0.00614117
-0.00654201
0.00682167
-0.0066564
0.00586571
0.00727422
-0.00589905
0.00534383
0.00724176
-0.00476689
0.00469478
0.0121746
-0.0126745
0.00754702
0.0224316
-0.0339538
0.0318954
-0.0401517
0.0398683
-0.0408147
0.0460204
-0.0379413
0.0470347
-0.0310529
0.0451833
-0.0191735
0.0312131
0.0035484
0.0162626
0.0139185
0.0155198
0.00265685
0.0121257
0.0027882
0.00503028
0.00591899
0.00114686
0.00440983
0.000793485
-0.000185408
0.00422597
0.000272649
-0.00010243
0.00337925
0.000872571
-3.90771e-05
0.00144743
0.000605785
0.0013151
0.000538042
0.00024092
0.0006631
0.000445363
8.96138e-05
0.000307567
4.56264e-05
9.04933e-05
0.000224515
-4.71319e-05
0.000129473
0.000344116
-0.000127839
7.59641e-06
0.000571431
-0.000182476
-4.57375e-05
0.000794321
-0.000179268
-4.47942e-05
0.00106358
-4.52782e-05
-0.000225232
0.000887655
-6.0882e-05
0.000235779
0.00130823
-4.42748e-05
0.00218015
5.41478e-05
0.00307744
0.000106567
0.00376851
0.000272823
0.00406115
0.000458455
0.0039873
0.000632768
0.00377218
0.00072192
0.00302687
0.000705257
0.00173642
0.000634026
1.92713e-05
0.000625431
-0.00181656
0.000189989
-0.00290115
0.000205073
-0.00275228
-9.39772e-05
-5.59171e-05
-0.00172164
-1.69832e-05
-0.00101492
-0.00105029
3.98153e-05
-0.000712335
-0.000579355
5.59272e-05
-0.000527763
-0.000327504
8.90085e-05
-0.000341501
-0.00040365
0.00026383
-0.000188395
-0.000146284
0.000374433
-0.000646504
0.000458499
4.12699e-05
-0.000241429
0.000301017
0.000555463
0.000454533
-0.00212111
0.00061159
0.000812316
0.00113042
-0.00273827
0.000949795
0.0011109
0.00115828
-0.00247523
0.00123632
0.00120922
0.00206479
-0.00383156
0.00134403
0.00157909
0.001956
-0.00286214
0.00142015
0.00154894
0.00430067
-0.00534971
0.00290109
0.00504941
0.00412416
0.002971
-0.00206149
0.00397526
0.00178752
-0.000996206
0.00480588
0.00162666
-0.00110938
0.0048582
0.00235227
-0.00120813
0.00460716
0.0020148
-0.000995749
0.00411115
0.0010292
-0.000209058
0.0033035
0.000247191
0.000473681
0.00243562
-0.000378082
0.000760596
0.00163578
-0.00160529
0.00132689
0.000936801
-0.00276382
0.00195776
0.000120246
-0.00289694
0.00216345
-0.000850877
-0.00245408
0.00205751
-0.00103226
-0.000685573
0.000378381
-0.000640961
0.000664884
-0.000479777
0.00065479
-0.000362477
0.00408363
-0.00245712
-0.00327111
-0.00124151
0.00418934
0.00449906
-0.00146473
0.00259204
0.00627631
-0.000725063
0.00158769
0.0198185
-0.0052926
-0.0120621
0.00383705
0.0156985
-0.00727212
0.00604017
0.0114824
-0.00671952
0.0057168
-0.00986551
-0.00144509
0.0253541
-0.00848765
-0.0168034
-0.0100553
0.0160834
-0.0181208
-0.0395309
0.0590408
-0.0291303
0.0270194
0.0426469
-0.050085
0.0589165
0.00745314
-0.0575927
0.0667069
-0.00883575
-0.0590294
0.0702598
-0.0161993
-0.0565705
0.070441
-0.0212013
0.0644148
-0.0320073
0.0694703
0.083596
-0.0274414
0.06879
0.0841392
-0.0140447
0.0640161
0.0813225
-0.00730023
0.0509435
0.0775823
0.00119711
0.0174544
0.0711796
0.0202271
-0.0379216
0.0322103
0.0491729
-0.0366963
-0.0465842
-0.0222737
0.0484761
0.0139965
-0.0192678
-0.0116782
-0.0198682
-0.018649
-0.0155022
0.0074772
-0.0243893
-0.00740635
0.0055894
-0.0224702
0.00634068
-0.0272574
-0.0084163
0.00582689
-0.0119603
-0.0151892
-0.00714801
0.00164775
0.00401431
-0.0116255
-0.00423758
-0.000134692
-0.00996245
0.00116617
-0.00982817
-0.00395706
0.00233817
-0.00369972
-0.00687299
-0.00418714
0.00245671
0.00320488
-0.00474004
-0.00315266
0.000984266
0.00211415
-0.00372934
0.00154539
-0.00146458
0.00164858
-0.00339013
-0.00347998
0.00294777
-0.00516222
-0.00318016
0.00205243
-0.00728366
-0.00311578
0.00247037
-0.00908564
-0.00227229
0.00246604
-0.0100756
-0.00181209
0.00242096
-0.0115923
-0.00107269
0.00283354
-0.0118039
-0.000545494
0.00178343
-0.0111673
0.000924009
0.000451112
-0.010275
0.00183829
-0.000381139
-0.00922448
0.0029717
-0.00239929
-0.00896376
0.00275315
-0.00122941
0.0101857
0.00622226
-0.016141
-0.00122679
0.00945638
0.00324776
0.000231159
0.0111933
0.00266181
-0.00143065
0.012391
0.000801232
-0.000163638
0.0124874
-0.000310272
0.00113476
0.0114709
-0.00115673
0.0016247
0.0106071
-0.00195513
0.00174352
0.00966788
-0.00271562
0.00183989
0.00871418
-0.00323816
0.00191663
0.00712289
-0.00343971
0.00191207
0.00574346
-0.00339776
0.00159399
-0.00381272
0.00234328
-0.00673188
-0.00379123
0.00196668
-0.00779232
-0.00474041
0.00239958
-0.00875422
-0.00431648
0.00183549
-0.00974097
-0.0040903
0.00183586
-0.0107607
-0.00351336
0.00181454
-0.0114249
-0.00288939
0.00159541
-0.0120114
-0.00162124
0.00104802
-0.0124526
-0.000170199
0.000297991
-0.0117501
0.00138783
-0.00129266
-0.00970807
0.00143457
-0.000818429
-0.0093145
0.00217779
0.000672562
0.0118411
0.00311581
-0.0188152
0.000748167
0.00904036
0.00461457
0.000360018
0.0129349
-0.0016627
-0.00080117
0.0116193
0.00357307
-0.000873682
0.0158459
-0.00353718
-0.00086369
0.0122946
0.00159434
0.000331583
0.015114
-0.00562819
-8.47931e-05
0.0110392
-0.000648464
0.00120572
0.0128584
-0.00673799
0.0008244
0.00853067
-0.00196315
0.00197031
0.00842467
-0.00645184
0.00181339
0.00527448
-0.00218137
0.00153642
-0.00535099
0.000595879
0.0113825
-0.00735288
-0.0139233
0.00234421
0.0118054
-0.00599705
0.00137033
-0.00504752
0.00125078
0.0125963
-0.00511201
-0.0130146
0.000463291
-0.00566154
-0.00119173
0.013799
-0.00436388
-0.013378
-0.00174152
0.0296026
-0.00476649
-0.0189324
0.000646603
-0.00773811
0.0044362
0.0249242
-0.00661629
-0.0301125
0.00397746
-0.00671615
0.00489565
0.0122733
-0.00312609
-0.0185207
0.0026116
-0.0298412
-0.0162427
-0.0228621
-0.0185705
0.00837085
0.00484968
-0.0397251
0.00253733
0.00935822
-0.0231921
0.00283532
0.00630181
-0.00581393
-0.0277724
0.00401424
-0.0315319
0.00286657
0.00804633
-0.000168806
-0.032412
-0.00637362
-0.000719839
-0.0134546
-0.00181801
0.00469021
-0.0185647
0.000229054
-0.0141233
0.000303603
0.00558766
-0.0156181
-0.00513393
0.00102187
-0.0143522
0.000909937
-0.0167876
-0.00634699
0.00141156
0.00773263
-0.0200544
-0.00632912
0.00184562
-0.0181205
0.00349902
-0.0215081
-0.00642704
0.00241244
-0.0224221
-0.00362074
0.000485213
-0.0208849
-0.000464866
-0.00105239
-0.0192745
0.00229594
-0.000971483
-0.0187521
0.00375118
-0.00117455
-0.00504287
0.00435995
-0.0173205
-0.00076825
-0.00641615
-0.0165966
-0.000865206
-0.00744019
-0.0150265
-0.000109873
-0.00580434
-0.0115882
0.00172251
-0.00390484
-0.00925984
0.00103817
-0.00688697
0.000591622
-0.00930417
0.00433786
-0.000335908
-0.00668338
-0.00133255
-0.000669517
-0.00471643
-0.000324396
0.0056054
-2.32811e-05
0.0151058
0.00978674
-0.0309417
0.0108168
-0.000605694
-0.00457177
0.00702613
0.00104112
0.000274913
-0.00431585
0.00468594
-0.00791734
0.00902694
-0.0012234
-0.00171571
0.00637931
-0.00136809
-0.00796557
-0.00117728
0.00530066
-0.00631354
-0.00191128
0.0056515
0.00189656
-0.00683067
-0.00234376
0.00559084
-0.00699043
0.00181452
-0.00253122
0.0054784
-0.007018
0.0017091
-0.00250741
0.00535747
-0.00695542
0.00155607
-0.00238014
0.00526767
-0.00689089
0.0014779
-0.00229464
0.0051478
-0.00670567
0.00145432
-0.0022541
0.00507549
-0.00656192
0.00142793
-0.00212629
0.00473366
-0.00619305
0.00131428
-0.00200779
0.0040765
-0.00493596
0.000725489
-0.00177691
0.00524975
-0.00773828
0.00223403
-0.0116678
0.00366779
-0.026069
0.0136798
-0.0220292
-0.0248508
0.0115424
-0.0275337
0.00507566
-0.0780653
0.041173
-0.0178357
-0.0877816
0.0282758
-0.0890978
0.0230106
-0.11709
0.0201949
0.0131519
-0.130531
0.0156938
0.00378422
-0.137722
0.0146055
-0.0031088
-0.14005
0.0146328
-0.00888842
-0.137485
0.016033
-0.0154207
-0.129157
0.0196874
-0.0243959
-0.114195
0.023692
-0.0366395
-0.0458078
-0.0400585
0.0253158
-0.0660324
-0.00665259
0.00980797
-0.0283508
-0.0208293
-0.0176518
-0.00620597
-0.0161307
-0.00243822
-0.0131723
0.00861228
-0.00954766
-0.00433501
0.00493848
-0.0113738
0.000483055
0.00168908
-0.00649532
0.00140329
-0.00297451
0.00593913
0.00183618
-0.00648148
0.00980995
0.00197435
-0.0059689
0.0127526
0.00168039
-0.00475934
0.0201648
0.00359545
-0.0111877
0.034731
0.0152625
-0.0301139
0.0300455
0.0322487
-0.0278521
0.0250637
0.0213528
-0.0165571
0.0227982
0.0155697
-0.0134529
0.0195824
0.0135125
-0.0104326
0.0157767
0.0120954
-0.00840686
0.00952436
-0.00350792
-0.0147148
0.014295
0.000208187
-0.0183131
-0.00254241
0.0181214
-0.0207549
0.0196836
-0.0038564
-0.0215398
0.0213699
-0.00514982
-0.0159414
0.0218033
-0.00618784
-0.055338
0.0382123
0.0567454
-0.0239084
-0.0218142
-0.020151
-0.0451853
0.0464785
-0.0191618
-0.00724588
0.0256664
-0.0212639
-0.015551
-0.00759112
0.0196621
-0.0158617
-0.0100375
-0.00723021
0.0183137
-0.0167685
-0.00617006
0.0161984
-0.015282
0.00586215
-0.00862001
0.00992897
-0.00944789
0.0125811
-0.00869608
-0.0113589
-0.00367073
-0.00282764
-0.00271826
-0.0021521
-0.00110589
-0.00140345
-0.00116387
-0.0019965
0.00211626
-0.00122878
0.00247326
-0.00253782
-0.00193639
0.00278058
-0.00171408
-0.00446525
0.000583134
0.00382355
0.00317796
0.0053293
-0.0155243
0.0029404
-0.000375717
-0.00780132
0.00508954
-0.00564176
-0.000783936
-0.00717871
0.000144712
0.0271137
-0.00881854
-0.0132514
-0.00593685
0.0067121
0.0139698
0.00639035
0.0377647
0.00673276
-0.0378552
0.00906938
-0.00160402
0.030221
-0.0186786
-0.00242277
0.000334482
-0.00675836
0.00799888
-0.000916872
0.00283536
-0.00321842
0.0159907
-0.00645128
0.00414022
0.0102217
0.00970054
-0.010674
-0.0105866
-0.00679428
-0.00751048
0.0081768
-0.0101013
-0.00217261
-0.00660736
-0.0314254
-0.0189682
0.0413826
0.0064192
-0.000160446
-0.00250276
-0.0686908
0.0333312
-0.00785288
-0.0214191
0.0065279
-0.0201328
0.00394697
0.00317334
-0.000597333
0.00322163
-0.00145134
-0.00260495
-0.000971442
-0.000352773
-0.00219914
0.00146783
0.00252937
0.00165819
-0.0290465
0.0151771
-0.010965
-0.0109484
-0.0102583
0.079365
0.0470267
0.0338359
-0.0158805
-0.0150254
-0.0141697
0.0226898