/*--------------------------------*- C++ -*----------------------------------*\
| =========                 |                                                 |
| \\      /  F ield         | OpenFOAM: The Open Source CFD Toolbox           |
|  \\    /   O peration     | Version:  v2012                                 |
|   \\  /    A nd           | Website:  www.openfoam.com                      |
|    \\/     M anipulation  |                                                 |
\*---------------------------------------------------------------------------*/
FoamFile
{
    version     2.0;
    format      ascii;
    class       volVectorField;
    location    "270";
    object      U;
}
// * * * * * * * * * * * * * * * * * * * * * * * * * * * * * * * * * * * * * //

dimensions      [0 1 -1 0 0 0 0];


internalField   nonuniform List<vector> 
22960
(
(-0.183223 -0.3853 0.261269)
(-0.049279 -0.453715 0.273113)
(-0.0980461 -0.465771 0.121773)
(-0.133713 -0.276952 0.0657737)
(0.188102 -0.168676 0.0728573)
(0.042102 -0.389843 0.105342)
(0.0687757 -0.142569 0.114067)
(0.0822788 -0.216996 0.129234)
(0.202211 -0.167959 0.0699242)
(0.230323 -0.141107 0.0576995)
(0.27838 -0.113886 0.0527872)
(0.242341 -0.100676 0.0973708)
(0.197815 -0.074381 0.0550636)
(0.151045 -0.0748402 0.0491773)
(0.190927 -0.0625019 0.0363879)
(0.213277 -0.0415416 0.0680119)
(0.194734 -0.0152155 0.130744)
(0.096296 0.00228635 0.244788)
(-0.185134 -0.0957262 0.253103)
(-0.298718 -0.22589 0.193328)
(-0.191655 -0.310677 0.210122)
(-0.0677227 0.0608645 0.188944)
(-0.639934 -0.296055 0.182332)
(-0.7327 -0.151361 0.246166)
(-0.820905 0.308282 0.218979)
(-0.704437 0.605432 0.113102)
(-0.763448 0.232054 0.0828655)
(-0.997155 0.124159 0.0414576)
(-1.25159 0.0512672 0.034467)
(-1.39208 0.0141814 0.0151145)
(-1.46956 -0.00972281 0.00425753)
(-1.49973 -0.0283272 0.00132158)
(-1.49541 -0.0481135 0.00182259)
(-1.46316 -0.0761195 0.00583526)
(-1.39165 -0.117124 0.0192669)
(-1.26438 -0.17913 0.0415117)
(-1.04468 -0.260995 0.0676267)
(-0.719509 -0.342996 0.073136)
(-0.365218 -0.443661 0.0031651)
(-0.249968 -0.821956 -0.0422681)
(-0.185935 -1.21067 -0.0661653)
(-0.13684 -1.42742 -0.0823662)
(-0.100312 -1.56064 -0.0959553)
(-0.0743939 -1.59991 -0.114418)
(-0.0502255 -1.55586 -0.138056)
(-0.0246639 -1.43207 -0.16542)
(0.00299167 -1.22069 -0.192834)
(0.0377147 -0.882487 -0.2119)
(0.0461834 -0.548964 -0.161894)
(0.242002 -0.260709 -0.140211)
(0.299467 0.573326 -0.166347)
(0.200244 1.01835 -0.0906827)
(0.14342 1.30547 -0.0574646)
(0.103985 1.47068 -0.0346684)
(0.0649925 1.55841 -0.0218765)
(0.0214353 1.57871 -0.0148781)
(0.0201068 1.5313 -0.0163844)
(0.00827715 1.50244 -0.00241892)
(-0.014558 1.43634 0.00266831)
(-0.0407556 1.29341 0.00786016)
(-0.068007 1.06886 0.0185708)
(-0.117896 0.81865 0.0297252)
(-0.0217967 0.30056 0.0057752)
(-0.492943 0.0552418 0.0172383)
(-0.323917 0.327482 0.066274)
(0.252472 -0.576212 -0.117972)
(-0.189272 0.22778 -0.0228302)
(-0.426158 0.216137 0.0187258)
(-0.707321 0.175291 -0.00493218)
(-0.971435 0.136173 -0.00982016)
(-1.17339 0.156418 0.0288042)
(-1.30728 0.167495 0.0375064)
(-1.42957 0.127307 0.0145109)
(-1.51936 0.089344 -0.00203619)
(-1.56908 0.0577295 -0.00723028)
(-1.58479 0.0336436 -0.00471129)
(-1.56137 0.0133227 0.00224449)
(-1.48856 -0.0114046 0.0127245)
(-1.35238 -0.0524436 0.02893)
(-1.08744 -0.122082 0.0264242)
(-0.846418 -0.253506 0.0587895)
(-0.876494 -0.67304 0.070757)
(-1.17656 -0.408345 0.072146)
(-1.00883 -0.169321 0.198672)
(-0.866511 0.0176229 0.174079)
(0.326984 -0.210151 0.0566742)
(-0.230609 0.414382 0.15185)
(-0.162873 0.228984 0.197379)
(-0.107928 0.153473 0.223988)
(0.0483988 0.200342 0.212764)
(-0.0930399 0.330324 0.226716)
(-0.236357 0.381892 0.259747)
(-0.402841 0.394612 0.280013)
(-0.541259 0.367269 0.291804)
(-0.609107 0.288827 0.290631)
(-0.638339 0.24323 0.277136)
(-0.610537 0.204846 0.165512)
(-0.566134 0.172697 0.148671)
(-0.483595 0.135813 0.151028)
(-0.338552 0.103359 0.133809)
(-0.204542 0.0613382 0.122249)
(-0.174369 -0.208498 0.10139)
(-0.241579 -0.0419303 0.127127)
(-0.114508 0.0125326 0.134314)
(-0.176023 -0.146973 0.105267)
(-0.118388 -0.137906 0.0997729)
(-0.108424 -0.115688 0.0957988)
(-0.0895979 -0.109829 0.079057)
(-0.0922607 -0.12402 0.177197)
(-0.14028 -0.0271456 0.205539)
(-0.176175 0.157384 0.226188)
(-0.2439 0.115109 0.243199)
(-0.238135 0.114195 0.251839)
(-0.233188 0.129631 0.254423)
(-0.244373 0.147427 0.242411)
(-0.249981 0.11275 0.239773)
(-0.266806 0.110272 0.235763)
(-0.342956 0.0242049 0.26429)
(-0.352063 -0.0566682 0.302878)
(-0.324053 -0.0634468 0.330757)
(-0.335264 -0.0264486 0.351069)
(-0.377652 -0.0308154 0.331626)
(-0.417619 -0.120716 0.315828)
(-0.361059 -0.239232 0.285313)
(-0.267442 -0.259648 0.29115)
(-0.189952 -0.310966 0.262481)
(-0.165279 -0.388633 0.137446)
(-0.161537 -0.440696 0.125531)
(-0.141378 -0.461997 0.115918)
(-0.131862 -0.46576 0.281447)
(-0.153712 -0.439663 0.271275)
(-0.158187 -0.377156 0.19197)
(-0.182418 -0.298129 0.307452)
(-0.121726 -0.301511 0.526958)
(-0.183598 -0.229962 0.485101)
(-0.232459 -0.180039 0.569134)
(-0.271266 0.0608227 0.566775)
(-0.2012 0.206693 0.5759)
(-0.127523 0.237711 0.602181)
(-0.0931016 0.173505 0.577943)
(-0.110286 0.106927 0.537531)
(-0.115125 0.0932373 0.4716)
(-0.0682916 0.10078 0.404105)
(-0.0461216 0.0432627 0.397553)
(-0.0401894 0.0113765 0.399935)
(-0.0462381 -0.0853347 0.417497)
(-0.0632714 -0.143352 0.392721)
(-0.0840519 -0.126025 0.39041)
(-0.0597483 -0.0501383 0.430177)
(-0.074362 -0.148586 0.349855)
(-0.0426026 -0.256949 0.37133)
(-0.103264 -0.185515 0.223814)
(-0.094798 -0.162195 0.169985)
(-0.10261 -0.14735 0.236655)
(-0.109738 -0.167399 0.245868)
(-0.167054 -0.166067 0.242016)
(-0.0704535 0.00164258 0.259585)
(-0.239185 -0.0572031 0.240547)
(-0.172919 -0.212067 0.255281)
(-0.199152 0.0715274 0.319911)
(-0.177774 0.0591486 0.537829)
(-0.1607 0.0471247 0.710283)
(-0.156617 0.0339324 0.857223)
(-0.161801 -0.0223694 0.954701)
(-0.162817 -0.0680361 1.00566)
(-0.131374 -0.0818431 1.01922)
(-0.0890146 -0.0134116 0.958811)
(-0.0539332 -0.021051 0.884126)
(-0.0315511 -0.031402 0.778211)
(-0.00603368 -0.0343532 0.632013)
(0.0263204 -0.0315091 0.430886)
(0.0908257 -0.0457193 0.248539)
(0.0627875 -0.313615 0.224858)
(-0.0218842 -0.182902 0.200926)
(0.146871 -0.212744 0.134953)
(0.104819 -0.407591 0.111877)
(0.102891 -0.46929 0.113435)
(0.10618 -0.57634 0.110433)
(0.097591 -0.642292 0.100057)
(0.0838064 -0.694294 0.152684)
(0.129457 -0.737958 0.183836)
(0.152003 -0.76127 0.214386)
(0.170533 -0.782494 0.208595)
(0.177616 -0.766623 0.193328)
(0.178408 -0.718444 0.167878)
(0.171374 -0.622439 0.128105)
(0.163626 -0.497218 0.0342896)
(0.155561 -0.0673081 -0.0836064)
(0.198184 0.395092 0.0484916)
(0.217522 0.475782 0.197452)
(0.22621 0.554283 0.241977)
(0.228151 0.572465 0.269885)
(0.220999 0.563243 0.291895)
(0.213257 0.522909 0.305661)
(0.198031 0.434872 0.302946)
(0.168755 0.389041 0.237251)
(0.121662 0.354164 0.211024)
(0.129058 0.322716 0.137838)
(0.128106 0.270076 0.158103)
(0.120358 0.186503 0.167803)
(0.118011 0.0715639 0.15704)
(0.0536864 0.0349041 0.077817)
(0.178792 0.0617064 0.0994767)
(0.140277 0.0346496 0.13593)
(0.14729 0.0529967 0.202002)
(0.277845 0.0658404 0.174791)
(0.433042 0.0815898 0.16313)
(0.546723 0.0920619 0.154665)
(0.639701 0.101353 0.147565)
(0.715514 0.107694 0.141402)
(0.779406 0.111738 0.131926)
(0.843682 0.117466 0.107215)
(0.895553 0.101108 0.082508)
(0.964858 0.0634435 0.0827705)
(1.04107 0.0419033 0.0814416)
(1.13199 0.0244265 0.0747758)
(1.24412 0.00633581 0.0559004)
(1.33795 -0.0143712 0.0182481)
(1.38232 -0.0334636 -0.0261071)
(1.37167 -0.0496079 -0.0639853)
(1.32405 -0.0592025 -0.0875138)
(1.26408 -0.0647086 -0.0985503)
(1.20758 -0.0664554 -0.102302)
(1.15839 -0.0668121 -0.102091)
(1.11668 -0.0656209 -0.0992044)
(1.08098 -0.064759 -0.0951769)
(1.0495 -0.0601182 -0.0895309)
(1.03019 -0.0499405 -0.0883748)
(1.00776 -0.0419248 -0.0907824)
(0.915205 -0.0396354 -0.0677422)
(0.846882 -0.0329546 -0.0457635)
(0.821554 -0.0275065 -0.038792)
(0.794044 -0.0231398 -0.0352038)
(0.761063 -0.0200702 -0.0340131)
(0.717605 -0.0150812 -0.0378265)
(0.685214 -0.014739 -0.040195)
(0.644929 -0.0138603 -0.0450539)
(0.578161 -0.00679412 -0.0479844)
(0.48917 0.00106849 -0.0475803)
(0.372623 0.0181668 -0.0451988)
(0.227093 0.029249 -0.046429)
(0.0970755 0.0369791 -0.0499089)
(0.057562 0.0596131 -0.0560582)
(0.0375374 0.0835296 -0.0348114)
(0.0441435 0.141952 -0.0270098)
(0.0513696 0.167129 -0.0302589)
(0.0616562 0.287714 -0.0333932)
(0.119014 0.272498 -0.0323679)
(0.18551 0.767177 -0.00450953)
(0.756993 0.24954 -0.107778)
(0.973303 -0.149586 -0.137373)
(1.48258 -0.333333 -0.196062)
(2.03471 -0.420715 -0.291586)
(2.47496 -0.418594 -0.376258)
(2.72178 -0.367509 -0.433506)
(2.66359 -0.364323 -0.465211)
(2.43504 -0.339813 -0.449115)
(1.99464 -0.180393 -0.419962)
(1.04785 0.173005 -0.409809)
(-0.465169 1.12968 0.167866)
(-1.73461 1.94153 0.0197256)
(-0.696539 2.91617 0.0134786)
(-0.413584 1.35635 -0.0263879)
(-0.278683 1.04408 -0.0574005)
(-0.227955 0.693903 -0.0682485)
(-0.196854 0.474745 -0.0679278)
(-0.147846 0.268319 -0.100361)
(-0.175329 0.178716 -0.146121)
(-0.274163 0.138694 -0.0956241)
(-0.146519 0.180329 -0.120627)
(-0.0655031 0.191405 -0.0816374)
(0.008438 0.187317 0.0354796)
(-0.0196199 0.172919 0.177988)
(-0.0501897 0.158713 0.274064)
(-0.0638434 0.149284 0.346109)
(-0.0856112 0.143228 0.38016)
(-0.0850213 0.13907 0.396457)
(-0.100171 0.136838 0.396545)
(-0.0930438 0.136116 0.388625)
(-0.104417 0.135789 0.376355)
(-0.0912534 0.135475 0.361365)
(-0.0978663 0.13446 0.347491)
(-0.0783039 0.131888 0.338253)
(-0.0849408 0.130733 0.343458)
(-0.0832441 0.122953 0.354243)
(-0.103931 0.150881 0.373278)
(-0.0931449 0.169739 0.383242)
(-0.119569 0.169004 0.378188)
(-0.195861 0.188795 0.371342)
(-0.288785 0.267601 0.333988)
(-0.417924 0.246284 0.282081)
(-0.522408 0.246614 0.316543)
(-0.560703 0.336886 0.316297)
(-0.666152 0.23452 0.201522)
(-0.703641 0.23307 0.173218)
(-0.911018 0.129854 0.0962559)
(-0.865889 0.126128 0.171433)
(-0.77054 0.160098 0.247899)
(-0.693981 0.177968 0.259132)
(-0.591109 0.172902 0.299544)
(-0.447184 0.15548 0.308513)
(-0.382542 0.11912 0.306805)
(-0.266684 0.113733 0.326588)
(-0.189967 0.12667 0.335197)
(-0.181463 0.134076 0.335406)
(-0.151015 0.140678 0.352081)
(-0.157711 0.138292 0.358664)
(-0.261766 0.123455 0.34056)
(-0.305743 0.121455 0.316083)
(-0.398654 0.106834 0.315589)
(-0.434007 0.0982158 0.336605)
(-0.235243 0.108687 0.356062)
(-0.253253 0.109945 0.343144)
(-0.241609 0.112244 0.357295)
(-0.285782 0.110762 0.371938)
(-0.25587 0.115194 0.385264)
(-0.286857 0.113487 0.393945)
(-0.248683 0.118543 0.396714)
(-0.272947 0.118222 0.393496)
(-0.227756 0.127472 0.380546)
(-0.242587 0.131212 0.353234)
(-0.188299 0.145226 0.308815)
(-0.189738 0.153212 0.24531)
(-0.169007 0.170979 0.170314)
(-0.190851 0.177682 0.121895)
(-0.24855 0.183546 0.0728384)
(-0.306397 0.183608 0.0265915)
(-0.497223 0.167705 -0.0089133)
(-0.709318 0.135238 0.0159294)
(-0.863618 0.0919751 0.0178379)
(-0.985952 0.0661099 0.0143292)
(-1.08654 0.0687826 0.0101243)
(-1.14748 0.0839138 0.0110383)
(-1.17718 0.0804544 0.0146276)
(-1.22326 0.0663067 0.0091486)
(-1.24308 0.0715346 -0.0144552)
(-1.25185 0.0669054 -0.0380425)
(-1.3211 0.0422044 -0.0317675)
(-1.42707 0.00512509 -0.0274425)
(-1.46695 -0.00446817 -0.0217559)
(-1.53713 -0.0104999 -0.0308269)
(-1.57072 0.00476412 -0.0119178)
(-1.61251 0.00749409 -0.00758479)
(-1.65703 0.00516887 -0.00233178)
(-1.67341 0.00786853 0.0143515)
(-1.65707 0.0135677 0.0337684)
(-1.61501 0.0214665 0.0522086)
(-1.56194 0.0328964 0.0672907)
(-1.51473 0.0437742 0.0810782)
(-1.47489 0.0531845 0.0942639)
(-1.43258 0.0650751 0.111503)
(-1.37687 0.0779131 0.128557)
(-1.31168 0.0867559 0.137062)
(-1.25618 0.0892672 0.127763)
(-1.21827 0.0890886 0.12093)
(-1.19655 0.0898031 0.118338)
(-1.17097 0.106062 0.116971)
(-1.1274 0.149695 0.114029)
(-1.07261 0.159287 0.137932)
(-0.939398 0.144763 0.178728)
(-0.804722 0.119157 0.24115)
(-0.709045 0.0849797 0.284432)
(-0.471158 0.0343231 0.335297)
(-0.251369 -0.0327688 0.367958)
(-0.267216 -0.217782 0.55425)
(-0.267693 -0.290259 0.698244)
(-0.260988 -0.341867 0.686831)
(-0.245353 -0.384902 0.586283)
(-0.237077 -0.416747 0.399076)
(-0.257819 -0.436987 0.199547)
(-0.0926645 -0.80786 0.108806)
(-0.0648043 -0.764049 0.304949)
(-0.079781 -0.693279 0.495818)
(-0.112697 -0.602921 0.591525)
(-0.146505 -0.499144 0.589414)
(-0.193498 -0.359789 0.431723)
(-0.248447 -0.0715102 0.212579)
(-0.267564 -0.265517 0.209479)
(-0.275579 -0.363657 0.258735)
(-0.283095 -0.448755 0.310892)
(-0.292258 -0.461529 0.368027)
(-0.304297 -0.417987 0.423385)
(-0.31697 -0.324773 0.478793)
(-0.307931 -0.188199 0.535108)
(-0.259565 0.0468213 0.522774)
(-0.269654 0.187543 0.362553)
(-0.339228 0.0436836 0.390793)
(-0.356449 0.0684495 0.49824)
(-0.365031 0.152631 0.518451)
(-0.353744 0.245656 0.499468)
(-0.33698 0.326149 0.460754)
(-0.324493 0.397582 0.412184)
(-0.323231 0.415052 0.314054)
(-0.29215 0.34907 0.252727)
(-0.185474 0.235632 0.164303)
(-0.165256 0.176348 0.129765)
(-0.153438 0.157103 0.0993322)
(-0.139349 0.0185978 0.085277)
(-0.158716 -0.0185369 0.109096)
(-0.0479877 -0.133762 0.132137)
(-0.270654 -0.0511791 0.235952)
(-0.222529 -0.0379705 0.156243)
(-0.225632 -0.113473 0.331743)
(-0.405649 -0.125882 0.299977)
(-0.647721 -0.155002 0.279237)
(-0.836566 -0.17095 0.254148)
(-0.9981 -0.174856 0.212756)
(-1.14877 -0.144647 0.279126)
(-1.29629 -0.136362 0.320673)
(-1.41225 -0.148657 0.312306)
(-1.50937 -0.15922 0.296881)
(-1.57558 -0.164938 0.279412)
(-1.61646 -0.16759 0.261608)
(-1.62964 -0.169889 0.240642)
(-1.62319 -0.1765 0.205302)
(-1.60307 -0.171562 0.18137)
(-1.59116 -0.171898 0.135284)
(-1.567 -0.182828 0.100903)
(-1.53243 -0.181292 0.0831423)
(-1.4336 -0.13854 0.0795562)
(-1.28844 -0.1212 0.0754433)
(-1.12232 -0.152171 0.0710906)
(-0.920191 -0.204421 0.0593621)
(-0.641665 -0.235957 0.0171363)
(-0.35409 -0.193655 -0.101955)
(-0.172538 -0.238559 -0.149904)
(-0.101085 -0.253262 -0.0673088)
(-0.111299 -0.238348 0.0128157)
(-0.107487 -0.228198 0.0675273)
(-0.119551 -0.20837 0.120748)
(-0.107232 -0.197547 0.146452)
(-0.125029 -0.184916 0.167077)
(-0.112368 -0.177978 0.164168)
(-0.13007 -0.170103 0.162055)
(-0.114806 -0.168211 0.143115)
(-0.130629 -0.164749 0.134965)
(-0.111984 -0.163859 0.11377)
(-0.116791 -0.161127 0.113573)
(-0.0952371 -0.156009 0.107469)
(-0.103335 -0.152665 0.12188)
(-0.09413 -0.127166 0.129248)
(-0.115722 -0.175884 0.109077)
(-0.114759 -0.191259 0.0569913)
(-0.0898358 -0.175769 0.101571)
(-0.149557 -0.189002 0.176673)
(-0.264698 -0.301999 0.197065)
(-0.427356 -0.268712 0.195742)
(-0.549805 -0.259303 0.268362)
(-0.594693 -0.36225 0.296217)
(-0.720891 -0.250475 0.20394)
(-0.769247 -0.237943 0.170886)
(-0.802225 -0.691542 0.207936)
(-0.783071 -0.691802 0.241446)
(-0.669969 -0.7186 0.380874)
(-0.569877 -0.455252 0.38093)
(-0.580384 -0.8686 0.242737)
(-0.791176 -1.17693 0.585758)
(-0.747599 -0.840145 0.426552)
(-1.10878 -0.54804 0.460707)
(-1.18466 -0.409055 0.370908)
(-1.18618 -0.441065 0.269886)
(-1.00886 -0.191155 0.354407)
(-0.765968 -0.276359 0.385813)
(-0.201652 -0.349722 0.349201)
(-0.398634 -0.680388 0.533611)
(-0.803104 -0.751221 0.503656)
(-1.3043 -0.879426 0.626173)
(-1.14781 -0.767595 0.422803)
(-0.605312 -1.0138 0.284056)
(-0.492226 -0.9335 0.369437)
(-0.345984 -0.776322 0.31068)
(-0.558321 -1.48431 0.209725)
(-1.16278 -1.40723 -0.227762)
(-1.10014 -0.836368 0.212549)
(-0.877678 -0.603846 0.377124)
(-1.19247 -0.773486 0.165604)
(-1.09782 -0.932729 0.361279)
(-1.07023 -0.633726 0.357914)
(-1.16218 -0.639755 0.23016)
(-1.39895 -0.225975 0.409127)
(-1.3139 -0.257837 0.29037)
(-1.21174 -0.441721 0.0699353)
(-1.11815 -0.378589 0.261888)
(-1.18308 -0.347131 0.30923)
(-1.10248 -0.435055 0.220606)
(-0.999328 -0.591584 0.22689)
(-1.11353 -0.649432 0.254322)
(-1.21249 -0.508046 0.328128)
(-1.29544 -0.540197 0.402549)
(-1.10018 -0.87309 0.276546)
(-0.937679 -1.0429 0.287602)
(-1.05217 -0.997626 0.313565)
(-1.35556 -0.880047 0.223197)
(-0.869711 -0.936358 0.238389)
(-0.903227 -0.91889 0.215161)
(-0.944742 -0.904574 0.214263)
(-1.01542 -0.923457 0.241391)
(-1.00654 -0.914404 0.23655)
(-0.966257 -0.935662 0.275527)
(-0.892136 -0.910112 0.327819)
(-0.949021 -0.981849 0.435575)
(-0.992317 -1.02058 0.498499)
(-1.14084 -1.14934 0.570476)
(-1.26845 -1.24498 0.574766)
(-1.56966 -1.41596 0.495597)
(-1.67578 -1.4984 0.379977)
(-1.72878 -1.58084 0.259352)
(-1.7308 -1.65704 0.188289)
(-1.74445 -1.87937 0.0888911)
(-1.77959 -1.90647 0.0452783)
(-1.85453 -2.68303 0.00252958)
(-2.87445 -0.447083 -0.61668)
(-2.26913 -0.713493 -0.188996)
(-1.94816 -0.745256 -0.171289)
(-1.47523 -0.571249 -0.0979536)
(-1.35377 -0.222925 -0.140171)
(-0.162107 0.297044 -0.389678)
(1.00974 0.510126 -0.458983)
(1.25443 0.768752 -0.506281)
(1.415 0.955197 -0.613069)
(1.38633 0.905664 -0.557891)
(1.30948 0.674954 -0.348219)
(1.19937 0.233607 -0.232848)
(0.525879 -0.854923 -0.000796689)
(0.362019 -0.52146 -0.00998946)
(0.168189 -0.335821 -0.0160368)
(0.157271 -0.401791 -0.0580756)
(0.172612 -0.3242 -0.00907315)
(0.338095 -0.208554 0.0140809)
(0.0161013 0.190746 -0.0700099)
(0.0632721 0.277192 -0.183842)
(0.32235 0.158627 -0.220675)
(0.246144 -0.0103491 -0.32358)
(0.432679 -0.226605 -0.0679719)
(0.490557 -0.371386 0.0765572)
(0.503145 -0.406949 0.147014)
(0.470716 -0.428817 0.165237)
(0.432468 -0.437087 0.162773)
(0.383436 -0.429307 0.13049)
(0.428098 -0.494155 0.108437)
(0.455685 -0.579498 0.0854083)
(0.477949 -0.658673 0.0773266)
(0.503567 -0.713963 0.0629441)
(0.518782 -0.747455 0.054243)
(0.500897 -0.755244 0.0554505)
(0.45283 -0.761 0.0703481)
(0.377954 -0.74671 0.0949968)
(0.283859 -0.735805 0.104488)
(0.202172 -0.713677 0.123362)
(0.158832 -0.682927 0.089231)
(0.174474 -0.658836 0.0714146)
(0.165547 -0.600461 0.0685006)
(0.123446 -0.506422 0.076036)
(0.0651291 -0.431314 0.0962564)
(0.043833 -0.250339 0.160681)
(0.217538 -0.41204 0.162206)
(0.212986 -0.274819 0.175415)
(0.191765 -0.0999859 0.182014)
(0.263895 -0.128538 0.150803)
(0.318092 -0.144426 0.13802)
(0.376561 -0.15065 0.116033)
(0.342446 -0.185247 0.178081)
(0.279207 -0.192864 0.242898)
(0.329131 -0.201762 0.304533)
(0.391172 -0.202196 0.31561)
(0.456204 -0.196107 0.301826)
(0.494248 -0.185087 0.250526)
(0.507644 -0.136535 0.162274)
(0.587635 -0.0671343 0.0294082)
(0.692108 -0.0677337 0.0233754)
(0.765273 -0.0351027 -0.00991477)
(0.927234 -0.0555347 -0.0108091)
(0.972035 -0.0393089 0.0097477)
(0.915333 -0.0289181 0.0101059)
(0.815797 -0.0402064 0.00991342)
(0.689427 -0.0602816 0.0126665)
(0.533847 -0.0900342 0.0103733)
(0.346129 -0.12599 -0.00195157)
(0.16316 -0.122002 -0.01733)
(0.0923178 -0.175528 -0.0339141)
(0.0680411 -0.255593 -0.0190198)
(0.0770698 -0.370201 -0.0116495)
(0.0850799 -0.504629 -0.0134261)
(0.0810697 -0.664019 -0.0116422)
(0.112816 -0.732801 -0.00637939)
(0.237425 -1.31932 0.0166332)
(1.2423 -0.567456 -0.0232105)
(1.73145 0.0613728 -0.0465527)
(2.43109 0.269605 -0.114)
(3.08138 0.325895 -0.205514)
(3.50678 0.28725 -0.284132)
(3.64616 0.254093 -0.359314)
(3.35655 0.293009 -0.42117)
(3.07819 0.247516 -0.414164)
(2.25132 0.0103592 -0.343182)
(1.01595 -0.330408 -0.314065)
(-0.639157 -1.43729 0.244476)
(-2.16772 -2.51911 0.0300785)
(-0.910868 -3.67964 0.00375463)
(-0.535493 -1.77925 -0.0409156)
(-0.368213 -1.337 -0.0805243)
(-0.301816 -0.90278 -0.0930499)
(-0.258805 -0.619684 -0.0904896)
(-0.190698 -0.355579 -0.131029)
(-0.223376 -0.237144 -0.17987)
(-0.443207 -0.326591 -0.00298046)
(-0.564303 -0.291321 0.00648699)
(-0.899248 -0.518167 0.0170749)
(-0.886784 -0.579756 0.0416346)
(-1.0856 -0.877988 0.0457976)
(-1.18925 -0.988941 0.0515001)
(-1.52238 -1.30241 0.060886)
(-1.67579 -1.33468 0.0820062)
(-1.91457 -1.64462 0.120837)
(-2.48804 -2.24023 0.0101104)
(-3.1879 -1.52547 -0.156388)
(-3.28436 -1.25378 0.0565104)
(-3.28773 -0.916307 0.0370176)
(-3.16975 -0.571079 -0.0206738)
(-3.07216 -0.273049 -0.108756)
(-2.82414 -0.0826037 -0.183195)
(-2.15032 0.241252 -0.302644)
(-1.38705 0.772054 -0.578858)
(-0.697475 1.18054 -0.915336)
(-0.185716 1.24269 -0.98372)
(0.368909 0.887595 -0.602777)
(0.795717 0.233529 -0.337491)
(0.749759 -0.500145 -0.118765)
(0.291461 -0.270264 -0.0747063)
(-0.471996 0.263164 -0.267416)
(-0.621396 0.0123279 -0.24801)
(-0.497903 -0.133962 -0.115828)
(-0.97613 0.203236 -0.095001)
(-0.82846 0.258941 -0.094857)
(-0.666632 0.295018 -0.116894)
(-0.404977 0.215814 -0.247077)
(-0.708381 0.241946 -0.174861)
(-0.425764 0.122341 -0.359756)
(0.220011 -0.248983 -0.289023)
(0.426078 -0.491428 -0.0520991)
(0.530337 -0.549781 0.0461237)
(0.529408 -0.581499 0.0774499)
(0.507536 -0.602257 0.0902212)
(0.464166 -0.61016 0.0830751)
(0.539842 -0.727953 0.052871)
(0.573556 -0.708859 0.0484626)
(0.583601 -0.683989 0.0321608)
(0.543449 -0.656243 0.00327392)
(0.408789 -0.592213 -0.118984)
(-0.0187441 -0.253467 -0.303894)
(-0.635351 0.17166 -0.251817)
(-1.00489 0.332547 -0.149158)
(-0.868166 0.337299 -0.166257)
(-1.10113 0.412393 -0.0723444)
(-1.00874 0.376832 -0.0980734)
(-1.12755 0.412724 -0.0716599)
(-1.29377 0.456254 -0.077721)
(-1.39015 0.541689 -0.0727154)
(-1.25272 0.397747 -0.0902453)
(-1.22668 0.532395 -0.144162)
(-1.30929 0.749292 -0.196576)
(-1.47459 1.12342 -0.313224)
(-1.14292 0.976301 -0.441422)
(-0.417214 0.860993 -0.490156)
(-0.733666 1.17366 -0.814168)
(-1.34647 1.37337 -1.17594)
(-2.08772 1.34201 -1.29703)
(-2.99447 1.06644 -1.11726)
(-3.77434 0.692123 -0.92842)
(-4.24849 0.230643 -0.618008)
(-4.36676 -0.110708 -0.335491)
(-4.30839 -0.40871 -0.114753)
(-4.12625 -0.730451 0.028021)
(-3.85711 -0.986779 0.0783641)
(-3.34405 -1.16438 0.0879337)
(-2.77995 -1.38195 0.0671429)
(-3.36956 -1.18653 0.0675287)
(-3.92431 -0.885873 0.0680471)
(-4.29767 -0.55559 0.0012882)
(-4.60102 -0.173036 -0.143324)
(-4.71734 0.240129 -0.363596)
(-4.57388 0.670949 -0.61042)
(-4.1612 1.1118 -0.845279)
(-3.50038 1.43054 -1.03153)
(-2.73929 1.52823 -1.09566)
(-2.05903 1.49341 -0.977063)
(-1.49824 1.28603 -0.704442)
(-1.816 1.41437 -0.48536)
(-2.28548 1.63167 -0.663546)
(-2.85968 1.75094 -0.847093)
(-3.48255 1.70792 -0.79913)
(-4.03475 1.49921 -0.68627)
(-4.40912 1.12174 -0.51266)
(-4.58186 0.673677 -0.295696)
(-4.47633 0.182094 -0.0639453)
(-4.17749 -0.260964 0.124636)
(-3.79785 -0.616612 0.101748)
(-3.32404 -0.884626 0.0934091)
(-2.84899 -0.994822 0.0931916)
(-3.20095 -0.827926 0.085692)
(-3.55464 -0.528036 0.0855813)
(-3.84013 -0.222785 0.0711278)
(-3.962 0.171456 -0.0256585)
(-4.07245 0.615077 -0.195979)
(-3.91532 1.02159 -0.357435)
(-3.7601 1.39997 -0.497319)
(-3.35444 1.53179 -0.533237)
(-2.94177 1.62419 -0.577391)
(-2.50874 1.49748 -0.462819)
(-2.06288 1.36519 -0.346932)
(-1.79633 1.17302 -0.226807)
(-1.98725 1.08342 -0.2413)
(-1.63403 0.875223 -0.149484)
(-1.48561 0.698653 -0.118481)
(-1.62972 0.735266 -0.138163)
(-1.50666 0.618976 -0.0965005)
(-1.57815 0.615037 -0.0994596)
(-1.44589 0.496617 -0.0729696)
(-1.23492 0.450602 -0.0486183)
(-1.34591 0.403918 -0.0388946)
(-1.2045 0.391708 -0.0598101)
(-1.13578 0.429949 -0.0789457)
(-0.96748 0.398462 -0.127427)
(-0.984776 0.420245 -0.0503206)
(-1.15984 0.445384 -0.0792616)
(-1.27359 0.448956 -0.06204)
(-1.48801 0.426655 -0.105786)
(-1.55485 0.394634 -0.0765)
(-1.74824 0.380436 -0.055207)
(-1.67568 0.521286 -0.0596809)
(-1.76513 0.587535 -0.100363)
(-1.70892 0.708452 -0.142762)
(-1.89587 0.7655 -0.175317)
(-1.81827 0.848958 -0.180579)
(-2.13511 0.964672 -0.254758)
(-2.59348 0.973352 -0.314028)
(-2.65278 1.20116 -0.361059)
(-3.31885 1.04107 -0.308934)
(-3.68879 0.603287 -0.188043)
(-3.63652 0.0321677 -0.0224096)
(-3.23492 -0.442169 0.0842779)
(-2.72942 -0.707509 0.112296)
(-2.31676 -0.748746 0.0873994)
(-2.24489 -0.905282 0.0911903)
(-2.07506 -1.10666 0.080104)
(-1.61723 -1.07738 0.0668935)
(-1.22468 -0.829975 0.0614266)
(-0.955555 -0.472352 0.0645824)
(-1.20257 -0.363968 0.0668065)
(-1.3172 -0.284638 0.0677077)
(-1.41047 -0.185877 0.0722988)
(-1.47572 -0.216846 0.0759267)
(-1.52858 -0.516337 0.0615062)
(-1.53139 -0.716638 0.0616439)
(-1.39533 -0.629904 0.0588092)
(-1.21085 -0.649437 0.142955)
(-1.02016 -0.369506 0.135544)
(-0.961929 -0.138048 0.141461)
(-0.938729 -0.141078 0.216572)
(-0.888145 -0.124362 0.271798)
(-0.855718 -0.116271 0.294987)
(-0.831674 -0.105121 0.310746)
(-0.812293 -0.100267 0.305657)
(-0.781318 -0.0955781 0.300725)
(-0.762671 -0.0909345 0.285418)
(-0.743897 -0.0899947 0.269138)
(-0.718248 -0.0979549 0.256116)
(-0.697375 -0.133657 0.247673)
(-0.6178 -0.20138 0.243364)
(-0.733265 -0.198522 0.22589)
(-0.807344 -0.175246 0.236205)
(-0.925084 -0.136221 0.173427)
(-0.990599 -0.130919 0.0981104)
(-1.23453 -0.0507243 0.0819345)
(-1.38367 0.0148357 0.059339)
(-1.44815 0.04845 0.0495621)
(-1.46809 0.0755218 0.0529619)
(-1.45421 0.106981 0.0691704)
(-1.39866 0.144245 0.108987)
(-1.30018 0.180274 0.165199)
(-1.15482 0.213959 0.22238)
(-0.988537 0.233168 0.188502)
(-1.01596 0.215857 0.0681214)
(-0.838971 0.206083 0.0619112)
(-0.713948 0.231983 0.0727418)
(-0.460835 0.296187 0.084118)
(-0.086959 0.265172 0.0177754)
(0.123263 -0.308551 -0.0416471)
(0.0263147 -0.112106 0.138901)
(0.0503698 -0.171116 0.315094)
(0.0877328 -0.243401 0.391384)
(-0.00774507 -0.155227 0.481069)
(-0.238338 0.14716 0.655901)
(-0.318958 0.225695 0.819961)
(-0.326379 0.24988 0.831943)
(-0.318704 0.215507 0.836184)
(-0.306944 0.175636 0.764888)
(-0.318831 0.160533 0.677696)
(-0.268719 0.0556915 0.523633)
(-0.450016 0.0542573 0.490172)
(-0.485327 0.0907144 0.667785)
(-0.498882 0.12289 0.770501)
(-0.527245 0.152586 0.842361)
(-0.555445 0.178076 0.853199)
(-0.67577 0.195364 0.830766)
(-0.601742 0.228033 0.722496)
(-0.574891 0.271789 0.568489)
(-0.525626 0.263873 0.473971)
(-0.519203 0.295776 0.352964)
(-0.506164 0.312238 0.209093)
(-0.163069 0.262494 0.177884)
(-0.179737 0.23965 0.339426)
(-0.189775 0.21807 0.448735)
(-0.26437 0.218265 0.537208)
(-0.258039 0.441057 0.526944)
(-0.220499 0.435159 0.484994)
(-0.197722 0.559246 0.477993)
(-0.320207 0.636365 0.502433)
(-0.331794 0.51678 0.492622)
(-0.370298 0.497312 0.521915)
(-0.402455 0.663202 0.548635)
(-0.228685 0.560786 0.541051)
(-0.2296 0.563856 0.633432)
(-0.360124 0.254091 0.797815)
(-0.366725 0.409999 0.817015)
(-0.439795 0.554555 0.835004)
(-0.201912 0.70053 0.794795)
(-0.246432 0.634762 0.823785)
(-0.308225 0.483525 0.679441)
(-0.344258 0.585346 0.652602)
(-0.400283 0.572678 0.667097)
(-0.479375 0.597263 0.740103)
(-0.346276 0.645475 0.698641)
(-0.371249 0.562448 0.778404)
(-0.390868 0.475907 0.69594)
(-0.489369 0.367383 0.689668)
(-0.496322 0.472852 0.608738)
(-0.477745 0.421127 0.672744)
(-0.299393 0.618507 0.633132)
(-0.445472 0.620429 0.605646)
(-0.484601 0.649218 0.597169)
(-0.436979 0.618722 0.609028)
(-0.414668 0.541471 0.61042)
(-0.364899 0.496899 0.618558)
(-0.365975 0.575131 0.605268)
(-0.271998 0.58092 0.593406)
(-0.357638 0.644843 0.573836)
(-0.368491 0.532665 0.569013)
(-0.294296 0.482058 0.585257)
(-0.478748 0.67418 0.55507)
(-0.258468 0.840971 0.505097)
(-0.263887 0.658772 0.44911)
(-0.246168 0.623608 0.627356)
(-0.136916 0.754413 0.82461)
(0.0342623 1.11643 0.689466)
(0.11001 1.2448 0.684338)
(0.17091 1.23437 0.732115)
(0.219504 1.1726 0.769159)
(0.271546 1.05895 0.776186)
(0.316183 0.91806 0.749428)
(0.396599 0.669248 0.661616)
(0.413485 0.426635 0.450333)
(0.48734 -0.199943 0.271837)
(0.453856 -0.694104 0.460756)
(0.34949 -1.02801 0.525401)
(0.283191 -1.20489 0.565079)
(0.22254 -1.29693 0.572557)
(0.171046 -1.3151 0.552531)
(0.120414 -1.27233 0.52027)
(0.067244 -1.16588 0.489765)
(0.00775162 -1.00137 0.47616)
(-0.0351588 -0.868201 0.583839)
(-0.0846394 -0.713462 0.587402)
(-0.154382 -0.521676 0.425409)
(-0.129836 -0.605265 0.471748)
(-0.109076 -0.669562 0.537556)
(-0.0917538 -0.676823 0.615821)
(-0.0757812 -0.629884 0.693247)
(-0.0591316 -0.534136 0.764839)
(-0.0255714 -0.371616 0.821754)
(0.0565389 -0.108496 0.818662)
(0.0398432 0.21473 0.686448)
(-0.0671568 0.235867 0.722223)
(-0.0977246 0.293688 0.824156)
(-0.110567 0.364585 0.844314)
(-0.10754 0.446438 0.819117)
(-0.104428 0.523414 0.765841)
(-0.109252 0.584599 0.692754)
(-0.130803 0.577847 0.582524)
(-0.148157 0.519701 0.466068)
(-0.109756 0.470384 0.405398)
(-0.110024 0.409168 0.312653)
(-0.124424 0.353497 0.246985)
(-0.122103 0.330515 0.240222)
(-0.121533 0.252092 0.228445)
(-0.149565 0.212076 0.240862)
(-0.107971 0.0241959 0.244151)
(-0.260735 0.0357863 0.32449)
(-0.188122 0.0684293 0.425947)
(-0.100942 0.128866 0.338024)
(-0.132165 0.339495 0.399844)
(-0.104558 0.385146 0.397574)
(-0.0967648 0.431856 0.400242)
(-0.0800141 0.575644 0.57043)
(-0.0787994 0.605704 0.617998)
(-0.0951421 0.625152 0.645882)
(-0.0378386 0.795413 0.774699)
(-0.0199839 0.829149 0.823725)
(0.0105721 0.797638 0.910592)
(0.0296814 0.732564 0.997515)
(0.0392606 0.633982 1.06015)
(0.0447133 0.534215 1.09533)
(0.0656739 0.446249 1.08282)
(0.117593 0.380418 0.949369)
(0.279302 0.249578 0.786786)
(0.287725 -0.243951 0.902143)
(0.166661 -0.56506 0.971549)
(0.0929253 -0.754601 0.953911)
(0.0521844 -0.85976 0.884463)
(0.0194133 -0.907279 0.798461)
(-0.0106982 -0.89452 0.710773)
(-0.0442216 -0.82131 0.635679)
(0.0194138 -1.00858 0.617491)
(0.0635979 -1.09925 0.67287)
(0.104163 -1.12627 0.73113)
(0.153593 -1.09874 0.780812)
(0.218327 -0.998575 0.801373)
(0.298733 -0.802373 0.766643)
(0.399676 -0.505305 0.681761)
(0.475035 0.0556974 0.426111)
(0.290214 0.462872 0.634718)
(0.218508 0.590684 0.921048)
(0.190203 0.71476 0.980858)
(0.168919 0.837262 0.980649)
(0.135203 0.949639 0.947352)
(0.0985634 1.01904 0.887271)
(0.0558305 1.04295 0.821077)
(-0.00252695 0.970618 0.770465)
(-0.000584193 0.883174 0.765098)
(-0.0137416 0.797032 0.769154)
(-0.0202711 0.773201 0.720491)
(-0.0424217 0.745759 0.704965)
(-0.051697 0.696676 0.672504)
(-0.0709256 0.608429 0.670929)
(-0.0905809 0.511694 0.554518)
(-0.114324 0.478153 0.550081)
(-0.113354 0.254172 0.443657)
(-0.222347 0.272715 0.533316)
(-0.267068 0.300754 0.659819)
(-0.266192 0.373742 0.581352)
(-0.120356 0.49804 0.698399)
(-0.0830821 0.658902 0.785251)
(-0.0774985 0.765698 0.792883)
(-0.0231438 0.894099 0.775092)
(-0.041619 0.77242 0.737402)
(-0.0717526 0.685987 0.749118)
(-0.0950452 0.647736 0.715996)