/*--------------------------------*- C++ -*----------------------------------*\
| =========                 |                                                 |
| \\      /  F ield         | OpenFOAM: The Open Source CFD Toolbox           |
|  \\    /   O peration     | Version:  v2012                                 |
|   \\  /    A nd           | Website:  www.openfoam.com                      |
|    \\/     M anipulation  |                                                 |
\*---------------------------------------------------------------------------*/
FoamFile
{
    version     2.0;
    format      ascii;
    class       volScalarField;
    location    "805";
    object      alphat;
}
// * * * * * * * * * * * * * * * * * * * * * * * * * * * * * * * * * * * * * //

dimensions      [1 -1 -1 0 0 0 0];


internalField   nonuniform List<scalar> 
18258
(
0.00483643
0.00210502
0.001723
0.00149185
0.000990535
0.00161962
0.00224986
0.00267904
0.00281143
0.00278874
0.0028886
0.00487577
0.00684374
0.0084596
0.00888729
0.00887272
0.00805619
0.00769405
0.00835426
0.0102727
0.00863781
0.00553245
0.00662888
0.00765959
0.0083297
0.00737463
0.00596304
0.00552269
0.00499958
0.0041666
0.00349308
0.00238363
0.00175352
0.00162608
0.0014733
0.00167909
0.00182842
0.00194909
0.00199319
0.00202473
0.002011
0.00199954
0.00194541
0.00191224
0.00185546
0.00153492
0.00185958
0.0019061
0.00208573
0.00288434
0.00310012
0.002608
0.00288615
0.00257436
0.00169644
0.00194174
0.00210774
0.00215315
0.00212544
0.0020372
0.00200745
0.00198226
0.00195034
0.00191245
0.00188937
0.00190834
0.0019282
0.00190737
0.00181379
0.00173804
0.00161542
0.00149248
0.00140139
0.00133085
0.00127766
0.00121841
0.00115183
0.00101177
0.000937734
0.00124157
0.00155871
0.00166555
0.00236083
0.0028785
0.00289829
0.00216992
0.00154655
0.00160519
0.00178416
0.00180155
0.00152604
0.00181336
0.00205335
0.00212805
0.00221747
0.00247896
0.00282394
0.00275338
0.0024524
0.00226076
0.00220026
0.00252766
0.00240679
0.003122
0.00314111
0.00273262
0.0025392
0.0028561
0.00368421
0.00396049
0.00307453
0.00288859
0.00283208
0.00279505
0.00252905
0.00261898
0.00237948
0.00214408
0.00233646
0.00282184
0.0026761
0.00292197
0.00302834
0.0028415
0.00329276
0.00379707
0.00374302
0.00299522
0.00244355
0.00227778
0.00229489
0.00140354
0.00151562
0.00163225
0.00167226
0.0017005
0.00172439
0.00183809
0.00183392
0.00180683
0.00180282
0.00183368
0.00101084
0.00109529
0.00112262
0.0011305
0.00107412
0.001063
0.00104305
0.00102689
0.000968792
0.000927049
0.0011091
0.00124527
0.00135624
0.0014861
0.00167947
0.00191609
0.00216483
0.00241626
0.00258256
0.00262996
0.00267779
0.00258073
0.00248289
0.00257132
0.00258613
0.00256931
0.00253469
0.00249101
0.00243207
0.00232405
0.00244851
0.00244135
0.00229336
0.00196592
0.0020096
0.00200603
0.00205829
0.00204798
0.00206891
0.00203988
0.00200573
0.00190931
0.00177456
0.00147673
0.0014405
0.00145844
0.0018728
0.00227363
0.00351208
0.0042843
0.00497425
0.00532275
0.0056961
0.00460866
0.0051297
0.00395371
0.00354927
0.00451102
0.00590058
0.0033666
0.00183785
0.00348651
0.0030922
0.00224302
0.00199658
0.0020575
0.00206102
0.00236716
0.00272946
0.0030293
0.0031743
0.00330226
0.00340439
0.00351709
0.00366012
0.00369965
0.00357445
0.00302618
0.00364671
0.00296172
0.00345967
0.00312541
0.00210899
0.0022284
0.00236425
0.00216395
0.0021048
0.00201494
0.00181472
0.00223422
0.00289259
0.00335738
0.00383859
0.00511885
0.00473592
0.00454091
0.00351641
0.00340023
0.00176469
0.00251661
0.00261139
0.00293569
0.00195243
0.0017804
0.00168938
0.00224198
0.00259775
0.00306494
0.00339868
0.00403701
0.00312951
0.00357481
0.00323472
0.00225362
0.0021695
0.00310763
0.00334739
0.00275239
0.00246257
0.00308895
0.0029232
0.00207357
0.0016595
0.00254887
0.00263871
0.00189354
0.00468871
0.00500396
0.00477909
0.00582847
0.00730632
0.00833354
0.00775951
0.00688492
0.00768604
0.0061024
0.00591006
0.00630446
0.0052947
0.00370942
0.00380285
0.00393292
0.00404015
0.00433832
0.00460914
0.00493948
0.00525294
0.00477422
0.00396389
0.00299971
0.00206284
0.00203367
0.00202284
0.0018165
0.00269228
0.00407568
0.00405015
0.00230282
0.00134162
0.00151604
0.00171141
0.00169446
0.00123028
0.000925587
0.00159428
0.00182328
0.00185293
0.00180707
0.00170627
0.00178309
0.00286358
0.0044116
0.00484752
0.00502082
0.00518487
0.00530084
0.00536551
0.00538623
0.0053979
0.00541211
0.00542455
0.00544331
0.00542647
0.00531083
0.00467113
0.00293653
0.00171623
0.00159402
0.0017592
0.00189059
0.00200519
0.00170601
0.00104333
0.00166635
0.00213387
0.00245305
0.00247416
0.00230922
0.00224025
0.00353274
0.00469732
0.0055371
0.00570744
0.0057835
0.00572039
0.00571254
0.00558826
0.00554977
0.00486668
0.0034796
0.00380421
0.00408441
0.00413076
0.00422575
0.00436856
0.00426695
0.00403136
0.00589116
0.00679871
0.00688576
0.00703223
0.00694911
0.00682934
0.00651954
0.00616548
0.00519064
0.00389271
0.00245631
0.00250767
0.00266965
0.00264417
0.00230181
0.00242507
0.00263183
0.00265824
0.00274538
0.00307872
0.00349698
0.00333627
0.00287174
0.00243841
0.00227035
0.00222208
0.00213154
0.00159582
0.00162012
0.00157542
0.00160171
0.00215242
0.00256186
0.0029544
0.00418949
0.00373723
0.00303929
0.00481824
0.00493758
0.00530469
0.00586086
0.00600633
0.0066548
0.0046311
0.00417392
0.00428737
0.0035021
0.00324169
0.00327618
0.00328851
0.00306514
0.00335466
0.003325
0.00320471
0.00353808
0.00389863
0.00514071
0.00622887
0.00657204
0.00677047
0.00685186
0.00682643
0.00669401
0.00673669
0.00591732
0.00591335
0.00566389
0.00550224
0.00544576
0.00517734
0.00592441
0.00614928
0.00622345
0.00637756
0.00661835
0.00643839
0.00623959
0.0060884
0.00597907
0.00586455
0.0059263
0.00603556
0.00615211
0.00631602
0.00653514
0.00657135
0.00634411
0.00617252
0.00605532
0.00594523
0.0059493
0.0060474
0.00616189
0.00632456
0.00653248
0.00641652
0.00625495
0.00611112
0.00599326
0.00588956
0.00568327
0.00581983
0.00597008
0.00609379
0.00617383
0.00533444
0.00570239
0.00560468
0.0050747
0.00475004
0.00360717
0.0039037
0.00411634
0.00448341
0.00497641
0.00507294
0.00425677
0.0036479
0.00355461
0.00352594
0.00360915
0.00363903
0.00365677
0.00413195
0.00622481
0.0062682
0.00628628
0.00628897
0.00537837
0.00522601
0.00486811
0.00889985
0.00828631
0.00717898
0.00591888
0.00317212
0.00271899
0.00322089
0.00391708
0.00437952
0.00483392
0.00320874
0.00198772
0.00231661
0.00240216
0.00234378
0.00216651
0.00180458
0.00166582
0.00151201
0.00162726
0.00288169
0.00459848
0.0051799
0.00523513
0.00518353
0.00508319
0.00496149
0.00479208
0.00472064
0.00593061
0.00799736
0.00907569
0.00904524
0.00777161
0.00632432
0.00355658
0.0018174
0.00131561
0.00145641
0.00159824
0.00188235
0.00168237
0.00138988
0.00152115
0.00145131
0.00294578
0.00509936
0.0065246
0.00773734
0.00759908
0.00658931
0.00541184
0.00514162
0.0052628
0.00534218
0.00541104
0.00548179
0.00553032
0.00549942
0.00500543
0.00309234
0.00184593
0.00164012
0.00176366
0.00206693
0.0021962
0.00221842
0.00218745
0.00189622
0.0031358
0.00498052
0.00316705
0.00172797
0.00186713
0.0018536
0.00327002
0.00326498
0.00319432
0.00497028
0.00525532
0.00524212
0.00492517
0.00470187
0.0027834
0.00315846
0.00316893
0.00318579
0.00323817
0.00163533
0.00178246
0.00183781
0.001978
0.00173172
0.0021993
0.000569131
0.000788371
0.000915926
0.00099575
0.00107271
0.00105233
0.0020124
0.00204138
0.00194859
0.00189766
0.00240922
0.00258562
0.00264291
0.00243454
0.00224661
0.0023915
0.00239656
0.00225825
0.00213925
0.00221837
0.00222
0.0021273
0.00180939
0.0016955
0.00186149
0.00184141
0.00182655
0.00328087
0.00327522
0.00309951
0.00509331
0.00501116
0.00561305
0.00557658
0.00557007
0.00554753
0.00560713
0.00563821
0.00566175
0.00568939
0.00567832
0.00562359
0.00782871
0.00553136
0.00482667
0.002791
0.00268829
0.00189839
0.00166368
0.00195898
0.00209518
0.00227141
0.00221996
0.00234055
0.0023378
0.00248064
0.00230263
0.00204477
0.00313207
0.00334618
0.00326835
0.00333317
0.00325483
0.00323582
0.00321187
0.00316599
0.00311078
0.001852
0.00181652
0.00212711
0.00223282
0.00239915
0.00242103
0.00247351
0.00234608
0.00206351
0.00199752
0.00230026
0.00226931
0.00231321
0.00218101
0.00217218
0.00193532
0.0019843
0.00400292
0.00739324
0.00380265
0.00422403
0.00382623
0.00435201
0.00381155
0.00328695
0.00336395
0.00296286
0.00309053
0.00324185
0.00330044
0.00346867
0.00408859
0.00393646
0.00345545
0.00335522
0.00328914
0.00310118
0.00279133
0.00292426
0.00295072
0.00301404
0.00334973
0.00384246
0.00430757
0.00523386
0.00507886
0.00444971
0.00406775
0.00426554
0.00433948
0.00546263
0.00510318
0.00507338
0.00535195
0.00529918
0.00502975
0.00476624
0.00460068
0.00394962
0.00401484
0.00459573
0.00444657
0.00458214
0.0045016
0.00467909
0.00476315
0.00457215
0.00424957
0.00446564
0.0044561
0.00494934
0.00481452
0.00446548
0.00408694
0.00436666
0.00431277
0.00498286
0.00469178
0.00438844
0.00403845
0.0038676
0.00438949
0.00431
0.00488795
0.00502843
0.00503054
0.00438504
0.00428399
0.00509552
0.00490311
0.00473446
0.00493126
0.00408323
0.00420095
0.00517556
0.00528403
0.00501205
0.0041835
0.00424872
0.00364343
0.00428463
0.00533319
0.00503612
0.00412749
0.00342433
0.00479248
0.00504373
0.00533577
0.00504245
0.00549365
0.00591934
0.00482424
0.00524926
0.00686091
0.00523534
0.00607598
0.00621119
0.00624838
0.00625225
0.00627708
0.00630903
0.00664733
0.00646703
0.00410998
0.00491705
0.00477518
0.0039926
0.00339341
0.00373807
0.00402563
0.0040833
0.00418652
0.00434579
0.00427149
0.00413084
0.00604677
0.00690069
0.00705099
0.00719132
0.00707376
0.00690012
0.0064981
0.00600467
0.00498091
0.00371393
0.00231644
0.00236064
0.00251506
0.00249011
0.00215943
0.00162971
0.00107068
0.00158997
0.00164442
0.001549
0.00141213
0.00124621
0.00128909
0.00235544
0.00466638
0.00631696
0.00695348
0.00747254
0.00803162
0.00858102
0.00900252
0.00930676
0.00950962
0.00963096
0.00965162
0.00945416
0.00858699
0.00820737
0.00773846
0.00735602
0.00682843
0.00641626
0.00725005
0.007963
0.00840395
0.00889998
0.00913002
0.00903473
0.00785225
0.00761754
0.00875998
0.0107898
0.00916938
0.0115217
0.0135562
0.0105565
0.00949225
0.00948718
0.0105984
0.010802
0.0104149
0.009813
0.00912367
0.00825559
0.00868068
0.00906756
0.00944086
0.00978362
0.0107489
0.0109287
0.0108535
0.0106929
0.0104735
0.01015
0.00963661
0.008932
0.00815515
0.00740058
0.00652393
0.0047066
0.00218547
0.00249588
0.00243553
0.00267949
0.00258413
0.00117169
0.00129218
0.00130917
0.00131886
0.00124719
0.00141874
0.00205534
0.00335214
0.00240934
0.00197865
0.00136712
0.00160973
0.00269173
0.0045807
0.00517503
0.00527027
0.00532612
0.00675364
0.00789171
0.00840756
0.0087969
0.00908361
0.00896355
0.00866313
0.00813322
0.00748511
0.0072392
0.00684338
0.00649103
0.00630277
0.00610582
0.00573432
0.00451534
0.00430775
0.00448887
0.00443651
0.00424787
0.00453923
0.00470386
0.00470037
0.004753
0.00479913
0.00494141
0.00510885
0.00525474
0.00533165
0.00536065
0.0053703
0.00538205
0.00539147
0.00540857
0.00539073
0.00527299
0.0046301
0.00289442
0.00168891
0.00156102
0.00171155
0.00180987
0.00185181
0.00164408
0.00105822
0.00164465
0.00212879
0.0021837
0.00239639
0.00247271
0.00262296
0.00292247
0.00337713
0.00348453
0.00309148
0.00292766
0.00286449
0.00279173
0.00238299
0.00297072
0.0032818
0.00327622
0.00324624
0.00350924
0.00431962
0.00414826
0.00365718
0.00361516
0.00357796
0.00323129
0.00318221
0.00348136
0.00352036
0.00365334
0.00428501
0.00514061
0.00476758
0.00434128
0.00415991
0.00384059
0.00337752
0.00305252
0.00376689
0.00309478
0.00161551
0.00136885
0.00137064
0.00137315
0.00132263
0.00156768
0.00164945
0.00167251
0.00155892
0.00173021
0.00192605
0.00186582
0.00211084
0.00208148
0.00186131
0.00184211
0.00199872
0.00211545
0.00217349
0.0022255
0.00364526
0.0037581
0.002915
0.00422303
0.00486753
0.00484869
0.00514091
0.0042247
0.0037833
0.00449128
0.00519774
0.00597572
0.00471846
0.00445831
0.00456768
0.00209243
0.00110098
0.00155353
0.00192902
0.00214997
0.00208651
0.00197217
0.00166851
0.00296631
0.00304586
0.00484098
0.00543074
0.00550061
0.00546364
0.00546273
0.00594638
0.00683675
0.00784401
0.00815599
0.00803973
0.00767748
0.00700416
0.00633787
0.00630277
0.00609471
0.00593983
0.00589804
0.00513289
0.00451401
0.00482878
0.00475404
0.0049154
0.00499109
0.0050461
0.00510221
0.00519551
0.00530816
0.00541114
0.00548191
0.00552949
0.00556957
0.00561028
0.00565094
0.00569468
0.00571848
0.00566468
0.00511959
0.00306824
0.00182796
0.00166684
0.00177845
0.00209041
0.00220109
0.00236541
0.00209929
0.0011055
0.00130011
0.00225915
0.00250713
0.00232013
0.00217132
0.00213278
0.00178652
0.00323984
0.0031985
0.00502575
0.00565289
0.00573182
0.00571527
0.00567012
0.00561861
0.00556748
0.00552529
0.00549126
0.00545558
0.00540619
0.00534722
0.005292
0.00523512
0.00513916
0.00500386
0.00484976
0.00504507
0.00521553
0.00544576
0.00569191
0.00581185
0.0057053
0.00554743
0.00548159
0.00552152
0.00557279
0.005625
0.00567201
0.00569662
0.00563333
0.00530858
0.00497826
0.00315046
0.00319222
0.00156802
0.0017416
0.00200967
0.00207552
0.00225393
0.00224242
0.00176155
0.00137298
0.00154944
0.00144902
0.00259029
0.0028492
0.00316143
0.00313074
0.0016982
0.00174184
0.00180994
0.00204117
0.00189679
0.00183412
0.00455041
0.00435358
0.00455248
0.00558898
0.0048134
0.00332042
0.00363911
0.00506374
0.00534208
0.00322809
0.00242013
0.00268555
0.00340204
0.00500831
0.00507225
0.00482113
0.00479313
0.00349692
0.00429783
0.00517448
0.00503471
0.00392157
0.00270197
0.00201266
0.000976055
0.00185656
0.00158727
0.00389457
0.00431091
0.00426226
0.00466241
0.00495203
0.00500256
0.00486253
0.00430932
0.00439527
0.00443925
0.00506047
0.00508493
0.0043007
0.00362862
0.00294466
0.00297165
0.00302993
0.00335823
0.00420509
0.0039618
0.00347211
0.00336637
0.00329318
0.00309706
0.00279431
0.00245054
0.00246785
0.00229728
0.00222348
0.00350551
0.00466686
0.00550381
0.00566211
0.00571931
0.00563126
0.00559099
0.00543062
0.00534744
0.00464525
0.00593224
0.00627008
0.00605116
0.00609669
0.00613548
0.00618295
0.00618451
0.00606852
0.00521351
0.0031128
0.00203297
0.00229458
0.00247639
0.00232498
0.0023122
0.00246483
0.00233923
0.00205488
0.00332952
0.00325463
0.00520494
0.00589571
0.00602149
0.00602795
0.00600312
0.00598242
0.00598971
0.00630467
0.00616241
0.0062507
0.00658666
0.00659573
0.00667586
0.00626792
0.0061879
0.00613644
0.0061017
0.00604548
0.00589637
0.00521721
0.00505836
0.00574507
0.00592267
0.00600168
0.00605637
0.00612134
0.00620619
0.00645137
0.00663341
0.00670429
0.00643185
0.00632925
0.00618142
0.0059724
0.005923
0.00591358
0.00590915
0.00588111
0.00572916
0.00504262
0.00324192
0.00332185
0.00197591
0.00198857
0.00229025
0.0024051
0.00236186
0.00218701
0.00213216
0.00367826
0.00418719
0.00445061
0.00479908
0.0045849
0.00455829
0.00520958
0.00504143
0.0044917
0.00467521
0.00419262
0.00399181
0.00386987
0.00389356
0.00203868
0.00220012
0.00229522
0.00225751
0.00215869
0.00192564
0.00176587
0.00322325
0.00319971
0.0031586
0.00187742
0.00183606
0.00216309
0.00210039
0.00192117
0.00163763
0.00179557
0.00277411
0.00310308
0.00481235
0.00498529
0.00533511
0.00570513
0.005845
0.00588283
0.00590605
0.00593182
0.00598815
0.00605458
0.00607393
0.00607142
0.00611904
0.0061078
0.00611018
0.00607969
0.00604394
0.00600153
0.00595563
0.00587957
0.00572267
0.00534699
0.00497865
0.00561316
0.00566525
0.005771
0.00587992
0.0059259
0.00593229
0.00590938
0.00586463
0.00581139
0.00575101
0.00574929
0.00592177
0.00596489
0.00599441
0.00597588
0.00595417
0.00594668
0.00591964
0.00587689
0.00576856
0.00565979
0.00561402
0.00552004
0.0056671
0.00573253
0.0057418
0.00579687
0.0058854
0.00591161
0.00591192
0.00586883
0.00583248
0.00578453
0.00570508
0.00559735
0.00524809
0.00532052
0.00541369
0.00553608
0.00565406
0.00574951
0.00580374
0.00580898
0.00575688
0.00572159
0.00572305
0.00567445
0.00569947
0.00572518
0.0056954
0.00569067
0.0056927
0.0056244
0.00550325
0.00533576
0.00515964
0.00501663
0.00494824
0.00483238
0.00521535
0.0053712
0.00550788
0.00562778
0.00573488
0.00584153
0.00587242
0.00585884
0.00579372
0.00575677
0.00575557
0.00570017
0.00569696
0.00575041
0.0057522
0.00578272
0.00583776
0.00582403
0.00574818
0.00554684
0.00535049
0.00517863
0.00501273
0.00483401
0.00481109
0.00488986
0.00481487
0.00487183
0.00503716
0.00524933
0.00543467
0.00555659
0.00559701
0.00563408
0.00568682
0.00568198
0.00565069
0.00563259
0.00556132
0.00549857
0.00542204
0.00525859
0.00505384
0.00487704
0.00482817
0.00493121
0.0050269
0.0049348
0.00456976
0.00475456
0.00493065
0.00510356
0.00534743
0.00562745
0.00574643
0.0057891
0.00576108
0.0057393
0.00573659
0.00568591
0.00566757
0.00571439
0.00571824
0.00574049
0.00577589
0.00574369
0.00564831
0.00530646
0.00489526
0.00469647
0.00457787
0.00442262
0.00495887
0.00506347
0.00494014
0.00485618
0.0049857
0.00513264
0.00528547
0.005388
0.00543007
0.00549068
0.0055703
0.00560928
0.00555337
0.00548729
0.00540655
0.00536555
0.00536754
0.00534549
0.00524886
0.0051312
0.00498856
0.00515555
0.00525309
0.00515819
0.00466442
0.00474156
0.00486429
0.00493612
0.00532259
0.00565358
0.00572564
0.00572443
0.0056874
0.00566346
0.00566363
0.00563379
0.00557805
0.00556862
0.0055646
0.00563176
0.00572
0.00577624
0.00580735
0.00556161
0.00510105
0.00501797
0.00479812
0.0047001
0.00522755
0.00528634
0.00516411
0.00505211
0.0053
0.00540342
0.00542936
0.00540403
0.00534405
0.00530517
0.00537383
0.00548267
0.0054008
0.00504905
0.00473739
0.00489879
0.00494053
0.00493097
0.00486612
0.00475458
0.00450712
0.00503444
0.00554835
0.00558892
0.00503709
0.00504529
0.00489593
0.00456335
0.00501118
0.00524217
0.00528929
0.00526225
0.00517674
0.00497751
0.00525662
0.00550254
0.00545489
0.00493841
0.00320507
0.00324885
0.00327142
0.00327387
0.00323116
0.00321909
0.00317223
0.00314782
0.003075
0.00300079
0.00293024
0.0031238
0.0032891
0.00351309
0.00353155
0.00362431
0.00346956
0.00328501
0.00306883
0.00239222
0.00303544
0.00362139
0.00384907
0.00414085
0.00420087
0.00483795
0.00508462
0.00521476
0.00511022
0.0041012
0.00347886
0.00278037
0.00180841
0.00112696
0.00132278
0.00137582
0.00144323
0.00176377
0.00328542
0.0016715
0.00232174
0.00181363
0.00312961
0.00163787
0.00102589
0.000679128
0.000862923
0.00102173
0.00103013
0.000989359
0.00082626
0.000651637
0.000666178
0.00062305
0.000662289
0.000598334
0.000685784
0.00064154
0.000894586
0.00134014
0.00152338
0.00155765
0.00125926
0.00142043
0.00118674
0.0013689
0.00122235
0.0013323
0.00127788
0.00156303
0.00171292
0.00163988
0.00164439
0.00143892
0.00100629
0.00116639
0.000916227
0.00110005
0.00084159
0.00108659
0.000931698
0.00121053
0.00124782
0.00124417
0.0011979
0.000915165
0.00108512
0.000854207
0.00104559
0.000855891
0.000908444
0.000755624
0.00109393
0.00111381
0.00102715
0.00109112
0.00122345
0.00131218
0.00144855
0.00137536
0.00157166
0.00152274
0.00154987
0.00146805
0.00142736
0.0013948
0.00139768
0.00137478
0.0013824
0.00142704
0.0014293
0.001435
0.00148051
0.00145911
0.00142424
0.00140329
0.00124676
0.00100608
0.00175302
0.00180779
0.00183461
0.00183422
0.00179272
0.00177261
0.00171106
0.00169476
0.0016413
0.0016101
0.00153857
0.00148002
0.00141312
0.00158908
0.000889211
0.00100968
0.00106595
0.00109763
0.00111966
0.00112979
0.00113795
0.00113154
0.00111744
0.00108978
0.00108035
0.00105022
0.00134364
0.00152823
0.00159729
0.00161555
0.00151408
0.00144166
0.00315264
0.00381628
0.00580417
0.00593318
0.00445415
0.00444107
0.00153752
0.00162169
0.00110857
0.00155771
0.00160604
0.00158959
0.0015016
0.00108309
0.00162549
0.00113222
0.0015252
0.00114168
0.00141179
0.00115774
0.00164092
0.00209016
0.00201572
0.0018254
0.00124105
0.00103221
0.00102856
0.000881383
0.000967267
0.000802278
0.000988681
0.00083861
0.00124801
0.00177663
0.00196771
0.00200771
0.00158339
0.00218466
0.00164252
0.00237816
0.00188786
0.00232826
0.00186838
0.00216273
0.00267593
0.00268776
0.00262381
0.00211456
0.00169456
0.00190183
0.00168488
0.00194028
0.00280519
0.00183836
0.00278872
0.00115207
0.00157019
0.00161834
0.00159605
0.00150484
0.00101388
0.002583
0.00136573
0.00243309
0.00157413
0.00252827
0.00183004
0.00241639
0.00288772
0.00301527
0.00300072
0.00245001
0.00220368
0.00227011
0.00181124
0.00217364
0.0016266
0.00236517
0.00135024
0.00175761
0.00194601
0.00204926
0.0020577
0.00169152
0.00334013
0.00209711
0.00316549
0.00220091
0.00282
0.00226012
0.00247279
0.00292013
0.00290191
0.00287751
0.00244
0.00197416
0.00260567
0.00185877
0.055386
0.128007
0.0509466
0.129418
0.0586137
0.0832131
0.0820081
0.0821924
0.0825123
0.061995
0.135179
0.159632
0.166443
0.168445
0.167171
0.270128
0.220233
0.330879
0.214449
0.126159
0.0546667
0.0753822
0.194657
0.321532
0.482554
0.612376
0.41733
0.432038
0.275709
0.271876
0.255998
0.20712
0.126949
0.0636844
0.01091
0.0119166
0.0170569
0.0227032
0.0178593
0.010938
0.00216353
0.00223346
0.00228481
0.00231751
0.00231103
0.00226354
0.00230063
0.00217326
0.00204385
0.00228638
0.00249251
0.0026798
0.00315799
0.00348968
0.00314557
0.00344688
0.00365231
0.00382011
0.00395948
0.0041668
0.00439997
0.00460381
0.00461415
0.00422715
0.00360259
0.00292904
0.00245992
0.00232988
0.0021876
0.00192912
0.0017645
0.00165109
0.00159713
0.00157509
0.00161906
0.00176985
0.00190103
0.00194708
0.00190918
0.00187421
0.00184373
0.00164181
0.00191973
0.00263336
0.00265336
0.00454598
0.00523815
0.00534719
0.00535485
0.00474552
0.00303114
0.00303805
0.00305374
0.00311258
0.0031251
0.0031344
0.00313154
0.00312208
0.00310422
0.00307146
0.00305466
0.00300538
0.00296327
0.00285655
0.00286121
0.00289731
0.00292634
0.00287775
0.00288906
0.00282917
0.00370181
0.00493761
0.0055545
0.00580377
0.00601917
0.00584203
0.00810032
0.00693725
0.00487157
0.00478829
0.00472854
0.00561117
0.00564857
0.00509609
0.0051166
0.00467538
0.00291991
0.002915
0.00291698
0.00312119
0.00318292
0.00328834
0.00331781
0.00334156
0.00335683
0.00334726
0.00334438
0.00331256
0.00328974
0.0032141
0.00318907
0.00317819
0.00175224
0.00191261
0.0019847
0.00199858
0.00202893
0.00201738
0.00200689
0.00198314
0.00196861
0.00193593
0.00189895
0.00184218
0.00173153
0.00157682
0.0017348
0.00294213
0.00294071
0.00479033
0.0053981
0.00543882
0.00606083
0.00575319
0.00544904
0.00584572
0.00526617
0.00522175
0.00473275
0.00294043
0.00298024
0.00176991
0.00175507
0.00205309
0.00199708
0.00213445
0.00219306
0.00219873
0.00222858
0.00225637
0.00229174
0.00234877
0.00236486
0.00232604
0.00231811
0.00218297
0.00188617
0.00190823
0.00224988
0.00236043
0.00219298
0.00215641
0.00214078
0.00208917
0.00204984
0.00201248
0.00203922
0.00219637
0.00219366
0.00215405
0.00204953
0.00199515
0.00172861
0.00166946
0.00291711
0.00296168
0.00488896
0.00499774
0.00496538
0.00572895
0.00640079
0.00727625
0.00621238
0.00504547
0.00524175
0.00599313
0.00446068
0.00374115
0.00222238
0.0016732
0.00208802
0.00192979
0.00201218
0.00208488
0.00185139
0.00198988
0.00183954
0.00167167
0.00166203
0.00166007
0.00170062
0.00171784
0.00174872
0.00175293
0.00179489
0.0017907
0.00179506
0.00181681
0.00182505
0.00201633
0.00218975
0.00184371
0.0015635
0.0015245
0.00143975
0.00137126
0.00140487
0.00137143
0.00136305
0.00133815
0.00131546
0.00125546
0.0013083
0.00138849
0.00162456
0.0015547
0.00125644
0.00112245
0.000767069
0.000782574
0.000787981
0.000812074
0.000820986
0.000831886
0.000835981
0.000849516
0.000852174
0.000856469
0.000856141
0.000876802
0.000873791
0.000863636
0.000857151
0.000861219
0.000865039
0.000864335
0.0012657
0.00140913
0.00153812
0.00182642
0.00214841
0.00184968
0.00156831
0.00135269
0.000869605
0.000882616
0.000898635
0.00090694
0.00092613
0.000943651
0.000963124
0.000975398
0.000984555
0.000994157
0.00100429
0.00100829
0.00100575
0.000986269
0.000974791
0.000999642
0.00109893
0.00115662
0.00123066
0.00125865
0.00128249
0.00129437
0.00128836
0.00130193
0.00128669
0.00128465
0.00126278
0.00125354
0.00124464
0.0012335
0.00121952
0.00118508
0.00117352
0.00123482
0.00209012
0.00273249
0.00314284
0.003459
0.00320099
0.00260057
0.00272837
0.00479493
0.00454212
0.00267856
0.00250237
0.00231117
0.00202146
0.0017695
0.00214093
0.00244267
0.0026707
0.00287065
0.00305371
0.0031783
0.00333891
0.00354847
0.00391789
0.00396389
0.00361517
0.0029279
0.00247602
0.00231022
0.00223113
0.00209511
0.00194663
0.00199579
0.00201046
0.00195091
0.00187699
0.00185638
0.00188742
0.00192769
0.00190481
0.00190415
0.00170131
0.00170064
0.00290621
0.00295909
0.00455207
0.00479661
0.00484372
0.00311305
0.00307085
0.00179353
0.00166602
0.0018176
0.00188716
0.00189134
0.00189944
0.00189041
0.00185763
0.00183383
0.00180583
0.00178312
0.00176274
0.00172748
0.00165977
0.00153316
0.00167007
0.00187233
0.00195632
0.00197851
0.00198929
0.00202064
0.0020723
0.00211325
0.00220883
0.00221764
0.00221642
0.00222396
0.00207818
0.00214279
0.00181333
0.00181034
0.00313823
0.00312906
0.00179744
0.00212247
0.00213741
0.00211364
0.00227606
0.00208271
0.00201696
0.00200722
0.00192237
0.00187731
0.00181671
0.00178062
0.00181498
0.00193012
0.00186795
0.00165555
0.0015939
0.00178897
0.00172237
0.00142896
0.00122091
0.00118754
0.00113688
0.00110615
0.00115954
0.00120137
0.00122521
0.00125536
0.00126425
0.00131949
0.00128346
0.00134619
0.00142761
0.00149246
0.00177004
0.00191855
0.00173319
0.00170011
0.00167908
0.00167807
0.00168362
0.0016143
0.00160976
0.00157392
0.0015562
0.00150901
0.00148777
0.00146075
0.00146539
0.0014806
0.00162765
0.00418395
0.00533584
0.00555719
0.00949942
0.00383851
0.00391763
0.00769789
0.00317747
0.00477966
0.0051203
0.00535169
0.00558801
0.00511395
0.0065146
0.00454086
0.00506029
0.00526419
0.00459905
0.00173707
0.00200092
0.00229444
0.00203763
0.00179895
0.00122504
0.00131935
0.00136174
0.00139641
0.00141861
0.00144372
0.00147042
0.00149557
0.00151309
0.0015131
0.0014667
0.00141685
0.00130243
0.00126437
0.00131315
0.00136356
0.00119707
0.00112705
0.00114017
0.00115865
0.00116895
0.00117094
0.00118212
0.00118501
0.00120277
0.00119297
0.00120177
0.00118099
0.00119103
0.00117588
0.00113613
0.00107986
0.00098464
0.000961545
0.00138512
0.00147522
0.00154967
0.00175954
0.00203269
0.00216958
0.00194505
0.00179439
0.00172246
0.00191063
0.0019128
0.0034826
0.00668387
0.00299048
0.00334662
0.0097623
0.0038823
0.00301437
0.00305931
0.00309116
0.00309571
0.00179864
0.00212994
0.00206469
0.00207423
0.00175957
0.00147768
0.00132539
0.00118498
0.000803863
0.000801335
0.000807378
0.000819958
0.000823906
0.000788598
0.000788508
0.000784019
0.00078228
0.000765618
0.000760977
0.000747397
0.000739154
0.000719585
0.000709022
0.000690548
0.000687562
0.000721142
0.000805299
0.000974079
0.0010797
0.00122998
0.00125087
0.00139922
0.00345515
0.00400474
0.00552277
0.00547994
0.00864004
0.00540016
0.00407853
0.00368098
0.00538711
0.00556801
0.00516113
0.0069885
0.00483389
0.00320838
0.00491443
0.00410356
0.00476597
0.00470532
0.00500238
0.00794737
0.00834275
0.00234306
0.00208757
0.00219477
0.00249097
0.00295849
0.00272895
0.00310698
0.00311396
0.00241206
0.00151947
0.00483599
0.00584328
0.00473036
0.00570752
0.00872795
0.00350111
0.00341345
0.00301931
0.00251985
0.00228968
0.00225981
0.0025205
0.00301639
0.00754391
0.00807536
0.00750645
0.00751075
0.0068079
0.00742768
0.00924589
0.0091866
0.00812442
0.0075985
0.00789413
0.00495161
0.00302808
0.00351961
0.0039062
0.00521342
0.00537724
0.0113385
0.00386102
0.00425751
0.00432404
0.00577704
0.00560484
0.0098761
0.00420511
0.00452765
0.00596583
0.00797746
0.0146571
0.00538005
0.00565071
0.0081183
0.00824415
0.00753735
0.00545613
0.00493538
0.00536786
0.00404554
0.00395596
0.0033736
0.0049766
0.00668974
0.00530543
0.00515132
0.0043756
0.00391699
0.00399114
0.00414647
0.00344603
0.00339627
0.00391329
0.00292501
0.002831
0.00297813
0.000828919
0.000424744
0.000434105
0.000445425
0.000454616
0.000464126
0.000471023
0.000479274
0.000482901
0.000483363
0.000484706
0.000512456
0.000507552
0.00049149
0.000446276
0.000509133
0.000807962
0.000808391
0.000508439
0.000448182
0.000804344
0.00128142
0.00151064
0.00178656
0.00180825
0.00156056
0.00135323
0.000833242
0.000820089
0.000497007
0.000580498
0.000630384
0.000559213
0.000624208
0.000578629
0.000612778
0.000619478
0.000573343
0.000569997
0.000572142
0.000567844
0.000557679
0.000545343
0.000530303
0.000518644
0.000512602
0.000508373
0.000498473
0.000412505
0.000385243
0.000465591
0.000744956
0.000745802
0.000697809
0.000655752
0.000619482
0.000602405
0.000597224
0.000593613
0.000603962
0.000623406
0.00062895
0.000634662
0.00068374
0.00066185
0.000706869
0.000663527
0.000708782
0.000665138
0.000611898
0.000513772
0.000530047
0.00085523
0.000864343
0.00139604
0.00159648
0.00180999
0.00181886
0.00203078
0.00213938
0.00181236
0.00188165
0.00215571
0.00200704
0.00178823
0.00179553
0.00161477
0.00161684
0.00143286
0.000895785
0.000883682
0.000554893
0.000538947
0.000642618
0.000631463
0.000702239
0.000751649
0.000751883
0.00074948
0.000731345
0.000724667
0.000637257
0.000624566
0.000625412
0.000606623
0.000602858
0.000629703
0.000689411
0.000811181
0.000981752
0.0010679
0.00110306
0.00105695
0.000945572
0.000700591
0.000631072
0.0010961
0.00113476
0.00205107
0.0048784
0.00229515
0.00430179
0.00310251
0.000769029
0.000856814
0.00109244
0.00122392
0.0013218
0.00137953
0.00126283
0.00105497
0.000794184
0.000655625
0.000975609
0.000843481
0.000951141
0.000830396
0.00107472
0.00124239
0.00120167
0.0012105
0.0010228
0.000832926
0.000882096
0.000791607
0.000872452
0.000730565
0.000878912
0.000793438
0.000996976
0.00100632
0.000985363
0.000933962
0.000711107
0.000746135
0.000625905
0.0006791
0.000609817
0.000630398
0.000597325
0.000696607
0.000802752
0.000770497
0.000767541
0.000630713
0.000494328
0.000546061
0.00047252
0.000534854
0.000415875
0.000503695
0.000422259
0.00054674
0.000563853
0.000567363
0.00056474
0.00046049
0.000541703
0.000661765
0.0006939
0.000699186
0.000665437
0.000513275
0.000793916
0.000715541
0.00087349
0.000755031
0.000826917
0.000752837
0.000877443
0.00112383
0.00117348
0.00118125
0.000958514
0.000952573
0.00174007
0.0966131
0.00156527
0.00185017
0.00190808
0.00190136
0.00157193
0.0015333
0.00189985
0.00140477
0.00199008
0.00125321
0.00212344
0.000809279
0.00123021
0.00132081
0.00131804
0.00122502
0.000822492
0.00243355
0.118878
0.307845
0.33428
0.333738
0.32075
0.143789
0.501179