/*--------------------------------*- C++ -*----------------------------------*\
| =========                 |                                                 |
| \\      /  F ield         | OpenFOAM: The Open Source CFD Toolbox           |
|  \\    /   O peration     | Version:  v2012                                 |
|   \\  /    A nd           | Website:  www.openfoam.com                      |
|    \\/     M anipulation  |                                                 |
\*---------------------------------------------------------------------------*/
FoamFile
{
    version     2.0;
    format      ascii;
    class       volScalarField;
    location    "805";
    object      k;
}
// * * * * * * * * * * * * * * * * * * * * * * * * * * * * * * * * * * * * * //

dimensions      [0 2 -2 0 0 0 0];


internalField   nonuniform List<scalar> 
18258
(
0.0333817
0.015742
0.0122828
0.0101305
0.0109732
0.0139616
0.0167556
0.0211178
0.0255348
0.031477
0.0385519
0.0474914
0.053501
0.0606631
0.0636405
0.061918
0.0520752
0.0473349
0.0565598
0.0810343
0.0710329
0.0513723
0.062269
0.0614624
0.0722579
0.0763573
0.0601326
0.0548897
0.0494591
0.0437716
0.0372371
0.0231862
0.0240584
0.028791
0.0320181
0.0357286
0.0385883
0.0409247
0.0425764
0.0433937
0.043302
0.0420033
0.0393079
0.0352569
0.0297857
0.0237897
0.0233453
0.0238528
0.0295667
0.03516
0.040611
0.0462077
0.0546227
0.0446955
0.0290544
0.0392093
0.0476863
0.0545791
0.059009
0.0614603
0.0622256
0.0613133
0.0590234
0.0557631
0.0518011
0.0474618
0.043445
0.0394614
0.03422
0.0309615
0.026854
0.0235132
0.0210765
0.0193671
0.0182509
0.017245
0.0163773
0.0156422
0.0150253
0.0146001
0.0145095
0.0145375
0.0146399
0.0147379
0.0150849
0.0127347
0.0109598
0.0104925
0.0102348
0.00957888
0.00811402
0.0106641
0.0117649
0.0121795
0.0124477
0.0136287
0.0147919
0.0143677
0.0136434
0.0125345
0.0124917
0.0169778
0.0177808
0.022816
0.0216123
0.0167649
0.0149088
0.0166896
0.0195305
0.0225595
0.0192624
0.0192462
0.0179517
0.0170394
0.0149019
0.0149502
0.0144435
0.0141361
0.0150638
0.017813
0.0172189
0.0173232
0.0185476
0.0188739
0.0201037
0.0211221
0.0204698
0.0202861
0.0164399
0.0163396
0.0173808
0.017254
0.0177349
0.0202204
0.0202782
0.0206273
0.0208456
0.023628
0.0236464
0.0236089
0.0236997
0.0245218
0.0235708
0.0231625
0.0231937
0.0232297
0.021067
0.0208425
0.0204753
0.0205127
0.018355
0.0176183
0.0183482
0.0193278
0.0213044
0.0250615
0.031501
0.040428
0.0505288
0.0607751
0.068548
0.0729055
0.0772704
0.0767268
0.0774228
0.0795161
0.0798818
0.0787357
0.0768791
0.0747101
0.0717533
0.0671134
0.0666265
0.0589702
0.0480844
0.0334045
0.038898
0.0417329
0.0444865
0.0447987
0.0452874
0.044085
0.0423338
0.0387553
0.0336461
0.0247417
0.025807
0.0302435
0.0348967
0.0386775
0.042835
0.0464521
0.0482843
0.0499734
0.0592867
0.0570655
0.0551811
0.0568993
0.0584435
0.0616338
0.0600347
0.0561103
0.0501824
0.0518542
0.0449818
0.033658
0.0314535
0.0293456
0.0270362
0.0378491
0.0496468
0.0612063
0.0675342
0.0736798
0.0785048
0.0825277
0.0870471
0.0816125
0.0764767
0.0577711
0.0838562
0.0658104
0.0505845
0.0412944
0.0333893
0.0313251
0.0341739
0.0342734
0.0324896
0.0279079
0.0220224
0.0230389
0.0357676
0.0455239
0.0535206
0.0551324
0.05982
0.0621917
0.0569263
0.0574996
0.0466504
0.0478061
0.0514121
0.0460405
0.0437803
0.0351751
0.0274836
0.0336153
0.0500053
0.0685764
0.0844674
0.0995094
0.0660335
0.0502342
0.0411686
0.034352
0.0331543
0.0377681
0.0437004
0.0528444
0.0412251
0.0371663
0.0336634
0.0307987
0.0257332
0.0274619
0.0286473
0.0269096
0.0496783
0.057385
0.0611051
0.0835735
0.0924577
0.108429
0.107144
0.0926793
0.0963389
0.0690875
0.0688202
0.0861811
0.0682486
0.0513715
0.0616442
0.0745824
0.0884512
0.101662
0.113008
0.122109
0.123772
0.11224
0.0813651
0.0468509
0.0213144
0.0186479
0.0180861
0.0173789
0.0164942
0.0157123
0.0151033
0.0121653
0.00952108
0.00928469
0.00946127
0.00940527
0.00827192
0.00951716
0.0115775
0.0137724
0.0152823
0.0164929
0.0175141
0.0182495
0.0188387
0.0192377
0.0195346
0.0198025
0.0200384
0.0202249
0.0203637
0.0204555
0.0204992
0.0204866
0.0204111
0.020271
0.0200648
0.0197763
0.0193022
0.0177716
0.0159152
0.0150829
0.0151412
0.0148907
0.014587
0.0119511
0.012328
0.014346
0.0149803
0.0177755
0.0198139
0.0215192
0.0229752
0.0245041
0.0252821
0.0261125
0.02638
0.0264348
0.0263369
0.0261898
0.0259688
0.0256703
0.024607
0.0213085
0.0249133
0.0273098
0.0289947
0.0303433
0.0312419
0.0313422
0.0285997
0.0360595
0.0385315
0.0394382
0.0397041
0.038887
0.0368839
0.0344465
0.032401
0.0308965
0.0297813
0.027642
0.0253959
0.0230865
0.0206694
0.0174437
0.018711
0.0205489
0.0207596
0.0204695
0.0215155
0.0227758
0.0211229
0.0190366
0.0161401
0.0151398
0.0146421
0.0144468
0.014844
0.0145076
0.0144146
0.0149184
0.0179417
0.0190376
0.0207414
0.0239963
0.0228604
0.0209129
0.0280852
0.0297041
0.0301525
0.030498
0.0304071
0.0296526
0.0265664
0.0251093
0.0264963
0.0250385
0.0244074
0.0244962
0.0241283
0.0222647
0.0245669
0.0265685
0.0281586
0.0290055
0.0302438
0.0317964
0.0339542
0.035745
0.0374026
0.0384071
0.038388
0.0378569
0.0380421
0.0386939
0.038407
0.0367198
0.0346532
0.0325699
0.0296172
0.0294161
0.0313843
0.0329392
0.0345919
0.0363591
0.0356673
0.0337888
0.0321701
0.0307564
0.0290508
0.0289236
0.0305953
0.0320331
0.0337646
0.0358755
0.0360487
0.0339142
0.0321021
0.0306032
0.028905
0.0288676
0.0305636
0.0320711
0.0337896
0.0356715
0.0348003
0.033334
0.0318156
0.030352
0.0286915
0.0282503
0.0298514
0.0312308
0.0325418
0.0336043
0.0319317
0.0313433
0.0302749
0.0288873
0.0271304
0.0258731
0.0263823
0.0277702
0.027881
0.0283592
0.0294767
0.0293225
0.0290398
0.0289946
0.0287131
0.0264668
0.0268742
0.0269232
0.0276154
0.0309164
0.0304395
0.0331194
0.0355396
0.033229
0.0317341
0.0281544
0.0337233
0.0337702
0.0347372
0.0335654
0.0237769
0.0219186
0.0229184
0.0244556
0.0261008
0.0254158
0.0226555
0.0225961
0.0232054
0.0226245
0.0210688
0.01808
0.0135807
0.0135899
0.0135831
0.0143194
0.0171283
0.0187225
0.0188302
0.0186718
0.0183666
0.0178928
0.0171751
0.0161037
0.0156299
0.0245507
0.0443072
0.0563264
0.0557703
0.0424243
0.0354685
0.0260926
0.0178535
0.0104438
0.0107094
0.0113502
0.013719
0.011568
0.0104662
0.0143927
0.0117553
0.0196499
0.0228521
0.030283
0.0412728
0.0397516
0.03009
0.0204098
0.0184727
0.0193415
0.0198548
0.0202455
0.0206302
0.021019
0.0214422
0.0219573
0.0216392
0.0189975
0.0167516
0.0168811
0.0174532
0.0199604
0.0213375
0.0221271
0.0217898
0.0220325
0.0237619
0.0225104
0.0212865
0.0210831
0.0203809
0.0232306
0.0235749
0.0229393
0.022946
0.0232206
0.0230991
0.023233
0.0240438
0.0198411
0.0219481
0.0224959
0.0227786
0.0235741
0.0190647
0.0192523
0.0193137
0.0181528
0.0149396
0.0180534
0.0168081
0.0121774
0.0134937
0.0134504
0.0140592
0.0143844
0.0171195
0.0162763
0.0155612
0.016331
0.0223186
0.0231296
0.0233108
0.0206699
0.0194258
0.0219201
0.0225074
0.0220437
0.0211574
0.0213272
0.0203825
0.018473
0.0177525
0.0178897
0.0193064
0.0201056
0.0201719
0.0237969
0.0232936
0.0217249
0.0227248
0.0233205
0.0229104
0.0228017
0.0227504
0.0223822
0.021957
0.022368
0.0225546
0.0226061
0.0221618
0.0224158
0.0250605
0.0214854
0.0212947
0.0202075
0.0195471
0.0179134
0.0176577
0.0177558
0.0177154
0.0176203
0.0167809
0.0186444
0.0179186
0.020054
0.0216716
0.0228274
0.0240049
0.0241572
0.023727
0.0236882
0.0233022
0.023269
0.0227154
0.0218646
0.0212772
0.0204956
0.0192831
0.0192752
0.0192255
0.0190811
0.0204904
0.0203888
0.0219599
0.0230863
0.0228004
0.0218294
0.021721
0.0205387
0.0205161
0.0215626
0.0224574
0.0227079
0.0235764
0.0261249
0.0237629
0.0253192
0.0260136
0.0266786
0.0260646
0.0249639
0.0257156
0.0240505
0.0229358
0.0242581
0.0249824
0.0262453
0.0270402
0.0250618
0.0240329
0.0228339
0.021969
0.0209792
0.0184511
0.0190681
0.0198616
0.0210957
0.0229122
0.02564
0.0283834
0.0313082
0.0313668
0.0290644
0.0273618
0.0321719
0.0316421
0.0366224
0.0372288
0.0330971
0.0302834
0.0273651
0.026943
0.0260227
0.0254869
0.0242027
0.0254544
0.025884
0.0249354
0.0274129
0.0289911
0.0333267
0.0389105
0.0355809
0.0327322
0.0377701
0.0366702
0.0426592
0.036436
0.0347645
0.0286326
0.0332255
0.0355672
0.0433426
0.0339319
0.0297432
0.0295053
0.0308167
0.0383139
0.0368671
0.0394834
0.0446305
0.0439659
0.039066
0.0358346
0.0416265
0.031659
0.0370758
0.0390897
0.0324464
0.0322279
0.0391221
0.0397386
0.0398872
0.0337808
0.0330745
0.0250591
0.0336339
0.0401262
0.0400303
0.0332339
0.0259994
0.0359356
0.0315783
0.0313832
0.0313789
0.0269843
0.0269183
0.0262061
0.0264639
0.0271833
0.0247328
0.0255461
0.0258134
0.0259842
0.0261243
0.026327
0.026684
0.0273446
0.0281035
0.0229514
0.0244263
0.0230371
0.0216571
0.0202635
0.0240511
0.0265259
0.028328
0.0297782
0.0309128
0.0314043
0.030023
0.037975
0.0396812
0.0413381
0.0415089
0.0402859
0.037646
0.0342176
0.0307316
0.0284472
0.0271047
0.0245592
0.0224343
0.0203704
0.0182228
0.0154378
0.0141429
0.0128331
0.0115178
0.0111979
0.010669
0.0100729
0.00937714
0.00898651
0.0114415
0.0193058
0.0280211
0.032949
0.0381772
0.0446805
0.0514011
0.0569411
0.0610098
0.0638146
0.0655045
0.0658966
0.0631601
0.0523698
0.0474258
0.0426307
0.0377741
0.0328647
0.0321549
0.041228
0.0495013
0.0565213
0.0628693
0.067022
0.0654208
0.0499716
0.04686
0.0623655
0.0897661
0.080452
0.103341
0.119928
0.0795931
0.0649463
0.0642339
0.0795117
0.0819682
0.0752874
0.0662793
0.0564023
0.045499
0.0504452
0.0551394
0.0595907
0.0640479
0.077323
0.0799876
0.0788927
0.076583
0.0734322
0.068868
0.0619162
0.0530473
0.044154
0.0367162
0.0299398
0.0202932
0.0124268
0.013724
0.0129606
0.0158356
0.0148663
0.00975232
0.0100593
0.0102749
0.0102272
0.0100335
0.0100751
0.0114772
0.0182892
0.0149241
0.0135179
0.0116287
0.0144569
0.016392
0.0183866
0.0189879
0.0190931
0.0194841
0.0315688
0.0433989
0.0495167
0.054392
0.0581282
0.0566926
0.0530282
0.0467573
0.0396118
0.0369746
0.0331118
0.0298108
0.0281779
0.0291412
0.0256576
0.016081
0.0146085
0.0156651
0.0153789
0.0143991
0.0163404
0.0175601
0.0183358
0.0189629
0.0194323
0.0197943
0.0200536
0.020227
0.0203198
0.0203501
0.0203323
0.0202711
0.0201652
0.0200114
0.0197987
0.0194966
0.0189784
0.0172588
0.0154102
0.0146936
0.0147781
0.0145469
0.0141831
0.0123023
0.0125242
0.0143856
0.0149876
0.0145994
0.01519
0.0156624
0.0168796
0.0190683
0.0212131
0.0230515
0.0217355
0.0210758
0.021035
0.0206293
0.0173999
0.020695
0.0236426
0.0241679
0.0244548
0.0252799
0.0268889
0.0278316
0.0268859
0.0263646
0.0258227
0.0226599
0.0242739
0.0278861
0.0283106
0.0290092
0.0296211
0.0302122
0.0314848
0.0308407
0.0299214
0.0293104
0.0264065
0.0255248
0.0316989
0.0206114
0.0142421
0.0101556
0.0107381
0.0108862
0.010506
0.0112538
0.0117833
0.0120375
0.0114775
0.0125476
0.0134546
0.0127755
0.0153204
0.0146017
0.0135634
0.0130797
0.0139854
0.014845
0.0152679
0.0162115
0.02626
0.0269895
0.0226473
0.0290766
0.0316675
0.0290144
0.0318403
0.0294681
0.0280752
0.030838
0.0342941
0.0356523
0.033305
0.0318522
0.0313026
0.0208211
0.0201303
0.0194232
0.0175725
0.0178282
0.017366
0.0169224
0.0165247
0.0191145
0.0205046
0.0217491
0.0214439
0.0211311
0.0206977
0.0207455
0.0246904
0.0327762
0.0432932
0.0469153
0.0456652
0.0417047
0.0347371
0.0284152
0.0280535
0.0262609
0.0251008
0.0249018
0.0190337
0.0148782
0.0173377
0.0173227
0.0183923
0.0190699
0.0196041
0.0200329
0.0203936
0.0207086
0.0210166
0.0213058
0.0215606
0.0217763
0.0219619
0.022116
0.0222792
0.0224737
0.0227386
0.0229489
0.0212788
0.0186266
0.0172714
0.0171234
0.0178426
0.0187462
0.0198695
0.0191017
0.0153809
0.0154724
0.0218782
0.0223564
0.0209926
0.0195678
0.0197764
0.0189316
0.0227851
0.0225979
0.0234323
0.0232277
0.0229416
0.0226504
0.0223577
0.0220518
0.0217421
0.0214708
0.0212243
0.0209964
0.0207747
0.0205426
0.0202548
0.0198301
0.0191288
0.0183137
0.0168466
0.0179983
0.0191764
0.0209244
0.0228289
0.0237205
0.0228173
0.0215845
0.021076
0.0213392
0.021671
0.0220232
0.022397
0.0228301
0.0232551
0.0236496
0.0235804
0.0222143
0.0228672
0.0174793
0.0183305
0.0186328
0.0185902
0.0202512
0.0193839
0.0146491
0.0151572
0.0158852
0.0171877
0.0198013
0.0201723
0.0215471
0.0217811
0.0173333
0.0170258
0.0165943
0.0175966
0.0152084
0.0158634
0.0266831
0.0272557
0.0349883
0.0383912
0.0399486
0.0331245
0.045561
0.0524356
0.0505859
0.0408726
0.0235154
0.0346524
0.0421624
0.0488403
0.045803
0.0356584
0.0449439
0.0473567
0.0632015
0.0588954
0.0525465
0.0632218
0.0447182
0.0269323
0.0158098
0.0163817
0.0151855
0.03065
0.0347497
0.0314658
0.0323302
0.0399312
0.0409421
0.0362338
0.0345094
0.0362614
0.0358088
0.0397757
0.0371026
0.0336828
0.0233022
0.0190206
0.0198689
0.0212894
0.0231304
0.0254796
0.0253728
0.0242204
0.0228457
0.0218605
0.0207984
0.0182946
0.0176317
0.0195942
0.0212263
0.0226073
0.0241233
0.02495
0.0257952
0.0259589
0.0258473
0.0255188
0.0250834
0.0245211
0.0238301
0.0224168
0.0236462
0.0243266
0.0245443
0.0248323
0.0251546
0.0254401
0.0255901
0.0254803
0.0245175
0.0236959
0.0225219
0.0214035
0.0197947
0.0176741
0.0183607
0.0201248
0.0217296
0.0228456
0.0238994
0.0235126
0.0240127
0.0246796
0.0246954
0.0245029
0.0242702
0.0241111
0.0241986
0.0248314
0.0265657
0.0263646
0.029275
0.0304348
0.0278443
0.026502
0.0257992
0.0253635
0.0251096
0.0248955
0.0246893
0.0241361
0.0235951
0.0241038
0.0243636
0.024666
0.0250265
0.0255333
0.0262206
0.027309
0.0287191
0.0286237
0.026344
0.0261443
0.0250689
0.0242794
0.0239024
0.0238571
0.0239082
0.0240199
0.0239663
0.0234424
0.0231091
0.0235146
0.0224975
0.0225595
0.0215853
0.0202209
0.0187762
0.0173231
0.01666
0.0352817
0.0352695
0.0457145
0.042435
0.0371269
0.0471573
0.0601098
0.052119
0.0627552
0.0665506
0.0541081
0.0502041
0.0279158
0.0244406
0.0173964
0.0189243
0.0202737
0.021484
0.0212995
0.0222253
0.0221066
0.0230828
0.0225393
0.0217608
0.021195
0.0201749
0.0202307
0.0189552
0.017407
0.0172732
0.0189257
0.0199935
0.0211792
0.0211769
0.0226439
0.0231386
0.0235343
0.0236804
0.0236668
0.0237564
0.0239247
0.0243784
0.0250975
0.0255776
0.0257318
0.0261377
0.0258648
0.0255628
0.0251322
0.0248407
0.024534
0.0242595
0.0239645
0.0236824
0.0232446
0.0225832
0.0224617
0.0229788
0.0233209
0.0235527
0.0236806
0.0236486
0.0234345
0.0230923
0.022742
0.0223663
0.0224209
0.023786
0.02406
0.0241954
0.0239745
0.0237883
0.0237609
0.023628
0.0235254
0.0232985
0.0229328
0.022468
0.021398
0.0214936
0.0223747
0.0228137
0.0231393
0.023415
0.0234485
0.0233827
0.0230142
0.0227251
0.0223661
0.0217776
0.0209799
0.0184437
0.0189414
0.0195914
0.0204756
0.0213623
0.0221176
0.022603
0.0228129
0.0228232
0.0226555
0.022303
0.0215516
0.0215288
0.0220676
0.0222291
0.0221642
0.0218358
0.0211796
0.0202196
0.0189799
0.0177366
0.0167639
0.016311
0.0155582
0.0181222
0.0192185
0.0202075
0.0211005
0.0219244
0.0227795
0.0230866
0.0231272
0.022973
0.0227101
0.022301
0.0215308
0.0215316
0.022234
0.0226202
0.0228326
0.0229155
0.022664
0.0220108
0.0204628
0.0190255
0.0178171
0.0166934
0.0155251
0.0153776
0.0158846
0.015402
0.0157739
0.0168759
0.0183578
0.0197365
0.0207625
0.0213903
0.0216995
0.0217436
0.0214209
0.0212339
0.0213492
0.0211328
0.0206173
0.0197318
0.0184365
0.0169744
0.0157815
0.0154562
0.0161192
0.0167517
0.0161452
0.0138444
0.0149853
0.0161152
0.0172695
0.0189721
0.0210459
0.0220156
0.0224948
0.0226365
0.0225138
0.0221514
0.0214999
0.0214383
0.0220623
0.0224189
0.022521
0.0224162
0.0220086
0.021216
0.0187009
0.0159072
0.0146325
0.013893
0.0129599
0.0162944
0.0169977
0.0161912
0.0156547
0.0165095
0.0175197
0.0186367
0.0195035
0.0201429
0.0206554
0.0209458
0.0209881
0.0207103
0.020581
0.0203503
0.0200074
0.019695
0.0193914
0.018649
0.0178267
0.0168228
0.01788
0.0184423
0.0176847
0.0144598
0.0150242
0.0159149
0.0164696
0.0191792
0.0216347
0.0222484
0.022406
0.0224936
0.0223558
0.0219603
0.0213447
0.0212162
0.021856
0.0223439
0.0226549
0.0229674
0.0232465
0.0234607
0.0215884
0.0182361
0.0174128
0.0155896
0.0147479
0.018245
0.0189256
0.0184437
0.0178898
0.0196085
0.0203124
0.020537
0.0204959
0.0203892
0.0202798
0.0203011
0.0204264
0.0201249
0.0199904
0.0200933
0.020325
0.0203078
0.0201121
0.0195584
0.01879
0.0176492
0.0195088
0.0211901
0.0209089
0.016983
0.0175203
0.0184515
0.0180879
0.0208606
0.0226903
0.0231426
0.0230405
0.0227019
0.0222153
0.0216673
0.0210243
0.020741
0.0213112
0.021878
0.0219091
0.0220014
0.0219523
0.021395
0.0212297
0.0206571
0.0203851
0.0196243
0.0190438
0.0182986
0.0204348
0.0235985
0.0257838
0.0273554
0.0292328
0.0277978
0.0242906
0.0220434
0.0152304
0.0152374
0.0154601
0.0148394
0.0144703
0.0142895
0.0186482
0.0213227
0.0239273
0.0255875
0.0231987
0.0231642
0.0230869
0.0229782
0.022873
0.0227671
0.0225567
0.0231497
0.0402507
0.282243
0.208185
0.23426
0.22327
0.314465
0.0777294
0.0384296
0.0425931
0.0492696
0.0564199
0.0546739
0.0511287
0.0447352
0.0405701
0.0401888
0.0397684
0.0395884
0.0384498
0.0384922
0.0377911
0.0454145
0.095581
0.123914
0.137507
0.145984
0.154981
0.150416
0.159403
0.151275
0.151743
0.153305
0.15805
0.150662
0.143313
0.139488
0.135177
0.117833
0.11818
0.0997074
0.103508
0.0863417
0.0907907
0.0946555
0.0939796
0.0927563
0.0925222
0.0927869
0.0935963
0.0972555
0.0925584
0.0981115
0.0905187
0.0720861
0.0696161
0.0713961
0.0657186
0.0575561
0.0649754
0.0795988
0.0950192
0.111811
0.0959319
0.119993
0.114048
0.115165
0.109376
0.102944
0.0991522
0.0984068
0.0990272
0.10017
0.102834
0.104796
0.106427
0.109385
0.118002
0.120417
0.119067
0.101589
0.0862765
0.0947773
0.0995997
0.10326
0.103521
0.0987518
0.0966295
0.0904511
0.0888851
0.083346
0.0807383
0.0752734
0.0719496
0.0671401
0.0837258
0.081873
0.0888802
0.0951798
0.0994296
0.103096
0.1047
0.105989
0.104808
0.102426
0.0974162
0.0952944
0.0904666
0.108954
0.127374
0.130068
0.125354
0.111802
0.106125
0.338956
0.411276
0.412583
0.612547
0.654393
0.846236
0.335834
0.179573
0.191928
0.188571
0.180347
0.177117
0.176862
0.188526
0.19752
0.188413
0.19949
0.176644
0.174454
0.165308
0.19042
0.187879
0.169003
0.147973
0.115348
0.0944188
0.0931698
0.0781308
0.0791961
0.0701313
0.0715689
0.0736959
0.0913472
0.170741
0.209398
0.236138
0.262607
0.323034
0.292728
0.442163
0.354019
0.439416
0.303394
0.328204
0.313869
0.305023
0.302971
0.318923
0.341501
0.300227
0.373375
0.299086
0.64788
0.784263
0.496194
0.458539
0.406429
0.392198
0.382219
0.376568
0.368345
0.485968
0.450317
0.553003
0.512936
0.643735
0.561789
0.56503
0.531431
0.567717
0.586464
0.600603
0.478417
0.518916
0.403772
0.437052
0.368035
0.404558
0.29096
0.291668
0.334511
0.371615
0.397581
0.454553
0.714451
0.606506
0.817949
0.585622
0.707672
0.491529
0.538878
0.514601
0.496912
0.498564
0.526629
0.63064
0.609753
0.696512
0.514708
0.526977
0.516706
0.534043
0.523485
0.558441
0.563138
0.564326
0.562314
0.523417
0.534035
0.532199
0.531975
0.531993
0.532339
0.509581
0.512763
0.505224
0.511006
0.526914
0.514593
0.51451
0.512369
0.504795
0.50274
0.502255
0.504014
0.503782
0.508915
0.508785
0.509126
0.512186
0.52691
0.514413
1.82294
0.899726
0.42901
0.33932
0.219723
0.134725
0.0556449
0.0601259
0.0630952
0.0640662
0.0620529
0.056676
0.0484757
0.0384255
0.0306001
0.0297285
0.026503
0.0268076
0.0345753
0.0422258
0.038617
0.0464119
0.0541056
0.0624334
0.0704582
0.0774629
0.0833836
0.0863
0.0832489
0.0704959
0.0528054
0.0353355
0.0250145
0.0225989
0.0209491
0.0189562
0.0168469
0.0151725
0.0141781
0.0130209
0.0123993
0.012319
0.0125507
0.0127959
0.0132431
0.0147571
0.016057
0.0172422
0.0182069
0.0184519
0.0179248
0.0184677
0.019061
0.0194561
0.0198011
0.0196139
0.0196037
0.019855
0.0198169
0.0200317
0.0199374
0.0199631
0.0198281
0.0196793
0.0194571
0.0190358
0.0187579
0.0181958
0.0178405
0.0169685
0.0170044
0.0174012
0.0177281
0.0167195
0.0166583
0.0159127
0.0272683
0.048455
0.0612279
0.0662252
0.071503
0.067468
0.05722
0.0393344
0.0192828
0.01881
0.0192884
0.0218254
0.0213293
0.0173595
0.0181452
0.0188534
0.0176673
0.0176422
0.0176751
0.0197596
0.0203706
0.0217087
0.0222021
0.0225423
0.0227546
0.0226566
0.0227363
0.022417
0.0224042
0.021998
0.0219741
0.0216528
0.0214231
0.0217207
0.0224409
0.0225378
0.0232277
0.0229502
0.0226943
0.0221409
0.0217627
0.0209121
0.0200082
0.0189736
0.0174012
0.0169324
0.0174389
0.0179025
0.0174292
0.0188115
0.0199688
0.0196604
0.0244159
0.0226864
0.0202429
0.0227067
0.018426
0.018583
0.0181712
0.0171205
0.0176696
0.0172094
0.017149
0.0174758
0.0177846
0.0189649
0.0199482
0.0205725
0.0214346
0.0220598
0.0227638
0.0239464
0.0242188
0.0231786
0.0229686
0.0217564
0.0210683
0.020739
0.0216722
0.0229853
0.0229311
0.0238771
0.0236572
0.0224257
0.0216222
0.0207809
0.0198016
0.0191476
0.0183516
0.0175886
0.0171608
0.0163208
0.0163925
0.0152947
0.0168489
0.0173468
0.0195006
0.0174041
0.0169527
0.0225743
0.0285688
0.0444845
0.0324957
0.0214272
0.0230732
0.0313036
0.0390256
0.0276729
0.02713
0.0153734
0.0179611
0.015304
0.0156114
0.0166853
0.0169741
0.0181904
0.0192562
0.0194971
0.020244
0.0205921
0.0213518
0.0216099
0.0223411
0.0225359
0.023804
0.0238681
0.0239051
0.0238779
0.0230275
0.0229497
0.0229203
0.0233997
0.0231971
0.0239485
0.0239843
0.0240966
0.0240363
0.0226972
0.0223719
0.0216021
0.0210841
0.0201826
0.0196272
0.0189116
0.018528
0.0178703
0.0181844
0.0189046
0.0190919
0.0200521
0.020071
0.0208101
0.0210203
0.0214888
0.0216248
0.0222892
0.0224302
0.0226987
0.0227559
0.0239665
0.0240812
0.0241109
0.0240764
0.0240793
0.0242941
0.024285
0.0242278
0.0241996
0.0240544
0.0238754
0.0236806
0.0247576
0.0254603
0.0250535
0.0248209
0.025082
0.0259313
0.0264842
0.0275685
0.02842
0.0294824
0.030365
0.0311752
0.0318365
0.0323013
0.032408
0.0324333
0.0319724
0.0315929
0.0332817
0.0397836
0.0430138
0.0482916
0.0506741
0.0526427
0.0533522
0.0522175
0.0529485
0.0516863
0.0519557
0.0507769
0.0503607
0.0495522
0.0485633
0.0478501
0.0463976
0.0456655
0.0502939
0.0568554
0.0568889
0.0496582
0.0466446
0.0424756
0.0371216
0.0388786
0.0453643
0.0408247
0.0383217
0.0355851
0.0306478
0.0235587
0.0178849
0.0257283
0.033494
0.0407388
0.0475102
0.0534874
0.0573663
0.0595001
0.0610436
0.0627293
0.0606838
0.0532189
0.041549
0.0316425
0.0277167
0.0261481
0.0237239
0.0203118
0.0184424
0.017379
0.0162357
0.0149008
0.0140557
0.0138191
0.014081
0.0142011
0.0155484
0.0168134
0.0168047
0.0179881
0.01778
0.0182934
0.0188874
0.0192955
0.0199404
0.0199164
0.018953
0.0193098
0.0195743
0.0202588
0.0201648
0.020345
0.0201439
0.0194333
0.0189275
0.0183328
0.0178186
0.0173552
0.0167732
0.0160301
0.0160225
0.0162035
0.0157503
0.0161815
0.0166352
0.0170511
0.0176774
0.0185887
0.019341
0.0211692
0.0212867
0.0210267
0.021107
0.0196678
0.019596
0.0186196
0.0183773
0.0199738
0.0198068
0.0181367
0.0195265
0.0195423
0.0213367
0.0213537
0.0206789
0.0208829
0.0207948
0.0189725
0.018086
0.0170117
0.016231
0.0156322
0.0152198
0.0147349
0.0153585
0.0141171
0.0135647
0.0140449
0.0140219
0.0140917
0.0144875
0.014921
0.0156668
0.016375
0.0174294
0.0180721
0.0189719
0.0193035
0.0212099
0.0211054
0.0209514
0.0209827
0.0211199
0.0215609
0.0207828
0.020744
0.020889
0.0209055
0.0209543
0.0209448
0.0191088
0.0189068
0.0180724
0.0177532
0.0168146
0.016454
0.0157952
0.0154765
0.0150795
0.0148801
0.0232578
0.0254553
0.0256096
0.039765
0.0199957
0.0199484
0.034378
0.0173285
0.023054
0.0235967
0.0246808
0.025919
0.0225396
0.0307588
0.0212139
0.0233521
0.0240737
0.025236
0.0129505
0.0203833
0.0380483
0.0428444
0.0441349
0.0490292
0.0556137
0.0587658
0.0617797
0.0637724
0.0660249
0.0684461
0.070829
0.0725441
0.0726746
0.0689612
0.0658834
0.0563626
0.0525388
0.0562555
0.0606487
0.0471625
0.0423841
0.0429109
0.0433508
0.0438604
0.0440448
0.0447006
0.0444879
0.0454448
0.044706
0.0457707
0.0446135
0.0455922
0.0444016
0.0417229
0.0385275
0.0324129
0.0304717
0.0293758
0.0266846
0.0241894
0.021977
0.020176
0.0197522
0.0181994
0.0168114
0.0165132
0.0152239
0.0155061
0.0167537
0.0199159
0.0168216
0.0176347
0.0260345
0.0191191
0.0180026
0.0185415
0.0190564
0.0192979
0.0181867
0.0198045
0.0220614
0.0220841
0.0221577
0.0221796
0.0213785
0.0212126
0.0209616
0.0210265
0.0210584
0.021195
0.0211694
0.0193429
0.0192866
0.0190144
0.0188776
0.0180854
0.0179176
0.0173295
0.0169966
0.0161489
0.0158536
0.0154056
0.0154764
0.0168644
0.0209923
0.0307506
0.0175976
0.0183727
0.0158556
0.0139846
0.0266911
0.0247293
0.0286371
0.0267688
0.0393749
0.0264105
0.0231618
0.0241603
0.029689
0.0296538
0.0326587
0.0424197
0.0330478
0.0283715
0.0748043
0.0551768
0.0337628
0.0471575
0.0591431
0.11021
0.128002
0.0562037
0.0566618
0.0622934
0.0632546
0.0631811
0.0537305
0.0494694
0.0418452
0.0324507
0.0128542
0.0249546
0.0323262
0.0434465
0.0581016
0.0921781
0.0529811
0.0597851
0.0657106
0.0647723
0.0678361
0.066035
0.0646954
0.0656582
0.102614
0.111512
0.108487
0.0875861
0.0822087
0.0746458
0.124375
0.139044
0.120029
0.130044
0.13622
0.0832321
0.0306007
0.0249305
0.023819
0.0264005
0.0253455
0.0458983
0.0206295
0.0218265
0.0226662
0.0271349
0.0302262
0.0527517
0.02332
0.0254782
0.0324107
0.03487
0.0457442
0.0275007
0.0280842
0.0343583
0.0361261
0.0394784
0.033682
0.0317971
0.0287021
0.0259128
0.0244219
0.0254709
0.0318466
0.0462263
0.0278862
0.0283169
0.0300724
0.134424
0.0307459
0.0266441
0.0277383
0.0267359
0.0336607
0.0350221
0.111886
0.0356427
0.0167273
0.0154514
0.0159144
0.0167283
0.0173684
0.0179931
0.0184373
0.0190839
0.019471
0.0196299
0.0198086
0.0221746
0.0220579
0.0215893
0.0210446
0.0218245
0.0211308
0.0211715
0.0217817
0.0212431
0.0213989
0.0224378
0.0236036
0.0230988
0.0236482
0.0250073
0.0238611
0.0221839
0.021975
0.0220888
0.0227987
0.0239342
0.022754
0.0234151
0.0226055
0.0235155
0.0236603
0.0203755
0.0199948
0.0197869
0.0192896
0.0186104
0.0179866
0.0173152
0.0166792
0.0162097
0.0161958
0.0167929
0.015215
0.0156885
0.0182681
0.0404349
0.0334633
0.0272833
0.0226762
0.0197875
0.0185031
0.0183212
0.0187421
0.0193939
0.0199498
0.0201605
0.0207598
0.0246334
0.0245194
0.025717
0.0245952
0.0259204
0.0248549
0.0235364
0.022667
0.0238685
0.0231835
0.0236736
0.0252659
0.026085
0.0237185
0.023974
0.0214054
0.0200135
0.0184205
0.0187608
0.020189
0.0208445
0.0232476
0.0233376
0.0267435
0.0267451
0.0266285
0.0254175
0.0247494
0.0261849
0.0247082
0.0258529
0.0247531
0.0261493
0.0273402
0.0276835
0.0269829
0.0262006
0.0253341
0.0210549
0.0202519
0.0199479
0.0194653
0.0192248
0.0202205
0.0246649
0.0341652
0.0465454
0.0587716
0.0680635
0.0673772
0.0605719
0.0414163
0.0421612
0.0392931
0.0425807
0.0609876
0.0882085
0.0620388
0.115278
0.0892553
0.0529324
0.0630944
0.0751088
0.0842763
0.0902725
0.0915348
0.0782063
0.0577143
0.0506355
0.0530553
0.0850536
0.0837393
0.082427
0.0779056
0.0823966
0.0802444
0.0775437
0.0759481
0.0741359
0.0698414
0.0698262
0.0670743
0.0670284
0.0599566
0.0611281
0.0613323
0.0587587
0.0560256
0.0537491
0.0515669
0.0492518
0.0453858
0.0441218
0.0416751
0.0399621
0.0366329
0.0360974
0.0356157
0.0334552
0.031917
0.0306747
0.0294257
0.0277444
0.0279173
0.0263762
0.0262266
0.0213929
0.0210047
0.0199716
0.019647
0.0194137
0.0196458
0.020966
0.0237671
0.0441372
0.033305
0.0330631
0.0335809
0.0337085
0.0396833
0.046426
0.070406
0.0651077
0.0715207
0.0612315
0.0636246
0.0628262
0.0624568
0.0651852
0.0687526
0.0740968
0.086568
0.333145
0.513774
0.252941
0.236966
0.246636
0.251561
0.258927
0.33873
0.359981
0.355505
0.360398
0.330386
0.318528
0.196607
0.226045
0.238135
0.23704
0.223951
0.202933
0.394725
0.522641
0.518781
0.523653
0.523766
0.518768
0.52259
0.502914
0.514275
0.501758
0.515022
0.502296
0.521645
0.518903
0.504363
0.501138
0.501158
0.500918
0.501381
0.501557
0.504896
0.506057
0.506109
0.505103
0.504126
0.514517
0.439149
0.123902
0.0863624
0.143947
0.200116
0.1641
0.23631
0.271371
0.195639
0.111454
0.0913238
0.103049
0.127003
0.128437
0.155541
0.203189
0.190014
0.155168
0.15605
0.157143
0.2025
0.193765
0.21993
0.262521
0.255421
0.19064
0.152001
0.151891
0.230112
0.244391
0.239508
0.125298
0.0453249
0.02207
0.0230547
0.0328973
0.0166633
0.0168749
0.0226293
0.0597185
0.0988662
0.0514194
0.138218
0.139426
0.182595
0.147831
0.178641
0.115935
0.118974
0.0677448
0.0797335
0.089624
0.0953477
0.099708
0.0940328
0.217545
0.321907
0.191758
0.562726
0.538583
0.196664
0.217402
0.575991
0.513006
0.50353
0.501786
0.501699
0.50186
0.501817
0.50097
0.500916
0.500729
0.500766
0.500717
0.501164
0.504767
0.520366
0.514585
0.505239
0.501385
0.500825
0.5008
0.500691
0.500731
0.500751
0.500809
0.501018
0.501051
0.501152
0.501671
0.503942
0.512021
0.435059
0.169778
0.182103
0.405785
0.361561
0.511498
0.504622
0.50137
0.500943
0.500856
0.50083
0.500796
0.50097
0.500891
0.501398
0.501232
0.501287
0.502776
0.508252
0.506384
0.442004
0.368414
0.415824
0.329161
0.506659
0.507771
0.503277
0.502901
0.503248
0.503416
0.501515
0.501529
0.500993
0.501062
0.500894
0.501341
0.504755
0.511005
0.345719
0.170607
0.17755
0.257702
0.0877876
0.0907562
0.0927134
0.0948298
0.247405
0.442636
0.556625
0.471913
0.475704
0.54292
0.385998
0.364775
0.294415
0.317762
0.402225
0.347316
0.312771
0.250356
0.288663
0.247632
0.303359
0.217799
0.234003
0.221561
0.282908
0.28677
0.287103
0.226551
0.216386
0.27145
0.285605
0.316515
0.218614
0.258733
0.203154
0.192249
0.0870878
0.0892977
0.0812319
0.0713237
0.0710416
0.0791364
0.0775563
0.0836939
0.0806649
0.0843251
0.081413
0.0794366
0.0727076
0.074758
0.0685853
0.0712503
0.13025
0.166455
0.1503
0.151719
0.179535
0.131072
0.157383
0.153587
0.197608
0.24797
0.227935
0.294422
0.226035
0.27586
0.405875
0.754181
0.442672
0.245662
0.31831
0.339659
0.288558
0.189485
0.449293
0.537975
0.297782
0.359741
1.19457
1.04239
1.78014
0.992422
1.11991
0.671649
0.597726
1.02915
0.654422
0.667065
0.560366
0.573922
0.500287
0.324843
0.324525
0.30625
0.242263
0.2814
0.272064
0.266867
0.296589
0.261855
0.317099
0.352817
0.39758
0.322817
0.285855
0.367637
0.215792
0.291767
0.3472
0.316368
0.260363
0.339065
0.451397
0.42395
0.365058
0.400265
0.510937
0.564854
0.535568
0.454688
0.517258
1.0097
0.967041
0.932635
0.592081
1.93356
1.72152
0.357103
0.140507
0.0980622
0.0370916
0.0225691
0.0182779
0.017894
0.0491143
0.0195429
0.0235672
0.0212677
0.0304757
0.0275246
0.0318386
0.0562251
0.0379411
0.0535508
0.0396163
0.0531064
0.042264
0.0581748
0.0624736
0.0658883
0.0532598
0.0419939
0.063449
0.0846949
0.0396354
0.101962
0.107774
0.0696993
0.084689
0.104626
0.0541211
0.167462
0.0580177
0.0579103
0.0692437
0.129863
0.256275
0.0875298
0.11413
0.591074
1.53341
0.515273
0.204648
0.167325
0.0414978
0.035958
0.0295079
0.0355959
0.0313278
0.0638433