/*--------------------------------*- C++ -*----------------------------------*\
| =========                 |                                                 |
| \\      /  F ield         | OpenFOAM: The Open Source CFD Toolbox           |
|  \\    /   O peration     | Version:  v2012                                 |
|   \\  /    A nd           | Website:  www.openfoam.com                      |
|    \\/     M anipulation  |                                                 |
\*---------------------------------------------------------------------------*/
FoamFile
{
    version     2.0;
    format      ascii;
    class       volVectorField;
    location    "805";
    object      U;
}
// * * * * * * * * * * * * * * * * * * * * * * * * * * * * * * * * * * * * * //

dimensions      [0 1 -1 0 0 0 0];


internalField   nonuniform List<vector> 
18258
(
(-0.176975 0.118448 0.137188)
(-0.0520353 0.246731 0.156781)
(-0.104982 0.215522 0.096132)
(-0.0378128 0.070897 0.0837544)
(-0.226372 0.203826 0.017235)
(-0.158923 0.363016 0.015762)
(-0.22272 0.0451372 0.0531622)
(-0.341112 -0.052168 0.0746492)
(-0.448362 -0.10519 0.107831)
(-0.535191 -0.159192 0.14545)
(-0.620988 -0.216819 0.179717)
(-0.687338 -0.271202 0.309316)
(-0.678387 -0.333963 0.357104)
(-0.621954 -0.445232 0.385753)
(-0.487738 -0.542637 0.369415)
(-0.205254 -0.586427 0.340101)
(0.073014 -0.373753 0.288024)
(0.0784444 -0.165182 0.298018)
(-0.125927 -0.0786014 0.235685)
(-0.394596 -0.273998 0.115668)
(-0.135205 -0.52353 0.288779)
(-0.190758 -0.363465 0.405948)
(-0.292661 -0.734163 0.299215)
(-0.350413 -0.775221 0.262436)
(-0.126431 -0.708992 0.138923)
(0.00882634 -0.644638 0.186723)
(-0.0132895 -0.337382 0.421475)
(0.176146 -0.111515 0.800819)
(0.299876 -0.0946506 0.886558)
(0.31749 0.0584774 0.902968)
(0.320097 0.188414 0.800123)
(0.164294 0.302282 0.0726907)
(0.0856448 0.119093 -0.435832)
(0.0226035 0.0705226 -0.732071)
(-0.0586692 0.0717736 -0.903651)
(-0.0494208 0.0691637 -1.08411)
(-0.0638714 0.0688367 -1.22694)
(-0.0914754 0.0874036 -1.32398)
(-0.130932 0.078002 -1.37294)
(-0.176671 0.0833517 -1.35928)
(-0.225537 0.0692829 -1.27519)
(-0.271056 0.077684 -1.12118)
(-0.308893 0.0722389 -0.910005)
(-0.339369 0.07208 -0.654208)
(-0.350206 0.0734508 -0.358841)
(-0.335548 0.0692712 -0.158835)
(-0.166355 0.147249 -0.203357)
(0.331503 -0.0925944 -0.140571)
(0.587549 -0.131041 -0.163079)
(0.650536 -0.110505 -0.171041)
(0.770098 -0.135236 -0.17894)
(0.803395 -0.134124 -0.195516)
(0.504244 -0.00888645 -0.257852)
(0.259038 -0.138465 -0.218789)
(0.113287 -0.0430005 -0.158991)
(0.281834 -0.00993851 -0.169064)
(0.536749 -0.00260156 -0.173609)
(0.791012 -0.0299055 -0.177802)
(1.09152 -0.0344904 -0.175546)
(1.42735 -0.0485767 -0.184988)
(1.76206 -0.0642918 -0.183362)
(2.04636 -0.080854 -0.16646)
(2.24722 -0.0925438 -0.138019)
(2.34766 -0.0986649 -0.102405)
(2.35469 -0.0959915 -0.0678057)
(2.29467 -0.0883175 -0.0411152)
(2.20137 -0.0818142 -0.0244196)
(2.10908 -0.0756921 -0.0176203)
(2.03974 -0.066886 -0.0185728)
(1.99414 -0.0639988 -0.0231874)
(1.96982 -0.0588389 -0.0255679)
(1.95925 -0.0499156 -0.0199869)
(1.94496 -0.0393876 -0.00293196)
(1.90144 -0.0245396 0.0246839)
(1.81374 -0.0074672 0.0542864)
(1.69261 0.00996002 0.0776489)
(1.57161 0.0221986 0.0805171)
(1.4789 0.0312238 0.0758566)
(1.40077 0.0383666 0.0711152)
(1.33845 0.0513241 0.0636869)
(1.28757 0.0579751 0.0655634)
(1.19394 0.0449466 0.0793238)
(1.09698 0.0195632 0.111311)
(1.01427 0.00125411 0.12904)
(0.907373 -0.020391 0.122009)
(0.763398 0.0170532 0.147075)
(0.642467 0.0818616 0.134049)
(0.518846 0.100711 0.135094)
(0.381885 0.118311 0.119508)
(0.225203 0.127698 0.097559)
(0.120341 0.190189 0.0928752)
(0.122803 0.00981094 0.198361)
(0.164336 -0.100857 0.144973)
(0.113382 -0.129573 0.0410472)
(0.104979 -0.11531 -0.140685)
(0.217292 -0.210601 -0.369054)
(0.263365 -0.233516 -0.554492)
(0.204909 -0.140611 -0.729114)
(0.106632 -0.0826618 -0.7157)
(0.0363797 0.0551402 -0.494447)
(-0.0853846 0.228919 -0.170538)
(-0.21488 0.196578 0.177944)
(-0.234524 0.0655387 0.152031)
(-0.340306 0.0161924 0.167803)
(-0.271394 0.140417 0.176186)
(-0.24516 0.287622 -0.0534045)
(-0.106303 0.161213 -0.405322)
(0.0653602 0.00288407 -0.586287)
(0.33504 -0.0949521 -0.631769)
(0.497182 -0.23066 -0.488435)
(0.352224 -0.211034 -0.278828)
(0.272039 -0.192015 -0.0993737)
(0.283259 -0.18659 0.0410333)
(0.281139 -0.140042 0.161357)
(0.22631 -0.0990288 0.192545)
(0.397621 -0.0811297 0.181885)
(0.536767 -0.0630169 0.177538)
(0.589201 -0.0517451 0.165487)
(0.701292 -0.0784909 0.161857)
(0.733328 -0.133533 0.133854)
(0.60163 -0.134131 0.13647)
(0.455048 -0.151671 0.140882)
(0.461935 -0.18577 0.0368932)
(0.611405 -0.162782 0.0528771)
(0.73685 -0.162046 0.0504366)
(0.905389 -0.141691 0.0823539)
(1.08886 -0.109914 0.111865)
(1.18996 -0.0777457 0.149488)
(1.20916 -0.0104904 0.141002)
(1.2463 -0.00885852 0.121317)
(1.3361 -0.00678573 0.140836)
(1.37819 -0.00147267 0.130629)
(1.3697 -0.0123588 0.159603)
(1.32922 -0.0481442 0.194985)
(1.32352 -0.0510914 0.191876)
(1.28638 -0.0620174 0.153053)
(1.27972 -0.0602392 0.136222)
(1.25915 -0.0478816 0.109304)
(1.25066 -0.0458353 0.111293)
(1.20213 0.0042137 0.109942)
(1.19506 0.0275832 0.138406)
(1.07808 0.136525 0.271675)
(1.2268 0.0526835 0.254271)
(1.21874 0.0199335 0.159369)
(1.26768 -0.0208469 0.129007)
(1.27972 -0.0250473 0.119935)
(1.28978 -0.038204 0.145243)
(1.30864 -0.0414723 0.184458)
(1.3513 -0.0366772 0.21846)
(1.38715 -0.0366344 0.223415)
(1.42397 -0.0126375 0.184408)
(1.43747 -0.00171763 0.138931)
(1.51365 -0.0063599 0.152065)
(1.61172 -0.0165753 0.160111)
(1.75116 -0.0315125 0.14439)
(1.88345 -0.0541212 0.0495098)
(1.96493 -0.0755956 -0.0709327)
(1.9843 -0.0904695 -0.164166)
(1.96679 -0.0965093 -0.20051)
(1.95036 -0.0968663 -0.194548)
(1.96044 -0.0912628 -0.174865)
(2.00736 -0.0827769 -0.144552)
(2.0887 -0.070368 -0.108067)
(2.19968 -0.0601717 -0.0843449)
(2.31359 -0.0598196 -0.113214)
(2.39015 -0.0608856 -0.173512)
(2.39251 -0.0584668 -0.277233)
(2.2864 -0.0501919 -0.392287)
(2.0708 -0.0425116 -0.483544)
(1.7703 -0.0367006 -0.539913)
(1.4264 -0.031552 -0.548658)
(1.08034 -0.0193059 -0.527488)
(0.791794 -0.0243436 -0.459228)
(0.536156 -0.0158321 -0.415415)
(0.282385 -0.0214511 -0.386827)
(0.108832 -0.0406221 -0.3608)
(0.101927 -0.0424377 -0.637298)
(0.0770882 -0.0374934 -0.873315)
(0.0504328 -0.0393741 -1.05777)
(0.0116209 -0.040627 -1.17643)
(-0.0234497 -0.0283231 -1.21634)
(-0.0600154 -0.0158958 -1.16911)
(-0.0937167 0.00292394 -1.04063)
(-0.119113 0.0259654 -0.825294)
(-0.121539 0.0809197 -0.563344)
(-0.145846 0.132781 -0.0541066)
(-0.191714 0.0272485 0.563528)
(-0.207726 -0.0329781 0.74997)
(-0.226382 -0.00155854 0.919163)
(-0.231592 -0.0441335 1.06219)
(-0.317449 -0.103414 1.1246)
(-0.370821 -0.109208 1.13862)
(-0.368918 -0.231466 1.00107)
(-0.295842 -0.24997 0.769374)
(-0.458108 -0.664661 0.686501)
(-0.485309 -0.541891 0.703909)
(-0.413671 -0.41023 0.830719)
(-0.550192 -0.763935 0.853659)
(-0.685607 -0.829811 0.602101)
(-0.47556 -0.752413 0.79819)
(-0.436406 -0.573657 0.739799)
(-0.785013 -0.523959 0.745604)
(-0.904852 -0.407485 0.854283)
(-0.531527 -0.704983 0.818252)
(-0.441255 -0.577181 0.659237)
(-0.320246 -0.317282 0.399132)
(-0.298905 -0.178145 0.392642)
(-0.281845 -0.142473 0.345561)
(-0.232676 0.117216 0.106929)
(-0.162876 0.293559 -0.420784)
(-0.152987 0.182326 -0.639555)
(-0.13227 0.0267772 -0.915085)
(-0.0870571 -0.0580038 -1.0862)
(-0.0290221 -0.0700698 -1.23402)
(0.0377667 -0.102569 -1.26869)
(0.0972991 -0.0990161 -1.23375)
(0.17154 -0.109772 -1.11998)
(0.215534 -0.123779 -0.92021)
(0.259687 -0.147143 -0.705773)
(0.248743 -0.139673 -0.398829)
(0.416742 -0.0528951 -0.638106)
(0.763038 -0.118495 -0.459782)
(0.712911 -0.10849 -0.417018)
(0.607572 -0.0726981 -0.412068)
(0.523928 -0.106544 -0.423587)
(0.0976362 -0.10989 -0.538842)
(0.154424 -0.120921 -0.934434)
(0.242439 -0.226901 -1.08613)
(0.333727 -0.28465 -0.970769)
(0.391083 -0.354127 -0.536212)
(0.200821 0.0130863 0.161893)
(0.261256 0.106105 0.172906)
(0.428505 -0.325668 0.333459)
(0.515606 -0.528677 0.50372)
(0.544847 -0.521233 0.552955)
(0.412296 -0.233943 0.675445)
(0.471538 -0.336116 0.567106)
(0.487177 -0.606944 0.552816)
(0.703016 -0.670403 0.321367)
(0.745364 -0.485069 0.459236)
(0.796107 -0.344773 0.599816)
(0.23161 -0.223596 0.573259)
(-0.242119 -0.266834 0.822622)
(-0.180321 -0.19112 0.672774)
(-0.676336 -0.298531 0.814821)
(-0.475244 -0.178969 0.688146)
(-0.32469 -0.00156279 0.535702)
(-0.21924 0.17183 -0.294596)
(-0.193522 -0.0473913 -0.618656)
(-0.057389 -0.170081 -1.10025)
(0.103334 -0.15936 -1.2496)
(0.273806 -0.0892684 -1.1182)
(0.428462 -0.107252 -0.703545)
(0.494038 -0.073744 -0.63043)
(0.484228 -0.0422387 -0.622897)
(0.524048 -0.0879429 -0.65353)
(0.576403 -0.120752 -0.746084)
(0.388876 -0.0418776 -0.693646)
(0.350918 -0.0786665 -0.672262)
(0.128855 -0.113017 -0.677383)
(-0.112517 -0.050046 -0.588185)
(0.286726 -0.000219882 -0.600356)
(0.342594 0.0107588 -0.623714)
(0.629099 -0.101126 -0.660351)
(0.57437 -0.0987048 -0.408961)
(0.26577 0.0675846 -0.387389)
(0.278432 0.0514047 -0.283595)
(-0.306486 -0.0440588 0.0858236)
(-0.307821 0.142117 -0.0204996)
(-0.282701 -0.0263193 -0.455623)
(0.0829396 -0.199798 -0.582521)
(0.35533 -0.278209 -0.573402)
(0.718862 -0.343676 -0.409197)
(0.805781 -0.416826 -0.379611)
(0.766087 -0.28981 -0.29688)
(0.808063 -0.363788 -0.220661)
(0.823372 -0.484837 -0.285704)
(0.73454 -0.428671 -0.28124)
(0.710215 -0.302624 -0.335053)
(0.738874 -0.250397 -0.344511)
(0.785295 -0.310086 -0.213731)
(0.798004 -0.36582 -0.162197)
(0.888662 -0.46438 -0.157246)
(1.15611 -0.630194 -0.118068)
(1.61576 -0.725375 -0.0991848)
(1.99375 -0.671339 -0.038342)
(2.15085 -0.48964 0.0472427)
(2.0714 -0.290615 0.0954346)
(1.90631 -0.162346 0.103186)
(1.80871 -0.0936795 0.0997001)
(1.71186 0.00211514 0.0992623)
(1.57436 0.0910297 0.0914378)
(1.43701 0.109941 0.0484621)
(1.33245 0.0604561 0.0277912)
(1.24265 -0.00149419 0.0222043)
(1.14094 -0.0509325 0.0240424)
(1.05687 -0.0759958 0.0222712)
(0.999091 -0.0601435 0.0180264)
(0.823352 -0.108006 -0.0228287)
(0.717743 0.00491729 0.0112813)
(0.634297 0.0715793 0.0101403)
(0.498498 0.0267947 0.00780018)
(0.360078 -0.0581101 -0.0124771)
(0.139414 -0.145367 -0.0316819)
(0.225944 -0.307372 0.00102407)
(0.353555 -0.0816768 0.0121152)
(-0.00227127 -0.229806 -0.00918933)
(0.0432276 -0.545721 -0.0503833)
(0.0121981 -0.712327 -0.0524989)
(-0.00785308 -0.876372 -0.0531377)
(-0.0258174 -1.00648 -0.0648209)
(-0.0358549 -1.1025 -0.0955991)
(-0.0463188 -1.15698 -0.104873)
(-0.0578274 -1.21441 -0.118031)
(-0.0880779 -1.27633 -0.134055)
(-0.113224 -1.32123 -0.149395)
(-0.137245 -1.35516 -0.162333)
(-0.159314 -1.37702 -0.173414)
(-0.178391 -1.38849 -0.183093)
(-0.193831 -1.3902 -0.189822)
(-0.205986 -1.3831 -0.193683)
(-0.216007 -1.36836 -0.193804)
(-0.224548 -1.34646 -0.191883)
(-0.232817 -1.31602 -0.186434)
(-0.240478 -1.27515 -0.178072)
(-0.245932 -1.22091 -0.165022)
(-0.243835 -1.15173 -0.147275)
(-0.190941 -1.0722 -0.126882)
(-0.141225 -0.969458 -0.112507)
(-0.165743 -0.868887 -0.0794365)
(-0.189746 -0.754861 -0.0818432)
(-0.204945 -0.543344 -0.0854439)
(-0.273599 -0.450419 -0.0919377)
(0.0226321 0.0530377 -0.116125)
(-0.350806 -0.308466 0.0252168)
(-0.231652 -0.617549 -0.0545226)
(-0.27035 -0.0993093 -0.0110041)
(-0.457985 -0.182525 0.0645995)
(-0.678706 -0.19872 0.0822686)
(-0.842217 -0.20931 0.114079)
(-0.953709 -0.223177 0.144209)
(-1.03452 -0.232583 0.203804)
(-1.11789 -0.244381 0.245337)
(-1.18711 -0.244283 0.302093)
(-1.20079 -0.248519 0.336367)
(-1.17384 -0.25029 0.366274)
(-1.10695 -0.249015 0.394563)
(-0.996257 -0.243363 0.422735)
(-0.841798 -0.230394 0.45415)
(-0.668101 -0.206182 0.493607)
(-0.421028 -0.147134 0.54274)
(-0.138156 -0.118546 0.566683)
(-0.156666 0.0285304 0.822525)
(-0.160296 0.0829889 1.04276)
(-0.160201 0.115211 1.11271)
(-0.161529 0.164281 1.02153)
(-0.16487 0.153256 0.839036)
(-0.151523 0.131179 0.568734)
(-0.122613 0.143531 0.286686)
(-0.223991 0.440456 0.37173)
(-0.505632 0.46816 0.335433)
(-0.690696 0.481062 0.339645)
(-0.915841 0.466021 0.333253)
(-1.09848 0.425472 0.309274)
(-1.22617 0.354036 0.266513)
(-1.28238 0.273989 0.219315)
(-1.26546 0.206654 0.181991)
(-1.23277 0.148353 0.1587)
(-1.19 0.115606 0.140753)
(-1.10054 0.092846 0.0904608)
(-0.958835 0.0454508 0.0700807)
(-0.767516 -0.0204858 0.0596187)
(-0.501032 -0.113817 0.0190991)
(-0.253368 -0.20783 -0.0189544)
(-0.27442 -0.197634 -0.0660548)
(-0.318512 -0.177008 0.00857483)
(-0.314704 -0.174202 0.0598931)
(-0.272869 -0.156686 0.151197)
(-0.380948 -0.233881 0.118831)
(-0.422832 -0.297067 0.118887)
(-0.326956 -0.288165 0.177463)
(-0.269906 -0.215325 0.0456382)
(-0.140717 -0.100978 -0.0258095)
(-0.140887 -0.0769149 -0.00724462)
(-0.138531 -0.0742737 -0.0355923)
(-0.16931 -0.0557511 -0.0680595)
(-0.167873 -0.501586 -0.148777)
(-0.126205 -0.479825 -0.138304)
(-0.110662 -0.447236 -0.0955981)
(-0.10045 -0.424151 -0.145584)
(-0.266698 -0.538326 -0.0313129)
(-0.2766 -0.575862 -0.0255202)
(-0.284147 -0.632288 -0.0836175)
(-0.337581 -0.583061 -0.0196775)
(-0.34041 -0.530232 0.0554443)
(-0.301774 -0.359312 0.0857185)
(-0.444645 -0.317162 0.115086)
(-0.36181 -0.43198 0.0405748)
(-0.347748 -0.522921 0.0141429)
(-0.378173 -0.508582 -0.0235408)
(-0.428729 -0.394625 0.0323026)
(-0.497504 -0.346721 0.0732689)
(-0.529107 -0.254982 0.164186)
(-0.591392 -0.215547 0.241827)
(-0.680343 -0.197636 0.256502)
(-0.576693 -0.206793 0.212081)
(-0.517122 -0.187824 0.181669)
(-0.54547 -0.184959 0.118259)
(-0.540044 -0.172011 0.0922102)
(-0.496754 -0.184143 0.000932865)
(-0.76236 -0.0865262 0.0647064)
(-0.972483 -0.00515595 0.0898282)
(-1.08006 0.0524419 0.103736)
(-1.12924 0.0753831 0.138414)
(-1.16669 0.036036 0.238288)
(-1.25121 0.0692564 0.267584)
(-1.31687 0.119726 0.349557)
(-1.33019 0.171274 0.432386)
(-1.27244 0.222409 0.524986)
(-1.14706 0.261346 0.604693)
(-0.974143 0.281413 0.649185)
(-0.774221 0.283336 0.65813)
(-0.622225 0.288454 0.645001)
(-0.341765 0.272316 0.645367)
(-0.435787 0.244476 0.875705)
(-0.468038 0.227039 1.00394)
(-0.461164 0.179306 1.08222)
(-0.442048 0.123245 1.01425)
(-0.440637 0.0583209 0.798165)
(-0.711688 -0.00526301 0.744556)
(-0.722201 0.0712364 0.945087)
(-0.740721 0.117032 1.02394)
(-0.745221 0.164081 0.979921)
(-0.694763 0.198618 0.872819)
(-0.837201 0.186228 0.862695)
(-0.879346 0.14583 0.965383)
(-0.882495 0.0882589 1.00145)
(-0.87303 0.0418686 0.926649)
(-0.866873 -0.0391068 0.707119)
(-1.00989 -0.0603425 0.67597)
(-1.02423 0.0204927 0.901418)
(-1.03697 0.0695532 0.966655)
(-1.04494 0.12205 0.944645)
(-1.01972 0.174045 0.854656)
(-1.16345 0.163152 0.804861)
(-1.16419 0.110688 0.893429)
(-1.14764 0.0571945 0.915118)
(-1.13066 0.00647323 0.859802)
(-1.11076 -0.0730938 0.640283)
(-1.17084 -0.0837198 0.595713)
(-1.19625 -0.00618339 0.797276)
(-1.22252 0.0436956 0.840684)
(-1.25182 0.0919752 0.812271)
(-1.26942 0.141601 0.717766)
(-1.31929 0.111084 0.611022)
(-1.29075 0.0689904 0.709989)
(-1.25228 0.0250723 0.747851)
(-1.21689 -0.0217026 0.716817)
(-1.18684 -0.0935087 0.540005)
(-1.15363 -0.104745 0.472936)
(-1.18176 -0.0413735 0.621777)
(-1.22065 0.00025166 0.641287)
(-1.27508 0.0392609 0.607124)
(-1.30828 0.0744431 0.50986)
(-1.22546 0.0358412 0.414973)
(-1.18848 0.00294462 0.500724)
(-1.12863 -0.0321582 0.531693)
(-1.08632 -0.0600975 0.520568)
(-1.04001 -0.11182 0.386981)
(-0.919094 -0.120203 0.315347)
(-0.923378 -0.109425 0.358352)
(-0.972814 -0.0804099 0.438576)
(-0.956763 -0.0870592 0.4254)
(-0.928032 -0.102638 0.395167)
(-1.00489 -0.0684089 0.381953)
(-0.996752 -0.0629807 0.30798)
(-1.00156 -0.0390868 0.283323)
(-1.04483 -0.0270481 0.209589)
(-1.03988 -0.00935251 0.202843)
(-0.806964 -0.10508 0.145684)
(-0.819853 -0.12516 0.158291)
(-0.788727 -0.128394 0.216758)
(-0.824526 -0.141465 0.249937)
(-0.610404 -0.281761 0.133349)
(-0.557312 -0.291529 0.115144)
(-0.503788 -0.326955 0.132836)
(-0.420365 -0.399704 0.116416)
(-0.396983 -0.384151 0.149933)
(-0.488208 -0.284328 0.165744)
(-0.606229 -0.239133 0.184168)
(-0.615654 -0.267853 0.0970724)
(-0.513766 -0.377998 0.0442679)
(-0.439751 -0.460277 0.0284034)
(-0.397385 -0.526498 0.0581946)
(-0.383983 -0.698128 0.122724)
(-0.38715 -0.663554 0.128444)
(-0.405563 -0.380496 0.10747)
(-0.408607 -0.536678 0.0818942)
(-0.399439 -0.602153 0.0442211)
(-0.215926 -0.788514 -0.158435)
(-0.193551 -0.794359 -0.259415)
(-0.115422 -0.70415 -0.369101)
(-0.0785589 -0.624274 -0.385064)
(-0.045187 -0.589172 -0.347402)
(-0.0137982 -0.556322 -0.301159)
(0.0314056 -0.502316 -0.23196)
(0.124087 -0.455874 -0.108898)
(0.124648 -0.580648 -0.121885)
(0.116739 -0.637195 -0.120178)
(0.0847571 -0.69523 -0.157603)
(0.0921215 -0.749928 -0.155705)
(0.100237 -0.806501 -0.174823)
(0.117942 -0.834883 -0.166899)
(0.125942 -0.841757 -0.152729)
(0.126157 -0.828117 -0.130227)
(0.117549 -0.792253 -0.0959782)
(0.103932 -0.736036 -0.0428119)
(0.038279 -0.656877 0.0328292)
(0.00141233 -0.548614 0.151825)
(0.013996 -0.303377 0.358581)
(-0.144732 0.00704203 0.448705)
(-0.364155 0.0937386 0.351031)
(-0.390701 -0.0408567 0.255973)
(-0.218525 -0.172176 0.25267)
(-0.178266 -0.18813 0.268898)
(-0.155583 -0.176982 0.214026)
(-0.0866405 -0.140329 0.205292)
(0.0025834 -0.0234866 0.0683226)
(-0.0384586 0.112904 0.0804227)
(-0.0815493 0.151151 0.0801267)
(-0.0502989 0.215124 0.169603)
(-0.00938714 0.184014 0.189605)
(0.0140132 0.0478241 0.141571)
(-0.0409564 -0.0237618 0.225371)
(0.0254106 0.0970878 0.321444)
(-0.000599331 -0.0613922 0.285418)
(0.0795031 0.144981 0.245802)
(0.0922715 -0.0260826 0.227564)
(-0.0187954 -0.258849 0.456081)
(0.0527184 -0.362809 0.544178)
(0.173097 -0.508916 0.512695)
(0.164824 -0.696819 0.349616)
(0.074607 -0.819991 0.142255)
(0.0590174 -0.891369 -0.00861858)
(0.0651605 -0.925177 -0.119851)
(0.0631707 -0.951202 -0.197792)
(0.0600589 -0.965651 -0.248611)
(0.0519389 -0.963676 -0.27918)
(0.0418038 -0.943645 -0.292463)
(0.029231 -0.905971 -0.289274)
(0.0235735 -0.831259 -0.249604)
(0.00730912 -0.785457 -0.328766)
(0.0434818 -0.70464 -0.225292)
(0.0475026 -0.654406 -0.211394)
(0.0447092 -0.63688 -0.232076)
(0.00459846 -0.702845 -0.325139)
(-0.0225548 -0.742366 -0.382854)
(-0.0573347 -0.777591 -0.410546)
(-0.0732876 -0.844324 -0.401408)
(-0.132144 -0.904803 -0.345618)
(-0.0941259 -0.96934 -0.331344)
(-0.0890784 -0.980077 -0.372729)
(-0.0538182 -0.918581 -0.417809)
(-0.0435801 -0.868634 -0.431726)
(-0.0177407 -0.826561 -0.404136)
(-0.0096484 -0.870027 -0.340997)
(-0.0393911 -0.9022 -0.373889)
(-0.0561178 -0.948818 -0.396235)
(-0.0238311 -0.991989 -0.405534)
(-0.0487421 -1.0604 -0.42008)
(-0.0666352 -1.04308 -0.423843)
(-0.0935999 -0.920859 -0.34461)
(-0.18678 -0.762144 -0.224162)
(-0.198825 -0.613993 -0.0406405)
(-0.100253 -0.733785 -0.196537)
(-0.0798007 -0.839924 -0.259021)
(-0.0594533 -0.929253 -0.322919)
(-0.0608228 -0.946657 -0.333661)
(-0.0276576 -0.829746 -0.380266)
(-0.0238191 -0.724831 -0.336511)
(-0.0319627 -0.54249 -0.253021)
(-0.0159492 -0.353404 -0.162056)
(0.0329403 -0.0912998 -0.207175)
(-0.248806 -0.43405 0.073567)
(-0.329856 -0.461641 0.0265258)
(0.22239 -0.118121 -0.244612)
(-0.172353 -0.247462 0.0436934)
(-0.218003 -0.266596 -0.116383)
(-0.25836 -0.268866 -0.103174)
(-0.208534 -0.281688 -0.0212368)
(0.0812303 0.140657 -0.219057)
(0.102793 0.0594767 -0.231602)
(0.101024 -0.000381653 -0.260297)
(0.0966296 2.70093e-05 -0.26546)
(-0.0796437 -0.429902 -0.200964)
(-0.132743 -0.450079 -0.22224)
(-0.185945 -0.458452 -0.206359)
(-0.248978 -0.445217 -0.169096)
(-0.168931 -0.547638 -0.184157)
(-0.126758 -0.559528 -0.25707)
(-0.0961449 -0.565858 -0.291169)
(-0.0604127 -0.554106 -0.291353)
(-0.0505856 -0.743107 -0.348709)
(-0.0815532 -0.75771 -0.331808)
(-0.106341 -0.769979 -0.281624)
(-0.147167 -0.760201 -0.194689)
(-0.134498 -0.821985 -0.182287)
(-0.128796 -0.882968 -0.200264)
(-0.0981674 -0.90567 -0.297328)
(-0.0726811 -0.87278 -0.373618)
(-0.0491163 -0.852626 -0.399815)
(-0.0767608 -0.968307 -0.370611)
(-0.112185 -0.989923 -0.335672)
(-0.138144 -1.01015 -0.283526)
(-0.137201 -1.09291 -0.346807)
(-0.0801177 -1.06736 -0.398988)
(-0.0725224 -1.14501 -0.440682)
(-0.0493953 -1.12355 -0.47327)
(-0.0269689 -1.11458 -0.458493)
(-0.00337667 -1.04271 -0.415214)
(0.0120314 -1.0749 -0.406409)
(-0.0127344 -1.15322 -0.469455)
(-0.0398464 -1.18024 -0.494018)
(-0.0685425 -1.20833 -0.462832)
(-0.131543 -1.22881 -0.379082)
(-0.134884 -1.16648 -0.369128)
(-0.283644 -1.04664 -0.225326)
(-0.457343 -1.14605 -0.0769324)
(-0.463742 -1.1001 -0.0674628)
(-0.41603 -1.04577 -0.0647518)
(-0.302869 -1.03627 -0.0738018)
(-0.255729 -0.967526 -0.0640044)
(-0.309189 -0.944993 -0.0575961)
(-0.342299 -0.849114 -0.0421728)
(-0.378055 -0.713754 -0.0378398)
(-0.473721 -0.626986 -0.0366666)
(-0.409814 -0.401555 -0.0340277)
(-0.464783 -0.660927 -0.00580146)
(-0.316642 -0.457726 0.0246231)
(-0.638365 -0.398889 0.00545949)
(-0.815293 -0.379521 0.0601507)
(-0.917793 -0.384673 0.0846344)
(-0.967802 -0.397474 0.124374)
(-0.979808 -0.525609 0.097781)
(-0.94019 -0.689759 0.0653744)
(-0.923906 -0.750562 0.0524943)
(-0.874417 -0.848903 0.0364362)
(-0.858808 -0.896109 0.0304548)
(-0.820947 -0.928403 0.00760283)
(-0.703645 -0.96807 -0.0230248)
(-0.592452 -1.00262 -0.0420029)
(-0.626702 -0.953202 -0.0172075)
(-0.484902 -0.972228 -0.0307008)
(-0.502791 -0.893908 -0.0301173)
(-0.530401 -0.797412 -0.0232621)
(-0.559223 -0.731152 -0.0194461)
(-0.686341 -0.712754 -0.00979493)
(-0.674897 -0.598395 -0.00776622)
(-0.824068 -0.577505 0.0303483)
(-0.918417 -0.5599 0.0504112)
(-0.881327 -0.697401 0.0231452)
(-0.800354 -0.704929 0.0121968)
(-0.777486 -0.790168 0.00228013)
(-0.66085 -0.798632 -0.0107711)
(-0.635705 -0.883052 -0.017038)
(-0.748441 -0.86664 -0.00513874)
(-0.825487 -0.851022 0.00443633)
(-0.86311 -0.773406 0.0135074)
(-0.8016 -0.739287 -0.0117726)
(-0.624162 -0.612428 0.00191691)
(-0.847123 -0.659971 0.0116929)
(-0.868083 -0.518597 0.0520817)
(-0.870492 -0.379942 0.0581692)
(-0.843384 -0.282339 0.121669)
(-0.832341 -0.302357 0.0765738)
(-0.878923 -0.350767 0.0525981)
(-0.87521 -0.203979 0.12912)
(-0.894208 -0.1843 0.174186)
(-0.760754 -0.161571 0.158543)
(-0.766488 -0.129109 0.259311)
(-0.777776 -0.120801 0.302166)
(-0.821468 -0.10868 0.355639)
(-0.829049 -0.119275 0.353059)
(-0.642433 -0.181764 0.251395)
(-0.607419 -0.173701 0.248726)
(-0.567528 -0.180528 0.215783)
(-0.551054 -0.17569 0.189073)
(-0.568765 -0.191253 0.120438)
(-0.338321 -0.194854 0.0769238)
(-0.320155 -0.189361 0.101895)
(-0.329344 -0.192059 0.114521)
(-0.36062 -0.198978 0.124722)
(-0.449356 -0.216954 0.142201)
(-0.405353 -0.253446 0.0600976)
(-0.382279 -0.284995 0.0687959)
(-0.410745 -0.341148 0.0473499)
(-0.316026 -0.427086 0.0362431)
(-0.311884 -0.394483 0.0495301)
(-0.283657 -0.41641 0.0160027)
(-0.192975 -0.419652 -0.0201259)
(-0.33722 -0.254193 0.0357568)
(-0.402982 -0.331025 0.041333)
(-0.24826 -0.457575 -0.00639072)
(-0.291692 -0.459974 0.000585908)
(-0.451835 -0.321308 0.0721785)
(-0.52464 -0.299068 0.131479)
(-0.498003 -0.318739 0.136505)
(-0.470901 -0.336887 0.111521)
(-0.458705 -0.350732 0.0943557)
(-0.493134 -0.373254 0.0086153)
(-0.710672 -0.317904 0.0631897)
(-0.717753 -0.530019 0.0389396)
(-0.548944 -0.554546 -0.00178685)
(-0.509839 -0.607239 -0.00404334)
(-0.46561 -0.649527 -0.0175233)
(-0.436849 -0.652781 -0.0212016)
(-0.412785 -0.531039 -0.0230396)
(-0.41097 -0.541012 -0.0484917)
(-0.409849 -0.541479 -0.0344216)
(-0.33535 -0.550559 -0.0171131)
(-0.267378 -0.596044 -0.00733404)
(-0.319421 -0.581047 -0.00353238)
(-0.403317 -0.513134 0.00709506)
(-0.331903 -0.535518 -0.00419917)
(-0.438625 -0.630554 -0.0119318)
(-0.292859 -0.47335 -0.00514359)
(-0.210273 -0.539839 -0.0182972)
(-0.280962 -0.524799 -0.0162463)
(-0.394323 -0.436222 -0.000726285)
(-0.413752 -0.36287 -0.0104157)
(-0.260523 -0.394317 -0.0110431)
(-0.156902 -0.423048 -0.0363087)
(-0.136254 -0.399649 -0.0225554)
(-0.238094 -0.205427 0.0224693)
(-0.382466 -0.342978 -0.00196302)
(-0.251606 -0.474739 -0.0196716)
(-0.218922 -0.468161 -0.0235686)
(-0.122013 -0.39301 -0.0298796)
(-0.219177 -0.194585 0.0393754)
(-0.346721 -0.338058 0.012278)
(-0.366112 -0.363412 0.0542942)
(-0.195753 -0.511305 -0.0107134)
(-0.174013 -0.468253 0.0188338)
(-0.10997 -0.420419 0.00215228)
(-0.2223 -0.229172 0.0449174)
(-0.325777 -0.342008 0.0525065)
(-0.335052 -0.339094 0.0571926)
(-0.180573 -0.46343 0.0169142)
(-0.109345 -0.409178 0.000358649)
(-0.23199 -0.220578 0.0624171)
(-0.28601 -0.221561 0.0777952)
(-0.240489 -0.230381 0.0715743)
(-0.350311 -0.337144 0.0787489)
(-0.189675 -0.465513 0.0486581)
(-0.117823 -0.415823 0.0377547)
(-0.140529 -0.44989 -0.00350402)
(-0.196488 -0.497812 0.0259672)
(-0.381696 -0.350808 0.0793692)
(-0.334376 -0.625735 -0.00338244)
(-0.355649 -0.632432 -0.011531)
(-0.499322 -0.512135 0.0579725)
(-0.651303 -0.444952 0.0983711)
(-0.666752 -0.286918 0.136462)
(-0.798177 -0.271728 0.170624)
(-0.890905 -0.320949 0.166545)
(-1.02084 -0.489125 0.126011)
(-1.1077 -0.495427 0.167776)
(-1.13259 -0.503039 0.192948)
(-1.11263 -0.505379 0.21594)
(-1.04939 -0.501644 0.238815)
(-0.943871 -0.490688 0.260691)
(-0.795083 -0.467347 0.287287)
(-0.640568 -0.432235 0.326849)
(-0.398017 -0.380697 0.395411)
(-0.163978 -0.29236 0.483032)
(0.0393598 -0.150429 0.487099)
(0.334972 -0.158519 0.428875)
(0.336765 -0.21722 0.379193)
(0.204911 -0.127696 0.488981)
(0.27225 -0.00280111 0.768523)
(0.283199 0.046687 1.03429)
(0.268234 0.0817157 1.14378)
(0.250238 0.134303 1.09215)
(0.212823 0.123345 0.953735)
(0.142938 0.121052 0.701511)
(0.0406802 0.185805 0.40248)
(0.174452 0.512184 0.423684)
(0.423926 0.515004 0.373263)
(0.611472 0.537167 0.374315)
(0.85443 0.496059 0.350909)
(1.01151 0.416101 0.31781)
(1.07521 0.32293 0.274831)
(1.05929 0.255086 0.235322)
(1.00781 0.211105 0.200194)
(1.0254 0.159033 0.168266)
(1.04093 0.118805 0.145161)
(0.981891 0.0926516 0.0911789)
(0.877694 0.0422341 0.068303)
(0.71213 -0.0231174 0.0544933)
(0.466874 -0.110241 0.0209772)
(0.239305 -0.216827 -0.0231497)
(0.0999795 -0.620715 -0.111574)
(0.176108 -0.383224 -0.0791485)
(-0.180374 -0.171304 0.00512323)
(-0.100457 -0.392365 -0.0410819)
(-0.109762 -0.315473 -0.0672997)
(-0.111944 -0.343349 -0.0753481)
(-0.109182 -0.305199 -0.0648458)
(-0.0761668 -0.231393 -0.0607467)
(-0.149953 -0.182642 -0.0268169)
(-0.227073 0.205685 0.163535)
(-0.13928 0.464208 0.132449)
(-0.0483954 0.594283 0.0763733)
(0.0227568 0.651201 0.0725346)
(0.105402 0.670046 0.154176)
(0.200424 0.709085 0.271592)
(0.297378 0.743634 0.328473)
(0.385059 0.741108 0.364476)
(0.465376 0.681671 0.373295)
(0.53195 0.547024 0.370588)
(0.582947 0.330119 0.33496)
(0.563503 0.00680844 0.259939)
(0.384351 -0.329157 0.250738)
(0.285032 -0.328649 0.31512)
(0.220119 -0.282746 0.324925)
(0.153657 -0.191434 0.332167)
(0.145052 0.00682859 0.308836)
(0.289941 0.0105353 0.335787)
(0.449591 -0.15674 0.328323)
(0.599841 -0.254184 0.34077)
(0.638711 -0.343372 0.350427)
(0.619614 -0.435573 0.352618)
(0.474011 -0.540885 0.335118)
(0.106249 -0.567651 0.319567)
(-0.170952 -0.302311 0.304966)
(-0.0438079 -0.130352 0.355716)
(0.22522 -0.148386 0.237938)
(0.28125 -0.397591 0.0731448)
(0.00891389 -0.513332 0.236577)
(-0.139894 -0.741998 -0.137622)
(0.205332 -0.717724 -0.47828)
(0.303882 -0.390692 -0.175826)
(0.331827 -0.377256 0.0944529)
(0.34384 -0.550501 0.18696)
(0.325257 -0.892207 0.122313)
(0.526811 -0.871304 0.0651411)
(0.603142 -0.689926 0.097486)
(0.567713 -0.535849 0.138127)
(0.497992 -0.393541 0.188495)
(0.331042 -0.228387 0.245568)
(0.352478 -0.343435 0.195118)
(0.413969 -0.37397 0.142302)
(0.494698 -0.361148 0.0807416)
(0.598342 -0.289509 -0.0544208)
(0.848305 0.199321 -0.112938)
(0.897579 0.475491 -0.0176609)
(0.84447 0.670411 0.0546235)
(0.743199 0.765419 0.0966486)
(0.609753 0.787463 0.142564)
(0.458836 0.757413 0.156805)
(0.292133 0.697512 0.15892)
(0.121049 0.638465 0.0921946)
(-0.04628 0.601567 0.0499834)
(-0.164441 0.548358 0.0653992)
(-0.286088 0.432163 0.131649)
(-0.406683 0.213176 0.172911)
(-0.286771 -0.135455 0.0118426)
(-0.401023 -0.0398636 0.0566089)
(-0.483935 0.0191796 0.0855507)
(-0.537406 0.142594 0.127803)
(-0.53601 0.0993643 0.0983217)
(-0.494846 -0.0392987 0.0220063)
(-0.4552 -0.101683 0.0124187)
(-0.390209 -0.158705 -0.01096)
(-0.295197 -0.218544 -0.0256172)
(-0.190968 -0.25215 -0.0395105)
(-0.142177 -0.226314 -0.0319983)
(-0.197632 -0.191468 -0.0247975)
(-0.181874 -0.341925 -0.0411549)
(-0.122352 -0.337294 -0.0495361)
(-0.100077 -0.356677 -0.0773415)
(-0.07761 -0.393444 -0.112123)
(-0.0474905 -0.576054 -0.228904)
(-0.0858123 -0.516243 -0.158164)
(-0.0998969 -0.631299 -0.125755)
(-0.145336 -0.638097 -0.086664)
(-0.185888 -0.561023 -0.0742903)
(-0.284479 -0.383867 -0.0381644)
(-0.270294 0.128941 0.103945)
(-0.115227 0.370783 0.268023)
(-0.0154503 0.460294 0.409348)
(0.0611082 0.468935 0.538539)
(0.133868 0.410806 0.61391)
(0.186025 0.304746 0.647407)
(0.236986 0.157509 0.622718)
(0.226307 -0.0131173 0.524114)
(0.0950881 -0.131696 0.420806)
(-0.0187599 -0.0980932 0.433981)
(-0.0377907 0.0233925 0.4116)
(-0.0356903 0.14555 0.415345)
(0.0386232 0.250506 0.356169)
(0.201474 0.137951 0.372261)
(0.158373 0.274844 0.442087)
(-0.0610397 0.167009 -0.0822052)
(-0.174949 -0.0684762 -0.636129)
(-0.182155 -0.306331 -0.529509)
(-0.168781 -0.341707 -0.298615)
(-0.145483 -0.300486 -0.0924483)
(-0.0626303 -0.583286 -0.104378)
(-0.0285558 -0.86053 -0.0922265)
(0.0016478 -1.01831 -0.0902953)
(0.0318438 -1.1425 -0.0999773)
(0.0649832 -1.2262 -0.114315)
(0.0954943 -1.27899 -0.128244)
(0.12222 -1.3056 -0.140197)
(0.146345 -1.31423 -0.152232)
(0.167374 -1.31232 -0.164751)
(0.185699 -1.30341 -0.175579)
(0.201312 -1.28906 -0.1841)
(0.215179 -1.26971 -0.189282)
(0.227447 -1.24503 -0.192024)
(0.238656 -1.21365 -0.19088)
(0.248222 -1.17418 -0.185669)
(0.253991 -1.12432 -0.174825)
(0.251155 -1.06145 -0.158143)
(0.194365 -0.997998 -0.138349)
(0.139511 -0.912804 -0.122249)
(0.164054 -0.828592 -0.086611)
(0.187295 -0.727898 -0.0878192)
(0.203418 -0.559169 -0.0877235)
(0.246065 -0.442029 -0.0841113)
(0.0717827 -0.0303396 -0.0949957)
(0.365409 -0.297891 0.0437996)
(0.245227 -0.550309 -0.0566592)
(0.285444 -0.0945135 -0.0265748)
(0.180138 -0.0367572 -0.146639)
(0.201134 -0.11239 -0.123645)