/*--------------------------------*- C++ -*----------------------------------*\
| =========                 |                                                 |
| \\      /  F ield         | OpenFOAM: The Open Source CFD Toolbox           |
|  \\    /   O peration     | Version:  v2012                                 |
|   \\  /    A nd           | Website:  www.openfoam.com                      |
|    \\/     M anipulation  |                                                 |
\*---------------------------------------------------------------------------*/
FoamFile
{
    version     2.0;
    format      ascii;
    class       volScalarField;
    location    "20";
    object      alphat;
}
// * * * * * * * * * * * * * * * * * * * * * * * * * * * * * * * * * * * * * //

dimensions      [1 -1 -1 0 0 0 0];


internalField   nonuniform List<scalar> 
18258
(
0.0055838
0.00276547
0.00242074
0.00210909
0.00135382
0.00210606
0.0027366
0.00321703
0.0033185
0.00317433
0.003182
0.00521459
0.00719761
0.00876632
0.00918041
0.00918809
0.00814978
0.00779814
0.00802374
0.0102113
0.00870765
0.00562108
0.00689789
0.00794352
0.00791569
0.00690195
0.00558389
0.00528445
0.00491618
0.00425673
0.00374662
0.00310769
0.00214981
0.00174776
0.00143073
0.00146483
0.00144141
0.00138594
0.00127396
0.00141455
0.00152896
0.00161691
0.00163577
0.00169402
0.001668
0.00149235
0.00228437
0.00257593
0.00212966
0.00234177
0.00215567
0.00208567
0.00242112
0.00215484
0.00149276
0.00145384
0.00129146
0.00151324
0.00161762
0.00163025
0.00166383
0.00169002
0.0017076
0.00172102
0.00175363
0.00182152
0.00189293
0.00190746
0.00187886
0.00183689
0.00179417
0.00172907
0.00167853
0.00163519
0.00157439
0.00148283
0.00137277
0.00119139
0.00110882
0.0014809
0.00187176
0.00198144
0.00282185
0.00349438
0.00342967
0.00252289
0.00177721
0.0018892
0.00212573
0.00218714
0.00198816
0.0022252
0.00250633
0.00264054
0.00282262
0.00313806
0.0035873
0.00372022
0.00343057
0.00331158
0.0032321
0.00317541
0.00291569
0.00374633
0.00387807
0.0038068
0.00371137
0.0039031
0.00464769
0.00437549
0.00348221
0.00316341
0.00313258
0.00300574
0.00272798
0.00290836
0.00270774
0.00241885
0.00275446
0.00323146
0.00300688
0.00321807
0.00340999
0.00326069
0.00387142
0.00427999
0.00436232
0.00350806
0.00304744
0.00282486
0.00281674
0.0017053
0.001852
0.0019381
0.00202421
0.00211504
0.00217454
0.00224395
0.0022616
0.00227902
0.00227781
0.00233238
0.001275
0.0013837
0.00139331
0.00138405
0.00134897
0.00131744
0.00126554
0.00121345
0.0011662
0.00110382
0.00131766
0.00153799
0.00174065
0.00191498
0.00208171
0.00222996
0.00236004
0.00247434
0.00256502
0.00261875
0.00266958
0.00263345
0.00254252
0.0026281
0.00263629
0.00258136
0.00247776
0.00233619
0.00216465
0.00191925
0.00171653
0.00142926
0.00167062
0.00164716
0.00164773
0.00157227
0.00156414
0.00148749
0.00136864
0.00124952
0.00138095
0.00147167
0.00155577
0.00158624
0.00157488
0.00153066
0.00190452
0.0022808
0.00348746
0.00423521
0.00493992
0.00534456
0.00584214
0.0046522
0.00512871
0.00392276
0.00354063
0.00452361
0.0060053
0.00339392
0.00181294
0.00344668
0.00309011
0.00237826
0.00214881
0.00225472
0.00224567
0.00209884
0.00192371
0.001778
0.00189113
0.00196442
0.00211401
0.00221737
0.00235356
0.00243174
0.00252205
0.00228384
0.0027275
0.00218237
0.00232566
0.00246535
0.00225147
0.0029963
0.00292579
0.0023402
0.00204903
0.00188969
0.00223218
0.00298383
0.00329237
0.00356126
0.00392177
0.00511516
0.00465146
0.00451115
0.00354419
0.0033785
0.00181798
0.00258872
0.0025769
0.00290519
0.0019202
0.00180595
0.00173891
0.00216494
0.00167784
0.00189039
0.00212633
0.00261405
0.00214486
0.00241377
0.00246252
0.00223281
0.00197698
0.00238507
0.00238062
0.00193636
0.00177547
0.0022317
0.00222091
0.00175451
0.00146195
0.0020832
0.0020406
0.00157298
0.00405452
0.00460655
0.0049125
0.00566462
0.00661538
0.00793485
0.00653507
0.0059857
0.00771232
0.00616294
0.00543312
0.00523149
0.00438438
0.00340317
0.00378407
0.00412641
0.00437005
0.0047595
0.00510344
0.00554526
0.00604874
0.00572191
0.00512211
0.0041567
0.00281747
0.00251057
0.00244897
0.00221178
0.00334957
0.00526031
0.00545333
0.00318285
0.00188199
0.00217148
0.00238906
0.00223314
0.0015497
0.000998291
0.00148581
0.0015422
0.00144667
0.00133899
0.00148997
0.00171035
0.00281352
0.00438553
0.00485848
0.00506016
0.00524803
0.00538354
0.00546373
0.00549691
0.00551968
0.005544
0.00556503
0.00559054
0.00557673
0.00545773
0.00479543
0.00300218
0.00175657
0.00164236
0.00181789
0.00195917
0.00208715
0.00178245
0.00108366
0.00173864
0.0022241
0.00254592
0.0025631
0.00238894
0.00231442
0.00364593
0.00484563
0.00570721
0.00586889
0.00592606
0.00583425
0.00579331
0.0056299
0.00554711
0.00482625
0.00352392
0.00387206
0.0041656
0.00422982
0.00434501
0.00452117
0.0044418
0.0042183
0.00602119
0.00688878
0.00699578
0.00722348
0.00716313
0.00696584
0.00655457
0.0061281
0.00513405
0.00383533
0.00240825
0.00244655
0.00258989
0.0025442
0.00219287
0.00236529
0.00261113
0.00264159
0.00273585
0.00312635
0.00356315
0.00335434
0.00286312
0.00250218
0.00233722
0.00230921
0.00222361
0.00169095
0.00170921
0.00164942
0.0016664
0.00217209
0.0025559
0.00296641
0.00428321
0.00380786
0.00306173
0.00507281
0.00508664
0.00560474
0.00620353
0.00639326
0.00731482
0.00485444
0.00428349
0.00439797
0.00357279
0.00327225
0.00328105
0.00328708
0.00299682
0.00329884
0.00327339
0.00315206
0.0034841
0.00393119
0.00520775
0.00638335
0.00678809
0.00704919
0.00717419
0.00709055
0.00681937
0.00677589
0.00590099
0.00584734
0.00562461
0.00546265
0.00539895
0.0051052
0.00594086
0.00619101
0.00627378
0.00642685
0.00664939
0.00655758
0.00636257
0.00620528
0.00608082
0.00593772
0.00604598
0.00618949
0.0063367
0.00652856
0.00677344
0.00688593
0.00662909
0.00641549
0.00625485
0.00610446
0.00613917
0.00627873
0.00643671
0.00663771
0.00685208
0.006708
0.00656273
0.00639012
0.00623819
0.00609728
0.00589296
0.00605983
0.00623346
0.00636573
0.00641624
0.00549969
0.00592823
0.0058351
0.00527572
0.00492413
0.00373651
0.00404502
0.00427247
0.00465177
0.00515577
0.00524626
0.00436709
0.00372276
0.00358682
0.00354972
0.00362451
0.00366292
0.00371639
0.00422675
0.00686751
0.00686629
0.00676885
0.00672091
0.0055889
0.00543678
0.00514258
0.0103248
0.00942477
0.00793552
0.00617284
0.00322923
0.0027659
0.00327864
0.00398205
0.00446086
0.00497849
0.00333829
0.00202854
0.00235377
0.00239827
0.00226679
0.0020688
0.0017169
0.00160721
0.00145069
0.00158145
0.00285776
0.00462974
0.00521231
0.00521883
0.00502781
0.00508054
0.00679718
0.00794565
0.00871686
0.00922853
0.00953128
0.00971848
0.00968613
0.0089197
0.00763041
0.00460384
0.00261588
0.00231313
0.00242192
0.00244884
0.0027039
0.00278456
0.0024522
0.00240022
0.00241785
0.00410455
0.00682493
0.0077285
0.00845908
0.00897514
0.00902021
0.00853868
0.00795103
0.00681454
0.00565724
0.00535378
0.00553711
0.00562732
0.00559612
0.00506141
0.0030835
0.00183103
0.00162295
0.00170296
0.00200904
0.00216524
0.00222893
0.00222148
0.00194636
0.00327494
0.00516148
0.00330034
0.00178153
0.00190253
0.00186954
0.0033078
0.00331562
0.00328213
0.00513185
0.00548343
0.00554876
0.00520831
0.00490474
0.00295189
0.00339593
0.00339849
0.00339844
0.00342681
0.00172316
0.00189363
0.00197359
0.0021602
0.00186574
0.00223781
0.00056745
0.000832269
0.000953655
0.00105232
0.00112687
0.00109463
0.00212032
0.00220681
0.00212376
0.0020143
0.00254418
0.00271661
0.00273295
0.00248539
0.0022898
0.00245031
0.00248614
0.00236716
0.00222945
0.00228737
0.00226902
0.00217134
0.00184548
0.00172935
0.00190192
0.00189412
0.00189209
0.00339939
0.0033798
0.00318196
0.00529123
0.00526296
0.00589366
0.00588907
0.00582101
0.00573701
0.00579796
0.00588784
0.00595987
0.00596624
0.00591297
0.00585465
0.00898499
0.00570577
0.00497145
0.00287154
0.00276311
0.0019485
0.00171251
0.0020209
0.00216486
0.00235046
0.00230006
0.0024224
0.00242004
0.00256734
0.00238223
0.00211458
0.00323787
0.00346116
0.00338293
0.00345131
0.00336831
0.00334823
0.00332163
0.00327035
0.00320907
0.00190984
0.00187146
0.00219606
0.00230864
0.00248261
0.00250481
0.00255929
0.00242723
0.00213485
0.00206641
0.00237893
0.00234658
0.00239203
0.00225273
0.00224442
0.00200104
0.00205309
0.00413576
0.00814369
0.00391225
0.00437688
0.00394969
0.004536
0.0039397
0.00338556
0.00346623
0.00306406
0.00319679
0.00335445
0.00341406
0.00359041
0.00423095
0.00406043
0.00356427
0.00346078
0.00339714
0.00320704
0.0028883
0.0030172
0.00303029
0.00308944
0.0034226
0.00397641
0.0044096
0.0055326
0.00534316
0.00457709
0.00423546
0.00446232
0.00452657
0.0057839
0.0054014
0.0053616
0.0057207
0.00570427
0.00540521
0.00503506
0.0048048
0.00406559
0.00415196
0.00475692
0.00457718
0.0047032
0.00458942
0.00480834
0.00485877
0.00462792
0.00426318
0.00458047
0.0045973
0.00510023
0.00491634
0.00452395
0.00409089
0.0044249
0.00447441
0.00515387
0.00479628
0.00449795
0.00407999
0.00402149
0.00459083
0.00448088
0.00503905
0.00523138
0.00527997
0.00462921
0.00449509
0.00530689
0.00513204
0.00502494
0.00526755
0.0043974
0.00441418
0.00545269
0.00557537
0.00534575
0.00451264
0.00449064
0.00381959
0.00449864
0.00565543
0.00538725
0.0044299
0.00377589
0.00512173
0.00533301
0.00568512
0.00530544
0.00577507
0.00631408
0.0050881
0.00557721
0.00739084
0.00541492
0.0062868
0.00641198
0.00641909
0.00637737
0.00634338
0.0063035
0.00654433
0.0062187
0.0041281
0.0049057
0.00499898
0.0041982
0.00358513
0.00392931
0.00422267
0.00428125
0.00439016
0.00455339
0.00445785
0.00420464
0.00608115
0.00693536
0.00707844
0.00729967
0.00721002
0.00701576
0.00663476
0.0062319
0.00523124
0.00391403
0.00246548
0.00251423
0.0026759
0.00264586
0.00228483
0.00171428
0.00113285
0.00169751
0.00180172
0.00173233
0.001612
0.00146287
0.00157746
0.0028407
0.00460439
0.00520583
0.00523463
0.00506944
0.00497285
0.00686963
0.00811133
0.00892063
0.00943021
0.00970729
0.00980737
0.00971226
0.0088331
0.00848234
0.00808807
0.00784033
0.00742895
0.00687512
0.00764798
0.00827155
0.00863275
0.00907998
0.00930895
0.00929995
0.00811515
0.00768618
0.00803596
0.0102913
0.0087347
0.0109727
0.0131567
0.010055
0.00937887
0.00963777
0.0108275
0.0109432
0.0105297
0.00998587
0.00940342
0.00867812
0.00903718
0.00935276
0.00967763
0.0100353
0.011056
0.0111238
0.0109793
0.0106736
0.0100772
0.00916786
0.00757905
0.00523537
0.00523245
0.00554368
0.00557212
0.00494865
0.00274284
0.00310466
0.00311663
0.00316573
0.00311706
0.00143819
0.00158349
0.00160451
0.00162532
0.00152551
0.0017695
0.00255394
0.00432336
0.00314885
0.00269266
0.00159613
0.00180287
0.0030538
0.00505959
0.00562194
0.00566771
0.00558498
0.00539558
0.00572706
0.0069824
0.00816723
0.00877926
0.00924936
0.00912934
0.00857027
0.00783195
0.00757054
0.00729389
0.00704948
0.0069388
0.00664379
0.00644116
0.00614313
0.00580576
0.00545179
0.00499627
0.0046728
0.00429515
0.00443944
0.00458479
0.00471203
0.00480075
0.00497688
0.00517519
0.00535084
0.0054565
0.00551328
0.00554966
0.00558592
0.00561535
0.00564707
0.00563664
0.00551727
0.00484587
0.00303334
0.00177344
0.00163931
0.00179837
0.0019029
0.00194814
0.00173424
0.00111982
0.00173989
0.00225517
0.00231289
0.00254158
0.00261964
0.00276577
0.00301521
0.0034868
0.00360874
0.00321135
0.00302545
0.00296013
0.00288561
0.00247037
0.00310431
0.00340469
0.00339785
0.00336744
0.00364764
0.00448214
0.00431096
0.00380155
0.00375838
0.00372107
0.00339167
0.00335345
0.00362777
0.00366544
0.00379921
0.00445023
0.00533198
0.00494223
0.00450891
0.00433099
0.00400692
0.00355854
0.00322219
0.00394887
0.00336704
0.00187716
0.00175818
0.00157186
0.00158633
0.00156571
0.00184823
0.00193921
0.00197615
0.00185438
0.00202357
0.00220684
0.00207885
0.00227247
0.00228162
0.00211275
0.00207715
0.00215925
0.00222399
0.00231665
0.00235923
0.00396693
0.00420113
0.00321325
0.0046661
0.00523925
0.0050092
0.00535548
0.00444101
0.00406237
0.0048482
0.00548562
0.00608799
0.00485163
0.00467008
0.00470412
0.00217157
0.00114467
0.00161173
0.00201546
0.00230188
0.0022645
0.00214913
0.00182771
0.00326104
0.00330946
0.00518281
0.00579551
0.0058567
0.00581544
0.005731
0.00562851
0.00590479
0.00676271
0.00767763
0.00829297
0.00823119
0.00765236
0.00693096
0.00677801
0.00662551
0.00654984
0.00657118
0.00623957
0.00586496
0.00520581
0.00468924
0.00477261
0.00494742
0.00506527
0.00516128
0.00528492
0.00542414
0.00555194
0.00564894
0.00572193
0.00578568
0.00584681
0.00590286
0.00595692
0.00598436
0.0059274
0.00535511
0.00321328
0.00191877
0.00174901
0.00186702
0.00219339
0.00230965
0.00248206
0.00220449
0.00116396
0.00137225
0.00239141
0.00263999
0.00243994
0.00228107
0.00225183
0.00188319
0.00339686
0.00337096
0.0052812
0.0059375
0.00602019
0.00600085
0.00594891
0.0058868
0.00581861
0.00575711
0.00570224
0.00564439
0.00557312
0.00549617
0.00541687
0.00531803
0.0051588
0.0049476
0.00572365
0.00539487
0.00541234
0.00579062
0.00601634
0.00599107
0.00581858
0.00571959
0.00574269
0.0058021
0.00586658
0.00592903
0.00598594
0.00601031
0.00593707
0.00558969
0.00523981
0.00333951
0.00337534
0.00167099
0.00184839
0.00214106
0.00222014
0.00238641
0.00238373
0.00187577
0.00146314
0.00165318
0.00152027
0.00270548
0.00300284
0.00334901
0.00332156
0.00181548
0.00186921
0.00193632
0.0021935
0.00203904
0.00194599
0.00482151
0.00468551
0.00489906
0.00589336
0.00514248
0.00361106
0.00388047
0.00542996
0.00569252
0.00343614
0.00260398
0.00282813
0.00360225
0.0053347
0.00536193
0.00503387
0.00503291
0.00368638
0.00451036
0.0054083
0.00525734
0.00413662
0.0028542
0.00210848
0.00103624
0.0019724
0.00167935
0.00407821
0.0045078
0.00443468
0.00484765
0.00517429
0.00523371
0.00506296
0.00451758
0.00460964
0.00465504
0.00529926
0.00530521
0.00451652
0.00381064
0.0031087
0.00312472
0.00317286
0.00349219
0.00436542
0.00413098
0.00363147
0.00353108
0.00346659
0.00326591
0.00295224
0.00259371
0.00261005
0.00242858
0.00234982
0.00369934
0.00491608
0.00579177
0.00596
0.00602387
0.00593747
0.00590411
0.00574766
0.00567683
0.00495133
0.00646501
0.00675319
0.00647907
0.00650127
0.00651934
0.00654664
0.00652634
0.00638913
0.00549845
0.00328707
0.00214761
0.00242211
0.00261371
0.00245597
0.00243836
0.00259774
0.00246566
0.00216788
0.00351429
0.00343467
0.00548894
0.00621212
0.00636572
0.00640269
0.00640348
0.00640638
0.00643705
0.00679808
0.00664356
0.00660793
0.00640651
0.00641097
0.00658175
0.00625096
0.0062375
0.00625114
0.00626721
0.0062468
0.00610796
0.00540356
0.00523556
0.00594191
0.00610988
0.00615214
0.00616236
0.00617434
0.00621982
0.00642755
0.00655413
0.00660381
0.00677142
0.00675139
0.0066008
0.00637987
0.0063291
0.00631064
0.00628766
0.00622927
0.00604553
0.00531855
0.00341937
0.00350435
0.002083
0.00209739
0.00241312
0.00253407
0.00248861
0.00230293
0.00224617
0.00381638
0.00433372
0.00463668
0.00497803
0.00474141
0.00473117
0.00543078
0.00524602
0.00470476
0.0048887
0.00436587
0.00413776
0.00399568
0.00400037
0.00214546
0.00231645
0.00241701
0.0023777
0.00227335
0.00202947
0.00186096
0.00339951
0.00337111
0.00331625
0.00197652
0.00193129
0.00227669
0.00220969
0.00202028
0.00172084
0.00188746
0.00290523
0.00325221
0.00503441
0.00522537
0.00561459
0.00600994
0.00616914
0.00622489
0.00624262
0.00624282
0.00625779
0.00627533
0.00626002
0.00619661
0.00614983
0.00618378
0.00619679
0.00616514
0.00613633
0.00612458
0.00610758
0.00606135
0.00591112
0.00552946
0.00515335
0.00580647
0.00585976
0.00596828
0.0060815
0.00611144
0.00610473
0.00606919
0.00603943
0.00601187
0.00596128
0.0059067
0.00583592
0.00591681
0.00598455
0.0060434
0.00610822
0.00618191
0.00620077
0.00616963
0.00605576
0.00594247
0.00588367
0.00577683
0.00592284
0.00599007
0.00599582
0.00603816
0.00609666
0.00607069
0.00598076
0.00582234
0.00568056
0.00555183
0.00544265
0.00529761
0.00549069
0.00560637
0.00570014
0.00578841
0.0058796
0.00598024
0.00604031
0.00605225
0.00597763
0.00592897
0.00592121
0.00585503
0.00587947
0.00592712
0.00591679
0.00593467
0.0059648
0.00590789
0.00578416
0.00561698
0.00546017
0.00532094
0.00519556
0.00504129
0.00489349
0.00504529
0.00511724
0.00527167
0.00546618
0.00569778
0.00586276
0.00595462
0.00595771
0.00595825
0.00597979
0.00593848
0.00590531
0.00592719
0.00588992
0.00586782
0.00584502
0.00570583
0.00547023
0.0051641
0.00497626
0.00491876
0.00499339
0.00486774
0.00464225
0.00478162
0.00490577
0.00509257
0.00530464
0.00555777
0.00576883
0.00588592
0.00587626
0.00587552
0.00589507
0.00585932
0.00582431
0.00584639
0.00581703
0.00579312
0.00574631
0.00558245
0.00532062
0.00505637
0.00487444
0.00479959
0.00480154
0.00472018
0.00496243
0.00510943
0.00510127
0.00497831
0.00504325
0.00534425
0.0055888
0.00573279
0.00578185
0.00581606
0.00586044
0.00585584
0.00579661
0.00579327
0.00576358
0.00577085
0.00582849
0.0057773
0.00567313
0.00540419
0.00508986
0.00513827
0.00512322
0.00494503
0.00471595
0.00481663
0.00480753
0.00480907
0.00506542
0.00535563
0.00557211
0.0057154
0.00573488
0.005756
0.00578813
0.00577832
0.00571658
0.00570662
0.00567826
0.00568289
0.0057157
0.00565058
0.00551869
0.0053038
0.0051133
0.0052004
0.00499339
0.00486722
0.00506822
0.00526425
0.00547305
0.00536215
0.00575143
0.00597021
0.00598464
0.00594313
0.00578175
0.00571089
0.0057127
0.0057248
0.00563521
0.00559919
0.00563131
0.00581233
0.00607415
0.00616611
0.00624318
0.0060802
0.00555478
0.00553727
0.00527984
0.00505889
0.00484963
0.00500807
0.00533495
0.00537835
0.00570828
0.00584434
0.0058404
0.0058157
0.00566039
0.0055743
0.00558921
0.00563753
0.00554124
0.00524302
0.00497247
0.00520222
0.00532912
0.00534476
0.00531008
0.00519892
0.00480068
0.00510975
0.00522434
0.00513026
0.00532173
0.0055085
0.00528588
0.00490482
0.00548803
0.00562724
0.00558844
0.00552142
0.00532808
0.00502596
0.00526002
0.00552542
0.00543966
0.00489613
0.00317101
0.0031831
0.00314639
0.0031021
0.00304164
0.00298799
0.00292262
0.00283227
0.00276408
0.00265898
0.00264268
0.00279273
0.00288225
0.00299817
0.00303969
0.00305366
0.00305473
0.00312664
0.00304828
0.00283909
0.00364723
0.00424268
0.00443261
0.00470947
0.0047034
0.00516745
0.00526443
0.00529141
0.0052883
0.00462644
0.00418217
0.00345101
0.00226819
0.00140905
0.00169104
0.00179472
0.00198344
0.00212085
0.00329617
0.00165043
0.00234739
0.00184341
0.00317575
0.0016056
0.00129763
0.000856027
0.00108793
0.00132599
0.00133094
0.00126047
0.00105288
0.000803177
0.000820704
0.000753488
0.000799601
0.000715779
0.000818343
0.000762496
0.000972724
0.00100883
0.001027
0.00102732
0.000750592
0.00081084
0.000681948
0.000772584
0.000706751
0.000744312
0.000722888
0.000902124
0.0011323
0.00119968
0.00128637
0.00119277
0.000929981
0.00108849
0.00092463
0.00110358
0.000875779
0.00109409
0.000960048
0.00126694
0.00131597
0.00132313
0.00128736
0.000998054
0.00125181
0.000964834
0.00121281
0.000947653
0.00107924
0.000936907
0.00136097
0.00140205
0.0013029
0.00140352
0.00155643
0.00166468
0.00182173
0.00171308
0.00193327
0.00187124
0.00191912
0.00174533
0.00161166
0.00155274
0.00154387
0.00150798
0.00150548
0.00153953
0.00151327
0.00149892
0.00152461
0.00144681
0.00134066
0.0012656
0.00104434
0.000809459
0.00130575
0.00129749
0.00126118
0.00123686
0.00118691
0.00112693
0.00105644
0.000947029
0.000914346
0.000953245
0.000961629
0.000978733
0.000970972
0.00107073
0.000581016
0.000632637
0.000630064
0.000615746
0.000571779
0.000606974
0.00069668
0.000754577
0.000803232
0.000821415
0.000839844
0.000823869
0.00108032
0.00134135
0.00147549
0.00159319
0.00155077
0.00149225
0.00361742
0.00459922
0.00641564
0.00668053
0.00522311
0.0049226
0.00142577
0.0016711
0.0011318
0.00162624
0.00169018
0.0016745
0.00157695
0.00112849
0.00176008
0.00125532
0.00186351
0.00137768
0.00172836
0.00142499
0.00201097
0.00259024
0.00255046
0.00237471
0.00169528
0.00129136
0.0012804
0.00108962
0.0011992
0.000973631
0.00118429
0.000969531
0.00128174
0.00135641
0.00141218
0.0014045
0.00100232
0.00121926
0.000966498
0.00119084
0.00104336
0.00124879
0.00112756
0.0013501
0.00184135
0.0019937
0.00203386
0.00171849
0.00143566
0.00169998
0.00148652
0.00180157
0.00276431
0.00176401
0.00287042
0.0011893
0.00163779
0.00169801
0.00168212
0.00159344
0.0010874
0.00274548
0.00148505
0.00276313
0.00180423
0.00291042
0.00204827
0.00269773
0.00328753
0.00346652
0.00343243
0.0027883
0.00241961
0.00245204
0.00193383
0.00232152
0.00172189
0.00249076
0.00141388
0.00179769
0.00186745
0.00186768
0.00179169
0.00138675
0.00269197
0.00174273
0.00241697
0.00182587
0.00224524
0.00189117
0.00202647
0.00243723
0.00253323
0.00260688
0.00232708
0.00191106
0.00256233
0.00178737
0.0567861
0.12541
0.0525481
0.12959
0.0551394
0.0791104
0.0777259
0.0776068
0.0775276
0.0558651
0.126404
0.154409
0.162161
0.164556
0.163265
0.263726
0.214808
0.319733
0.205065
0.12407
0.0568887
0.0815785
0.190286
0.306494
0.465072
0.598763
0.407121
0.423168
0.269936
0.265468
0.247931
0.196037
0.113574
0.0531556
0.0111585
0.0128161
0.0171901
0.0230672
0.0197478
0.0132215
0.00279957
0.00283371
0.00284463
0.00283004
0.0027723
0.00267833
0.00271612
0.00258739
0.00250068
0.00312988
0.00351065
0.00323905
0.00281263
0.00275422
0.00269526
0.00338639
0.00384065
0.0041948
0.00449445
0.00484119
0.00519439
0.00555443
0.00572383
0.00548776
0.00485698
0.00391959
0.00293798
0.00263636
0.0024989
0.00227127
0.00216204
0.00209476
0.00204908
0.00203681
0.00208231
0.00227984
0.00239009
0.00231634
0.0019664
0.00175574
0.00154962
0.00146044
0.00183187
0.00255407
0.0025406
0.00449144
0.00527235
0.00543006
0.00547128
0.00489793
0.00315881
0.00318193
0.00320557
0.00329599
0.00332248
0.00337321
0.0033717
0.00337913
0.00336062
0.00334629
0.00332441
0.00327776
0.00321398
0.00304294
0.00304106
0.00296138
0.00295838
0.00292148
0.00291441
0.00295341
0.00452184
0.00562535
0.00609576
0.00638752
0.00677294
0.00649174
0.0090429
0.00776393
0.00527173
0.00478319
0.00471312
0.00531942
0.00513508
0.00533789
0.00559118
0.00490397
0.00304559
0.00310457
0.00310391
0.00338125
0.00344801
0.00350968
0.00352907
0.00351062
0.00352014
0.00348817
0.00348353
0.00340209
0.00336664
0.00324472
0.00320874
0.00318016
0.00174362
0.00191502
0.00200945
0.00203607
0.0020886
0.00208095
0.00207234
0.00205051
0.00204715
0.00202119
0.00199379
0.00193607
0.00178057
0.00163253
0.00174881
0.00305188
0.00300759
0.00494129
0.00561746
0.00562319
0.00542554
0.00538145
0.00523765
0.00525195
0.00545347
0.00539654
0.00511285
0.00298674
0.00299257
0.00163708
0.00171157
0.0019754
0.00198406
0.00216727
0.00223179
0.00224154
0.00227254
0.00230442
0.0023439
0.00241391
0.00242321
0.00235779
0.00233125
0.00216791
0.00185611
0.00185712
0.00221393
0.00235783
0.00220227
0.00218719
0.00217673
0.00211486
0.00206708
0.00201801
0.00203801
0.00218858
0.00216438
0.00208028
0.00190275
0.00210299
0.00162476
0.00232876
0.00395154
0.00470221
0.00662881
0.0061843
0.00541494
0.00546919
0.0068104
0.00793537
0.00628043
0.00567232
0.00662341
0.00721415
0.00506783
0.00498111
0.00264529
0.00256925
0.00310229
0.00293214
0.003215
0.00247051
0.00237528
0.00193246
0.00180142
0.00164683
0.00164085
0.00164943
0.00169871
0.0017235
0.00176024
0.00176819
0.00181815
0.00181439
0.00181351
0.00183435
0.00182695
0.00201751
0.00216235
0.0018324
0.00156034
0.00153248
0.00144853
0.00138335
0.00141738
0.00137748
0.00136451
0.00133249
0.00129875
0.00122667
0.00126627
0.00133955
0.00156896
0.00173446
0.00135988
0.00114031
0.000762666
0.000758966
0.000765185
0.000791295
0.000805938
0.000821814
0.000829773
0.000846224
0.000851084
0.000857343
0.000857847
0.000881656
0.000879527
0.000869066
0.000862956
0.000864127
0.000866221
0.000865254
0.00126944
0.00141056
0.0015294
0.00180523
0.00207824
0.0018028
0.00154699
0.00134541
0.000865104
0.000876226
0.000889479
0.000896635
0.000910021
0.000922983
0.00093339
0.000936919
0.000935232
0.000932703
0.000931927
0.000921323
0.000910347
0.000874276
0.000856181
0.000866179
0.000919139
0.000965649
0.000992464
0.00100493
0.000988581
0.0010105
0.000993977
0.00100844
0.000984612
0.00098301
0.000959951
0.000957183
0.00094889
0.00095038
0.000942194
0.000931751
0.000926363
0.000966757
0.00171554
0.00234224
0.00286281
0.00326173
0.0031198
0.00266625
0.00275645
0.00508421
0.00492589
0.0028654
0.00273122
0.00263345
0.00248758
0.00229086
0.00202872
0.00216192
0.00265415
0.00302096
0.00332746
0.00358002
0.00389426
0.00425013
0.00483384
0.00499968
0.00464308
0.00374219
0.00297603
0.00246565
0.00230115
0.00221086
0.00217
0.00230099
0.00236349
0.00231569
0.00226496
0.00225164
0.00228182
0.00223665
0.00207735
0.0017878
0.00147898
0.00150134
0.00281101
0.002819
0.00446397
0.00482148
0.00494777
0.00317339
0.00316098
0.00184702
0.00173124
0.00189213
0.00196879
0.00198741
0.00202356
0.00200936
0.00199681
0.00196807
0.00195447
0.00192249
0.00190207
0.00184745
0.0017501
0.00160033
0.00172003
0.00195548
0.00207031
0.00211458
0.0021291
0.00217519
0.00221104
0.00225712
0.00231872
0.00234123
0.0022957
0.002278
0.0021389
0.00217895
0.00184858
0.00182165
0.00314883
0.00309271
0.00177659
0.00208299
0.00214103
0.00210029
0.00229374
0.00214589
0.00211784
0.00209535
0.00204071
0.00199328
0.00194125
0.00189221
0.0019229
0.00202605
0.00193403
0.00168236
0.00160177
0.00184871
0.00180598
0.00150992
0.00129453
0.00126005
0.00120821
0.00117308
0.00123333
0.00127024
0.00129423
0.00132085
0.00133116
0.00136333
0.00133246
0.00140361
0.00148559
0.001513
0.00177585
0.00196352
0.00177923
0.00177865
0.00175655
0.00174713
0.00174815
0.00170735
0.00170036
0.00166725
0.00164729
0.00160874
0.00157769
0.00154517
0.00154262
0.0015602
0.00170777
0.00479348
0.00634257
0.00661424
0.0123622
0.0041743
0.00435068
0.0102879
0.00334491
0.0053795
0.00597657
0.00612998
0.00644433
0.00583764
0.00923782
0.00502794
0.00524557
0.00583513
0.00598665
0.0025254
0.00267599
0.00277851
0.00238859
0.00204968
0.00131242
0.0013666
0.00136872
0.00138458
0.00137357
0.00138308
0.00136568
0.00136978
0.00134953
0.00134492
0.00128439
0.0012424
0.00116091
0.00115409
0.00115788
0.00115491
0.00107645
0.00105867
0.00104856
0.00102775
0.00101758
0.000993008
0.000984813
0.00097147
0.000964604
0.000947277
0.000929664
0.000907792
0.000886767
0.000870482
0.000844642
0.000823249
0.000795202
0.000792754
0.0011503
0.00124398
0.00132494
0.00154573
0.00185028
0.0019237
0.00174052
0.00164646
0.00155908
0.00202338
0.00192226
0.00357244
0.0053003
0.00264719
0.00274057
0.00667664
0.0028343
0.0028706
0.002908
0.00298569
0.00303835
0.00172859
0.00202532
0.00194978
0.00200531
0.00174053
0.00147061
0.00136588
0.00123057
0.000832722
0.000831496
0.000837192
0.000846766
0.000848556
0.000829169
0.000828741
0.000824439
0.00082147
0.000808838
0.000802943
0.000791925
0.000784678
0.000774627
0.0007767
0.00078107
0.000868765
0.0010473
0.00121055
0.00141502
0.00154571
0.00180319
0.00189398
0.00198827
0.00498649
0.00442821
0.00621936
0.00647843
0.0104469
0.00646532
0.00474246
0.00420996
0.00632816
0.00645954
0.00668466
0.00883693
0.00662273
0.00556965
0.00969856
0.00890662
0.00743386
0.00939974
0.0102905
0.011758
0.0105045
0.00256075
0.00218586
0.00220367
0.00261336
0.00314158
0.00299886
0.00337893
0.00344959
0.00277301
0.00174013
0.00523505
0.00800014
0.00778764
0.0103678
0.01051
0.00372992
0.00361917
0.00315256
0.00255001
0.00221544
0.00221405
0.00259294
0.00317214
0.00925883
0.00970579
0.0100956
0.0115521
0.0115806
0.0104498
0.0104784
0.0106456
0.0100159
0.00950521
0.00995523
0.00925379
0.0057303
0.00410113
0.00450259
0.00609684
0.00610369
0.0142171
0.0042016
0.00490571
0.00504736
0.00687113
0.00605763
0.0112556
0.00443431
0.00502377
0.00655756
0.00811041
0.0174654
0.00540875
0.00613106
0.00888219
0.00862813
0.00758794
0.00561928
0.00539084
0.00634974
0.00472833
0.00460812
0.00399644
0.00585785
0.00801879
0.00631656
0.00606595
0.00498157
0.00510715
0.00454736
0.00490614
0.00411031
0.0040686
0.00464189
0.00338586
0.00518301
0.00443281
0.0014144
0.000506823
0.000495597
0.000490194
0.000493187
0.000496155
0.000502716
0.000505798
0.000509883
0.000507303
0.000508393
0.000523857
0.000524517
0.000508159
0.000462733
0.000526649
0.000837037
0.000838183
0.000524841
0.000464125
0.000827481
0.00129535
0.00147285
0.0017286
0.00173237
0.00149143
0.00133795
0.000845184
0.000835006
0.000510886
0.000595907
0.000649895
0.000577431
0.00064358
0.000597011
0.000633944
0.000629136
0.000599414
0.000597813
0.000604982
0.00060386
0.000606509
0.000609712
0.000626672
0.000659337
0.000713218
0.000765545
0.000796946
0.000527422
0.000533881
0.000753051
0.000955175
0.00110103
0.00110124
0.00105329
0.000959501
0.000859011
0.000764431
0.000691385
0.000662059
0.000666169
0.000663156
0.000663402
0.000691271
0.000684694
0.000729236
0.000682797
0.000728697
0.000684515
0.000626007
0.000525575
0.000537045
0.000855374
0.000859305
0.00135268
0.00149204
0.00170595
0.00169083
0.00187501
0.00195405
0.00168171
0.00166331
0.00186614
0.0017746
0.0015917
0.00164788
0.0014567
0.00148225
0.00135803
0.000869975
0.000865854
0.000551669
0.000542319
0.000649687
0.000641769
0.000719351
0.000771884
0.000775096
0.000772903
0.000738787
0.00073144
0.000669209
0.000668114
0.00068931
0.000709644
0.000776868
0.000898459
0.00104309
0.00119622
0.00133869
0.00131852
0.00124144
0.00114435
0.00101966
0.00084109
0.000708413
0.00131656
0.00128112
0.00297717
0.00978606
0.00513007
0.00567149
0.00362571
0.000819893
0.000875167
0.00110638
0.00121726
0.00131455
0.00143232
0.00142456
0.00132213
0.00101504
0.000806752
0.000985277
0.000843936
0.000875938
0.00073726
0.00094214
0.00106639
0.00101365
0.00100591
0.000838946
0.00067534
0.00071564
0.000628578
0.000697916
0.000602235
0.000730679
0.000652314
0.000822609
0.000845754
0.000842283
0.000812202
0.000629763
0.000687424
0.000580711
0.000644492
0.000586126
0.000618374
0.000592861
0.000692635
0.000804261
0.000778601
0.000780672
0.000644898
0.000508536
0.000560894
0.000480151
0.000547707
0.000437682
0.000546238
0.000472101
0.000639477
0.000718004
0.000789741
0.000836151
0.000698291
0.000873128
0.00102868
0.000972172
0.000884827
0.00078425
0.000563124
0.000848696
0.00077485
0.000924078
0.000805318
0.000860437
0.0007831
0.000896291
0.00113258
0.00117175
0.00116963
0.000944238
0.000929941
0.00171901
0.0993228
0.00155095
0.00183854
0.00190042
0.00189556
0.00156215
0.00155018
0.00190867
0.00143591
0.00201179
0.00128687
0.00214443
0.000833487
0.00124349
0.00134863
0.00136696
0.00131342
0.000998307
0.00276867
0.0923397
0.270755