/*--------------------------------*- C++ -*----------------------------------*\
| =========                 |                                                 |
| \\      /  F ield         | OpenFOAM: The Open Source CFD Toolbox           |
|  \\    /   O peration     | Version:  v2012                                 |
|   \\  /    A nd           | Website:  www.openfoam.com                      |
|    \\/     M anipulation  |                                                 |
\*---------------------------------------------------------------------------*/
FoamFile
{
    version     2.0;
    format      ascii;
    class       volScalarField;
    location    "20";
    object      epsilon;
}
// * * * * * * * * * * * * * * * * * * * * * * * * * * * * * * * * * * * * * //

dimensions      [0 2 -3 0 0 0 0];


internalField   nonuniform List<scalar> 
18258
(
0.0469451
0.0277516
0.0252374
0.0202017
0.0322625
0.0275134
0.0233441
0.0299766
0.0396728
0.054522
0.0715847
0.0588939
0.0506359
0.0503878
0.0522945
0.0499585
0.0362868
0.0315694
0.0353276
0.0653984
0.0623575
0.0521023
0.0686671
0.0573115
0.0560175
0.0674857
0.0518129
0.0497379
0.0484136
0.051035
0.0509744
0.0518932
0.0630748
0.0656342
0.06607
0.0523521
0.0413945
0.0320725
0.0246256
0.0328679
0.0424778
0.0483756
0.0489654
0.0468749
0.0360332
0.0351522
0.0563808
0.0766038
0.0464681
0.0238925
0.0186206
0.0435276
0.0634128
0.0472657
0.0351528
0.0344987
0.0257874
0.0500087
0.0752334
0.0989906
0.114408
0.122431
0.124877
0.123413
0.118263
0.106888
0.0964249
0.0850078
0.0747024
0.0677772
0.063665
0.0599643
0.0567099
0.0544348
0.050795
0.0458152
0.0410469
0.0411126
0.0414438
0.030337
0.0243545
0.022249
0.0161451
0.0140601
0.0135508
0.0122295
0.0122666
0.0116356
0.0103335
0.00948422
0.00992846
0.0120718
0.0127743
0.0138799
0.01502
0.0158378
0.0165445
0.0192552
0.0216282
0.0227355
0.023396
0.02352
0.0242919
0.0299772
0.029117
0.0289393
0.0284551
0.0259137
0.0216463
0.018056
0.0182756
0.017556
0.0160471
0.0134599
0.0114792
0.0121745
0.0134576
0.0139385
0.0165762
0.017597
0.0163776
0.0142964
0.0169022
0.0197434
0.0207951
0.0175416
0.0184726
0.0230102
0.0223526
0.0232924
0.0253601
0.0396335
0.0394497
0.0437099
0.0454597
0.0501792
0.0526681
0.0575856
0.0595775
0.0644869
0.0654496
0.0702614
0.114849
0.102867
0.0954437
0.0912689
0.0852973
0.0810852
0.0748269
0.0704714
0.0632023
0.058882
0.0530289
0.0588899
0.0737272
0.0942278
0.117226
0.140076
0.159182
0.171016
0.185722
0.207825
0.23005
0.252266
0.269731
0.27314
0.271908
0.254546
0.226605
0.192315
0.155315
0.113575
0.0649787
0.0296812
0.0404642
0.0346223
0.0430412
0.0433497
0.0437609
0.0389351
0.0297472
0.0227495
0.0303425
0.0374658
0.0447024
0.0534282
0.0628952
0.0755069
0.0712298
0.0691847
0.0532799
0.0506812
0.047813
0.0494707
0.0693694
0.0757376
0.0618154
0.0833565
0.0995761
0.088506
0.0670983
0.0998502
0.137075
0.0776565
0.0680486
0.0627376
0.0643646
0.0573929
0.0477771
0.0439249
0.0329546
0.0260416
0.0316208
0.0360029
0.0450854
0.0504548
0.0572366
0.0531366
0.0597289
0.0492539
0.0839035
0.0608861
0.023403
0.0279045
0.0670014
0.111232
0.0972203
0.0713348
0.0480896
0.0331665
0.0516742
0.0588229
0.0679214
0.0767439
0.0829035
0.0617079
0.0745652
0.0870051
0.0983104
0.0993625
0.140455
0.102959
0.101358
0.0729223
0.0973187
0.075566
0.0507965
0.0472921
0.0270373
0.0374966
0.0535356
0.0693173
0.0467245
0.0226414
0.0240922
0.0530352
0.0399307
0.0216269
0.0213805
0.0368029
0.0269429
0.0175648
0.0177133
0.0288626
0.0284269
0.0168418
0.0149882
0.0228457
0.0278051
0.028854
0.0371595
0.0533419
0.0886137
0.12733
0.11707
0.109399
0.118917
0.0698026
0.0604061
0.0804877
0.064026
0.0570586
0.102235
0.169616
0.254532
0.326824
0.3909
0.444001
0.462956
0.472318
0.374823
0.202734
0.0584907
0.0335321
0.0299067
0.0312819
0.0202823
0.0135719
0.0143283
0.017673
0.0194166
0.0173964
0.014817
0.0124471
0.011573
0.0127842
0.00708693
0.00655872
0.006254
0.00637159
0.0124221
0.017143
0.0122274
0.00857304
0.00824587
0.00831885
0.00835603
0.00841082
0.00849123
0.00859127
0.00866019
0.00867241
0.00862699
0.00850797
0.00837703
0.00831399
0.00897665
0.0119522
0.0164514
0.0162254
0.0149462
0.0135653
0.0124372
0.00992046
0.0169615
0.0145816
0.0123769
0.0149738
0.0183467
0.0230956
0.0270297
0.0194382
0.0155416
0.0140318
0.0137958
0.0135267
0.0133875
0.0130331
0.0128419
0.0123394
0.0126287
0.0140994
0.017903
0.0201603
0.0227428
0.0246522
0.0257765
0.0270265
0.0241843
0.0245278
0.0236417
0.0246508
0.0252823
0.0248011
0.0219947
0.0192424
0.0173937
0.0185108
0.0226665
0.0304931
0.0248377
0.0189514
0.0149617
0.0118768
0.0139278
0.0162951
0.0165466
0.0157097
0.0163796
0.0163273
0.0141414
0.0130114
0.0120078
0.0114557
0.0112612
0.0115596
0.0170826
0.0158634
0.0157418
0.0162753
0.0159895
0.0146137
0.0153353
0.0152821
0.015391
0.0153044
0.0187983
0.020308
0.0196331
0.0188205
0.0180521
0.0153865
0.0171712
0.0169913
0.0183944
0.019776
0.0196645
0.0191385
0.0183915
0.0157195
0.0177907
0.021067
0.0244864
0.0236181
0.0250278
0.0212755
0.0207315
0.0222966
0.024274
0.0257231
0.0251817
0.0235616
0.022755
0.0261219
0.0251107
0.0242756
0.0222376
0.0197643
0.0169129
0.0153322
0.017018
0.0185952
0.0199911
0.0210887
0.0217333
0.0201983
0.018736
0.0173263
0.0155486
0.015603
0.0174132
0.0189752
0.0207536
0.022828
0.023688
0.021535
0.0195165
0.0177461
0.0158358
0.0160216
0.0179973
0.0198085
0.021727
0.0234028
0.0224487
0.0213607
0.0197147
0.0180445
0.0161433
0.0162948
0.017993
0.0193586
0.0206218
0.0213711
0.021801
0.020149
0.0192099
0.0192321
0.0179673
0.0214674
0.0206451
0.0218025
0.0201558
0.0187057
0.0197167
0.022695
0.0255657
0.0252805
0.0248212
0.0204477
0.0210543
0.0216476
0.0205552
0.0179497
0.0170665
0.0194656
0.0217515
0.021827
0.0208802
0.0184089
0.015668
0.0162612
0.0185539
0.0204476
0.0195619
0.0193483
0.017896
0.0166913
0.0171039
0.0151925
0.0187434
0.028405
0.0253636
0.0220542
0.0178149
0.0136565
0.00914318
0.0103433
0.0111959
0.0120196
0.0103229
0.00808896
0.00725213
0.00685975
0.00617424
0.0065511
0.0159171
0.0256687
0.0338904
0.0398257
0.0432266
0.0446603
0.0439329
0.0364233
0.0363348
0.0431918
0.0544196
0.046861
0.0376293
0.0301306
0.0308052
0.0374779
0.0450098
0.0556548
0.0457833
0.0368888
0.0255345
0.0243005
0.0299355
0.0356489
0.0366773
0.0314671
0.0255565
0.0160802
0.00912517
0.00763389
0.00832426
0.00875644
0.00916516
0.0103615
0.0156172
0.0198415
0.0172333
0.0151202
0.0140676
0.0180754
0.0216495
0.0243883
0.0281725
0.0183486
0.0131312
0.0188405
0.0298965
0.0262004
0.0239137
0.0177742
0.0185511
0.0185949
0.0121349
0.0121296
0.0125637
0.0134879
0.0145245
0.0175511
0.0197229
0.0204934
0.0205695
0.0211627
0.0270363
0.0259248
0.0261356
0.0225575
0.0167475
0.0162399
0.0511898
0.0229926
0.023332
0.0222968
0.022209
0.0230112
0.0177017
0.0170382
0.0167204
0.0174695
0.0253179
0.0249529
0.0236403
0.0194142
0.0184918
0.0224735
0.0245403
0.0257736
0.0246304
0.0233745
0.020777
0.0177365
0.0192147
0.0208266
0.022209
0.0248446
0.0257505
0.0199767
0.0189411
0.0171398
0.0118301
0.0130841
0.0112662
0.0114281
0.0110374
0.0103936
0.00989228
0.0105169
0.010908
0.0107808
0.0101641
0.0104927
0.00949621
0.00953311
0.0106833
0.0165786
0.0160545
0.0190072
0.0212565
0.0183728
0.0171828
0.0157505
0.0146704
0.0171252
0.0158451
0.0186934
0.0234967
0.029326
0.02115
0.020084
0.0198782
0.019451
0.0192438
0.0192954
0.0184943
0.017321
0.0166262
0.0258774
0.0232813
0.019991
0.0190313
0.0174889
0.0199773
0.0193636
0.0236812
0.0297604
0.0299808
0.0238407
0.0239175
0.0209758
0.0221227
0.024568
0.0299772
0.0299533
0.0160593
0.010529
0.01706
0.0173679
0.0201371
0.0187529
0.0202967
0.0216223
0.0223428
0.0224664
0.0195997
0.0209255
0.0217811
0.0229185
0.0206237
0.0182216
0.0190871
0.017742
0.0168197
0.016328
0.0140575
0.0142093
0.0150658
0.0165459
0.017396
0.018994
0.0203138
0.0207146
0.0215255
0.0209848
0.0215561
0.0283784
0.0263532
0.0283551
0.0315896
0.0251031
0.0196942
0.0163112
0.0165294
0.0160809
0.0158474
0.0167679
0.018338
0.0165182
0.0157322
0.0180648
0.0201317
0.025564
0.0330942
0.0278922
0.0263627
0.0351019
0.0340483
0.0400526
0.0302683
0.0298499
0.021816
0.0279268
0.033657
0.0414646
0.027029
0.0223697
0.0238625
0.0282912
0.0382982
0.0350461
0.0342787
0.0441081
0.0434785
0.0407204
0.0354957
0.037443
0.0227125
0.0334997
0.0360195
0.0310667
0.0282964
0.0327537
0.0341573
0.0371399
0.0330411
0.0302799
0.0196448
0.0291884
0.0329463
0.0359218
0.0309936
0.0247572
0.0311066
0.0223078
0.0207751
0.021758
0.0147679
0.0137952
0.0161257
0.0152687
0.0124705
0.0134537
0.012384
0.0122856
0.0121961
0.0120599
0.0118638
0.0117192
0.0111753
0.0113062
0.0135185
0.0125443
0.0132675
0.0142103
0.014837
0.0186961
0.0209853
0.0235647
0.025409
0.026311
0.0272989
0.0239311
0.0252397
0.0240976
0.0255059
0.0260635
0.0252684
0.0224527
0.0199435
0.0182791
0.0195641
0.0240661
0.0326288
0.0267665
0.0206438
0.0166173
0.0135744
0.0148336
0.0189178
0.0105391
0.010411
0.0106701
0.011095
0.0118489
0.0119223
0.010129
0.0079668
0.0072246
0.00691894
0.00632713
0.00614141
0.0164559
0.0274279
0.0366658
0.0434716
0.0474902
0.0491393
0.0476211
0.0361919
0.0314931
0.027913
0.0244475
0.0212017
0.0206289
0.0286494
0.0359074
0.0429017
0.0491066
0.0543051
0.0538037
0.0365439
0.0308198
0.0356664
0.0674253
0.0635252
0.0833851
0.100976
0.0540006
0.0446335
0.0474824
0.0662483
0.067357
0.0585786
0.0491283
0.0397529
0.0303286
0.034442
0.0383137
0.0421886
0.0471176
0.0630211
0.0642781
0.0618095
0.0568025
0.0477511
0.0358572
0.020172
0.00660752
0.00656363
0.00795801
0.00889511
0.0105631
0.0145123
0.015091
0.015015
0.0160352
0.015594
0.0155868
0.0149641
0.0154156
0.015413
0.0153386
0.0144158
0.0127735
0.0140049
0.0141973
0.0144167
0.0163525
0.018952
0.0151509
0.0103381
0.00928452
0.00894202
0.00854146
0.00781861
0.00948957
0.017397
0.0280207
0.0349651
0.0410156
0.0395455
0.0327409
0.0249992
0.0224839
0.0201929
0.0182559
0.0174968
0.0186467
0.0169327
0.0150135
0.0126345
0.0102089
0.0079399
0.00677371
0.00519282
0.00573188
0.00690449
0.00766819
0.00819363
0.00842752
0.0085118
0.00855197
0.00863502
0.00874188
0.00883624
0.00887804
0.00886244
0.00876439
0.00864465
0.00858701
0.00927289
0.0123139
0.0169184
0.016643
0.0153789
0.0141189
0.01314
0.0112221
0.0182471
0.0154796
0.0130335
0.0120544
0.0119413
0.0122647
0.0132421
0.0142078
0.0152493
0.0176132
0.017808
0.0174058
0.0177187
0.0174967
0.014707
0.0170957
0.0197688
0.0206737
0.0213778
0.0212633
0.0194464
0.0217887
0.0230781
0.0224562
0.0217897
0.0190956
0.0225196
0.0262759
0.0267179
0.0269352
0.0238506
0.0206079
0.0240884
0.025526
0.0252527
0.0264117
0.0250962
0.0260912
0.0310891
0.0196383
0.0204668
0.0165796
0.0131781
0.0138198
0.0143764
0.0137476
0.014205
0.0148399
0.0147686
0.0151161
0.0146808
0.0125636
0.0144122
0.0140126
0.0150122
0.0138287
0.0128154
0.0125743
0.0134912
0.0146138
0.0232603
0.0248075
0.0214022
0.0263902
0.0264248
0.0211775
0.0249211
0.0252367
0.0261165
0.0271951
0.0285605
0.0266214
0.0280302
0.0276653
0.0253146
0.0240701
0.042998
0.028184
0.0189733
0.0188554
0.0192015
0.0195267
0.0223555
0.0170138
0.0184102
0.012469
0.0107012
0.0101894
0.00983212
0.00945889
0.00903848
0.01053
0.0159357
0.0234368
0.0296355
0.0290612
0.0233867
0.0173444
0.0161662
0.0151331
0.0148056
0.0151351
0.0131987
0.0112056
0.00813276
0.00630926
0.00655366
0.00738289
0.00801427
0.00847053
0.00876539
0.00896802
0.00917243
0.00942644
0.00969136
0.00992929
0.0101234
0.0102631
0.0103788
0.0105301
0.0108784
0.0122466
0.0176272
0.0228185
0.0214893
0.0198242
0.0182841
0.019172
0.0200405
0.0209073
0.0259576
0.022472
0.0261044
0.0241921
0.0229633
0.0212519
0.0224358
0.0244254
0.0192082
0.0194374
0.013187
0.0115051
0.0110679
0.0108095
0.0105916
0.0103556
0.0100829
0.0098186
0.00955596
0.00930984
0.00909856
0.00891597
0.00865012
0.00819151
0.00749088
0.00674174
0.0100157
0.00817088
0.00819843
0.0100588
0.0112516
0.0110341
0.0100699
0.00957483
0.0096922
0.00995417
0.0102271
0.0105039
0.0108134
0.0111781
0.0116902
0.0127942
0.0135458
0.019401
0.0201388
0.0245098
0.0239738
0.0217148
0.0211843
0.0224493
0.0209208
0.0152855
0.0210511
0.0205638
0.0244795
0.017931
0.017384
0.0181542
0.0188188
0.022468
0.0213764
0.0193624
0.019568
0.0157438
0.0170311
0.0192679
0.0215577
0.0336081
0.0320539
0.0416321
0.0436919
0.0722357
0.0674205
0.058609
0.0661463
0.0290622
0.0547871
0.0645427
0.057723
0.0494075
0.0316962
0.0510199
0.0775775
0.112517
0.0815579
0.0670473
0.124278
0.090594
0.0437589
0.0318569
0.0180181
0.0178837
0.0297102
0.0346882
0.0286606
0.0276524
0.0400594
0.0417509
0.0331436
0.0343518
0.0373905
0.0364184
0.0393143
0.0337148
0.0334625
0.0184169
0.0150311
0.0160597
0.0178615
0.0186301
0.0179643
0.0191561
0.0200997
0.0186043
0.017599
0.0170289
0.0146872
0.0156337
0.0191308
0.0240902
0.0282115
0.0202867
0.0162142
0.0146521
0.0144366
0.0141961
0.0140996
0.0137842
0.0136543
0.0132158
0.0136263
0.012695
0.0122711
0.0127168
0.0127622
0.0128739
0.0129286
0.0129463
0.0129889
0.014068
0.0220905
0.0305898
0.0244169
0.0193403
0.0164628
0.0177762
0.0199982
0.0245801
0.0310172
0.0209813
0.0207665
0.0135158
0.0125745
0.0124523
0.0124213
0.0123947
0.0124203
0.01263
0.0127615
0.0149365
0.0136746
0.0124682
0.0134304
0.0115893
0.0115741
0.0114719
0.0115394
0.011658
0.0117757
0.0119623
0.0129119
0.012703
0.0116479
0.0114562
0.0113695
0.011344
0.0113812
0.0116123
0.0119053
0.0124902
0.0121624
0.0131059
0.0136441
0.0128861
0.0125238
0.0122504
0.0121745
0.0121293
0.0121326
0.0122582
0.0133037
0.0201079
0.0203296
0.0312147
0.0312313
0.0247464
0.0206743
0.0181525
0.0166532
0.0158196
0.040664
0.0360829
0.0574388
0.0455054
0.0363449
0.0588603
0.0841517
0.0651726
0.106533
0.115267
0.0844589
0.0761593
0.024422
0.0186202
0.017984
0.019751
0.0217442
0.0248429
0.025528
0.0312357
0.0336933
0.0201764
0.019317
0.0180496
0.0290392
0.0268288
0.0229399
0.0207076
0.0190642
0.0219754
0.0240895
0.0172131
0.0173102
0.0110986
0.0123228
0.0121706
0.0118106
0.0117404
0.0117415
0.0117461
0.0117087
0.0117908
0.0120576
0.0122744
0.0120687
0.0118021
0.0118378
0.0116174
0.0112816
0.0111268
0.0110996
0.0110977
0.0111431
0.0112453
0.0116331
0.011825
0.0103564
0.010737
0.0108531
0.0108689
0.0108089
0.0106983
0.0104842
0.0103413
0.0102612
0.0100897
0.00987344
0.00951916
0.00986067
0.0101163
0.010356
0.0106814
0.0111028
0.0112831
0.011341
0.0113303
0.0111919
0.0107701
0.00989033
0.00968174
0.010368
0.0107415
0.0108646
0.0107787
0.0104846
0.00996747
0.00917317
0.00851565
0.00795923
0.007514
0.00693999
0.00772947
0.00821643
0.00861856
0.00901462
0.00945125
0.00997027
0.0103337
0.0105507
0.0105468
0.0103921
0.0100203
0.00935835
0.00929147
0.00982489
0.0101275
0.0101948
0.0100325
0.00962504
0.0089821
0.00820174
0.00752488
0.00696177
0.0064827
0.00592345
0.00541642
0.00593414
0.00619008
0.00676929
0.00755535
0.00858096
0.00940126
0.00997644
0.0103094
0.0103376
0.0100842
0.00956771
0.00943073
0.00979699
0.00993912
0.00980425
0.00939849
0.0086334
0.00756181
0.00634151
0.00566642
0.00546954
0.00572264
0.00530229
0.00460028
0.00502655
0.00542804
0.00607537
0.00687652
0.00793447
0.00892668
0.00960135
0.00985042
0.00986856
0.00964074
0.00921721
0.00909452
0.00942028
0.00956803
0.00941355
0.00890072
0.00805274
0.00692798
0.00592715
0.0053036
0.00506174
0.00506932
0.00481688
0.00559495
0.00610539
0.0060752
0.00564819
0.00587915
0.00701889
0.00807822
0.00883635
0.00935901
0.00956608
0.00949087
0.00924057
0.00902808
0.00923745
0.00936865
0.00934501
0.00930816
0.00893739
0.00841013
0.00725133
0.00605239
0.00621965
0.00615698
0.00553123
0.00479898
0.00511826
0.00509601
0.00510605
0.00597237
0.00707642
0.00801865
0.00877507
0.0091656
0.00932078
0.00919973
0.00893576
0.00876954
0.00903919
0.00923952
0.00923045
0.00908783
0.00865469
0.00802289
0.00712622
0.00636621
0.00663211
0.00579505
0.00530821
0.00599217
0.0067888
0.00772955
0.00734088
0.00908597
0.0101577
0.0102838
0.0102209
0.00973173
0.00941957
0.00909519
0.00883011
0.00865902
0.00907721
0.00968107
0.010433
0.0115034
0.0118575
0.0122717
0.0114123
0.00877489
0.00846287
0.00703366
0.00601305
0.00529809
0.00600322
0.00756885
0.00796504
0.00944447
0.0100664
0.0100728
0.0100913
0.00962643
0.00936391
0.00898378
0.00861225
0.00843133
0.00922701
0.0102619
0.0105169
0.0109114
0.0108822
0.0106427
0.0101167
0.00870365
0.00823729
0.0070404
0.00630468
0.00703671
0.00825357
0.00912329
0.0092806
0.0118895
0.012661
0.0124439
0.0121396
0.0113045
0.0106282
0.00931534
0.00846526
0.00813958
0.00933012
0.0150586
0.014468
0.0137054
0.0130371
0.0123026
0.0116567
0.0109517
0.0100115
0.00947067
0.00876086
0.00873473
0.00996471
0.0118913
0.0122777
0.0141034
0.01472
0.0158637
0.016161
0.0161897
0.0168966
0.0138332
0.0110667
0.00911147
0.00775763
0.00711393
0.00913424
0.0103505
0.0119633
0.0148098
0.0196413
0.0279344
0.0382011
0.0600212
0.0945234
0.0852736
0.0854871
0.10035
0.166311
2.56644
2.62111
2.56827
3.03561
3.47401
0.363243
0.303228
0.556841
0.58679
0.708884
0.651488
0.568744
0.521682
0.492314
0.471875
0.467357
0.433511
0.440366
0.382167
0.389165
0.308544
0.302694
0.321462
0.362433
0.372644
0.326884
0.375765
0.346611
0.375727
0.313093
0.345361
0.318456
0.396963
0.50889
0.588045
0.75108
1.13114
1.01056
1.15819
1.02118
1.03678
0.803969
1.09263
0.868608
0.839859
0.859342
0.926382
1.28951
1.3907
1.50198
1.4954
1.3536
0.998114
1.2723
0.933924
0.804999
0.685115
0.857254
1.10992
1.46239
1.78678
1.34591
1.77533
1.65058
1.68982
1.4234
1.1098
1.0099
0.969891
0.977842
0.97389
0.966616
0.947361
0.93464
0.916991
0.96672
0.882335
0.770054
0.505442
0.400298
0.220003
0.210792
0.19618
0.186122
0.163987
0.140558
0.116831
0.0844147
0.076055
0.0873808
0.0934927
0.105145
0.107554
0.140255
0.218575
0.200083
0.182553
0.16549
0.13152
0.156026
0.234997
0.298827
0.362045
0.387212
0.410109
0.390777
0.477043
0.745746
0.867372
0.969246
0.921647
0.900091
2.7135
2.92478
2.5127
4.1142
4.87698
7.93732
6.07543
2.26055
3.67511
2.69925
2.45288
2.39729
2.50733
3.85758
3.16708
4.44229
4.95087
4.99847
4.11611
4.58149
4.2353
3.34716
2.98915
2.7504
2.84591
1.7611
1.69541
1.3626
1.28667
1.14093
0.927114
1.0422
0.754133
0.760221
0.857522
0.989716
1.1489
0.863013
1.10398
1.07218
1.16386
1.33
1.12452
1.25766
1.24551
1.46777
1.69319
2.68326
4.34921
3.51666
5.90322
3.83325
14.8879
30.7297
10.0101
20.8738
12.41
11.4127
11.1394
11.6312
17.1688
11.4214
19.8619
19.1568
26.1882
26.0325
25.1854
19.1697
15.0482
16.9398
17.8928
22.6399
14.3382
15.5921
11.4254
11.1654
10.301
8.42528
7.50293
5.3954
5.292
5.31197
5.27835
7.00123
8.32017
10.4679
9.78597
9.25491
9.32894
6.51509
6.72361
5.4841
5.88812
6.68164
10.2577
19.0142
14.1148
24.1351
0.486764
0.231272
0.529722
0.229043
0.5182
0.408851
0.42272
0.424813
0.422232
0.511044
0.235612
0.191466
0.182175
0.179497
0.18102
0.10277
0.127657
0.0833214
0.133014
0.2341
0.489262
0.342758
0.144127
0.0868222
0.0567268
0.0439798
0.0651352
0.0626336
0.100209
0.101881
0.109252
0.139891
0.255527
0.521678
38.452
8.73606
1.61837
0.792226
0.427067
0.297117
0.322742
0.343981
0.349787
0.335386
0.298995
0.24428
0.174562
0.119065
0.0871547
0.103061
0.0819387
0.0493224
0.0278557
0.026123
0.0310017
0.0615542
0.0968047
0.140321
0.190479
0.234648
0.270187
0.295313
0.298111
0.267536
0.197417
0.106436
0.0451814
0.0331066
0.0311698
0.0316864
0.0308394
0.0296735
0.027699
0.0242541
0.0210513
0.0190951
0.0171515
0.0147428
0.0104502
0.00996812
0.0086597
0.0132421
0.0156028
0.0122706
0.0110617
0.00753066
0.00736238
0.00771724
0.00813014
0.00927968
0.0149406
0.0155236
0.0154897
0.0159417
0.0159188
0.0165065
0.0163222
0.0163836
0.0161202
0.0158954
0.0154703
0.0148927
0.014281
0.0126981
0.012645
0.0116292
0.0115641
0.0105924
0.010277
0.0106068
0.038082
0.0731683
0.0928604
0.104861
0.125928
0.11122
0.0585089
0.0325341
0.0100705
0.00767595
0.0081196
0.00753726
0.00630579
0.00708235
0.00875395
0.00914769
0.0126467
0.0134465
0.0134519
0.0165781
0.0172757
0.0181607
0.0186346
0.0183753
0.0185337
0.0180805
0.0181971
0.0171169
0.0170319
0.0161304
0.0160593
0.0153883
0.0268702
0.0257834
0.0274269
0.0279897
0.030218
0.0298537
0.029442
0.0284734
0.028195
0.0267923
0.0254328
0.0236451
0.019822
0.0210335
0.0187214
0.0126772
0.0115227
0.00845441
0.00868042
0.00818589
0.00735269
0.00763001
0.00695723
0.00666578
0.00746329
0.00761162
0.00917156
0.0108948
0.0110614
0.0138078
0.0162035
0.0138125
0.0161891
0.0183867
0.019932
0.0212555
0.0227809
0.0239399
0.0252047
0.0276098
0.0277969
0.025055
0.0241058
0.0221141
0.0233484
0.0216297
0.0207109
0.023231
0.0252913
0.0287356
0.0286296
0.0260173
0.02437
0.0225465
0.020003
0.0172132
0.0153699
0.0134838
0.0119868
0.0162766
0.0134528
0.0396636
0.0252287
0.0424392
0.020225
0.0119749
0.00782173
0.00805573
0.0159818
0.0366941
0.0182649
0.0134701
0.0213693
0.0297432
0.0521971
0.0503952
0.0582076
0.0533486
0.052832
0.0444093
0.0515203
0.0231403
0.0342326
0.0158735
0.0197271
0.0226567
0.0247247
0.0261078
0.0278381
0.0286054
0.0303281
0.0309793
0.0341802
0.0344722
0.034192
0.0336424
0.0303527
0.0272504
0.0240542
0.030358
0.0356213
0.0397997
0.0423796
0.0452821
0.0439899
0.0396522
0.0383764
0.035873
0.0338846
0.0315343
0.0278182
0.0241022
0.0198367
0.0296958
0.0347319
0.0347559
0.0486262
0.0488314
0.0487777
0.0514057
0.0530473
0.0557573
0.0569907
0.0602194
0.0612689
0.0628608
0.063386
0.0693757
0.0704976
0.071442
0.07188
0.0708311
0.0713479
0.0712869
0.0487274
0.0434117
0.038507
0.031377
0.024598
0.031941
0.041302
0.0475416
0.0726318
0.0726202
0.0755559
0.0778119
0.081058
0.0833811
0.0855129
0.0872051
0.0880648
0.087622
0.0863914
0.0826972
0.0807066
0.0751179
0.0721836
0.0749978
0.0876619
0.0968355
0.103372
0.107989
0.102937
0.108839
0.101096
0.104098
0.0967932
0.0979594
0.0933488
0.0937647
0.0910122
0.0910638
0.0901765
0.0919681
0.0910595
0.102383
0.0890627
0.0776937
0.0617938
0.0549588
0.054373
0.0595035
0.0595475
0.0533386
0.0488002
0.0699697
0.0685919
0.0626819
0.0533389
0.0408623
0.0273958
0.0331087
0.0633911
0.0952485
0.12598
0.15381
0.174875
0.187597
0.196154
0.193915
0.172731
0.128216
0.0731858
0.0421469
0.0350501
0.0329058
0.0306041
0.0272251
0.0254451
0.0235599
0.0216758
0.0198076
0.0186511
0.0167639
0.0143343
0.0109732
0.0113587
0.0119009
0.0104858
0.00961457
0.0072169
0.00786348
0.00852929
0.0140869
0.0146683
0.0227731
0.0261472
0.0247623
0.0257144
0.0259771
0.0274423
0.0268483
0.0263024
0.0251547
0.0245827
0.0232506
0.0223687
0.0207566
0.0189128
0.0198425
0.0178961
0.0157287
0.0165288
0.0177915
0.0186681
0.0200978
0.0210965
0.0224662
0.0244438
0.0250391
0.0230818
0.0224163
0.0211287
0.0196179
0.0210862
0.0197849
0.0133698
0.012603
0.018392
0.0176749
0.0186946
0.0220011
0.0213479
0.0233839
0.0260663
0.0255234
0.0233308
0.0217248
0.0202465
0.0184966
0.0166814
0.0144632
0.0134427
0.0155807
0.013225
0.0118264
0.0137548
0.0169083
0.0201931
0.0219898
0.0244801
0.0275646
0.0289825
0.031129
0.032724
0.0347809
0.0358308
0.0391587
0.0404376
0.0384828
0.0361826
0.0324159
0.0276104
0.0251267
0.0279642
0.0306025
0.0310304
0.0307527
0.0303756
0.0278707
0.0272565
0.0256914
0.0250206
0.0236472
0.0226045
0.0210581
0.0198635
0.0187216
0.0163697
0.0180783
0.0167905
0.0159222
0.0216939
0.0134836
0.0127391
0.0193044
0.0114546
0.0133411
0.0137887
0.0147841
0.0161649
0.0132552
0.0168903
0.0121722
0.0134091
0.0158723
0.0293999
0.0308323
0.0516416
0.116507
0.15094
0.166643
0.251117
0.271217
0.268148
0.277455
0.271036
0.276499
0.265888
0.268458
0.257066
0.255355
0.226835
0.215191
0.179952
0.172985
0.17215
0.170795
0.140798
0.137667
0.13091
0.117973
0.113142
0.10531
0.101862
0.0959105
0.0923149
0.0874226
0.0841105
0.0797769
0.0750664
0.070882
0.0655874
0.0634502
0.0585091
0.0563235
0.0371435
0.0301316
0.0245776
0.0193905
0.0157476
0.013072
0.012725
0.0126857
0.0122435
0.015038
0.0133179
0.0192699
0.00803031
0.0106019
0.0103501
0.00864946
0.0103256
0.00966593
0.0100464
0.01102
0.0118402
0.0169885
0.0164785
0.0206611
0.0221141
0.0281105
0.0341594
0.0392915
0.0442756
0.0632613
0.0641814
0.0637643
0.0628287
0.0618755
0.0574327
0.0570375
0.0558415
0.0549347
0.0524615
0.0516148
0.049781
0.0486955
0.0470803
0.0485121
0.0517589
0.0730704
0.125575
0.193258
0.309422
0.0874852
0.0899202
0.0725286
0.0416885
0.0524121
0.0224514
0.0206626
0.0189855
0.0255837
0.0189625
0.0185488
0.0254476
0.0273404
0.024523
0.0441586
0.0530445
0.0587905
0.087153
0.222367
0.175682
0.0571923
0.126988
0.183927
0.255608
0.233989
0.183125
0.183788
0.186341
0.19308
0.168159
0.146036
0.105421
0.0795238
0.0689852
0.0169756
0.019324
0.0315319
0.0729464
0.116157
0.113931
0.100891
0.12992
0.169497
0.179674
0.189612
0.188976
0.188233
0.173047
0.169085
0.180515
0.184201
0.157908
0.199251
0.173307
0.204772
0.26151
0.222218
0.269485
0.280767
0.258201
0.115339
0.0292503
0.0202837
0.0181454
0.0155961
0.023412
0.0144293
0.0149649
0.0157592
0.0167882
0.0194842
0.0346923
0.0159362
0.0183265
0.0220717
0.0175372
0.0146925
0.0167708
0.0164876
0.0162806
0.0174413
0.0233601
0.0260164
0.0251219
0.0205216
0.0233974
0.021205
0.031513
0.0344561
0.0425822
0.0210308
0.0226037
0.0316809
0.653232
0.0359958
0.0238203
0.03638
0.0342501
0.0489333
0.0824518
0.942264
0.136951
0.0708111
0.0993185
0.090343
0.0871712
0.0882118
0.0887362
0.0913677
0.0930076
0.096236
0.0959665
0.0972666
0.106724
0.110157
0.109128
0.115173
0.107792
0.0639733
0.0643462
0.106845
0.116397
0.0645261
0.0422454
0.0355763
0.0281542
0.028301
0.0364039
0.0423241
0.0641604
0.0647011
0.110983
0.100824
0.103653
0.10611
0.100217
0.100987
0.104027
0.0985551
0.0861521
0.0842502
0.0842363
0.0820465
0.0831721
0.086294
0.0970732
0.114604
0.143518
0.183087
0.240211
0.12193
0.176663
0.315282
0.481073
0.5023
0.435895
0.337823
0.244169
0.171351
0.122594
0.0972896
0.0853863
0.0810969
0.0788601
0.0807389
0.0954769
0.104697
0.106934
0.103412
0.107221
0.105373
0.100898
0.111426
0.116355
0.0654474
0.0663145
0.0432898
0.036202
0.027081
0.0264133
0.0184799
0.0148468
0.0155672
0.0134465
0.0127651
0.0155718
0.0221728
0.0243969
0.03383
0.0354664
0.043839
0.0687535
0.0678618
0.126367
0.120119
0.111855
0.106015
0.108937
0.112094
0.116223
0.110894
0.100721
0.0948048
0.0838656
0.0836736
0.0886603
0.104044
0.136463
0.196124
0.317817
0.47984
0.581774
0.633121
0.622798
0.567156
0.506258
0.440577
0.414432
0.253866
0.239225
0.258806
0.380523
0.317802
0.378403
0.298021
0.459428
0.515363
0.558347
0.594159
0.631119
0.707382
0.723335
0.646461
0.701016
0.831942
0.794646
0.866437
0.580653
0.53229
0.442958
0.341141
0.312636
0.284671
0.308781
0.324985
0.307281
0.29617
0.274305
0.286705
0.254046
0.27403
0.202316
0.192546
0.190404
0.19469
0.24636
0.224478
0.258265
0.22732
0.241785
0.208968
0.221834
0.18621
0.145872
0.141945
0.134219
0.152722
0.176423
0.160957
0.160771
0.143715
0.133502
0.116245
0.137371
0.117521
0.143547
0.190776
0.262679
0.444761
1.56671
0.654901
0.450725
0.340132
0.290917
0.421764
0.345209
0.915693
0.598079
0.855689
0.531687
0.629964
0.499143
0.369825
0.375227
0.404317
0.569912
0.7616
6.40811
0.276259
4.14301
3.10284
3.28189
3.43663
4.36274
8.06109
7.21122
10.0189
7.03008
9.83373
5.12963
5.43521
4.46677
4.75943
4.9521
5.25444
9.32396
9.82485
0.306691
0.103492
0.08989
0.0876939
0.0884192
0.200094
0.0543156
0.206919
0.0554474
0.217352
0.0504211
0.247522
0.195904
0.0380373
0.0191586
0.0202093
0.0168081
0.0205377
0.0169583
0.0252609
0.0237732
0.0241747
0.0279601
0.086924
0.327588
18.1438
3.15139
1.92036
1.77301
2.51617
1.83198
1.94791
2.68046
1.94993
1.09679
0.941404
1.16268
1.34343
1.11705
1.16554
1.52391
1.44808
1.13619
1.06098
1.10731
1.38847
1.34294
1.4504
1.59533
1.33641
1.19204
0.988073
1.05675
1.42722
1.20193
1.10489
0.773075
0.456239
0.190584
0.204251
0.118787
0.101341
0.0825427
0.228196
0.372452
0.648409
0.458971
0.661948
0.498382
0.567641
0.419239
0.44991
0.3385
0.326586
0.514924
0.54234
0.549549
0.56257
0.608634
0.671302
1.4296
2.84691
3.24682
14.5302
16.9274
3.33775
3.00981
13.3124
0.304103
0.0851728
0.0238933
0.0176227
0.0162844
0.0161585
0.0149574
0.0155043
0.0158951
0.0168732
0.0186133
0.022835
0.0451438
0.199457
0.199811
0.0626239
0.031396
0.022474
0.019275
0.0168721
0.0162111
0.0154171
0.0153206
0.0149614
0.0156185
0.0174371
0.0235608
0.0737598
0.246259
9.68991
1.86878
1.53257
7.30349
4.89148
0.188911
0.040934
0.0196263
0.0167086
0.0157184
0.0164871
0.0160574
0.0178568
0.0180814
0.0223268
0.0242629
0.0305144
0.0544221
0.106384
0.298003
8.89417
7.64482
7.22091
6.6612
0.28598
0.108814
0.0512077
0.0362088
0.0328011
0.0319998
0.0219303
0.0227777
0.0185138
0.0207805
0.017855
0.0216646
0.0441795
0.190574
4.41317
0.930067
1.08558
0.785668
0.385975
0.448996
0.502745
0.537476
1.847
5.18444
5.91334
3.82571
3.49562
5.15303
3.37792
2.54692
1.90231
1.67043
2.5087
1.76926
1.52394
1.19378
1.33595
0.868931
1.18255
0.655141
0.726796
0.776684
1.1685
1.05506
1.03966
0.667004
0.738996
1.07781
1.18435
1.16523
0.624591
0.812223
0.697911
0.486506
0.438899
0.496909
0.524152
0.531777
0.503349
0.471881
0.434324
0.385715
0.3513
0.346342
0.303712
0.313775
0.355013
0.388707
0.446402
0.489684
0.307945
0.390592
0.346063
0.364758
0.449832
0.343432
0.404811
0.414242
0.574392
0.851651
0.855824
1.48725
0.762784
0.939863
1.80573
4.61481
2.81963
0.922039
1.23106
1.30304
0.970514
0.512551
2.19361
2.89963
0.981225
1.4148
8.3948
7.02114
14.7293
10.9529
20.5033
6.6135
4.52142
18.3227
7.17763
7.73073
4.90009
4.71441
2.79456
1.48131
1.57249
1.88973
1.10721
1.20182
1.09885
0.980976
1.46537
1.53241
2.10177
2.14371
2.85768
1.78622
2.06575
3.3201
0.915487
1.35596
1.80968
1.98033
1.33949
2.6657
3.34699
3.49746
2.48896
2.34609
3.54985
4.94633
5.11897
3.53876
4.89492
10.389
14.3545
14.0583
4.18785
17.4276
16.4978
2.84428
1.43794
0.780611
0.385172
0.155392
0.0707985
0.0632299
0.276289
0.0786068
0.128234
0.130954
0.3172
0.239524
0.322766
0.781398
0.431029
0.746398
0.478578
0.618837
0.550368
0.740381
0.761837
0.786611
0.63099
0.545765
0.762631
0.87829
0.517533
0.820935
0.926799
0.780238
0.92855
1.05804
0.63334
2.03283
0.62063
0.539859
0.582935
1.03336
2.86061
0.923553
1.48859
7.19687
14.5218
6.24154
2.6653
1.74185
0.156854
0.0826165
0.114185
0.0733728
0.0311366
0.228449
0.348535
0.652093
0.341397
0.329896
0.687624
2.59405
2.26055
1.46817
5.61118
9.19709
13.8263
8.68937
2.75585
9.47223
18.2371
12.8776
7.29319
2.1501
13.2826
18.9129
18.5852
20.3402
21.0094
16.8816
22.7496
17.3374
8.7501
7.82559
5.31193
1.23741
6.47349
11.8573
19.4532
13.4101
16.4571
2.954
4.66372
10.8211
4.42397
3.88181