/*--------------------------------*- C++ -*----------------------------------*\
| =========                 |                                                 |
| \\      /  F ield         | OpenFOAM: The Open Source CFD Toolbox           |
|  \\    /   O peration     | Version:  v2012                                 |
|   \\  /    A nd           | Website:  www.openfoam.com                      |
|    \\/     M anipulation  |                                                 |
\*---------------------------------------------------------------------------*/
FoamFile
{
    version     2.0;
    format      ascii;
    class       volScalarField;
    location    "20";
    object      k;
}
// * * * * * * * * * * * * * * * * * * * * * * * * * * * * * * * * * * * * * //

dimensions      [0 2 -2 0 0 0 0];


internalField   nonuniform List<scalar> 
18258
(
0.0501776
0.0271511
0.0242245
0.02023
0.0204821
0.0235908
0.0247699
0.0304327
0.0355576
0.040768
0.0467691
0.0543049
0.0591579
0.0651251
0.0678921
0.0663826
0.0532784
0.0486107
0.0521604
0.0800541
0.07218
0.0530112
0.0674141
0.0660903
0.0652165
0.0668405
0.0526801
0.0502112
0.0477809
0.0456484
0.0428006
0.0393305
0.0360649
0.0331714
0.0301122
0.0271228
0.0239251
0.0206509
0.0173512
0.0211235
0.0249656
0.0273976
0.0277244
0.0276049
0.0240167
0.0224379
0.0351556
0.0435149
0.0308228
0.0231769
0.0196271
0.0295053
0.0383612
0.0312472
0.0224304
0.02193
0.0178764
0.0269535
0.0341817
0.0393622
0.0427509
0.0445718
0.045249
0.0451599
0.0446249
0.0432389
0.041866
0.039461
0.0367145
0.0345792
0.0331221
0.0315567
0.0302369
0.0292392
0.0277147
0.0255446
0.0232643
0.0216903
0.0210093
0.0207731
0.0209251
0.0205778
0.0209189
0.0217235
0.0211281
0.0172151
0.0144706
0.0145308
0.0145256
0.0141153
0.0137695
0.0160626
0.017536
0.0187621
0.020179
0.0218481
0.023875
0.0262293
0.0266943
0.0268902
0.0269487
0.0267821
0.0260812
0.0328411
0.0329306
0.0325268
0.0318468
0.0311666
0.0310837
0.0275456
0.0247227
0.0230955
0.0219729
0.0197124
0.0173429
0.0184415
0.0187084
0.0179955
0.0209416
0.0233703
0.0217485
0.0210211
0.0235281
0.024866
0.027807
0.0268532
0.0278203
0.0278441
0.0255785
0.0251391
0.0261934
0.0254786
0.0264901
0.0285243
0.0297287
0.0319265
0.0331654
0.035228
0.0359725
0.0375688
0.0378378
0.0396702
0.0374998
0.0369721
0.0357368
0.0348304
0.0332425
0.0320306
0.0301578
0.0286585
0.0266068
0.0249852
0.025906
0.0294941
0.0351074
0.0416283
0.0484086
0.054766
0.0600575
0.0637366
0.0676232
0.0722739
0.0767688
0.0798392
0.0811154
0.0829857
0.0829259
0.0793957
0.0733955
0.0656579
0.0567998
0.0457371
0.0327178
0.0201718
0.0254592
0.0233831
0.0260756
0.0255629
0.0256178
0.0235651
0.0197587
0.0165129
0.0200507
0.0230003
0.0258316
0.0285154
0.0308277
0.0332996
0.0360773
0.0389097
0.0422226
0.0453807
0.0476049
0.0503679
0.0623561
0.0581412
0.0551508
0.0560085
0.0581573
0.061975
0.0621746
0.0570179
0.0488262
0.0506731
0.0449143
0.0378339
0.0364258
0.035234
0.032083
0.0297399
0.0246618
0.0210748
0.0239482
0.0260427
0.0302309
0.032751
0.0359372
0.0351954
0.0380002
0.0328385
0.0468345
0.0356967
0.0228547
0.0256994
0.0380543
0.0565501
0.0522436
0.040025
0.0307515
0.0245232
0.0332629
0.0410311
0.0463131
0.0511997
0.0558432
0.0550233
0.0576778
0.0613561
0.0578095
0.0567435
0.0494888
0.0505615
0.0500562
0.0450808
0.0423399
0.0361826
0.0291106
0.0313408
0.0208616
0.0260746
0.03304
0.0416801
0.0310052
0.0229016
0.0238655
0.0337158
0.0275284
0.0222527
0.0221014
0.0261476
0.0214243
0.0193962
0.0194333
0.0220481
0.0199706
0.0183505
0.0171326
0.0185695
0.0328883
0.0357088
0.0418458
0.0538332
0.0749713
0.09841
0.0856313
0.0792232
0.0937627
0.0642289
0.0560994
0.0635368
0.0518777
0.0431471
0.0608911
0.0818912
0.103225
0.12206
0.138223
0.153553
0.163769
0.160914
0.135681
0.0899342
0.0397841
0.0284363
0.0265236
0.0257794
0.025545
0.0261863
0.027395
0.0232443
0.0187349
0.0190486
0.0184394
0.0163398
0.0131251
0.0110717
0.0100567
0.00985645
0.00932214
0.00905235
0.0133307
0.0167775
0.0181733
0.0189987
0.0196117
0.0201031
0.0205187
0.0208502
0.0211053
0.0212939
0.0214237
0.0214863
0.0214709
0.0213715
0.0211805
0.0208747
0.0203323
0.0185638
0.0166598
0.0159982
0.0161545
0.0159771
0.0157903
0.0130328
0.0132875
0.0156051
0.016261
0.0191357
0.0212527
0.0230203
0.024512
0.0260896
0.026894
0.0277329
0.027885
0.0277453
0.0273871
0.0269267
0.0263484
0.0256367
0.0241914
0.0218421
0.0257992
0.0283962
0.0303917
0.0320697
0.0334511
0.0339507
0.0312981
0.037658
0.039547
0.040696
0.0418822
0.0413111
0.0383663
0.0348115
0.032003
0.0302189
0.0289024
0.026564
0.0241647
0.0217177
0.019126
0.0158205
0.0177927
0.0202205
0.0204943
0.0203221
0.022182
0.0236424
0.0213479
0.0189181
0.0169895
0.0160377
0.015805
0.0157133
0.0166572
0.0161385
0.0157931
0.0161412
0.0182661
0.018943
0.0209053
0.025077
0.0237288
0.0212176
0.0302677
0.0315023
0.0325135
0.033491
0.0332981
0.0328826
0.0282986
0.0264429
0.0278792
0.0260556
0.0248656
0.0245642
0.0241023
0.0212766
0.023748
0.0257423
0.0272335
0.0281196
0.0307472
0.0326281
0.0356581
0.0381329
0.0405444
0.0421033
0.0414117
0.0392817
0.0384788
0.0384721
0.0375479
0.0362079
0.0341521
0.0320085
0.0287929
0.0295739
0.0318068
0.0334698
0.0351244
0.0366955
0.0369953
0.0351302
0.0334134
0.0318075
0.0297746
0.030098
0.0321717
0.0339813
0.0360727
0.0385364
0.0395822
0.037029
0.0346774
0.0326497
0.0304687
0.0307347
0.0329436
0.0349948
0.0372193
0.0392482
0.038035
0.0366965
0.0347864
0.0328811
0.0307464
0.0303691
0.0323622
0.0340465
0.0355119
0.0362959
0.0339406
0.0338755
0.0328146
0.0312191
0.0291511
0.0277572
0.0283222
0.0299131
0.0300112
0.0304385
0.0315243
0.030859
0.0302403
0.0295178
0.0290968
0.0266864
0.0272222
0.0278033
0.0288928
0.0344156
0.033555
0.0355806
0.0374784
0.0342357
0.0330259
0.0301589
0.039424
0.0383728
0.0376119
0.0348241
0.0246364
0.0226759
0.0237433
0.0252703
0.0270753
0.0269568
0.0245185
0.0235292
0.0239504
0.0225438
0.0196986
0.0164769
0.0122823
0.0126391
0.0124929
0.0135147
0.016836
0.0189686
0.0190567
0.0185452
0.0172691
0.0178825
0.0322425
0.0442671
0.0532744
0.0594207
0.0629119
0.0645708
0.063936
0.0558656
0.0516072
0.0437051
0.0369788
0.0322678
0.0295873
0.0266223
0.0282859
0.0316614
0.0325608
0.0358213
0.0326091
0.0381376
0.0409163
0.0424762
0.0493226
0.0554412
0.0563767
0.0508069
0.0441846
0.0324472
0.0222697
0.0198139
0.0210417
0.0217565
0.0221973
0.0224464
0.0215101
0.0186837
0.0163933
0.0157296
0.0164795
0.0193923
0.0215326
0.0228155
0.0229528
0.0240273
0.0255168
0.0244409
0.0226209
0.0218842
0.0207257
0.0237671
0.0243092
0.0242141
0.0244592
0.0252768
0.025877
0.0259773
0.0261606
0.0223094
0.0253652
0.0258651
0.0259125
0.0263926
0.021154
0.0217153
0.0222594
0.0216356
0.0173255
0.0186851
0.0167049
0.0135587
0.0146202
0.015013
0.0155049
0.0155548
0.0189877
0.0190048
0.0184693
0.0183857
0.0248747
0.0255174
0.0249114
0.0215282
0.0201666
0.0229982
0.0242079
0.0242083
0.0229662
0.0226615
0.0212792
0.0192327
0.0184549
0.0185989
0.0201419
0.02126
0.0216329
0.025539
0.024796
0.0228866
0.0245188
0.0257174
0.0252529
0.0254247
0.0248423
0.0239331
0.0234718
0.0243876
0.0249877
0.024854
0.0240241
0.024289
0.0286249
0.0228545
0.022584
0.021382
0.0206404
0.0188598
0.0186978
0.018884
0.0189017
0.0188567
0.0180027
0.0199611
0.0191914
0.0214698
0.0231864
0.0244044
0.0256456
0.025838
0.0254128
0.0253907
0.0249494
0.0249079
0.0242883
0.0233234
0.0226359
0.021786
0.0204559
0.0205337
0.0205422
0.0204208
0.0219225
0.0218168
0.0234958
0.0247019
0.0243923
0.0233388
0.0232166
0.0219518
0.0218775
0.023012
0.0240014
0.0243021
0.0252557
0.0286971
0.0253179
0.0270201
0.0276385
0.0285832
0.027713
0.0265155
0.0272734
0.0257136
0.0245321
0.0259662
0.0267265
0.0281152
0.0289526
0.0266605
0.0255645
0.0242863
0.0234278
0.0224273
0.0197485
0.0202934
0.0209418
0.02216
0.0239164
0.0269367
0.0293349
0.0331809
0.0332401
0.0303764
0.0296158
0.0348786
0.0338523
0.0396925
0.0404862
0.0359579
0.0328985
0.0298967
0.029296
0.0278883
0.0270441
0.0255888
0.0270426
0.0274714
0.0262987
0.0285664
0.0297894
0.0343604
0.0392995
0.0352111
0.0328555
0.0392981
0.0387749
0.0442956
0.0378062
0.0360146
0.029278
0.0344518
0.0380327
0.0453061
0.0352871
0.0310876
0.0305801
0.0330577
0.0410951
0.038838
0.0407322
0.0470782
0.0469578
0.0425517
0.0391487
0.0436878
0.0334607
0.0402109
0.0426908
0.0362251
0.0346381
0.0414186
0.0427704
0.0436705
0.0378451
0.036141
0.0268476
0.0355156
0.0423062
0.0431154
0.0363166
0.0299661
0.0391202
0.0338049
0.0336823
0.0332984
0.0286212
0.0289244
0.028073
0.0285993
0.0297528
0.0264508
0.027344
0.0275044
0.0274188
0.027176
0.0268818
0.0266329
0.0264991
0.0259817
0.0231472
0.0243065
0.0252319
0.0239304
0.0225974
0.0265556
0.0291657
0.0311197
0.0327228
0.033912
0.0341785
0.0310792
0.0383832
0.0400536
0.0416316
0.0427404
0.0418284
0.0388972
0.0356519
0.0330804
0.0313561
0.0300821
0.0278002
0.0254273
0.0230377
0.0205532
0.0172628
0.0156311
0.01435
0.0131112
0.0134252
0.0133268
0.013109
0.0129051
0.0134421
0.0166263
0.0187721
0.0190075
0.0186521
0.0175528
0.0171288
0.0329574
0.0462326
0.0560557
0.0627542
0.0665459
0.0680386
0.0666535
0.0554158
0.0506562
0.0465679
0.042908
0.0388949
0.0369065
0.0458712
0.0534047
0.0596333
0.0654289
0.0696629
0.0693006
0.0533433
0.0476743
0.0524383
0.0815851
0.0729516
0.0936769
0.112885
0.0721747
0.0633731
0.0662629
0.082974
0.0841215
0.0769579
0.0686364
0.0599155
0.0502766
0.0546764
0.0586674
0.0626241
0.0673942
0.0818085
0.0828735
0.0807377
0.0763149
0.0679896
0.0561976
0.0383264
0.0182301
0.0181633
0.0205861
0.0218206
0.0224096
0.0195558
0.0212166
0.0212041
0.0220848
0.021611
0.0146763
0.0150889
0.0154161
0.0155143
0.014994
0.0156552
0.0177038
0.0241186
0.0207244
0.0193121
0.0158355
0.0181178
0.0210828
0.0224154
0.0223912
0.022063
0.0214049
0.0201289
0.0228488
0.034162
0.0468896
0.0543045
0.0603687
0.0588906
0.0519186
0.0433692
0.0404369
0.0376141
0.0351593
0.0341481
0.0344933
0.0323648
0.0297625
0.026543
0.0231211
0.0195196
0.0174365
0.0146348
0.0156295
0.017432
0.0186239
0.0194318
0.0200655
0.0205636
0.020959
0.0212676
0.02151
0.0216973
0.0218197
0.0218581
0.0217985
0.0216293
0.0213279
0.0207714
0.0189382
0.0169737
0.0161861
0.0162968
0.0160624
0.0156789
0.0136712
0.0140083
0.0160824
0.016801
0.016363
0.0170724
0.0175661
0.0187552
0.0202846
0.0225992
0.0247094
0.0234387
0.0224923
0.0224477
0.0220243
0.0186835
0.0225805
0.0254289
0.0259781
0.0262977
0.027296
0.0289349
0.0300385
0.0290311
0.0284748
0.0279097
0.0249447
0.0269357
0.0302613
0.0306726
0.0313533
0.0319309
0.0324872
0.0338165
0.0332503
0.0324137
0.0318851
0.029291
0.0284197
0.0343444
0.0252061
0.0192136
0.0167363
0.0141084
0.014514
0.0147067
0.015625
0.016269
0.0167861
0.0162215
0.0171437
0.0176436
0.0158415
0.0177392
0.0175269
0.0174571
0.0166132
0.0163061
0.0163923
0.0173294
0.0182007
0.0297748
0.0316438
0.0257048
0.0343962
0.0364717
0.0319255
0.0358093
0.0328145
0.031927
0.0355916
0.0387977
0.0394605
0.0361462
0.035232
0.0338243
0.0224094
0.0217454
0.0208906
0.0191674
0.0204203
0.0204386
0.0200788
0.0198122
0.0230864
0.0241922
0.0249143
0.0244062
0.0239402
0.0234332
0.0228163
0.0221033
0.0244374
0.032175
0.0415769
0.0485904
0.0479374
0.0414641
0.0339836
0.0324446
0.031035
0.0305206
0.0309074
0.0281251
0.025125
0.0201649
0.0168543
0.0173279
0.018725
0.0197403
0.020486
0.0210877
0.0216094
0.0221104
0.0226096
0.023073
0.0234845
0.0238381
0.0241172
0.0243638
0.0245976
0.0248823
0.0250942
0.0233212
0.0205045
0.0189976
0.0188524
0.0196242
0.0206208
0.0218557
0.0210388
0.0170339
0.0172101
0.0244855
0.0247655
0.0231959
0.0215759
0.0220264
0.0210169
0.0250306
0.0250839
0.0258605
0.0256115
0.0252941
0.0249565
0.0245961
0.0241928
0.0237332
0.0232957
0.022872
0.0224605
0.0220634
0.0216895
0.021209
0.02045
0.019261
0.0178956
0.0234665
0.0205775
0.0206449
0.023652
0.0254967
0.0251947
0.0237187
0.0229302
0.0231169
0.0235484
0.0240016
0.0244538
0.0249306
0.0253997
0.0258167
0.026207
0.026109
0.0249441
0.0255497
0.0198324
0.0206288
0.0211303
0.0212528
0.0226822
0.0218844
0.0165941
0.0171989
0.0180693
0.0189061
0.0215858
0.0223913
0.0241644
0.0245013
0.0197925
0.0195896
0.018976
0.0203034
0.0175589
0.0178415
0.0298703
0.0311459
0.0397641
0.0425923
0.045343
0.0389254
0.0518835
0.0592927
0.0566032
0.0467197
0.0269588
0.0385744
0.0472521
0.0543793
0.0504383
0.0391432
0.0496572
0.0524063
0.0698114
0.0650827
0.0581802
0.0702648
0.0498336
0.0297666
0.0178051
0.0184743
0.0169828
0.0341106
0.0387502
0.0349359
0.035878
0.0446145
0.0458075
0.0401421
0.0386039
0.0406834
0.0403484
0.0447285
0.0414441
0.0380968
0.0259608
0.0211835
0.0219532
0.0233302
0.0249976
0.027445
0.0275687
0.0264768
0.0251177
0.0242051
0.02311
0.0204057
0.0197331
0.0218973
0.0237021
0.0252297
0.026844
0.0276652
0.0285447
0.0287421
0.0286534
0.0283498
0.0279516
0.0274482
0.0268367
0.0254492
0.0280681
0.0282042
0.0281235
0.0282224
0.0283855
0.0285057
0.0284814
0.0282273
0.0272525
0.0264047
0.0251156
0.0238301
0.0220319
0.0197042
0.0204014
0.0223347
0.0241234
0.0254093
0.0266075
0.0261691
0.0266886
0.0273855
0.0275865
0.0276315
0.0276032
0.0276375
0.027936
0.0288573
0.0308624
0.0294508
0.0276918
0.0287511
0.027062
0.0263563
0.0262119
0.0263181
0.0264875
0.026578
0.0264888
0.025885
0.0252719
0.02578
0.0259254
0.0259159
0.0259079
0.0259751
0.0263335
0.0271048
0.028034
0.0277678
0.0291863
0.0297352
0.0285738
0.0276942
0.0272814
0.0271575
0.027058
0.0269362
0.0266734
0.0260637
0.0256929
0.0261534
0.0249856
0.0250787
0.0239453
0.0224289
0.0208274
0.0191903
0.0184721
0.0386037
0.0387505
0.0505717
0.0466399
0.040679
0.0517121
0.0662464
0.0572989
0.0693775
0.0735622
0.059506
0.0550111
0.030611
0.0267441
0.0192483
0.0209599
0.0224641
0.023815
0.0236053
0.0246706
0.0245358
0.0256616
0.025004
0.0239726
0.0234751
0.0223045
0.0223935
0.0209609
0.019231
0.0190555
0.0208943
0.0219123
0.023249
0.0231615
0.0248637
0.025613
0.0261042
0.0263687
0.0264884
0.0265308
0.0264886
0.0266128
0.0269496
0.0271573
0.0267921
0.0263961
0.0265093
0.0262894
0.0258409
0.0256033
0.025548
0.0255108
0.0254664
0.0252642
0.0248532
0.0241905
0.0240298
0.024579
0.024939
0.0251924
0.0251842
0.0250408
0.0247162
0.0244866
0.0243354
0.024029
0.0236607
0.0230913
0.0236641
0.0241059
0.0245098
0.0250253
0.0256682
0.0259155
0.025917
0.0256649
0.0252682
0.0246649
0.0234209
0.0234632
0.0244175
0.0248651
0.025095
0.0251162
0.024718
0.0239211
0.0226418
0.0215478
0.0205943
0.0198121
0.018785
0.0201838
0.0210283
0.0217164
0.0223814
0.0230972
0.0239256
0.0244802
0.0247607
0.0246034
0.0243229
0.0238686
0.0229379
0.022903
0.0236461
0.0239862
0.0241018
0.0239695
0.023365
0.0223332
0.0210299
0.01986
0.018857
0.0179807
0.0169303
0.0159494
0.0169512
0.0174362
0.018507
0.0199098
0.0216634
0.0230015
0.0238799
0.0242817
0.0243163
0.0240601
0.0233551
0.0231222
0.0236102
0.0237057
0.0234999
0.0229635
0.021745
0.0199258
0.017729
0.0164509
0.0160687
0.0165603
0.0157386
0.0143171
0.0151889
0.0159877
0.0172335
0.0187127
0.0205752
0.0222347
0.0232929
0.023574
0.0235945
0.0233597
0.0227718
0.0225517
0.0229952
0.0231163
0.0228814
0.022159
0.020774
0.0188109
0.0169613
0.0157528
0.0152705
0.0152847
0.0147723
0.0163232
0.0173024
0.0172462
0.0164277
0.0168694
0.0189747
0.0208173
0.0220512
0.0227911
0.0231102
0.023107
0.0227916
0.0224136
0.0226653
0.022767
0.0227525
0.0228207
0.022263
0.0214005
0.0193943
0.017195
0.0175132
0.0173986
0.0162013
0.0147379
0.0153821
0.0153346
0.0153524
0.017041
0.0190738
0.0207107
0.0219427
0.0224641
0.0226954
0.0226106
0.0222652
0.0219388
0.0222538
0.0224429
0.0224409
0.0223309
0.0216675
0.0206165
0.0190478
0.0176767
0.0181947
0.0166648
0.0157464
0.0170714
0.0185191
0.0201502
0.0194376
0.0223971
0.0241279
0.0243067
0.0241479
0.0232407
0.0227243
0.0223331
0.0220286
0.0216427
0.0220882
0.0228766
0.0241274
0.0258998
0.026494
0.027121
0.02581
0.0216306
0.0212081
0.018878
0.0170851
0.0157025
0.0169862
0.0196873
0.0202788
0.02275
0.0237656
0.0237653
0.0237368
0.0228718
0.0223856
0.0219559
0.02159
0.0211786
0.0215509
0.0221332
0.0229185
0.0236274
0.0236303
0.0232929
0.0224707
0.0200273
0.0200998
0.0187878
0.0176176
0.018956
0.0208877
0.0215143
0.0209033
0.0250284
0.0261538
0.0258388
0.0253673
0.0240463
0.0226448
0.0216878
0.0211896
0.020616
0.0209407
0.0214101
0.021026
0.020346
0.0197035
0.0189528
0.0182851
0.0175285
0.0164982
0.0158522
0.0149551
0.0148872
0.0163476
0.0181435
0.0188032
0.0202923
0.0207789
0.021575
0.022031
0.0217723
0.0214657
0.0220139
0.0212366
0.0196961
0.018733
0.0179274
0.0212916
0.0228768
0.0246577
0.0274266
0.0295422
0.0334963
0.035582
0.0361579
0.0357634
0.0372123
0.0383838
0.0437182
0.0581914
0.284044
0.203342
0.239667
0.231055
0.323656
0.0748058
0.0614596
0.0676459
0.0782838
0.0949925
0.0912379
0.0829616
0.0726192
0.0616171
0.0609789
0.0581488
0.0576915
0.0550137
0.0547982
0.0533765
0.0536803
0.0541457
0.0562978
0.0597834
0.051805
0.0504273
0.0495818
0.0506849
0.0504728
0.0472831
0.0489418
0.0525011
0.0656702
0.0765326
0.0851884
0.0927053
0.100453
0.102723
0.101351
0.103971
0.0933195
0.091843
0.100291
0.102721
0.102939
0.104405
0.106922
0.111069
0.129176
0.117858
0.131884
0.110936
0.101683
0.106973
0.110459
0.104089
0.0925719
0.10747
0.128764
0.152839
0.176704
0.148739
0.181431
0.172106
0.176306
0.154307
0.130926
0.122601
0.119813
0.118902
0.118568
0.119457
0.117253
0.115916
0.115802
0.115832
0.106528
0.0966962
0.0711678
0.0557613
0.0525039
0.0512296
0.048725
0.0469992
0.0432161
0.0389861
0.0344142
0.0276959
0.0258302
0.028268
0.029368
0.0314197
0.0316513
0.0379549
0.0349034
0.0348465
0.0332176
0.0312661
0.0268606
0.0301447
0.0396349
0.0465142
0.0528228
0.055243
0.0574876
0.0555812
0.0703193
0.0979624
0.110803
0.121706
0.117085
0.113499
0.306809
0.359154
0.393147
0.513345
0.494223
0.612097
0.288216
0.190313
0.199675
0.205119
0.199331
0.196132
0.194641
0.204213
0.231099
0.231141
0.297363
0.256948
0.261248
0.250271
0.285836
0.2884
0.270469
0.250367
0.215201
0.147767
0.144369
0.119397
0.121717
0.103276
0.102675
0.0984963
0.0963343
0.0994978
0.107821
0.115509
0.105115
0.100475
0.101173
0.110672
0.107933
0.126228
0.110296
0.127631
0.14833
0.167544
0.181749
0.210304
0.244714
0.239455
0.290097
0.257358
0.628115
0.720814
0.524765
0.487719
0.441288
0.430857
0.42363
0.421262
0.422701
0.547811
0.53126
0.711689
0.672429
0.851754
0.702847
0.703673
0.688386
0.750165
0.767351
0.778123
0.576971
0.6057
0.460485
0.498747
0.412591
0.448774
0.319084
0.305074
0.307919
0.308507
0.301202
0.30517
0.463471
0.418278
0.476266
0.402574
0.448196
0.343772
0.361493
0.35803
0.378204
0.408683
0.478404
0.590219
0.588838
0.643056
0.51479
0.527206
0.516563
0.53328
0.523327
0.556716
0.561034
0.561886
0.559801
0.522756
0.533806
0.531916
0.531798
0.531855
0.532082
0.50955
0.512591
0.505243
0.51128
0.527615
0.516612
0.517775
0.512719
0.505004
0.502784
0.50227
0.504024
0.503835
0.50898
0.508858
0.509172
0.512274
0.526938
0.515133
2.02531
1.03423
0.515605
0.417975
0.284174
0.194062
0.0931233
0.0967171
0.0977124
0.0954301
0.0891772
0.0792265
0.067444
0.0543666
0.0457302
0.0556355
0.0525476
0.0391633
0.0274269
0.0262735
0.0283146
0.0447118
0.0597074
0.075119
0.0905853
0.104341
0.115975
0.125381
0.127891
0.118654
0.0959177
0.0632886
0.0357065
0.0289544
0.0273524
0.026292
0.0253069
0.0244345
0.0233487
0.021783
0.0205193
0.0204483
0.0198427
0.0181106
0.0140488
0.0129655
0.0113529
0.0136266
0.016565
0.0173456
0.0164254
0.0180197
0.0193041
0.0200573
0.0206651
0.0208888
0.0212856
0.0217762
0.0218331
0.0224597
0.0225336
0.0231204
0.0229857
0.0230543
0.0228055
0.0225975
0.0222202
0.0216478
0.0209911
0.0192591
0.0192127
0.0181813
0.0181208
0.0172344
0.0169552
0.0173405
0.0406596
0.0628606
0.073713
0.0801783
0.0904631
0.0832281
0.0712574
0.0492415
0.022574
0.018772
0.0191651
0.0196155
0.0176271
0.0190461
0.0216725
0.02075
0.0192277
0.0200178
0.0200197
0.0231975
0.0239135
0.024737
0.0251269
0.024886
0.0250269
0.0246064
0.0246691
0.0236441
0.0234619
0.022415
0.0222411
0.0216744
0.0212076
0.0217715
0.0230019
0.0233903
0.0246154
0.0244218
0.0242026
0.0236756
0.0235403
0.0228011
0.0220637
0.0209636
0.0184064
0.0181551
0.0177277
0.0192704
0.0182383
0.0200238
0.0216321
0.0210162
0.0195648
0.0198504
0.0187002
0.0183281
0.0197621
0.0198547
0.0212163
0.0176733
0.0178247
0.0147304
0.016316
0.016184
0.0175594
0.0195589
0.0206655
0.0213873
0.0222942
0.0230141
0.0238156
0.0252955
0.0254299
0.0238147
0.0232272
0.0214531
0.0203968
0.0196371
0.0209806
0.0229315
0.0231243
0.0245643
0.0244603
0.0229838
0.0219916
0.0209003
0.0197833
0.0190175
0.0178705
0.0164098
0.0147968
0.018129
0.0144857
0.029786
0.0309407
0.0437803
0.0358814
0.0266641
0.0201615
0.0205621
0.0323216
0.0528633
0.0331797
0.0270845
0.0368678
0.0453965
0.0504052
0.0491024
0.0384576
0.0362849
0.0396777
0.0353665
0.0398876
0.0234305
0.0279447
0.0171607
0.0184708
0.0189265
0.0197356
0.0203331
0.0213074
0.0217561
0.0226391
0.0229325
0.0244261
0.0245049
0.0243992
0.0243409
0.0230733
0.0229742
0.0223461
0.0231096
0.0231001
0.0241986
0.024277
0.0245235
0.0244666
0.0228997
0.0224219
0.0214224
0.020555
0.0192712
0.0183899
0.0176059
0.0172858
0.0222392
0.021296
0.0195073
0.0188701
0.0188631
0.0189298
0.0197618
0.0202598
0.0209744
0.0213076
0.0221189
0.0223747
0.0227467
0.0228483
0.0242329
0.0243986
0.024415
0.0244035
0.0242412
0.024359
0.0243349
0.0243695
0.0242467
0.0237782
0.0233195
0.0221534
0.0235123
0.0247673
0.0247809
0.0245613
0.0247167
0.0254012
0.0258812
0.0266119
0.0271821
0.0276821
0.0280074
0.0281197
0.0280109
0.0278019
0.0270457
0.0265585
0.0251096
0.0243581
0.024973
0.0278124
0.029962
0.0313837
0.0322777
0.0312565
0.0324946
0.0310608
0.0317472
0.03025
0.0304074
0.0293339
0.0293574
0.0287984
0.0288299
0.0285657
0.0286884
0.028464
0.0308327
0.0383082
0.0418073
0.0412206
0.0414944
0.040365
0.0390369
0.0397061
0.051035
0.0480494
0.0438814
0.0424177
0.0398167
0.0356975
0.0299831
0.0231015
0.0262086
0.0401774
0.0525391
0.0634109
0.0726734
0.0808179
0.0874475
0.0953639
0.0964366
0.0877234
0.067867
0.0457347
0.031594
0.0278341
0.0264348
0.0252568
0.02453
0.0240344
0.0228918
0.0217156
0.0206975
0.0202182
0.0189773
0.0169119
0.0137272
0.0127008
0.0130986
0.0168216
0.0161306
0.0175862
0.0190781
0.020128
0.0207162
0.0210981
0.0200951
0.0208465
0.0212087
0.0220461
0.0222631
0.0230896
0.022758
0.022455
0.0218009
0.0214771
0.0207153
0.0202103
0.0191865
0.0178251
0.017459
0.0171895
0.017183
0.0181248
0.0190046
0.019534
0.0204865
0.0211617
0.0220643
0.0233271
0.0237237
0.0225549
0.0221415
0.0208294
0.0202579
0.0193447
0.0186013
0.0201038
0.019344
0.0177114
0.0188004
0.0196026
0.0210625
0.0216819
0.0219488
0.0230217
0.0226594
0.0213798
0.0203897
0.019425
0.0183305
0.0175483
0.0167723
0.0157979
0.0158624
0.0142598
0.0144874
0.0154426
0.0156556
0.0158418
0.0163099
0.016851
0.0176193
0.0185249
0.0194838
0.0201645
0.0210014
0.021399
0.0226395
0.0227442
0.0227725
0.0227171
0.0216995
0.0216965
0.0217638
0.0218558
0.02286
0.0228758
0.022712
0.0225789
0.0213739
0.0210937
0.0202788
0.0198921
0.0191108
0.0185035
0.0176743
0.0171515
0.0167457
0.0163823
0.0288442
0.0319763
0.0317988
0.0507506
0.0232454
0.0230667
0.0436717
0.0191779
0.0262488
0.0281283
0.0294976
0.0316252
0.027256
0.0387082
0.024239
0.0259856
0.029819
0.0411072
0.027342
0.0364268
0.0557553
0.0588419
0.0572748
0.0562607
0.0596639
0.0593716
0.0607423
0.0597967
0.0606049
0.0590563
0.05943
0.0577244
0.0574336
0.0528995
0.0506745
0.0447946
0.0437897
0.0437561
0.0435281
0.0381554
0.0374157
0.0363117
0.0341274
0.0332557
0.0316945
0.0310423
0.0299171
0.0292469
0.0282045
0.0274063
0.0263749
0.0252858
0.0243442
0.0230662
0.022398
0.0211371
0.0207063
0.0202552
0.0189718
0.0176835
0.0169657
0.0167283
0.0155404
0.0145843
0.0141625
0.0135396
0.0170959
0.0156813
0.0257112
0.0202145
0.016415
0.0165028
0.0235464
0.0167627
0.0163209
0.0167471
0.0177725
0.0185839
0.0167906
0.0178999
0.0196661
0.0206336
0.0216734
0.0219612
0.0226992
0.0228713
0.0224891
0.0226353
0.0226388
0.0226002
0.0224518
0.0213821
0.0213029
0.0210236
0.0208146
0.0201836
0.019947
0.0194546
0.0191531
0.0187118
0.0190198
0.0197013
0.0246887
0.0355381
0.0474
0.0648464
0.036036
0.0394602
0.0363195
0.0282112
0.0500931
0.0308949
0.0351252
0.0343642
0.0506603
0.0343087
0.0290613
0.0320712
0.0407568
0.0389983
0.0532365
0.0670893
0.0611419
0.06827
0.143908
0.122576
0.063891
0.107057
0.134811
0.169879
0.153631
0.0671072
0.0621153
0.0627996
0.069611
0.0712244
0.0648498
0.0584834
0.0513218
0.0428567
0.0168399
0.0311636
0.0492156
0.0738516
0.107529
0.107217
0.0601073
0.0671901
0.0716305
0.0663316
0.0635174
0.063391
0.0684624
0.0726021
0.122604
0.129703
0.133627
0.132342
0.148848
0.131868
0.143534
0.163497
0.146192
0.156839
0.163834
0.151476
0.0796635
0.0339368
0.0296114
0.0325909
0.030232
0.0565387
0.0241256
0.0265487
0.0276349
0.0332801
0.0336633
0.0612373
0.0260471
0.0297312
0.0372785
0.036955
0.0496418
0.029511
0.0311536
0.0372623
0.038012
0.0412546
0.0374654
0.0360594
0.0353712
0.0325907
0.0306292
0.0347724
0.0440211
0.0572609
0.0357132
0.0362827
0.0389264
0.178987
0.0396432
0.0334967
0.03789
0.036577
0.0466993
0.0517722
0.216545
0.0763465
0.0310103
0.0219846
0.0207337
0.0202548
0.0204373
0.0205594
0.0209995
0.0212519
0.0217047
0.0216194
0.0217887
0.023168
0.0235525
0.0230739
0.0226201
0.0233458
0.0226738
0.0227554
0.0232031
0.0227742
0.0226413
0.0229212
0.0224291
0.0216158
0.0216957
0.0228312
0.0233168
0.0228172
0.0227748
0.0233317
0.0240175
0.0254314
0.0242541
0.0248844
0.024059
0.0251625
0.0243986
0.0222663
0.0219897
0.0221193
0.0218097
0.022007
0.0224756
0.0241678
0.026936
0.0313514
0.0366879
0.0428777
0.0248497
0.0300951
0.0477515
0.0664332
0.0728818
0.0678995
0.0584577
0.0474323
0.0375952
0.029997
0.025413
0.0232969
0.0227745
0.0224073
0.0226768
0.0251726
0.0262343
0.027362
0.0260369
0.0273888
0.0263157
0.0246257
0.0237119
0.0244937
0.0231835
0.0233901
0.0237107
0.0227724
0.0210604
0.0207067
0.0182389
0.0166889
0.0158534
0.0146532
0.0151226
0.0162879
0.0184073
0.0196462
0.0217514
0.0224658
0.0239078
0.0239638
0.0237514
0.025871
0.0250086
0.0264142
0.0255582
0.0274295
0.0288222
0.0294091
0.0286863
0.0267286
0.0258024
0.0232127
0.0231672
0.0242231
0.0266251
0.0319048
0.0411343
0.0564235
0.0742477
0.0864884
0.089543
0.0861751
0.0789538
0.0704127
0.0596582
0.0531013
0.0566569
0.0542536
0.0860234
0.189105
0.12513
0.143566
0.10187
0.0601482
0.0658172
0.0770275
0.083347
0.089268
0.0986508
0.0994858
0.0906047
0.0826701
0.08029
0.086721
0.0838086
0.0698979
0.0614002
0.0633157
0.059115
0.0551744
0.0524475
0.0498848
0.0459156
0.0459615
0.0422878
0.042883
0.0407224
0.0422244
0.0414329
0.0399781
0.0395448
0.0392426
0.0389662
0.0385967
0.0384914
0.0379477
0.0375054
0.0368882
0.0352234
0.0355362
0.0351898
0.033562
0.0325748
0.0317179
0.030751
0.0293491
0.0294414
0.0272237
0.0274908
0.0236852
0.0246913
0.0249531
0.0268619
0.0314585
0.0380359
0.0459258
0.0546127
0.114614
0.0804303
0.0648646
0.0537554
0.046803
0.047752
0.0530371
0.0825343
0.072844
0.0813382
0.0662748
0.0688211
0.0655387
0.0634154
0.0649718
0.0673824
0.0718792
0.0824644
0.325205
0.513308
0.248373
0.234027
0.244703
0.250085
0.255796
0.346362
0.363509
0.371631
0.368484
0.348546
0.324973
0.208549
0.230934
0.248258
0.254953
0.25743
0.298969
0.511104
0.521528
0.518723
0.523703
0.523726
0.518677
0.52226
0.502984
0.514176
0.501879
0.5151
0.502378
0.521885
0.518985
0.504387
0.501168
0.501205
0.500961
0.501432
0.501607
0.504955
0.506145
0.506243
0.505284
0.504652
0.514283
0.525069
0.188337
0.16871
0.289214
0.396977
0.344432
0.371336
0.420894
0.309488
0.198395
0.207873
0.241432
0.28665
0.259998
0.269708
0.321849
0.286894
0.238777
0.226546
0.264698
0.307478
0.2783
0.292603
0.333326
0.30204
0.249175
0.209716
0.260858
0.320654
0.290688
0.279238
0.228829
0.160739
0.0746448
0.0779776
0.0766023
0.0342046
0.03464
0.0759252
0.139349
0.238105
0.164235
0.210123
0.174262
0.193027
0.15954
0.204807
0.121815
0.112339
0.0660103
0.0758538
0.0806587
0.0844698
0.0886718
0.0939435
0.235123
0.391863
0.227761
0.60968
0.528088
0.201857
0.213244
0.558397
0.512767
0.503728
0.501938
0.501804
0.501945
0.501884
0.501051
0.500977
0.500794
0.500807
0.500758
0.501193
0.504804
0.520403
0.514519
0.505248
0.501404
0.500867
0.500871
0.500758
0.50082
0.500837
0.500923
0.501121
0.50117
0.501284
0.501795
0.503947
0.511768
0.392399
0.142358
0.140895
0.370384
0.323148
0.511393
0.504639
0.501504
0.501087
0.500987
0.500969
0.500916
0.501104
0.500991
0.501524
0.501325
0.501337
0.502758
0.508094
0.506027
0.421306
0.339815
0.377451
0.296479
0.506187
0.507576
0.503335
0.503027
0.503408
0.503636
0.501681
0.501729
0.50115
0.501229
0.501046
0.501476
0.504721
0.510609
0.304196
0.120461
0.131731
0.192262
0.064579
0.0705822
0.0766497
0.0803903
0.239842
0.483394
0.591784
0.486589
0.476292
0.55578
0.388359
0.359573
0.291444
0.301066
0.389795
0.321506
0.275611
0.227108
0.26794
0.221536
0.268837
0.196083
0.197278
0.180125
0.236825
0.24192
0.237901
0.188511
0.172074
0.220687
0.225296
0.254414
0.182111
0.196606
0.159654
0.162287
0.0701935
0.0759668
0.0739381
0.0674119
0.0649923
0.0690308
0.0656276
0.0641444
0.0594756
0.0593532
0.05507
0.0559034
0.0573816
0.0610904
0.0601081
0.0638836
0.118733
0.17042
0.134931
0.136565
0.193931
0.125081
0.151932
0.151475
0.187959
0.229823
0.242596
0.36989
0.261579
0.283519
0.393616
0.719538
0.533792
0.285692
0.321907
0.320503
0.278855
0.172159
0.417087
0.47954
0.273197
0.329488
1.06678
0.948116
1.69734
0.947769
1.13452
0.678353
0.584282
0.999164
0.667523
0.689924
0.572055
0.580355
0.496468
0.311771
0.31777
0.305027
0.223543
0.27309
0.261489
0.248331
0.286425
0.257418
0.320067
0.350146
0.405033
0.310521
0.289559
0.396205
0.19383
0.294077
0.346702
0.321029
0.255819
0.363974
0.475475
0.49338
0.425454
0.407976
0.529127
0.586449
0.609926
0.524809
0.656336
1.07382
1.06735
0.957609
0.60647
1.88865
1.73066
0.513764
0.335873
0.219077
0.134927
0.0652404
0.0334915
0.0285746
0.0878301
0.0309852
0.0489976
0.0542519
0.109729
0.0813065
0.0990344
0.178483
0.109799
0.150153
0.104387
0.150176
0.152975
0.188159
0.179089
0.187931
0.152812
0.156275
0.196234
0.221763
0.15259
0.221142
0.234135
0.182115
0.210933
0.248557
0.14979
0.374545
0.174849
0.183879
0.211631
0.298964
0.531225
0.275766
0.328918
0.95655
1.66602
0.886089
0.512667
0.388487
0.0841401
0.0696114
0.0764142
0.0682002
0.0429988
0.149161
0.171139
0.245462
0.192012
0.174162
0.231231
0.485441