/*--------------------------------*- C++ -*----------------------------------*\
| =========                 |                                                 |
| \\      /  F ield         | OpenFOAM: The Open Source CFD Toolbox           |
|  \\    /   O peration     | Version:  v2012                                 |
|   \\  /    A nd           | Website:  www.openfoam.com                      |
|    \\/     M anipulation  |                                                 |
\*---------------------------------------------------------------------------*/
FoamFile
{
    version     2.0;
    format      ascii;
    class       volScalarField;
    location    "20";
    object      nut;
}
// * * * * * * * * * * * * * * * * * * * * * * * * * * * * * * * * * * * * * //

dimensions      [0 2 -1 0 0 0 0];


internalField   nonuniform List<scalar> 
18258
(
0.00482695
0.00239073
0.0020927
0.00182326
0.00117029
0.00182047
0.00236544
0.00278061
0.00286824
0.00274353
0.00275005
0.00450661
0.00622026
0.00757554
0.00793277
0.00793857
0.00704039
0.00673656
0.00693124
0.00881948
0.00751948
0.00485424
0.00595655
0.00685924
0.00683334
0.00595813
0.00482056
0.00456201
0.00424408
0.00367474
0.00323438
0.00268282
0.0018559
0.00150883
0.00123516
0.00126467
0.00124454
0.00119671
0.00110031
0.00122181
0.00132058
0.0013965
0.00141279
0.0014631
0.00144067
0.00128901
0.00197288
0.00222468
0.00184006
0.00202344
0.00186192
0.00180002
0.00208857
0.00185917
0.00128812
0.00125464
0.0011153
0.00130746
0.00139772
0.00140867
0.00143773
0.0014604
0.00147563
0.00148726
0.00151547
0.0015742
0.00163598
0.00164862
0.00162399
0.00158777
0.00155088
0.00149463
0.00145096
0.0014135
0.00136095
0.00128183
0.0011867
0.00102991
0.00095853
0.00128018
0.00161807
0.00171289
0.00243939
0.00302075
0.0029648
0.00218097
0.00153636
0.00163318
0.00183764
0.0018907
0.0017187
0.00192356
0.00216655
0.00228253
0.0024399
0.00271253
0.00310081
0.00321564
0.00296523
0.00286237
0.00279368
0.00274469
0.00252021
0.00323807
0.00335193
0.00329031
0.00320784
0.00337359
0.00401721
0.00378204
0.00300997
0.00273445
0.00270783
0.00259823
0.00235817
0.00251412
0.00234072
0.002091
0.00238109
0.0027934
0.00259926
0.0027818
0.00294764
0.00281859
0.0033465
0.00369969
0.00377085
0.00303241
0.0026343
0.0024419
0.00243487
0.00147411
0.00160091
0.0016753
0.00174972
0.0018282
0.0018796
0.00193957
0.00195479
0.00196982
0.00196873
0.00201583
0.00110198
0.00119595
0.00120428
0.00119629
0.00116599
0.00113876
0.00109392
0.00104891
0.00100808
0.000954173
0.00113902
0.00132945
0.00150457
0.00165516
0.00179913
0.00192709
0.0020393
0.00213789
0.00221601
0.00226208
0.00230563
0.00227413
0.00219542
0.00226915
0.00227615
0.00222879
0.0021395
0.00201745
0.00186948
0.00165767
0.00148265
0.00123382
0.00144166
0.00142132
0.00142176
0.00135667
0.00134971
0.00128362
0.00118117
0.00107874
0.00119248
0.00127079
0.00134342
0.00136972
0.0013599
0.00132171
0.00164455
0.00196947
0.00301141
0.00365711
0.00426579
0.00461531
0.00504467
0.00401697
0.00442842
0.00338696
0.003057
0.00390573
0.00518509
0.00293033
0.00156527
0.0029759
0.00266804
0.00205342
0.0018553
0.00194674
0.00193897
0.00181222
0.00166102
0.00153498
0.00163236
0.00169542
0.00182435
0.00191333
0.00203075
0.00209807
0.00217585
0.00197046
0.00235285
0.00188357
0.00200873
0.00213018
0.00194521
0.00258749
0.00252669
0.00202117
0.0017698
0.00163192
0.00192703
0.00257586
0.00284213
0.00307421
0.0033854
0.00441564
0.00401535
0.00389415
0.00305944
0.00291643
0.00156934
0.00223469
0.00222484
0.00250822
0.00165786
0.00155925
0.00150145
0.00186928
0.00144868
0.00163187
0.00183519
0.00225558
0.00185169
0.00208483
0.00212768
0.00192906
0.00170803
0.00206069
0.00205619
0.00167195
0.00153324
0.00192767
0.00191882
0.00151583
0.00126269
0.00179948
0.00176254
0.00135844
0.00350107
0.00397729
0.00424108
0.00488962
0.00570863
0.00684528
0.0056372
0.00516336
0.00665365
0.00531903
0.00468897
0.00451402
0.0037831
0.00293647
0.00326402
0.00355836
0.00376767
0.00410278
0.00439883
0.00477944
0.00521395
0.00493399
0.00442034
0.00359059
0.00243542
0.00217033
0.00211708
0.00191203
0.00289559
0.00454729
0.00471401
0.00275147
0.00162694
0.00187718
0.00206527
0.00193049
0.00133968
0.000862978
0.00128438
0.00133311
0.00125059
0.00115749
0.00128753
0.00147778
0.00243096
0.00378928
0.00419795
0.00437226
0.00453466
0.00465183
0.00472123
0.00475002
0.00476984
0.00479101
0.00480933
0.00483154
0.00481976
0.00471707
0.00414479
0.00259495
0.00151837
0.00141968
0.00157144
0.00169359
0.00180427
0.00154094
0.000936831
0.00150304
0.00192276
0.00220089
0.0022157
0.00206508
0.0020006
0.00315152
0.0041885
0.00493311
0.00507269
0.00512191
0.00504237
0.00500681
0.00486542
0.00479372
0.00417065
0.00304531
0.00334603
0.00359969
0.00365518
0.00375472
0.00390697
0.00383841
0.0036454
0.00520354
0.00595377
0.00604666
0.00624431
0.00619304
0.00602316
0.005668
0.00529946
0.00443993
0.00331685
0.00208272
0.00211589
0.00223991
0.00220043
0.00189664
0.00204569
0.00225825
0.00228456
0.00236599
0.00270359
0.00308112
0.00290041
0.00247556
0.00216341
0.00202071
0.00199641
0.00192234
0.00146182
0.00147765
0.00142601
0.00144074
0.00187803
0.00220994
0.00256485
0.00370349
0.00329252
0.00264739
0.00438612
0.00439804
0.00484596
0.00536373
0.00552784
0.00632464
0.00419732
0.0037037
0.00380291
0.00308961
0.0028298
0.00283751
0.00284276
0.00259183
0.00285301
0.00283096
0.00272599
0.00301312
0.00339963
0.00450346
0.00551985
0.00586954
0.00609484
0.00620228
0.00612921
0.00589413
0.00585611
0.00509954
0.00505306
0.0048605
0.00472051
0.00466544
0.00441159
0.00513397
0.00535022
0.00542185
0.00555425
0.00574668
0.00566775
0.00549907
0.00536298
0.00525528
0.00513149
0.00522527
0.00534948
0.00547691
0.00564297
0.00585486
0.00595271
0.00573035
0.00554541
0.00540629
0.00527607
0.00530633
0.00542724
0.00556413
0.00573827
0.00592399
0.00579986
0.00567384
0.0055242
0.0053925
0.00527037
0.00509398
0.00523859
0.00538906
0.00550382
0.0055479
0.00475559
0.00512576
0.00504489
0.00456096
0.00425668
0.00323009
0.00349688
0.0036937
0.00402169
0.00445777
0.00453629
0.00377638
0.00321927
0.00310186
0.0030698
0.00313456
0.00316774
0.00321385
0.0036551
0.00593877
0.00593759
0.00585333
0.00581187
0.00483288
0.00470128
0.00444676
0.00892789
0.0081496
0.00686211
0.00533778
0.00279244
0.00239182
0.00283509
0.00344329
0.00385738
0.00430477
0.00288657
0.00175413
0.00203543
0.00207398
0.00196034
0.00178917
0.00148491
0.00139001
0.00125461
0.00136763
0.00247125
0.00400333
0.00450686
0.00451232
0.00434708
0.00439323
0.0058781
0.00687069
0.00753708
0.0079791
0.00824057
0.00840222
0.0083742
0.00771174
0.00659692
0.0039802
0.00226149
0.00199972
0.00209376
0.00211702
0.00233753
0.00240728
0.00211995
0.00207503
0.00209032
0.00354858
0.00590077
0.00668219
0.00731387
0.00776
0.00779909
0.00738297
0.00687516
0.00589258
0.00489139
0.00462845
0.00478694
0.00486513
0.00483842
0.00437639
0.00266639
0.0015834
0.00140349
0.00147273
0.00173745
0.00187247
0.00192748
0.00192097
0.00168301
0.0028317
0.00446264
0.00285354
0.00154043
0.00164512
0.00161665
0.00286024
0.00286692
0.00283784
0.004437
0.00474068
0.00479682
0.00450282
0.0042407
0.00255219
0.00293594
0.00293805
0.00293791
0.00296234
0.00148964
0.00163705
0.00170622
0.00186763
0.00161311
0.00193487
0.000490621
0.000719593
0.000824507
0.000909779
0.000974207
0.000946303
0.00183304
0.00190785
0.0018361
0.0017415
0.00219952
0.00234851
0.00236257
0.00214851
0.00197938
0.00211817
0.0021492
0.00204641
0.00192731
0.00197732
0.00196142
0.00187696
0.00159526
0.00149486
0.00164405
0.00163734
0.00163563
0.00293851
0.00292147
0.00275042
0.00457352
0.00454938
0.00509435
0.00509073
0.00503223
0.00495992
0.00501234
0.00508973
0.00515167
0.00515687
0.00511054
0.00506032
0.00776567
0.00493119
0.00429674
0.00248194
0.00238827
0.00168422
0.00148025
0.00174685
0.00187132
0.0020318
0.00198827
0.00209398
0.00209199
0.00221928
0.00205921
0.00182779
0.00279871
0.00299164
0.00292396
0.00298298
0.00291119
0.00289377
0.00287078
0.00282652
0.0027736
0.00165073
0.0016176
0.00189821
0.00199556
0.00214599
0.00216514
0.00221228
0.00209806
0.00184529
0.00178609
0.00205627
0.00202826
0.0020676
0.00194714
0.00193991
0.00172951
0.00177453
0.00357467
0.00703933
0.00338155
0.00378327
0.00341408
0.003921
0.00340552
0.00292645
0.0029963
0.00264871
0.00276353
0.0028999
0.00295152
0.00310413
0.00365805
0.00351069
0.00308162
0.00299203
0.00293689
0.00277246
0.00249692
0.00260844
0.00261986
0.00267112
0.00295928
0.00343806
0.00381261
0.00478346
0.0046197
0.00395742
0.00366201
0.00385809
0.00391369
0.00500067
0.00466995
0.00463557
0.00494604
0.00493179
0.00467308
0.00435287
0.00415365
0.0035145
0.0035891
0.0041119
0.00395662
0.00406556
0.00396722
0.00415652
0.00420016
0.00400055
0.00368527
0.00395963
0.00397418
0.00440892
0.00424992
0.00391073
0.0035363
0.00382513
0.00386796
0.00445531
0.00414614
0.00388827
0.00352699
0.00347646
0.00396866
0.00387363
0.00435606
0.00452234
0.0045644
0.00400188
0.00388598
0.00458767
0.00443657
0.00434399
0.00455379
0.00380159
0.00381611
0.00471382
0.00481998
0.00462146
0.00390127
0.0038823
0.0033022
0.00388929
0.00488928
0.00465746
0.00382985
0.00326439
0.00442784
0.00461047
0.00491476
0.00458637
0.00499227
0.00545809
0.00439845
0.00482115
0.00638872
0.00468037
0.00543381
0.00554182
0.00554776
0.0055115
0.00548192
0.00544726
0.00565517
0.00537354
0.00356705
0.00423878
0.00431872
0.00362691
0.00309752
0.00339473
0.00364814
0.00369871
0.00379278
0.00393379
0.00385127
0.00363263
0.00525339
0.00599173
0.00611573
0.00630793
0.00623171
0.00606472
0.00573595
0.00538801
0.00452299
0.00338417
0.00213175
0.00217397
0.00231383
0.00228791
0.00197581
0.00148243
0.000979654
0.00146798
0.00155808
0.00149805
0.00139397
0.00126498
0.00136401
0.0024562
0.00398091
0.0045007
0.00452543
0.00438255
0.00429959
0.00594057
0.00701371
0.00771295
0.0081531
0.00839231
0.0084786
0.00839633
0.00763659
0.0073332
0.00699214
0.00677772
0.00642179
0.00594255
0.00661008
0.00714855
0.00746012
0.00784588
0.00804275
0.00803349
0.00700789
0.00663714
0.00693873
0.00888467
0.00753991
0.00947152
0.0113579
0.00868187
0.00809825
0.00832246
0.00935301
0.00945526
0.00909934
0.00863018
0.00812743
0.00750104
0.00781185
0.00808505
0.00836624
0.00867569
0.00955769
0.00961635
0.0094916
0.0092277
0.00871252
0.00792688
0.00655374
0.0045267
0.00452363
0.00479275
0.00481754
0.00427875
0.00237169
0.00268458
0.00269499
0.0027375
0.00269549
0.00124371
0.00136934
0.00138749
0.00140546
0.00131915
0.0015301
0.00220835
0.00373822
0.00272272
0.00232827
0.00138013
0.00155883
0.00264034
0.00437418
0.00486003
0.00489934
0.00482764
0.00466394
0.00495133
0.00603746
0.00706182
0.00759065
0.00799683
0.00789292
0.00740966
0.00677142
0.00654524
0.00630586
0.00609427
0.00599814
0.00574261
0.00556753
0.00531005
0.00501861
0.00471281
0.00431885
0.00403958
0.00371206
0.00383562
0.003961
0.0040709
0.00414756
0.00429976
0.00447113
0.00462294
0.00471429
0.00476343
0.00479496
0.0048264
0.00485194
0.00487948
0.00487059
0.00476757
0.00418753
0.00262135
0.00153263
0.00141676
0.00155425
0.00164461
0.00168375
0.00149894
0.000967878
0.00150378
0.00194918
0.00199906
0.00219676
0.0022643
0.00239072
0.00260645
0.00301424
0.00311982
0.00277647
0.00261586
0.00255949
0.00249511
0.00213617
0.00268426
0.00294387
0.00293791
0.00291149
0.00315362
0.00387478
0.00372707
0.00328677
0.0032496
0.00321738
0.0029327
0.00289959
0.00313661
0.00316915
0.00328463
0.00384739
0.00460928
0.0042726
0.00389808
0.00374449
0.00346434
0.00307683
0.00278604
0.00341465
0.00291172
0.00162334
0.00152051
0.00135939
0.00137187
0.00135401
0.0015983
0.00167695
0.00170886
0.00160356
0.00174989
0.0019084
0.00179772
0.00196509
0.00197303
0.001827
0.00179626
0.00186728
0.00192327
0.00200337
0.00204011
0.00343024
0.00363275
0.0027785
0.00403479
0.00453046
0.00433155
0.00463092
0.0038401
0.00351271
0.00419224
0.00474337
0.00526425
0.00419508
0.00403814
0.00406751
0.0018777
0.000989762
0.00139361
0.00174271
0.00199035
0.00195799
0.00185819
0.00158024
0.00281938
0.00286112
0.00448031
0.00500966
0.00506229
0.00502641
0.00495326
0.00486474
0.00510418
0.00584665
0.00663815
0.00717019
0.00711669
0.00661633
0.00599269
0.00586029
0.00572821
0.00566244
0.00568043
0.00539385
0.00507013
0.00449984
0.00405215
0.00412335
0.00427427
0.00437609
0.00445907
0.00456595
0.0046863
0.0047968
0.0048807
0.00494386
0.00499905
0.00505199
0.00510055
0.0051474
0.00517125
0.00512219
0.00462779
0.0027769
0.00165827
0.00151154
0.00161354
0.00189563
0.00199612
0.00214518
0.0019054
0.00100603
0.00118622
0.00206702
0.00228173
0.00210877
0.00197143
0.00194621
0.00162757
0.00293562
0.00291335
0.00456426
0.00513126
0.00520253
0.00518564
0.0051406
0.00508677
0.00502772
0.00497446
0.00492694
0.00487686
0.0048152
0.00474868
0.00468018
0.00459479
0.00445727
0.00427525
0.00494831
0.00466399
0.00467883
0.00500534
0.0051999
0.00517753
0.00502803
0.00494227
0.00496225
0.0050137
0.00506957
0.0051237
0.00517307
0.00519434
0.00513127
0.00483129
0.00452916
0.0028864
0.00291729
0.00144429
0.00159755
0.00185054
0.00191894
0.00206257
0.00206031
0.00162132
0.00126464
0.00142896
0.00131414
0.0023387
0.00259568
0.00289479
0.00287097
0.0015692
0.00161569
0.00167376
0.00189598
0.00176251
0.00168215
0.0041676
0.00404988
0.0042343
0.00509358
0.00444462
0.0031211
0.00335389
0.00469302
0.00491995
0.00296987
0.00225069
0.00244435
0.00311343
0.00461064
0.00463416
0.00435058
0.00434978
0.00318621
0.0038983
0.0046742
0.00454373
0.00357538
0.0024671
0.00182236
0.000895626
0.00170478
0.00145145
0.00352465
0.0038959
0.00383266
0.00418953
0.00447188
0.00452325
0.00437566
0.0039044
0.00398396
0.00402324
0.00457995
0.00458509
0.00390356
0.00329353
0.00268689
0.00270085
0.00274259
0.00301872
0.00377362
0.00357081
0.00313895
0.00305204
0.00299619
0.00282266
0.00255157
0.00224168
0.00225574
0.00209882
0.00203068
0.00319687
0.00424829
0.00500488
0.00515007
0.00520506
0.00513023
0.00510123
0.00496592
0.00490461
0.00427772
0.00558517
0.00583431
0.00559764
0.00561699
0.00563278
0.00565657
0.00563924
0.00552087
0.00475139
0.00284053
0.00185588
0.00209317
0.00225883
0.00212254
0.00210728
0.00224498
0.00213076
0.00187337
0.00303681
0.00296796
0.004743
0.00536774
0.00550029
0.00553205
0.00553254
0.00553486
0.00556119
0.00587293
0.00573923
0.00570849
0.00553533
0.0055394
0.00568726
0.00540163
0.00539019
0.00540219
0.00541626
0.00539882
0.005279
0.00467034
0.00452492
0.00513524
0.00528025
0.00531659
0.00532524
0.0053354
0.00537453
0.00555383
0.00566296
0.00570569
0.00584968
0.00583231
0.00570239
0.00551168
0.00546796
0.00545219
0.00543251
0.00538223
0.00522361
0.0045956
0.00295463
0.0030281
0.00179996
0.00181243
0.00208532
0.00218992
0.00215068
0.00199025
0.00194124
0.00329829
0.00374537
0.0040073
0.00430224
0.0040977
0.00408889
0.00469357
0.00453389
0.00406625
0.00422519
0.00377327
0.00357618
0.00345315
0.00345712
0.00185414
0.00200186
0.00208871
0.00205467
0.00196446
0.00175367
0.00160805
0.00293741
0.00291289
0.00286554
0.00170794
0.00166889
0.0019674
0.00190956
0.00174593
0.00148713
0.00163107
0.0025105
0.00281026
0.00435022
0.00451507
0.00485123
0.00519269
0.0053301
0.0053781
0.00539327
0.00539326
0.00540606
0.00542107
0.00540772
0.00535301
0.00531328
0.00534279
0.00535421
0.00532706
0.00530233
0.00529237
0.00527786
0.00523808
0.0051084
0.00477871
0.0044538
0.00501804
0.00506395
0.00515759
0.00525529
0.00528099
0.00527501
0.00524411
0.00521824
0.00519425
0.00515037
0.00510304
0.00504128
0.0051111
0.00516974
0.00522072
0.00527685
0.0053407
0.00535714
0.00533038
0.00523213
0.00513437
0.00508371
0.00499157
0.00511758
0.00517551
0.00518034
0.0052168
0.00526722
0.00524464
0.00516679
0.00502975
0.00490716
0.00479584
0.00470143
0.00457619
0.00474349
0.00484358
0.00492474
0.00500116
0.0050801
0.00516726
0.00521934
0.00522983
0.00516548
0.00512357
0.00511701
0.00506
0.00508093
0.00512194
0.00511287
0.00512818
0.00515407
0.00510473
0.00499764
0.00485301
0.00471739
0.00459695
0.00448849
0.00435507
0.00422686
0.00435799
0.00442028
0.0045538
0.00472194
0.00492219
0.00506488
0.00514439
0.00514718
0.00514776
0.00516649
0.00513096
0.00510218
0.00512094
0.00508864
0.00506944
0.00504964
0.00492924
0.00472552
0.00446088
0.00429848
0.00424868
0.00431301
0.00420445
0.0040102
0.00413072
0.00423811
0.00439962
0.00458298
0.00480187
0.00498443
0.00508579
0.00507757
0.00507706
0.00509408
0.00506335
0.00503294
0.00505187
0.00502638
0.00500559
0.004965
0.00482323
0.00459681
0.00436833
0.004211
0.00414619
0.00414771
0.00407731
0.00428606
0.00441308
0.00440627
0.00430018
0.0043564
0.00461663
0.00482808
0.00495262
0.00499511
0.00502476
0.00506318
0.00505933
0.00500807
0.00500509
0.0049794
0.00498565
0.00503544
0.00499114
0.00490104
0.00466846
0.00439661
0.00443822
0.00442492
0.00427093
0.00407346
0.00416057
0.00415293
0.00415442
0.00437611
0.00462705
0.00481426
0.00493823
0.00495517
0.00497353
0.00500139
0.00499305
0.00493958
0.00493086
0.00490628
0.00491021
0.00493849
0.00488212
0.00476804
0.00458219
0.00441739
0.00449243
0.00431308
0.00420393
0.00437718
0.00454662
0.00472767
0.00463212
0.00496883
0.00515808
0.00517058
0.00513469
0.00499517
0.00493391
0.00493546
0.00494596
0.00486851
0.00483741
0.00486524
0.00502178
0.0052482
0.00532776
0.00539446
0.00525344
0.00479888
0.0047833
0.00456008
0.004369
0.00418854
0.00432565
0.00460876
0.00464663
0.00493205
0.00504975
0.00504635
0.00502503
0.00489079
0.00481642
0.00482933
0.00487117
0.00478787
0.00453016
0.00429639
0.00449494
0.00460464
0.00461814
0.00458815
0.00449198
0.00414751
0.00441409
0.00451228
0.0044307
0.00459585
0.00475754
0.00456611
0.00423735
0.00474185
0.0048623
0.00482872
0.00477072
0.00460349
0.0043423
0.0045444
0.00477362
0.0046995
0.00422998
0.00273966
0.00275009
0.00271836
0.00268008
0.00262781
0.00258144
0.00252494
0.00244692
0.00238803
0.0022976
0.0022836
0.00241371
0.00249145
0.00259174
0.00262774
0.00263986
0.00264082
0.00270298
0.0026352
0.00245433
0.00315293
0.0036677
0.00383192
0.00407126
0.00406601
0.00446671
0.00455062
0.00457401
0.00457129
0.00399908
0.0036149
0.00298282
0.0019604
0.00121781
0.00146151
0.00155109
0.00171415
0.00183248
0.00282931
0.00141975
0.00201288
0.0015828
0.00271381
0.00138649
0.00112112
0.000739597
0.000939946
0.00114563
0.00114997
0.00108913
0.000909786
0.000694069
0.000709209
0.00065114
0.000690982
0.000618544
0.000707166
0.000658885
0.000840532
0.000871698
0.00088735
0.000887515
0.000648175
0.000700132
0.000588804
0.000667048
0.000610217
0.000642661
0.000624208
0.000778989
0.000977752
0.00103588
0.00111069
0.00102983
0.000802884
0.000939748
0.000798218
0.000952726
0.000755966
0.000944268
0.000828505
0.0010933
0.00113553
0.00114162
0.00111068
0.000861001
0.00107988
0.000832337
0.00104682
0.000818269
0.0009323
0.000809477
0.00117579
0.00121131
0.00112574
0.00121256
0.00134444
0.00143763
0.00157277
0.00147936
0.00166872
0.00161509
0.00165554
0.00150552
0.00139011
0.00133952
0.00133206
0.00130123
0.00129918
0.00132866
0.0013061
0.00129384
0.00131616
0.0012491
0.00115754
0.0010928
0.000901858
0.000699076
0.00112771
0.00112054
0.00108916
0.00106814
0.001025
0.000973207
0.000912353
0.000817814
0.000789534
0.000823034
0.000830259
0.000845001
0.000838302
0.000924397
0.000501624
0.000546198
0.000543988
0.000531638
0.000493719
0.000524162
0.000601639
0.000651618
0.000693622
0.000709329
0.000725255
0.000711492
0.000932898
0.00115816
0.00127392
0.00137542
0.0013387
0.00128806
0.00312211
0.00396927
0.00553619
0.00576469
0.00450752
0.00424824
0.00123056
0.001442
0.000976379
0.00140284
0.00145786
0.00144417
0.00135988
0.000972959
0.00151768
0.00108241
0.00160744
0.00118876
0.00149232
0.00123043
0.00173617
0.00223643
0.00220257
0.00205116
0.00146457
0.00111586
0.00110641
0.000941595
0.00103628
0.000841367
0.00102339
0.000837783
0.00110753
0.00117201
0.00122012
0.0012133
0.00086555
0.00105279
0.000834473
0.00102815
0.000900845
0.00107822
0.000973625
0.00116572
0.00158983
0.00172125
0.00175582
0.00148346
0.00123923
0.00146744
0.00128304
0.00155507
0.00238499
0.00152171
0.00247592
0.00102561
0.00141226
0.00146394
0.00144995
0.00137317
0.000936631
0.00236474
0.0012789
0.00237958
0.00155392
0.00250816
0.00176528
0.00232471
0.00283414
0.00298985
0.00296178
0.00240693
0.00208957
0.00211764
0.00167033
0.00200507
0.00148731
0.00215136
0.0012213
0.00155249
0.00161248
0.00161257
0.00154689
0.00119716
0.00232357
0.00150423
0.00208611
0.00157602
0.00193796
0.00163253
0.0017492
0.00210366
0.00218634
0.00224974
0.0020081
0.00164889
0.00221085
0.00154202
0.0489986
0.108163
0.0453359
0.111747
0.0475655
0.0682253
0.0670143
0.0668869
0.0667973
0.0481264
0.108846
0.132995
0.139716
0.141831
0.140758
0.227378
0.185243
0.275731
0.176874
0.107023
0.0490942
0.0703943
0.164155
0.264363
0.401067
0.516254
0.351018
0.364763
0.232668
0.228742
0.213571
0.168833
0.0977967
0.0457803
0.0096008
0.0110195
0.0147842
0.019847
0.0170183
0.0114077
0.00241826
0.00244745
0.00245663
0.00244381
0.0023938
0.00231257
0.0023452
0.00223421
0.00215952
0.00270304
0.00303291
0.0027987
0.00243042
0.00237825
0.00232743
0.002923
0.00331438
0.00361925
0.00387714
0.0041758
0.0044803
0.004791
0.00493797
0.00473614
0.00419425
0.00338692
0.00253968
0.00227906
0.00216023
0.00196344
0.00186902
0.00181084
0.00177134
0.00176073
0.00180006
0.00197078
0.00206604
0.00200229
0.0016998
0.00151777
0.00133954
0.001262
0.00158279
0.00220678
0.0021951
0.00388064
0.00455536
0.00469167
0.00472735
0.00423192
0.00272928
0.00274924
0.00276968
0.00284783
0.00287073
0.00291458
0.00291328
0.00291969
0.0029037
0.0028913
0.00287238
0.00283201
0.00277685
0.0026289
0.00262726
0.00255826
0.00255558
0.00252372
0.00251758
0.00255141
0.00390704
0.00486045
0.00526623
0.00551749
0.00584875
0.0056053
0.00781052
0.00670759
0.00455414
0.00413171
0.00407128
0.00459439
0.00443472
0.00460976
0.00482901
0.0042361
0.00263099
0.00268204
0.00268149
0.00292141
0.00297915
0.00303252
0.0030493
0.00303333
0.00304155
0.00301389
0.00300986
0.00293942
0.00290875
0.00280334
0.00277222
0.00274755
0.00150645
0.00165455
0.00173618
0.0017592
0.00180464
0.00179804
0.00179061
0.00177175
0.00176886
0.0017464
0.00172269
0.00167276
0.00153827
0.00141035
0.00151081
0.00263633
0.00259809
0.00426829
0.00485174
0.00485605
0.00468539
0.00464787
0.00452374
0.00453551
0.00470955
0.00466115
0.00441712
0.00258022
0.0025851
0.00141431
0.00147864
0.00170665
0.00171411
0.00187252
0.00192833
0.0019368
0.00196361
0.00199116
0.00202527
0.00208577
0.0020938
0.00203722
0.00201425
0.00187306
0.00160365
0.00160453
0.00191284
0.00203723
0.00190286
0.00188987
0.00188084
0.00182737
0.00178609
0.00174368
0.00176093
0.00189099
0.00187002
0.00179737
0.00164391
0.00181731
0.00140381
0.00201314
0.00341513
0.00406474
0.00572918
0.00534347
0.00467719
0.0047236
0.00588304
0.00685418
0.00542465
0.00490132
0.00572462
0.00623591
0.00438073
0.00430584
0.0022868
0.00222112
0.00268187
0.00253485
0.00277933
0.00213519
0.00205307
0.00166971
0.00155651
0.00142294
0.0014178
0.00142521
0.00146779
0.00148921
0.00152096
0.00152782
0.001571
0.00156776
0.001567
0.00158499
0.00157857
0.00174322
0.00186834
0.00158328
0.00134822
0.00132417
0.00125163
0.00119531
0.00122472
0.00119024
0.00117902
0.00115136
0.00112221
0.00105992
0.00109414
0.00115745
0.00135566
0.00149894
0.00117519
0.00098539
0.00065905
0.000655801
0.00066117
0.000683731
0.000696384
0.000710101
0.000716978
0.000731192
0.000735392
0.0007408
0.000741235
0.000761811
0.000759972
0.000750933
0.000745654
0.000746668
0.000748478
0.000747642
0.00109689
0.00121882
0.00132149
0.0015598
0.00179566
0.0015577
0.00133669
0.00116252
0.000747512
0.000757121
0.000768571
0.000774754
0.00078632
0.000797519
0.00080651
0.000809556
0.000808095
0.000805907
0.000805232
0.000796063
0.000786574
0.000755402
0.000739763
0.000748402
0.000794162
0.000834351
0.000857524
0.000868298
0.000854185
0.00087313
0.000858879
0.000871386
0.000850842
0.000849486
0.000829606
0.000827251
0.000820125
0.000821452
0.000814405
0.000805409
0.000800775
0.000835681
0.00148296
0.0020247
0.00247472
0.00281958
0.00269693
0.00230489
0.00238283
0.00439478
0.00425792
0.00247681
0.00236082
0.00227631
0.00215017
0.00198004
0.00175322
0.0018672
0.0022918
0.00260825
0.00287255
0.00309035
0.00336148
0.0036687
0.00417266
0.00431634
0.00400961
0.00323309
0.00257222
0.0021315
0.00198933
0.00191127
0.00187594
0.00198916
0.00204316
0.00200183
0.00195798
0.00194646
0.00197253
0.00193348
0.00179577
0.00154551
0.00127814
0.00129753
0.00242872
0.00243565
0.00385689
0.00416579
0.00427494
0.00274189
0.00273117
0.00159589
0.00149584
0.00163485
0.0017011
0.00171721
0.00174845
0.00173618
0.00172533
0.00170049
0.00168874
0.00166109
0.00164341
0.00159618
0.001512
0.00138256
0.00148597
0.00168945
0.00178873
0.00182703
0.00183961
0.00187945
0.00191044
0.00195027
0.00200352
0.00202297
0.00198361
0.0019683
0.00184808
0.0018827
0.00159723
0.00157397
0.00272066
0.00267215
0.00153503
0.00179978
0.00184993
0.00181476
0.0019819
0.00185417
0.00182995
0.00181051
0.00176327
0.00172229
0.00167732
0.00163493
0.00166142
0.00175049
0.00167092
0.00145342
0.00138381
0.00159724
0.00156037
0.00130461
0.00111853
0.00108874
0.00104395
0.0010136
0.00106566
0.00109755
0.00111828
0.00114129
0.0011502
0.001178
0.00115133
0.00121282
0.00128365
0.00130733
0.00153444
0.00169659
0.00153736
0.00153687
0.00151778
0.00150963
0.00151051
0.00147523
0.0014692
0.00144058
0.00142334
0.00139002
0.00136319
0.00133508
0.00133288
0.00134805
0.00147555
0.00414192
0.00548068
0.00571556
0.0106853
0.00360671
0.00375901
0.00889173
0.00288977
0.00464803
0.00516422
0.0052969
0.00556848
0.00504409
0.00798384
0.00434414
0.00453218
0.00504183
0.00517289
0.0021822
0.00231252
0.00240139
0.00206449
0.00177166
0.00113443
0.00118127
0.00118311
0.00119683
0.00118732
0.00119554
0.00118053
0.00118407
0.00116659
0.0011626
0.00111029
0.00107398
0.00100355
0.00099765
0.00100095
0.000998405
0.000930588
0.00091521
0.00090649
0.000888516
0.000879731
0.0008585
0.000851413
0.000839875
0.000833932
0.000818946
0.0008037
0.000784782
0.00076657
0.000752482
0.000730084
0.000711588
0.000687241
0.000685108
0.000994112
0.00107507
0.00114509
0.00133597
0.00159931
0.00166275
0.00150438
0.001423
0.00134755
0.00174919
0.00166176
0.00308751
0.00457969
0.0022874
0.00236818
0.00576902
0.00244916
0.00248022
0.00251251
0.00257963
0.00262515
0.00149356
0.00174995
0.00168471
0.00173269
0.00150393
0.00127071
0.00118022
0.00106331
0.000719527
0.000718464
0.000723387
0.000731658
0.000733203
0.000716445
0.000716075
0.000712358
0.000709792
0.000698877
0.000693783
0.000684264
0.000678004
0.000669323
0.000671126
0.000674915
0.000750753
0.000905164
0.00104631
0.0012231
0.00133592
0.00155849
0.00163687
0.00171819
0.0043089
0.00382623
0.00537396
0.005598
0.00902849
0.0055867
0.00409785
0.00363769
0.00546813
0.0055816
0.00577626
0.00763675
0.00572286
0.00481305
0.00838183
0.00769713
0.00642368
0.00812285
0.00889294
0.0101612
0.00907831
0.00221326
0.00188939
0.0019048
0.00225871
0.00271506
0.00259179
0.00291999
0.00298091
0.00239621
0.00150348
0.00452314
0.0069135
0.00672912
0.00895877
0.00908086
0.00322289
0.00312736
0.00272444
0.00220394
0.00191497
0.00191377
0.00224105
0.00274142
0.00800103
0.00838744
0.00872449
0.00998233
0.0100076
0.00903037
0.00905481
0.00919971
0.00865587
0.00821514
0.0086041
0.00799782
0.00495206
0.00354367
0.00389057
0.00526829
0.00527425
0.0122884
0.00363041
0.0042389
0.00436136
0.00593758
0.0052345
0.0097284
0.00383154
0.00434098
0.0056666
0.00700854
0.0150953
0.00467364
0.00529788
0.00767557
0.00745599
0.00655711
0.00485573
0.00465828
0.00548693
0.00408567
0.00398176
0.00345321
0.00506173
0.00692996
0.00545812
0.00524156
0.00430461
0.00441383
0.00392942
0.00423935
0.00355163
0.00351558
0.00401105
0.00292574
0.00447883
0.00383049
0.00122223
0.000437974
0.000428253
0.000423571
0.000426149
0.000428709
0.000434376
0.000437039
0.000440568
0.000438339
0.00043928
0.000452646
0.000453217
0.000439085
0.000399834
0.000455066
0.000723258
0.000724248
0.000453503
0.00040104
0.000715005
0.00111928
0.00127264
0.00149362
0.00149688
0.0012887
0.00115609
0.000730301
0.000721507
0.000441447
0.000514912
0.000561564
0.000498947
0.000556105
0.000515862
0.000547775
0.000543617
0.000517931
0.000516547
0.000522743
0.000521775
0.000524069
0.000526848
0.000541522
0.000569779
0.000616382
0.000661651
0.000688829
0.0004558
0.000461414
0.000650904
0.000825661
0.000951738
0.000951905
0.000910407
0.000829278
0.000742368
0.000660586
0.000597431
0.000572073
0.000575618
0.000573012
0.000573224
0.00059731
0.00059163
0.000630122
0.000589995
0.000629661
0.000591482
0.000540924
0.000454141
0.000464053
0.000739106
0.000742503
0.00116882
0.00128922
0.00147405
0.00146097
0.00162009
0.00168836
0.00145304
0.00143714
0.00161241
0.00153333
0.00137531
0.00142385
0.00125868
0.00128077
0.00117344
0.000751723
0.000748162
0.000476689
0.00046861
0.000561389
0.000554546
0.000621587
0.000666982
0.000669754
0.000667858
0.000638373
0.000632021
0.000578244
0.0005773
0.000595623
0.00061321
0.000671333
0.000776462
0.000901541
0.00103398
0.00115719
0.00113978
0.00107315
0.000989205
0.0008814
0.000727044
0.00061235
0.001138
0.00110737
0.00257337
0.008458
0.00443416
0.0049022
0.00313395
0.000708713
0.000756498
0.00095638
0.00105225
0.00113638
0.0012382
0.00123147
0.00114288
0.000877429
0.000697384
0.00085176
0.000729597
0.000757275
0.000637433
0.000814521
0.000921943
0.00087635
0.000869661
0.000725319
0.000583849
0.000618721
0.000543414
0.000603363
0.000520564
0.00063162
0.000563814
0.000710979
0.000730947
0.000727918
0.000701898
0.000544218
0.000594013
0.00050182
0.000556921
0.00050651
0.000534349
0.000512338
0.000598514
0.000694972
0.000672797
0.000674586
0.000557261
0.000439419
0.000484673
0.000414887
0.000473276
0.000378191
0.000472015
0.00040794
0.000552586
0.000620472
0.000682505
0.000722655
0.000603535
0.000754617
0.000889008
0.000840131
0.000764611
0.000677672
0.000486582
0.000733365
0.000669517
0.000798494
0.00069585
0.000743504
0.00067666
0.000774485
0.000978668
0.00101251
0.00101068
0.000815908
0.000803616
0.00148534
0.0858384
0.00134009
0.00158861
0.00164208
0.00163789
0.00134981
0.0013394
0.00164916
0.00124064
0.00173828
0.00111184
0.0018529
0.000720184
0.00107454
0.00116545