/*--------------------------------*- C++ -*----------------------------------*\
| =========                 |                                                 |
| \\      /  F ield         | OpenFOAM: The Open Source CFD Toolbox           |
|  \\    /   O peration     | Version:  v2012                                 |
|   \\  /    A nd           | Website:  www.openfoam.com                      |
|    \\/     M anipulation  |                                                 |
\*---------------------------------------------------------------------------*/
FoamFile
{
    version     2.0;
    format      ascii;
    class       volScalarField;
    location    "885";
    object      epsilon;
}
// * * * * * * * * * * * * * * * * * * * * * * * * * * * * * * * * * * * * * //

dimensions      [0 2 -3 0 0 0 0];


internalField   nonuniform List<scalar> 
18258
(
0.0242445
0.0123764
0.00924227
0.00727878
0.012734
0.0126498
0.0131041
0.0174696
0.0243209
0.0371973
0.0537867
0.0482936
0.0436286
0.0453412
0.0474758
0.0450086
0.035015
0.0302769
0.0397796
0.0665515
0.0610208
0.0498016
0.0611487
0.0515145
0.065393
0.0824822
0.0631735
0.0569018
0.0510806
0.0480254
0.0413901
0.0231799
0.0346019
0.0534966
0.072894
0.0795938
0.0852122
0.0898368
0.0950621
0.097159
0.0973525
0.0920982
0.0829101
0.0679379
0.0500984
0.0388287
0.0313367
0.0305177
0.0430078
0.0441947
0.0549909
0.0847692
0.107253
0.0806082
0.0517276
0.082335
0.112189
0.143873
0.170383
0.19286
0.200638
0.197284
0.185821
0.169145
0.147738
0.122776
0.101793
0.0848734
0.0670918
0.0572928
0.0463384
0.0384231
0.0328524
0.0291888
0.026985
0.0252647
0.0241035
0.0250327
0.0249187
0.0177734
0.0139802
0.0131311
0.00939278
0.0078059
0.00812019
0.00771884
0.00801514
0.00707444
0.00606014
0.00526302
0.00446518
0.00650707
0.00700517
0.00724771
0.0072693
0.00778896
0.00803479
0.00776978
0.0078612
0.00718216
0.00758479
0.0120515
0.0137834
0.017488
0.0156782
0.010978
0.00902544
0.0100762
0.0106916
0.013316
0.0125652
0.0133367
0.0118239
0.0108045
0.00911691
0.00884507
0.00907323
0.00964448
0.0100434
0.011663
0.0114947
0.0106657
0.0117935
0.0130124
0.0127413
0.0122
0.0116113
0.0142508
0.0114364
0.0121187
0.0136153
0.0219365
0.0214663
0.0259807
0.0255025
0.025938
0.0261183
0.0315178
0.0316395
0.0320203
0.0323401
0.0340829
0.0570713
0.050842
0.0497278
0.0495324
0.0428341
0.0423743
0.0416901
0.0425068
0.0359902
0.0346367
0.031416
0.0310593
0.0346597
0.0437697
0.0612434
0.088487
0.122415
0.158733
0.188986
0.209949
0.231671
0.23698
0.250854
0.25554
0.256445
0.250785
0.242367
0.232896
0.22002
0.201414
0.18848
0.14817
0.104936
0.0590259
0.0783379
0.0903475
0.10008
0.101998
0.103179
0.0991532
0.0929949
0.0818698
0.0664345
0.0432784
0.0478828
0.0651052
0.0676129
0.0684813
0.0544158
0.0525111
0.0489162
0.0490094
0.0645741
0.0738562
0.0619865
0.0854568
0.100506
0.0879887
0.0638878
0.0977797
0.143108
0.0804104
0.068154
0.0524794
0.0514305
0.0433871
0.0368262
0.0630783
0.0941099
0.128757
0.149577
0.171166
0.188481
0.201567
0.215438
0.187243
0.170111
0.114589
0.200315
0.151652
0.076524
0.0562791
0.0542638
0.0465706
0.0519443
0.0569384
0.0525561
0.0406534
0.027936
0.0245746
0.0464021
0.0648252
0.0783443
0.0622232
0.0791793
0.0894547
0.0967849
0.102112
0.129764
0.0957556
0.105736
0.0753903
0.102418
0.0724693
0.046534
0.0523074
0.100025
0.159715
0.218511
0.255138
0.144686
0.0731043
0.0541043
0.0538851
0.0522874
0.0474848
0.0591563
0.105512
0.0717756
0.04643
0.0401779
0.047348
0.0417184
0.0309287
0.0326087
0.0399499
0.0549863
0.068264
0.0811516
0.124487
0.121429
0.146543
0.153581
0.129497
0.125388
0.0810759
0.083039
0.122193
0.0911925
0.0736723
0.10356
0.146624
0.200735
0.246999
0.287386
0.313261
0.302883
0.274138
0.173511
0.076005
0.0229108
0.0178269
0.0168786
0.0173523
0.0105422
0.0063043
0.00585062
0.00665493
0.00700607
0.00591435
0.00544585
0.00543724
0.00577775
0.0101844
0.00875495
0.0108298
0.0131189
0.015665
0.0187069
0.0194321
0.0128923
0.00872567
0.00818717
0.00812146
0.00805087
0.00801954
0.00802892
0.00806678
0.00808009
0.00804541
0.00796491
0.0078267
0.00769063
0.007633
0.00826726
0.0111516
0.0153134
0.0148177
0.0135309
0.0121791
0.0110226
0.0086989
0.0151237
0.0128278
0.0109189
0.0133664
0.0164611
0.0207988
0.0244323
0.0176191
0.0141036
0.0127614
0.0126324
0.0125142
0.0125542
0.012426
0.0124827
0.0122744
0.0128546
0.0135407
0.0169434
0.0189714
0.021162
0.0226696
0.023261
0.0239718
0.0211059
0.0229966
0.0227263
0.0235042
0.0233224
0.0226321
0.0207065
0.0189058
0.0176768
0.0190855
0.0236392
0.032261
0.0266629
0.0206897
0.0167389
0.01369
0.0149638
0.0166338
0.0168076
0.0158201
0.0155893
0.0153802
0.0138575
0.0130608
0.0110653
0.0104581
0.0100066
0.0101647
0.0143604
0.0134933
0.0136775
0.0143976
0.015476
0.0146386
0.0150694
0.0142379
0.0144872
0.014909
0.0169823
0.0185312
0.0177756
0.0164697
0.0159719
0.0137041
0.0158056
0.0156634
0.0169844
0.0185663
0.0190573
0.0189947
0.0183592
0.016765
0.0186529
0.0220151
0.0256632
0.0246681
0.0243471
0.020415
0.019222
0.0201991
0.0214753
0.0223792
0.0224377
0.0222398
0.0223011
0.0262499
0.0258281
0.0246508
0.0225846
0.0201406
0.0174906
0.0151055
0.0165787
0.018056
0.0194426
0.0207085
0.0205005
0.01897
0.0176127
0.0163839
0.0148936
0.0146171
0.0160689
0.0172906
0.0187245
0.020448
0.0205403
0.0188158
0.0173155
0.0160314
0.014558
0.0145155
0.0160162
0.0173174
0.0187403
0.0202344
0.0196039
0.0184422
0.0171868
0.0159415
0.0144884
0.0145588
0.0158812
0.0169525
0.0180393
0.0189936
0.0198419
0.0178803
0.016968
0.017056
0.0160672
0.0192425
0.0184883
0.01943
0.0179824
0.0167647
0.0177714
0.0209581
0.0239859
0.0245387
0.0242589
0.0201314
0.0205864
0.0205614
0.019146
0.0159309
0.0153334
0.0180905
0.0208126
0.0212721
0.0199746
0.0168904
0.0132569
0.0142721
0.0174193
0.0197235
0.0184694
0.0183137
0.0169061
0.0158243
0.0161175
0.0138333
0.0165708
0.026588
0.0240504
0.0220278
0.0195527
0.0155699
0.0105513
0.0114448
0.0125926
0.0130051
0.0105145
0.00787738
0.00707507
0.00688377
0.00672696
0.00650936
0.00614166
0.00558546
0.00538799
0.0107297
0.0262833
0.0366107
0.0359194
0.0241856
0.0209034
0.0202958
0.0190711
0.00948439
0.00827958
0.0085015
0.0104497
0.00824128
0.00867598
0.0150488
0.0102676
0.0140318
0.0108477
0.0146276
0.0230383
0.0219313
0.0146384
0.00804914
0.00686574
0.00734773
0.00763484
0.00783654
0.00803098
0.00826204
0.0086447
0.00995761
0.0156461
0.0201974
0.017668
0.0166763
0.0152133
0.0187371
0.0212166
0.0231557
0.0259192
0.0160385
0.0117319
0.0165689
0.0271463
0.0246311
0.0231705
0.0170632
0.0176046
0.0170478
0.0109593
0.0106166
0.0105343
0.0113461
0.0127253
0.0146469
0.0158108
0.0165594
0.0168852
0.0177885
0.0230656
0.0215865
0.021079
0.0173206
0.0133127
0.015323
0.0513435
0.0194994
0.0206073
0.018858
0.0191369
0.0204244
0.0151531
0.0135176
0.0129256
0.0146058
0.0214635
0.0214708
0.021329
0.0181969
0.0174104
0.0208216
0.0219125
0.0223198
0.021698
0.0212471
0.0193899
0.016629
0.0180563
0.019569
0.0207487
0.0227486
0.0230938
0.0178698
0.0171485
0.0157703
0.0104884
0.0112316
0.00967521
0.00964782
0.00961504
0.00934216
0.00889633
0.00918284
0.00929767
0.0092934
0.00894963
0.0092429
0.00831319
0.00864521
0.00973199
0.0151662
0.0147376
0.0175357
0.0194481
0.0167
0.0155441
0.0141856
0.0131665
0.0154092
0.0142472
0.016819
0.0211542
0.0264223
0.0190664
0.0180688
0.0178416
0.0174333
0.0172742
0.0173223
0.0166359
0.0156421
0.0150804
0.0235206
0.021234
0.0181196
0.0171739
0.0157451
0.0179877
0.0174336
0.021314
0.026772
0.0269715
0.0214783
0.0215528
0.0189129
0.0200134
0.0221878
0.0269997
0.0269261
0.0143883
0.00956437
0.0153894
0.0157303
0.0183378
0.01696
0.0184833
0.019659
0.0203839
0.0202434
0.017651
0.0188209
0.0196077
0.0205928
0.0185468
0.0165441
0.0173293
0.0161098
0.0152131
0.0147178
0.0126508
0.0128904
0.0138556
0.0153022
0.0162443
0.0177317
0.0193791
0.0194108
0.0200744
0.0196695
0.0190765
0.0251515
0.0239158
0.025455
0.0281526
0.0223814
0.0177673
0.0146545
0.014962
0.0147269
0.0146334
0.0153804
0.0167355
0.0151137
0.0144992
0.0169977
0.0193461
0.0246013
0.0329133
0.0286433
0.0261113
0.0331403
0.0313318
0.0381353
0.0285961
0.0280866
0.0207959
0.0262367
0.0304696
0.0391101
0.0254466
0.0209029
0.0223738
0.0255082
0.0347271
0.0327215
0.0330602
0.0411061
0.039882
0.0361559
0.0311379
0.0352656
0.021189
0.0301391
0.0321627
0.0267826
0.0256495
0.0306656
0.0310019
0.0329484
0.0283381
0.0267186
0.017868
0.0273626
0.0312921
0.0329865
0.0277459
0.0205033
0.0279518
0.020497
0.019134
0.0202457
0.0137339
0.0126855
0.0147555
0.0138297
0.0111631
0.0121026
0.0111187
0.0110998
0.0111742
0.0112815
0.0114045
0.0116483
0.0115988
0.0125662
0.0132535
0.0125171
0.0114969
0.0121966
0.0126186
0.0161229
0.0182134
0.0204865
0.0220854
0.0229255
0.0240518
0.0226555
0.0248101
0.0237341
0.0251829
0.0248734
0.0238066
0.0213019
0.018689
0.0163566
0.017054
0.0208099
0.0275498
0.022593
0.0175039
0.0141764
0.01175
0.0130376
0.0163705
0.00884262
0.00808692
0.00781192
0.00767066
0.00761554
0.00687628
0.00594721
0.00639929
0.0122557
0.0159703
0.0203946
0.02632
0.0324618
0.0377427
0.0418238
0.0448235
0.0467451
0.0473153
0.0446096
0.0338724
0.0289804
0.024719
0.0202988
0.0164271
0.0167132
0.0243944
0.0320783
0.0396508
0.0463284
0.05132
0.0493897
0.0330643
0.0298565
0.0461334
0.0777754
0.0736573
0.096799
0.110421
0.0622815
0.0461172
0.0451563
0.0622005
0.0649063
0.0568625
0.046818
0.0364766
0.026192
0.0307741
0.0353579
0.039842
0.0446073
0.0587514
0.0614518
0.0600008
0.0570979
0.0533698
0.0484825
0.0415818
0.0331745
0.024843
0.0184413
0.0133963
0.00725582
0.00778117
0.00795764
0.007511
0.00773364
0.00802262
0.00903795
0.00875448
0.00898755
0.00879036
0.00884046
0.0078676
0.00700149
0.0103165
0.00975461
0.00981457
0.0105962
0.0136185
0.0103852
0.00753571
0.00709839
0.00710096
0.00763976
0.0182719
0.0255152
0.0306744
0.0352339
0.038498
0.0372711
0.0339493
0.0283923
0.0221556
0.0199214
0.0167565
0.0142478
0.0130286
0.0143639
0.0117715
0.00572384
0.00521602
0.00575347
0.00558092
0.00510132
0.0061568
0.00686344
0.00748994
0.00792288
0.00823904
0.00830032
0.00823664
0.00814287
0.00809437
0.00806915
0.00803468
0.00796298
0.00786046
0.0077115
0.00756934
0.00750108
0.00809319
0.0107158
0.0146578
0.0144222
0.0133041
0.0121909
0.011327
0.00960548
0.0154778
0.0131343
0.0110147
0.0101875
0.0100488
0.0103502
0.0113112
0.0129306
0.0138425
0.0158435
0.0158844
0.0157763
0.0160823
0.0158745
0.0133755
0.0151734
0.017766
0.0185735
0.0191655
0.018936
0.017392
0.0194182
0.0205708
0.0200408
0.0194454
0.0167225
0.0195034
0.0233225
0.0237508
0.0239835
0.0212954
0.0184444
0.0216207
0.0228065
0.022458
0.0233746
0.0217233
0.0224855
0.0277889
0.0145534
0.0136594
0.00839203
0.00902878
0.00936763
0.00917791
0.00888986
0.00925662
0.00949488
0.00914668
0.00982496
0.0101228
0.00935508
0.0119193
0.0110255
0.0107149
0.0101178
0.0104583
0.0109458
0.0112196
0.0125734
0.0200393
0.0206163
0.0185485
0.0212628
0.0218171
0.0181594
0.0207193
0.0216218
0.0220022
0.0223844
0.0237958
0.0222358
0.0245396
0.0238684
0.0223402
0.0215959
0.0383836
0.0252928
0.0166703
0.0154315
0.0150881
0.0151344
0.0170316
0.0126919
0.0142425
0.00997917
0.00864607
0.00829273
0.00802391
0.00855597
0.0113875
0.0177263
0.0253281
0.028006
0.0269243
0.0236112
0.0181151
0.0134469
0.0131096
0.0117717
0.0109789
0.0108202
0.00716911
0.00515151
0.0065734
0.00661472
0.00721077
0.00763223
0.00797595
0.00823362
0.00837428
0.00844452
0.00852253
0.00863423
0.00875407
0.00885447
0.00893025
0.00898166
0.0090367
0.0091491
0.00944792
0.0106434
0.0153112
0.0197388
0.0186344
0.0171685
0.0158537
0.0166194
0.0173784
0.0181181
0.0223249
0.0191691
0.0220831
0.0207349
0.0197462
0.0183352
0.0190567
0.0208544
0.0166001
0.0165225
0.0112676
0.00984359
0.00947489
0.00927045
0.00911383
0.00896038
0.00881145
0.00867701
0.00854776
0.00843373
0.00834305
0.00825238
0.0081154
0.00787803
0.00748255
0.00706192
0.00616507
0.00673249
0.00743859
0.00841266
0.00951642
0.0100721
0.0095224
0.0087775
0.00844453
0.00855611
0.008719
0.00890145
0.00911257
0.00940934
0.00987048
0.0108355
0.011508
0.0161845
0.0169131
0.0202424
0.0200503
0.0179497
0.0173039
0.0189108
0.0174317
0.0127053
0.0174629
0.0169857
0.0212162
0.0157124
0.0148136
0.0152026
0.0156771
0.0183812
0.0172938
0.0158213
0.0157851
0.0127191
0.0142809
0.0162775
0.0177805
0.0280397
0.0274574
0.0346107
0.0345403
0.0597275
0.0567879
0.0500504
0.0541912
0.0238393
0.0467296
0.0546583
0.0497543
0.0431635
0.0274996
0.0440415
0.0671304
0.097432
0.0701959
0.0574158
0.106895
0.0774164
0.0376301
0.0267178
0.0150811
0.0151567
0.0251836
0.029263
0.0242543
0.0233967
0.033652
0.0350227
0.0281836
0.0288769
0.0312652
0.0302018
0.0326856
0.0282795
0.0275912
0.0156044
0.0128039
0.0138322
0.0155592
0.0165538
0.0160371
0.0168836
0.0175643
0.0161291
0.0151087
0.0145534
0.0124898
0.013237
0.0162263
0.0204501
0.0239617
0.0172949
0.0138892
0.0125844
0.0123891
0.0121629
0.0120464
0.0117298
0.011549
0.011085
0.0112985
0.00985127
0.00986344
0.0103947
0.0105502
0.0107474
0.0108989
0.011016
0.0111247
0.0120001
0.0187896
0.0260037
0.0208082
0.0164947
0.0140141
0.0151997
0.0171206
0.0210238
0.0264522
0.0178623
0.0176825
0.0115243
0.0107392
0.0105362
0.0103721
0.0102266
0.0101363
0.0102032
0.0102074
0.0119321
0.011505
0.0133857
0.0144782
0.0119773
0.0115592
0.0111004
0.0108246
0.0106757
0.0105987
0.0106943
0.0115594
0.0113902
0.0104579
0.0103577
0.0104716
0.0106799
0.0109989
0.011445
0.0119517
0.0128599
0.0126175
0.0111861
0.0112496
0.0106049
0.0102973
0.010062
0.0100331
0.0100782
0.0102128
0.010428
0.0113379
0.0171437
0.0173227
0.0266662
0.0266504
0.0211862
0.0177118
0.015557
0.0143031
0.0135719
0.0353494
0.031036
0.0491705
0.039213
0.0313857
0.0509951
0.0726115
0.0563711
0.0919277
0.0993042
0.0730724
0.0661924
0.0210243
0.016006
0.0154723
0.0169618
0.0186537
0.0212886
0.0218845
0.0267053
0.0288137
0.0172023
0.0165212
0.015588
0.0249187
0.0230915
0.0197085
0.0178235
0.0164378
0.01899
0.0207841
0.014984
0.0150272
0.00968345
0.0106856
0.0104363
0.0101023
0.00999116
0.00992077
0.00995796
0.0100595
0.0103433
0.0108379
0.011209
0.0113348
0.0115986
0.0113907
0.0111075
0.01077
0.0105692
0.0103736
0.0102169
0.0100989
0.0101363
0.0104569
0.0106049
0.00930694
0.00964825
0.00975424
0.00976747
0.00980394
0.00977864
0.00965723
0.00947153
0.00929909
0.00911023
0.00916171
0.00996469
0.0100967
0.010155
0.0100043
0.00989378
0.00988801
0.00982831
0.00981539
0.00980159
0.00967222
0.0093518
0.00862451
0.00848177
0.00909108
0.00944392
0.00963026
0.00971973
0.00969678
0.00962994
0.00939112
0.0092102
0.00900239
0.00867347
0.00825346
0.00687759
0.00712915
0.00747203
0.0079455
0.00843482
0.00886405
0.00915006
0.00929765
0.00937927
0.00929423
0.00900388
0.00848094
0.00842933
0.00881862
0.00900133
0.00896806
0.00871988
0.00833105
0.00778502
0.00710073
0.00643264
0.00591211
0.00565046
0.00524797
0.00662527
0.00719283
0.00772905
0.00823321
0.00871794
0.00924122
0.00945973
0.00953137
0.00950525
0.00934257
0.00900328
0.00846815
0.00848051
0.00896558
0.00928513
0.0094174
0.00940762
0.00920311
0.0087751
0.0078626
0.00705278
0.00640298
0.00582684
0.00525074
0.00504656
0.00529726
0.00510576
0.00534565
0.0059392
0.00674405
0.00751679
0.0081037
0.0085142
0.00868648
0.00862913
0.00837584
0.00828221
0.00840994
0.00836142
0.00806767
0.00751198
0.00677484
0.00597092
0.00532552
0.0051164
0.00542377
0.005756
0.00545072
0.00440683
0.00495068
0.00549738
0.00608816
0.0070033
0.0081859
0.00879908
0.00912786
0.00929108
0.00922398
0.00892757
0.0084789
0.00846414
0.00889613
0.00918368
0.00923119
0.00909137
0.00877972
0.00825847
0.00682342
0.00536819
0.00475115
0.00441139
0.00396973
0.00552706
0.00588501
0.00546626
0.00519695
0.00563859
0.00619962
0.00684585
0.00737244
0.0078011
0.00810023
0.00819533
0.00815825
0.00802995
0.00803906
0.00798859
0.00778238
0.0075202
0.0072893
0.00683224
0.00637169
0.00585694
0.00640989
0.00669594
0.00627302
0.00468403
0.00497516
0.00539681
0.00566276
0.00709826
0.00853397
0.00896677
0.00913376
0.0092845
0.00921931
0.0088966
0.00844634
0.00843298
0.00896451
0.00936987
0.00950061
0.00958812
0.00965625
0.00972219
0.0085602
0.00667773
0.00623593
0.00529102
0.0048352
0.00658777
0.00701444
0.00682852
0.00656275
0.0074845
0.00787884
0.00803752
0.0080705
0.00810145
0.00808367
0.00799138
0.0079172
0.00780578
0.00825114
0.00888849
0.00878442
0.00867369
0.00850012
0.00812918
0.00767883
0.00717882
0.00784098
0.00838154
0.00811221
0.00598536
0.00635904
0.00717837
0.00734119
0.00886096
0.0100685
0.0104293
0.0104563
0.010366
0.0103512
0.00933461
0.00839859
0.00824847
0.00961449
0.0156178
0.0154606
0.0155042
0.0154386
0.0148498
0.0146756
0.0140951
0.0138321
0.013116
0.012653
0.0119554
0.0140021
0.0177671
0.0198688
0.0222404
0.0247455
0.0233459
0.018821
0.0165669
0.0101097
0.00797559
0.00688016
0.00596538
0.00527363
0.00507252
0.00754793
0.00942189
0.011619
0.013605
0.013924
0.0163724
0.0203428
0.0309704
0.0492233
0.0415663
0.0392376
0.0396847
0.0986253
2.54999
2.73506
2.49425
2.90207
3.33715
0.397519
0.152987
0.285382
0.304609
0.342382
0.32255
0.293483
0.268636
0.281964
0.270773
0.281997
0.262716
0.266739
0.232141
0.234097
0.242066
0.7163
1.05516
1.26874
1.76707
1.763
1.98722
1.93363
1.94974
1.80047
1.9166
1.66568
1.38169
1.30671
1.23533
1.32688
1.44367
1.25258
1.13638
1.01999
0.928719
0.796531
1.01048
0.767021
0.725118
0.723853
0.756407
1.00781
0.917383
1.05621
0.986128
1.03208
0.632418
0.712118
0.520658
0.433334
0.359131
0.432442
0.583265
0.778279
0.969348
0.742942
1.00068
0.919324
0.903056
0.859371
0.783149
0.743261
0.730345
0.751524
0.764324
0.779867
0.808148
0.829763
0.848806
1.00107
1.06646
1.05695
0.865241
0.772506
0.534547
0.572418
0.606066
0.609085
0.566974
0.549106
0.498979
0.48654
0.442237
0.423113
0.385385
0.366147
0.334271
0.460972
0.787439
0.816657
0.886613
0.939101
0.989646
1.01139
1.02912
1.01212
0.979104
0.908424
0.877122
0.813513
0.923234
1.11026
1.109
1.01976
0.866543
0.82044
3.82037
4.6437
3.07515
6.62801
10.0722
16.8901
7.67854
2.08332
3.49024
2.39887
2.12942
2.07644
2.19324
3.45741
2.52864
3.30701
2.75577
2.91045
2.30932
2.61003
2.48507
1.90419
1.60139
1.35684
1.25545
1.03222
1.03814
0.856606
0.801112
0.725189
0.591757
0.711589
0.714275
1.72241
2.33052
2.90054
4.54352
4.9826
5.43916
8.57364
6.91843
8.64469
5.12989
5.18711
3.83509
3.60806
3.64917
5.02281
7.19791
4.95594
8.65934
4.82367
15.6388
35.0017
9.2307
19.1253
11.0309
9.97132
9.60883
9.89959
14.078
9.60022
15.6063
13.1813
17.5528
17.1792
18.2638
14.2353
10.5715
11.5985
12.4569
15.9855
11.4154
13.2556
10.1544
9.94299
9.2811
7.62569
6.65509
5.08055
6.00798
7.03073
8.0117
12.734
15.9328
18.2803
22.0296
16.2362
18.5064
11.1347
12.2334
9.44817
8.86866
9.00776
11.8588
21.0434
14.9043
27.2906
0.499265
0.22641
0.547305
0.230172
0.488385
0.391568
0.404163
0.405119
0.400833
0.462824
0.220747
0.1855
0.177678
0.175512
0.177031
0.100374
0.124629
0.0805155
0.127032
0.229596
0.50525
0.3661
0.140648
0.0826692
0.0546596
0.0430002
0.0635513
0.0613506
0.0981166
0.0994858
0.105844
0.132459
0.228795
0.43498
31.9091
7.15206
1.13788
0.533698
0.284235
0.174432
0.150557
0.170227
0.183171
0.186111
0.175054
0.149171
0.107599
0.0719923
0.0488939
0.0413487
0.0301195
0.0274616
0.0389969
0.0528044
0.0489676
0.0646941
0.0830739
0.105799
0.129986
0.149299
0.163875
0.167941
0.156021
0.122176
0.0804124
0.0443812
0.0265868
0.0229418
0.0210116
0.0195096
0.0168569
0.0146574
0.0132198
0.0112887
0.00994457
0.00896773
0.00864784
0.0087684
0.00956605
0.0120996
0.0145602
0.0188507
0.0179681
0.0134532
0.0126204
0.00781742
0.00722726
0.00737439
0.00762448
0.00845521
0.0132314
0.0135362
0.0134132
0.013435
0.0132497
0.0132204
0.0130471
0.0128641
0.0126423
0.0122117
0.011922
0.011402
0.0111242
0.0104763
0.010503
0.0108666
0.0111675
0.0101104
0.010004
0.00931481
0.0202479
0.0485058
0.070028
0.0784904
0.0882653
0.0809827
0.0418353
0.0229023
0.0078568
0.00767826
0.00817522
0.00880032
0.00835828
0.00618267
0.00672923
0.00785575
0.011019
0.0109439
0.0109762
0.012792
0.0133228
0.0147001
0.0152477
0.0156634
0.0158993
0.015882
0.0160265
0.0157844
0.0158917
0.0157116
0.0158083
0.0154079
0.0273507
0.0257467
0.0264461
0.0264456
0.0275722
0.0270238
0.0264719
0.0254729
0.0247231
0.0231952
0.0215866
0.0200247
0.0179413
0.0186845
0.0180353
0.0112468
0.0106749
0.00766226
0.0077403
0.00744126
0.010215
0.00929573
0.00781221
0.00917101
0.00674408
0.00693275
0.00724386
0.0103158
0.0108447
0.0172574
0.0172617
0.0152867
0.0162565
0.0172848
0.0186042
0.019777
0.0212046
0.0222315
0.0233377
0.0252496
0.0257114
0.0240434
0.0237403
0.0226464
0.0245841
0.0235618
0.0218219
0.0233749
0.0249683
0.0274153
0.0270435
0.0248548
0.0235205
0.0220898
0.0197719
0.01714
0.0157685
0.0147685
0.0147814
0.0137498
0.0160493
0.014467
0.0100761
0.0104857
0.00808194
0.00633693
0.00601633
0.0091826
0.0131045
0.0280582
0.0175062
0.00942351
0.0107116
0.0172162
0.0358872
0.0212594
0.0346596
0.0145815
0.015889
0.0124984
0.0124674
0.0137453
0.0160251
0.0170997
0.0207422
0.0233987
0.0253942
0.0263067
0.0276461
0.0280402
0.0294666
0.0299139
0.0326419
0.0329097
0.0330061
0.0325518
0.0302549
0.0272105
0.0250864
0.030993
0.0358691
0.0390418
0.0414358
0.0438245
0.0425275
0.0387962
0.0379184
0.0359879
0.0348668
0.0334462
0.0303476
0.0265267
0.02175
0.0211628
0.0271316
0.0328466
0.049062
0.0529926
0.0527318
0.0550528
0.05556
0.0573164
0.0577559
0.0604165
0.0609949
0.0621618
0.0625002
0.0677648
0.068662
0.0696923
0.0700171
0.0697469
0.0707494
0.0707953
0.0481148
0.0431599
0.0392385
0.032601
0.0273317
0.0346676
0.0431552
0.0482535
0.0736296
0.0741053
0.0778497
0.080462
0.085457
0.0891605
0.0941052
0.098623
0.103082
0.106527
0.108625
0.108966
0.109455
0.108492
0.107198
0.115983
0.150668
0.167285
0.198072
0.213183
0.225737
0.229673
0.220938
0.224758
0.216648
0.219204
0.212957
0.210957
0.20568
0.19927
0.195679
0.189268
0.185176
0.213382
0.161491
0.123966
0.0825377
0.0663856
0.0594896
0.0558815
0.0585239
0.0453942
0.0388143
0.05798
0.0535254
0.0430541
0.0292245
0.0187405
0.0317754
0.0473581
0.0642472
0.0814593
0.0971888
0.107475
0.11006
0.10901
0.104333
0.0965733
0.0814895
0.0614756
0.0423522
0.0349848
0.0322984
0.0283048
0.022315
0.0179276
0.0157935
0.0141937
0.0124115
0.0111496
0.01059
0.0107358
0.0110442
0.0132426
0.0173242
0.0173168
0.0116057
0.0111701
0.0076834
0.00776895
0.00802294
0.0133541
0.0134944
0.0209276
0.0233645
0.0220031
0.0226842
0.0224102
0.0226907
0.0223173
0.0211195
0.0202761
0.0193065
0.0184656
0.0177287
0.016913
0.016124
0.0174306
0.0163886
0.0138279
0.0139406
0.0145488
0.0151877
0.016071
0.0173241
0.0184033
0.0211038
0.021294
0.0208057
0.0209064
0.0194447
0.0187383
0.0199963
0.0195304
0.0133045
0.0131342
0.019172
0.0188239
0.0186999
0.0225117
0.0209156
0.0214363
0.022556
0.0224255
0.0194787
0.0181178
0.0165728
0.015396
0.014026
0.0125186
0.0121474
0.0148803
0.0131268
0.0107733
0.011957
0.0143649
0.0169763
0.0184336
0.0204159
0.0231286
0.024093
0.0263223
0.0277385
0.0298326
0.0306727
0.0354947
0.0361748
0.0340569
0.0322115
0.0312208
0.0274567
0.0235146
0.0259332
0.0267925
0.0271671
0.0272541
0.0271231
0.0235348
0.0231017
0.0215853
0.0210693
0.0195042
0.018947
0.0177884
0.017031
0.0160129
0.0141864
0.0134405
0.0126316
0.0122852
0.0173456
0.0108221
0.0105797
0.0159709
0.00984012
0.0115777
0.0113299
0.0118467
0.0124899
0.0103388
0.0151311
0.010315
0.0112063
0.0114293
0.0143176
0.00988887
0.020067
0.0627011
0.0921826
0.111055
0.202062
0.242698
0.26319
0.283991
0.298289
0.314317
0.331938
0.3497
0.362874
0.364426
0.338888
0.320461
0.255555
0.228871
0.252773
0.283106
0.195351
0.16763
0.169961
0.170875
0.173517
0.174839
0.178566
0.176574
0.18175
0.177408
0.184806
0.178813
0.18542
0.177883
0.16235
0.145624
0.112793
0.101939
0.0657416
0.0509028
0.0398277
0.0288915
0.0210407
0.0188771
0.0178564
0.0164855
0.0165678
0.012698
0.0131149
0.00840136
0.00616538
0.00986758
0.00971492
0.00722285
0.0098469
0.011247
0.0117662
0.0123051
0.0125955
0.0192663
0.0193102
0.0247434
0.0246227
0.0291944
0.0347966
0.0360293
0.0396801
0.0570226
0.057521
0.0572661
0.0570596
0.0566204
0.049386
0.049104
0.0479959
0.0474072
0.0444686
0.0439151
0.0418431
0.0407112
0.0377778
0.0369577
0.0358266
0.0362504
0.0400656
0.0545785
0.0965142
0.0290458
0.027515
0.0202532
0.0145063
0.0212211
0.0158659
0.0153799
0.0135787
0.0186597
0.0134217
0.0136774
0.0164718
0.0169814
0.0163722
0.0212946
0.0265485
0.023288
0.0256306
0.114875
0.0729782
0.0239682
0.0472822
0.0708328
0.156504
0.20367
0.139281
0.159228
0.183478
0.166451
0.13965
0.108802
0.0811775
0.0573136
0.0439219
0.0113725
0.0133242
0.0184223
0.0403413
0.0599377
0.101254
0.0832124
0.108821
0.148793
0.173286
0.20935
0.200756
0.172587
0.148491
0.14531
0.160734
0.162179
0.104382
0.101291
0.0770579
0.173468
0.219121
0.184358
0.231547
0.243935
0.141561
0.031431
0.0183177
0.0150868
0.0138879
0.0124155
0.019379
0.0114285
0.0116243
0.0123341
0.013256
0.0169165
0.0294017
0.0134042
0.0149003
0.0183304
0.0158964
0.0149621
0.0146223
0.0145444
0.0151826
0.0165563
0.0215846
0.021635
0.0212582
0.0159532
0.0172377
0.0156548
0.0199395
0.0211371
0.0332358
0.0152151
0.0161534
0.0214176
0.475788
0.0245472
0.0177815
0.0231457
0.0218129
0.030006
0.0440935
0.456857
0.0437967
0.0350188
0.0585476
0.0608411
0.0654939
0.0691574
0.0726557
0.0751769
0.0791156
0.0817882
0.0830095
0.0842271
0.0999469
0.0999848
0.098926
0.103529
0.097688
0.0577097
0.0579366
0.097538
0.105292
0.0594858
0.0410898
0.0385887
0.0312884
0.0324335
0.0419874
0.0440463
0.0617303
0.0615635
0.102688
0.0936333
0.095033
0.0967566
0.0917264
0.0921763
0.0942557
0.0941656
0.0753501
0.0730578
0.0713028
0.0682405
0.0647076
0.061807
0.0588985
0.0557993
0.0531333
0.0531325
0.0577108
0.0582585
0.0657882
0.0723161
0.218363
0.148165
0.106003
0.0789399
0.0645745
0.0587013
0.0583918
0.0616171
0.0648565
0.0665246
0.0673287
0.070674
0.0924386
0.0949536
0.097835
0.0952549
0.0991042
0.0971862
0.0947182
0.10464
0.112497
0.0657453
0.0678289
0.0479104
0.0447274
0.0326448
0.0332206
0.0237023
0.0196455
0.0196141
0.0195973
0.0198393
0.0227447
0.0318063
0.0318992
0.0466202
0.0465014
0.0519154
0.0755436
0.0725811
0.129447
0.118612
0.108917
0.101551
0.101932
0.104036
0.106635
0.101613
0.0977681
0.0921995
0.0724198
0.0684349
0.0662927
0.0650179
0.0636937
0.0669895
0.0898632
0.145007
0.221761
0.326328
0.427014
0.438953
0.398091
0.24697
0.288034
0.142786
0.163769
0.185452
0.159668
0.16891
0.318452
0.264945
0.374625
0.480526
0.534424
0.600853
0.63745
0.624353
0.494487
0.320649
0.328137
0.437108
0.766956
0.860419
0.744323
0.762577
0.65912
0.541204
0.522912
0.498377
0.562543
0.613877
0.579307
0.596709
0.540818
0.516334
0.446192
0.497997
0.363903
0.327774
0.308125
0.299268
0.35862
0.290174
0.326796
0.268546
0.274728
0.22319
0.228717
0.190943
0.14617
0.138554
0.128431
0.143768
0.162922
0.149222
0.153506
0.134017
0.114482
0.09118
0.0984635
0.0735302
0.0695026
0.0704796
0.080073
0.125102
0.365961
0.172662
0.163188
0.16748
0.177935
0.319012
0.282723
0.725482
0.50866
0.712165
0.475571
0.564641
0.472501
0.364485
0.380054
0.420062
0.600943
0.824697
6.66165
0.28491
4.2686
3.16836
3.32643
3.47174
4.4501
7.81693
7.11382
9.40277
6.80947
9.08399
4.97434
4.97624
4.32574
4.47088
4.43817
4.26068
5.18195
6.61388
0.238175
0.0909295
0.0854206
0.0856078
0.0873835
0.197715
0.0525617
0.202034
0.0539735
0.213517
0.0495336
0.246738
0.196946
0.0382421
0.0192586
0.020091
0.0168075
0.0203755
0.0169228
0.0250464
0.0235416
0.0236976
0.0265762
0.0761254
0.291506
13.7462
1.64352
0.684092
0.782989
1.17267
0.796021
1.19523
1.6615
1.11681
0.556466
0.363531
0.428701
0.518146
0.495078
0.633126
0.912748
0.893662
0.702461
0.706837
0.621639
0.879149
0.888413
1.05461
1.23247
1.12893
0.883147
0.695156
0.58622
1.01387
1.02105
0.954864
0.402022
0.112653
0.0464254
0.0484895
0.0354239
0.0374383
0.0346873
0.054127
0.1581
0.217843
0.130855
0.42639
0.412496
0.564058
0.402776
0.412894
0.325652
0.350245
0.533742
0.58333
0.643282
0.674772
0.725044
0.66787
1.28216
2.19207
2.47918
12.816
17.4021
3.19314
3.09354
13.9475
0.314912
0.0838386
0.0233069
0.0174289
0.0162165
0.0161298
0.0150011
0.0155386
0.0160004
0.0169644
0.0188307
0.0231993
0.0458444
0.201541
0.203517
0.0643669
0.0324398
0.0229744
0.0196183
0.0170475
0.0163879
0.0155323
0.0154599
0.0150083
0.0156578
0.0174637
0.0237801
0.0774471
0.271221
11.342
2.43921
2.25835
8.38925
5.79931
0.206837
0.04381
0.0200969
0.016928
0.0158847
0.0167552
0.0162667
0.0182126
0.0184037
0.023019
0.0250257
0.0317765
0.0571065
0.110255
0.315846
9.60468
8.67428
8.39836
7.83141
0.31047
0.115295
0.0544232
0.0382421
0.0346314
0.0338249
0.0226517
0.0236772
0.0189844
0.0216454
0.0182978
0.0226888
0.0483316
0.21201
5.35675
1.57313
1.70391
1.21122
0.613625
0.656063
0.669816
0.689263
1.77236
4.04877
4.98236
3.42336
3.35869
4.70237
3.16828
2.47967
1.82731
1.74696
2.54487
1.96344
1.82613
1.35673
1.46626
1.06861
1.46849
0.811977
0.978088
1.07409
1.53253
1.39894
1.412
0.909636
1.05169
1.47666
1.72783
1.65199
0.844949
1.22873
1.01514
0.655468
0.607588
0.633944
0.60359
0.578043
0.575111
0.579717
0.55874
0.576232
0.55655
0.588786
0.548574
0.533532
0.507513
0.527117
0.54444
0.576974
0.360043
0.422413
0.426966
0.441411
0.453862
0.374744
0.450976
0.441612
0.659046
0.995091
0.831411
1.14486
0.677266
1.00318
2.00767
5.21221
2.33375
0.817132
1.34788
1.58573
1.14001
0.628613
2.55458
3.56391
1.23174
1.78759
10.3976
8.44226
16.5304
10.9643
18.6096
6.02662
4.63337
17.7921
6.66627
6.89902
4.50801
4.51675
2.95582
1.58321
1.62598
1.73787
1.22542
1.29738
1.20782
1.13365
1.47305
1.4373
1.88224
2.03192
2.57301
1.80988
1.77196
2.59116
1.06273
1.39665
1.83401
1.8254
1.3574
2.33577
3.14995
2.95601
2.12936
2.33166
3.49808
4.8096
4.56177
3.15692
3.94954
10.117
13.4992
13.6755
4.21743
19.3336
18.304
2.06611
0.56004
0.319814
0.0881319
0.044226
0.036599
0.0386606
0.14314
0.0457891
0.0569444
0.0453466
0.0722615
0.0694251
0.0867019
0.216125
0.125643
0.213959
0.154246
0.187403
0.119548
0.191239
0.224191
0.233817
0.186121
0.114129
0.210508
0.303325
0.104562
0.350512
0.385354
0.256908
0.328443
0.391267
0.194019
0.988914
0.183819
0.125546
0.144585
0.388258
1.24892
0.215438
0.457289
4.46204
14.7138
3.66468
0.930599
0.673613
0.0552207
0.0299784
0.0314849
0.0277261
0.0193625
0.0830512
0.0974662
0.401936
0.206867
0.278311
0.662451
2.93479
2.40064
1.11889
5.47653
10.2834
15.1622
9.13557
2.22175
9.76099
19.6224