/*--------------------------------*- C++ -*----------------------------------*\
| =========                 |                                                 |
| \\      /  F ield         | OpenFOAM: The Open Source CFD Toolbox           |
|  \\    /   O peration     | Version:  v2012                                 |
|   \\  /    A nd           | Website:  www.openfoam.com                      |
|    \\/     M anipulation  |                                                 |
\*---------------------------------------------------------------------------*/
FoamFile
{
    version     2.0;
    format      ascii;
    class       surfaceScalarField;
    location    "1180";
    object      phi;
}
// * * * * * * * * * * * * * * * * * * * * * * * * * * * * * * * * * * * * * //

dimensions      [1 0 -1 0 0 0 0];
oriented        oriented;


internalField   nonuniform List<scalar> 
50655
(
0.00258204
-0.00360279
-0.00141096
-0.00513567
0.00138205
0.00359583
-0.00339579
0.00393383
0.00445637
-0.00249882
-0.00283221
0.00305832
-0.00370073
-0.00378816
0.00266666
-0.0017735
-0.00484983
0.000811595
0.00020298
-0.00471259
0.00159989
-0.00180771
-0.00719223
0.0023921
-0.0104808
0.00282693
0.000362855
-0.0113041
-0.00345271
0.00416598
-0.0120557
-0.00483815
0.00548739
-0.012916
-0.0056338
0.00639
-0.0261949
-0.00931569
0.0224006
-0.0487175
-0.0282627
0.050225
-0.0482956
-0.0527344
0.0516153
-0.0310835
-0.0711325
0.0531425
-0.00457052
-0.0779867
0.0506908
0.00785265
-0.0546767
0.0414422
-0.00166867
-0.0314692
0.0402177
-0.0208802
-0.0217243
0.040169
-0.0167537
-0.0512605
0.0464117
-0.00693452
-0.0550767
0.0446999
-0.0386509
0.0313873
-0.040983
0.0188243
-0.0167935
-0.0156509
-0.0755322
0.0497054
0.0202949
-0.0797362
0.043294
0.0305453
-0.0290929
0.0185354
0.0340022
-0.00379429
0.0364201
0.0179045
-0.0206449
0.0252617
-0.0179154
0.0287979
0.016331
-0.00947523
0.0182368
0.00327949
-0.0013336
0.0142581
-0.00651388
0.00672186
0.00297623
-0.00542218
6.64732e-05
-0.00119887
-0.00538944
-0.00126189
0.00121076
-0.00631422
0.000265713
0.000641778
-0.00758416
0.000256636
0.000996703
-0.0087352
0.00013416
0.00099974
-0.00913604
-0.000210767
0.000595246
-0.00940769
-0.000627056
0.000882116
-0.00897117
-0.00105259
0.000599786
-0.00834832
-0.0015175
0.000877984
-0.0071235
-0.00196227
0.000721014
-0.0056998
-0.00242292
0.000982355
-0.00382209
-0.00272329
0.000829409
-0.00198417
-0.00291609
0.00106121
0.000901743
-0.0029035
0.000643793
-0.00254021
0.00277252
-0.00543619
0.00503966
0.00099855
-0.0108573
0.00478675
0.000577892
-0.0130188
0.00520048
-0.00310597
-0.0129169
0.00540428
-0.00557317
-0.00541302
0.00466694
-0.0122273
0.000512138
0.00561195
-0.0115788
0.000601891
0.00357382
-0.00368921
-0.00150245
0.00208675
-0.00294959
0.00214048
-0.000710464
-0.00450843
0.00218746
-0.000644782
-0.0058215
0.0023457
-0.00104901
-0.00708809
0.0023028
-0.00105116
-0.0085898
0.00249492
-0.00100724
-0.0101564
0.00258133
-0.00102817
-0.0114527
0.00237421
-0.00109105
-0.0123564
0.00201333
-0.00112263
-0.0128253
0.00160075
-0.00114481
-0.0131449
0.0014353
-0.00112904
-0.0137499
0.0015626
-0.000971755
-0.0139583
0.00111863
-0.00092532
-0.0136648
0.000892574
-0.00120154
-0.0136555
0.000778355
-0.000803253
-0.0133816
0.000822585
-0.00111262
-0.0131346
0.000897109
-0.00116006
-0.0129901
0.000840059
-0.00100032
-0.0127143
0.000570083
-0.000861443
-0.0121751
0.000121013
-0.000675716
-0.0112735
-0.000455291
-0.000461564
-0.0101521
-0.000915694
-0.000221028
-0.00883413
-0.00101161
-0.000321096
-0.00738554
-0.000762048
-0.000700394
-0.00758218
-0.000693736
0.00087838
-0.0163861
0.000817132
0.00796027
-0.0211605
0.00038232
0.00433149
-0.0226094
0.00113381
0.000249804
-0.0426067
0.0163287
0.00355117
-0.0545971
0.00552562
0.00616639
-0.0294721
-0.0163916
-0.00904088
-0.0131211
-0.0149893
-0.00149389
-0.0112673
-0.00400686
0.00207508
-0.0100179
-0.00310199
0.00176254
-0.00810087
-0.00345357
0.001435
-0.00473211
-0.00331297
-0.000151068
-0.00319362
-0.00162379
-0.0044659
0.00460725
-0.00342986
-0.00269597
0.00673778
-0.00862134
0.000881434
0.00621748
-0.00992707
0.00616217
0.00590931
-0.0113349
0.0149029
0.00881782
-0.0177397
0.0284526
0.0138095
-0.0276417
0.0248839
0.0196777
-0.0163905
0.0165379
0.00640201
0.00175932
0.00787014
7.01739e-05
0.00845021
-0.00106483
-0.00395583
0.0127559
-0.00444801
-0.00678767
0.0100545
-0.00757517
0.00542181
0.00438401
0.000992635
-0.0102224
0.00208893
-0.00821622
0.00360995
-0.00509397
-0.00428222
0.00738351
-0.0124874
0.00201817
0.00531256
-0.0143225
0.00571315
0.0023871
-0.0383865
0.0270265
0.0232432
-0.00710931
-0.0132701
0.0371683
-0.00968963
-0.0393629
-0.00477866
0.00930594
-0.00911411
-0.000523655
0.00897749
-0.00745325
0.00268381
0.00959854
-0.00671094
0.00459752
0.00961743
-0.00490328
0.00714134
-0.00134336
0.0112866
-0.00500633
-0.00270966
0.0124644
-0.00193586
-0.0024464
0.00881977
-0.000392829
-0.00419642
-0.00202349
-0.0210967
-0.00218474
0.0295657
-0.0106552
-0.0143379
-0.00172721
-0.00711325
-0.00254904
-0.00732436
0.0158916
0.00125664
-0.0102627
0.0219429
0.00106358
-0.00899833
0.0325127
0.000265727
-0.0131971
0.0832605
-0.00227895
-0.0359704
0.0468296
-0.00191003
0.0455323
-0.00233509
0.00750085
-0.00317064
0.0384585
0.00387069
0.0218144
0.00196851
0.0232347
-0.000313626
0.0113219
0.0139346
0.00624798
-0.00798627
9.48615e-05
0.00681116
0.00521793
-0.00149779
0.00732153
0.00818851
-0.0015383
0.00712281
-0.0150812
0.00798082
-0.00211872
0.0073701
-0.0153147
0.0085052
-0.00127949
0.00743679
-0.0167134
0.00841693
-0.00132359
0.00742043
-0.0160134
0.00861626
-0.000644046
0.00728561
-0.0165971
0.00861134
-0.000274181
0.00703414
-0.0159886
0.0085646
0.000696105
0.00623473
-0.0154527
0.00822904
0.00575228
0.00442036
-0.0169414
0.00745035
0.00149667
-0.00417338
0.00567515
0.00273951
0.0008134
0.00537851
-0.000281871
0.000635423
0.00713806
-0.000736104
0.000789872
0.0080179
-0.0011505
0.000945924
0.00832081
-0.00120423
0.00128255
0.00838745
-0.0013169
0.001506
0.00856194
-0.00136187
0.00150722
0.00870772
-0.00135182
0.00126917
0.00871904
-0.0013705
0.000939852
0.00883461
-0.00119565
0.00730964
-0.000262763
0.00935747
-0.00200785
-0.000816004
0.0110359
-0.00185334
-0.000852128
0.0123201
-0.0015501
-0.000665675
0.0131059
-0.000313494
-0.000943234
0.0135363
0.000851381
-0.00117655
0.0137136
0.00170885
-0.00133194
0.0137122
0.00223746
-0.00141223
0.013771
0.00225035
-0.00142863
0.0137258
0.00182665
-0.000975306
0.0137323
0.00134995
-0.000594147
0.0139138
0.00123031
-0.000534875
0.0133006
0.00114941
0.000567274
0.0124471
0.00243625
0.000234223
-0.000268534
0.0126862
-0.000413042
0.00244097
-0.000845074
0.0123465
-0.000237404
0.00280272
-0.00063808
0.0114718
-7.36839e-05
0.00311434
-0.000165828
0.0102082
4.99199e-05
0.000297232
0.00327747
0.00860877
0.000722088
0.00331444
0.000130669
0.00686335
0.0010402
0.00304788
0.000138432
0.00585818
0.00096332
0.0022406
8.91025e-05
0.00441482
0.00462086
-0.0008482
0.00286231
0.00427739
-0.000553633
0.00141751
-0.000505001
0.00407388
0.00389555
-0.000408225
0.0056045
-0.000516946
-0.00120815
0.00682777
-0.000410945
-0.000829176
0.00780021
-0.000609336
-0.000379594
0.00816607
-0.000474722
9.21507e-05
0.00822596
-0.000608919
0.000532565
0.00754102
-0.000261695
0.000930037
0.00657087
-0.000299704
0.0012533
0.00476516
0.000282549
0.00150608
0.00210214
0.00110784
0.00153805
-0.00165986
0.0020508
0.00169324
-0.00443111
0.00059374
0.00215953
-0.0059582
-0.000857291
0.00236512
-0.00723993
0.000623998
0.000635782
-0.0136712
0.000508102
0.00587831
-0.0246969
-0.00654411
0.017454
-0.0308516
-0.0160733
0.0220627
-0.0390453
-0.025937
0.0338643
-0.0314947
0.0235263
0.0161687
-0.0382822
0.00920737
0.0258084
-0.0166405
0.00693224
-0.00456563
0.004383
-0.0321529
0.026005
0.00153346
-0.0146423
-0.0233292
0.00578332
-0.0374571
0.00612802
0.0410812
-0.0572488
-0.000803705
0.0288828
-0.0498236
0.015107
0.0125576
-0.01
0.0169301
-0.0103077
0.010884
-0.00245709
0.0188326
0.00791409
0.0111993
-0.0125608
0.0135342
0.00522303
-0.00616503
0.00131148
0.0112131
0.00481375
0.00102182
0.00266337
0.00128287
-0.00104911
0.00156699
0.00271765
-0.00489057
0.00380578
0.00206496
-0.00545264
-0.000537077
0.00218602
-0.00958092
0.0019636
0.00242675
-0.0082278
-0.00369929
0.00202638
-0.0118764
0.00194577
0.0014213
-0.00891395
-0.004191
0.000599788
-0.0112478
0.0021419
-0.000302541
-0.00732623
-0.00321418
-0.00133637
-0.0081651
0.00227955
-0.00187179
-0.00441125
-0.00172902
-0.00256102
0.00128905
-0.00255377
0.00393403
0.0117718
-0.0105933
0.0113265
0.00660467
-0.00938274
0.0127243
0.00898336
-0.00504662
0.00967004
0.0106075
-0.00242242
0.00394887
0.00957265
0.000882771
0.0128173
-0.00267771
-0.00212814
0.000917781
0.015269
-0.00574333
0.00428001
-0.00324387
0.00218007
0.0151911
-0.00738149
-0.00305136
0.00330666
0.0071308
0.010562
-0.00784129
-0.0026652
0.00332707
0.0117344
0.00177761
-0.00668046
-0.00197608
0.00120099
0.0161549
-0.00106122
-0.00424094
0.00752262
-0.000488298
-0.00523965
0.0109714
-0.00017928
-0.0103376
0.012622
-0.00896916
-0.0142387
-0.0141096
0.0084254
0.0056861
-0.0240826
0.00410929
-0.0185102
0.00622616
-0.0164122
-0.0114247
0.00925767
0.00799021
0.00960765
-0.0340567
-0.0236771
0.00754945
0.0112091
0.00757137
-0.0099963
-0.0325498
-0.00912203
0.00776518
-0.00160126
7.82002e-05
0.00773131
-0.00654162
-0.0104531
0.0114268
-0.00760757
-0.0141119
0.0106032
0.0104748
-0.000921117
-0.00881548
0.0102953
-0.00143813
0.00788364
-0.0079554
0.00413066
0.00105416
0.00442445
-0.00381257
0.00614623
-0.00632538
0.0139772
-0.0121611
-0.00363286
0.0108177
-0.0170448
-0.00264452
0.00570125
-0.0169779
-0.00104071
-0.00114875
0.00197609
-0.00819212
0.00822395
0.00974172
-0.00945377
0.0106302
0.0114377
-0.00494075
0.0111922
0.0121017
-0.0021365
0.0108693
0.00408335
-0.0106779
0.0112496
0.00284572
-0.00893243
0.012394
-0.00212123
-0.00480276
0.0119387
-0.00471427
0.00986052
-0.00603306
0.00209836
0.00401537
0.00102956
0.00773818
0.00792136
-0.0017098
0.0107837
0.00908054
0.000180844
0.0078482
0.00627223
-0.0091487
0.0101687
7.62705e-05
-0.00716325
0.00355401
0.00345264
0.000184881
0.00159367
-0.00110991
0.00491686
-0.00678016
-0.00158021
-0.00234159
0.0187716
-0.00331867
-0.0196083
0.0169252
-0.00138236
-0.00184513
-0.0163634
-0.0118796
-0.000735791
0.00318093
-0.00873077
-0.0106245
-0.0129925
0.00640147
-0.00594381
-0.00495978
0.000825017
0.00133442
0.00037951
-0.00209009
-0.00423568
-0.000991432
0.00395117
-0.00258182
-0.000414368
0.00178744
-0.00236589
0.00128925
-0.0037959
0.00670655
0.000673795
-0.0110629
0.000649371
-0.00347337
0.010341
-0.00345862
-0.00447941
-0.0188382
0.0138108
-0.0117681
-0.0193529
-0.0117514
0.00786126
0.00431271
-0.026562
-0.0153598
0.0025874
0.00932135
0.0105491
-0.0355482
-0.016443
0.0130803
0.00183909
0.0104075
-0.0422644
-0.0146128
0.00984695
9.18458e-05
0.0112869
-0.0436429
-0.0107812
0.0032491
-0.00152147
0.0103275
-0.0431445
-0.00616668
-0.00149153
-0.00183264
0.00888262
-0.0394699
-0.00334261
-0.00449858
0.00407247
-0.0347296
-0.00117722
-0.00710817
0.00648464
-0.00304765
-0.032171
0.00135301
-0.00611443
0.00560811
-0.00350719
-0.0291272
0.00267046
0.00447902
-0.00399356
-0.00630254
-0.0289309
0.00207431
0.00396595
-0.00356595
-0.00278264
-0.0298385
0.000208407
0.00181619
-0.00122412
-0.0277831
-0.00159361
0.00136748
-0.00194282
-0.0229872
-0.00263429
0.00154032
-0.00379827
-0.0301755
0.00170204
0.0226434
-0.0172327
-0.0593084
0.029327
-0.0129143
0.0123495
0.00604034
-0.0199173
-0.00133196
-0.013205
-0.0251985
-0.00920336
-0.0122559
-0.00047851
-0.00875868
-0.0111593
0.000623324
0.00028608
-0.00943103
-0.000578911
0.000516573
-0.00580482
-0.00376064
0.00145914
-0.00310372
-0.00399673
0.00104617
-0.004536
-0.000261187
-0.00445785
0.000802956
-0.000928352
-0.0068441
0.00204858
0.00027448
-0.0107844
0.00220452
0.00165612
-0.0130961
0.000814411
0.00141871
-0.0133636
-0.000355526
0.000553246
-0.0130734
-0.00175115
0.00140697
-0.0236438
0.00142065
0.00907495
-0.0568417
0.0174981
0.0154931
-0.101269
0.00881571
0.0350387
-0.117917
-0.00591885
0.0218727
-0.12726
-0.0116445
0.0202134
-0.133677
-0.0165452
0.022127
-0.13732
-0.0222376
0.024996
-0.138639
-0.027305
0.0277136
-0.138556
-0.0307876
0.0297808
-0.137742
-0.0329386
0.0311991
-0.136284
-0.0341851
0.0318107
-0.134137
-0.034832
0.0317837
-0.130297
-0.0353405
0.030629
-0.122328
0.0278486
-0.0366509
-0.103191
0.0208242
-0.0407208
-0.0534068
0.00335809
-0.0537612
-0.0225961
-0.00120655
-0.0298231
-0.0123727
-0.0042746
-0.00602612
-0.0120945
0.00199442
-0.00232771
-0.0111947
0.00433477
-0.00530524
-0.00876025
0.00385045
-0.00636542
-0.00424489
0.00401762
-0.00861734
-0.00478424
0.00348539
-0.00301726
-0.00805202
-5.47523e-05
0.00327171
-0.00781327
0.0023674
-0.00267732
-0.00893739
0.00103631
-0.0138074
0.00697745
-0.00220603
-0.0166377
0.00714563
-0.00442525
-0.0189122
0.00764449
-0.0054726
-0.023767
0.00700481
-0.00225481
-0.0533015
0.0187373
0.0106008
-0.0978978
-0.00810523
0.0521279
-0.110886
-0.0316905
0.0439582
-0.112352
-0.0418393
0.042495
-0.107669
-0.0476796
0.0421738
-0.0989024
-0.052145
0.0425215
-0.0862314
-0.0543596
0.0408639
-0.0692843
-0.0558565
0.0380895
-0.049565
-0.0568342
0.0363489
-0.0238824
-0.0481145
0.0217952
-0.0375855
0.0132645
-0.0534439
0.0234645
-0.00807319
-0.0592976
0.0257437
-0.0203928
-0.0593948
0.0270702
-0.0274992
-0.0504106
0.0268329
-0.0363432
-0.040359
0.0246699
-0.0352243
-0.0231734
0.01668
-0.0343327
0.00922694
-0.032839
0.0270123
0.0382436
-0.0566657
0.0507718
0.0496244
-0.0741498
0.0746269
0.0497135
-0.0743884
0.0948121
0.049934
-0.0709436
0.110571
0.0471287
-0.063744
0.118817
0.0397934
-0.0488619
0.116802
0.033003
-0.0317983
0.101136
0.0301019
-0.0151559
0.0544454
0.0398673
0.00624965
0.0254474
0.0250377
0.00376394
0.0213446
0.00418203
-0.000183972
0.019438
0.000596297
0.00120782
0.015864
0.00030295
0.0031611
0.00912936
-0.000246173
0.00688227
-0.000924558
0.00996614
-0.000963526
-0.00971578
0.009659
0.000726266
-0.0130993
0.0113006
0.00256853
-0.0142276
0.0122622
0.00407343
-0.0135598
0.0119193
0.00432052
-0.0191448
0.0187198
0.00783655
-0.028602
0.0248009
0.00381442
0.0235965
-0.0198581
-0.000204222
0.0168796
-0.0130401
-0.00040473
0.00842622
-0.00836137
-0.000568154
0.0077374
-0.00769718
-0.00110721
0.00736639
-0.00693632
0.00631221
-0.00647889
0.00345063
0.00545545
-0.000289012
0.00322816
0.00618974
0.00132707
0.00331868
0.00591329
0.00165586
0.00397478
0.00478255
0.00290934
0.0103199
0.0115915
-0.00116268
0.0193867
-0.00899514
-0.000117108
0.00909461
-0.00419979
0.0144512
-0.0230264
-0.0114045
0.0434557
-0.0155231
-0.00574962
-0.00183222
-0.000978341
0.00357825
0.00486632
-0.00943864
0.00604878
-0.00259839
0.00361709
-0.00178301
-0.00825714
0.000441149
-0.00916502
-0.0102481
-0.0126328
0.0184196
-0.00482926
-0.0307181
0.00322912
0.00366408
0.00405801
-0.0175809
-0.049617
0.0058896
0.010138
0.000827274
-0.0581012
-0.0156806
0.0261785
-0.00423405
-0.0203848
0.00616381
-0.00325664
-0.0202755
0.00560575
-0.00227547
-0.0206366
0.00530314
-0.000902093
-0.0190196
0.00443434
-0.0149898
0.00402903
-0.0211193
0.002272
0.00403564
-0.0219301
-0.0013339
0.00262676
-0.0178708
8.48601e-05
0.00545583
0.00164622
-0.0465361
0.0354204
0.00832017
0.00803522
-0.114917
0.0350976
0.0514351
0.020824
-0.124976
0.0473628
-0.00805676
-0.125794
0.0548582
-0.0219036
-0.117942
0.06463
-0.0335647
-0.102997
0.0732859
-0.0419851
-0.0839122
0.0770093
-0.0470273
-0.061424
0.0747718
-0.0483857
-0.0367013
0.074427
-0.0503393
0.0505672
-0.0329123
0.0589741
0.0459388
-0.0302832
0.0685394
0.0519065
-0.035264
0.0688418
0.0530979
-0.0269551
0.0633999
0.0508416
-0.0202634
0.0440964
-0.005914
-0.0882833
0.0719338
0.00279763
-0.0980884
0.0755577
-0.0158197
-0.0995785
0.0799888
-0.026343
-0.0882668
0.0791703
-0.0395179
0.0718248
-0.0406344
0.088076
0.0942953
-0.0366655
0.0976805
0.101544
-0.0329078
0.0945457
0.101019
-0.0188252
0.0819662
0.0960028
-0.00875642
0.0903245
0.00687968
-0.0813002
0.103371
0.0130259
-0.0945206
0.110422
-0.00212063
-0.0984231
0.11586
-0.0118996
-0.0905506
0.116702
-0.0239912
0.111213
-0.0313799
0.0870951
0.124047
-0.0275792
0.094736
0.128097
-0.0200131
0.0913002
0.126276
-0.00795661
0.0783616
0.120217
0.00220792
0.112015
0.0166904
-0.0724879
0.116573
0.0193743
-0.084444
0.125296
0.00593975
-0.0867972
0.131852
-0.00420245
-0.0788958
0.13423
-0.0150139
0.13116
-0.0223165
0.0682814
0.131865
-0.0150652
0.0761653
0.134602
-0.00923252
0.0750617
0.131021
0.000958004
0.064111
0.124639
0.0106705
0.11538
0.0225974
-0.0526177
0.105672
0.0297808
-0.0646619
0.1162
0.0195401
-0.0642314
0.119769
0.00985754
-0.0562968
0.125185
0.000519291
0.126075
-0.0040864
0.0352145
0.0191087
0.0613091
0.0446011
0.051488
0.0946056
0.0134306
0.0547726
0.0923738
0.023236
0.0357639
0.0482504
0.0451629
0.0408567
0.0444801
0.0364789
0.0514796
-0.0123044
0.02682
0.0153741
0.0143741
-0.0187381
0.0276362
0.0150748
-0.0152959
0.0311
0.0135049
-0.0135593
0.0290183
0.0141989
-0.0400073
0.027547
0.0407453
-0.000829302
0.0248253
-0.028411
-0.00828935
0.0384712
0.00579058
-0.0370018
-0.00681123
0.0299425
0.00547317
-0.0370704
-0.00460198
0.0290652
-0.0365268
0.00508246
0.025862
0.00346054
0.00381909
0.00514138
0.00493339
0.00714365
0.0068185
0.00760281
0.00903426
0.0089187
0.00838406
-0.00414666
-0.0199249
0.015665
0.00266305
-0.000607237
0.000592232
0.00624047
0.00289606
0.000298243
-0.000535282
0.000354601
0.00408597
-0.00154938
-0.00243628
-0.00132289
0.0041096
-0.0016516
-0.000490078
0.00117436
0.0105877
0.0120779
0.0315798
-0.0531534
0.00538623
0.0177728
-0.00423769
-0.00728807
0.0567784
0.0012367
-0.0150549
0.00283898
0.00352283
-0.00654397
0.00504335
0.00398061
-0.00619969
-0.0221927
0.00969707
0.0174988
-0.00939026
-0.0125295
-0.000316669
0.0179242
-0.00256737
0.0239078
-0.00789227
0.0462367
-0.0127015
0.021556
0.0765567
-0.0247692
-0.0326445
0.0045822
0.00707231
0.0297472
0.00211941
-0.0175424
0.00802163
0.0136517
-0.00404814
-0.0106452
0.00845672
0.0149523
-0.00404328
-0.0114507
0.00756127
0.0144282
-0.00236422
-0.0112751
0.00612064
0.0127837
-0.0104263
-0.00101547
0.00366811
0.0105232
-0.0087911
0.000633123
0.00872436
-0.00789859
0.00276191
0.00842767
-0.00315157
0.00337755
0.00802625
-0.00279779
0.00314415
0.0151723
-0.00807965
0.000856331
0.0392231
-0.0159496
-0.00832004
0.0727413
-0.0388892
0.0047525
0.0828108
-0.0276367
0.0168078
0.0843706
-0.0234968
0.0211031
0.0818181
-0.0202418
0.0219217
0.0766492
-0.0158196
0.0200857
0.0697198
-0.00873473
0.0147458
0.0603402
0.0016858
0.0067657
0.0418246
0.017482
0.000105783
0.014558
0.041425
-0.0150763
-0.00549161
0.0552388
-0.0360915
-0.00182294
0.0502955
-0.054836
0.0121834
0.0392505
-0.0540899
0.0154214
0.0263581
-0.0303544
0.00950601
0.0287637
-0.0234658
0.00205076
0.0112623
-0.00402529
0.000341945
0.00377041
-0.00213856
-0.000491408
0.00174877
-0.00097
-0.00212454
0.00324767
-0.00168406
0.00314553
-0.00228953
0.00326496
0.00521709
-0.00148778
0.000311159
0.00657425
-0.000448196
0.0022135
-0.000175134
0.00654534
-0.00059008
0.00180998
0.00591565
-0.00387307
0.00257999
0.00575028
0.00617178
0.000978941
0.0118777
0.0170547
-0.011008
0.0156096
-0.0104633
0.0235535
0.0242403
-0.0300922
0.043379
0.0145813
-0.0444686
0.0505331
0.0132036
-0.0627849
0.0462826
0.0263201
-0.0786361
0.0293265
0.0269846
-0.0896376
0.00758947
0.0199216
-0.0951476
-0.00865332
0.0148761
-0.0985341
-0.020875
0.0145605
-0.100712
-0.0294308
0.0148351
-0.100893
-0.035181
0.0141834
-0.0975134
-0.0395367
0.0117385
-0.0886416
-0.0439315
0.00651474
-0.0318825
-0.0405668
-0.0447588
-0.011306
-0.0184188
-0.0104184
-0.0191667
0.0026155
-0.0153691
-0.00710073
0.00132231
-0.00575522
0.000262181
-0.00943129
0.000856548
-0.00379803
0.00166189
-0.00748265
0.000994827
-0.00880899
0.0158248
-0.000176333
-0.00795486
0.0158345
-0.00183662
-0.00615053
0.0139265
-0.00216072
-0.00205607
0.0197998
0.00571186
0.0204744
0.106983
-0.0445719
-0.0095121
0.00401047
0.030681
0.00547736
0.0076192
0.0105125
-0.000246779
0.00842825
0.0142787
0.00066804
0.0151359
0.00192631
-0.0162467
-0.0197472
-0.0126623
0.0308084
-0.0202461
0.0462767
-0.0178496
-0.051114
0.106888
-0.024555
-0.052163
0.121842
-0.0149741
-0.104403
-0.0444412
0.125668
-0.0301512
-0.0752243
-0.0286137
-0.0174384
-0.0288252
-0.0143176
-0.0028939
-0.0402827
0.0170119
-0.00211891
-0.0241349
-0.00526216
0.0279507
-0.0054459
-0.00854632
0.0163554
-0.00785271
-0.00930682
0.0144561
-0.00618427
-0.00946014
-0.0118249
-0.00273579
0.0501468
-0.0212342
-0.0125707
-0.00610727
0.000616721
-0.0119133
-0.00848777
-0.000103826
-0.00873782
-0.00715226
-0.00156149
-0.00496883
-0.00441512
-0.00157248
-5.02552e-05
-0.000760185
-0.00377597
-0.000448693
-0.00985644
1.51645e-05
0.000445831
0.00127268
-0.00170544
0.00137189
-0.0020782
0.00335601
0.00174946
-0.00265181
0.00437042
0.00205964
-0.00198069
0.00371253
0.00175292
0.00266788
0.000705976
0.00451495
0.00263203
-0.00106262
0.00471549
0.00383872
-0.000402497
0.00457032
0.00491826
-0.000483718
0.00482556
-0.000748654
-0.00638022
0.0108681
-0.00418792
-0.00620913
0.0108932
-0.0062577
-0.00534073
0.0100486
-0.00718374
0.00900807
-0.00779037
0.00657474
0.0118663
-0.00566985
0.00800298
0.0135925
-0.00507086
0.00819091
0.0151129
-0.00451415
0.0149184
-0.00311822
-0.0092007
0.0168589
-0.0013279
-0.00932145
0.0178651
-0.00273758
-0.0096607
0.0177626
-0.00393529
0.0104753
-0.00401145
0.0128653
-0.000417318
0.0102365
-0.00167472
0.00750091
0.0232842
-0.00289933
0.00735747
0.018301
-0.000382544
0.0172944
0.000736004
-0.00884774
0.0484658
-0.0251916
-0.00519978
0.042145
-0.0276366
0.0449912
-0.0282851
0.0293996
0.117655
-0.0575437
0.127494
-0.0450303
0.0507858
0.134934
-0.0386823
-0.0205893
0.0554204
0.134847
-0.0149295
0.0520321
0.130087
-0.00597222
0.115266
-0.00132297
-0.0502263
0.119736
0.00519896
-0.0559512
0.135069
-0.00034045
-0.0534875
0.140777
-0.00947747
-0.0448377
-0.0146223
0.139886
-0.12821
-0.0233166
0.133617
-0.0293219
-0.0128399
-0.0511642
-0.114382
0.0286309
0.11937
-0.106068
-0.06681
0.118401
-0.0383913
-0.0495455
-0.0681055
-0.00477382
0.0138734
-0.0135305
-0.0193353
-0.019553
-0.00997682
-0.00602519
-0.0131233
-0.002903
-0.0140115
-0.00407072
0.00257661
-0.014385
-0.00818695
0.00317495
-0.0127456
-0.010623
0.00253157
-0.00980115
-0.0145136
0.00286145
-0.0107533
0.00114418
-0.0137691
0.0160528
-0.0137461
0.000612962
-0.0094968
-7.23032e-05
-0.0153592
0.0144737
-0.0015798
-0.0167582
0.0116531
-0.00271393
-0.0180391
0.00966109
-0.00145947
0.0149511
-0.0254621
0.0110853
0.0252108
0.0187221
0.0207289
-0.049847
0.0188553
0.0161712
0.0178289
-0.0277763
0.0305685
0.0160541
0.0191727
-0.0470758
0.0213648
0.0134299
-0.0227527
0.018398
0.0392787
-0.0422216
0.0089352
0.0152718
0.0201051
0.0463434
-0.0101092
-0.0171619
0.025393
0.030103
-0.0202408
-0.0152785
-0.0172236
-0.020596
0.00992021
-0.0182544
0.00381529
-0.0127871
-0.0179388
0.00437127
-0.017229
-0.0123002
0.00330599
-0.016119
-0.0141142
0.00228264
-0.0167858
0.00209904
-0.0176586
-0.0170642
0.0174483
0.000372217
-0.0162758
-0.000773281
-0.0183795
0.0156365
-0.0019918
0.0130065
-0.00309283
0.0175566
0.0143263
-0.00279221
0.017429
-0.00140881
0.0164879
0.0182389
-0.0170356
-0.00036737
0.0183836
0.00133123
-0.015128
0.00285657
-0.0154897
0.00100664
0.0174976
-0.0154086
-0.00120492
0.0144774
-0.00214883
-0.00752848
-0.0160195
0.0235874
0.0168644
-0.0015041
-0.0143782
-0.017139
-0.026197
-0.0242614
-0.0025778
-0.105234
0.10381
0.00754715
0.00121395
0.0182384
0.0127085
0.0239086
0.0146903
-0.0202579
0.0176513
-0.00846105
0.017964
-0.0122445
-0.00477274
0.00235926
-0.000511295
-0.00555075
0.00484829
-0.00582527
-0.00170695
-0.00210642
-0.00217479
-0.00379057
0.0131602
-0.000990968
-0.00316219
-0.00140306
-0.00338245
0.0163735
-0.0200693
-0.0115664
0.015469
0.00688413
-0.0116099
0.0175888
0.00911286
-0.0132744
0.0201988
0.00893193
-0.0142109
0.0229458
0.00891415
0.0301608
0.0119935
0.00989324
0.0134722
0.0124947
0.00948854
0.0132591
0.00991218
0.007854
0.0119126
0.0097499
0.00607918
0.0107976
0.00841191
0.0100004
0.00699765
-0.00220358
0.00342225
-0.00261715
0.00416228
-0.00328449
0.0047581
-0.00392151
0.00540208
0.00651075
0.00166167
0.00290167
0.00142499
0.000512586
0.000410961
0.0013935
-0.000145249
0.00198497
-0.00154751
-2.94527e-05
-0.00093094
0.00194955
0.000962918
-0.000331077
0.000790836
-0.000431666
0.00182838
-0.00111488
0.00121545
-0.000535341
0.000312211
-4.56666e-06
0.00202282
-0.00174314
2.92412e-05
0.00379294
-0.000559091
-0.00359081
0.0111478
-0.00638032
0.00358345
-0.0180116
0.00335151
0.0170529
0.00389206
-0.0181207
0.0204255
0.0071406
0.00293995
0.0067652
-0.0170631
0.0208423
0.000291886
0.0059615
0.0197907
-0.0148389
-0.0136276
0.0141869
0.00503726
0.0109812
-0.00739151
0.0172001
-0.00766011
0.0172756
0.0109128
-0.000409592
0.0199791
0.00717752
0.00334037
-0.00115011
0.0015296
-0.00351646
0.000375411
-0.00229187
0.0125968
0.00135508
-0.00233659
0.000793184
0.000618777
-0.000777363
0.00151182
-0.000568039
0.00156053
-0.000392144
-0.00124418
0.00106701
-0.00206991
0.000898923
-0.000211186
-0.00022583
-0.00163438
-0.000456004
-0.00209377
0.000247505
-0.00185561
0.00140089
-0.00138062
0.000391992
0.000112126
-0.001886
0.000170565
-0.00141438
-0.000661081
-0.00126406
-0.00240642
0.0011495
0.00124203
0.000229438
0.000476254
-0.00129609
0.00044795
-0.00168379
-0.000480048
0.000535801
0.000390682
0.000109227
6.94937e-05
-0.000660121
0.00104445
0.000305066
0.000314164
-0.000890184
-0.00161278
0.00281373
-0.000775659
0.000273506
0.00017922
-0.000887793
-0.00113144
0.00380248
0.00137614
-0.000360612
-0.00302661
0.0122735
-0.00264606
-0.00129386
-0.00174774
1.0923e-05
-0.000829863
0.000260346
-0.00072728
0.000329547
-4.11243e-05
-0.00112066
-4.5174e-05
0.0018815
-0.000307467
-0.00162253
-0.0013224
0.0032105
-0.000893975
-0.000171221
-0.00124511
0.00111753
0.00204156
0.000343661
0.000324474
0.000920577
-0.000130091
0.00191404
-0.00142043
-0.000172486
-0.00137079
0.0031964
8.40666e-05
-0.000652676
0.000199288
0.00286099
-0.00405294
0.0133042
-0.00112863
-0.0180436
0.000742872
0.00704715
0.0245441
-0.0164842
0.0218999
0.00640601
-0.0177682
0.0225862
-0.00210509
-0.0148927
-0.00439689
-0.0206813
-0.0218544
-0.00632298
-0.0218859
-0.00574042
0.0151612
-0.00260547
0.0197808
0.0317771
0.0374435
-0.0236181
-0.101073
0.066593
-0.0967335
0.0700797
-0.107809
0.0713041
-0.0171152
-0.110056
0.068734
-0.0248675
-0.106608
0.0675014
-0.0296663
-0.0981444
0.0663538
-0.0331969
-0.0860741
0.0637039
-0.0358045
-0.0686887
0.0577707
-0.0379502
-0.048948
0.0533932
-0.0376851
-0.0388557
0.0427316
-0.0317761
0.00391299
-0.0299155
0.0163194
0.032435
-0.0455089
0.0142389
0.0445703
-0.0431573
-0.00721614
0.0476352
-0.0265916
-0.034341
0.0266862
-0.0511064
-0.0128791
0.0291773
-0.0597604
-0.0245213
0.0326724
-0.0620529
-0.0310723
0.0328385
-0.0555962
-0.0383248
0.0313419
-0.0475239
-0.0354228
0.0268477
-0.0301181
-0.0336816
0.0158086
0.00338504
-0.0339418
0.0203569
0.04435
-0.0619587
0.0432373
0.0554164
-0.0790629
0.0684671
0.0546578
-0.0807075
0.0884018
0.0522556
-0.0730149
0.0994686
0.0477001
-0.0596236
0.100386
0.0400577
-0.0417974
0.0947446
0.0341667
-0.0293357
0.0829102
0.0308861
-0.019772
0.0468201
0.0377895
-0.00227292
0.0225523
0.0229176
0.00115379
0.0193793
0.00392089
-0.0008526
0.0179977
0.000504434
0.000774393
0.0148323
0.000142433
0.00291256
0.00856445
1.18223e-05
0.00615713
0.00908524
-0.000608409
0.00717103
0.00348382
-0.00164023
0.00456001
0.00389123
-0.00132732
0.00478311
0.00171484
-0.00200075
0.00577419
0.00191733
-0.00298726
0.00550905
0.00309909
-0.00291176
0.00439729
0.00337216
-0.00232994
0.00342476
0.00273143
-0.00181351
0.00564832
0.00165714
-0.00395771
0.0115863
0.00190639
-0.00806292
-0.0198053
0.0320741
-0.00130032
-0.0482598
0.0244999
0.00319545
-0.0621495
0.0120853
0.000970588
-0.0666823
0.00116162
0.00249825
-0.0691275
-0.0128319
0.0143727
-0.0733431
-0.0280666
0.0313601
-0.0743606
-0.0434306
0.043511
-0.0716737
-0.0574445
0.0538126
-0.0618324
-0.0701291
0.0593357
-0.0443178
-0.0802251
0.0617534
-0.0171478
-0.0867275
0.0585941
0.0164902
-0.082743
0.0481443
0.0318842
-0.0570689
0.0407136
0.0309269
-0.0440019
0.0440368
0.0232939
-0.0345254
0.0412551
0.00924716
-0.0256564
0.038876
-0.00102375
-0.0229485
0.0324176
-0.0348316
0.0330586
-0.050184
-0.0194285
0.0339831
-0.0572937
-0.0341919
0.0404908
-0.0577305
-0.0490166
0.0485788
-0.0492518
-0.064082
0.0547281
-0.0254113
-0.0817167
0.0569775
0.00465572
-0.0833949
0.0524519
0.0101578
-0.047632
0.0412646
-0.00729918
-0.0266627
0.0433099
-0.0207963
-0.0280811
0.0407924
-0.00473152
-0.0600565
0.0432536
-0.0519235
0.0428284
-0.0147984
-0.0686202
0.00170006
0.0184527
-0.0545709
-0.0396214
0.0283796
-0.0391238
0.000240457
0.0320632
-0.048068
0.0168276
0.0303966
-0.0782831
0.0313935
0.0409547
-0.126824
0.0319324
0.0541188
-0.123393
0.0275671
0.056647
-0.0960521
0.0285107
0.0515832
-0.0725301
0.0276717
0.041071
-0.0516004
0.0270607
-0.0300314
0.0279026
-0.0367458
-0.0465505
0.0267375
-0.0387957
-0.0559012
0.0224964
-0.0331617
-0.0668996
0.0162933
-0.00469536
-0.0822359
-0.00429726
0.0355756
-0.11777
-0.00624924
0.0606157
-0.124229
0.0114555
0.0751116
-0.1177
0.0219779
0.0817097
-0.102968
0.0252447
0.0808864
-0.0839642
0.0263531
0.0770031
-0.0629801
0.0224505
0.0701166
-0.0411026
0.0189508
0.0656175
-0.0194481
0.0101571
0.0594553
0.000810997
0.00557137
0.0462911
0.016528
0.00779493
0.0215937
0.0339252
0.0143558
-0.0089368
0.000370867
0.0464834
0.0147646
0.00831373
-0.00339682
-0.00882005
-0.00518754
0.0149638
-0.00288148
-0.0035342
0.0105454
-0.00242227
0.00764068
-0.000928261
0.0140624
-0.000791833
-0.00473696
0.00191046
-0.00665025
0.0269328
0.0024789
-0.00879966
-0.00769508
-0.00128187
0.00148524
-0.00799157
-0.00361009
0.00140914
-0.00671165
-0.00479744
0.000553709
-0.00498076
-0.00552386
0.000314718
0.00222405
-0.00398024
-0.000547393
0.00492338
-0.00106548
-0.00204251
-0.000317818
-0.000427973
-0.00130065
-0.000744264
-0.000641077
-0.000568136
-0.000585033
0.000406339
-0.00112821
-0.00342631
0.0132241
-0.00549023
-0.0119499
0.00297492
0.0228424
-0.00779376
-0.010059
0.0651581
-0.0314634
-0.0294168
0.0162818
0.0636506
-0.0240616
0.0278568
0.0493835
-0.0187158
0.0330321
0.0133909
-0.0102426
0.0477957