/*--------------------------------*- C++ -*----------------------------------*\
| =========                 |                                                 |
| \\      /  F ield         | OpenFOAM: The Open Source CFD Toolbox           |
|  \\    /   O peration     | Version:  v2012                                 |
|   \\  /    A nd           | Website:  www.openfoam.com                      |
|    \\/     M anipulation  |                                                 |
\*---------------------------------------------------------------------------*/
FoamFile
{
    version     2.0;
    format      ascii;
    class       volScalarField;
    location    "420";
    object      alphat;
}
// * * * * * * * * * * * * * * * * * * * * * * * * * * * * * * * * * * * * * //

dimensions      [1 -1 -1 0 0 0 0];


internalField   nonuniform List<scalar> 
18258
(
0.00483577
0.00210591
0.0017251
0.00149452
0.00099083
0.00162058
0.00225095
0.00267986
0.00281188
0.00278867
0.00288817
0.0048748
0.00684218
0.0084576
0.00888614
0.00887387
0.00805807
0.00769614
0.00836808
0.0102802
0.00863051
0.00553076
0.00661831
0.00766103
0.00835728
0.00740775
0.00599103
0.00554403
0.00501885
0.00418435
0.00351321
0.0024144
0.00175168
0.00162263
0.00147249
0.00167942
0.00182992
0.00195201
0.00199507
0.00202633
0.00201244
0.00200086
0.00194659
0.00191158
0.00185213
0.00152712
0.00182433
0.00193053
0.00211058
0.00290241
0.00311166
0.00261438
0.00289056
0.00257701
0.00169699
0.00194347
0.00210963
0.00215473
0.00212663
0.00203803
0.00200801
0.0019826
0.00195049
0.00191243
0.0018892
0.00190803
0.00192775
0.00190679
0.00181306
0.0017372
0.00161444
0.00149138
0.00140018
0.00132954
0.00127628
0.00121708
0.00115056
0.00101063
0.000936659
0.00124016
0.0015569
0.00166355
0.00235793
0.00287492
0.00289466
0.00216691
0.00154427
0.00160275
0.00178167
0.00179935
0.00152455
0.00181224
0.00205254
0.00212734
0.00221683
0.00247799
0.00282178
0.00275079
0.00244996
0.00225804
0.00220543
0.00253115
0.00240777
0.00312274
0.00314386
0.00273713
0.00253563
0.00285278
0.00367962
0.00395739
0.00307424
0.00288796
0.00283112
0.00279433
0.00252765
0.00261683
0.00237697
0.00214176
0.00233368
0.00281967
0.00267426
0.0029205
0.00302678
0.00283978
0.00329063
0.00379437
0.00373963
0.00299247
0.00244029
0.00227471
0.00229191
0.00140172
0.00151368
0.00163073
0.0016707
0.0016988
0.00172264
0.00183657
0.00183242
0.00180538
0.0018014
0.00183262
0.00101011
0.00109442
0.0011217
0.00112957
0.00107307
0.00106199
0.00104211
0.00102598
0.000967632
0.000925885
0.0011078
0.0012439
0.00135483
0.00148459
0.00167799
0.00191463
0.00216337
0.00241479
0.00258114
0.00262865
0.00267661
0.00257981
0.00248221
0.00257091
0.00258596
0.00256938
0.00253495
0.00249147
0.00243275
0.00232504
0.00245004
0.00244339
0.00229567
0.00196762
0.00201178
0.00200866
0.00206122
0.00205067
0.00207129
0.00204153
0.00200624
0.00190881
0.00177231
0.00147397
0.00145007
0.00146637
0.00188062
0.0022814
0.00352203
0.00429231
0.00497767
0.00532181
0.00568957
0.00460982
0.00513385
0.00396184
0.00355543
0.00451686
0.00590536
0.00337031
0.00184334
0.00349687
0.00310559
0.0022575
0.00201016
0.0020726
0.00206852
0.00236371
0.00272839
0.00303479
0.00318292
0.00331181
0.00341507
0.00352807
0.00367128
0.00371053
0.00358414
0.00303317
0.00365775
0.00297494
0.00347921
0.00315041
0.00213612
0.0021794
0.00233407
0.00214542
0.00209026
0.00199609
0.00180529
0.00224922
0.0029024
0.00336762
0.00385095
0.00513656
0.00475237
0.00455718
0.00352789
0.00341172
0.00176983
0.00252339
0.00262102
0.00295459
0.00196309
0.00179308
0.00170372
0.00224791
0.00260647
0.00307554
0.00341208
0.00405051
0.00314608
0.00359805
0.00325936
0.00227638
0.00218439
0.00312414
0.00336326
0.00276367
0.00246547
0.00309553
0.00293186
0.00208135
0.00164917
0.00253703
0.00262225
0.0018886
0.00471887
0.00506118
0.00480692
0.00583532
0.00730657
0.00832409
0.00777311
0.0068936
0.00767247
0.00609393
0.00592384
0.00632732
0.00531489
0.00371376
0.00380484
0.00393235
0.00403857
0.00433652
0.0046075
0.00493823
0.0052514
0.00477283
0.00396255
0.00299845
0.00206202
0.00203341
0.00202291
0.00181652
0.00269217
0.0040741
0.00404758
0.00230049
0.00134055
0.00151551
0.00171108
0.00169424
0.00122973
0.000925391
0.00159404
0.0018229
0.00185251
0.00180664
0.00170586
0.00178264
0.00286286
0.00441054
0.00484649
0.00501984
0.00518391
0.00529986
0.00536447
0.00538507
0.00539661
0.00541069
0.00542306
0.00544178
0.00542496
0.00530941
0.00466996
0.00293588
0.00171586
0.00159367
0.00175882
0.00189019
0.00200479
0.00170569
0.00104311
0.00166597
0.00213336
0.00245242
0.0024735
0.00230858
0.0022396
0.00353164
0.00469582
0.00553535
0.00570567
0.00578177
0.00571879
0.00571115
0.00558727
0.0055495
0.00486748
0.00347881
0.00380288
0.00408298
0.00412928
0.00422435
0.00436728
0.00426623
0.00403161
0.00588901
0.00679753
0.00688463
0.0070305
0.00694693
0.00682713
0.00651754
0.00616365
0.00518896
0.00389136
0.00245547
0.00250672
0.00266848
0.00264285
0.00230045
0.00242373
0.00263063
0.00265704
0.00274413
0.00307761
0.00349577
0.00333495
0.00287039
0.00243768
0.00226967
0.00222153
0.00213103
0.0015956
0.00161989
0.00157511
0.00160135
0.00215154
0.0025607
0.00295321
0.00418819
0.00373591
0.00303811
0.00481771
0.00493747
0.00530543
0.00586133
0.0060064
0.00665531
0.00463011
0.00417257
0.00428602
0.00350098
0.00324048
0.0032749
0.00328721
0.00306361
0.0033532
0.00332371
0.00320352
0.00353679
0.00389749
0.00513932
0.00622742
0.00657059
0.00676905
0.00685088
0.0068266
0.00669576
0.0067396
0.00592191
0.00591982
0.00566872
0.00550606
0.00544871
0.00518004
0.00592489
0.00615027
0.00622525
0.00638027
0.00662192
0.00644049
0.00624113
0.00608919
0.00597914
0.00586411
0.00592537
0.00603509
0.00615221
0.00631661
0.00653592
0.00657105
0.00634388
0.00617204
0.00605446
0.00594401
0.00594789
0.00604626
0.00616097
0.00632377
0.00653158
0.00641535
0.00625383
0.00610992
0.00599191
0.00588802
0.00568169
0.00581836
0.0059687
0.00609248
0.00617251
0.00533314
0.005701
0.00560324
0.00507334
0.00474869
0.00360616
0.0039026
0.00411523
0.00448219
0.00497499
0.00507154
0.00425557
0.00364684
0.00355349
0.0035248
0.00360785
0.00363776
0.00365558
0.0041307
0.00622411
0.00626726
0.00628591
0.00628921
0.00537802
0.00522515
0.00486689
0.00890104
0.00828775
0.00718008
0.00591885
0.00317111
0.00271808
0.00321976
0.00391576
0.00437811
0.0048323
0.00320777
0.00198715
0.00231606
0.00240143
0.00234277
0.0021653
0.00180337
0.00166473
0.00151102
0.00162626
0.00288018
0.00459607
0.00517705
0.00523211
0.00518037
0.00507982
0.00495766
0.00478745
0.00471835
0.00593588
0.00801904
0.00908013
0.0090464
0.00777105
0.00633021
0.00356651
0.0018326
0.00134121
0.00145588
0.00159985
0.00188076
0.00167587
0.00140437
0.00153886
0.00146054
0.00296035
0.00511295
0.00652582
0.00774158
0.00760961
0.00660493
0.00541317
0.00513804
0.00525911
0.00533917
0.00540816
0.00547899
0.00552759
0.00549683
0.00500326
0.00309113
0.00184512
0.00163926
0.00176265
0.00206579
0.00219525
0.00221768
0.00218683
0.00189566
0.00313487
0.00497884
0.00316605
0.00172745
0.00186657
0.00185297
0.00326894
0.0032639
0.00319324
0.00496844
0.00525366
0.00524128
0.00492426
0.00470057
0.00278281
0.00315842
0.00316911
0.00318604
0.00323851
0.00163556
0.00178284
0.00183836
0.00197892
0.001732
0.00219835
0.000568906
0.000788434
0.000915965
0.000995778
0.00107274
0.00105229
0.00201261
0.00204199
0.00194923
0.00189867
0.00240991
0.00258599
0.00264307
0.00243436
0.00224634
0.00239144
0.00239668
0.00225861
0.00213944
0.00221834
0.00221982
0.00212698
0.00180909
0.00169522
0.00186127
0.00184131
0.00182659
0.00328094
0.00327517
0.00309931
0.00509313
0.00501106
0.00561271
0.00557567
0.00556836
0.00554533
0.00560484
0.00563646
0.00566075
0.00568889
0.00567795
0.00562332
0.00784431
0.00553008
0.00482556
0.0027904
0.00268777
0.00189799
0.0016633
0.00195853
0.0020947
0.00227091
0.0022195
0.00233997
0.0023372
0.00247999
0.00230201
0.00204417
0.00313109
0.00334513
0.00326733
0.00333214
0.00325386
0.00323488
0.00321096
0.00316517
0.00311004
0.00185153
0.00181608
0.00212659
0.00223227
0.00239856
0.0024204
0.00247287
0.00234544
0.00206291
0.00199693
0.00229964
0.00226869
0.00231262
0.00218044
0.00217159
0.00193476
0.00198373
0.00400267
0.00739855
0.00380199
0.00422349
0.00382541
0.00435139
0.00381082
0.00328609
0.0033631
0.00296201
0.00308968
0.00324097
0.00329953
0.00346772
0.00408742
0.00393531
0.00345449
0.00335429
0.00328825
0.00310035
0.0027906
0.00292348
0.00294988
0.00301315
0.00334862
0.00384185
0.00430689
0.00523449
0.00507959
0.00444952
0.004068
0.00426664
0.00433988
0.00546413
0.00510513
0.00507469
0.00535272
0.00529939
0.00503032
0.00476689
0.00460144
0.00394965
0.0040146
0.00459591
0.0044471
0.00458305
0.00450288
0.00468074
0.0047654
0.00457431
0.00425103
0.00446739
0.00445762
0.00495117
0.00481582
0.00446672
0.00408778
0.00436782
0.00431408
0.00498466
0.00469288
0.00438911
0.00403929
0.00386849
0.00439088
0.00431093
0.00488931
0.00503024
0.00503254
0.00438651
0.00428486
0.00509724
0.00490452
0.00473645
0.00493352
0.0040848
0.00420184
0.00517748
0.00528594
0.00501435
0.00418523
0.00424969
0.00364356
0.00428577
0.00533531
0.00503877
0.00412948
0.00342573
0.00479468
0.00504507
0.00533864
0.00504495
0.00549576
0.00592096
0.00482465
0.00524949
0.006862
0.00523366
0.00607407
0.00620928
0.00624656
0.00625062
0.00627578
0.00630832
0.00664784
0.00647081
0.00410958
0.00491667
0.00477292
0.00398984
0.00339001
0.00373489
0.00402256
0.00408058
0.00418405
0.00434367
0.00427007
0.00413244
0.00604544
0.00689474
0.00704925
0.0071896
0.00707008
0.00689162
0.00648523
0.0059871
0.00495932
0.00369748
0.00230472
0.00234947
0.00250442
0.00248086
0.00215312
0.00162563
0.00106727
0.00158373
0.00163443
0.00153651
0.0013976
0.00122854
0.00126211
0.00232743
0.00481065
0.00637393
0.00699659
0.00751062
0.00807319
0.00859832
0.00899455
0.00928422
0.0094845
0.00961081
0.00963687
0.00945295
0.00864062
0.00826766
0.00780382
0.00742326
0.00688382
0.00643502
0.00727337
0.00798068
0.00841308
0.00890077
0.00912396
0.00902718
0.00783896
0.00762631
0.00879153
0.0108198
0.00920922
0.0115631
0.0135756
0.0105836
0.00950638
0.00948466
0.0105909
0.0107921
0.0104146
0.00982633
0.00915247
0.00829855
0.00873111
0.00911856
0.00948693
0.00982762
0.010725
0.0108902
0.0108098
0.010636
0.0104119
0.0101072
0.00963006
0.00895924
0.0081868
0.00743722
0.00657614
0.00482372
0.00214349
0.00254509
0.00248835
0.0028115
0.00265976
0.00117181
0.00127015
0.00128574
0.00129313
0.00122391
0.00138849
0.0020174
0.00327646
0.00236331
0.00193565
0.00134778
0.00159766
0.00267152
0.00455082
0.00513875
0.00522376
0.00530238
0.00710082
0.00795272
0.00842347
0.00879922
0.00902499
0.0089091
0.00863223
0.00813866
0.00755757
0.00731132
0.00692072
0.00655075
0.00634298
0.00612337
0.00575334
0.00455352
0.00431536
0.00449034
0.00444429
0.0042568
0.00454387
0.0047049
0.00469839
0.00474838
0.0047923
0.00493239
0.00509781
0.00524193
0.00531757
0.00534576
0.00535496
0.00536655
0.00537604
0.00539336
0.00537594
0.00525898
0.00461841
0.00288844
0.00168614
0.00155892
0.00170924
0.00180749
0.00184951
0.00164225
0.00105701
0.00164275
0.0021261
0.00218062
0.00239222
0.00246772
0.00261643
0.00291538
0.0033693
0.00347694
0.00308582
0.00292343
0.00286062
0.0027876
0.00237845
0.00296344
0.0032768
0.00327146
0.00324112
0.0035027
0.00431044
0.00414069
0.00365095
0.00360934
0.00357203
0.00322188
0.00317086
0.00347433
0.00351348
0.00364648
0.0042771
0.00513
0.00475879
0.00433284
0.00415066
0.00383113
0.00336338
0.00303989
0.00377329
0.00310778
0.00159736
0.00135373
0.00136465
0.001363
0.00130695
0.00154579
0.00162417
0.00164562
0.00153625
0.00170795
0.00190332
0.00184578
0.0020999
0.00206612
0.00184063
0.00181977
0.00198413
0.00210838
0.00216951
0.00221793
0.00362702
0.00372995
0.00289786
0.00420296
0.00484944
0.00486011
0.00515055
0.00422282
0.00377165
0.00447989
0.00520065
0.00600488
0.00472935
0.00445917
0.00457994
0.00208912
0.00109897
0.00155118
0.00192528
0.00214193
0.00207605
0.00196151
0.00165872
0.00294876
0.00302714
0.00480393
0.00538835
0.00545325
0.00540914
0.00550158
0.00609701
0.00714758
0.00790606
0.00812439
0.00800047
0.00766543
0.00704689
0.00644783
0.00638717
0.00616469
0.005986
0.00592739
0.00516998
0.0045354
0.00482185
0.00475695
0.00491438
0.00498646
0.00503795
0.00509075
0.00518059
0.00528943
0.00538823
0.00545605
0.0055016
0.00554053
0.00558073
0.00562134
0.00566526
0.00568937
0.00563641
0.00509522
0.00305757
0.00182314
0.00166325
0.00177467
0.0020858
0.00219613
0.00236037
0.00209611
0.00110396
0.00129794
0.00225587
0.00250107
0.00231384
0.00216549
0.00212706
0.0017818
0.00322725
0.00318533
0.00499825
0.0056197
0.00569655
0.0056788
0.00563277
0.00558106
0.00553266
0.0054933
0.00546258
0.0054306
0.00538518
0.00533181
0.00527848
0.00522287
0.00513034
0.0049946
0.00487834
0.00509236
0.00521194
0.00542715
0.00569771
0.00584638
0.00574096
0.00556015
0.0054615
0.00548304
0.00553195
0.00558412
0.00563149
0.00565605
0.0055956
0.00527574
0.0049519
0.00313616
0.00317723
0.00156348
0.00173685
0.00200408
0.00206967
0.00224829
0.00223811
0.00175971
0.00137067
0.00154598
0.00144532
0.00258262
0.00283958
0.00314878
0.00311757
0.00169315
0.00173632
0.00180445
0.00203573
0.00189226
0.00182913
0.00451944
0.00432452
0.00452579
0.00555728
0.00478598
0.00330458
0.00362443
0.00504214
0.00531783
0.00321599
0.00241064
0.00267601
0.00338975
0.00498834
0.00505085
0.00479864
0.00477181
0.00348534
0.00428307
0.00515181
0.00501165
0.00390934
0.00269393
0.00200543
0.000974509
0.00185378
0.00158549
0.00388428
0.00429856
0.00424849
0.00464666
0.00493592
0.00498655
0.00484623
0.0042971
0.00438247
0.00442573
0.0050431
0.00506646
0.00428791
0.00361872
0.00293845
0.00296482
0.00302253
0.0033502
0.00419538
0.00395233
0.00346375
0.0033586
0.00328599
0.00309101
0.00278923
0.00244687
0.00246383
0.0022934
0.00221968
0.00349935
0.0046586
0.00549424
0.0056528
0.00571053
0.00562319
0.00558346
0.00542367
0.00534085
0.00463978
0.00592211
0.00625834
0.00603951
0.00608468
0.00612305
0.00616999
0.00617112
0.00605514
0.00520266
0.00310683
0.00202933
0.00229057
0.00247228
0.00232147
0.00230851
0.00246052
0.00233482
0.00205086
0.00332275
0.00324746
0.00519241
0.00588054
0.00600594
0.00601262
0.0059881
0.00596762
0.0059751
0.00629013
0.0061499
0.00624464
0.00658948
0.00659858
0.00667688
0.00626788
0.00618714
0.00613517
0.00610013
0.00604375
0.00589459
0.00521558
0.0050569
0.00574356
0.00592138
0.00600072
0.00605591
0.00612157
0.00620725
0.00645339
0.00663678
0.00670704
0.00642295
0.00631411
0.00616499
0.0059555
0.00590606
0.00589646
0.00589201
0.00586396
0.00571282
0.00502916
0.00323399
0.0033141
0.00197156
0.00198447
0.00228575
0.00240074
0.00235791
0.00218358
0.00212899
0.0036629
0.00417015
0.00443485
0.00477844
0.00456452
0.00453761
0.00518687
0.00501975
0.00447656
0.00465765
0.00417524
0.0039785
0.00384928
0.00387053
0.00203539
0.00219629
0.00229086
0.00225286
0.00215414
0.00192127
0.00176177
0.00321497
0.00319151
0.00315018
0.00187338
0.00183239
0.00215886
0.00209661
0.00191801
0.00163493
0.00179226
0.00276705
0.00309481
0.00479785
0.00496942
0.00531933
0.00568729
0.00582607
0.00586373
0.00588678
0.0059127
0.00596911
0.00603633
0.00605726
0.00606018
0.00612088
0.00611106
0.00611311
0.00608193
0.00604538
0.00600216
0.00595557
0.00587894
0.00572159
0.0053457
0.00497752
0.00561202
0.00566432
0.00577057
0.00588019
0.00592699
0.00593425
0.00591231
0.00586843
0.00581599
0.00575593
0.00575241
0.00590924
0.00594725
0.00597416
0.00595424
0.00593228
0.00592479
0.00589834
0.00585625
0.00574905
0.00564162
0.00559583
0.00550283
0.00564884
0.00571321
0.00572208
0.00577616
0.0058636
0.00588903
0.00588883
0.00584623
0.00581127
0.00576582
0.0056897
0.00558802
0.00525669
0.00533063
0.00542247
0.00554311
0.00565951
0.00575348
0.00580645
0.00581048
0.00575738
0.00572128
0.0057222
0.00567323
0.00569843
0.00572484
0.00569602
0.00569257
0.00569619
0.00562981
0.00551041
0.00534475
0.00517019
0.00502791
0.00495908
0.00484142
0.00520932
0.00535933
0.00549121
0.00560698
0.0057116
0.00581747
0.00584899
0.00583659
0.00577229
0.00573609
0.00573545
0.00568123
0.00567759
0.00572984
0.00573123
0.00576173
0.00581753
0.00580329
0.00572787
0.00552791
0.00533443
0.00516647
0.00500518
0.0048315
0.00481606
0.00489503
0.00482064
0.0048795
0.00504597
0.0052582
0.00544274
0.00556228
0.00560059
0.00563588
0.00568719
0.00568126
0.00565039
0.00563381
0.00556438
0.00550366
0.00542906
0.00526693
0.00506179
0.00488341
0.00483245
0.00493528
0.0050333
0.00494106
0.00456767
0.00474903
0.00491974
0.00508805
0.00532883
0.00560786
0.0057272
0.00576873
0.00574023
0.0057183
0.00571588
0.00566637
0.00564817
0.00569384
0.00569741
0.00572022
0.00575739
0.00572423
0.00562767
0.00528511
0.00487802
0.00468395
0.00457002
0.00441419
0.00496515
0.00507015
0.0049444
0.00485924
0.00498827
0.00513662
0.00529163
0.00539491
0.00543578
0.00549462
0.0055723
0.00560945
0.00555397
0.00548986
0.00541088
0.00537103
0.00537301
0.00534898
0.00524988
0.00513225
0.00499252
0.00516073
0.00526136
0.00516565
0.00465399
0.00472954
0.00484163
0.00490272
0.00528684
0.00562422
0.0057017
0.00570219
0.00566604
0.00564246
0.0056434
0.00561486
0.0055599
0.00554878
0.00554299
0.00560841
0.00569447
0.00574287
0.0057662
0.00551293
0.0050594
0.00499466
0.00478693
0.00469177
0.00523533
0.00529582
0.00516996
0.00505667
0.00530073
0.00540349
0.00543108
0.00540773
0.00534873
0.00530935
0.00537665
0.00548357
0.00540185
0.00505184
0.00474095
0.00490254
0.00494334
0.0049322
0.0048662
0.0047547
0.00451176
0.00504061
0.00555933
0.00559905
0.00502826
0.00503576
0.00487945
0.00453097
0.00496756
0.00520182
0.00525369
0.00523333
0.00515284
0.00495758
0.00523828
0.00548559
0.00543962
0.00492248
0.00319394
0.00323826
0.00326162
0.00326527
0.00322373
0.00321263
0.00316708
0.00314402
0.00307289
0.00300101
0.00293145
0.00312571
0.00329029
0.00351375
0.00353311
0.00362617
0.00347759
0.00329631
0.0030814
0.0024033
0.00304864
0.00363559
0.00386029
0.0041504
0.00421021
0.00484481
0.00509211
0.00522538
0.00512538
0.00411192
0.00348838
0.00278816
0.00181341
0.00113012
0.00132704
0.00138085
0.00145758
0.00179159
0.00329149
0.00168479
0.00233217
0.00182119
0.00313401
0.00166496
0.00103693
0.000686602
0.00087644
0.00104261
0.00105573
0.00101426
0.000845966
0.000668545
0.000683396
0.000639114
0.000679182
0.000609314
0.000697327
0.000646426
0.000885662
0.00127999
0.00149675
0.00153529
0.00124346
0.00140734
0.00117618
0.00135955
0.00121573
0.00132632
0.00127296
0.00155719
0.00170674
0.00163342
0.00163717
0.00143271
0.00100209
0.00116178
0.000912859
0.00109648
0.000839056
0.00108291
0.000928857
0.00120703
0.00124418
0.00124046
0.00119417
0.000912126
0.00108081
0.000851395
0.00105031
0.000865602
0.000927818
0.000772108
0.00112228
0.00114321
0.00105378
0.00111964
0.0012567
0.00134554
0.00147573
0.00139499
0.00158608
0.001529
0.00154389
0.00146333
0.001424
0.00139204
0.0013955
0.00137274
0.00138013
0.00142432
0.00142589
0.00143097
0.0014752
0.00145349
0.00141711
0.00139456
0.00123892
0.00100049
0.00174289
0.00179727
0.00182539
0.00182594
0.00178644
0.00176459
0.00169919
0.00168248
0.00162695
0.00159684
0.00152373
0.00146651
0.00139929
0.00157395
0.000881724
0.00100141
0.00105716
0.00108954
0.00111099
0.00112134
0.0011287
0.00112214
0.00110771
0.00108127
0.00107329
0.00104407
0.00133518
0.00151926
0.0015901
0.00160995
0.00150905
0.00143773
0.0031627
0.00383204
0.00580852
0.00593655
0.00446527
0.00444764
0.00153201
0.00162232
0.00110837
0.00155759
0.00160646
0.00159015
0.00150189
0.00108317
0.00162565
0.00113414
0.0015222
0.00114659
0.00140193
0.00117334
0.00167652
0.00214107
0.00206862
0.00187436
0.00129317
0.00108108
0.00108835
0.000932287
0.00102387
0.000837325
0.00102086
0.000853181
0.00123855
0.00171876
0.00193828
0.00198021
0.00156318
0.00215904
0.00162408
0.00235533
0.0018751
0.00231789
0.00186285
0.00215374
0.00266558
0.00267831
0.00261492
0.00210763
0.00168636
0.00189391
0.00167673
0.00193262
0.0027966
0.00183226
0.00278963
0.00115151
0.00157023
0.00161923
0.00159765
0.00150688
0.00101521
0.00258255
0.00136706
0.00242214
0.00156695
0.00249758
0.0018241
0.00242902
0.0029026
0.003039
0.0030267
0.00247122
0.00223687
0.00232375
0.00185799
0.00223265
0.00165958
0.0024049
0.00135919
0.00175921
0.00193167
0.0020375
0.00204269
0.00167425
0.00331374
0.00208322
0.00314547
0.00219096
0.00280937
0.00225263
0.00246131
0.00290808
0.00288951
0.00286453
0.0024289
0.00196744
0.00259803
0.0018507
0.055704
0.128282
0.0512246
0.129731
0.0586059
0.0832602
0.0820292
0.0821913
0.0825223
0.0619889
0.135342
0.159808
0.166585
0.168584
0.167321
0.270356
0.22047
0.331131
0.214584
0.126473
0.0549708
0.0756908
0.194981
0.321722
0.482905
0.612861
0.417683
0.432431
0.275951
0.272135
0.25633
0.207524
0.127502
0.0639811
0.0109155
0.0119252
0.0170992
0.0227963
0.0178426
0.0108569
0.00214625
0.00221382
0.0022625
0.00229193
0.00228146
0.00222913
0.00225932
0.00212784
0.00199416
0.00222442
0.00242696
0.00272128
0.00317439
0.00349741
0.00314861
0.00344741
0.00365187
0.00381872
0.0039574
0.00416444
0.00439768
0.00460197
0.00461256
0.00422588
0.00360119
0.00292844
0.00246054
0.00233093
0.00218883
0.00193026
0.00176576
0.00165316
0.00159895
0.00157658
0.00162027
0.00177078
0.00190137
0.00194715
0.00190887
0.00187393
0.00184346
0.00164155
0.00191932
0.0026328
0.00265361
0.00454644
0.00523905
0.00534822
0.0053559
0.00474812
0.00303343
0.00304033
0.00305604
0.00311494
0.00312735
0.00313621
0.00313315
0.00312297
0.00310493
0.00307165
0.00305479
0.0030056
0.0029639
0.0028596
0.0028643
0.00290261
0.00293208
0.00288423
0.00289669
0.00283435
0.00367216
0.0049126
0.0055502
0.00580045
0.00601603
0.00583952
0.00808831
0.00691398
0.00486515
0.00479926
0.00473745
0.0056243
0.00566178
0.00509218
0.00511016
0.00466851
0.00290967
0.00289525
0.00289682
0.00309646
0.00315627
0.00326368
0.00329301
0.00331923
0.00333481
0.00332844
0.00332624
0.00329704
0.00327497
0.0032013
0.00317669
0.00316658
0.00174611
0.00190551
0.00197628
0.00198949
0.00201821
0.00200656
0.00199537
0.00197164
0.00195577
0.00192339
0.00188557
0.00183032
0.00172121
0.0015687
0.00172791
0.00293541
0.00293621
0.00480055
0.00539789
0.00543805
0.00607997
0.00577041
0.00546583
0.00587216
0.00527964
0.00523366
0.0047403
0.0029423
0.0029815
0.00176857
0.0017503
0.00204558
0.00198704
0.00212353
0.00218069
0.0021868
0.00221626
0.00224546
0.00228085
0.00233637
0.00235236
0.00231547
0.00230846
0.00217534
0.00188028
0.00190303
0.00224273
0.00235122
0.00218352
0.00214557
0.00212999
0.00207995
0.00204075
0.00200268
0.00202965
0.00218623
0.00218561
0.00214847
0.0020463
0.00199526
0.00173234
0.00167707
0.00292363
0.00294651
0.00482634
0.00498811
0.00497573
0.00573055
0.00638274
0.00725876
0.00619183
0.00501859
0.00513448
0.00586131
0.00433822
0.00358953
0.00213026
0.00164772
0.00198192
0.00193259
0.0020101
0.00208269
0.00184873
0.00198326
0.00183246
0.00166471
0.00165503
0.00165264
0.00169364
0.00171065
0.00174143
0.00174543
0.00178596
0.00178166
0.00178621
0.00180791
0.00181728
0.00200779
0.00218194
0.00183638
0.00155721
0.00151739
0.00143299
0.00136463
0.00139821
0.00136595
0.00135782
0.00133315
0.00131078
0.00125085
0.00130396
0.00138398
0.00161944
0.00155164
0.00125389
0.00112002
0.000765749
0.000779978
0.000785367
0.000809589
0.000818329
0.000829099
0.000833055
0.00084652
0.000849079
0.000853266
0.000852888
0.000872907
0.000869821
0.000859649
0.000853145
0.000857439
0.000861378
0.000860665
0.00126006
0.00140291
0.00153202
0.00181941
0.00214142
0.00184298
0.00156214
0.00134728
0.000866268
0.000879428
0.000895418
0.000903742
0.000922791
0.00094028
0.000959667
0.000972012
0.000981214
0.000991005
0.00100123
0.00100556
0.00100318
0.000984166
0.000972858
0.000998068
0.00109707
0.0011546
0.00122814
0.00125603
0.0012805
0.00129317
0.00128657
0.00129965
0.00128389
0.00128161
0.00125901
0.00124927
0.00123969
0.00122797
0.00121355
0.00117864
0.00116685
0.001228
0.00207621
0.002714
0.00312727
0.00344545
0.003166
0.00254992
0.00270244
0.00473415
0.00446743
0.00265571
0.00247003
0.00226762
0.00196417
0.00177165
0.00214434
0.00244218
0.00266862
0.00286901
0.0030523
0.00317685
0.00333726
0.00354665
0.00391619
0.00396253
0.00361424
0.00292802
0.00247763
0.00231324
0.00223465
0.00209833
0.00194944
0.00199843
0.00201296
0.00195317
0.00187891
0.00185794
0.00188872
0.00192813
0.00190506
0.00190444
0.00170152
0.00170092
0.00290659
0.00296104
0.00455494
0.00479958
0.00484652
0.00311567
0.00307328
0.00179505
0.00166733
0.00181903
0.00188859
0.00189268
0.00190065
0.00189134
0.00185847
0.00183452
0.00180639
0.00178364
0.00176346
0.00172863
0.00166212
0.00153552
0.00167344
0.00187584
0.00195876
0.00198016
0.00199049
0.00202175
0.00207343
0.00211447
0.00220985
0.00221909
0.00221794
0.00222557
0.00207991
0.00214471
0.001815
0.00181216
0.00314105
0.00313216
0.00179936
0.00212472
0.00213949
0.00211528
0.00227766
0.00208426
0.00201842
0.00200824
0.00192357
0.00187852
0.00181803
0.00178216
0.00181715
0.0019333
0.00187217
0.0016597
0.00160008
0.00179427
0.0017257
0.00143154
0.0012229
0.00118918
0.00113828
0.0011074
0.00116069
0.00120237
0.00122611
0.00125617
0.00126504
0.00132013
0.00128423
0.00134729
0.00142876
0.00149356
0.00177146
0.00192
0.00173453
0.00170143
0.00168036
0.00167899
0.00168444
0.00161531
0.00161079
0.001575
0.00155732
0.00151027
0.00148912
0.00146225
0.0014671
0.00148264
0.00163009
0.00420027
0.00535588
0.00557683
0.00953435
0.00384782
0.0039291
0.00772546
0.00318367
0.00479374
0.00513854
0.00537116
0.00561032
0.00513395
0.00652969
0.00455167
0.00506845
0.00528685
0.00464148
0.00173093
0.00196113
0.00226858
0.00202952
0.00179267
0.00122173
0.00131721
0.00136027
0.00139526
0.00141796
0.00144321
0.00147022
0.00149554
0.00151323
0.00151339
0.00146722
0.00141752
0.00130339
0.00126539
0.00131431
0.00136486
0.00119858
0.00112852
0.00114178
0.00116048
0.00117094
0.0011731
0.0011845
0.00118751
0.00120555
0.0011958
0.00120483
0.00118413
0.00119445
0.00117898
0.00113891
0.00108246
0.000986705
0.000963354
0.00138763
0.00147776
0.00155241
0.00176211
0.00203515
0.00217193
0.00194693
0.00179577
0.00172376
0.00191206
0.00191319
0.00348022
0.00668634
0.0029898
0.00334829
0.00977003
0.00388178
0.00301655
0.00306189
0.003094
0.00309847
0.0018005
0.0021323
0.0020672
0.00207622
0.00176109
0.00147878
0.00132645
0.00118597
0.000804403
0.000801829
0.000807877
0.000820379
0.00082429
0.000789101
0.000789014
0.000784538
0.000782801
0.000766194
0.000761568
0.000748044
0.000739841
0.000720331
0.000709788
0.000691281
0.000688009
0.000717558
0.000798006
0.00096448
0.00107373
0.00122066
0.00124298
0.001399
0.00347647
0.00402642
0.00555406
0.00550329
0.00867997
0.00542223
0.00409391
0.00370002
0.00541661
0.00559889
0.00520188
0.00704442
0.00487241
0.00322641
0.00485695
0.00404058
0.00479558
0.0047023
0.00498622
0.00790893
0.00830968
0.0023383
0.00208415
0.00219221
0.00248753
0.00295399
0.00272074
0.00309927
0.0030972
0.00239081
0.00152344
0.00485634
0.00587317
0.00471187
0.00565588
0.00870914
0.00349843
0.00341175
0.00301813
0.00251884
0.00228913
0.00225864
0.00251877
0.00301447
0.0075521
0.00807949
0.00745193
0.00743455
0.00675498
0.00743028
0.00925063
0.00919959
0.00812551
0.00759872
0.00787449
0.0048958
0.00304225
0.00353702
0.00391981
0.0052314
0.00539457
0.0113789
0.00386755
0.00426803
0.00433333
0.00579618
0.00561872
0.00990876
0.00421081
0.00453509
0.00597757
0.00798223
0.0146877
0.005379
0.0056552
0.00812841
0.00825296
0.00754706
0.00546434
0.00494912
0.0053869
0.00405849
0.00396891
0.00338795
0.00500174
0.00672323
0.00532553
0.00517065
0.00439451
0.00392205
0.00400768
0.00415913
0.00345569
0.00340781
0.00393189
0.00293204
0.00282478
0.0029928
0.000829386
0.000425032
0.000434524
0.000445859
0.000455038
0.000464508
0.000471401
0.000479604
0.00048325
0.00048368
0.000484975
0.000512731
0.000507891
0.000491811
0.000446575
0.000509517
0.000808582
0.000809061
0.000508868
0.000448587
0.000804985
0.00128252
0.00151188
0.00178831
0.00181019
0.00156204
0.00135448
0.00083389
0.000820772
0.000497459
0.000581
0.00063094
0.000559675
0.000624668
0.00057903
0.000613282
0.000619842
0.000573655
0.00057038
0.000572555
0.000568246
0.000558128
0.000545781
0.000530685
0.000518812
0.000512289
0.000507264
0.000496307
0.000412456
0.000384491
0.000462451
0.000737518
0.00073646
0.000690236
0.000650644
0.000616847
0.000601465
0.00059721
0.00059397
0.000604369
0.000623846
0.000629372
0.000635002
0.000684109
0.000662449
0.000707519
0.000664041
0.000709371
0.00066576
0.000612453
0.000514247
0.000530539
0.000855958
0.000865056
0.00139739
0.00159827
0.00181226
0.00182133
0.00203341
0.00214183
0.00181412
0.00188335
0.00215803
0.00200957
0.00179086
0.00179803
0.00161717
0.00161896
0.00143441
0.000896615
0.000884483
0.00055544
0.000539464
0.000643245
0.000632044
0.000702915
0.000752321
0.000752585
0.000750174
0.000731701
0.000724998
0.000637598
0.000624987
0.000625821
0.00060692
0.000602794
0.000628466
0.000685846
0.000805111
0.000974003
0.00106057
0.00109747
0.00105238
0.000942258
0.000695713
0.000628454
0.00108959
0.00113062
0.00202784
0.00482265
0.00224116
0.00427569
0.0030845
0.000766684
0.000855205
0.0010905
0.00122184
0.00131916
0.00137522
0.00125704
0.0010488
0.00078952
0.000652167
0.00097388
0.000842133
0.000950956
0.000830433
0.0010747
0.00124255
0.00120201
0.00121102
0.00102341
0.000833642
0.000882833
0.000792514
0.00087349
0.000731348
0.000879893
0.000794399
0.000998237
0.00100761
0.000986638
0.000935198
0.00071207
0.000747142
0.000626726
0.000679935
0.000610504
0.000631076
0.00059799
0.000697385
0.000803635
0.000771319
0.000768341
0.000631345
0.000494782
0.000546515
0.000472777
0.000535116
0.000416027
0.000503929
0.000422525
0.000547011
0.000563889
0.000566794
0.000563122
0.000458225
0.000539098
0.000660347
0.000693432
0.000699152
0.000665703
0.000513452
0.000794245
0.000716181
0.000874429
0.00075608
0.000827889
0.000753821
0.000878597
0.00112524
0.00117484
0.00118262
0.000959541
0.00095345
0.00174066
0.0965574
0.00156581
0.00185074
0.00190856
0.00190176
0.00157236
0.00153394
0.00190021
0.00140544
0.00199058
0.0012535
0.00212342
0.000809328
0.00123025
0.00132082
0.00131798
0.00122485
0.000821509
0.00242931
0.119226
0.308095