/*--------------------------------*- C++ -*----------------------------------*\
| =========                 |                                                 |
| \\      /  F ield         | OpenFOAM: The Open Source CFD Toolbox           |
|  \\    /   O peration     | Version:  v2012                                 |
|   \\  /    A nd           | Website:  www.openfoam.com                      |
|    \\/     M anipulation  |                                                 |
\*---------------------------------------------------------------------------*/
FoamFile
{
    version     2.0;
    format      ascii;
    class       volScalarField;
    location    "420";
    object      nut;
}
// * * * * * * * * * * * * * * * * * * * * * * * * * * * * * * * * * * * * * //

dimensions      [0 2 -1 0 0 0 0];


internalField   nonuniform List<scalar> 
18258
(
0.00418115
0.00182125
0.00149202
0.00129259
0.000856873
0.00140137
0.00194648
0.00231704
0.00243102
0.00241068
0.00249645
0.00421358
0.00591402
0.00730967
0.00767936
0.00766799
0.00696223
0.00664963
0.0072297
0.00887995
0.0074533
0.00477722
0.0057157
0.00661608
0.00721677
0.00639692
0.00517454
0.00478834
0.00433473
0.00361387
0.00303438
0.00208653
0.00151432
0.00140282
0.00127305
0.00145191
0.00158194
0.00168741
0.00172456
0.00175155
0.00173951
0.00172949
0.00168259
0.00165235
0.00160102
0.00132019
0.00157692
0.00166793
0.00182324
0.00250717
0.00268762
0.00225777
0.0024956
0.00222545
0.00146631
0.00167898
0.00182253
0.00186148
0.00183732
0.0017609
0.00173508
0.00171323
0.00168559
0.00165281
0.00163283
0.0016492
0.00166633
0.00164828
0.00156734
0.00150179
0.00139572
0.00128936
0.00121052
0.00114944
0.00110338
0.00105219
0.000994668
0.000873692
0.000809729
0.00107209
0.0013459
0.00143804
0.00203824
0.00248509
0.00250204
0.00187313
0.00133504
0.00138564
0.00154034
0.00155563
0.00131815
0.00156656
0.00177421
0.00183879
0.00191609
0.00214183
0.00243908
0.00237787
0.00211786
0.00195197
0.00190655
0.00218837
0.00208177
0.00269965
0.00271788
0.00236614
0.00219179
0.00246591
0.00318048
0.0034203
0.00265697
0.00249591
0.00244683
0.00241513
0.00218477
0.00226182
0.00205451
0.00185123
0.00201702
0.00243685
0.00231127
0.0025241
0.00261586
0.0024542
0.00284375
0.00327901
0.00323183
0.00258616
0.00210929
0.0019662
0.00198103
0.0012116
0.00130834
0.00140936
0.00144389
0.00146818
0.00148878
0.00158726
0.00158367
0.00156033
0.00155688
0.00158394
0.000873036
0.00094589
0.00096945
0.000976247
0.000927407
0.000917822
0.000900647
0.000886712
0.000836365
0.000800303
0.000957549
0.00107519
0.00117107
0.00128321
0.00145032
0.00165473
0.00186952
0.00208655
0.00223007
0.00227099
0.00231227
0.00222868
0.00214436
0.00222093
0.00223393
0.00221966
0.00218998
0.00215244
0.00210171
0.00200863
0.00211639
0.00211058
0.00198301
0.00170001
0.00173807
0.00173535
0.00178072
0.00177164
0.00178946
0.0017638
0.00173336
0.00164928
0.00153146
0.0012736
0.00125262
0.00126654
0.00162429
0.00197041
0.00304191
0.00370708
0.00429918
0.00459645
0.0049134
0.00398077
0.00443339
0.00342099
0.00306998
0.00390019
0.00509941
0.00291024
0.0015917
0.00301952
0.0026818
0.00194946
0.0017359
0.00178985
0.0017866
0.00204167
0.00235615
0.00262022
0.0027479
0.00285916
0.00294817
0.0030458
0.0031693
0.00320345
0.00309436
0.00261907
0.00315719
0.00256846
0.00300454
0.00272099
0.00184504
0.00188286
0.0020165
0.00185347
0.0018058
0.00172447
0.00156008
0.00194328
0.00250632
0.00290782
0.00332508
0.00443548
0.00410357
0.0039348
0.00304603
0.00294583
0.0015282
0.00217892
0.00226323
0.00255127
0.00169514
0.00154847
0.00147146
0.00194126
0.00225025
0.00265481
0.00294502
0.00349583
0.00271607
0.003107
0.00281498
0.00196616
0.00188669
0.00269818
0.00290433
0.00238611
0.00212882
0.00267327
0.00253217
0.00179771
0.0014245
0.0021913
0.0022648
0.00163104
0.00407482
0.00436984
0.00415016
0.00503733
0.00630813
0.00718531
0.00670988
0.00595124
0.00662346
0.00526232
0.00511535
0.00546286
0.00458953
0.00320744
0.00328556
0.00339517
0.00348619
0.0037427
0.00397601
0.00426106
0.00453161
0.0041198
0.00342228
0.00259088
0.00178221
0.00175748
0.00174839
0.00156999
0.00232676
0.0035212
0.00349823
0.00198851
0.00115889
0.00131014
0.00147916
0.00146459
0.00106323
0.000800072
0.00137814
0.00157578
0.00160126
0.00156153
0.00147435
0.00154071
0.00247437
0.00381208
0.00418878
0.0043386
0.00448042
0.0045807
0.00463663
0.00465457
0.00466468
0.00467701
0.00468786
0.00470421
0.00468983
0.0045901
0.00403745
0.00253842
0.00148373
0.00137817
0.00152104
0.00163467
0.00173383
0.00147534
0.000902186
0.00144081
0.00184506
0.00212071
0.00213885
0.00199609
0.00193633
0.00305337
0.00405981
0.0047854
0.00493247
0.00499808
0.00494347
0.00493672
0.00482949
0.00479672
0.0042071
0.00300725
0.003287
0.00352902
0.00356899
0.00365113
0.00377474
0.00368747
0.00348498
0.0050901
0.00587593
0.00595164
0.00607837
0.00600676
0.00590372
0.0056364
0.00533063
0.00448788
0.00336566
0.00212378
0.00216824
0.00230833
0.00228626
0.00199029
0.00209658
0.00227543
0.00229823
0.00237345
0.00266172
0.0030231
0.00288394
0.00248216
0.00210805
0.00196277
0.00192112
0.00184283
0.00137979
0.00140082
0.00136211
0.00138482
0.00186055
0.00221447
0.00255378
0.00362174
0.0032306
0.0026273
0.0041657
0.00426924
0.00458732
0.00506792
0.00519336
0.00575426
0.0040035
0.00360796
0.00370626
0.00302776
0.00280256
0.00283244
0.00284313
0.00264992
0.00290045
0.00287485
0.00277081
0.00305903
0.00337067
0.00444447
0.00538512
0.00568155
0.00585277
0.00592304
0.00590152
0.00578793
0.00582547
0.00511825
0.00511623
0.00489904
0.00475843
0.00470885
0.00447673
0.00512081
0.00531556
0.00538042
0.0055145
0.00572355
0.00556704
0.00539452
0.0052631
0.00516792
0.0050685
0.00512166
0.00521652
0.00531783
0.00546008
0.0056499
0.00568069
0.005484
0.00533525
0.00523351
0.00513797
0.00514153
0.00522666
0.00532597
0.00546695
0.00564696
0.00554681
0.0054068
0.00528213
0.00517992
0.00508998
0.00491181
0.00503012
0.0051603
0.00526758
0.00533715
0.00461161
0.00492934
0.00484457
0.00438622
0.0041054
0.00311774
0.0033741
0.00355801
0.00387534
0.00430164
0.00438533
0.00368015
0.00315381
0.00307326
0.00304849
0.00312049
0.0031463
0.00316155
0.00357233
0.00538222
0.00541946
0.00543565
0.00543853
0.00465066
0.00451841
0.00420846
0.00769582
0.00716577
0.00620859
0.00511816
0.00274245
0.00235078
0.00278445
0.0033862
0.00378613
0.00417859
0.00277396
0.00171853
0.00200308
0.00207708
0.0020265
0.00187315
0.00156038
0.00144041
0.00130734
0.00140688
0.00249133
0.0039752
0.0044775
0.00452497
0.0044801
0.00439304
0.00428737
0.00414024
0.00408057
0.0051334
0.00693427
0.00785129
0.00782216
0.0067199
0.00547418
0.00308404
0.00158457
0.00115982
0.00125927
0.00138376
0.00162663
0.00144952
0.00121445
0.00133064
0.00126308
0.00255985
0.00442171
0.00564342
0.00669423
0.00658005
0.00571137
0.00468074
0.00444254
0.00454702
0.00461627
0.00467603
0.00473742
0.00477961
0.0047532
0.00432661
0.00267336
0.00159596
0.00141801
0.00152481
0.00178707
0.00189888
0.00191811
0.00189127
0.00163936
0.00271087
0.00430508
0.00273772
0.00149389
0.00161427
0.00160261
0.00282689
0.00282239
0.00276124
0.00429604
0.00454243
0.00453143
0.00425768
0.0040645
0.00240646
0.0027311
0.00274026
0.00275482
0.00280007
0.00141439
0.00154177
0.00158985
0.00171157
0.00149824
0.00190112
0.000491948
0.000682034
0.000792161
0.000861176
0.000927715
0.000909984
0.00174072
0.00176616
0.00168595
0.00164223
0.0020841
0.00223629
0.00228558
0.0021051
0.00194246
0.0020679
0.00207247
0.00195314
0.00185005
0.00191823
0.00191951
0.00183925
0.00156436
0.00146585
0.00160942
0.00159218
0.00157951
0.00283665
0.00283157
0.00267956
0.00440296
0.0043322
0.00485211
0.00482029
0.00481429
0.00479467
0.00484595
0.00487298
0.00489366
0.00491779
0.00490821
0.00486112
0.0067798
0.00478016
0.00417138
0.00241232
0.00232372
0.00164108
0.00143816
0.00169349
0.00181125
0.00196364
0.00191923
0.00202326
0.00202094
0.00214433
0.00199029
0.00176726
0.00270691
0.00289184
0.00282448
0.0028804
0.00281266
0.00279618
0.00277553
0.00273603
0.00268847
0.00160071
0.00157017
0.00183868
0.00193009
0.00207391
0.00209271
0.00213812
0.0020278
0.00178343
0.00172635
0.00198815
0.00196134
0.00199945
0.00188512
0.00187734
0.00167251
0.00171488
0.00346003
0.00639513
0.0032867
0.00365112
0.00330712
0.00376181
0.00329457
0.00284095
0.00290763
0.00256093
0.00267141
0.00280218
0.00285286
0.00299835
0.00353422
0.00340286
0.00298709
0.00290041
0.00284326
0.00268077
0.0024129
0.00252782
0.00255071
0.00260545
0.00289556
0.00332199
0.00372407
0.00452595
0.00439207
0.00384739
0.00351754
0.00368929
0.0037526
0.00472449
0.00441417
0.00438781
0.0046281
0.00458191
0.00434918
0.00412137
0.00397828
0.00341481
0.00347082
0.00397315
0.00384467
0.00396226
0.003893
0.00404683
0.00412016
0.00395491
0.00367548
0.00386264
0.00385419
0.0042808
0.00416371
0.00386199
0.00353426
0.00377651
0.00373011
0.00430978
0.00405742
0.00379479
0.00349248
0.00334489
0.00379653
0.00372737
0.00422729
0.00434921
0.00435121
0.00379278
0.00370485
0.00440707
0.00424038
0.00409523
0.00426566
0.00353198
0.0036331
0.00447647
0.00457027
0.00433557
0.00361882
0.00367451
0.00315045
0.00370574
0.004613
0.00435673
0.00357067
0.0029622
0.00414565
0.00436197
0.00461563
0.00436168
0.00475118
0.00511846
0.004171
0.00453807
0.0059316
0.00452445
0.0052506
0.00536723
0.00539924
0.00540253
0.00542409
0.00545203
0.00574529
0.00559207
0.00355168
0.00424901
0.00412475
0.00344802
0.0029303
0.00322799
0.00347654
0.00352664
0.00361603
0.00375405
0.00369051
0.00357181
0.0052243
0.00595882
0.0060928
0.00621503
0.00611257
0.00595898
0.00560816
0.0051779
0.00428932
0.00319803
0.00199346
0.00203229
0.00216649
0.00214622
0.00186289
0.00140649
0.000923421
0.00137044
0.0014143
0.00132954
0.00120934
0.00106299
0.0010919
0.00201329
0.00416188
0.00551379
0.00605183
0.00649583
0.00698169
0.00743519
0.00777726
0.00802727
0.00820006
0.00830896
0.00833129
0.00817229
0.00747027
0.00714781
0.00674672
0.00641766
0.0059511
0.00556315
0.00628682
0.0068976
0.00727069
0.0076915
0.00788354
0.00779887
0.00677152
0.00658814
0.00759453
0.00934566
0.00795258
0.00998414
0.0117241
0.00914094
0.00821073
0.00819208
0.00914929
0.00932476
0.0089997
0.0084921
0.00791041
0.00717296
0.00754716
0.00788236
0.00820103
0.00849575
0.00927121
0.00941409
0.00934474
0.00919483
0.00900147
0.0087385
0.00832649
0.00774704
0.0070797
0.00643213
0.00568812
0.00417297
0.00185426
0.00220171
0.00215264
0.00243222
0.00230105
0.00101392
0.00109898
0.00111246
0.00111884
0.00105894
0.00120128
0.00174522
0.0028341
0.00204437
0.00167445
0.00116594
0.00138201
0.00231066
0.0039358
0.00444407
0.00451741
0.00458536
0.00614086
0.00687711
0.00728371
0.00760817
0.00780301
0.0077026
0.00746316
0.00703656
0.00653433
0.00632136
0.00598357
0.00566355
0.00548362
0.00529361
0.00497377
0.00393638
0.00373005
0.00388102
0.00384107
0.00367931
0.00392713
0.00406624
0.00406057
0.00410374
0.00414169
0.00426278
0.00440576
0.00453038
0.00459584
0.00462031
0.00462839
0.00463854
0.0046469
0.00466203
0.00464713
0.00454619
0.00399261
0.00249725
0.00145794
0.00134803
0.00147806
0.00156305
0.00159944
0.00142034
0.000914121
0.00142061
0.00183867
0.00188561
0.00206852
0.00213379
0.00226241
0.00252096
0.00291356
0.00300677
0.00266879
0.00252846
0.00247425
0.00241117
0.00205746
0.00256336
0.00283421
0.00282955
0.00280317
0.00302927
0.00372734
0.003581
0.0031576
0.00312179
0.00308958
0.00278695
0.00274271
0.00300489
0.00303871
0.00315353
0.00369878
0.00443581
0.00411508
0.00374688
0.00358962
0.00331332
0.0029091
0.00262934
0.003264
0.00268845
0.00138186
0.00117127
0.00118075
0.00117932
0.00113083
0.00133747
0.00140527
0.00142382
0.00132921
0.00147776
0.00164681
0.00159703
0.00181665
0.00178751
0.00159248
0.00157447
0.00171666
0.00182411
0.00187695
0.00191876
0.00313741
0.00322643
0.00250665
0.00363548
0.00419473
0.00420398
0.0044551
0.00365262
0.00326241
0.00387498
0.00449831
0.00519388
0.00409062
0.00385698
0.00396135
0.00180702
0.000950534
0.00134171
0.00166535
0.00185275
0.00179576
0.00169666
0.00143473
0.00255024
0.00261787
0.00415403
0.00465916
0.00471508
0.0046768
0.00475679
0.00527193
0.00618059
0.00683621
0.0070247
0.00691739
0.00662769
0.00609303
0.00557521
0.00552264
0.0053301
0.00517536
0.0051244
0.00446959
0.00392047
0.00416748
0.00411103
0.00424706
0.00430936
0.00435388
0.00439954
0.00447723
0.00457135
0.00465679
0.00471547
0.00475493
0.00478867
0.00482353
0.00485876
0.00489684
0.00491781
0.00487217
0.00440453
0.00264332
0.00157634
0.00143812
0.0015345
0.00180354
0.00189894
0.00204102
0.0018128
0.000954642
0.00112286
0.00195105
0.00216268
0.00200069
0.00187242
0.00183921
0.00154065
0.00278999
0.00275387
0.00432098
0.00485799
0.00492424
0.00490873
0.00486881
0.004824
0.00478206
0.00474794
0.0047213
0.00469358
0.00465425
0.00460809
0.00456198
0.00451398
0.00443419
0.00431691
0.00421773
0.00440307
0.00450626
0.004692
0.00492568
0.00505396
0.00496257
0.0048061
0.00472076
0.00473944
0.00478183
0.00482705
0.00486815
0.00488955
0.00483747
0.00456118
0.00428154
0.00271158
0.00274699
0.001352
0.00150183
0.00173294
0.00178968
0.00194406
0.00193534
0.00152177
0.00118523
0.00133684
0.00124981
0.00223333
0.00245543
0.00272265
0.00269558
0.00146414
0.00150152
0.00156048
0.00176041
0.0016364
0.00158186
0.00390761
0.00373904
0.00391299
0.00480453
0.00413787
0.00285736
0.00313382
0.00435929
0.00459757
0.00278066
0.00208442
0.0023138
0.00293097
0.00431273
0.00436671
0.00414859
0.00412551
0.0030139
0.00370357
0.00445413
0.0043329
0.00338068
0.00233005
0.001734
0.000842622
0.00160294
0.00137097
0.00335837
0.00371649
0.00367313
0.00401724
0.0042674
0.00431119
0.0041898
0.00371522
0.00378905
0.00382646
0.00436007
0.0043802
0.0037073
0.00312877
0.00254067
0.00256356
0.00261351
0.00289686
0.0036276
0.00341748
0.00299501
0.00290404
0.00284118
0.00267256
0.00241161
0.0021158
0.00213037
0.00198285
0.00191898
0.00302525
0.00402735
0.00474952
0.00488639
0.00493611
0.00486045
0.00482599
0.00468776
0.0046161
0.00401011
0.00511771
0.00540839
0.00521939
0.00525858
0.00529191
0.00533267
0.00533386
0.00523388
0.00449735
0.00268576
0.00175432
0.00198028
0.00213753
0.00200721
0.00199593
0.00212731
0.00201849
0.0017729
0.0028723
0.00280712
0.00448817
0.00508262
0.00519075
0.0051963
0.00517491
0.00515704
0.00516335
0.00543544
0.00531405
0.00539597
0.005694
0.00570192
0.00576995
0.00541669
0.0053471
0.00530237
0.00527229
0.00522378
0.00509511
0.00450849
0.00437106
0.0049643
0.00511775
0.00518612
0.00523363
0.00529019
0.00536408
0.00557661
0.00573481
0.00579551
0.00554995
0.00545582
0.00532712
0.00514621
0.00510362
0.00509548
0.00509181
0.00506778
0.0049374
0.00434679
0.0027953
0.00286462
0.00170425
0.00171546
0.00197602
0.00207558
0.00203863
0.001888
0.00184082
0.00316699
0.00360538
0.00383436
0.00413124
0.00394625
0.00392313
0.00448444
0.00433992
0.0038707
0.00402724
0.00361011
0.00344005
0.00332783
0.00334611
0.00175985
0.00189886
0.00198051
0.00194752
0.00186213
0.00166074
0.00152284
0.00277878
0.00275854
0.0027229
0.0016194
0.00158406
0.00186634
0.00181264
0.00165834
0.00141354
0.00154947
0.00239197
0.00267512
0.00414716
0.00429512
0.00459736
0.0049151
0.00503482
0.00506716
0.00508691
0.00510916
0.00515777
0.00521575
0.00523374
0.00523635
0.00528886
0.00528035
0.00528232
0.00525555
0.00522413
0.00518695
0.00514686
0.00508083
0.00494507
0.00462045
0.00430239
0.00485063
0.0048956
0.00498718
0.0050817
0.00512196
0.00512806
0.00510893
0.00507085
0.00502535
0.00497327
0.00497025
0.00510572
0.00513848
0.00516183
0.00514474
0.00512589
0.00511957
0.00509688
0.00506069
0.00496827
0.00487568
0.00483633
0.00475629
0.00488229
0.0049376
0.00494502
0.00499152
0.00506688
0.00508867
0.00508835
0.00505139
0.00502106
0.00498168
0.00491582
0.00482801
0.00454179
0.00460566
0.00468517
0.00478959
0.00489032
0.00497168
0.00501762
0.00502129
0.00497559
0.00494463
0.00494567
0.0049037
0.00492529
0.00494778
0.00492262
0.00491941
0.00492235
0.00486482
0.00476148
0.00461817
0.00446717
0.00434403
0.00428437
0.00418267
0.00450054
0.00463015
0.00474424
0.0048444
0.00493492
0.00502654
0.00505393
0.00504339
0.00498802
0.00495696
0.00495665
0.00491012
0.00490681
0.00495165
0.00495262
0.00497877
0.0050268
0.00501434
0.00494901
0.00477609
0.0046088
0.00446352
0.00432402
0.00417391
0.00416052
0.00422881
0.00416475
0.00421581
0.00435983
0.0045434
0.00470303
0.0048065
0.00483978
0.00487048
0.00491507
0.00491027
0.00488343
0.00486878
0.00480855
0.00475588
0.00469124
0.00455096
0.00437353
0.00421921
0.00417498
0.0042636
0.00434804
0.00426828
0.00394565
0.00410241
0.00425013
0.00439576
0.00460395
0.00484521
0.00494848
0.00498452
0.00496007
0.00494131
0.00493945
0.00489696
0.00488109
0.00492027
0.00492316
0.00494268
0.00497465
0.00494585
0.00486226
0.00456607
0.00421414
0.00404623
0.00394754
0.00381282
0.00428892
0.00437974
0.00427137
0.00419804
0.00430977
0.00443815
0.00457226
0.00466166
0.00469713
0.00474815
0.00481549
0.0048479
0.0047998
0.00474412
0.00467569
0.00464111
0.0046427
0.00462181
0.00453605
0.00443422
0.00431324
0.00445831
0.00454476
0.00446193
0.00401971
0.00408505
0.00418228
0.00423534
0.00456746
0.00485921
0.00492632
0.00492689
0.0048958
0.00487558
0.00487657
0.00485218
0.00480458
0.00479473
0.00478956
0.00484596
0.00492021
0.00496191
0.00498193
0.00476286
0.00437068
0.00431445
0.00413451
0.00405223
0.00452196
0.00457446
0.00446634
0.00436879
0.00457998
0.00466893
0.00469285
0.00467275
0.00462184
0.00458791
0.00464621
0.00473885
0.00466815
0.00436547
0.00409671
0.00423629
0.00427149
0.00426181
0.0042047
0.0041082
0.00389799
0.00435458
0.004802
0.00483594
0.00434271
0.00434928
0.00421485
0.00391414
0.00429165
0.00449428
0.00453924
0.00452176
0.00445231
0.00428368
0.00452637
0.00474028
0.00470049
0.00425343
0.00275976
0.00279804
0.00281823
0.00282135
0.00278547
0.00277585
0.0027365
0.00271656
0.00265514
0.00259304
0.002533
0.00270087
0.00284307
0.00303616
0.00305292
0.00313333
0.00300501
0.00284844
0.00266277
0.00207713
0.00263484
0.003142
0.00333616
0.0035869
0.0036387
0.00418684
0.00440036
0.00451544
0.00442904
0.00355343
0.00301464
0.00240955
0.00156716
0.00097667
0.00114688
0.00119342
0.00125975
0.00154804
0.00282545
0.00144784
0.00199882
0.00156219
0.00267854
0.00143651
0.000896024
0.000593304
0.000757332
0.000900925
0.000912302
0.000876507
0.000731073
0.000577792
0.000590623
0.000552363
0.000586988
0.000526602
0.000602667
0.000558646
0.000765427
0.00110622
0.00129348
0.00132671
0.00107445
0.00121605
0.00101637
0.00117478
0.00105063
0.00114609
0.00110011
0.0013455
0.00147473
0.00141136
0.00141458
0.00123789
0.000865826
0.00100387
0.000788761
0.000947465
0.000724942
0.000935599
0.00080239
0.00104267
0.0010747
0.00107142
0.00103137
0.000787705
0.00093323
0.00073514
0.000906886
0.000747447
0.000801679
0.000667232
0.000969757
0.000987873
0.000910636
0.000967449
0.00108575
0.0011623
0.00127448
0.00120495
0.00136937
0.00132003
0.00133281
0.00126337
0.00122967
0.00120219
0.0012053
0.00118571
0.00119215
0.00123038
0.00123178
0.00123622
0.00127452
0.0012558
0.00122438
0.00120491
0.00107049
0.000864529
0.00150594
0.00155286
0.00157709
0.00157753
0.00154341
0.00152451
0.00146804
0.00145359
0.00140566
0.00137965
0.00131653
0.0012671
0.00120907
0.00135991
0.000761831
0.000865201
0.000913345
0.000941307
0.000959838
0.000968786
0.000975157
0.000969516
0.000957073
0.00093426
0.000927382
0.000902165
0.00115363
0.00131262
0.00137382
0.00139095
0.00130374
0.00124208
0.00273199
0.00331
0.00501638
0.0051269
0.00385678
0.00384169
0.00132345
0.00140124
0.000957072
0.00134495
0.00138706
0.00137285
0.00129651
0.000934884
0.00140313
0.000978835
0.00131385
0.000989768
0.00121091
0.00101343
0.00144775
0.00184896
0.00178669
0.00161912
0.00111722
0.000934184
0.000940482
0.000805669
0.00088481
0.000723615
0.000882223
0.000737284
0.00107035
0.00148532
0.0016749
0.00171101
0.00135056
0.00186536
0.00140327
0.00203495
0.00162027
0.00200252
0.00160951
0.00186038
0.0023025
0.00231348
0.0022587
0.00182049
0.00145662
0.00163611
0.00144839
0.00166965
0.00241473
0.00158191
0.00240839
0.000993981
0.00135539
0.00139751
0.00137866
0.00130007
0.000875498
0.00222682
0.00117854
0.002088
0.0013509
0.0021539
0.0015731
0.00209397
0.00250287
0.00262129
0.00261153
0.00213283
0.00193136
0.0020064
0.00160449
0.00192797
0.00143322
0.00207698
0.00117399
0.0015194
0.00166829
0.00175968
0.00176426
0.00144611
0.00286194
0.00179925
0.00271646
0.00189227
0.00242592
0.00194547
0.0021253
0.00251107
0.00249496
0.00247332
0.00209712
0.00169853
0.00224311
0.00159779
0.0481053
0.110739
0.044235
0.111975
0.0506055
0.0718755
0.0707987
0.070918
0.0711848
0.0534663
0.116684
0.137807
0.143688
0.145455
0.144397
0.233322
0.190303
0.285823
0.185243
0.109181
0.047473
0.0653591
0.168336
0.277731
0.41682
0.528909
0.360472
0.373125
0.238098
0.234744
0.221059
0.178935
0.109918
0.0551708
0.00940492
0.010269
0.0147274
0.0196419
0.0153939
0.00937497
0.00185458
0.00191289
0.0019549
0.0019803
0.00197128
0.00192614
0.00195236
0.00183878
0.00172325
0.0019221
0.00209709
0.002351
0.00274236
0.0030211
0.00272027
0.00297816
0.00315448
0.00329822
0.00341758
0.003596
0.00379711
0.00397342
0.0039829
0.00364988
0.00311122
0.0025306
0.00212649
0.00201447
0.00189166
0.00166819
0.00152604
0.00142871
0.00138185
0.00136252
0.00140028
0.0015304
0.00164332
0.00168293
0.00164992
0.00161964
0.00159325
0.00141872
0.00165884
0.00227546
0.00229313
0.00392892
0.00452735
0.0046217
0.00462838
0.00410297
0.00262121
0.00262714
0.00264071
0.00269157
0.00270229
0.00270992
0.00270727
0.00269844
0.00268284
0.00265405
0.00263946
0.00259688
0.00256082
0.00247057
0.00247463
0.00250768
0.00253305
0.00249172
0.00250245
0.00244868
0.00317322
0.00424543
0.0047961
0.00501193
0.00519747
0.00504485
0.00698878
0.00597446
0.00420329
0.00414598
0.00409262
0.00485816
0.00489004
0.00439782
0.00441347
0.00403255
0.00251346
0.00250107
0.00250243
0.00267506
0.00272677
0.00281968
0.00284505
0.00286777
0.00288125
0.0028758
0.00287392
0.00284873
0.00282968
0.00276607
0.00274483
0.00273611
0.00150877
0.00164647
0.00170759
0.001719
0.00174379
0.00173371
0.00172401
0.00170349
0.00168974
0.00166174
0.00162901
0.00158124
0.00148692
0.00135516
0.00149269
0.0025356
0.00253628
0.0041465
0.00466188
0.00469645
0.00525109
0.00498435
0.00472152
0.00507176
0.0045597
0.00452013
0.00409446
0.00254148
0.00257534
0.00152781
0.00151203
0.00176719
0.0017166
0.00183459
0.00188401
0.00188934
0.00191483
0.00194009
0.0019707
0.0020187
0.00203253
0.00200068
0.00199464
0.00187964
0.00162472
0.0016444
0.00193789
0.00203162
0.0018867
0.00185388
0.0018404
0.00179713
0.00176324
0.00173031
0.00175358
0.00188882
0.00188824
0.00185617
0.00176783
0.00172375
0.00149652
0.00144881
0.00252533
0.00254521
0.0041691
0.00430833
0.00429766
0.0049503
0.0055147
0.00627204
0.00534977
0.0043356
0.0044357
0.00506429
0.0037488
0.00310133
0.00184093
0.00142356
0.00171247
0.00166966
0.00173669
0.00179936
0.00159728
0.00171349
0.00158324
0.00143831
0.00142997
0.0014279
0.00146335
0.00147805
0.00150466
0.00150812
0.00154317
0.00153946
0.00154341
0.00156216
0.00157027
0.00173489
0.00188538
0.00158681
0.00134558
0.00131115
0.00123823
0.00117914
0.00120815
0.00118026
0.00117324
0.0011519
0.00113257
0.00108078
0.00112666
0.00119578
0.0013992
0.00134065
0.0010834
0.000967748
0.00066165
0.000673929
0.000678584
0.000699518
0.000707072
0.000716379
0.000719798
0.00073144
0.000733652
0.000737272
0.000736946
0.000754255
0.00075159
0.000742802
0.000737184
0.000740907
0.000744318
0.000743701
0.00108882
0.00121225
0.00132383
0.00157217
0.00185039
0.00159254
0.00134987
0.0011642
0.000748558
0.000759931
0.000773751
0.000780944
0.000797413
0.000812529
0.000829291
0.000839963
0.00084792
0.000856386
0.000865228
0.000868972
0.000866914
0.00085049
0.000840721
0.00086251
0.000948052
0.000997772
0.00106131
0.00108542
0.00110657
0.00111751
0.00111183
0.00112314
0.00110954
0.00110757
0.00108806
0.00107965
0.00107139
0.00106126
0.00104881
0.00101866
0.00100848
0.00106134
0.00179438
0.00234559
0.00270271
0.00297775
0.0027363
0.00220384
0.00233565
0.00409113
0.00386043
0.00229515
0.00213456
0.00195951
0.00169719
0.00153096
0.00185284
0.00211013
0.00230571
0.00247875
0.00263697
0.00274447
0.00288295
0.0030638
0.00338299
0.00342313
0.00312258
0.00253011
0.00214118
0.00199916
0.00193122
0.0018134
0.00168471
0.00172705
0.00173958
0.00168789
0.00162371
0.00160558
0.00163221
0.00166633
0.00164643
0.00164581
0.0014704
0.00146987
0.00251173
0.00255866
0.00393604
0.00414742
0.00418798
0.00269227
0.00265565
0.00155117
0.00144078
0.00157184
0.00163193
0.00163546
0.00164233
0.00163428
0.00160587
0.00158516
0.00156083
0.00154116
0.00152369
0.00149357
0.00143605
0.00132668
0.00144584
0.00162076
0.00169244
0.00171097
0.00171992
0.00174695
0.00179163
0.00182711
0.00190954
0.00191754
0.00191655
0.00192316
0.00179729
0.00185331
0.00156843
0.00156599
0.0027142
0.00270651
0.00155495
0.00183608
0.00184882
0.00182791
0.0019682
0.00180107
0.00174417
0.00173535
0.00166217
0.00162322
0.00157095
0.00153993
0.00157014
0.00167048
0.00161762
0.00143398
0.00138249
0.00155035
0.00149114
0.00123702
0.00105675
0.00102762
0.000983635
0.000956946
0.00100299
0.00103901
0.00105952
0.00108551
0.00109317
0.0011408
0.00110976
0.00116427
0.00123467
0.00129069
0.00153083
0.00165916
0.00149889
0.00147027
0.00145206
0.00145087
0.00145559
0.00139583
0.00139192
0.00136098
0.00134571
0.00130503
0.00128677
0.00126354
0.00126774
0.00128114
0.00140856
0.00362927
0.00462777
0.00481873
0.00823936
0.00332457
0.00339472
0.00667585
0.00275055
0.00414181
0.00443983
0.00464092
0.00484752
0.00443581
0.00564241
0.00393258
0.00437916
0.00456796
0.00401047
0.00149571
0.00169486
0.00196108
0.00175443
0.00154967
0.00105608
0.00113857
0.00117575
0.00120598
0.00122557
0.00124739
0.00127072
0.0012926
0.00130789
0.00130803
0.00126814
0.00122518
0.00112656
0.0010937
0.00113598
0.00117966
0.00103596
0.000975402
0.000986863
0.00100302
0.00101206
0.00101392
0.00102376
0.00102636
0.00104193
0.0010335
0.00104128
0.0010234
0.0010323
0.00101893
0.000984296
0.000935516
0.000852768
0.000832584
0.00119926
0.00127714
0.00134163
0.00152283
0.00175873
0.00187689
0.00168243
0.00155178
0.00148954
0.00165231
0.00165335
0.00300734
0.00577767
0.00258362
0.00289327
0.00844193
0.00335419
0.0026066
0.00264578
0.00267352
0.0026774
0.00155595
0.00184264
0.00178641
0.00179418
0.00152189
0.00127794
0.00114628
0.00102489
0.000695144
0.000692905
0.000698129
0.000708934
0.000712312
0.000681894
0.000681818
0.00067795
0.000676449
0.000662095
0.000658097
0.000646412
0.000639324
0.000622465
0.000613357
0.000597367
0.000594546
0.00062016
0.000689728
0.000833716
0.000927971
0.00105497
0.00107422
0.001209
0.00300405
0.00347908
0.00479893
0.00475511
0.00750043
0.00468507
0.00353738
0.00319708
0.00468024
0.00483771
0.00449479
0.00608709
0.00421014
0.00278802
0.00419762
0.00349216
0.00414385
0.00406352
0.00430888
0.00683456
0.00718116
0.00202122
0.00180154
0.00189485
0.00215008
0.00255323
0.00235183
0.00267881
0.00267702
0.00206639
0.00131635
0.00419592
0.00507495
0.00407168
0.00488763
0.00752552
0.00302354
0.00294859
0.00260847
0.00217702
0.00197851
0.0019522
0.00217701
0.00260539
0.00652596
0.00698192
0.0064401
0.00642457
0.00583744
0.00642056
0.00799369
0.00794956
0.00702168
0.00656652
0.00680513
0.00423122
0.00262893
0.00305626
0.00338697
0.00452023
0.00466123
0.0098333
0.00334174
0.00368776
0.00374426
0.00500831
0.00485501
0.0085628
0.00363842
0.00391866
0.00516513
0.00689744
0.0126925
0.00464793
0.00488662
0.00702378
0.00713137
0.0065214
0.00472164
0.00427639
0.00465463
0.00350681
0.00342939
0.00292746
0.00432179
0.00580955
0.00460153
0.00446771
0.00379711
0.00338911
0.00346288
0.00359378
0.002986
0.00294462
0.00339739
0.00253346
0.00244082
0.00258607
0.000716717
0.00036731
0.000375506
0.000385298
0.000393227
0.000401409
0.000407365
0.000414454
0.000417606
0.000417977
0.000419095
0.000443086
0.000438904
0.000425009
0.000385925
0.000440326
0.00069876
0.000699173
0.000439765
0.000387674
0.000695665
0.00110834
0.00130655
0.00154542
0.00156436
0.00134991
0.00117055
0.000720645
0.000709307
0.000429915
0.00050211
0.000545269
0.000483675
0.00053984
0.000500391
0.00052999
0.000535658
0.000495742
0.000492912
0.000494792
0.000491068
0.000482325
0.000471659
0.000458619
0.000448367
0.000442744
0.000438418
0.000428965
0.000356451
0.000332295
0.000399716
0.000637607
0.000636674
0.000596674
0.000562406
0.000533151
0.000519827
0.00051613
0.000513316
0.000522299
0.000539132
0.000543909
0.000548774
0.000591212
0.00057249
0.000611455
0.000573877
0.000613064
0.000575369
0.000529299
0.000444427
0.000458507
0.000739718
0.000747582
0.00120764
0.00138123
0.00156615
0.001574
0.00175721
0.00185088
0.00156771
0.00162751
0.00186488
0.00173662
0.00154768
0.00155386
0.00139758
0.00139912
0.00123965
0.000774864
0.000764376
0.000480027
0.000466221
0.00055592
0.000546236
0.00060749
0.000650192
0.000650418
0.00064833
0.00063236
0.000626562
0.000551021
0.000540126
0.000540851
0.000524517
0.000520961
0.000543171
0.000592803
0.000695956
0.000842027
0.000916896
0.000948772
0.000909751
0.000814536
0.000601468
0.000543305
0.000941926
0.000977377
0.00175287
0.00416779
0.0019372
0.0036955
0.00266606
0.00066275
0.000739238
0.000942646
0.00105622
0.0011404
0.00118891
0.00108673
0.00090666
0.000682559
0.000563826
0.00084199
0.000728098
0.00082218
0.000718019
0.000929128
0.00107425
0.00103918
0.00104693
0.000884715
0.000720661
0.000763222
0.000685129
0.00075518
0.000632263
0.000760724
0.000686719
0.000862923
0.000871012
0.000852872
0.000808391
0.000615503
0.000645811
0.000541752
0.00058773
0.000527745
0.000545493
0.000516921
0.000602774
0.000694607
0.000666666
0.000664081
0.000545663
0.00042763
0.000472355
0.000408608
0.000462501
0.000359558
0.000435543
0.000365166
0.000472766
0.000487361
0.000489886
0.000486729
0.00039607
0.00046593
0.000570715
0.000599293
0.000604223
0.000575306
0.000443714
0.000686415
0.00061892
0.000755711
0.000653399
0.000715484
0.00065145
0.000759271
0.000972437
0.00101531
0.00102204
0.000829244
0.000824078
0.00150384
0.0834575
0.0013528
0.00159903
0.00164896
0.00164307
0.00135841
0.0013251
0.00164145
0.001214
0.00171955
0.00108274
0.00183443
0.000699301
0.00106313
0.00114143
0.001139
0.00105852