/*--------------------------------*- C++ -*----------------------------------*\
| =========                 |                                                 |
| \\      /  F ield         | OpenFOAM: The Open Source CFD Toolbox           |
|  \\    /   O peration     | Version:  v2012                                 |
|   \\  /    A nd           | Website:  www.openfoam.com                      |
|    \\/     M anipulation  |                                                 |
\*---------------------------------------------------------------------------*/
FoamFile
{
    version     2.0;
    format      ascii;
    class       surfaceScalarField;
    location    "95";
    object      phi;
}
// * * * * * * * * * * * * * * * * * * * * * * * * * * * * * * * * * * * * * //

dimensions      [1 0 -1 0 0 0 0];
oriented        oriented;


internalField   nonuniform List<scalar> 
63799
(
0.00327427
-0.00547032
0.0043083
-0.00836784
-0.00581284
0.00883478
-0.00502879
-0.00844396
0.0105081
0.00615198
0.00624857
-0.00782184
-0.00353482
0.00381672
0.00325983
-0.000891135
0.00433012
0.00172754
-0.0022883
0.00549599
0.002942
-0.00417878
0.00151178
0.00389632
0.00296714
-0.00643373
0.00487933
0.00449661
-0.00591811
0.00427844
0.00537518
-0.00449386
0.00351277
0.0064449
-0.00306944
0.00189549
0.0122152
-0.00514251
-0.000820996
0.0141144
-0.0115701
0.00911458
0.0150098
-0.0131888
0.0115997
0.0179909
-0.0123593
0.00860247
0.0175524
-0.00988352
0.00954081
0.0117906
-0.00753288
0.0124837
-0.0054465
-0.00772876
0.0241893
-0.0200707
-0.0166073
0.0304692
-0.0174347
-0.0302755
0.0269472
-0.0067615
-0.0337248
0.0224989
-0.0149773
0.00785905
-0.0485769
0.0308757
0.00238315
-0.0534352
-0.0227291
0.0270358
-0.0623183
-0.0126988
0.0210298
-0.0441645
-0.032852
0.0143556
-0.0555364
0.0110133
-0.0891949
0.0072084
0.0258939
-0.109075
0.0145336
0.00464861
-0.122721
0.00827301
0.00460272
-0.12884
0.00271463
0.00260142
-0.130341
-0.0012478
0.00189623
-0.129005
-0.00502267
0.00282965
-0.12543
-0.00972817
0.00527664
-0.118622
-0.016446
0.0087843
-0.105707
-0.0267661
0.0129947
-0.0836916
-0.0392407
0.0164302
-0.0512784
-0.05085
0.0176483
-0.0619021
0.00987613
-0.103319
0.00334135
0.037273
-0.131752
-0.000563991
0.0281663
-0.150044
-0.00282493
0.0202093
-0.158541
-0.00452687
0.0120964
-0.158208
-0.00724573
0.00594648
-0.149731
-0.0110779
0.00163531
-0.132733
-0.0159009
-0.00206627
-0.106874
-0.0209304
-0.0058901
-0.0703379
-0.0253083
-0.012185
-0.0414593
-0.0179003
-0.0119281
0.0152582
-0.0144761
-0.0431831
0.0818361
-0.0181428
-0.0493617
0.119324
-0.00357626
-0.0348204
0.14158
0.00316929
-0.0263024
0.151124
0.00844946
-0.0188318
0.140799
0.0161718
-0.0066101
0.0816683
0.0368119
0.0216969
0.0343558
0.0174861
0.0296064
0.0193049
0.0114414
0.00353183
0.0198335
0.00075972
-0.00134365
0.0196509
-0.00103899
0.00115044
0.0167114
0.000220985
0.00263757
0.0109624
0.000914671
0.00474964
0.00640845
0.000783177
0.00369917
0.00556745
0.00040418
0.000385762
-0.00254272
0.00628255
0.00175613
-0.000673174
-0.00195774
0.00657408
0.000104044
-0.00745033
0.0124946
0.00251611
-0.00854702
0.017632
0.00212802
-0.00736852
0.0240077
-0.000882871
-0.00559802
0.057282
-0.017123
-0.0163483
0.111836
-0.011479
-0.0436497
0.134185
0.00286893
-0.025937
0.14355
0.00447378
-0.0146458
0.14594
0.00402687
-0.00722948
0.14324
0.00425808
-0.00239719
0.135481
0.00511892
0.00184281
0.12021
0.0068159
0.00767705
0.098354
0.0060928
0.0150577
0.0613831
0.00745368
0.0289566
0.0500497
0.0109734
0.0802367
0.0141711
-0.0447011
0.0759565
0.00883798
-0.00510953
0.0518137
0.0161888
0.00740198
-0.00150518
0.0534239
-0.000447998
-0.00591284
0.0040477
0.0111884
0.0173309
-0.0349927
0.0107678
0.0283242
-0.0286088
0.00170265
0.0318853
-0.0235979
0.00151994
0.0308182
-0.0314323
0.0146829
0.0342147
-0.0482163
0.0298416
0.0396532
-0.0556244
0.0428495
0.0421969
-0.0560107
0.0456498
0.0436806
-0.0471999
0.0247134
0.0466815
-0.026319
0.0125996
0.0210282
-0.00911142
0.0122636
0.00610148
-0.00587056
0.0121809
0.00564893
-0.00566919
0.0108905
0.0063033
-0.00512328
0.00709269
0.0053861
-0.0016872
0.00194843
0.00505613
0.00307085
0.00347392
-0.00466779
0.00269504
0.0027702
-0.0024454
0.00182234
0.00411303
-0.00331184
0.00261545
0.00469092
-0.0055687
0.002179
0.00430649
-0.00395082
0.00182858
0.0039698
-0.0036904
0.00212945
0.00198854
-0.00234472
0.00330986
0.00185574
-0.00311373
-0.0017975
0.0105589
-0.00567131
-0.012232
0.034322
-0.0245084
-0.0119277
0.0328521
-0.0339187
-0.0122635
0.0347033
-0.0352045
-0.0143259
0.0372119
-0.0360253
-0.013241
0.0365535
-0.0385447
-0.0109667
0.0369145
-0.0401108
-0.00694605
0.0374235
-0.042376
0.00178372
0.0430355
-0.0526974
0.00623438
0.0486287
-0.0540018
0.00474424
0.0516374
-0.051054
0.00311165
0.0526082
-0.0518518
0.00883688
0.0484224
-0.0549849
0.0189834
0.0457714
-0.0566805
0.0164701
0.0479967
-0.0461042
0.00551108
0.0187137
-0.0079742
0.00371299
0.00646806
-0.00474736
0.00557034
0.00258135
-0.0044936
0.00734219
0.00394598
-0.00578777
0.0045455
-0.00510339
-0.00810653
0.00950515
-0.00538269
-0.00563079
0.00764617
-0.0062518
-0.00119109
-0.00188005
0.00737396
-0.00212581
-0.00591147
0.0121993
0.00699511
-0.00602243
-0.00542717
0.0162696
0.00178753
-0.000602263
0.0749054
0.0149233
-0.0476432
0.0176668
0.0714423
-0.0448512
0.0262284
0.0712101
-0.0322738
0.0227459
0.0736726
-0.018522
0.0153156
0.0697611
-0.0116502
0.0105969
0.0634971
-0.0111187
0.0102886
0.0533093
-0.0109412
0.00728381
0.0413745
-0.00192159
0.00246331
0.0406785
8.80106e-05
-0.00478606
0.0441435
-0.00129685
-0.0142448
0.0477685
-0.00203732
-0.0173307
0.045105
-0.00823995
-0.0154504
0.0467285
-0.0166677
-0.00985513
0.0527654
-0.00500732
-0.020018
-0.00602783
0.0106626
-0.00410349
-0.00754077
0.0090136
-0.00517213
-0.00244224
-0.00455916
-0.00115487
-0.00168798
-0.000904467
-0.00266979
0.00860492
-0.00373011
-0.00305447
0.00859334
-0.00398984
-0.00173493
0.00889711
-0.0056173
-0.00262904
0.00694699
-0.00200903
-0.00263584
0.00474318
-0.00201251
-0.00217677
0.00648503
-0.00353294
0.010156
-0.00737276
0.0147555
-0.00774864
0.00303978
0.0190922
-0.00786287
0.00340253
0.0238859
-0.00829303
0.00336331
0.0341099
-0.0124156
0.00201303
0.0462738
-0.0189378
0.00648792
0.0342502
-7.20304e-05
0.0118109
0.0248777
-0.000803897
0.0099967
0.0208855
-0.00187683
0.00573291
0.0172644
-0.0010014
0.00449895
0.0130316
0.000355191
0.00376823
0.00771226
0.00184439
0.00337883
0.00360194
0.00402221
0.00286532
0.00615295
-0.00548776
0.00277024
0.00393629
-0.00389221
0.00558341
0.00167874
-0.00456339
0.00753077
0.00237831
-0.00441031
0.00873386
0.00288466
-0.00416847
0.00853197
0.00337939
-0.00324846
0.00814505
0.00301292
-0.00268124
0.0150931
0.000943768
-0.00796926
0.0391779
-0.00675233
-0.0175517
0.0691386
0.0131084
-0.0436863
0.0766517
0.0246175
-0.0328864
0.0747401
0.0291502
-0.0280653
0.0667088
0.0308356
-0.0236604
0.053359
0.0304574
-0.0179761
0.0261394
0.0285455
-0.00218785
-0.0148279
0.0254984
0.0146122
-0.0397001
0.0320679
-0.00805296
-0.0496886
0.0371136
-0.0279872
-0.0554515
0.0393257
-0.03443
-0.0569156
0.0387631
-0.0381517
-0.0526986
0.0361529
-0.0411915
-0.0420372
0.0325374
-0.0439497
-0.0207835
0.0266395
-0.0485085
-0.0071553
0.00281723
-0.0166644
-0.00345861
0.00280218
-0.00657643
-0.00402044
0.00360615
-0.00309964
-0.00372934
0.00473322
-0.00509506
-0.00220556
0.00445355
-0.00605656
-0.000518563
0.00437592
-0.00614306
0.000626511
0.00191102
-0.0031197
0.000647075
0.00275352
-0.00282179
-0.000623213
0.00541053
-0.00421071
0.00562545
-0.00633535
0.00958018
0.00212149
-0.00617549
0.012236
0.00385807
-0.00662172
0.0145394
0.00373739
-0.00614723
0.0162438
0.0039831
-0.00579082
0.0172964
0.00420601
-0.00535883
0.0170233
0.00454405
-0.0043651
0.0119726
0.00626981
-0.00129618
0.0055519
-0.000123228
0.00651366
0.0054029
-0.000773225
0.000908731
0.0064631
-0.000854117
-0.000220739
0.00749205
-0.000932541
-0.00011194
0.00832406
-0.000655262
-0.000192494
0.00883016
-2.78558e-05
-0.000493703
0.00892509
0.000615978
-0.000726332
0.0087418
0.0010638
-0.000895853
0.0084171
0.00126339
-0.000954075
0.00806918
0.00128613
-0.000953641
0.00772401
0.00122899
-0.00089928
0.00739317
0.00115297
-0.000837655
0.00704777
0.00109099
-0.000761054
0.00669692
0.00104783
-0.000712585
0.00616548
0.000964358
-0.000448116
0.00543603
0.000737914
-2.26827e-05
0.00580449
0.00061186
-0.000993114
0.0123846
-0.000822084
-0.00578619
0.0175679
-0.00320825
-0.00204386
0.0184295
-0.000915214
-2.8836e-05
0.0178001
-0.000211981
0.000758936
0.0156659
0.000371056
0.00168033
0.00961879
0.00212917
0.0038489
0.00392488
0.00390841
0.0017574
0.00323978
0.000284517
0.000387943
0.00301777
-0.000331013
0.000539375
0.00236288
5.1548e-05
0.000589785
0.00100145
0.000422951
0.000927321
0.000365601
0.000430029
0.00020036
0.000145804
0.000216689
9.53141e-05
0.000127687
-7.88936e-05
7.50074e-05
6.3856e-05
-4.42667e-05
0.00012653
2.51584e-05
-7.73292e-05
0.000214934
2.95102e-05
-0.00011882
0.000331128
3.60555e-05
-0.000153431
0.000551553
4.64957e-05
-0.000268187
0.000508251
-1.10047e-05
5.32751e-05
0.000734767
-0.000348917
0.000121638
0.00120547
-0.000726971
0.000255077
0.00186495
-0.000933468
0.000272756
0.00252319
-0.00104803
0.000388529
0.00296806
-0.000962428
0.000516321
0.00307747
-0.000758686
0.000648015
0.00300433
-0.000633183
0.00070506
0.00259736
-0.000292388
0.000698113
0.00166777
0.00022797
0.000700365
0.000148876
0.000791901
0.000725763
-0.00144073
0.00138745
0.000200966
-0.0022281
0.000624436
0.000162181
-0.00215409
1.3862e-05
-8.8899e-05
-0.00133628
-0.000795537
-2.35228e-05
-0.000810851
-0.000547364
2.07601e-05
-0.000443889
-0.000404071
3.62125e-05
-0.000248477
-0.000262042
6.59882e-05
-0.000302829
-0.000147145
0.000200787
-0.000468771
-0.000129471
0.000293739
0.000366646
-0.000838482
0.000248363
-0.000614381
0.000729127
3.53165e-05
-0.000403483
0.000613422
-0.000273134
-0.000239805
0.000545138
-0.000547217
-0.000253932
0.000525027
-0.000715221
-0.000344654
0.000509667
-0.000858077
-0.000341807
0.000481773
-0.000876194
-0.000458545
0.000473829
-0.000921069
-0.000410654
0.00045276
-0.000872836
-0.000505467
0.000454516
-0.000876711
-0.000440291
0.000441467
-0.000805659
-0.000520075
0.000446388
-0.000795555
-0.000443009
0.000430245
-0.000718087
-0.000503015
0.000423016
-0.000698906
-0.000408618
0.000386831
-0.000613807
-0.000458231
0.000370783
-0.000529819
-0.000420245
0.000333743
-0.000546887
-0.00048946
0.000504156
-0.00130589
-0.000300467
0.00105422
-0.00147477
-0.000586094
0.000748468
-0.00266341
-0.000354591
0.00153052
-0.00481587
-0.00410437
0.00622134
-0.0107217
-0.0174755
0.0232563
-0.0157182
-0.0220415
0.0268675
-0.0174226
-0.0350154
0.0364047
-0.0152005
-0.0461761
0.0436112
-0.0504811
0.0459209
0.0156294
-0.0811941
0.0217639
0.0247572
-0.0820533
0.0261874
0.0217436
-0.0748979
0.00545809
0.0367712
0.0125744
-0.0233174
0.0102863
0.004894
-0.0249305
0.0123434
0.00261437
0.00240378
0.00324784
-0.00488981
0.00280521
0.00165782
-0.0036919
0.00161371
0.00192991
0.000515917
0.00107683
0.000264042
0.000736711
-4.26397e-05
0.000380824
0.000347742
8.72665e-05
-0.000175014
3.24865e-05
-0.00115512
0.000816136
0.000162362
-0.00170077
0.000500767
0.0021849
-0.00402944
0.00178725
0.000962497
0.0013509
-0.00436425
0.00206715
0.00215157
0.000814035
0.000540397
0.00114698
0.000555841
0.000964877
-0.00080324
0.0005729
0.00134677
-0.00145196
0.000563271
0.00108076
-0.000777654
0.000596842
0.00144609
-0.00146971
0.000580483
0.00112065
-0.000735084
0.000616384
0.00144377
-0.00143754
0.000605054
0.00105665
-0.000684633
0.000657168
0.00125597
-0.00132741
0.000665539
0.000809484
-0.000633368
0.000733995
0.000791885
-0.00109455
0.000763394
0.000438666
-0.000744898
0.000840059
0.00034809
-0.00101734
0.00086398
9.24186e-05
-0.0010717
0.000919679
-0.000244224
-0.00125006
0.000967578
-0.00201243
0.000924377
-0.00434874
0.000590018
0.00173554
-0.00517009
-0.000178625
0.000987336
-0.0051832
-0.000231915
0.000232208
-0.0059102
-0.000268272
0.000984518
-0.0136413
0.000893167
0.00681308
-0.0203545
0.00586468
0.000796895
-0.0245097
0.00233967
0.00175398
-0.0474867
0.00661108
0.0162706
-0.0492258
0.00434572
-0.00281097
-0.027411
-0.00405496
-0.0178538
-0.0243767
-0.0014025
-0.00169173
-0.0184998
-0.00494774
-0.00097974
-0.0085228
-0.00124606
-0.00875555
-0.00794162
0.000381778
-0.000973753
-0.00904188
0.000209698
0.000877464
-0.00943666
8.57497e-05
0.000295555
-0.00900562
-0.000551131
0.000106577
-0.0087243
-0.000482712
0.000188707
-0.00862812
-0.000332792
0.000223824
-0.00882909
-0.00012321
0.000310934
-0.00938974
7.35626e-05
0.000472639
-0.00969567
-0.00035847
0.000649098
-0.00958199
-0.000905194
0.000775719
-0.00911144
-0.0013724
0.000885981
-0.00841295
-0.00168045
0.000966194
-0.00778203
-0.00163862
0.000991868
-0.0070256
-0.00153412
0.000762329
-0.00605248
-0.00130573
0.000317881
-0.00617423
-0.00119839
0.00130682
-0.0134558
-0.000690375
0.00794092
-0.0184503
0.00809722
-0.00317853
-0.0208326
0.0053932
-0.00309804
-0.0418906
0.0127132
0.00817272
-0.0543428
0.024979
-0.0129748
-0.035728
0.00926654
-0.0284352
-0.0331471
-0.00315024
-0.0513507
-0.0254719
0.0429932
-0.0592105
-0.0391012
0.0462048
-0.0571673
-0.0501905
0.0473243
-0.0453202
-0.0578773
0.0451934
-0.0278618
-0.0613261
0.0430618
-0.0624541
0.0436773
0.0194076
-0.104266
0.0249221
0.0383528
-0.103331
0.0222008
0.0521055
-0.0968992
0.0243811
0.0547277
-0.0837963
0.0301035
0.0460931
-0.0653724
0.0340789
0.0261513
-0.043024
0.0367452
-0.0144713
0.0367954
-0.0291156
-0.0292166
0.043101
-0.0401873
-0.037396
0.047595
-0.0455359
-0.0459382
0.0503777
-0.043905
-0.0551756
0.0525916
-0.0364996
-0.0630123
0.054655
-0.0243974
-0.0696843
0.056636
-0.00654445
-0.0745802
0.0558057
0.0112156
-0.0718445
0.0531907
0.0101225
-0.0547154
0.0549363
0.00463053
-0.0577559
0.0623829
0.00971358
-0.0687069
0.062758
0.0182428
-0.0708401
0.0614403
0.0277216
-0.0678089
0.0574729
0.0346884
-0.0613707
0.0535764
0.0347
-0.0514015
0.0506337
0.0147743
-0.0343698
0.0536784
0.00614697
-0.0106368
0.0190451
0.00326925
-0.00119709
0.00399751
0.00275779
-0.00300631
0.00346293
0.00156297
-0.00416873
0.00529372
9.17064e-05
-0.00386634
0.00525947
-0.00100846
-0.00466372
0.00568469
0.0005351
-0.00405921
0.00245255
0.00140392
-0.00460423
0.00368809
-0.00118915
-0.00520861
0.00773071
0.00837798
-0.00965516
0.0139125
-0.0096301
0.00399619
0.0170082
-0.00993781
0.00673142
0.0191618
-0.0081953
0.0059387
0.0224901
-0.00883209
0.00539909
0.0507174
-0.0306679
0.00224571
0.1075
-0.000835695
-0.0565092
0.133218
0.0162414
-0.0426502
0.145919
0.0236036
-0.0370708
0.152098
0.0263006
-0.0332236
0.15141
0.028844
-0.02891
0.136412
0.0338315
-0.0194963
0.079164
0.0490223
0.00769849
0.0363918
0.019097
0.0234985
0.0293003
0.00630713
0.000693744
0.0187993
0.0103101
0.000119065
0.00784416
0.0103053
0.000620284
0.00690498
0.00164682
-0.000720023
0.00687423
0.000634731
-0.000617629
0.00571877
0.0016025
-0.000460282
0.00259185
0.00248369
0.000632293
0.00106831
0.00126335
0.000254812
0.000431718
0.000633526
0.000255902
-0.000758323
0.000930592
2.95931e-05
-0.00059244
0.000815631
-0.000123202
-0.000649449
0.000799117
-0.00026824
-0.000614764
0.000756806
-0.000326071
-0.000657216
0.000712048
-0.000399874
-0.000580287
0.000651195
-0.000382762
-0.00064148
0.000621528
-0.00040043
-0.000564145
0.000579036
-0.000342123
-0.000629134
0.000568101
-0.000335072
-0.000555056
0.000545301
-0.000273362
-0.000612488
0.000548134
-0.000268136
-0.000539418
0.000531522
-0.000234937
-0.000562371
0.000526627
-0.000242623
-0.000490354
0.000495415
-0.000190323
-0.000520028
0.000465355
-6.03023e-05
-0.000478574
0.000346049
-1.16527e-06
-0.000436139
0.000374673
-0.000392676
-0.000694066
0.00108028
-0.000643669
0.000871565
-0.000627165
-0.00133057
0.00136383
-0.000689683
-0.00252163
0.0055242
-0.00436894
-0.00912809
0.0249028
-0.0184233
-0.016112
0.0302992
-0.0234912
-0.0205382
0.0407053
-0.0365995
-0.0164581
0.0447722
-0.0491959
0.0493089
-0.0551701
0.0191872
0.0712459
-0.027264
0.0260267
0.0636143
-0.0259484
-0.0184421
0.0497932
-0.00540723
0.0269721
-0.00477494
0.0338769
-0.00208489
-0.00487716
0.000160323
0.0451103
-0.0114345
0.0649074
-0.0150208
-0.0120382
0.0511366
-0.00106912
-0.0283179
0.0546337
-0.0292727
0.0698288
0.0105149
0.0639046
-0.0135648
0.0162253
0.0360687
0.0273276
0.00924663
0.00852356
0.0677783
-0.00582223
-0.00590644
-0.0123936
0.0839455
-0.0179131
0.00153975
-0.0024686
0.0129232
-0.0257328
-0.00339199
0.0100457
-0.0102419
0.00119027
-0.030716
-0.0089626
0.0227894
0.0065765
0.00430379
-0.00693637
0.0062274
0.0145059
0.022119
-0.0137686
0.00863434
0.00348583
-0.0059339
1.63539e-05
0.0161478
0.00385475
0.00311593
0.0115108
0.00135401
0.003276
0.0106473
-2.76735e-05
0.000880436
-0.00928168
-0.000378762
0.0202942
-0.0192644
0.00100362
0.00419659
0.00354276
0.00543696
-0.0047894
0.00725713
-0.000442044
0.0046609
0.00256443
-0.00468136
0.00895929
0.00175418
0.0107701
0.00361179
-0.0118472
-0.000805808
-0.00565058
-0.00243998
-0.00295549
0.030758
-0.0101878
-0.0025054
0.000928022
0.00970944
0.00426193
0.00267794
-0.0337863
0.00348812
-0.00230472
0.000568888
-0.00111263
0.00308464
-0.00443646
0.00292756
-0.00451074
0.00315056
-0.0115099
-0.0133349
0.00632819
0.0108325
0.00341437
-0.00818672
-0.0108882
0.00708411
0.0117049
-0.00293427
0.00224716
-0.0125354
0.0190649
-0.00256067
-0.00282122
-0.00278218
0.00570957
0.000645464
-0.002609
-0.00208503
0.00182231
-0.000710736
0.000410404
0.00298378
-0.00247086
-0.00211366
0.00183302
0.000530796
0.00254155
0.001898
-0.0025154
-0.00204732
0.0004378
-0.00255115
-0.00206842
0.00215931
0.00255029
0.000672287
-0.00262907
-0.002036
0.00199493
0.00243278
0.000665723
-0.00229963
-0.0020406
0.00182424
0.00251976
0.00104471
-0.00256033
-0.00191803
0.00162616
0.0024705
0.000976323
-0.00232402
-0.00198607
0.00176415
0.00261171
0.00142259
-0.00287649
0.00265811
0.00179173
-0.00202214
0.00133607
-0.0026949
0.00202665
0.00307792
-0.00232573
0.00162112
-0.00268116
-0.00354434
0.00347375
0.00246396
0.00121976
-0.00365161
0.00324538
-0.00319072
0.00399543
0.00103934
-0.00451136
-0.00346699
0.00379548
0.00436024
0.000436432
-0.00438032
0.00513773
0.00364182
-0.00379927
5.20484e-05
0.00416619
-0.00483539
0.00556376
-0.00451335
6.94271e-05
-0.00189987
0.00242724
0.00179013
-0.00233617
0.0017992
-0.00110283
0.00122491
-0.00185259
0.00226246
0.00213433
0.000341134
-0.00293966
0.00208052
-0.000880146
0.000645475
0.000415646
0.00213167
-0.00164603
0.00135186
0.000241863
0.00174223
-0.00109083
0.00119892
0.000280243
0.00134605
-0.000654864
0.000769863
0.000280095
0.000643962
-3.79574e-05
0.000325962
0.000413035
-0.000355686
0.000509029
-8.53232e-05
0.000574876
-0.00104776
0.000560037
-0.000484474
0.000615447
-0.00125381
0.000753131
-0.00107785
0.000529716
-0.00125064
0.000966024
-0.00150439
0.000534112
-0.00113421
0.00100595
-0.00154907
0.000425575
-0.000926159
0.000928391
-0.00136642
0.000228819
-0.000787327
0.000380569
-0.000488821
-3.15417e-05
-0.000432805
0.000572744
0.000109884
-0.00103807
-0.000159681
0.000270691
-0.000575578
3.10193e-05
-0.000591857
0.000671464
-0.000560387
0.000319611
-0.00127123
0.00155586
0.001362
8.20456e-05
-0.00233847
-0.00272707
0.00263913
-0.00215543
0.000949957
-0.00407126
0.000130218
0.00223443
0.000454753
-0.00264111
0.00105506
-0.00229887
-0.000798141
-0.0049886
0.00391214
-0.00292014
0.00181488
-0.00496671
0.00369477
-0.00733556
-0.00111046
-0.00386729
0.00927686
-0.0264904
-0.0100304
-0.0184501
-0.00674354
0.0535566
-0.0430122
-0.0202804
0.025043
0.0109631
-0.0495672
-0.0292169
0.0461479
-0.0111968
-0.049499
-0.0310085
0.0512096
-0.0210986
-0.0464955
-0.0320377
0.0534932
-0.0252921
-0.0415228
-0.0299605
0.05258
-0.0284096
-0.0121153
-0.0230992
0.0472403
-0.0164636
-0.0379361
0.0164649
-0.00726244
-0.00961312
-0.01184
0.0136315
0.0259988
-0.0101626
-0.0131333
0.0217157
0.0165978
-0.0140986
-0.0107178
0.0123089
0.0345188
-0.0112766
-0.0139623
0.00530543
0.0276934
-0.00810669
-0.0126825
-0.00656513
0.0394067
-0.0104828
-0.0171534
-0.0125309
0.0402118
-0.014476
-0.0198973
-0.00759227
0.0292716
-0.0138208
-0.0205253
-0.00888288
0.0333223
-0.0132285
-0.0189569
-0.0106508
-0.00503671
-0.00739772
-0.00233276
-0.00926827
0.00588767
-0.00105884
-0.00991176
0.00641657
-0.00247417
-0.00867848
0.00449512
-0.00293062
-0.00626342
0.00288026
-0.00300765
0.00198822
-0.00269926
-0.00911532
0.00586263
0.0101192
-0.00497466
-0.00430562
0.00657385
-0.00533099
0.00614525
-0.00652756
0.00682867
-0.00664753
0.0058539
0.00728242
-0.00589326
0.00533682
0.00725284
-0.0047646
0.00468959
0.0122042
-0.0126825
0.00753643
0.0224953
-0.0339525
0.0319578
-0.0401129
0.0399311
-0.0407768
0.0460958
-0.0379165
0.047172
-0.031047
0.0454693
-0.0192406
0.0315522
0.00336024
0.0164389
0.0138263
0.0156087
0.00255446
0.0120808
0.00265787
0.00501531
0.00592919
0.00110679
0.00440212
0.000800256
-0.000199441
0.0042327
0.00027229
-0.00011651
0.00339528
0.000874465
-5.02755e-05
0.00146598
0.00060125
0.00131712
0.00055177
0.000241734
0.000667104
0.000442778
0.000105925
0.000304177
3.43112e-05
0.000102613
0.000222562
-5.25176e-05
0.000133422
0.000341769
-0.00013221
1.23613e-05
0.000568427
-0.000189331
-3.82253e-05
0.000791035
-0.000186419
-3.73615e-05
0.00106229
-3.90453e-05
-0.000233465
0.000888959
-5.61567e-05
0.000228464
0.00131036
-4.15867e-05
0.0021815
5.60623e-05
0.0030788
0.000107419
0.00377038
0.00027319
0.00406359
0.000458683
0.0039895
0.000632864
0.00377527
0.000722008
0.00303068
0.000705396
0.00174029
0.000634274
2.31247e-05
0.000625101
-0.00181463
0.00019054
-0.00290073
0.000205189
-0.0027522
-9.40733e-05
-5.54797e-05
-0.00172172
-1.72144e-05
-0.00101453
-0.00105039
3.9561e-05
-0.000712064
-0.000579429
5.57056e-05
-0.000527563
-0.000327586
8.89058e-05
-0.000341391
-0.000403807
0.000263792
-0.000188282
-0.000145858
0.000373899
-0.00064607
0.000458479
4.12826e-05
-0.000240818
0.000301071
0.000555307
0.000454801
-0.00211983
0.000611307
0.000811662
0.00113075
-0.00273721
0.000949374
0.0011102
0.00115859
-0.00247398
0.00123584
0.00120848
0.00206531
-0.00383064
0.00134355
0.00157844
0.00195634
-0.00286078
0.00141966
0.00154824
0.00430073
-0.00534858
0.00290062
0.00505084
0.00412305
0.0029724
-0.00206184
0.00397394
0.0017895
-0.000996352
0.00480454
0.00163066
-0.0011113
0.00485619
0.00235459
-0.00120903
0.00460454
0.00201588
-0.000996025
0.00410843
0.00103
-0.000209475
0.00330072
0.00024811
0.000472705
0.00243147
-0.000379081
0.000762294
0.001631
-0.00160724
0.00132833
0.000932058
-0.00276532
0.00195821
0.000115676
-0.00289786
0.00216346
-0.000854232
-0.00245575
0.00205733
-0.00103709
-0.000687417
0.000380017
-0.000646259
0.000655689
-0.000475115
0.000655437
-0.000360957
0.00406344
-0.00245628
-0.00326749
-0.00123625
0.00419124
0.00446534
-0.00145613
0.00259067
0.006223
-0.000717237
0.00157524
0.0197243
-0.00521797
-0.0120308
0.00377439
0.0156315
-0.00713968
0.00613269
0.0114427
-0.00662736
0.00576212
-0.00973075
-0.00127521
0.0254454
-0.00839724
-0.016832
-0.0100738
0.0161121
-0.0178751
-0.0395581
0.0591153
-0.0291071
0.0264221
0.0429238
-0.050065
0.0585991
0.00758953
-0.0575942
0.066606
-0.00878858
-0.0590231
0.0701787
-0.0161868
-0.056548
0.0703758
-0.0212066
0.0643685
-0.0320114
0.0694127
0.0835551
-0.0274465
0.0687386
0.0840832
-0.0140603
0.0639246
0.0812642
-0.00728304
0.050715
0.0775338
0.00128166
0.016806
0.0709686
0.0205405
-0.0386551
0.0312665
0.0496045
-0.036863
-0.0467781
-0.0223307
0.0484058
0.0139015
-0.0193132
-0.0116504
-0.0199222
-0.0186699
-0.015513
0.00741271
-0.0244037
-0.00735798
0.00559894
-0.0224883
0.00635786
-0.0272517
-0.00834005
0.00585932
-0.011955
-0.0151756
-0.00709535
0.00165655
0.0039868
-0.0116169
-0.00421963
-0.000128435
-0.0099439
0.00115916
-0.00981433
-0.00394315
0.00233756
-0.00369706
-0.00686934
-0.00417917
0.00245711
0.00320331
-0.0047378
-0.00315057
0.000984176
0.00211387
-0.0037261
0.0015445
-0.00145908
0.00164622
-0.0033835
-0.00347975
0.00294474
-0.00515566
-0.00318052
0.00205194
-0.00727779
-0.00311663
0.0024704
-0.00908139
-0.00227322
0.00246663
-0.0100733
-0.00181227
0.00242212
-0.0115901
-0.00107186
0.0028337
-0.0118021
-0.000544038
0.00178315
-0.0111662
0.000926024
0.000450942
-0.0102742
0.00184098
-0.000381276
-0.00922311
0.00297546
-0.00239962
-0.00896248
0.00275549
-0.00122967
0.0101853
0.00622675
-0.016139
-0.00122876
0.00945577
0.00325061
0.000230888
0.0111933
0.00266474
-0.00143041
0.012391
0.000803729
-0.00016347
0.0124874
-0.000308105
0.00113462
0.011471
-0.00115519
0.00162452
0.010607
-0.00195413
0.00174348
0.00966708
-0.00271525
0.0018401
0.00871218
-0.00323816
0.00191689
0.00711996
-0.00343967
0.00191211
0.00574009
-0.00339739
0.00159371
-0.00381149
0.00234214
-0.00672981
-0.00378946
0.00196631
-0.0077908
-0.00473895
0.00239905
-0.0087534
-0.00431561
0.00183536
-0.00974087
-0.00408955
0.00183584
-0.0107611
-0.00351256
0.00181462
-0.0114255
-0.00288827
0.00159556
-0.0120121
-0.00161978
0.00104818
-0.0124533
-0.000168255
0.000298108
-0.0117506
0.00139011
-0.00129259
-0.00970802
0.00143698
-0.000818479
-0.00931353
0.00217995
0.00067234
0.0118413
0.00312089
-0.018814
0.000747127
0.00904046
0.0046173
0.000359558
0.0129354
-0.00166027
-0.000801638
0.01162
0.00357558
-0.000874097
0.0158468
-0.00353525
-0.000863894
0.0122952
0.00159627
0.000331408
0.0151145
-0.00562682
-8.48951e-05
0.0110393
-0.000647153
0.00120564
0.0128578
-0.00673658
0.000824364
0.00852972
-0.00196174
0.00197015
0.00842322
-0.00644964
0.00181314
0.00527285
-0.00217921
0.00153621
-0.00534705
0.000596049
0.0113794
-0.00734581
-0.0139216
0.00234473
0.0117988
-0.00598793
0.00137259
-0.00503436
0.00125356
0.0125904
-0.00509957
-0.0130116
0.000466977
-0.00564066
-0.00118703
0.013802
-0.00435197
-0.0133757
-0.00173786
0.0296052
-0.00472692
-0.0189286
0.000656251
-0.00768373
0.00444633
0.0249572
-0.00657434
-0.0301322
0.00397673
-0.0066832
0.00489855
0.0123168
-0.003101
-0.01856
0.00261527
-0.029895
-0.0163115
-0.0229219
-0.0185026
0.00833396
0.00481348
-0.03981
0.00264668
0.00931023
-0.0232258
0.00283538
0.00627012
-0.0057873
-0.0277939
0.00400714
-0.0315441
0.00286683
0.008034
-0.000179415
-0.0324166
-0.00634984
-0.000728287
-0.0134528
-0.00181648
0.00467955
-0.0185654
0.000231668
-0.0141226
0.000306977
0.00557842
-0.0156183
-0.0051259
0.00102404
-0.0143509
0.000911486
-0.0167872
-0.00633922
0.00141177
0.00772713
-0.0200546
-0.00632268
0.00184533
-0.01812
0.00349826
-0.0215088
-0.0064223
0.00241168
-0.0224233
-0.00361589
0.00048408
-0.0208855
-0.000459792
-0.0010536
-0.0192743
0.00230173
-0.000972937
-0.0187516
0.00375696
-0.00117551
-0.00504805
0.00436563
-0.0173197
-0.00076907
-0.00642062
-0.0165952
-0.000866062
-0.00744353
-0.0150245
-0.000111045
-0.00580616
-0.0115859
0.00172123
-0.00390582
-0.00925721
0.00103687
-0.00688371
0.000590085
-0.00930064
0.00433924
-0.000336901
-0.00668117
-0.00132989
-0.00067014
-0.00471384
-0.000324548
0.00560718
-2.39087e-05
0.0151044
0.00978398
-0.0309366
0.0108243
-0.00060964
-0.0045741
0.00703041
0.00103995
0.000273835
-0.00431627
0.00468708
-0.00791572
0.00902456
-0.00122444
-0.00171597
0.00637645
-0.00136914
-0.00796281
-0.00117846
0.0052982
-0.00631093
-0.00191324
0.00565024
0.00189665
-0.00682872
-0.00234607
0.00559066
-0.0069895
0.00181411
-0.00253359
0.00547836
-0.00701726
0.00170846
-0.0025096
0.00535775
-0.00695508
0.00155527
-0.00238195
0.00526845
-0.00689102
0.00147687
-0.00229572
0.0051495
-0.00670672
0.00145294
-0.0022544
0.00507732
-0.00656304
0.00142643
-0.00212574
0.00473546
-0.00619404
0.00131263
-0.00200607
0.00407682
-0.00493623
0.000724267
-0.00177262
0.00524871
-0.00773741
0.00223162
-0.0116446
0.00365901
-0.0260597
0.0136685
-0.0219949
-0.0248402
0.0115357
-0.0274823
0.00505987
-0.0780165
0.0411595
-0.0177899
-0.08773
0.0282677
-0.0890557
0.0230132
-0.117076
0.0201431
0.01319
-0.130532
0.0156591
0.0037987
-0.137731
0.0145851
-0.00310753
-0.140053
0.014622
-0.00890469
-0.137467
0.0160378
-0.0154612
-0.129111
0.0197033
-0.0244455
-0.11412
0.0237092
-0.0366833
-0.0457594
-0.040015
0.0253255
-0.066042
-0.00663887
0.00980124
-0.0283165
-0.0208223
-0.0176245
-0.00620256
-0.0161091
-0.00243631
-0.0131533
0.00859475
-0.00953724
-0.0043273
0.00492481
-0.0113601
0.000483255
0.00168415
-0.00648787
0.00140278
-0.00297347
0.00594016
0.00183036
-0.00647722
0.00981418
0.00196676
-0.00596453
0.0127605
0.00167338
-0.00475604
0.0201718
0.00358468
-0.011176
0.0347294
0.0152468
-0.0300897
0.0300396
0.0322406
-0.0278397
0.0250561
0.021347
-0.0165497
0.0227899
0.0155653
-0.0134478
0.0195737
0.0135082
-0.010428
0.0157678
0.0120916
-0.00840289
0.00952161
-0.00350707
-0.0147055
0.0142918
0.000207056
-0.0183044
-0.00254182
0.0181176
-0.0207472
0.0196798
-0.00385589
-0.0215336
0.0213659
-0.00514881
-0.0159385
0.0217989
-0.00618594
-0.0553324
0.0382076
0.056733
-0.0239022
-0.0218145
-0.0201502
-0.0451727
0.0464552
-0.0191587
-0.00723678
0.0256462
-0.0212562
-0.0155446
-0.00758192
0.0196439
-0.015856
-0.0100276
-0.00721906
0.0182926
-0.0167621
-0.00616014
0.0161775
-0.0152749
0.00585937
-0.00861806
0.00992844
-0.0094466
0.0125834
-0.00869676
-0.0113574
-0.00367028
-0.00282844
-0.00271667
-0.00215191
-0.00110534
-0.0014038
-0.00116362
-0.00199639
0.00211663
-0.00122871
0.00247181
-0.0025363
-0.00193634
0.00277849
-0.0017138
-0.00446243
0.000584396
0.00381659
0.00317782
0.00532776
-0.0155183
0.00294296
-0.00037646
-0.00779093
0.00509387
-0.00564228
-0.000777398
-0.00717476
0.000144606
0.0270985
-0.0088013
-0.0132466
-0.00593707
0.00671699
0.013954
0.00638592
0.0377524
0.00672806
-0.0378332
0.00905623
-0.00160584
0.0302236
-0.0186681
-0.00242222
0.000333561
-0.00675403
0.00799549
-0.00091873
0.00283675
-0.00321991
0.0159844
-0.00644829
0.00413629
0.0102175
0.00969376
-0.0106724
-0.0105877
-0.00679218
-0.00750713
0.008174
-0.0100966
-0.00216981
-0.00661051
-0.0314083
-0.0189614
0.0413489
0.00642497
-0.000163427
-0.00250369
-0.0686549
0.0333192
-0.00784711
-0.0214163
0.00652568
-0.0201272
0.00394469
0.00317354
-0.000597479
0.00322165
-0.00145085
-0.0026033
-0.000970969
-0.000352771
-0.00219899
0.00146694
0.00252783
0.00165841
-0.0290323
0.015165
-0.010956
-0.0109479
-0.0102523
0.0793474
0.047003
0.0338177
-0.0158731
-0.0150194
-0.0141624
0.0226774
0.0270615
-0.015605
-0.010526
-0.00786573