/*--------------------------------*- C++ -*----------------------------------*\
| =========                 |                                                 |
| \\      /  F ield         | OpenFOAM: The Open Source CFD Toolbox           |
|  \\    /   O peration     | Version:  v2012                                 |
|   \\  /    A nd           | Website:  www.openfoam.com                      |
|    \\/     M anipulation  |                                                 |
\*---------------------------------------------------------------------------*/
FoamFile
{
    version     2.0;
    format      ascii;
    class       volScalarField;
    location    "660";
    object      k;
}
// * * * * * * * * * * * * * * * * * * * * * * * * * * * * * * * * * * * * * //

dimensions      [0 2 -2 0 0 0 0];


internalField   nonuniform List<scalar> 
18258
(
0.0335284
0.0158009
0.0123665
0.0102173
0.0110027
0.0140182
0.0168146
0.0211786
0.025594
0.0315224
0.0385804
0.0475039
0.0534983
0.0606409
0.063617
0.0619195
0.0520723
0.0473344
0.0567141
0.0811278
0.070957
0.0513758
0.0621276
0.0615179
0.0727145
0.0770088
0.0606618
0.055308
0.049853
0.0441626
0.0376722
0.0237329
0.0240492
0.0287188
0.0320211
0.0357756
0.0386788
0.0410842
0.042704
0.0435178
0.0434277
0.0421286
0.0394273
0.0353095
0.0297569
0.0236348
0.0226469
0.0243066
0.0300955
0.0354459
0.0407609
0.0462799
0.054649
0.0446958
0.0290379
0.0392227
0.0477099
0.0546024
0.0590258
0.0614681
0.0622229
0.0613009
0.0590023
0.0557346
0.051766
0.0474208
0.0433982
0.0394087
0.0341622
0.0308996
0.0267867
0.0234416
0.021001
0.0192887
0.0181705
0.017168
0.0163034
0.0155712
0.0149556
0.014533
0.0144418
0.0144683
0.0145691
0.0146665
0.0150126
0.0126697
0.0109005
0.0104344
0.0101833
0.00953744
0.00808559
0.0106409
0.0117491
0.0121654
0.0124346
0.0136092
0.0147438
0.0143089
0.0135834
0.0124673
0.0126311
0.0170947
0.017836
0.0228739
0.0217237
0.0169235
0.0148116
0.0165964
0.0194148
0.022474
0.0192507
0.0192251
0.0179265
0.0170233
0.0148743
0.0149072
0.0143893
0.0140814
0.0149988
0.0177594
0.0171737
0.01729
0.0185074
0.0188257
0.0200476
0.0210567
0.020392
0.0202074
0.0163536
0.016253
0.0172905
0.0171641
0.0176436
0.0201408
0.0201974
0.0205391
0.0207543
0.023534
0.0235526
0.0235182
0.0236092
0.0244518
0.0234889
0.0230755
0.0231036
0.0231389
0.0209775
0.0207568
0.0203959
0.0204349
0.0182657
0.0175294
0.0182608
0.01924
0.0212134
0.0249597
0.0313943
0.0403164
0.0504123
0.0606543
0.0684264
0.0727846
0.0771543
0.0766162
0.0773222
0.0794272
0.0798068
0.0786771
0.0768337
0.0746805
0.0717412
0.0671201
0.0666604
0.0590115
0.0481202
0.0334151
0.0389237
0.0417718
0.0445333
0.0448414
0.0453242
0.0441056
0.0423272
0.0387257
0.033576
0.0246796
0.0261017
0.0305384
0.0351692
0.038934
0.0430789
0.0466408
0.0483806
0.0499937
0.0592095
0.0571339
0.0553032
0.0571461
0.0586626
0.0618158
0.0601631
0.0562629
0.0504953
0.0521675
0.0453642
0.0340647
0.0318452
0.0297318
0.0272097
0.0377465
0.0495718
0.0612888
0.0677012
0.0738779
0.0787459
0.0827829
0.0873228
0.0818629
0.0766922
0.0578939
0.0841229
0.0661414
0.0509294
0.0417528
0.0340446
0.0301251
0.0334115
0.033753
0.0320858
0.0274518
0.0218346
0.023337
0.0360708
0.0458783
0.0539546
0.0555808
0.0603081
0.0627518
0.0574016
0.0579962
0.0470209
0.0481882
0.0518035
0.0466341
0.0442578
0.0356753
0.027937
0.0337212
0.0501765
0.0688153
0.0848356
0.0998921
0.0664427
0.0506479
0.0416029
0.0348668
0.0334755
0.0380283
0.043942
0.0530678
0.0412225
0.0372303
0.0337726
0.03094
0.0254219
0.0272059
0.0283135
0.0267886
0.049954
0.0580203
0.0615375
0.0838083
0.0922565
0.108259
0.107247
0.09269
0.096117
0.068778
0.0687281
0.086329
0.0682917
0.0513324
0.0615618
0.0744455
0.08828
0.101469
0.112796
0.121879
0.123554
0.112044
0.0812206
0.0467539
0.0212736
0.0186319
0.0180814
0.0173735
0.0164867
0.0156869
0.0150678
0.0121226
0.00949492
0.00927427
0.00945638
0.00940271
0.00825957
0.00951066
0.0115716
0.0137622
0.0152691
0.0164771
0.0174962
0.018229
0.0188167
0.0192149
0.0195116
0.0197786
0.0200126
0.0201967
0.0203322
0.0204201
0.0204599
0.0204439
0.0203662
0.0202254
0.0200198
0.0197333
0.0192628
0.0177415
0.015892
0.0150623
0.0151206
0.014871
0.0145689
0.0119378
0.0123122
0.0143271
0.0149593
0.0177479
0.0197815
0.0214823
0.0229334
0.0244572
0.0252331
0.0260622
0.0263288
0.0263831
0.0262854
0.0261394
0.025921
0.0256277
0.024574
0.0212835
0.0248867
0.0272863
0.0289765
0.0303312
0.0312375
0.0313473
0.0286099
0.0360359
0.0385128
0.03942
0.0396782
0.038853
0.0368459
0.0344075
0.0323612
0.0308552
0.0297388
0.0276009
0.0253544
0.0230445
0.0206278
0.0174036
0.0186719
0.0205124
0.0207228
0.020432
0.021482
0.0227404
0.0210835
0.0189926
0.0161121
0.015113
0.0146203
0.0144267
0.0148315
0.0144929
0.0143954
0.0148965
0.017903
0.0189946
0.0206981
0.0239574
0.0228207
0.020874
0.0280497
0.0296667
0.0301198
0.0304691
0.0303736
0.0296173
0.0265276
0.0250708
0.0264593
0.0250041
0.0243704
0.024458
0.0240903
0.022222
0.0245246
0.0265262
0.0281158
0.0289624
0.0302065
0.0317602
0.033921
0.0357132
0.0373726
0.0383835
0.038377
0.0378593
0.0380511
0.0387195
0.0384449
0.0367444
0.0346624
0.0325631
0.0295972
0.0293825
0.0313614
0.0329279
0.0345918
0.0363682
0.0356668
0.0337793
0.0321505
0.0307264
0.0290114
0.0288811
0.0305612
0.032008
0.0337477
0.0358648
0.0360285
0.0338908
0.0320727
0.0305665
0.0288609
0.0288227
0.0305252
0.0320386
0.0337617
0.0356452
0.034771
0.0333031
0.0317809
0.0303124
0.0286463
0.0282053
0.0298111
0.0311946
0.0325088
0.0335727
0.031898
0.0313086
0.0302377
0.0288471
0.0270867
0.0258312
0.0263406
0.0277305
0.0278414
0.0283211
0.0294406
0.0292873
0.029004
0.028957
0.028675
0.0264286
0.0268362
0.0268869
0.02758
0.0308861
0.0304056
0.0330815
0.0354993
0.0331847
0.0316903
0.0281163
0.0336952
0.0337384
0.0347001
0.0335207
0.0237419
0.021885
0.0228821
0.0244175
0.0260615
0.0253706
0.0226206
0.0225621
0.0231746
0.0225886
0.0210244
0.0180344
0.0135412
0.0135506
0.0135426
0.0142786
0.0170874
0.0186746
0.0187772
0.0186147
0.0183059
0.0178281
0.0171045
0.0160252
0.0155917
0.0246641
0.0448416
0.0564647
0.0558354
0.042467
0.0356436
0.0263933
0.0183985
0.0111856
0.0107353
0.0114219
0.0137116
0.0114574
0.0109065
0.015011
0.0120505
0.0200298
0.0231178
0.03033
0.0413928
0.0400028
0.0304047
0.0204283
0.0184015
0.0192666
0.0197902
0.0201836
0.0205705
0.0209619
0.0213886
0.0219091
0.0215999
0.0189576
0.0167116
0.0168376
0.0174103
0.0199192
0.0213015
0.022094
0.0217559
0.0219985
0.0237144
0.0224707
0.0212524
0.0210495
0.0203454
0.0231925
0.0235346
0.0228978
0.0228976
0.0231712
0.0230568
0.0231951
0.024001
0.0198131
0.0219306
0.0224819
0.0227632
0.0235572
0.0190593
0.019252
0.0193204
0.0181727
0.0149301
0.0180121
0.0167711
0.0121703
0.0134845
0.0134421
0.014051
0.0143742
0.0171183
0.0162863
0.0155696
0.0163496
0.0223227
0.0231211
0.0232952
0.0206469
0.0194002
0.0218966
0.0224892
0.0220364
0.0211447
0.0213051
0.0203568
0.0184474
0.0177273
0.0178645
0.0192803
0.0200825
0.0201553
0.0237691
0.0232608
0.0216935
0.0226816
0.0232836
0.0228667
0.0227555
0.0226989
0.0223291
0.0219015
0.0223147
0.0225052
0.0225583
0.0221133
0.022369
0.0250083
0.0214336
0.0212457
0.0201693
0.0195138
0.0178853
0.0176298
0.0177277
0.0176878
0.0175936
0.0167569
0.018614
0.0178892
0.0200205
0.0216333
0.022784
0.0239559
0.0241057
0.023673
0.0236319
0.0232447
0.0232095
0.0226594
0.0218146
0.0212322
0.0204559
0.0192489
0.0192416
0.0191926
0.0190494
0.0204539
0.0203537
0.0219193
0.0230404
0.0227529
0.0217873
0.0216774
0.0205008
0.020477
0.021518
0.0224068
0.0226585
0.0235232
0.0260669
0.0237121
0.0252678
0.0259632
0.0266295
0.0260168
0.0249159
0.02567
0.0240089
0.0228975
0.0242191
0.0249432
0.0262069
0.0270013
0.0250241
0.0239961
0.0227973
0.0219333
0.0209446
0.0184216
0.0190369
0.0198282
0.021061
0.0228738
0.0256003
0.028338
0.0312675
0.031326
0.0290202
0.0273283
0.0321436
0.0316086
0.0365896
0.0372014
0.0330642
0.0302468
0.0273279
0.0269044
0.0259823
0.0254457
0.0241637
0.0254111
0.0258359
0.0248924
0.0273693
0.0289474
0.0332851
0.0388648
0.0355299
0.0326881
0.0377392
0.0366448
0.0426234
0.0363973
0.0347331
0.0285921
0.0331957
0.0355452
0.0433087
0.033893
0.029704
0.0294764
0.0307949
0.0382912
0.0368347
0.03944
0.0445991
0.04394
0.0390487
0.0358135
0.0415898
0.0316194
0.0370527
0.0390693
0.0324333
0.0321995
0.0390858
0.0397084
0.0398689
0.0337716
0.0330506
0.025027
0.0336015
0.0400889
0.0400055
0.0332145
0.0259879
0.0359111
0.0315403
0.0313476
0.0313427
0.0269392
0.0268688
0.0261608
0.0264158
0.0271315
0.0246789
0.0254891
0.025755
0.0259253
0.0260659
0.0262702
0.0266306
0.0272974
0.0280695
0.0229128
0.0243763
0.0229811
0.0216121
0.0202359
0.0240199
0.026497
0.0283032
0.029756
0.030893
0.0313865
0.030028
0.037946
0.039576
0.0412853
0.0414424
0.0401798
0.0374696
0.0339889
0.0304722
0.028232
0.0269265
0.0244314
0.022357
0.020341
0.0182387
0.0154942
0.0141954
0.0128622
0.0114964
0.0111154
0.0105477
0.00992023
0.009186
0.00870734
0.0111946
0.0191494
0.0280848
0.0333725
0.0390288
0.0457051
0.0519381
0.0569739
0.0607642
0.0635337
0.0653303
0.0658331
0.0633612
0.0532609
0.0483216
0.0434913
0.0385441
0.0334112
0.0323431
0.0415151
0.049757
0.0566842
0.0629226
0.0669781
0.0653427
0.0497814
0.0468799
0.0627198
0.0902126
0.0811158
0.104083
0.120301
0.0798793
0.0649985
0.0641062
0.0794432
0.081884
0.0753588
0.0665417
0.0568415
0.0460358
0.0511551
0.0559463
0.0604245
0.0649366
0.0771884
0.0795181
0.0782817
0.0756575
0.072345
0.0681175
0.0619516
0.0539062
0.0448634
0.0368795
0.0297331
0.0198416
0.0121093
0.0137265
0.0129496
0.0158783
0.0149252
0.00973983
0.00999216
0.0101446
0.0100244
0.00978373
0.00976764
0.0111597
0.0179429
0.0146409
0.0131866
0.0113373
0.0142248
0.0160702
0.0179716
0.0184144
0.0184834
0.0218923
0.0374824
0.0446617
0.049908
0.0544681
0.0571647
0.0558963
0.0526542
0.0469858
0.0405312
0.0378504
0.0339194
0.0303804
0.0285167
0.029285
0.0257749
0.0162565
0.0147013
0.0157277
0.0154418
0.0144587
0.0163904
0.0175975
0.0183603
0.0189745
0.0194311
0.0197792
0.0200249
0.0201854
0.0202667
0.0202869
0.0202603
0.0201921
0.0200809
0.0199239
0.01971
0.019409
0.0188954
0.0171996
0.0153745
0.0146722
0.0147573
0.0145283
0.0141681
0.0122945
0.0125166
0.0143777
0.014976
0.0145821
0.0151583
0.0156165
0.0168015
0.0189735
0.0211089
0.0229385
0.0216415
0.0210021
0.0209723
0.0205645
0.0174173
0.0206789
0.0235735
0.0240883
0.024359
0.0251643
0.0267529
0.0276998
0.026771
0.0262666
0.025736
0.0226116
0.0241883
0.0277712
0.0281873
0.0288737
0.0294749
0.0300504
0.0313208
0.0306843
0.0297704
0.029166
0.0262543
0.0253969
0.0317077
0.0205426
0.0141234
0.0100962
0.0107559
0.0109136
0.0105182
0.0111986
0.0116627
0.011846
0.01125
0.0123388
0.0132543
0.0125963
0.0153167
0.0145496
0.0134396
0.0129836
0.0139118
0.0147936
0.0152341
0.0162419
0.0262192
0.0269151
0.0225692
0.0289078
0.0315558
0.0289249
0.0317038
0.0293725
0.0279311
0.0306684
0.0341253
0.0354949
0.0331813
0.0317086
0.0311675
0.0207453
0.0200494
0.0193516
0.0174889
0.0176701
0.017162
0.016703
0.0162866
0.0187644
0.0201421
0.0212346
0.0209238
0.0205691
0.0201469
0.0216284
0.0268005
0.0369261
0.044126
0.0464061
0.0450902
0.0415241
0.0352222
0.0294973
0.028876
0.026868
0.0254698
0.025105
0.0192257
0.0150252
0.0173758
0.0173686
0.0184192
0.019077
0.0195904
0.0199973
0.0203335
0.02062
0.0208946
0.0211551
0.0213858
0.0215829
0.0217549
0.0218994
0.0220553
0.0222417
0.0224994
0.0227098
0.0211189
0.0185282
0.0172041
0.0170585
0.0177703
0.0186667
0.0197902
0.0190549
0.0153524
0.0154308
0.0218284
0.0222477
0.0208752
0.019461
0.0196686
0.0188309
0.0225865
0.0223788
0.0231171
0.0229004
0.0226126
0.0223259
0.0220402
0.0217489
0.0214817
0.0212497
0.0210421
0.0208516
0.0206647
0.0204687
0.0202002
0.0197988
0.0191351
0.0183346
0.0170597
0.0183423
0.019233
0.0208015
0.0228043
0.0239165
0.0230634
0.0217007
0.0209523
0.0210452
0.0213304
0.0216556
0.0220069
0.0224127
0.0228467
0.0232587
0.0232447
0.0219625
0.0225971
0.0173713
0.0182273
0.0185248
0.0184803
0.02015
0.0193179
0.0146381
0.0151231
0.0158247
0.0170992
0.0196649
0.0200103
0.0213357
0.0215553
0.0172221
0.0169065
0.0164845
0.0175026
0.0151436
0.0157737
0.0264308
0.0270535
0.0347839
0.0381356
0.0397376
0.0330111
0.0454455
0.0522617
0.0503681
0.0407774
0.023426
0.0345219
0.0420323
0.0486575
0.0455905
0.0354453
0.044719
0.0472119
0.0629709
0.0585904
0.0522429
0.0629793
0.0445564
0.0268102
0.0157772
0.0163532
0.0151748
0.0305737
0.0346606
0.0313544
0.032197
0.0398049
0.0408208
0.0360934
0.0344175
0.0361697
0.0357225
0.0396498
0.0369552
0.0336044
0.02322
0.018958
0.019789
0.0211892
0.0230147
0.0253493
0.0252445
0.0241041
0.0227482
0.0217795
0.0207376
0.0182504
0.0176057
0.0195567
0.0211801
0.0225542
0.0240594
0.0248782
0.025717
0.0258829
0.0257766
0.0254555
0.0250286
0.0244749
0.023792
0.0223865
0.0235881
0.0242596
0.0244703
0.0247509
0.0250654
0.0253431
0.025486
0.025374
0.0244313
0.0236264
0.0224654
0.0213524
0.0197531
0.0176456
0.0183252
0.0200763
0.0216681
0.0227765
0.0238214
0.023429
0.0239134
0.0245613
0.024578
0.0243907
0.0241614
0.0240056
0.0240945
0.0247304
0.0264634
0.0262796
0.0292371
0.0304075
0.0278012
0.0264499
0.0257409
0.0253014
0.0250458
0.0248317
0.0246269
0.0240773
0.0235332
0.0240386
0.0242982
0.0246027
0.024968
0.0254828
0.0261817
0.0272846
0.028712
0.0286051
0.0262427
0.0260189
0.024939
0.024146
0.0237735
0.0237278
0.0237832
0.0238958
0.0238453
0.0233371
0.0230172
0.0234242
0.0224187
0.0224873
0.0215209
0.0201695
0.018736
0.0172902
0.0166316
0.0351023
0.0351023
0.0455779
0.0422303
0.0369219
0.0469009
0.0598203
0.051863
0.0625388
0.0663033
0.0538834
0.0500844
0.0277498
0.0242877
0.017361
0.0188802
0.0202183
0.0214158
0.0212311
0.0221459
0.0220265
0.0229858
0.0224447
0.0216592
0.0211259
0.0201157
0.020173
0.0189081
0.0173697
0.0172357
0.0188765
0.0199014
0.0210776
0.0210595
0.0225131
0.0230198
0.0234059
0.0235431
0.0235223
0.0236012
0.0237678
0.0242159
0.0249399
0.0254312
0.0256229
0.0261465
0.0258869
0.0255699
0.0251193
0.0248106
0.02449
0.0242055
0.023904
0.0236189
0.0231822
0.0225255
0.0224042
0.02292
0.0232653
0.0235051
0.0236453
0.0236292
0.0234353
0.0231159
0.0227917
0.0224345
0.022482
0.0236973
0.0239155
0.0240191
0.0237823
0.0235993
0.0235778
0.0234647
0.0233807
0.023167
0.0228114
0.0223443
0.0212816
0.0213789
0.0222542
0.0226909
0.0230074
0.0232717
0.0232805
0.023192
0.0228238
0.0225473
0.0222214
0.0216781
0.0209583
0.018594
0.0190842
0.0197095
0.0205585
0.0214119
0.0221375
0.0225985
0.0227882
0.022783
0.0226059
0.0222495
0.0214998
0.0214799
0.0220225
0.0221951
0.0221481
0.0218447
0.0212218
0.0202924
0.0190829
0.0178626
0.016894
0.01642
0.0156438
0.0181409
0.0191689
0.0200983
0.0209395
0.0217303
0.0225702
0.0229062
0.0229855
0.0228421
0.0225891
0.0221841
0.0214191
0.0214249
0.0221232
0.0225061
0.0227124
0.0227995
0.022508
0.0218328
0.0203192
0.018925
0.0177615
0.0166892
0.0155686
0.015354
0.0158574
0.0154158
0.0158383
0.0169649
0.0184507
0.0198169
0.0208063
0.0214025
0.0216859
0.0217113
0.0213777
0.0211988
0.021332
0.0211402
0.0206526
0.019793
0.0185139
0.017043
0.0158198
0.0154479
0.016091
0.0167453
0.0161425
0.0138755
0.0149936
0.0160677
0.0171799
0.0188334
0.020864
0.021863
0.0223546
0.0225118
0.022403
0.0220471
0.0213998
0.021346
0.0219641
0.0223091
0.0223928
0.0222769
0.021808
0.0209614
0.0184783
0.0157879
0.014567
0.0138747
0.0129309
0.016291
0.016991
0.0161624
0.0156182
0.0164784
0.0175207
0.0186747
0.0195576
0.0201865
0.0206774
0.0209427
0.0209625
0.0206935
0.0205883
0.0203788
0.0200465
0.0197243
0.0193862
0.0186029
0.0177703
0.0167987
0.0178702
0.0184584
0.017699
0.0144157
0.014968
0.0157432
0.0161859
0.0187652
0.0212384
0.0219512
0.0221997
0.0223386
0.0222384
0.0218656
0.0212608
0.0211408
0.0217621
0.0222112
0.0224605
0.0226842
0.0227949
0.0228806
0.0209712
0.0178301
0.0171985
0.0155326
0.0147159
0.0182608
0.0189554
0.0184541
0.0178855
0.019555
0.020254
0.0205073
0.0205005
0.0204156
0.0203076
0.0203145
0.0204166
0.02012
0.0200075
0.0201195
0.0203449
0.0203066
0.0200823
0.0195092
0.0187449
0.0176579
0.0195196
0.0212287
0.020955
0.0169453
0.0174694
0.0182658
0.0177208
0.020268
0.0221171
0.0226435
0.0226821
0.0224719
0.0220727
0.021577
0.020959
0.0206895
0.0212359
0.021784
0.0218308
0.0219513
0.0219294
0.021379
0.0212233
0.0206605
0.0204011
0.0196503
0.0190896
0.0183434
0.0205014
0.023674
0.0258609
0.0274446
0.0293311
0.027968
0.0244855
0.0222451
0.0153182
0.0153264
0.0155551
0.0149067
0.0145222
0.0143421
0.0187148
0.0214227
0.0241047
0.0258545
0.0234221
0.0233977
0.0233219
0.0232079
0.0230998
0.0230119
0.0228177
0.0237167
0.0416861
0.283354
0.211423
0.236345
0.225107
0.315112
0.0802532
0.0393
0.0434478
0.0504063
0.0577877
0.0560864
0.0523789
0.04564
0.0411705
0.0407551
0.0402728
0.040057
0.0388305
0.0388345
0.0378834
0.0441455
0.0874938
0.120081
0.134093
0.142875
0.152669
0.148248
0.157737
0.150073
0.150809
0.152562
0.157332
0.150023
0.142623
0.138705
0.134431
0.117191
0.11758
0.0992521
0.103117
0.0860538
0.0904382
0.094346
0.0937
0.0924745
0.0922275
0.0924652
0.0932309
0.0967115
0.0921361
0.0983167
0.0917105
0.0734923
0.0709801
0.0732195
0.0674588
0.0590625
0.0667815
0.0817801
0.0971337
0.11313
0.0965211
0.120412
0.114065
0.114496
0.108899
0.102738
0.0990238
0.0983552
0.0989886
0.100102
0.102713
0.104583
0.106136
0.108936
0.117467
0.119633
0.118054
0.100741
0.0856795
0.0941048
0.0988846
0.102667
0.103017
0.0984402
0.0961378
0.0895843
0.0879744
0.0822485
0.0797339
0.0741262
0.070906
0.0660715
0.082431
0.0807768
0.0877454
0.0939775
0.0983519
0.101932
0.103583
0.104748
0.103554
0.101134
0.096344
0.0944671
0.0897915
0.10804
0.126364
0.12933
0.124862
0.111387
0.105844
0.337394
0.40927
0.410265
0.608178
0.64888
0.837926
0.334063
0.179928
0.192111
0.188797
0.180671
0.177453
0.177123
0.18869
0.197605
0.188911
0.198293
0.17689
0.170569
0.16633
0.193296
0.191463
0.17268
0.151295
0.119531
0.0975997
0.0969891
0.0807021
0.0817762
0.0714991
0.0724604
0.0737968
0.0885618
0.160118
0.203874
0.230563
0.256958
0.316735
0.28726
0.435117
0.350157
0.436341
0.302183
0.326337
0.312276
0.303657
0.301665
0.317558
0.339018
0.298383
0.370601
0.297355
0.644781
0.78016
0.496727
0.458483
0.406789
0.392918
0.383227
0.377797
0.369496
0.486003
0.451076
0.548459
0.508099
0.629087
0.556112
0.564706
0.530412
0.568515
0.587995
0.602118
0.482635
0.528237
0.410407
0.444665
0.371209
0.407076
0.291918
0.291012
0.329577
0.367812
0.392511
0.446524
0.705005
0.599816
0.809442
0.58135
0.703452
0.489073
0.535075
0.511451
0.493754
0.495191
0.522989
0.627348
0.607012
0.6917
0.514664
0.526974
0.516661
0.534011
0.523433
0.558391
0.563062
0.564216
0.56216
0.523389
0.533949
0.532152
0.531953
0.531978
0.53232
0.509562
0.512734
0.505207
0.510988
0.526918
0.514567
0.514494
0.512354
0.504781
0.502729
0.502247
0.504002
0.503773
0.508901
0.508771
0.509107
0.512154
0.526863
0.51442
1.81816
0.899858
0.427964
0.337839
0.219623
0.134154
0.0549808
0.0593246
0.0621484
0.0629651
0.0608054
0.0553157
0.0471003
0.0371514
0.0294005
0.028406
0.025337
0.0274531
0.0347724
0.0422535
0.0385441
0.0462847
0.0539642
0.0622797
0.0702898
0.0772834
0.0831983
0.086121
0.0830859
0.0703611
0.0526826
0.0352787
0.0250173
0.0226196
0.0209785
0.0189868
0.0168833
0.0152326
0.0142304
0.013062
0.012431
0.0123416
0.0125591
0.0127979
0.0132359
0.0147486
0.0160467
0.0172295
0.0181889
0.0184334
0.017925
0.0184671
0.0190622
0.0194562
0.019799
0.0196328
0.0196319
0.0198816
0.0198425
0.0200525
0.0199541
0.0199646
0.0198241
0.0196545
0.0194285
0.0189934
0.0187161
0.0181576
0.0178115
0.0169811
0.0170174
0.0174411
0.0177751
0.0167773
0.0167323
0.0159588
0.0266051
0.0476645
0.0609495
0.0659617
0.07127
0.0672749
0.0568572
0.038875
0.0191606
0.0188714
0.019335
0.0218926
0.0214023
0.0173555
0.018115
0.0187266
0.0174749
0.0173044
0.0173309
0.0192636
0.0198257
0.0211862
0.0216702
0.0220694
0.0222881
0.0222947
0.0223965
0.0221768
0.02219
0.0218487
0.0218397
0.0215358
0.0213109
0.021585
0.0222451
0.022299
0.0228857
0.0225848
0.0222745
0.0217218
0.0212984
0.0204658
0.0195456
0.0185774
0.0170986
0.0166781
0.0172166
0.0177564
0.0173207
0.0188362
0.0199929
0.0196896
0.0245299
0.0227947
0.0203392
0.0228801
0.018542
0.0186974
0.0181966
0.0170931
0.0176324
0.0171055
0.016979
0.0172516
0.0175038
0.0186269
0.0195528
0.0201818
0.0210275
0.0216839
0.0223889
0.0235469
0.0238504
0.0229319
0.0227772
0.0216348
0.0209784
0.0206739
0.021573
0.0228167
0.0227044
0.0235362
0.0232825
0.022082
0.0212828
0.0204281
0.0194695
0.0188259
0.0180908
0.0173898
0.0170128
0.0162407
0.0163927
0.0153694
0.0168799
0.0171202
0.0190003
0.0173605
0.0170072
0.0225068
0.0282736
0.0440909
0.0321371
0.0211369
0.0222652
0.0301185
0.0371503
0.0255366
0.0250454
0.014861
0.0161469
0.015273
0.0154957
0.0165568
0.0168258
0.0179489
0.018974
0.0191977
0.0199335
0.0202643
0.0210335
0.0212848
0.0220097
0.0221971
0.0234244
0.0234907
0.023567
0.0235486
0.0228013
0.0227315
0.0227813
0.0232079
0.0229873
0.0236367
0.0236616
0.0237347
0.0236671
0.022374
0.0220609
0.0213036
0.0208006
0.0199049
0.0193708
0.018665
0.0182896
0.0176908
0.0180015
0.0187111
0.0189193
0.0197962
0.0198157
0.020559
0.0207587
0.0212167
0.0213436
0.0220001
0.0221348
0.0223953
0.0224491
0.0236186
0.023729
0.0237663
0.0237291
0.0237571
0.0239907
0.0239891
0.0239199
0.023907
0.0238445
0.0236941
0.0235666
0.0245988
0.0252483
0.0247859
0.0245613
0.0248376
0.0256863
0.0262374
0.0273191
0.0281707
0.0292396
0.030134
0.0309608
0.0316466
0.0321318
0.0322745
0.0323198
0.0318975
0.0315346
0.0332477
0.039729
0.0429454
0.0481773
0.0505469
0.0525698
0.0533469
0.0521554
0.0528442
0.0515358
0.0517813
0.0505413
0.0500811
0.0492192
0.0481851
0.0474399
0.0459496
0.0452063
0.0497984
0.0562316
0.0563183
0.0494395
0.0465847
0.0418308
0.0359269
0.0383966
0.0445814
0.0398087
0.0379163
0.0349052
0.0297217
0.0224499
0.0178533
0.0256717
0.0333394
0.0405381
0.047329
0.0533284
0.0572224
0.0593591
0.0608927
0.0625834
0.0605558
0.053112
0.0415082
0.0316776
0.0278086
0.0262587
0.0238231
0.0203951
0.0185136
0.0174439
0.0162934
0.0149491
0.0140938
0.0138499
0.0140909
0.0142063
0.0155536
0.016816
0.0168097
0.0179902
0.017812
0.0183234
0.0189149
0.0193183
0.0199777
0.0199492
0.018987
0.0193396
0.0196028
0.020282
0.0201828
0.0203539
0.0201409
0.0194225
0.0189105
0.0183098
0.0177963
0.0173405
0.0167719
0.0160613
0.0160556
0.0162567
0.0158028
0.0162097
0.016645
0.0170486
0.0176709
0.0185829
0.0193388
0.0211669
0.0212997
0.0210453
0.0211304
0.0197
0.0196332
0.0186586
0.0184217
0.0200165
0.0198561
0.0181849
0.0195765
0.0195848
0.0213666
0.0213772
0.0207031
0.0209028
0.0207976
0.0189752
0.0180873
0.0170166
0.0162429
0.015659
0.0152647
0.0148008
0.0154316
0.0142416
0.0136544
0.0140989
0.0140721
0.0141355
0.0145224
0.0149501
0.0156923
0.0163945
0.0174423
0.0180807
0.0189778
0.0193092
0.0212135
0.0211175
0.0209795
0.0210102
0.0211453
0.021592
0.0208086
0.0207703
0.0209131
0.0209287
0.0209611
0.0209473
0.0191129
0.0189107
0.018077
0.0177596
0.0168254
0.0164686
0.0158153
0.0155027
0.0151142
0.0149198
0.0232881
0.0254869
0.0256467
0.0398132
0.0200142
0.0199973
0.0344204
0.0173706
0.0231116
0.0236575
0.0247254
0.0259439
0.0225949
0.0307967
0.0212636
0.0233701
0.0240948
0.025291
0.0128036
0.0191588
0.0366831
0.0422661
0.0435995
0.0485387
0.0552323
0.0584549
0.0614998
0.0635592
0.0658256
0.0682881
0.0706919
0.0724385
0.0725937
0.0689247
0.0658752
0.0564057
0.0525922
0.0563256
0.0607384
0.0472805
0.0424986
0.0430417
0.0435036
0.0440338
0.0442372
0.0449201
0.0447217
0.045712
0.0449772
0.0460752
0.0449269
0.0459433
0.0447125
0.0419914
0.038772
0.0325895
0.0306174
0.0295096
0.0268007
0.0243005
0.0220603
0.0202414
0.0198104
0.0182488
0.0168487
0.0165495
0.015259
0.015514
0.01674
0.0198773
0.0168197
0.017661
0.0259985
0.0191365
0.0180381
0.0185836
0.0191022
0.0193416
0.0182339
0.019859
0.0221259
0.0221289
0.0221944
0.0222078
0.0214072
0.0212441
0.0209809
0.0210406
0.0210729
0.0212016
0.0211723
0.0193504
0.0192942
0.0190223
0.0188853
0.0180962
0.0179294
0.0173453
0.0170153
0.0161719
0.0158785
0.0154291
0.0154814
0.0165898
0.0203989
0.0298042
0.0172796
0.0179246
0.0155258
0.0139512
0.0266308
0.0247928
0.0286499
0.026785
0.0394448
0.0264378
0.0231965
0.0242186
0.0297454
0.0296814
0.0326328
0.0424371
0.0330736
0.0282237
0.0729102
0.0527676
0.0331105
0.0460616
0.0581776
0.108828
0.127054
0.0557552
0.0562685
0.0619415
0.0628598
0.0627621
0.0531469
0.0490179
0.0411259
0.0315809
0.0129279
0.024944
0.0322382
0.0425745
0.0568258
0.0918467
0.0527558
0.0595692
0.0654878
0.0645595
0.0676533
0.0657949
0.064422
0.0653867
0.102466
0.111539
0.107348
0.0859823
0.0808031
0.0742268
0.124057
0.138941
0.11965
0.129583
0.13533
0.0812682
0.0303494
0.0249765
0.0238443
0.026422
0.0253702
0.0459941
0.0206164
0.0218357
0.0226659
0.0271694
0.0302277
0.0528295
0.0233002
0.0254805
0.0324264
0.0348787
0.0458506
0.0274759
0.028098
0.0343994
0.0361815
0.0395139
0.033681
0.0318018
0.0287373
0.0259326
0.0244397
0.0254978
0.031902
0.0463665
0.0279077
0.0283369
0.0301
0.134098
0.0307682
0.0266614
0.0277305
0.0267412
0.0337047
0.03508
0.111171
0.0355298
0.0167046
0.0154604
0.0159369
0.0167518
0.0173901
0.0180098
0.0184537
0.0190951
0.0194854
0.0196406
0.0198127
0.0221845
0.0220777
0.0216084
0.0210643
0.0218523
0.0211577
0.0212029
0.0218167
0.0212811
0.0214292
0.0224735
0.0236397
0.0231461
0.0237041
0.025056
0.0239047
0.0222152
0.0220091
0.0221297
0.022838
0.0239775
0.0227899
0.0234454
0.0226301
0.0235501
0.0236758
0.0203812
0.0200086
0.0198031
0.0193034
0.0186288
0.0180043
0.0173287
0.0166736
0.0161611
0.0160731
0.0165581
0.0151883
0.015575
0.0178804
0.0391859
0.0322553
0.026422
0.022154
0.0195286
0.018401
0.0182986
0.0187512
0.0194072
0.0199664
0.020176
0.020767
0.0246469
0.0245633
0.0257657
0.0246313
0.0259645
0.024905
0.0235811
0.0227111
0.0239156
0.0232218
0.0237111
0.0253158
0.0261502
0.0237888
0.0240528
0.0214748
0.020072
0.018466
0.0188053
0.0202453
0.0209123
0.0233336
0.0234175
0.0268409
0.0268278
0.026691
0.0254662
0.0247949
0.0262418
0.0247599
0.0259087
0.0248018
0.026205
0.0273931
0.0277397
0.0270366
0.0262145
0.0253434
0.021064
0.020269
0.0199626
0.0194697
0.0191972
0.0200847
0.0242693
0.0333777
0.0453954
0.0574664
0.0668737
0.0663967
0.0598334
0.0404934
0.0415711
0.0385337
0.0420454
0.0597877
0.0857506
0.0598481
0.11393
0.0882244
0.0523559
0.0626231
0.0745748
0.0837017
0.0895781
0.0905327
0.0770207
0.0566399
0.049706
0.0521642
0.0844723
0.0832085
0.082258
0.077814
0.0822821
0.0801727
0.0775132
0.0759554
0.0741815
0.0699412
0.0699224
0.0672328
0.0671993
0.0600983
0.0612824
0.0615038
0.0589329
0.0561951
0.0539157
0.0517318
0.0494143
0.0455352
0.0442625
0.0417977
0.0400688
0.0367269
0.0361953
0.0357116
0.0335434
0.031998
0.03075
0.0294942
0.0278011
0.027967
0.0263975
0.0262429
0.0213944
0.0210116
0.0199879
0.0196541
0.019397
0.0195701
0.0207736
0.0234054
0.043462
0.0330629
0.0329624
0.0335403
0.0337169
0.0396775
0.0464431
0.0705628
0.0652717
0.0717763
0.0614009
0.0638264
0.0630323
0.0626486
0.0653644
0.0689381
0.0742758
0.0867669
0.333372
0.513795
0.25311
0.237112
0.246754
0.251659
0.259087
0.339061
0.360113
0.355921
0.360597
0.330519
0.318457
0.196611
0.226048
0.238124
0.236994
0.223841
0.202142
0.392552
0.522659
0.518788
0.523656
0.523769
0.518767
0.522599
0.502913
0.514274
0.501758
0.515026
0.502298
0.521662
0.518922
0.504364
0.501137
0.501157
0.500917
0.501379
0.501556
0.504895
0.506056
0.506107
0.505103
0.504113
0.514525
0.436307
0.121907
0.0846816
0.140779
0.195681
0.160143
0.232023
0.266839
0.192214
0.10914
0.0889826
0.10041
0.123686
0.125215
0.152174
0.199276
0.186599
0.152277
0.153254
0.153738
0.198786
0.190438
0.216706
0.259029
0.252438
0.187782
0.149407
0.148513
0.226478
0.241443
0.236643
0.122297
0.0438237
0.0217922
0.0226764
0.0327448
0.0165126
0.0168295
0.0220263
0.0574348
0.0963174
0.0495436
0.135477
0.137402
0.181462
0.146948
0.177859
0.115064
0.118422
0.0673958
0.0793656
0.0892773
0.095038
0.0993274
0.0933542
0.215777
0.318597
0.189982
0.560436
0.53749
0.19562
0.216785
0.57547
0.513012
0.503522
0.501784
0.501698
0.501859
0.501816
0.50097
0.500915
0.500728
0.500765
0.500716
0.501163
0.504767
0.520386
0.514601
0.505239
0.501385
0.500824
0.500799
0.500691
0.50073
0.50075
0.500808
0.501018
0.50105
0.501151
0.50167
0.50394
0.512029
0.435312
0.16962
0.181952
0.405708
0.361487
0.511503
0.504621
0.501369
0.500942
0.500856
0.500829
0.500795
0.500969
0.50089
0.501397
0.501232
0.501287
0.502776
0.508256
0.50639
0.442664
0.369001
0.416596
0.329638
0.506666
0.507774
0.503277
0.5029
0.503247
0.503414
0.501514
0.501527
0.500992
0.50106
0.500893
0.501341
0.504755
0.511013
0.345654
0.170518
0.177416
0.257509
0.0876821
0.0905906
0.0924959
0.0945909
0.246588
0.440694
0.554608
0.470301
0.474444
0.54133
0.384973
0.363743
0.293494
0.317002
0.401253
0.346612
0.312212
0.249772
0.288012
0.247201
0.30293
0.217404
0.233667
0.221259
0.282515
0.286381
0.286742
0.226221
0.216103
0.271109
0.285387
0.316314
0.218276
0.258514
0.202861
0.1919
0.0868932
0.0890495
0.0809608
0.0710455
0.0708214
0.0789257
0.0773825
0.0835487
0.0805672
0.0842701
0.0814089
0.0793857
0.0726041
0.0746191
0.0684248
0.071059
0.129924
0.166015
0.149958
0.151371
0.179075
0.130637
0.156954
0.153019
0.197041
0.247384
0.22604
0.290958
0.224542
0.274929
0.404863
0.75336
0.437442
0.243895
0.317438
0.339437
0.288039
0.189082
0.448809
0.537795
0.297407
0.359596
1.19547
1.04288
1.78111
0.99139
1.11777
0.669683
0.596693
1.02782
0.652787
0.665091
0.558681
0.572533
0.498306
0.323564
0.32302
0.304892
0.24123
0.279906
0.270638
0.266171
0.295685
0.260825
0.315764
0.351513
0.39614
0.321939
0.284796
0.365957
0.214996
0.289938
0.345399
0.314787
0.259
0.337052
0.448892
0.420051
0.361396
0.398113
0.508431
0.562173
0.53117
0.450558
0.51159
1.00521
0.961802
0.929852
0.58943
1.93342
1.71713
0.352078
0.13723
0.0954572
0.0361682
0.0224364
0.0182747
0.0178883
0.0489145
0.0195466
0.0235305
0.0211806
0.0299504
0.0272935
0.0315471
0.0552788
0.0375325
0.0526404
0.0390467
0.0518617
0.0413027
0.0567737
0.0609641
0.0641829
0.0518725
0.0409284
0.0618451
0.0825673
0.0386235
0.0994156
0.105058
0.0678009
0.0825162
0.101918
0.0526737
0.164651
0.0571959
0.0568256
0.0675417
0.126616
0.251078
0.0854203
0.111972
0.584759
1.52894
0.509425
0.201051
0.164081
0.041454
0.0359897
0.0292769
0.0356206
0.0313907
0.062884
0.0634763