/*--------------------------------*- C++ -*----------------------------------*\
| =========                 |                                                 |
| \\      /  F ield         | OpenFOAM: The Open Source CFD Toolbox           |
|  \\    /   O peration     | Version:  v2012                                 |
|   \\  /    A nd           | Website:  www.openfoam.com                      |
|    \\/     M anipulation  |                                                 |
\*---------------------------------------------------------------------------*/
FoamFile
{
    version     2.0;
    format      ascii;
    class       volScalarField;
    location    "35";
    object      k;
}
// * * * * * * * * * * * * * * * * * * * * * * * * * * * * * * * * * * * * * //

dimensions      [0 2 -2 0 0 0 0];


internalField   nonuniform List<scalar> 
18258
(
0.0440916
0.0216698
0.0190647
0.0162482
0.0170845
0.0200355
0.0216214
0.0268707
0.0318926
0.0372112
0.0433225
0.0509629
0.0558245
0.0616088
0.0636281
0.0615649
0.0509204
0.0484123
0.0603951
0.0858761
0.0756064
0.0548865
0.069276
0.0672584
0.0712531
0.073565
0.0573389
0.0543718
0.0504347
0.0454525
0.0380852
0.0215227
0.0266305
0.0327011
0.0340106
0.0374275
0.0398633
0.0415989
0.0428212
0.0439544
0.0439023
0.0428146
0.0401498
0.0362512
0.030725
0.0247818
0.029834
0.0323969
0.0231786
0.0197618
0.0264188
0.0330913
0.0439231
0.0375893
0.0263521
0.0357749
0.0434898
0.0502558
0.0550872
0.0581425
0.059528
0.0592334
0.0575265
0.0547869
0.0512579
0.0472399
0.0433637
0.0393907
0.0341428
0.0307614
0.0263785
0.0227535
0.0200313
0.0180855
0.016808
0.0159368
0.0151945
0.014555
0.0139592
0.0136842
0.0136053
0.013622
0.0135534
0.0136362
0.0139478
0.011488
0.00945565
0.00892434
0.00888023
0.00862479
0.00746555
0.0102808
0.0120141
0.0127847
0.013058
0.0141259
0.0137592
0.0129477
0.0195355
0.0219085
0.0228694
0.0231441
0.0227503
0.0289279
0.0287613
0.0280044
0.0263001
0.0232506
0.0167558
0.0197991
0.0210645
0.0199732
0.0186704
0.0181878
0.0153233
0.0146702
0.0137972
0.0134748
0.0139885
0.0178676
0.0173382
0.0178247
0.0189368
0.0191031
0.0203278
0.0215271
0.02046
0.0201753
0.0148305
0.0147802
0.0157573
0.0155985
0.0160138
0.0199315
0.0199681
0.02003
0.0200443
0.022028
0.0220399
0.0222359
0.0223958
0.0247054
0.0226269
0.0217314
0.0215387
0.0215644
0.0201425
0.0202435
0.0201262
0.0202165
0.0166988
0.0159256
0.0167578
0.0177603
0.0196321
0.023106
0.0295347
0.0383778
0.0482003
0.0579616
0.0651967
0.068938
0.0727714
0.0717489
0.0720347
0.0736186
0.0737972
0.0727404
0.0711383
0.0691772
0.0662694
0.061615
0.0614254
0.0545595
0.0445494
0.0300599
0.03489
0.0372621
0.0396302
0.0397326
0.0401642
0.0394359
0.038463
0.0360328
0.0326096
0.027572
0.0216151
0.0267934
0.0325412
0.0373565
0.0424841
0.0474794
0.0507753
0.0533635
0.06588
0.0616516
0.0587334
0.0589201
0.0611741
0.065527
0.0646107
0.0596523
0.0514952
0.0523546
0.0438149
0.0296874
0.0265402
0.0235397
0.0252731
0.0369461
0.0443542
0.0517867
0.0553677
0.0604971
0.0633934
0.0669083
0.0703389
0.0662591
0.0620221
0.047288
0.0655034
0.0460559
0.0318663
0.0234513
0.032633
0.052752
0.0645493
0.0557584
0.047292
0.0379906
0.0291126
0.0282569
0.0403802
0.0500538
0.0575434
0.0580831
0.0619962
0.0654332
0.0605225
0.0601633
0.0509078
0.0523526
0.052693
0.0456021
0.0431007
0.0329525
0.0221424
0.0292923
0.0403232
0.0527801
0.0640308
0.0773614
0.0460799
0.0315893
0.0235621
0.0322938
0.0289954
0.0230191
0.0292502
0.0398698
0.0334372
0.0267834
0.0221664
0.0255336
0.0217762
0.0206384
0.023665
0.0267232
0.0359578
0.040142
0.0456065
0.0619025
0.0715618
0.0877458
0.0831464
0.0726056
0.0784032
0.0530725
0.0527697
0.0642993
0.050475
0.038389
0.049616
0.0638171
0.0772916
0.0897283
0.100297
0.108829
0.113882
0.105717
0.0786645
0.0469249
0.0229146
0.0207961
0.0201559
0.0193412
0.0183881
0.0167545
0.0155697
0.0124637
0.0101603
0.0101826
0.010312
0.0100678
0.00839925
0.00980339
0.0119499
0.0141277
0.0156067
0.0167831
0.0177707
0.0184593
0.0190412
0.0194459
0.0197605
0.0200225
0.0202323
0.0203766
0.0204517
0.0204654
0.0204298
0.0203489
0.0202236
0.0200548
0.0198369
0.0195473
0.019073
0.0175201
0.0157654
0.0150743
0.0151693
0.0149579
0.0147219
0.012114
0.0123517
0.0144352
0.0150025
0.0176918
0.0196793
0.0213489
0.022768
0.0242552
0.0250268
0.0258494
0.0260868
0.0260844
0.0258998
0.0256347
0.0252613
0.0247669
0.0235347
0.0211445
0.0249233
0.0274425
0.0293542
0.0309174
0.0320892
0.0323727
0.029687
0.0370456
0.0390431
0.0401265
0.040385
0.0392885
0.0367916
0.0337351
0.0312133
0.0296141
0.0284452
0.0262339
0.0240201
0.0217841
0.0194635
0.0164113
0.0178454
0.0197576
0.0199778
0.0197459
0.0208316
0.0221417
0.0204051
0.0180834
0.0154891
0.0146335
0.0144043
0.0144076
0.0152056
0.0146205
0.0142193
0.0144553
0.0170188
0.0180496
0.0197293
0.0231566
0.0220735
0.0201756
0.0276648
0.0290878
0.0295372
0.0300127
0.0300031
0.0294138
0.0261522
0.0245885
0.0259546
0.0243753
0.0236638
0.0236388
0.0232493
0.0211944
0.0233986
0.0253076
0.0268368
0.0276909
0.0293429
0.031023
0.0335512
0.0357787
0.0378845
0.0391952
0.0391281
0.03803
0.0375816
0.0378231
0.0367965
0.0353683
0.0333057
0.0311958
0.0280528
0.0284845
0.0305722
0.0321507
0.0338003
0.035541
0.0354544
0.0334239
0.0317329
0.0302547
0.0284172
0.0284918
0.030324
0.0319084
0.0338331
0.0362361
0.0366643
0.0342707
0.0322133
0.0304993
0.0286191
0.0286776
0.0305571
0.0322786
0.0342146
0.0362297
0.0351111
0.033652
0.0319833
0.0303588
0.0285435
0.0280936
0.0298009
0.0312742
0.0326288
0.0335831
0.0315814
0.0311947
0.0301566
0.0287256
0.0269165
0.0256184
0.0261272
0.027524
0.027616
0.0280441
0.0291151
0.028777
0.0283882
0.0281223
0.027797
0.0255576
0.0260016
0.0262128
0.0269992
0.0307634
0.0301692
0.0324147
0.0343862
0.0319831
0.0308054
0.0277886
0.0340219
0.0335951
0.033895
0.0323768
0.0228981
0.0211477
0.0222543
0.0237097
0.0252077
0.0242761
0.0217133
0.0211911
0.0214335
0.0204942
0.0185619
0.0158114
0.0120143
0.0119497
0.0118233
0.0124081
0.0149655
0.0165477
0.0165859
0.0162609
0.0156083
0.014368
0.0132465
0.0364418
0.0487785
0.0553113
0.0585711
0.0592413
0.0558857
0.0464722
0.043552
0.0363343
0.0302852
0.0258815
0.0233099
0.0203867
0.0211552
0.0246966
0.0257138
0.028866
0.0251203
0.0308842
0.0328397
0.0325385
0.0409087
0.0462795
0.0485893
0.0456308
0.0369224
0.0243656
0.0162398
0.0177584
0.0184582
0.0189503
0.0193715
0.0197705
0.0192025
0.0168749
0.0147174
0.0147388
0.015326
0.0177327
0.0193356
0.0203884
0.0204345
0.0210916
0.0225713
0.0214529
0.0199746
0.0194546
0.0184948
0.021069
0.0216582
0.0215086
0.0213429
0.0220525
0.0223956
0.0225058
0.0231223
0.019172
0.021657
0.0222806
0.0225619
0.0233195
0.0189167
0.01913
0.019204
0.0180785
0.014497
0.016947
0.0158542
0.0117331
0.0130602
0.0134432
0.0141556
0.0144505
0.0176623
0.0171048
0.0161247
0.0160935
0.0221262
0.0231846
0.0232132
0.0203919
0.0191048
0.0215665
0.0222775
0.0218032
0.0208827
0.0210003
0.0200092
0.0181962
0.017472
0.0176173
0.0189594
0.0197724
0.0198441
0.0233038
0.0228821
0.0213883
0.0223994
0.0228748
0.0224443
0.0220815
0.0215907
0.0208047
0.0203943
0.0212269
0.0218086
0.0221349
0.0218924
0.0221212
0.0252643
0.0212952
0.0210828
0.0200453
0.019402
0.0177757
0.0175777
0.0176996
0.0176779
0.0176032
0.0167916
0.0185865
0.0178294
0.0199603
0.0215442
0.0226604
0.0237855
0.0239415
0.0235193
0.0234787
0.0230885
0.0230468
0.0225123
0.0216908
0.02112
0.0203675
0.0191768
0.0191978
0.0191688
0.0190316
0.0204154
0.0203133
0.0218453
0.0229267
0.0226397
0.0217111
0.0215968
0.0204536
0.0204114
0.0214237
0.022284
0.0225436
0.0234113
0.0260541
0.0235736
0.0251598
0.0258889
0.026651
0.0259262
0.0248175
0.0254605
0.0238131
0.0226826
0.0239573
0.0246604
0.0259021
0.0266944
0.0246025
0.0235799
0.0224231
0.0216126
0.0207166
0.0182123
0.0186806
0.0193421
0.0204998
0.0223017
0.0249254
0.0274361
0.0304573
0.0304219
0.0281084
0.0266237
0.0311714
0.0306935
0.035764
0.0361278
0.0322565
0.0298198
0.0271361
0.0266495
0.0256637
0.0250953
0.0239228
0.0252314
0.0256743
0.0246726
0.0269069
0.0282575
0.032538
0.037581
0.0339593
0.0315674
0.037246
0.0365281
0.041909
0.0357268
0.0341792
0.0279179
0.0326732
0.0356848
0.0427493
0.0332878
0.0292422
0.0290037
0.0309632
0.0383283
0.0364356
0.0386223
0.0442344
0.0436854
0.0392983
0.0359035
0.0408829
0.0311433
0.037048
0.0390371
0.0328233
0.0318556
0.0385285
0.0392499
0.0397436
0.0342009
0.0327897
0.024586
0.0326287
0.0391375
0.0391159
0.0325983
0.0263896
0.0355695
0.031138
0.0309181
0.0309725
0.0265721
0.0266661
0.0259208
0.0263116
0.027194
0.0245052
0.0253299
0.0255488
0.0256067
0.025568
0.0255219
0.0255495
0.0257432
0.0256416
0.022289
0.0233561
0.02358
0.0224613
0.021263
0.0251304
0.0277071
0.0296434
0.0312117
0.0323654
0.0326199
0.0297718
0.0372396
0.0391667
0.0406476
0.0410028
0.0398468
0.0373333
0.0343967
0.0320021
0.0304262
0.0292748
0.0270805
0.0248916
0.0227085
0.0204721
0.0174976
0.0159546
0.0148476
0.0133556
0.0135149
0.0132651
0.0129144
0.0127212
0.0130608
0.015497
0.0169937
0.017096
0.0168395
0.01625
0.0150764
0.0138368
0.0344678
0.0508801
0.0584871
0.0622725
0.0630213
0.0593383
0.0463448
0.0421154
0.0378503
0.033804
0.0317863
0.0325163
0.0411657
0.0494407
0.0564354
0.062485
0.0659209
0.0638574
0.0501256
0.0482266
0.0629977
0.089766
0.078345
0.101407
0.121868
0.0813144
0.0667335
0.0655441
0.0777504
0.0806922
0.0748389
0.0659259
0.0557414
0.0444123
0.0481928
0.0518374
0.0553598
0.0583891
0.073598
0.0775543
0.0763535
0.0719426
0.0637323
0.0505874
0.0213653
0.0153485
0.0168145
0.0180902
0.0188379
0.0191835
0.0174938
0.0180637
0.0179473
0.0184229
0.0175328
0.0126565
0.013329
0.0139424
0.0147129
0.0144337
0.0151025
0.0164781
0.0212898
0.0193751
0.0185493
0.0151337
0.017067
0.0193554
0.0201608
0.0199403
0.0196081
0.0191611
0.0184947
0.0169955
0.0234452
0.0377436
0.0482053
0.0519006
0.049896
0.0441413
0.0333886
0.0317702
0.0291963
0.0277554
0.0283545
0.0295217
0.0254106
0.014579
0.0150088
0.016084
0.0154974
0.0143377
0.016251
0.0174543
0.0182104
0.0188123
0.019277
0.0196523
0.0199355
0.0201403
0.0202739
0.0203481
0.0203709
0.0203424
0.0202601
0.0201232
0.0199257
0.0196456
0.0191701
0.017599
0.0158144
0.0150477
0.0151073
0.0148569
0.0144676
0.0126025
0.0128725
0.0146914
0.0153013
0.0148373
0.0154298
0.0158697
0.0171413
0.0192061
0.0212153
0.0229475
0.0218082
0.0213884
0.0215117
0.0210777
0.0186937
0.0221712
0.0242093
0.0246617
0.0246861
0.0252816
0.0266757
0.0277798
0.027059
0.0268823
0.0264252
0.0242865
0.0261689
0.028601
0.0289173
0.0291324
0.0294894
0.0297457
0.031215
0.0308111
0.0305418
0.0301266
0.0285145
0.0276716
0.0308657
0.0233189
0.0197332
0.0180757
0.0139302
0.0129259
0.0126976
0.0137268
0.0143626
0.0158095
0.0155459
0.0164941
0.0170546
0.0156592
0.0177347
0.0170076
0.0165436
0.0144551
0.0140724
0.0145044
0.0163809
0.018211
0.0299336
0.032507
0.0267565
0.0348025
0.0350344
0.0292699
0.0334923
0.0320064
0.0320312
0.0350568
0.0370142
0.0363149
0.0345319
0.0341771
0.0318002
0.0214938
0.0208786
0.020151
0.0185045
0.0194922
0.0192255
0.0185656
0.0180888
0.0207378
0.02167
0.021961
0.0214616
0.0210545
0.0206707
0.0202793
0.0197992
0.0200893
0.0256237
0.034522
0.0404923
0.0398972
0.0311725
0.022933
0.0243269
0.0241088
0.0242373
0.0249714
0.0179385
0.0152616
0.0178021
0.0173926
0.0184366
0.0190815
0.0195793
0.0199711
0.0202976
0.020579
0.0208446
0.0210976
0.0213239
0.0215145
0.0216706
0.0217835
0.0218972
0.022032
0.0222513
0.0224721
0.0213173
0.0189247
0.0176854
0.0175482
0.0182576
0.0192127
0.0204065
0.019663
0.0157671
0.0156005
0.0222088
0.0226509
0.0212906
0.0198722
0.0197688
0.0189963
0.022532
0.0221469
0.0225637
0.0224098
0.0222279
0.0220541
0.0218852
0.0217036
0.0214919
0.0212919
0.0211018
0.0209193
0.0207417
0.0205514
0.0203363
0.0199907
0.0193944
0.0187384
0.0160523
0.017982
0.0195774
0.0211258
0.0224532
0.0224297
0.0215228
0.0209383
0.0209639
0.0211549
0.0213699
0.0215918
0.0218369
0.0220985
0.02236
0.022654
0.0227013
0.0215072
0.0220876
0.0172919
0.018221
0.0184156
0.0183331
0.0201311
0.0191542
0.0146052
0.0153729
0.0161163
0.0174357
0.0199168
0.0200657
0.0210586
0.0212025
0.0171397
0.0168973
0.0166165
0.0174624
0.0154269
0.0160748
0.0261503
0.026786
0.0350073
0.038412
0.0399871
0.0326475
0.0460501
0.0529425
0.0513009
0.0413355
0.0233764
0.0355341
0.0427918
0.0493863
0.0465241
0.0361654
0.0459721
0.048412
0.0661828
0.0618419
0.0552052
0.0665521
0.0457059
0.0279634
0.0160976
0.016604
0.0153586
0.0313671
0.0356476
0.0323507
0.0330405
0.0410562
0.0420505
0.0371345
0.0354756
0.0372477
0.0366986
0.0407583
0.0378957
0.0344122
0.0235592
0.0192391
0.0200089
0.0213327
0.0230554
0.0252657
0.0251802
0.0241399
0.0228986
0.022026
0.0210519
0.0185665
0.0179844
0.0199682
0.0216257
0.0230333
0.0245237
0.0253003
0.0261262
0.0263524
0.0263349
0.0261321
0.0258477
0.0254556
0.0249445
0.0236858
0.0257647
0.0259565
0.0258089
0.025804
0.0258555
0.0258893
0.0258231
0.0255968
0.0247595
0.0240393
0.0229093
0.0217746
0.0201583
0.0180319
0.0187059
0.020461
0.0220479
0.0231569
0.0241871
0.0237388
0.0241347
0.024691
0.0248437
0.0249297
0.0249906
0.0251663
0.0255863
0.02661
0.0286803
0.0272746
0.0269194
0.0283223
0.0262918
0.0252949
0.0248854
0.0247178
0.0246707
0.0245996
0.024459
0.0239147
0.0233605
0.023839
0.0240347
0.0242056
0.0244078
0.0247476
0.0253242
0.0263244
0.0274747
0.0269246
0.0274556
0.0280327
0.0267374
0.0256362
0.0250083
0.0246468
0.0244195
0.0242278
0.0240184
0.0235321
0.0232685
0.0236874
0.0227324
0.0228431
0.0218877
0.0205459
0.0191109
0.0176598
0.0170009
0.0369602
0.0367043
0.0478166
0.0440387
0.0384689
0.0494385
0.0632014
0.0545954
0.0660065
0.0699722
0.0568028
0.0527448
0.0286945
0.0248467
0.017736
0.0192509
0.0205812
0.0217581
0.0215721
0.0224517
0.0223295
0.0232128
0.0226789
0.0218598
0.0214691
0.0204849
0.0205347
0.0192824
0.0177528
0.0176379
0.0192649
0.0201837
0.0212948
0.0212149
0.0225347
0.0231463
0.0235758
0.0238669
0.02415
0.0244427
0.0248227
0.0253345
0.0261089
0.0265445
0.0263666
0.0258797
0.0259999
0.0256466
0.0249917
0.0245592
0.0242218
0.0239733
0.0237264
0.0234544
0.0230275
0.0224082
0.0223214
0.0228693
0.0232805
0.0236297
0.023849
0.0239552
0.023962
0.023939
0.0239759
0.0237975
0.0236799
0.0239587
0.0241541
0.0243111
0.0242033
0.0241941
0.02417
0.0240086
0.0237295
0.0233461
0.022929
0.0223961
0.0213958
0.0214641
0.0222841
0.0227475
0.0231125
0.0234134
0.0234971
0.0233171
0.0228811
0.0223938
0.0219721
0.0214895
0.0210316
0.0210371
0.0214033
0.0218713
0.0223155
0.0227923
0.0232065
0.0234221
0.0233956
0.0231217
0.0227588
0.0222714
0.0214062
0.0214664
0.0222225
0.022653
0.0229212
0.0230158
0.0228178
0.0222188
0.0213675
0.020445
0.0196084
0.0189041
0.0182361
0.0179597
0.0187337
0.0194338
0.0202518
0.0212425
0.0221896
0.0227783
0.022922
0.0228156
0.022553
0.0221585
0.0214689
0.0214196
0.0220009
0.0223243
0.0224918
0.022487
0.0220115
0.0208607
0.0192345
0.0177439
0.0165681
0.0157862
0.0147273
0.015301
0.0162525
0.0170736
0.0182115
0.0196153
0.0210755
0.0222056
0.0227219
0.0227208
0.0225333
0.0221581
0.0214868
0.0214694
0.0220709
0.022403
0.0224577
0.0221409
0.0212948
0.0196592
0.0178655
0.0163798
0.015462
0.0150062
0.0141959
0.0144083
0.0151101
0.0152565
0.0159154
0.0173512
0.0192566
0.0209157
0.0217461
0.0220843
0.0220653
0.0218043
0.021319
0.0211713
0.0215831
0.0218054
0.0217799
0.0215136
0.0206278
0.0190257
0.0169669
0.0150941
0.0150644
0.0152341
0.0144889
0.0142588
0.014777
0.0146091
0.0151871
0.0171771
0.0192627
0.0209865
0.021982
0.0222869
0.0222749
0.0219683
0.0214151
0.0213234
0.0218517
0.0221923
0.0222184
0.021879
0.0210203
0.0194167
0.0176068
0.0161268
0.0166172
0.0164267
0.0156886
0.0157218
0.0166551
0.0174405
0.0167069
0.0180592
0.0196364
0.0208655
0.0214426
0.0216497
0.0216164
0.0213544
0.0209838
0.0207641
0.0211432
0.021527
0.0218309
0.0219955
0.021794
0.0214615
0.0205739
0.0191074
0.0192362
0.0172011
0.0158473
0.0159065
0.0170015
0.0182102
0.0181784
0.0197735
0.0209283
0.0217378
0.0222981
0.0223717
0.0221636
0.0217334
0.0211941
0.0209996
0.0215207
0.0219896
0.0223063
0.0221141
0.021449
0.0204279
0.0192666
0.0183913
0.0193582
0.0192668
0.0186191
0.0183697
0.0193029
0.020244
0.019242
0.0203109
0.0209196
0.0214773
0.021779
0.021727
0.0213031
0.0208558
0.0204904
0.0201483
0.0204282
0.021006
0.0210441
0.0210652
0.0209324
0.020311
0.0200845
0.0194468
0.0190881
0.0183232
0.0176418
0.0170103
0.0187656
0.0216524
0.023602
0.0247927
0.0263594
0.024519
0.0212943
0.0190832
0.0140227
0.0139906
0.0141162
0.0138959
0.0138474
0.0139422
0.0187127
0.0212339
0.0235776
0.0250537
0.0229386
0.0228808
0.0228483
0.0227863
0.022653
0.0225067
0.0222886
0.0225486
0.0360884
0.279186
0.196876
0.228469
0.218409
0.314257
0.067807
0.0379631
0.0424699
0.0487541
0.0555158
0.0534439
0.0500275
0.0440835
0.0398019
0.0395966
0.0383184
0.0382587
0.036803
0.0378979
0.0403186
0.0937266
0.131642
0.148837
0.159682
0.166238
0.170544
0.164839
0.171166
0.160322
0.159886
0.160908
0.165848
0.158142
0.151049
0.147604
0.143311
0.125143
0.125148
0.105444
0.108966
0.0907614
0.0961345
0.100087
0.0993252
0.0980895
0.0979513
0.0984107
0.0995326
0.104323
0.0986464
0.10369
0.0909506
0.0714692
0.0694279
0.0701218
0.0644168
0.0562501
0.0634895
0.0783271
0.095725
0.116024
0.100023
0.128168
0.122969
0.125229
0.117748
0.108917
0.104691
0.103569
0.104084
0.105323
0.108251
0.11078
0.113019
0.116805
0.126319
0.129731
0.129183
0.11086
0.0937844
0.103282
0.108852
0.112653
0.112367
0.106559
0.104774
0.099662
0.0977712
0.0929508
0.089907
0.0849297
0.0810402
0.0762102
0.0944819
0.0913744
0.0987829
0.105552
0.109301
0.113368
0.114698
0.116444
0.115084
0.112682
0.106763
0.103977
0.0985098
0.118757
0.137626
0.139361
0.133511
0.118799
0.112176
0.359664
0.435421
0.438393
0.654899
0.703442
0.914376
0.352677
0.183174
0.197682
0.194279
0.185476
0.1822
0.182278
0.194384
0.207191
0.196748
0.220814
0.191859
0.19326
0.172572
0.193702
0.189402
0.16889
0.148174
0.11561
0.0895169
0.0862607
0.0740889
0.0741315
0.0683355
0.0729347
0.0852462
0.159802
0.219328
0.24596
0.270737
0.298544
0.36284
0.329068
0.484828
0.38026
0.460351
0.313868
0.341651
0.326137
0.316757
0.31549
0.333205
0.363769
0.317805
0.397801
0.315766
0.673122
0.819779
0.500033
0.468862
0.414878
0.399178
0.388172
0.381984
0.374774
0.499059
0.462372
0.594704
0.554568
0.713288
0.592822
0.585051
0.55225
0.582629
0.595559
0.605603
0.472492
0.49651
0.394902
0.424978
0.367523
0.406622
0.29152
0.317871
0.363208
0.397579
0.43155
0.5093
0.772059
0.649548
0.867998
0.611928
0.731821
0.505648
0.558045
0.52999
0.513163
0.517193
0.54833
0.655965
0.631749
0.733355
0.515003
0.527003
0.517004
0.534264
0.523724
0.558331
0.563059
0.564373
0.562574
0.523471
0.534328
0.532368
0.532044
0.532037
0.532423
0.509694
0.51294
0.505328
0.511102
0.526816
0.514732
0.514567
0.512419
0.504869
0.502802
0.502297
0.504082
0.503829
0.508993
0.508854
0.509211
0.512316
0.527035
0.514538
1.87684
0.927648
0.451875
0.359883
0.22859
0.14166
0.059156
0.064429
0.0681544
0.0698798
0.068614
0.0639896
0.0563713
0.0474904
0.0388644
0.0384858
0.0339797
0.0262403
0.0208348
0.028318
0.0251534
0.0347479
0.0443921
0.0540688
0.0624145
0.0692834
0.075032
0.0796614
0.0787544
0.0684418
0.0520911
0.0362521
0.0274457
0.0254717
0.0238443
0.0214787
0.0191554
0.0178793
0.0166026
0.0150216
0.0140751
0.0137958
0.0136527
0.0136785
0.0137922
0.0153113
0.0165766
0.0176969
0.0185206
0.0187665
0.0187992
0.0193383
0.0200025
0.0204006
0.0207221
0.0211504
0.0214301
0.02173
0.0217096
0.0219903
0.0218711
0.0217901
0.0215652
0.021093
0.0207758
0.0200167
0.0196504
0.0188003
0.0184819
0.0178047
0.0178146
0.0180912
0.0184001
0.01768
0.0177771
0.0170205
0.0171596
0.0248569
0.0496046
0.059731
0.0671685
0.0619191
0.047392
0.0269772
0.018395
0.0192238
0.0196833
0.020295
0.0190611
0.0187673
0.020297
0.0205159
0.0187242
0.0186059
0.0185702
0.0194259
0.0197424
0.0202149
0.0204564
0.0208689
0.021085
0.0212922
0.0214409
0.0213359
0.0213998
0.0210405
0.0210375
0.0207402
0.0204475
0.0207848
0.0215576
0.0215736
0.0220301
0.0217965
0.021093
0.0205787
0.0200677
0.0195763
0.0192192
0.0186732
0.0179118
0.01768
0.0180656
0.0190614
0.018297
0.0202326
0.0216738
0.0214087
0.0218101
0.0218688
0.020235
0.0209058
0.0206443
0.02045
0.0191548
0.0178285
0.0185424
0.017393
0.0175932
0.0175094
0.0180237
0.0185796
0.0190338
0.0192844
0.0197944
0.0205832
0.0212701
0.0230913
0.023182
0.0224158
0.0223077
0.0208707
0.0200633
0.0197228
0.0208199
0.0225042
0.0221052
0.0227877
0.0227472
0.0209894
0.0201697
0.0192264
0.0185761
0.018246
0.0178818
0.0170415
0.0168974
0.0158227
0.0162237
0.014939
0.0176038
0.0194658
0.0219909
0.0196317
0.0177972
0.0182775
0.0211987
0.0336397
0.0224809
0.018844
0.0257224
0.0342482
0.0432171
0.0346075
0.0339843
0.0192105
0.0257846
0.0146678
0.0149605
0.0159717
0.015923
0.0172607
0.0180719
0.0182454
0.0187823
0.0190531
0.0199221
0.0201875
0.0209728
0.0211686
0.0229256
0.0229456
0.0228279
0.022787
0.0222067
0.0221884
0.0224839
0.0228913
0.0225602
0.0228738
0.0228937
0.0231234
0.0231609
0.0213948
0.0210536
0.0202124
0.0196594
0.018656
0.0181974
0.0176448
0.0174057
0.0166731
0.0168547
0.0174538
0.0175615
0.0185006
0.0185175
0.0193512
0.0195795
0.020093
0.0202295
0.0209749
0.0211029
0.0213979
0.021447
0.0231002
0.0231738
0.0231106
0.0230731
0.0230282
0.0231786
0.0231653
0.0231417
0.0232127
0.0236707
0.0234979
0.0232198
0.0244319
0.0252438
0.0242768
0.0238865
0.0240959
0.0251409
0.025739
0.0269262
0.0277813
0.0288325
0.0296239
0.0303167
0.0307803
0.0310714
0.0309037
0.030757
0.0300121
0.0294998
0.0308425
0.0365921
0.0395015
0.0440429
0.0462249
0.04735
0.0480161
0.0470229
0.0479087
0.0468355
0.0471927
0.0463427
0.0461942
0.0456738
0.0450372
0.0445466
0.0434974
0.0429316
0.0473121
0.0547283
0.0553276
0.048285
0.0457227
0.0429406
0.0393588
0.0392276
0.046788
0.0430457
0.0386426
0.0370657
0.0333078
0.0278309
0.020771
0.0133453
0.0196943
0.0291284
0.038277
0.0462913
0.0519758
0.0549984
0.0563628
0.0590354
0.0580834
0.0516065
0.0422967
0.0349471
0.0325563
0.0310795
0.0282275
0.0241691
0.0214459
0.0201303
0.0187624
0.017068
0.0158143
0.0154423
0.0152215
0.0151901
0.0165284
0.0177307
0.0178134
0.0189226
0.0193814
0.0198732
0.0204563
0.0208446
0.02174
0.0217118
0.0207324
0.0211265
0.0214051
0.0220736
0.0219666
0.0221816
0.0217922
0.0210434
0.0203858
0.0196422
0.0189779
0.0183951
0.0178288
0.0172587
0.0170213
0.0175253
0.0174659
0.0177733
0.0181675
0.0185807
0.0193244
0.0202561
0.021106
0.0227458
0.023105
0.0226717
0.022714
0.0214421
0.0213345
0.0203807
0.0201512
0.0217986
0.0217074
0.0199672
0.0213829
0.0212874
0.0227295
0.0227846
0.0223429
0.0227395
0.0224159
0.0207721
0.0198331
0.0187787
0.0179298
0.0173721
0.0170482
0.0168723
0.0170188
0.0166055
0.0160178
0.0161186
0.0161528
0.0162502
0.0166064
0.0169778
0.0177091
0.0183373
0.0193146
0.0198963
0.0207645
0.0210872
0.0227898
0.0228042
0.0228321
0.0228405
0.0226355
0.0230574
0.0223998
0.0223932
0.0227567
0.0227634
0.0226075
0.0225351
0.0209033
0.0206972
0.0198542
0.0195561
0.0186557
0.018316
0.0176222
0.0173537
0.0169721
0.0168084
0.0251063
0.0277612
0.0284706
0.044138
0.0217261
0.0220969
0.0381271
0.0186953
0.0253012
0.0265278
0.0273187
0.0279905
0.0249408
0.0338552
0.0230003
0.0248427
0.0262087
0.0274143
0.0148045
0.0148706
0.0146867
0.014586
0.0154018
0.0159716
0.0353809
0.0446726
0.0521183
0.0566262
0.0596691
0.0632449
0.0664153
0.0692884
0.0704694
0.068231
0.0662886
0.0584523
0.0551475
0.0591767
0.0640973
0.0513675
0.0465494
0.0473369
0.0483363
0.0491778
0.049798
0.0509193
0.0510309
0.052573
0.0519138
0.0534524
0.0526176
0.0541209
0.0522405
0.0484417
0.0448336
0.0372682
0.0346475
0.0333591
0.0304705
0.0276693
0.024683
0.0225897
0.0221703
0.0203974
0.0185006
0.0181856
0.0169075
0.016589
0.0174361
0.0202646
0.0176795
0.0191167
0.0268891
0.0204186
0.0196671
0.0203181
0.0208823
0.0211013
0.0200748
0.0217799
0.0238921
0.0235681
0.0236344
0.0235911
0.023152
0.0231001
0.0227068
0.0227464
0.0227769
0.0228092
0.0227191
0.0211369
0.0210834
0.0208285
0.0206869
0.0199382
0.0197904
0.0192627
0.0189931
0.0181961
0.0179776
0.0175163
0.0174921
0.0160303
0.015755
0.0156043
0.0160393
0.0155952
0.0153363
0.015382
0.0256651
0.0254106
0.0291205
0.0282975
0.0422031
0.0280874
0.0249853
0.0248529
0.0302693
0.029686
0.0319243
0.0452997
0.0328226
0.0261581
0.0304417
0.0287893
0.0321124
0.0364835
0.039058
0.0561834
0.0609741
0.032535
0.0384762
0.0514894
0.0480669
0.0460484
0.0219625
0.0262009
0.0166878
0.0145815
0.0152567
0.024878
0.0328975
0.0286856
0.0330509
0.0673574
0.0405994
0.0493297
0.0595354
0.0589214
0.063069
0.0585398
0.0554063
0.054767
0.0993016
0.097636
0.0400823
0.0490485
0.0450253
0.0590339
0.0869774
0.112831
0.112209
0.121964
0.0739686
0.0308587
0.0265767
0.0252826
0.0252776
0.0283343
0.0279258
0.0514438
0.0222272
0.0238068
0.0248174
0.0301958
0.0323147
0.0576942
0.0248005
0.0275468
0.0349866
0.0365499
0.0498677
0.0286405
0.0299602
0.0366757
0.0385448
0.0418545
0.0356715
0.0336443
0.031112
0.0275621
0.0258305
0.0255662
0.0322272
0.051033
0.0292194
0.0296612
0.0318048
0.120058
0.0326176
0.0284284
0.0279769
0.0266875
0.0344093
0.0385213
0.0944607
0.0323331
0.0178148
0.0176076
0.01811
0.0188442
0.0194044
0.0199216
0.0203663
0.0209167
0.0213709
0.0214316
0.0215833
0.0237622
0.0238817
0.0233525
0.0228347
0.0237057
0.0229595
0.0230494
0.0236657
0.0232104
0.0231712
0.0241927
0.0250148
0.0246368
0.0252774
0.0265518
0.0255824
0.0238817
0.0237387
0.0240484
0.0246982
0.0260212
0.0247408
0.0252867
0.0244235
0.0256342
0.0253048
0.0221152
0.0218179
0.0217425
0.0211764
0.020564
0.0199721
0.0193429
0.0186402
0.0178521
0.0171704
0.0165261
0.0170997
0.0166534
0.0159242
0.0150116
0.0157184
0.0165982
0.0175354
0.0184247
0.0191162
0.0198438
0.0205808
0.0212485
0.0218652
0.021981
0.0224778
0.0261836
0.0268326
0.0280814
0.0265218
0.0279428
0.0270211
0.025492
0.0246534
0.0258407
0.0248878
0.025301
0.0269813
0.0278899
0.0256103
0.0260612
0.023595
0.0221561
0.0203791
0.020781
0.0224348
0.0231046
0.0257151
0.0255861
0.0292622
0.0288887
0.0284962
0.0271046
0.0264376
0.028217
0.0267198
0.0279231
0.0267279
0.0283542
0.0294799
0.0301556
0.0294429
0.0277032
0.0267975
0.022759
0.0220658
0.0217749
0.0211336
0.0204395
0.0196751
0.0189179
0.0183325
0.0176152
0.0167006
0.0158033
0.015095
0.0147817
0.0146179
0.0144148
0.0155689
0.0146456
0.0157874
0.0346424
0.0169149
0.0228699
0.0200694
0.0150997
0.0351427
0.0377921
0.0383865
0.0357441
0.0303771
0.02513
0.0215514
0.0210393
0.0214644
0.0465637
0.048467
0.0739527
0.0739513
0.0792645
0.078675
0.0767539
0.0758504
0.0747262
0.0715119
0.0713825
0.070292
0.0708766
0.0627483
0.0636632
0.0644897
0.062161
0.0594423
0.0572117
0.0551022
0.0528576
0.0488563
0.0474349
0.0447051
0.0426853
0.03921
0.038917
0.0384238
0.0361438
0.0345084
0.033198
0.0318593
0.0300696
0.0300858
0.0279214
0.0277176
0.022742
0.0225239
0.0217127
0.0212512
0.0206473
0.0199703
0.0192964
0.0182822
0.0338763
0.0306513
0.0328072
0.0342638
0.035298
0.0412646
0.0486844
0.0766405
0.0715228
0.0806355
0.0673308
0.07029
0.0684836
0.0674887
0.069839
0.0734789
0.0786237
0.0913788
0.339266
0.514308
0.25769
0.241014
0.249904
0.25429
0.262107
0.349443
0.365175
0.369796
0.367753
0.335851
0.317771
0.197685
0.226727
0.238615
0.237099
0.224013
0.189948
0.32674
0.522925
0.519009
0.523704
0.523814
0.518725
0.522833
0.502877
0.514234
0.501769
0.515091
0.502339
0.522106
0.519417
0.504362
0.501121
0.501125
0.500891
0.501336
0.501522
0.504823
0.505993
0.506046
0.505045
0.503403
0.514959
0.316365
0.0464401
0.0396858
0.0585526
0.0784659
0.0589107
0.0689676
0.0895675
0.0636325
0.038454
0.0348121
0.0408427
0.0424884
0.0388249
0.0415318
0.0537946
0.0508109
0.0422155
0.0403695
0.0396108
0.0541413
0.0501386
0.0634333
0.07859
0.0791313
0.0512021
0.0391907
0.0380415
0.0657123
0.0734989
0.0681516
0.0300363
0.0223335
0.019924
0.0207269
0.0295969
0.0166501
0.0182274
0.0184059
0.0188281
0.0407416
0.0214383
0.0282579
0.0253042
0.0701481
0.0628204
0.0930258
0.0538716
0.0900522
0.0496491
0.0586692
0.0672637
0.0747666
0.0655713
0.0494487
0.0989345
0.12734
0.08743
0.421769
0.429146
0.114543
0.179012
0.533155
0.513533
0.502917
0.501656
0.50166
0.501827
0.501784
0.500943
0.500891
0.500711
0.500752
0.500709
0.501155
0.504764
0.52092
0.515007
0.505252
0.501385
0.500819
0.500788
0.500678
0.500712
0.50073
0.500778
0.500985
0.501009
0.50109
0.501571
0.503779
0.512625
0.448736
0.164731
0.184106
0.415159
0.370349
0.511787
0.504618
0.501323
0.500895
0.500819
0.500794
0.500767
0.500942
0.500873
0.501376
0.501213
0.501278
0.502794
0.508344
0.506565
0.460112
0.383399
0.435404
0.341659
0.506847
0.507855
0.50326
0.502861
0.503211
0.503363
0.501482
0.501479
0.500955
0.501017
0.500851
0.501308
0.504785
0.511438
0.353703
0.1743
0.180338
0.265318
0.0861108
0.0866269
0.0851491
0.0829406
0.204683
0.328193
0.433596
0.364769
0.412124
0.463148
0.335662
0.322158
0.255418
0.277582
0.354204
0.317301
0.294367
0.228414
0.259653
0.229905
0.290458
0.209043
0.232445
0.218963
0.274759
0.2809
0.284019
0.226869
0.21563
0.267786
0.29117
0.326777
0.21878
0.264615
0.200202
0.190811
0.0813546
0.0798264
0.070381
0.0599626
0.0635008
0.0727184
0.0732914
0.0801534
0.078295
0.0836973
0.0817511
0.0782232
0.0698471
0.0712854
0.0639258
0.0656288
0.125871
0.165444
0.148343
0.147643
0.175175
0.116157
0.14658
0.121696
0.160463
0.194289
0.0722668
0.0998598
0.0873578
0.174775
0.260747
0.585751
0.155585
0.0924525
0.207194
0.347795
0.276116
0.180577
0.435411
0.558018
0.301962
0.384458
1.27879
1.0802
1.82961
0.914391
0.961755
0.497679
0.552378
0.953227
0.572922
0.538777
0.446232
0.506076
0.307984
0.20294
0.186342
0.187023
0.14069
0.145857
0.139575
0.202925
0.222594
0.172137
0.206732
0.245717
0.295494
0.265802
0.207491
0.250998
0.130927
0.144363
0.189169
0.182016
0.143695
0.18477
0.249351
0.176633
0.138747
0.218175
0.298444
0.336631
0.252727
0.205496
0.228267
0.676414
0.616389
0.671214
0.35831
1.87274
1.46789
0.150033
0.0595008
0.0296732
0.023604
0.0217827
0.0194873
0.0190017
0.0440197
0.0208764
0.0238779
0.0209424
0.0232095
0.024773
0.0284979
0.0407946
0.0331774
0.0398073
0.0328325
0.0320442
0.028743
0.0337226
0.0354778
0.0330405
0.0269486
0.0264178
0.032677
0.0347661
0.02509
0.0332693
0.0357042
0.0288639
0.036972
0.0378754
0.024534
0.100019
0.0428248
0.0381282
0.0362788
0.0492683
0.105331
0.0438511
0.0653425
0.390032
1.35713
0.351845
0.116583
0.0862609
0.0403872