/*--------------------------------*- C++ -*----------------------------------*\
| =========                 |                                                 |
| \\      /  F ield         | OpenFOAM: The Open Source CFD Toolbox           |
|  \\    /   O peration     | Version:  v2012                                 |
|   \\  /    A nd           | Website:  www.openfoam.com                      |
|    \\/     M anipulation  |                                                 |
\*---------------------------------------------------------------------------*/
FoamFile
{
    version     2.0;
    format      ascii;
    class       surfaceScalarField;
    location    "35";
    object      phi;
}
// * * * * * * * * * * * * * * * * * * * * * * * * * * * * * * * * * * * * * //

dimensions      [1 0 -1 0 0 0 0];
oriented        oriented;


internalField   nonuniform List<scalar> 
50655
(
0.00255531
-0.00553972
1.57016e-05
-0.00501963
-0.00257332
0.00796551
-0.00597473
-0.000390455
0.00989745
-0.00106346
-0.000131014
-0.00158331
-0.00433928
-0.00202635
0.00460254
-0.00277002
-0.00278532
0.00368352
-0.00297168
-0.00228825
0.00466345
-0.00523114
-0.0085072
0.00613137
-0.0126624
0.00631112
-0.00225473
-0.0141666
-0.0057944
0.00718854
-0.0146831
-0.00648882
0.00690288
-0.0154349
-0.00692439
0.00757191
-0.0305605
-0.0107496
0.0256813
-0.0544448
-0.0314959
0.0548197
-0.0524469
-0.056667
0.0539716
-0.0324505
-0.0734089
0.0526342
-0.00548527
-0.0761071
0.0483585
0.00445394
-0.0495839
0.038833
-0.00565015
-0.0310976
0.0404284
-0.0189151
-0.0280038
0.0405015
-0.0100096
-0.0550851
0.0454569
-0.00124844
-0.0506456
0.0413265
-0.0332393
0.0316617
-0.0299491
0.0189386
-0.0225303
-0.00356402
-0.0750648
0.0481848
0.024777
-0.0735597
0.044722
0.0311619
-0.025314
0.0186219
0.0321029
-0.00127847
0.0354413
0.0208774
-0.0245385
0.0245504
-0.0221761
0.0327909
0.0148938
-0.0111674
0.0206547
-4.00802e-05
-0.000919479
0.0157263
-0.00816736
0.00208755
0.00594443
-0.00560154
-0.00306323
0.000456678
-0.00548945
-0.00210809
0.00197761
-0.00653883
0.00101795
1.41271e-05
-0.00796624
0.000978796
0.000432002
-0.00923691
0.00082536
0.000428168
-0.00965618
0.000468251
-6.53544e-05
-0.00991635
4.11811e-05
0.000202387
-0.00941537
-0.000382757
-0.000134515
-0.00874053
-0.000848523
0.000157002
-0.00745083
-0.00131114
4.99812e-06
-0.00602628
-0.00177029
0.000328854
-0.00409866
-0.00209719
0.000153384
-0.00217917
-0.00227604
0.000339587
4.32875e-05
-0.00224006
-0.000610985
-0.0029343
0.00356292
0.00163299
0.00625019
-0.00853595
0.00422042
0.00541774
-0.00806169
-0.00264998
0.00684905
-4.56585e-05
-0.00671567
0.00642864
-0.00242991
-0.0018253
0.00498798
-0.00993479
0.00136522
0.00607567
-0.00930792
0.000693677
0.00359928
-0.00295337
-0.00143422
0.0021103
-0.00253886
0.00219116
-0.00110366
-0.00383069
0.0022484
-0.000972728
-0.00499644
0.0024165
-0.00126714
-0.00620224
0.00238574
-0.0011949
-0.00764736
0.00255256
-0.00112147
-0.00917671
0.00263325
-0.00111731
-0.0104665
0.00245054
-0.00117394
-0.0114011
0.00212873
-0.00120714
-0.0119351
0.00176156
-0.00124056
-0.0123225
0.00161117
-0.00123708
-0.0129811
0.00175075
-0.00110642
-0.0132491
0.00133161
-0.0010787
-0.0130108
0.00110323
-0.00135689
-0.0130504
0.000989664
-0.000965784
-0.0128035
0.00103977
-0.00130273
-0.0125769
0.00112056
-0.0013631
-0.0124435
0.00107415
-0.00122341
-0.0121831
0.000829191
-0.00110513
-0.0116643
0.000406938
-0.000941234
-0.0108286
-9.81582e-05
-0.000752756
-0.00978832
-0.000502927
-0.000552714
-0.0085333
-0.000595976
-0.000673817
-0.00713471
-0.000363972
-0.00104848
-0.00740897
-0.000384183
0.000646434
-0.0161841
0.00135412
0.00739444
-0.0206261
0.00179138
0.00259003
-0.0217943
0.0022242
-0.00112127
-0.0403729
0.0173837
0.00107736
-0.0518225
0.0103718
0.000779377
-0.0285879
-0.00997775
-0.0135646
-0.0124899
-0.0123185
-0.00391176
-0.0102694
-0.0027033
0.00040482
-0.00871241
-0.00148586
-0.000161294
-0.0066834
-0.00165516
-0.00047541
-0.00376462
-0.0017575
-0.0012566
-0.00197583
-0.00187415
-0.00226559
0.00306936
-0.00287454
0.00033701
0.00566562
-0.00838192
0.00506406
0.00526592
-0.0101252
0.0110704
0.00526751
-0.0114188
0.0215983
0.00702676
-0.0177358
0.026485
0.0118585
-0.0170279
-0.0014449
0.0156374
0.0120109
-0.0127289
-0.00705934
0.0181586
-0.0142048
-0.00921871
0.0105472
-0.0138078
-0.0092009
0.00866888
-0.0113309
-0.00907834
0.00648501
-0.0085762
0.00327917
0.010635
-0.000852709
-0.0121449
0.0129078
-0.0127506
0.00128568
0.012936
-0.0124948
0.00313982
0.0101118
-0.0109295
0.00440208
0.00309765
-0.00620624
0.00602417
-0.0297846
0.0220497
-0.00332442
0.0292127
-0.0168823
0.0338728
-0.0146147
-0.0208796
-0.00911602
0.00812518
-0.00899929
-0.00465594
0.0081254
-0.00744811
-0.000267148
0.00815087
-0.00739624
0.00252367
0.00801536
-0.00525056
0.00547133
-0.00172968
0.00974643
-0.00203266
-0.00401483
0.0109319
0.00068439
-0.00345818
0.00893447
-0.000736546
-0.000853025
-0.00258141
-0.0195236
0.00172825
0.0284939
-0.0117262
-0.012926
0.00213272
-0.00819177
0.00139727
-0.00848724
0.0146386
0.00639757
-0.0116521
0.0204735
0.00613579
-0.00999437
0.0293102
0.0068699
-0.0141552
0.0797087
0.00667778
-0.0392362
0.0444594
-0.00544569
0.0446686
0.00572857
0.00373914
0.000621941
0.0373819
0.00254613
0.0199542
0.00112193
0.0228374
-0.000686191
0.0108039
0.0139364
0.00485195
-0.00506232
0.000550329
0.006597
0.00499562
-0.00054851
0.00712991
0.0078881
-0.000756973
0.00693039
-0.014441
0.00770093
-0.000848318
0.00718484
-0.0153246
0.00821126
-0.000332385
0.00730085
-0.0160944
0.00825716
-0.000100997
0.00729375
-0.0159958
0.00844981
1.45142e-05
0.00679564
-0.0151597
0.00822798
0.000249841
0.00653132
-0.014907
0.00812037
0.000677792
0.00561403
-0.0137593
0.00769869
0.00466959
0.00405926
-0.015196
0.00713043
0.00159391
-0.00471565
0.00449691
0.00328009
0.000885774
0.00475542
4.99369e-06
0.000418058
0.00644641
-0.000375432
0.00033762
0.00747916
-0.0008797
0.000290283
0.00780885
-0.000978854
0.000590106
0.00824276
-0.00126209
0.000811296
0.0084307
-0.00136433
0.000881812
0.00846776
-0.00136642
0.000719888
0.00848792
-0.00140792
0.000540237
0.0085448
-0.00124713
0.00706487
-0.000322221
0.0090663
-0.00140914
-0.00097025
0.010676
-0.00123304
-0.000988015
0.0118798
-0.000930806
-0.000791872
0.0126314
0.000181826
-0.00104725
0.0130235
0.001268
-0.00126883
0.0131927
0.00205141
-0.00140731
0.0131966
0.00252087
-0.00146687
0.0132502
0.00251797
-0.00146767
0.0131917
0.00210065
-0.00101886
0.0131611
0.00163503
-0.000630765
0.0132861
0.0015347
-0.000572077
0.0126223
0.00147935
0.000500835
0.011714
0.00248049
0.000423995
-0.000259665
0.0118438
-0.000397519
0.0024781
-0.000612463
0.0114199
-0.000227829
0.00279794
-0.000397947
0.0105077
-6.94119e-05
0.00305744
3.97558e-05
0.00924884
3.89745e-05
0.000472802
0.00318437
0.00769491
0.000871055
0.00320541
9.71909e-05
0.00604621
0.00117381
0.00294951
6.4103e-05
0.00508754
0.00110744
0.00223478
-1.27768e-05
0.00376871
0.00468417
-0.000965256
0.00247708
0.00432778
-0.000803966
0.0013604
-0.000798486
0.0040899
0.0038543
-0.000400535
0.00554544
-0.000557922
-0.00114936
0.00673801
-0.000401341
-0.000808085
0.00777267
-0.000643332
-0.000407817
0.0082209
-0.000467875
2.91988e-06
0.00845258
-0.000662152
0.000414003
0.00795738
-0.000302748
0.000781353
0.00729496
-0.000453113
0.00109897
0.0058854
4.20712e-05
0.0013504
0.00404856
0.000283469
0.00153624
0.000923748
0.00157113
0.00153573
-0.00246553
0.00170027
0.001671
-0.00460195
9.99717e-05
0.00201717
-0.00603528
0.000839365
0.000572012
-0.0116747
0.000461659
0.00513285
-0.0215003
-0.00670417
0.016414
-0.0276618
-0.0152442
0.0212404
-0.037147
-0.023835
0.0330536
-0.0273376
0.0215418
0.0146314
-0.0354821
0.0122158
0.0238454
-0.0172745
0.00799201
-0.00524801
0.0052044
-0.0309354
0.0228771
0.00276149
-0.0129036
-0.0252124
0.00714541
-0.0382509
0.00802649
0.0391492
-0.0537609
-0.00101506
0.0263987
-0.049478
0.0138202
0.0108938
-0.0108648
0.0170976
-0.0109012
0.009534
-0.00196781
0.0159249
0.00869039
0.00750659
-0.0126261
0.0142244
0.00199829
-0.00533974
-0.000168905
0.0113538
0.00190924
0.000916955
0.000986322
0.00101266
-0.00202987
0.00250249
0.0021924
-0.00581517
0.00289209
0.00244281
-0.00605777
-0.00221719
0.0027223
-0.00999551
0.00130284
0.0026565
-0.00842879
-0.00427499
0.00223507
-0.0119373
0.00158247
0.00160338
-0.00887004
-0.004613
0.000863827
-0.0110864
0.00175806
-2.93477e-05
-0.00719065
-0.00362999
-0.000928731
-0.00806745
0.00187064
-0.00141535
-0.00435245
-0.00225417
-0.00203799
0.000909207
-0.00208198
0.00111321
0.012006
-0.00844786
0.00608215
0.00774461
-0.00777806
0.00273674
0.0113861
-0.00168173
-0.00378877
0.0124028
0.000901967
-0.00135063
0.00888156
-0.00595447
0.0128336
-0.00781129
-0.00171401
0.00153187
0.0180927
-0.000324056
-0.00513517
-0.00294567
0.0030704
0.019114
-0.0031142
-0.00270194
0.00442633
0.0002952
0.0152359
-0.00516818
-0.00237516
0.00453846
0.0068088
0.00792631
-0.00560376
-0.00197968
0.00218735
0.0126207
0.000818378
-0.00375026
0.00935147
-0.00166849
-0.0080538
0.01295
-0.00209842
-0.0123779
0.0136111
-0.0103181
-0.0168944
-0.0157239
0.00896286
0.00679949
-0.0275317
0.00378931
-0.0212926
0.00586134
-0.017958
-0.0120785
0.00867473
0.0101196
0.00888745
-0.0370116
-0.0250149
0.00756747
0.0129752
0.00947229
-0.0104064
-0.0371447
-0.00994308
0.00902495
-0.00188815
0.000273106
0.00883893
-0.00713913
-0.0119792
0.00971186
-0.00763621
-0.012767
0.0109758
0.00880386
-0.000849164
-0.00930411
0.00894496
-0.00113045
0.00397654
-0.00767608
0.00723336
0.00175073
-0.00338467
-0.0021834
0.00772249
-0.00729466
0.0141844
-0.0128402
-0.00575999
0.0103137
-0.0169848
-0.00478229
0.00616098
-0.0167276
-0.00323509
4.95157e-05
-0.000758925
-0.00579737
0.0031569
0.0112216
-0.00746166
0.00256904
0.0140159
-0.00212216
-0.000731004
0.0146573
0.000965335
0.0121969
-0.00443928
-0.00161147
0.0133594
-0.00273564
-0.00244843
0.0156786
-0.000267808
-0.00091739
0.0151409
-0.00273966
0.0121266
-0.0051283
-0.00148078
0.0092822
-0.000529777
0.00236858
0.0124435
-0.00123919
0.00420085
0.012881
0.000878259
0.0103844
0.00193605
-0.0051695
0.00483899
0.00503962
-0.00314167
0.0019225
0.00884224
0.00150394
5.55628e-05
0.00765287
0.0015665
-0.0142959
-0.00823518
-0.00616007
0.0209275
0.00916427
-0.0255845
0.0186989
-0.00318373
-0.00491628
-0.0195949
-0.0136753
0.00370958
-0.00130866
-0.0108985
-0.0107557
-0.00648144
0.000949934
-0.00483199
-0.00526449
-0.00124326
0.000427831
0.000314687
-0.00223307
-0.00291605
-0.00100823
0.00304336
-0.00172203
-0.00031666
0.000901262
-0.00159422
9.76812e-06
-0.00256169
0.00453476
0.000192877
-0.00999437
0.00111931
-0.00281615
0.00497375
-0.00319839
-0.00492904
-0.012053
0.00723597
-0.0101356
-0.0139863
-0.0129312
0.00987756
0.00489481
-0.0227711
-0.0176064
0.00387365
0.0100474
0.012359
-0.0319386
-0.0186156
0.0140945
0.00295472
0.0106317
-0.0389138
-0.0167485
0.0110331
0.00112799
0.0114592
-0.0408237
-0.0130352
0.00473076
-0.000500561
0.0106105
-0.041046
-0.00861785
0.000217026
-0.000799103
0.00931225
-0.0375557
-0.00574823
-0.00326244
0.00542632
-0.0332647
-0.00379435
-0.00581178
0.00720217
-0.0019951
-0.0307972
-0.00161412
-0.00500715
0.00635494
-0.00230319
-0.0278048
-0.000813748
0.00541433
-0.00255767
-0.00513811
-0.0278665
-0.00184417
0.00516411
-0.00178683
-0.0015836
-0.028606
-0.0038011
0.00472355
-0.000290031
-0.0265969
-0.00560613
0.00446401
-0.000980683
-0.0209101
-0.00651445
0.00357048
-0.00283914
-0.0272597
0.00369822
0.021345
-0.0187693
-0.055296
0.0288343
-0.0174452
0.0156174
0.00131204
-0.0178977
-0.0063449
-0.0165841
-0.0245038
-0.0040372
-0.011787
-0.00255833
-0.00754613
-0.0105123
-0.00192304
0.000984075
-0.00886903
-0.0037176
0.0018164
-0.0053126
-0.0065619
0.00241969
-0.00248038
-0.00566823
0.00148094
-0.00480386
0.000379614
-0.00460033
0.000327578
-0.000578386
-0.00721392
0.00190509
0.000645271
-0.0112554
0.00205181
0.00190998
-0.0135597
0.000670914
0.00155477
-0.0137338
-0.000479113
0.000583358
-0.0133515
-0.00185614
0.00141984
-0.0240543
0.0014121
0.00921587
-0.0575017
0.0178059
0.0154346
-0.101323
0.00871034
0.0345377
-0.117024
-0.0060821
0.0210893
-0.125428
-0.0116071
0.0192356
-0.130919
-0.0162745
0.0209305
-0.133714
-0.0218005
0.0237106
-0.134431
-0.0267254
0.0265313
-0.133962
-0.030279
0.0288859
-0.132941
-0.0326805
0.0307333
-0.131365
-0.0343319
0.0318395
-0.129135
-0.0354069
0.0322758
-0.125289
-0.0362469
0.0315289
-0.117508
0.0291456
-0.0377604
-0.0990425
0.0225768
-0.041802
-0.0512319
0.00598538
-0.0544149
-0.0218645
-3.07499e-05
-0.0295556
-0.0120331
-0.00380701
-0.00610171
-0.011759
0.00221045
-0.0025397
-0.0108784
0.00464134
-0.00559264
-0.00849579
0.00420152
-0.00666465
-0.00397072
0.00442583
-0.00903528
-0.00466152
0.00391006
-0.00329051
-0.00796902
0.00023037
0.0030263
-0.00769157
0.00279313
-0.00314178
-0.0093005
0.0015211
-0.0142282
0.00681629
-0.00198721
-0.0169414
0.00702322
-0.00442001
-0.0191081
0.00761078
-0.00554669
-0.0238737
0.00700708
-0.00234619
-0.0531935
0.018776
0.0103474
-0.0968191
-0.00902865
0.0520805
-0.109059
-0.0326401
0.0441596
-0.110138
-0.0428097
0.0430782
-0.105506
-0.0486561
0.0432006
-0.097278
-0.0530904
0.0440059
-0.0856338
-0.0551809
0.042712
-0.0702419
-0.0563904
0.0401785
-0.0522329
-0.0571093
0.0383342
-0.0271146
-0.0477233
0.0219681
-0.0362497
0.00869629
-0.0526183
0.0287854
-0.012884
-0.0599374
0.0324787
-0.0256625
-0.0610938
0.0335686
-0.0329385
-0.0532298
0.0329513
-0.0413417
-0.0439966
0.0294188
-0.0391549
-0.0264284
0.0190069
-0.0370424
0.00747427
-0.0343415
0.0239129
0.0418845
-0.05896
0.0458009
0.0542798
-0.076934
0.0687803
0.0543896
-0.078189
0.088834
0.0537534
-0.0746318
0.103758
0.0500153
-0.0657964
0.111234
0.041782
-0.0500806
0.109287
0.0342071
-0.0330701
0.0950406
0.030375
-0.016849
0.051562
0.0389673
0.00393778
0.0241986
0.0241065
0.00306049
0.0203623
0.004079
-0.000347416
0.0186081
0.000617228
0.00103442
0.0151221
0.000255778
0.00312032
0.00862834
-0.00026966
0.00666487
-0.00103541
0.00957597
-0.00107206
-0.00945008
0.00939098
0.000536544
-0.0127122
0.0109947
0.00223609
-0.0137799
0.0119572
0.00359436
-0.0131151
0.0116213
0.00361285
-0.0184319
0.0182355
0.0066293
-0.0272898
0.0239883
0.00255237
0.0225492
-0.018756
-0.00128841
0.0159288
-0.0122672
-0.00143082
0.00798884
-0.0079821
-0.00160589
0.0074404
-0.00738854
-0.00189249
0.00712466
-0.00694706
0.00618314
-0.00665033
0.00413636
0.00535626
-0.000578912
0.00409435
0.00601401
0.00108059
0.00418927
0.00571614
0.00155159
0.00463187
0.00461638
0.00285162
0.0107083
0.0108668
-0.00112004
0.0186401
-0.00800905
3.18325e-05
0.00956426
-0.00378064
0.0128158
-0.0212972
-0.0107426
0.0415343
-0.0153287
-0.00550519
-0.000541847
-0.000845111
0.00329765
0.00483957
-0.00899805
0.00587936
-0.00256063
0.00386357
-0.00177978
-0.00771988
0.000812266
-0.00841009
-0.00999244
-0.012158
0.017217
-0.00360219
-0.0295347
0.00301791
0.00344729
0.00399885
-0.0166969
-0.047381
0.00575734
0.00943574
0.000971628
-0.05565
-0.01504
0.0251385
-0.00391566
-0.0196616
0.00597944
-0.00299131
-0.019627
0.00545499
-0.00209379
-0.0199806
0.00517859
-0.00079051
-0.0184517
0.00432368
-0.0145688
0.00396184
-0.020389
0.00212368
0.00382747
-0.0210493
-0.00124183
0.00240517
-0.0170808
7.25542e-05
0.00550633
0.00145452
-0.0442843
0.034029
0.0082991
0.00724628
-0.108486
0.0350719
0.0491666
0.0180396
-0.117315
0.0479114
-0.00956193
-0.117759
0.0563988
-0.022615
-0.110418
0.0670103
-0.0334453
-0.095957
0.0767838
-0.0421123
-0.0770774
0.0816595
-0.0476536
-0.057276
0.0800589
-0.0463102
-0.037253
0.0797149
-0.0462723
0.0544095
-0.0313386
0.0619537
0.0485672
-0.0273003
0.0706101
0.0560557
-0.0323859
0.070573
0.0575542
-0.0245736
0.0642254
0.0555207
-0.0173021
0.0478112
-0.00309123
-0.0902511
0.0728596
0.00727932
-0.100809
0.0763336
-0.0111639
-0.102588
0.0801921
-0.0218011
-0.0926503
0.0784188
-0.0332435
0.0693916
-0.0346687
0.0927483
0.0883076
-0.0324964
0.100907
0.0968906
-0.0275599
0.0972154
0.0978889
-0.0149349
0.0838208
0.0940186
-0.00518138
0.089148
0.0103026
-0.0833526
0.100774
0.0156778
-0.097393
0.106617
0.000520682
-0.101906
0.110666
-0.00922524
-0.0950437
0.110115
-0.0210483
0.104001
-0.0299991
0.0907933
0.116043
-0.0269878
0.0978834
0.120358
-0.01831
0.0939766
0.119878
-0.00628214
0.0803046
0.115243
0.0041098
0.108541
0.018565
-0.0742959
0.112841
0.0204634
-0.0867755
0.119976
0.0068092
-0.089353
0.125102
-0.00362516
-0.0815779
0.126283
-0.0146795
0.122944
-0.022406
0.0701541
0.124051
-0.0157984
0.0780971
0.127043
-0.00967974
0.0769909
0.124571
0.000659409
0.0657518
0.119525
0.0107531
0.111911
0.0230048
-0.0540559
0.10288
0.029592
-0.0660534
0.111698
0.0188815
-0.0655171
0.114203
0.00886845
-0.0573851
0.118752
-0.000804184
0.11931
-0.00567621
0.0360358
0.016425
0.0586443
0.0423379
0.0522014
0.0901301
0.011581
0.0552669
0.088446
0.0218166
0.0366842
0.046772
0.0431951
0.0393741
0.0436915
0.0353892
0.0505631
-0.0125374
0.0262871
0.0151201
0.0146054
-0.0190107
0.0269083
0.0147526
-0.015451
0.0299614
0.0130475
-0.0139984
0.0278153
0.013718
-0.039911
0.0270489
0.0390163
-0.00124132
0.0228845
-0.0279862
-0.00825645
0.0369335
0.00536329
-0.0354817
-0.00674215
0.0288315
0.00503136
-0.0355537
-0.00457466
0.0280015
-0.0350491
0.00471024
0.0249546
0.00309606
0.00364484
0.0048277
0.00471192
0.00678304
0.00657493
0.00716232
0.00861683
0.00816696
0.00782575
-0.0036384
-0.0186066
0.0147311
0.00250777
-0.000692706
0.000434911
0.00588681
0.00273859
0.000237245
-0.000472104
0.000259444
0.00389207
-0.00141778
-0.00232477
-0.00122419
0.00380423
-0.00165443
-0.000436739
0.00121322
0.0101075
0.0113911
0.0293081
-0.0491574
0.00527778
0.0160386
-0.00372753
-0.00655976
0.0530822
0.000863968
-0.0144961
0.00247379
0.00378956
-0.00612925
0.00479693
0.00359792
-0.00593577
-0.0213453
0.00887313
0.0172288
-0.00938714
-0.0117146
-0.000287185
0.0169115
-0.00236415
0.0234393
-0.00714604
0.0440108
-0.011768
0.0226243
0.0719845
-0.0301011
-0.0275774
0.00612497
0.00755868
0.0280695
0.00344869
-0.016612
0.00841714
0.0127999
-0.00368446
-0.0100663
0.00876863
0.0137891
-0.00358781
-0.0106593
0.00778416
0.0130339
-0.00184118
-0.0103148
0.0060725
0.0113435
-0.00940244
-0.000328079
0.00347668
0.00921652
-0.00782818
0.00112017
0.00749877
-0.0069798
0.00287728
0.00709688
-0.00304969
0.00338086
0.00662601
-0.00260328
0.00301908
0.0125101
-0.00713869
0.0011773
0.0323885
-0.0145051
-0.00559216
0.0587278
-0.0357727
0.00881478
0.0639648
-0.0253675
0.019371
0.0604373
-0.0202196
0.022913
0.0504314
-0.0144532
0.0235863
0.0330367
-0.00616828
0.0226598
0.00138928
0.0108834
0.0198452
-0.0295938
0.041294
-0.0112392
-0.043901
0.0499252
-0.0365462
-0.0457088
0.0547062
-0.0538167
-0.036212
0.0552279
-0.0656274
-0.0157321
0.0494776
-0.0708296
0.010948
0.0372498
-0.0647631
0.0254923
0.0275512
-0.0428542
0.0193673
0.0413896
-0.0358822
0.00625856
0.0184009
-0.00551049
0.00325986
0.00717693
-0.00425522
0.00392486
0.00323919
-0.0039588
0.0033417
0.00521869
-0.00470509
0.00555347
-0.0038729
-0.00281118
0.00978227
-0.0018932
-0.00404733
0.0094795
-0.00310014
0.000396082
-0.00122579
0.00910857
-0.00156422
-0.00465273
0.0107767
0.00326595
-0.000394189
-0.0031742
0.0123012
0.00444986
-0.00272164
0.0337233
0.00685545
-0.000621978
0.000867823
0.0120586
0.0109975
0.00760827
0.0311709
-0.00158083
0.0116603
0.0524473
-0.00795711
0.0130957
0.0593045
-0.00646447
0.00446262
0.0574038
0.00497013
-0.0165351
0.0463605
0.0235899
-0.0404877
0.029833
0.0344405
-0.0631366
0.000975149
0.0315905
-0.0758355
-0.0173095
0.0228859
-0.0815266
-0.0283792
0.0186797
-0.0819231
-0.0360068
0.0152621
-0.0763628
-0.0422417
0.0104054
-0.0275555
-0.036437
-0.0441519
-0.00497438
-0.0160192
-0.0101449
-0.0160683
0.00284814
-0.0134954
-0.00709416
0.00160894
-0.00469271
0.000373282
-0.00816755
0.000849821
-0.00401807
0.00194086
-0.00769268
0.00141836
-0.00905012
0.0141832
0.00010209
-0.00834217
0.0145
-0.0015192
-0.00665974
0.0129753
-0.00193934
-0.00427782
0.0186991
0.00684731
0.0220547
0.0999221
-0.0498808
-0.00551598
0.00440431
0.0297178
0.00652639
0.0078021
0.00966298
-0.000137508
0.00844981
0.0129573
0.000816305
0.0134696
0.00197916
-0.0161528
-0.017104
-0.012724
0.027448
-0.0180516
0.0427606
-0.0162079
-0.0528453
0.09652
-0.0187251
-0.0557731
0.112821
-0.0111358
-0.0982062
-0.0489018
0.118028
-0.027858
-0.071045
-0.0306916
-0.0205857
-0.0268917
-0.0169601
-0.00649533
-0.0371127
0.0161599
-0.00397494
-0.0234217
-0.00590988
0.0261813
-0.00707289
-0.00960334
0.0150939
-0.0092313
-0.010514
0.0119101
-0.00707181
-0.0104355
-0.0114604
-0.00412196
0.0477702
-0.020382
-0.0120069
-0.00723702
0.000659648
-0.0114379
-0.009917
3.51941e-05
-0.00859094
-0.00873212
-0.00128014
-0.00515438
-0.00615493
-0.00135629
0.00117255
-0.00113808
-0.00494604
-0.00030912
-0.00942678
-0.000113881
0.000138003
0.00128549
-0.00231439
0.00129512
-0.00289209
0.00333118
0.00181305
-0.0032822
0.0040336
0.00201581
-0.00241062
0.0033878
0.00170145
0.00244979
0.000680061
0.00527324
0.0023195
-0.00130183
0.00576948
0.00334756
-0.000531797
0.00575472
0.00446742
-0.000500145
0.00473176
-0.000665364
-0.00778183
0.0105129
-0.00426478
-0.00733501
0.0104648
-0.00655593
-0.00614784
0.00965767
-0.0076028
0.00870869
-0.00820244
0.0072499
0.0114698
-0.0058969
0.00900251
0.013078
-0.00527163
0.00951179
0.0145367
-0.00468775
0.014365
-0.00317906
-0.0103873
0.016222
-0.00148705
-0.0102083
0.0172265
-0.00297488
-0.0101775
0.017134
-0.00419126
0.010087
-0.00422984
0.0127571
-0.000481474
0.0106319
-0.00171068
0.00821537
0.0225114
-0.00307421
0.00831962
0.0176436
-0.00061149
0.0166767
0.000549126
-0.0104913
0.0471938
-0.0242798
-0.00618627
0.0399766
-0.0267827
0.0435955
-0.027473
0.0330764
0.112705
-0.0572078
0.121504
-0.0434727
0.05388
0.128103
-0.0415837
-0.0199422
0.0575132
0.126288
-0.0130092
0.0523317
0.119575
-0.00268862
0.102528
0.00303557
-0.0482806
0.104579
0.00920226
-0.0561214
0.123084
0.00324848
-0.0550131
0.13157
-0.00747367
-0.0467212
-0.0138651
0.132656
-0.122525
-0.023631
0.127659
-0.0297357
-0.0134872
-0.0514129
-0.109021
0.0292888
0.113834
-0.101859
-0.0682823
0.113935
-0.0366983
-0.0482562
-0.0695073
-0.00279857
0.0144128
-0.0139478
-0.0187305
-0.0185868
-0.00942555
-0.00576967
-0.0127783
-0.00277234
-0.0135749
-0.00446804
0.00267039
-0.0139619
-0.00871058
0.00342461
-0.0124057
-0.0111059
0.00279827
-0.00957783
-0.0150563
0.00310282
-0.0112082
0.00130366
-0.0134307
0.0157032
-0.0143101
0.000733291
-0.0100036
0.000147256
-0.0157974
0.0142397
-0.00153679
-0.0170626
0.0115052
-0.00273357
-0.0182521
0.00961238
-0.00149992
0.0149361
-0.0256684
0.0111323
0.0250752
0.0189488
0.0208456
-0.0500699
0.0186747
0.0164418
0.0180887
-0.0282616
0.0301932
0.0163297
0.019461
-0.0474448
0.0211146
0.0137322
-0.0235139
0.018732
0.0391154
-0.0428077
0.00913713
0.015569
0.0203315
0.0451907
-0.00982391
-0.0166843
0.0259358
0.0286233
-0.0195613
-0.0147947
-0.0166613
-0.0197434
0.0103401
-0.0177105
0.00378353
-0.013157
-0.0173357
0.00439553
-0.0167143
-0.0128551
0.0034256
-0.0156697
-0.0146978
0.00244886
-0.0173835
0.00225378
-0.0173367
-0.0176041
0.0170374
0.000403244
-0.0167699
-0.000755206
-0.018757
0.0154008
-0.00202071
0.0128836
-0.0031694
0.0179699
0.0141375
-0.00286901
0.0171055
-0.00144766
0.0170276
0.0178313
-0.0174528
-0.000405819
0.0178931
0.00136704
-0.0156359
0.00286299
-0.0158924
0.000947557
0.0170438
-0.0151511
-0.00128378
0.0141983
-0.00222169
-0.00746698
-0.0157612
0.0231324
0.017215
-0.00136948
-0.0139051
-0.0165612
-0.0255659
-0.0236863
-0.00215816
-0.10431
0.0999974
0.0075062
0.00131913
0.0182172
0.0128617
0.0238084
0.0147334
-0.0200314
0.0180007
-0.00840504
0.0181948
-0.0122646
-0.00476774
0.00241112
-0.000490385
-0.00557251
0.00487114
-0.00588599
-0.0016689
-0.00210159
-0.00219445
-0.00378474
0.0132487
-0.000994528
-0.00319783
-0.00138965
-0.00339359
0.0162948
-0.0200685
-0.0116205
0.0154815
0.00677278
-0.011687
0.0172738
0.0089178
-0.0132874
0.0196347
0.00870419
-0.0141804
0.0220492
0.00862867
0.0288748
0.0116088
0.00962986
0.012743
0.0120691
0.00925099
0.0126654
0.00958343
0.00771772
0.0115287
0.00946843
0.00600364
0.0107102
0.00812356
0.0101407
0.00679956
-0.00188803
0.00329446
-0.0022403
0.00400289
-0.00282069
0.00459588
-0.00347225
0.00520222
0.00630142
0.00166729
0.0027828
0.00132464
0.000516861
0.000408473
0.00133671
-8.03534e-05
0.00189544
-0.00152064
3.07152e-05
-0.000895505
0.00178192
0.00100559
-0.000397307
0.000835716
-0.000515717
0.00176998
-0.00106628
0.0011826
-0.000635152
0.000315263
-5.93688e-05
0.00193092
-0.00158734
-3.16105e-05
0.00377829
-0.000669183
-0.00342893
0.0107453
-0.00603149
0.0033085
-0.0171769
0.00338877
0.016379
0.00362828
-0.0174216
0.019717
0.00681005
0.00277284
0.00662978
-0.0167132
0.0202496
0.000164984
0.00603964
0.0192744
-0.0147293
-0.0138227
0.0138716
0.00526559
0.0107414
-0.00738922
0.017501
-0.00761703
0.0168938
0.011127
-0.000171767
0.0195307
0.00714462
0.00347761
-0.00104942
0.00153869
-0.0033463
0.000470085
-0.00228064
0.0122878
0.00137524
-0.00230095
0.00104479
0.000580839
-0.000773137
0.0015657
-0.000566274
0.0016155
-0.000361338
-0.00131573
0.00110952
-0.00207491
0.000938958
-0.000225155
-0.000266595
-0.00158465
-0.000511798
-0.0020163
0.000247053
-0.00181026
0.00133179
-0.00135273
0.000424994
0.000106388
-0.00188537
0.000150521
-0.0013116
-0.000707089
-0.00116063
-0.00241282
0.00117575
0.0013272
0.000339952
0.000622869
-0.00119628
0.000446665
-0.00172301
-0.000492507
0.000485145
0.000452511
8.66457e-05
0.000122927
-0.000703431
0.00106254
0.000349576
0.000385018
-0.000797118
-0.00162208
0.00280082
-0.0007793
0.000432042
0.000139213
-0.000797995
-0.00113624
0.00376308
0.00143581
-0.000307541
-0.0028111
0.0118443
-0.00248469
-0.00122036
-0.0017218
0.000126993
-0.000816331
0.000361612
-0.000768575
0.000297969
1.96018e-05
-0.00113627
8.85639e-06
0.00183671
-0.000285799
-0.00154538
-0.00125655
0.00321593
-0.000868576
-2.95016e-05
-0.00113731
0.00114471
0.00198255
0.000321074
0.000308813
0.000893706
-6.03868e-05
0.0018569
-0.00144648
-0.000104957
-0.0013217
0.00296152
0.00021271
-0.000748053
0.000316881
0.00274404
-0.00394604
0.0128509
-0.00156868
-0.0176984
0.00130461
0.00694111
0.0237299
-0.0165129
0.0212042
0.00651274
-0.0176776
0.0219329
-0.00184954
-0.014535
-0.00433167
-0.0204975
-0.0215987
-0.00630405
-0.0216018
-0.00581312
0.0148907
-0.00207651
0.0193649
0.0311789
0.0369494
-0.0239482
-0.0987982
0.0649956
-0.09624
0.0696384
-0.106496
0.0711429
-0.0175721
-0.108261
0.0691928
-0.0252253
-0.104763
0.0687508
-0.0299386
-0.0967573
0.0684676
-0.0333687
-0.0857144
0.0666379
-0.0358631
-0.0700643
0.0615596
-0.0379149
-0.0528848
0.0580358
-0.0377814
-0.0439103
0.0449179
-0.0326716
-0.0073128
-0.0283126
-0.000241957
0.0373159
-0.0450542
0.00725396
0.0364486
-0.0446121
-0.00863764
0.0435924
-0.0281122
-0.0360142
0.0269378
-0.0523173
-0.0128723
0.0287082
-0.0596198
-0.0256473
0.0324469
-0.0607006
-0.0331025
0.033657
-0.0527933
-0.0415645
0.0331308
-0.0435727
-0.0395324
0.0298089
-0.0259174
-0.0376755
0.0195529
0.0081963
-0.0345525
0.0245374
0.0416805
-0.0586585
0.045951
0.0536055
-0.0757853
0.0698269
0.053735
-0.0784309
0.0910067
0.052417
-0.0744214
0.106386
0.048347
-0.0645829
0.113925
0.0401972
-0.048559
0.111804
0.0329629
-0.0316523
0.0972439
0.0296197
-0.0157798
0.0528628
0.0388745
0.00493302
0.0248787
0.0244569
0.00333077
0.0210483
0.00407689
-0.000351332
0.0195229
0.00055148
0.000871112
0.0164616
0.000336141
0.00261477
0.00995774
0.000168793
0.00623615
0.00984193
2.81636e-05
0.00836323
0.00249971
-0.00109165
0.00561744
0.00415985
-0.00146118
0.00612224
0.00118893
-0.00175656
0.00808194
0.00122235
-0.00326093
0.00880634
0.00231475
-0.00311698
0.00829753
0.00284153
-0.00240231
0.00785147
0.00266315
-0.00227171
0.0143051
0.000477672
-0.00700838
0.0361904
-0.00779428
-0.0143096
0.0638211
0.00648543
-0.0347344
0.0687407
0.0180147
-0.0236937
0.064588
0.0220117
-0.0186932
0.0540368
0.0230595
-0.0133814
0.0365672
0.0221232
-0.00555815
0.00563167
0.0193449
0.0106684
-0.0274261
-0.00887839
0.0409989
-0.0445314
-0.0367581
0.0529179
-0.0470379
-0.057498
0.059052
-0.0374265
-0.072267
0.061698
-0.0164558
-0.080404
0.0584695
0.012044
-0.0750364
0.0455753
0.0250595
-0.0465318
0.0325545
0.0211709
-0.0369221
0.0398878
0.0110522
-0.0291469
0.0383618
-0.00271685
-0.0230745
0.0360159
-0.00717599
-0.0249405
0.0285973
-0.0378851
0.0299594
-0.0534377
-0.0172512
0.0320055
-0.0608171
-0.0329856
0.0395538
-0.0616691
-0.0485194
0.0484963
-0.0538574
-0.0639869
0.0552995
-0.0319682
-0.0810401
0.0582517
-0.0027426
-0.0832105
0.0531084
0.00483468
-0.0495612
0.041118
-0.00908202
-0.02907
0.0421764
-0.0211702
-0.0284843
0.0397862
-0.00765157
-0.0578711
0.0436139
-0.0496487
0.0401491
-0.00929533
-0.0655003
-0.000869596
0.0209904
-0.053822
-0.0352201
0.0289224
-0.039054
0.00176179
0.03578
-0.0523326
0.0155104
0.0369038
-0.0829209
0.0313112
0.047928
-0.127538
0.0323638
0.0592145
-0.123291
0.0300184
0.0600664
-0.0957152
0.0299447
0.0535693
-0.0712866
0.028358
0.0421517
-0.0491691
0.0267408
-0.0266749
0.0258117
-0.0319735
-0.0446133
0.0259659
-0.0334868
-0.0510499
0.0224864
-0.0283316
-0.0595536
0.0165054
-1.62853e-05
-0.0708063
-0.0050393
0.0379026
-0.107065
-0.00689616
0.0577265
-0.116581
0.0153473
0.065564
-0.10832
0.0272137
0.0618321
-0.0884881
0.0337255
0.044735
-0.0609409
0.0402896
0.0131863
-0.0245425
0.04623
-0.0194417
0.0173747
0.0336264
-0.0403201
0.0325647
0.00947872
-0.0536386
0.038284
-0.00284763
-0.0609194
0.0391897
-0.010824
-0.0631387
0.0368243
-0.0175068
-0.0277075
-0.0234473
0.0285681
-0.0350528
0.00538627
-0.0114535
-0.00616993
-0.0156243
0.00828211
-0.0110826
-0.0153972
0.00472672
-0.00993313
0.0263461
-0.0129858
-0.00125119
-0.00612948
0.0216652
-0.00965917
-0.00514332
0.0169644
-0.00576592
-0.0074071
-0.00519064
-0.00674257
0.000610745
-0.00560755
-0.0104496
0.000858212
-0.00545736
-0.0120979
0.00078279
-0.00497267
-0.0124199
0.000400302
0.00678052
-0.00856584
-0.000578472
0.00949412
-0.00225922
-0.00452234
-0.000215273
-0.00218979
-0.00212122
-0.00109517
-0.00138136
-0.000198483
-0.00130677
0.000407517
-0.00107802
-0.00615753
0.0186402
-0.00545327
-0.0160493
0.00167138
0.0313801
-0.00936081
-0.0178601
0.0821854
-0.0399963
-0.0415962
-0.00492989
0.0864685
-0.039938
0.0110532
0.0851553
-0.0342301
0.0159284
0.078781
-0.0271919
0.0192468
0.065874