/*--------------------------------*- C++ -*----------------------------------*\
| =========                 |                                                 |
| \\      /  F ield         | OpenFOAM: The Open Source CFD Toolbox           |
|  \\    /   O peration     | Version:  v2012                                 |
|   \\  /    A nd           | Website:  www.openfoam.com                      |
|    \\/     M anipulation  |                                                 |
\*---------------------------------------------------------------------------*/
FoamFile
{
    version     2.0;
    format      ascii;
    class       volScalarField;
    location    "15";
    object      alphat;
}
// * * * * * * * * * * * * * * * * * * * * * * * * * * * * * * * * * * * * * //

dimensions      [1 -1 -1 0 0 0 0];


internalField   nonuniform List<scalar> 
18258
(
0.00552364
0.00301816
0.00263854
0.00230084
0.00144895
0.00223547
0.00284709
0.0033457
0.00343327
0.00326153
0.00324465
0.00527051
0.00723251
0.0087599
0.00919314
0.00938272
0.00863306
0.00843201
0.00828278
0.0102739
0.00872334
0.00569494
0.0069676
0.00805468
0.00807161
0.00699979
0.00567979
0.00535919
0.00499829
0.00436307
0.00388091
0.00326213
0.00228019
0.00187344
0.00155123
0.00161355
0.00162768
0.00161261
0.0015324
0.00141902
0.00116154
0.0012093
0.0012427
0.00131224
0.00134538
0.00118134
0.00189608
0.00218932
0.00175709
0.00187962
0.00186803
0.001832
0.00218235
0.00191796
0.00130634
0.00131366
0.0010892
0.00127364
0.00151875
0.00162262
0.0017266
0.00180991
0.00187823
0.00194112
0.0019923
0.00207686
0.00215845
0.00217392
0.00213744
0.00208242
0.00203378
0.00199007
0.00196688
0.00193532
0.00186811
0.00174507
0.00156598
0.00130873
0.00120267
0.00162449
0.00206953
0.00216922
0.00307049
0.00382799
0.00362973
0.00259598
0.00183491
0.00196678
0.00223643
0.00234595
0.0021886
0.00249559
0.00286379
0.00305784
0.00327033
0.00358869
0.00400725
0.00405485
0.00365588
0.00348704
0.00337965
0.00330767
0.00303337
0.00389617
0.00402936
0.00396224
0.00388706
0.00413174
0.00502818
0.00488068
0.00396335
0.00357321
0.00345382
0.00330168
0.00295893
0.00309076
0.00286464
0.00252787
0.00288826
0.00341428
0.00324238
0.00346533
0.00368939
0.00355043
0.00411461
0.00463728
0.00485861
0.00392216
0.00346321
0.00317761
0.00313476
0.00187322
0.00206193
0.00215258
0.00224941
0.00231473
0.0023492
0.00237899
0.00236418
0.00235627
0.00233779
0.00237205
0.00130816
0.00143376
0.00146169
0.00147044
0.00145636
0.00144043
0.00140028
0.00134245
0.00128779
0.00120163
0.00148216
0.00184139
0.00213986
0.00232085
0.00245153
0.00253428
0.00261882
0.00271258
0.0027908
0.00282597
0.0028473
0.00278353
0.00266309
0.00275097
0.00276399
0.00271224
0.0025859
0.00239468
0.00214431
0.00178263
0.00137795
0.00131292
0.00148717
0.00142429
0.00141112
0.00129728
0.00116881
0.00119982
0.00139655
0.00149863
0.00159732
0.00167005
0.00173671
0.00174332
0.00171399
0.00164703
0.00202591
0.00239788
0.0036264
0.00435165
0.00501553
0.00540774
0.00590975
0.00474219
0.00523444
0.0040497
0.0036533
0.00464425
0.00616791
0.0034999
0.00190844
0.00359624
0.00327798
0.00256329
0.00231778
0.00244032
0.00246205
0.00231936
0.0022279
0.00210918
0.00195615
0.0017958
0.00187726
0.00188312
0.00204796
0.00209732
0.00219943
0.00199634
0.00240373
0.00189344
0.00194806
0.00194705
0.00179764
0.00238665
0.00232493
0.00191948
0.00180198
0.00216126
0.00243312
0.00317102
0.00346413
0.00370338
0.00404963
0.00523504
0.00475889
0.00464665
0.0036629
0.00349351
0.00190786
0.00272023
0.00271714
0.003111
0.00206872
0.00194055
0.00193929
0.00238363
0.0020212
0.00182449
0.00201265
0.00249918
0.00186018
0.00195562
0.00198539
0.00182179
0.00168173
0.00191461
0.00188053
0.00161993
0.00168691
0.0020774
0.0020398
0.00160287
0.00177937
0.00268262
0.00269116
0.00198095
0.00435835
0.00336715
0.00386498
0.00417746
0.00455905
0.00560259
0.00496804
0.00459697
0.00522127
0.00406207
0.00375021
0.00383786
0.0033928
0.00281808
0.00330286
0.00375831
0.00412498
0.00459529
0.00500019
0.00550527
0.00619462
0.00605024
0.00570587
0.00493945
0.00349336
0.00282778
0.00260517
0.00227437
0.00340941
0.00537422
0.00552782
0.00306302
0.00184492
0.00214232
0.00239293
0.0023181
0.00170613
0.00105887
0.00170213
0.00177494
0.00171427
0.00158765
0.00142956
0.00141697
0.00218299
0.00353868
0.00435254
0.00473352
0.00506573
0.00532652
0.00550538
0.00559505
0.00563931
0.00566109
0.00566535
0.00566786
0.00562927
0.00548625
0.00480085
0.00298591
0.00174391
0.0016312
0.00180525
0.00194485
0.00207182
0.00176731
0.00107316
0.00172326
0.00220646
0.00252885
0.00255017
0.00238229
0.00231313
0.00364762
0.00485012
0.00572559
0.00590558
0.00598108
0.00590347
0.00587148
0.0057077
0.00561906
0.00488671
0.00357189
0.0039362
0.0042385
0.00431149
0.00443913
0.00462933
0.00455823
0.0043012
0.00610112
0.00706659
0.0071533
0.00726234
0.00700614
0.00671672
0.006301
0.00590286
0.00493421
0.00367667
0.00229996
0.00232447
0.00244701
0.00238752
0.00204505
0.0022399
0.00250658
0.00253818
0.00265092
0.00306982
0.00349954
0.00328823
0.00282126
0.00247238
0.00231232
0.00228788
0.0022027
0.00167877
0.00169625
0.00163584
0.00165023
0.00214798
0.00251324
0.00291914
0.00422313
0.00375229
0.00300713
0.00507162
0.00506974
0.00567878
0.00630338
0.00650671
0.00759678
0.00483944
0.00423221
0.00434389
0.00351927
0.00319771
0.00318065
0.00318145
0.00284264
0.00314815
0.00313714
0.00301638
0.003338
0.003855
0.00511811
0.00630984
0.00671653
0.00698063
0.00719214
0.00729225
0.00711056
0.00701825
0.00601816
0.00598137
0.00575515
0.00557587
0.00549363
0.00519081
0.00604742
0.00632978
0.00644812
0.00663761
0.00688312
0.00683576
0.00660901
0.00640327
0.00623238
0.00605149
0.00615711
0.00633517
0.00652386
0.00675077
0.00700387
0.00700283
0.00678176
0.00655976
0.00637402
0.00619919
0.00620986
0.00636387
0.00653366
0.00672995
0.00689409
0.00672123
0.00661501
0.0064477
0.0062903
0.00614155
0.00591143
0.00608224
0.00625942
0.0063854
0.0064027
0.00546771
0.00592523
0.00583523
0.00527206
0.0049196
0.00372595
0.00403024
0.00426088
0.00463788
0.00512768
0.00521754
0.0043271
0.00367723
0.00351304
0.00347151
0.00352979
0.00357332
0.0036546
0.00417518
0.00721008
0.00717699
0.00696741
0.00686411
0.00562166
0.00544333
0.00514814
0.0111977
0.0100396
0.00829262
0.00622122
0.00316448
0.00271312
0.00321656
0.00390591
0.00437696
0.0048678
0.00324892
0.00195645
0.00224349
0.00224521
0.002085
0.00186494
0.00150767
0.0013905
0.00123029
0.00133297
0.0024545
0.00397471
0.00439025
0.0055111
0.00653486
0.00738768
0.008137
0.00873248
0.009192
0.00953078
0.00975216
0.00992062
0.00999977
0.00940224
0.00807161
0.00491433
0.0028146
0.00250057
0.00262419
0.0026704
0.00296236
0.00301088
0.00265182
0.00259216
0.00264864
0.00443556
0.0074178
0.00844166
0.00911944
0.00947057
0.00962458
0.00943128
0.00891516
0.00831369
0.00767808
0.00689675
0.00578959
0.00488229
0.00496468
0.00459
0.00278022
0.00165898
0.00143198
0.00150185
0.00179585
0.00198232
0.00208153
0.00210683
0.00186965
0.00316906
0.00500245
0.00318663
0.00170478
0.00179868
0.00173833
0.0030852
0.00314163
0.00315194
0.00482133
0.00527694
0.0054297
0.00510949
0.00482662
0.00293274
0.00337076
0.00336789
0.00336366
0.00339379
0.00170882
0.00187793
0.00195979
0.00214935
0.00185911
0.0022198
0.000560817
0.000831514
0.000948652
0.00104786
0.00112053
0.00108622
0.00210978
0.00220379
0.00212618
0.00200718
0.00253045
0.00270193
0.00271288
0.00246335
0.00226983
0.00243027
0.00246885
0.00235129
0.00221251
0.00227018
0.00225063
0.00215391
0.00183077
0.00171598
0.00188757
0.00188013
0.00187717
0.00336933
0.00335688
0.00316001
0.00527026
0.00521025
0.00583253
0.00574612
0.00557549
0.00534425
0.00530958
0.00560873
0.00579156
0.00590301
0.00591908
0.00584454
0.00909087
0.00577134
0.00499661
0.00286239
0.0027507
0.00193552
0.00170182
0.00200781
0.0021497
0.00233299
0.00228134
0.00240481
0.0024014
0.00255201
0.00237423
0.00211341
0.00324176
0.00346707
0.00339241
0.0034647
0.00338739
0.00337415
0.00334231
0.00327982
0.00320993
0.00190625
0.00186345
0.00218541
0.00229583
0.0024668
0.00249324
0.002545
0.00241999
0.00213427
0.00206695
0.00237321
0.00234333
0.00238337
0.00224655
0.00224366
0.00200607
0.00205582
0.00412984
0.00836605
0.00389438
0.00435018
0.00389896
0.00447835
0.0038947
0.00335639
0.00343984
0.00305222
0.00317832
0.00333748
0.00339282
0.00357027
0.00420318
0.00402653
0.00353355
0.00342913
0.00337041
0.00318192
0.00286148
0.00298861
0.00299629
0.00305349
0.00337822
0.00398077
0.00440633
0.00566854
0.00546114
0.00459132
0.00428247
0.00454066
0.0045934
0.00593718
0.00554952
0.00549098
0.00586291
0.00581642
0.00549238
0.00506991
0.00481621
0.00404646
0.00412505
0.00472898
0.00455724
0.00468887
0.00456752
0.00480426
0.00484821
0.0046009
0.00422259
0.00457419
0.00459419
0.00510639
0.00490783
0.004497
0.00404214
0.00439694
0.00447279
0.0051639
0.00478681
0.00448402
0.00404218
0.00401487
0.004602
0.0044837
0.00503684
0.00524777
0.0053108
0.00465242
0.00451337
0.00532593
0.00515522
0.00506427
0.0053343
0.00444304
0.00443302
0.00550073
0.00564265
0.0054231
0.00456817
0.0045337
0.00382559
0.00453332
0.00574096
0.0054882
0.00449591
0.00384305
0.00519727
0.00538855
0.0057501
0.00533398
0.00581276
0.00643045
0.00514713
0.00567134
0.00759235
0.00542907
0.0063222
0.00647157
0.00650249
0.00648538
0.00647447
0.00645041
0.00669861
0.0063601
0.00422304
0.00502764
0.00508895
0.00425996
0.00361123
0.00396977
0.00427139
0.00434123
0.00446562
0.00464906
0.00456971
0.0042917
0.00614108
0.00712579
0.00721178
0.00728081
0.00701197
0.00675448
0.00637989
0.00601181
0.0050403
0.00376482
0.00236447
0.00240228
0.0025476
0.00250994
0.00215721
0.00161704
0.00106663
0.00159462
0.00167489
0.00159238
0.00146165
0.00130799
0.00138623
0.00249901
0.00401152
0.0044004
0.0052971
0.0065539
0.00744416
0.00823383
0.00885631
0.00933287
0.00965969
0.0098488
0.00993272
0.0099592
0.00927632
0.0089811
0.00861974
0.00837432
0.00790256
0.0071265
0.00781513
0.00833225
0.00858707
0.00895585
0.00918692
0.00940988
0.00869091
0.00842921
0.0082857
0.0103714
0.0087568
0.0110548
0.0134552
0.0106453
0.0100951
0.0101836
0.0108669
0.0106423
0.0102854
0.00990205
0.00950985
0.00897199
0.00939699
0.00975636
0.0100997
0.0104613
0.0112196
0.011162
0.0110411
0.0108066
0.0103805
0.00976376
0.00892868
0.00782335
0.00628798
0.00503499
0.00463855
0.00428536
0.00241786
0.00275522
0.00275518
0.00277454
0.00280462
0.00128851
0.00141135
0.00142504
0.00143535
0.00134762
0.0015522
0.00224254
0.00396285
0.00282576
0.0023506
0.00144432
0.0016697
0.00280656
0.00462958
0.00503198
0.00493517
0.00576663
0.00697916
0.00779721
0.00845917
0.00907516
0.00959526
0.00975871
0.00952135
0.00911481
0.00847171
0.00821222
0.00798103
0.00773416
0.00742748
0.00689569
0.00675232
0.00655845
0.00637399
0.00618082
0.00585303
0.00535413
0.00531564
0.00526618
0.00488798
0.00423263
0.00424164
0.00461768
0.00496374
0.0052651
0.00547813
0.00559843
0.00565834
0.00569163
0.0057031
0.00571093
0.0056754
0.00553216
0.00483925
0.00301034
0.00175706
0.00162499
0.00178226
0.00188506
0.00192931
0.00171522
0.0011068
0.0017225
0.00223456
0.00228888
0.00251416
0.00258783
0.00272924
0.00296291
0.00342122
0.00354292
0.00315185
0.00294619
0.00285825
0.00278234
0.00234629
0.00296115
0.00330273
0.00330142
0.00329678
0.00359272
0.00442383
0.00425656
0.00373936
0.00366912
0.00362623
0.00325107
0.00322552
0.00354747
0.0035892
0.00374986
0.00440436
0.00529364
0.00489863
0.00446267
0.00424956
0.00392773
0.003421
0.00309481
0.00387862
0.00336424
0.00182565
0.00170239
0.00150134
0.00147686
0.00142835
0.00167301
0.00175267
0.00178643
0.00166483
0.00184371
0.00203836
0.00195241
0.00213879
0.00213356
0.00194812
0.0019128
0.0020179
0.00211264
0.00222155
0.00222667
0.00372351
0.00394275
0.00303651
0.00450205
0.00503317
0.0048772
0.00525803
0.00430527
0.00392072
0.00471319
0.00538649
0.00606598
0.00473069
0.00454302
0.00462521
0.00208332
0.00109606
0.0015461
0.0019314
0.00220319
0.002154
0.00203512
0.0017209
0.00306472
0.00314411
0.00487826
0.0054126
0.00538014
0.00522816
0.00571595
0.00694356
0.00784901
0.00844697
0.00888511
0.00905673
0.00889098
0.00843046
0.00783863
0.00764015
0.00746634
0.00726855
0.00709761
0.00680979
0.00654409
0.00624577
0.00584874
0.00580672
0.00543039
0.00434175
0.00458223
0.00498278
0.00522197
0.0053543
0.00549805
0.00563358
0.00575218
0.00584847
0.00591373
0.00596093
0.00597477
0.00590263
0.00532138
0.0031837
0.00190014
0.00173125
0.00184754
0.00217007
0.00228281
0.00245172
0.00218067
0.00115228
0.00135907
0.0023752
0.00261321
0.00241402
0.00225743
0.002233
0.00186727
0.00336775
0.00333509
0.00521828
0.00586481
0.0059438
0.00591595
0.00584783
0.0057631
0.00565418
0.00555411
0.00564445
0.00591875
0.00608764
0.00582905
0.00485775
0.00514598
0.00601748
0.00625541
0.00661248
0.00660973
0.00642987
0.00631068
0.00681703
0.00721478
0.00723067
0.00678964
0.00608751
0.00560557
0.00558212
0.00570403
0.00579405
0.00583481
0.00578673
0.00546627
0.00513566
0.00329271
0.00333127
0.00165281
0.00183113
0.00212129
0.00220032
0.00236887
0.00237105
0.00186509
0.0014488
0.00163472
0.00149967
0.00266426
0.00296167
0.00330694
0.00327731
0.00179495
0.00184669
0.00191279
0.00217368
0.00201614
0.00192161
0.00488604
0.00472574
0.00494109
0.0059267
0.00519246
0.00367337
0.00394273
0.00552589
0.00577148
0.00348514
0.00263052
0.00285688
0.00365522
0.00541431
0.00542192
0.00505398
0.00505429
0.00372177
0.00452643
0.00538937
0.00524738
0.00417791
0.00288209
0.00210839
0.00102586
0.00195461
0.00166554
0.00404696
0.00447609
0.00437543
0.00480549
0.00514444
0.00520714
0.00502186
0.00449214
0.00458366
0.00463185
0.00527626
0.00527542
0.00450526
0.00379425
0.00307496
0.00308528
0.00313296
0.00344286
0.00430833
0.00408962
0.00359426
0.00349234
0.00343294
0.00323424
0.0029203
0.00257206
0.00259151
0.00241585
0.00234192
0.00368979
0.00490466
0.00578933
0.00597299
0.00605283
0.0059794
0.00595373
0.00579576
0.0057157
0.0049787
0.00653904
0.00685042
0.00657924
0.00658914
0.00658678
0.00659273
0.00655282
0.00639648
0.00549282
0.00328045
0.00214011
0.00240764
0.00259238
0.0024326
0.0024157
0.00257707
0.00245134
0.00216042
0.00350831
0.00343165
0.00549408
0.00623581
0.00641183
0.00647203
0.00649906
0.00652638
0.00656865
0.00691682
0.00672296
0.00672279
0.00658049
0.00657981
0.00678392
0.0064495
0.00641666
0.00640038
0.00638394
0.00633298
0.00616389
0.0054314
0.0052842
0.00602716
0.00623133
0.00630853
0.00635141
0.00638902
0.00644705
0.0066421
0.00674559
0.0067994
0.0068759
0.00682738
0.00671192
0.0065191
0.00646474
0.00642727
0.0063816
0.00629978
0.00609188
0.00534094
0.00342411
0.0035042
0.00207835
0.00209089
0.00240005
0.00251581
0.00246715
0.00228072
0.00222296
0.003753
0.0042697
0.00459893
0.004929
0.00468082
0.00467104
0.0053848
0.0052026
0.00470175
0.00487068
0.00431623
0.00411676
0.003951
0.00395818
0.00212567
0.002298
0.00240155
0.00236685
0.00226493
0.00202685
0.00186073
0.00340989
0.00337731
0.00331299
0.00197105
0.00192157
0.00226372
0.00219331
0.00200257
0.00170611
0.00187426
0.00288756
0.00324178
0.00504227
0.00526036
0.00566914
0.00609136
0.0062734
0.00634943
0.00638379
0.00639553
0.00640531
0.00638925
0.00635135
0.00629397
0.00632976
0.0063834
0.00641891
0.00641436
0.0063855
0.00635726
0.00631265
0.006231
0.00604188
0.00561834
0.00521334
0.00591618
0.00600692
0.00615604
0.00630425
0.00637487
0.00639837
0.00637536
0.00634424
0.00628981
0.00621695
0.00613414
0.00598987
0.00607648
0.00616133
0.00624812
0.00631272
0.0063721
0.00636885
0.00631219
0.00618208
0.00604497
0.00596131
0.00582067
0.00600713
0.00611959
0.00615807
0.00622568
0.00630232
0.00631254
0.00625524
0.00611395
0.00597632
0.0058328
0.00571661
0.00555467
0.00581419
0.00595364
0.00606218
0.00617057
0.00626438
0.00635359
0.0063774
0.00634088
0.00623235
0.00614159
0.00608665
0.00596312
0.00603345
0.00615499
0.00620238
0.0062665
0.00633382
0.00633081
0.0062585
0.00611012
0.00595838
0.00579802
0.00565296
0.0054704
0.00526142
0.00539659
0.00550592
0.00567051
0.0058664
0.00608305
0.00619853
0.0062509
0.00622499
0.00619346
0.00617136
0.00606846
0.00608418
0.00618625
0.00619917
0.00620353
0.00618778
0.00608796
0.00592349
0.0056278
0.00541309
0.00533253
0.00537432
0.00526754
0.0051573
0.00532706
0.00546906
0.00566585
0.00589014
0.00613101
0.00626386
0.00631139
0.00627869
0.00623384
0.00618807
0.00606039
0.00606882
0.00620289
0.00624858
0.00627412
0.00626305
0.00615497
0.00596205
0.00570654
0.00550604
0.00541477
0.00536457
0.00526212
0.00539865
0.00552529
0.0055549
0.0054799
0.00554778
0.00578843
0.00597547
0.00611601
0.00617308
0.00619151
0.00618405
0.0060808
0.00605273
0.00616114
0.00616463
0.00613786
0.00608045
0.00600521
0.00598612
0.00584326
0.00565972
0.00565113
0.0055917
0.00544051
0.00531562
0.00543178
0.00544701
0.00549158
0.00572148
0.00595444
0.0060932
0.00621169
0.00624824
0.00623673
0.00619399
0.00605294
0.00599535
0.00613166
0.0061668
0.00617066
0.00611578
0.00599789
0.00588399
0.00576842
0.00572312
0.0058385
0.00562417
0.00548681
0.00559191
0.00575747
0.00604785
0.00596416
0.00604087
0.0060711
0.00599879
0.0060147
0.00606384
0.00608754
0.00608895
0.00598296
0.0058518
0.005939
0.005937
0.00595309
0.00593006
0.00598732
0.00622355
0.00631253
0.0061905
0.00618075
0.00580959
0.00563294
0.00552842
0.00567399
0.00604014
0.00599837
0.00601684
0.00596787
0.00593383
0.00600786
0.00605303
0.00601664
0.00598833
0.00588099
0.00569815
0.00555974
0.0053094
0.00549506
0.00547346
0.00544427
0.00548337
0.00553155
0.0056042
0.00614434
0.00598031
0.00579745
0.00588793
0.00610068
0.00625795
0.00575007
0.00576369
0.00564296
0.00546788
0.00540395
0.00540641
0.00524102
0.00551637
0.00564596
0.00542853
0.00503707
0.00321769
0.00319296
0.00310999
0.00301295
0.00290143
0.00279804
0.002767
0.00313718
0.00316534
0.00326513
0.00326052
0.00335612
0.00330929
0.00342061
0.00340282
0.00344001
0.00344765
0.00351576
0.00338105
0.0031614
0.00412913
0.00481362
0.00497284
0.00527884
0.00530261
0.00589835
0.00598179
0.00607187
0.00606703
0.00511475
0.00454181
0.00362077
0.0023314
0.00144344
0.00172482
0.00181916
0.00197786
0.00210716
0.00328924
0.00166558
0.00235151
0.00183971
0.00317864
0.00159257
0.00130361
0.000859186
0.00109032
0.00132076
0.00132502
0.00125493
0.00105196
0.000812459
0.000830572
0.000770371
0.000818554
0.000742193
0.000850175
0.000808061
0.00103652
0.00107602
0.00108325
0.00106918
0.000818011
0.000847331
0.000691649
0.000743815
0.000677309
0.0007307
0.000694935
0.000817948
0.00091161
0.000865557
0.000896369
0.000919045
0.000830159
0.000983754
0.0008891
0.00106514
0.000860448
0.00106244
0.000934388
0.00123924
0.00128478
0.00128697
0.00124452
0.000955584
0.0011874
0.000915591
0.00118676
0.000943403
0.00107598
0.000929643
0.00135499
0.0013952
0.00129575
0.00139636
0.00155222
0.00166039
0.00181459
0.00170077
0.00191193
0.00182817
0.00182247
0.00164641
0.00154966
0.00151635
0.00152966
0.00150273
0.00150129
0.00153224
0.00149187
0.0014699
0.00148474
0.00138805
0.00123699
0.00113638
0.000907962
0.000701249
0.00117455
0.00113996
0.00107522
0.00099221
0.000927834
0.000966731
0.00099563
0.0010327
0.00104869
0.00106919
0.00106599
0.00106696
0.00105936
0.00110315
0.000611067
0.000668213
0.000674897
0.000685046
0.000672464
0.000662185
0.000631329
0.000590196
0.000564512
0.000615045
0.000665795
0.000687773
0.000908736
0.00117361
0.00132734
0.00152898
0.00151341
0.00146644
0.00374546
0.00493161
0.00658168
0.00686065
0.00549693
0.00500871
0.00135897
0.00165937
0.00113266
0.00163711
0.0017084
0.00169142
0.00158337
0.00112265
0.00167388
0.00119018
0.00176226
0.00133919
0.00169787
0.00139984
0.00198328
0.00254072
0.00247946
0.00228296
0.00160587
0.00128444
0.00128601
0.00110187
0.00121884
0.000995845
0.00121792
0.00101478
0.00135377
0.0014179
0.00144781
0.00145162
0.00105975
0.00120427
0.000923652
0.00104989
0.000925085
0.0010802
0.00103345
0.00118035
0.00146884
0.00148886
0.00149544
0.00138772
0.00126925
0.00156071
0.00137676
0.00171031
0.00270209
0.0016971
0.00288514
0.00119704
0.00165553
0.00172173
0.00170965
0.00162047
0.0011075
0.00271178
0.00146135
0.00267041
0.00176317
0.002833
0.00204071
0.00267412
0.00321575
0.00335393
0.00335514
0.00272094
0.00239634
0.00245536
0.00194569
0.00233863
0.0017299
0.00250527
0.00143149
0.00182058
0.00188639
0.00187726
0.00179315
0.00137815
0.00262235
0.00169919
0.00232005
0.00180285
0.00221797
0.00191856
0.00192688
0.00219024
0.00220471
0.00226515
0.00211746
0.00182165
0.00248829
0.0017169
0.0597518
0.126257
0.0549382
0.13023
0.0543405
0.0783003
0.0768722
0.0767059
0.0770876
0.0563071
0.128657
0.155482
0.162296
0.164385
0.162754
0.262454
0.212733
0.316225
0.204026
0.12721
0.0627085
0.0920904
0.195344
0.305534
0.460782
0.596025
0.404953
0.422741
0.269708
0.265994
0.250184
0.199932
0.11746
0.0559376
0.011181
0.0127393
0.017466
0.0239718
0.0202792
0.0133259
0.0029854
0.00296986
0.00292589
0.00284837
0.00271775
0.00254171
0.00248529
0.00229527
0.00216266
0.00271412
0.00304363
0.0026178
0.00209782
0.00216596
0.00196805
0.00262685
0.00328045
0.00380841
0.00426377
0.0047352
0.00519747
0.00572399
0.00607767
0.00601998
0.00555295
0.00465886
0.00340269
0.00278687
0.00253641
0.00226377
0.00213622
0.0020524
0.00200911
0.00199419
0.00207679
0.00227751
0.00239496
0.00229997
0.00196878
0.00188196
0.00176401
0.00147113
0.00165982
0.00229861
0.00255227
0.00399648
0.00490754
0.00528418
0.00549969
0.00509569
0.00334116
0.00339024
0.00340176
0.00347287
0.00348138
0.00346031
0.00345507
0.00344044
0.0034307
0.00344689
0.00344695
0.00348187
0.00347536
0.00352311
0.00352412
0.0036734
0.00372116
0.00369784
0.00375055
0.00363189
0.00357921
0.00388067
0.00528271
0.00610697
0.00673306
0.00630176
0.00806232
0.00631575
0.00589038
0.00615365
0.00600205
0.00624867
0.00582528
0.00591864
0.00638687
0.0061275
0.00372626
0.00361451
0.00361218
0.00359226
0.00360941
0.00354257
0.00353101
0.00345145
0.00344263
0.00341512
0.00341032
0.00342508
0.00341459
0.00335604
0.00334293
0.00329332
0.00180907
0.00195862
0.00200881
0.00201287
0.00200807
0.00201174
0.0020345
0.00204129
0.00207132
0.00208089
0.00212863
0.00212497
0.00211222
0.00194992
0.00219493
0.00378323
0.00375995
0.00630937
0.00653294
0.00623978
0.00612975
0.00640809
0.0062309
0.00602265
0.00614567
0.00639955
0.00603445
0.00372832
0.00383147
0.00221532
0.0022073
0.00253819
0.00247189
0.00251539
0.00247968
0.00237793
0.00233848
0.00232339
0.00231191
0.00227782
0.0022645
0.00227122
0.00227575
0.00218351
0.00191034
0.00189745
0.00220138
0.0022687
0.00211062
0.00204072
0.00205546
0.00208982
0.00209745
0.00210613
0.0022132
0.00249674
0.00260343
0.00256405
0.00251497
0.00241082
0.00212229
0.00200759
0.00370858
0.0037874
0.00603726
0.00605661
0.00566043
0.00556674
0.00598706
0.00651153
0.00507678
0.00498286
0.00587362
0.00671192
0.0048909
0.00444314
0.00239308
0.00204059
0.00259883
0.00230363
0.00237573
0.0024731
0.00210736
0.00226891
0.00200856
0.00180672
0.0017486
0.00173225
0.00174286
0.00175149
0.00174716
0.00174279
0.00171259
0.00170097
0.00168255
0.00170184
0.00173531
0.0019225
0.0020556
0.00171732
0.00146508
0.00141188
0.00133503
0.00128772
0.00133084
0.00135548
0.00135897
0.00135985
0.00134614
0.00130336
0.00137601
0.00149917
0.00179955
0.00171413
0.00135106
0.00117902
0.000794337
0.000807507
0.000812328
0.000828318
0.000836178
0.000842813
0.000846099
0.000846552
0.000846847
0.000844768
0.000842925
0.000830624
0.000825389
0.000808818
0.000803334
0.00080072
0.000796395
0.000792371
0.001161
0.00128754
0.00140231
0.00166729
0.00193054
0.00163425
0.00137665
0.00120657
0.000780834
0.000788138
0.000787623
0.00078689
0.000785162
0.00078659
0.000784119
0.000778264
0.000769902
0.00076067
0.000756548
0.000746165
0.000738879
0.000744595
0.000741688
0.000752808
0.000778043
0.000795993
0.000816648
0.000826687
0.000841582
0.000857468
0.000875383
0.000893437
0.000904456
0.000916354
0.00092088
0.000933438
0.000942575
0.000956736
0.000958804
0.000955002
0.000956826
0.000961978
0.00162428
0.0022396
0.00290424
0.00328062
0.00310973
0.00258799
0.00281216
0.00517231
0.00491404
0.00297522
0.00272481
0.00247612
0.00219028
0.0018223
0.00162905
0.00167008
0.00198884
0.00253546
0.00299438
0.00340969
0.00383891
0.00427349
0.00499737
0.00534725
0.00511579
0.00423435
0.00340671
0.00268407
0.00233766
0.00218252
0.00211811
0.00222968
0.00228356
0.00225765
0.00223119
0.00226556
0.00229576
0.00228675
0.00212991
0.00197585
0.00160956
0.00167987
0.00294702
0.00304945
0.00419383
0.00465011
0.00498089
0.00323787
0.00326587
0.00193034
0.0018304
0.00198288
0.00204118
0.00204341
0.00203553
0.00203083
0.00203508
0.00202552
0.00202813
0.00202343
0.00205637
0.00205746
0.00206506
0.00191269
0.00215664
0.00241624
0.00241845
0.00236417
0.00229228
0.00228498
0.00229691
0.0023086
0.00229054
0.00228804
0.00230021
0.00230655
0.00220482
0.00221646
0.00191211
0.00186385
0.00315624
0.00304906
0.00180014
0.00206518
0.00215032
0.00206705
0.00229331
0.00213246
0.00206126
0.0020662
0.00208879
0.00207807
0.00205955
0.00206982
0.00219674
0.00242591
0.0024525
0.00215615
0.00214604
0.00238673
0.00220143
0.00179415
0.00150232
0.00142226
0.00133576
0.00127271
0.00131656
0.00133723
0.00134934
0.00135613
0.00135313
0.00133196
0.00129021
0.00134397
0.00142121
0.00147293
0.00172651
0.0019386
0.00175039
0.00171764
0.00169758
0.00170734
0.00171761
0.00174127
0.00174479
0.00173759
0.00172848
0.00171135
0.00170046
0.00170403
0.00173198
0.00180014
0.00200053
0.00724105
0.0096566
0.00996984
0.0184499
0.00624029
0.00718855
0.0170175
0.00527658
0.00908467
0.0103458
0.00998812
0.0106437
0.00979295
0.0132473
0.00780086
0.00862216
0.0101925
0.00973696
0.00226251
0.00203763
0.0016691
0.00136152
0.00116878
0.000732994
0.00101514
0.00115588
0.00128025
0.00128679
0.00130841
0.00129089
0.00130121
0.00128625
0.00129646
0.00125334
0.00122571
0.00117151
0.00118024
0.00117221
0.00115602
0.00110479
0.00109781
0.00107672
0.00104106
0.00102147
0.000984717
0.000970945
0.00095267
0.000944189
0.000926883
0.000912071
0.000893565
0.000879663
0.000867225
0.000851568
0.000831563
0.000812731
0.000802043
0.00117375
0.00128845
0.0014059
0.00165918
0.00199378
0.00211563
0.00194122
0.00183849
0.00175329
0.00214786
0.00208775
0.00545408
0.00644895
0.00544623
0.00563477
0.00805658
0.00634494
0.00306561
0.00290192
0.00280226
0.00293483
0.00172781
0.00197491
0.00183857
0.00192424
0.00167051
0.00140467
0.00129135
0.00116509
0.000801757
0.000804597
0.000809758
0.000825587
0.000830428
0.000841124
0.00084238
0.000844808
0.000845187
0.000840896
0.000837775
0.000830355
0.000825269
0.00081532
0.000806502
0.000792044
0.000786691
0.00076493
0.000761831
0.000758643
0.00113598
0.0012693
0.00140748
0.00170949
0.00621689
0.0069878
0.0102937
0.009986
0.0151428
0.00965165
0.00698515
0.00629279
0.00978163
0.0102197
0.0101197
0.0139902
0.00969938
0.0058929
0.00602361
0.00636607
0.00996448
0.0101747
0.00976347
0.0104898
0.00765993
0.00173573
0.00172175
0.00206716
0.00229401
0.00263136
0.00177167
0.00226097
0.00218639
0.00191544
0.00203377
0.0082564
0.0127926
0.00843585
0.00942871
0.0105576
0.00308363
0.0033158
0.0030765
0.00245435
0.00210896
0.00210907
0.00241692
0.00291562
0.0122232
0.0101901
0.00675544
0.00994751
0.0103945
0.0134154
0.0131769
0.0141164
0.0113601
0.010635
0.00769027
0.00533039
0.00520271
0.00559697
0.00607613
0.00816283
0.00826332
0.0167814
0.00535114
0.00685032
0.00587068
0.00837006
0.007157
0.0129371
0.00507881
0.00531564
0.00713899
0.00665583
0.0180413
0.00460551
0.00471326
0.00649239
0.00572701
0.00631477
0.00606784
0.00621228
0.00765937
0.00563234
0.00594412
0.00504528
0.00763675
0.00874664
0.00844571
0.00782643
0.00612515
0.0051981
0.00553347
0.00562727
0.00449869
0.0046322
0.00546899
0.00400609
0.00346939
0.00410068
0.000974659
0.000480828
0.000490487
0.000497154
0.000503432
0.00050923
0.000514158
0.00051666
0.000516956
0.000513245
0.000512286
0.000508785
0.000502593
0.000486249
0.000445844
0.000498849
0.000797967
0.000794653
0.000491807
0.000437529
0.000778329
0.00120422
0.0013725
0.00162925
0.0015984
0.00135628
0.00121813
0.000784249
0.000778956
0.000474791
0.000549012
0.00059188
0.000536953
0.000596172
0.000561059
0.000592947
0.000603262
0.000601297
0.000601473
0.00061021
0.000611286
0.000606985
0.000597519
0.000585224
0.000574998
0.000567628
0.000554459
0.000528006
0.000466431
0.000425298
0.000467979
0.000491835
0.000550917
0.000580192
0.00061034
0.000627732
0.000638917
0.000645754
0.000643293
0.000648979
0.000662882
0.000660306
0.000662297
0.000659682
0.000630579
0.000662943
0.000622271
0.000652347
0.000613953
0.000569685
0.000483417
0.000485657
0.000783186
0.000779548
0.00120499
0.00133456
0.00156417
0.0015197
0.00174813
0.00187729
0.00164594
0.00175181
0.00193435
0.00177437
0.00149461
0.00148942
0.00127351
0.00130427
0.00118386
0.000769021
0.000774625
0.000483882
0.000484397
0.000573051
0.000574604
0.000633854
0.000678495
0.000688487
0.000692641
0.000695823
0.000695577
0.000662363
0.000652834
0.000663291
0.000648879
0.000642671
0.000645434
0.000630827
0.000628716
0.000649304
0.000618764
0.000579759
0.000541113
0.000495507
0.000451865
0.00039728
0.000751309
0.000725107
0.000912851
0.00560077
0.00131405
0.00215108
0.00122644
0.00042598
0.000594938
0.00070885
0.000745065
0.000773066
0.000783801
0.000728101
0.000666708
0.000525317
0.000428355
0.000692106
0.000613296
0.000841463
0.000730745
0.000918901
0.00103964
0.000976318
0.000961946
0.000799508
0.000645205
0.000684419
0.000601868
0.000662531
0.000558954
0.000667738
0.000594438
0.000742562
0.000751269
0.000735973
0.000697215
0.000530031
0.000556954
0.000471512
0.000518308
0.000476849
0.000508745
0.000491465
0.000573228
0.000671346
0.000657653
0.00066583
0.000556028
0.000448835
0.000499146
0.00044518
0.00051023
0.000425652
0.000520632
0.000440014
0.000577558
0.000596955
0.000591075
0.000563442
0.000419843
0.000511854
0.000669978
0.000724757
0.000729719
0.000682579
0.000523707
0.000788218
0.000663491
0.000777737
0.000649621
0.000706255
0.000624989
0.000683092
0.00085848
0.000886176
0.000875561
0.00071414
0.000727717
0.00157085
0.111454
0.00142968
0.00171565
0.00179223
0.00179157
0.00148228
0.00143637
0.00182744
0.00133315
0.00192795
0.0012162
0.00210801
0.000804294
0.0012341
0.00132483
0.00132224
0.00122965
0.000817123
0.00229074