/*--------------------------------*- C++ -*----------------------------------*\
| =========                 |                                                 |
| \\      /  F ield         | OpenFOAM: The Open Source CFD Toolbox           |
|  \\    /   O peration     | Version:  v2012                                 |
|   \\  /    A nd           | Website:  www.openfoam.com                      |
|    \\/     M anipulation  |                                                 |
\*---------------------------------------------------------------------------*/
FoamFile
{
    version     2.0;
    format      ascii;
    class       surfaceScalarField;
    location    "15";
    object      phi;
}
// * * * * * * * * * * * * * * * * * * * * * * * * * * * * * * * * * * * * * //

dimensions      [1 0 -1 0 0 0 0];
oriented        oriented;


internalField   nonuniform List<scalar> 
50655
(
0.00412978
-0.00791477
0.00164722
-0.00756827
-0.00563308
0.0127629
-0.0089061
-0.00445084
0.0159834
0.00141687
0.00215053
-0.00498961
-0.00614586
-0.000924218
0.00671448
-0.00370253
-0.00157656
0.00515952
-0.00455427
-0.000665695
0.00660631
-0.00758775
-0.00968893
0.00893572
-0.0148581
0.0087954
-0.00372494
-0.0171546
-0.00722248
0.00940896
-0.0179145
-0.00757295
0.00823049
-0.0189895
-0.0078445
0.0088153
-0.037744
-0.0114642
0.0300248
-0.0665656
-0.0335116
0.0617731
-0.0621014
-0.0609286
0.0557672
-0.0380154
-0.079674
0.0548101
-0.00108342
-0.0910426
0.0533277
0.0198789
-0.0691114
0.0473385
0.0230009
-0.0479714
0.0440776
0.00374212
-0.0315158
0.0500091
0.000862906
-0.0477599
0.0499181
0.0033467
-0.0451357
0.0420952
-0.02886
0.0318782
-0.0251711
0.0192376
-0.0232273
0.00258556
-0.0752175
0.0469668
0.0288369
-0.0760631
0.0493157
0.0307796
-0.0221033
0.0198538
0.032738
-0.00229569
0.0392309
0.0168294
-0.0236447
0.03391
-0.0217391
0.0267841
0.0286338
-0.0130203
0.0181274
0.0240415
-0.00802836
0.0124937
0.0169925
-0.00607468
0.0130284
0.00860192
0.00151369
0.00683613
0.0075694
0.000689255
0.000324853
0.00694289
0.00253564
-0.00192643
0.0063403
0.00260893
-0.00202296
0.00590929
0.00241463
-0.00200078
0.0051284
0.00227587
-0.00151135
0.00341376
0.00183539
-0.000137347
0.000421554
0.00161183
0.00136408
-0.00191342
0.000294031
0.0020243
-0.00241509
-0.000463584
0.000948847
-0.00249137
-0.000392466
0.000451884
-0.00185266
-0.000557896
-9.69832e-05
-0.00103452
-0.000705886
-0.000129211
-0.000244085
-0.000808026
-0.000723648
-0.00177706
0.00223095
0.000882933
0.0041062
-0.00575461
0.00373968
0.00393591
-0.00684908
0.00068313
0.00462371
-0.00163405
-0.00201892
0.00438169
-0.00174642
0.00117314
0.00367379
-0.00692251
0.00272519
0.00410338
-0.00569713
0.00158139
0.002266
-0.00114784
0.000574817
0.000988935
0.000893546
0.00073123
-0.00106713
0.000279729
0.000608064
-1.04912e-05
-0.00126682
0.000702532
0.000827584
-0.00268072
0.000442738
0.000956226
-0.00423771
0.00059474
0.000948243
-0.00592811
0.000684357
0.00099266
-0.00744106
0.000459805
0.00104001
-0.0085715
-4.0203e-07
0.00111786
-0.00916174
-0.00061666
0.00119388
-0.00944466
-0.00099651
0.00126617
-0.00978947
-0.00107318
0.00140378
-0.00981773
-0.00135737
0.00137057
-0.00955916
-0.00130135
0.00102738
-0.00965402
-0.00100877
0.00108798
-0.0096981
-0.000641847
0.000669864
-0.0097675
-0.00031468
0.000368173
-0.00991499
-0.000178903
0.000310653
-0.00996698
-0.000302056
0.000338479
-0.00963197
-0.000871291
0.000520856
-0.00875327
-0.0016897
0.000795767
-0.00737209
-0.00255069
0.0011542
-0.00590571
-0.00269923
0.00121811
-0.00443514
-0.0024075
0.000923095
-0.00409162
-0.00185618
0.00150067
-0.00816904
-0.00234607
0.00639698
-0.0107112
-0.00694419
0.00942583
-0.0118353
-0.00504168
0.00610068
-0.0215317
-0.00225947
0.0118386
-0.0256704
-0.0220504
0.0258913
-0.0165539
-0.0254791
0.0160554
-0.00993635
-0.0120525
0.00530293
-0.00997631
-0.00344017
0.00340225
-0.0099077
-0.00366351
0.00350495
-0.00877539
-0.00502221
0.00378853
-0.00575609
-0.00560634
0.00249187
-0.00822742
0.00238612
-0.0142261
0.00250389
0.00340003
-0.0190588
-0.000165344
0.00488454
-0.0234615
-0.00238708
0.00665769
-0.0275132
-0.00377886
0.00768593
-0.0369187
-0.00327865
0.0125032
-0.0492271
-0.00420446
0.0162306
-0.0384345
-0.0247719
0.0136981
-0.0304475
-0.0164801
0.00830847
-0.0267015
-0.0119895
0.00809628
-0.0222567
-0.0109789
0.00639922
-0.016828
-0.0103095
0.00476449
-0.00960413
0.00161445
0.015292
-0.00214868
-0.0140495
0.0201532
-0.0156125
0.00032825
0.0235235
-0.0163603
0.00188533
0.0254999
-0.016875
0.00277634
0.0236558
-0.0164814
0.00170866
0.0666955
-0.0318121
-0.0426254
0.00604512
0.0274238
-0.0196683
0.032994
0.0211647
0.0224332
-0.00313901
0.00471655
0.0188585
-0.00316683
0.00283278
0.0146395
-0.000872925
0.00258257
0.00987782
0.00216492
0.00232164
0.00443024
0.00225144
0.00643556
-0.0117718
0.00462729
0.00737294
-0.00864026
0.00393708
0.00271327
0.00118891
-0.0109583
0.00156884
-0.00582799
-0.0153353
0.00484913
0.00518161
-0.00365904
-0.016522
0.00556723
-0.0183807
0.00496837
0.000118997
-0.0241633
0.004627
0.00135313
-0.0226021
0.00468994
0.00971867
-0.0287305
0.00485304
0.0212523
-0.0477179
0.0148797
0.021845
0.0259262
0.00533323
-0.054571
0.0205982
-0.0227191
0.0133396
0.0104565
0.0147678
0.00352428
0.00853306
0.00116603
0.00626119
0.00387303
0.0101693
-0.0188134
-0.00258941
0.00338
0.00310952
-0.00652687
0.0032942
0.0044991
-0.00608996
0.00284421
-0.00730712
0.00400791
-0.00999038
0.00248966
-0.0024038
0.00379475
-0.00773342
0.00214271
-0.00761283
0.0031927
-0.0115261
0.00160336
-0.000479696
0.00264824
-0.00825341
0.00136095
-0.0067816
0.00212739
-0.0117706
0.00105272
0.000799286
0.00164515
-0.00737247
0.00105793
-0.00673769
0.0012631
-0.00773642
0.000764978
-0.00129733
0.0008818
0.00447811
-0.0178155
-0.0014597
0.00704631
0.00587498
2.61532e-05
-0.000665024
0.0066189
0.00080039
-0.000497134
0.00683827
0.00120201
-0.000380933
0.00688831
0.00155821
-0.000260245
0.00664007
0.00207919
-0.000240831
0.00622722
0.00276158
-0.000219281
0.005434
0.00343863
-0.000168708
0.00431882
0.00400861
-6.15177e-05
0.0028655
0.00469341
4.22333e-05
0.00403509
0.000343853
0.00574989
-0.00472974
0.000593484
0.00756051
-0.00487016
0.000344933
0.00906144
-0.00441133
0.000343867
0.009667
-0.00240895
9.80196e-05
0.00977853
-0.00100273
4.24071e-06
0.00947089
-6.75703e-05
5.72862e-05
0.0091109
-0.000147054
0.000311942
0.00854791
-0.000427404
0.000659176
0.00806395
-0.00146036
0.00128604
0.00796743
-0.00254139
0.00161315
0.00835103
-0.00324763
0.00154708
0.00845432
-0.00349834
0.00202247
0.00831227
-0.00016333
-0.00198331
0.00120137
0.00859538
0.00103435
6.93063e-05
-0.00239653
0.00819267
0.00111641
0.000658508
-0.00200208
0.00712941
0.00122464
0.00111472
-0.00128964
0.00559494
0.0012802
-0.000616459
0.00131729
0.00381151
-9.16709e-05
0.00126801
0.00127794
0.00209738
0.000219985
0.00088648
0.0011886
0.000591516
0.000240121
0.00051292
0.00118061
-0.000791332
0.00145976
0.000609171
-0.0011191
0.00109099
-0.000171436
-0.000778745
-0.000930779
0.00130521
0.00157936
-0.00138615
0.00213369
-0.00140593
0.000835422
0.00191867
-0.000765186
0.000963301
0.000731421
3.94534e-05
0.00113125
-0.00163708
0.000705311
0.00164642
-0.00343743
-0.000120703
0.00190456
-0.00467843
-0.000705182
0.00192958
-0.00554238
-0.00128309
0.00213048
-0.0062991
-0.0013593
0.00209896
-0.0072084
-0.00113207
0.00202424
-0.00768677
-0.0016188
0.00207923
-0.00834431
-0.00181774
0.00245731
-0.0091059
-0.00191524
0.00265758
-0.0104095
0.00110633
0.000175391
-0.0187348
0.00145376
0.00682667
-0.0286333
-0.005642
0.0154248
-0.0323011
-0.0145476
0.0180504
-0.0386958
-0.0190785
0.025207
-0.0224535
0.015326
0.0151204
-0.0316381
0.0130663
0.0216986
-0.0142605
0.00761392
-0.00233389
0.00490004
-0.0303865
0.0272117
0.000792152
-0.014368
-0.0203053
0.00425161
-0.0336942
0.00501944
0.0387411
-0.0527914
0.000199827
0.0285928
-0.0488911
0.0149288
0.0121223
-0.00870265
0.0156512
-0.00868281
0.0116345
-0.00373163
0.0229246
0.0052757
0.0213847
-0.0124679
0.00825011
0.0112147
-0.00852129
0.0140036
0.00601678
0.0113325
0.000977072
0.00803343
0.00137367
0.00556069
-0.00255345
0.00318688
0.0066852
-0.00530871
0.00254388
0.00401543
-0.00108147
0.00259823
0.00342057
-0.00368651
0.0029016
0.000363159
-0.00141054
0.0031648
-0.00276915
-1.24958e-05
0.00241968
-0.00298644
-0.00143249
0.00150924
-0.00439774
0.000962681
0.00113413
-0.00298537
-0.0017497
0.000357096
-0.00388131
-5.76874e-05
0.000168263
-0.00222436
-0.00284276
-0.000239362
-0.00101457
-0.000349018
-0.00157315
0.00641203
-0.00465213
0.00184679
0.00531078
-0.00510962
-0.000471937
0.00761036
-0.000979404
-0.00327469
0.00781159
-0.000454702
-0.000639603
0.00603601
-0.00478759
0.00741492
-0.00428693
-0.000748548
0.00102773
0.00839438
0.00220433
-0.000428262
-0.00238542
-0.000445511
0.00815799
0.00230595
-0.00368336
-0.00154573
0.00308624
0.000869098
-9.57696e-05
-0.00132167
0.00124023
0.007392
-0.0105121
-0.00771741
0.00530755
0.00329452
0.0104115
-0.0187814
0.00967809
0.0078421
-0.00784922
-0.0237829
0.00753116
-0.00871249
-0.0231631
0.00464663
-0.0134063
-0.0247473
-0.016054
0.00450783
0.00408291
-0.0298501
0.00097143
-0.0225276
0.00481676
-0.015439
-0.0147257
0.00756803
0.0136482
0.00545805
-0.0345919
-0.0206746
0.00443746
0.015601
0.0126697
-0.0087303
-0.0403035
-0.00874124
0.0120928
-0.00386217
1.03672e-05
0.0136607
-0.00750118
-0.0149743
0.0132534
-0.00756348
-0.0144256
0.00871396
0.0138463
-5.954e-05
-0.00933259
0.0119007
-0.00408937
0.0103255
-0.00717249
0.000155089
0.00949477
0.00902246
-0.00658137
-0.0016817
0.00744233
0.00810732
9.72212e-05
-0.00637899
0.00887874
-0.00658766
-0.00222711
0.00741589
-0.00777544
-0.00176963
0.00241454
-0.00134217
-0.00190366
0.000566644
0.00618422
-0.00285125
-0.000193952
0.00760961
0.000681407
-0.00225645
0.0079221
0.00187209
0.00718995
-0.00127479
0.0014848
0.00475304
0.00318777
-0.000443314
0.00555414
0.00421301
-0.00040653
0.00466509
0.00282435
0.00270571
0.00123153
-0.00234715
-0.00453182
0.00728493
-0.000894901
-0.00314673
0.00627248
0.000598746
-0.00271183
0.00668561
-0.00285945
0.00804393
-0.0029972
0.000489179
-0.00814037
0.00219002
0.00140637
-0.00939388
0.00527472
0.00306111
-0.009382
0.0033114
-0.00301295
0.00353458
-0.00372534
0.0133758
-0.0070264
-0.0136053
0.0160567
0.00555469
-0.00389404
-0.0121215
-0.00542657
0.00728172
-0.00226399
-0.00868915
-0.00578843
0.00103428
-0.00165887
-0.00283846
-0.00402278
-0.00178005
-6.12823e-05
0.000101957
-0.00170832
-0.00123456
-0.000768312
0.00166604
-0.00079737
-7.61913e-05
0.000107104
-0.000800616
-0.000694732
-0.00109198
0.00259733
-3.73992e-05
-0.0072895
0.00121887
-0.00176073
0.00134451
-0.00229686
-0.00399656
-0.00619775
0.00250798
-0.00731846
-0.00867852
-0.00869008
0.0065383
0.00453992
-0.0143327
-0.00917061
0.000507206
0.00437852
0.00982762
-0.0223818
-0.00898692
0.0134533
-0.000661729
0.00414206
-0.0297153
-0.0071751
0.0114101
-0.002251
0.00524607
-0.0323135
-0.0035906
0.00509817
-0.00391237
0.00489868
-0.0318897
0.00108972
-0.000329048
-0.00496571
0.00367156
-0.0294985
0.00433698
-0.00411694
-0.00270513
-0.0255598
0.00760223
-0.00791803
0.00136886
-0.00509965
-0.0240156
0.0113934
-0.00874778
0.00130204
-0.00559347
-0.0219747
0.0147181
0.000195709
-0.00685578
-0.0102015
-0.0208404
0.01696
-0.00159491
-0.0085513
-0.00805991
-0.0218055
0.0165873
-0.0108248
-0.00490428
-0.020419
0.0146829
-0.0115097
-0.00467305
-0.0209866
0.0127046
-0.0073737
-0.00485953
-0.0279687
-0.00723499
0.0190276
-0.00488601
-0.0475735
0.014922
0.0106253
-0.00215048
0.0216033
-0.0191123
0.019626
0.00542878
-0.0174551
-0.0205115
-0.0108926
0.00608602
-0.00908465
-0.0114611
0.00546633
-0.00156453
-0.0113689
0.0070937
-0.00377744
-0.00913847
0.00682521
-0.0053772
-0.00721901
0.00667408
-0.00619993
0.00191804
-0.00682052
0.00187686
0.00373221
-0.00373822
0.00492217
0.00242808
-0.0055365
0.00652412
0.00366849
-0.00534996
0.00808463
0.00376227
-0.00540126
0.00780784
0.00383529
-0.00362817
0.00684953
0.00309365
-0.00218925
0.0101758
0.00114051
-0.00454138
0.0130406
-0.00310665
3.52217e-05
-0.0393823
0.0199435
0.0319037
-0.0791645
0.0154636
0.0236173
-0.101471
0.00988065
0.0116415
-0.114364
0.00279248
0.00925652
-0.121165
-0.00577512
0.0116822
-0.123994
-0.014489
0.0163998
-0.124921
-0.0216606
0.0216577
-0.124908
-0.0271355
0.0261934
-0.124153
-0.0311991
0.0295248
-0.122638
-0.0340772
0.0316591
-0.119509
-0.0361985
0.0321952
-0.112514
0.0306882
-0.0385181
-0.0952114
0.0247828
-0.0428456
-0.0495047
0.00889217
-0.0552182
-0.0213582
0.000992434
-0.0293581
-0.0117774
-0.00356657
-0.00609155
-0.0114962
0.0022904
-0.00262679
-0.0106286
0.00476638
-0.00570472
-0.00828641
0.00434285
-0.00676562
-0.00379307
0.00466797
-0.00924575
-0.00457402
0.00410102
-0.00339137
-0.00795497
0.000417097
0.00291299
-0.00765183
0.00294253
-0.0033169
-0.00966778
0.00192808
-0.0149066
0.00657871
-0.00143852
-0.0178319
0.00663405
-0.00381873
-0.0201276
0.00722467
-0.00503165
-0.025102
0.00660323
-0.00173351
-0.0559147
0.0183291
0.012287
-0.102329
-0.00509225
0.0509324
-0.11616
-0.0289216
0.0420328
-0.118321
-0.0391899
0.0405395
-0.114307
-0.0453357
0.0404997
-0.106118
-0.0502993
0.041253
-0.0937918
-0.0531659
0.0400155
-0.0770477
-0.055103
0.037539
-0.0576339
-0.0559223
0.0357426
-0.0305103
-0.0467673
0.019007
-0.0354232
0.00447418
-0.0512569
0.0325167
-0.0171502
-0.0586348
0.0370606
-0.0301854
-0.0601206
0.0387521
-0.0377923
-0.0527141
0.0389687
-0.0469012
-0.0437832
0.0359509
-0.0453843
-0.0258846
0.0252345
-0.0436001
0.0139213
-0.0402443
0.032187
0.04202
-0.060922
0.056453
0.055112
-0.0801439
0.0808374
0.0533085
-0.0785128
0.100148
0.0504714
-0.0706068
0.109785
0.0437934
-0.0542864
0.109849
0.0349291
-0.0358145
0.103418
0.028057
-0.0224367
0.0873883
0.0251382
-0.00982799
0.0465777
0.033226
0.00701152
0.0216374
0.0208101
0.00393391
0.017905
0.00321385
0.000413953
0.0157
7.23414e-05
0.00203006
0.0118768
-0.000275457
0.00398884
0.00615569
-0.000576754
0.00619933
-0.00180788
0.0078758
-0.00261832
-0.00734316
0.00805787
-0.00172438
-0.0108384
0.00983552
-0.000795276
-0.0118197
0.0107675
-0.000214576
-0.0114835
0.0107673
-0.00124084
-0.0176404
0.0184887
0.000201583
-0.0254523
0.0237248
-0.00214496
0.0211739
-0.0191111
-0.00431505
0.0150491
-0.0130582
-0.0033593
0.00796834
-0.00905982
-0.00296837
0.00753963
-0.00805383
-0.00265111
0.00716648
-0.0075928
0.0061948
-0.00701367
0.00453137
0.00536363
-0.000820253
0.00488632
0.00603629
0.000703124
0.0054904
0.00575636
0.00110139
0.00642476
0.00468329
0.0022724
0.0134273
0.00991954
-0.00197875
0.0186779
-0.00555961
0.000263563
0.0120807
-0.00348881
0.0100452
-0.0181243
-0.0109857
0.0411209
-0.0166225
-0.00638398
0.00480359
-0.00106485
0.00255281
0.00536357
-0.00899695
0.0059894
-0.00318377
0.00501148
-0.00252581
-0.00686645
0.000863691
-0.00791145
-0.0110024
-0.0141984
0.0156337
0.00153015
-0.0287502
0.00238788
0.00256103
0.00372178
-0.00950289
-0.0479962
0.00219416
0.00684966
0.00358588
-0.0542959
-0.0110003
0.0261622
-0.00150643
-0.0186995
0.00601399
-0.000832264
-0.0177608
0.00547064
-0.000460304
-0.0174293
0.00511308
0.000174803
-0.015918
0.00433198
-0.0117565
0.00391472
-0.017313
0.000917141
0.00423903
-0.0184697
-0.00197781
0.00309274
-0.0155512
0.000257497
0.00356048
0.00163364
-0.0414469
0.031127
0.00625302
0.00741131
-0.10388
0.0287981
0.0454448
0.020526
-0.115529
0.0399365
-0.0040036
-0.120309
0.0469929
-0.0150219
-0.118888
0.0570157
-0.0243836
-0.109398
0.0681988
-0.0347776
-0.0917682
0.0764939
-0.0445194
-0.0690092
0.0782697
-0.0485593
-0.045204
0.0800314
-0.0495382
0.0544216
-0.0329382
0.0614115
0.0575292
-0.0291754
0.069477
0.0644252
-0.0341467
0.0692065
0.064472
-0.0260742
0.0629505
0.0615957
-0.0188864
0.0531603
-0.00502785
-0.0882265
0.080248
0.00440274
-0.0981209
0.0844341
-0.0138523
-0.100175
0.0895479
-0.0239641
-0.0918058
0.0894771
-0.0343626
0.0811658
-0.0363192
0.0901041
0.102515
-0.0340741
0.096905
0.110107
-0.0283602
0.0932665
0.109471
-0.017214
0.0808493
0.104008
-0.0080473
0.0980775
0.00707769
-0.0790041
0.110364
0.0126844
-0.0915505
0.117332
-0.00169874
-0.0953319
0.122815
-0.0105232
-0.0891659
0.123421
-0.02044
0.117672
-0.0287497
0.0819393
0.126166
-0.0231705
0.0889317
0.131269
-0.0158172
0.086408
0.130846
-0.00648316
0.0747652
0.125517
0.0025225
0.117938
0.0160093
-0.0679528
0.121379
0.0183
-0.0782009
0.128894
0.00593345
-0.0791993
0.133892
-0.00302668
-0.0712245
0.133939
-0.0116235
0.128426
-0.0174048
0.0600435
0.125718
-0.0112791
0.0679818
0.131451
-0.0064261
0.0681881
0.13096
0.00174919
0.0590918
0.126715
0.0103396
0.119122
0.021292
-0.0474758
0.108584
0.0282372
-0.0576868
0.11746
0.0185233
-0.0560709
0.118545
0.00983613
-0.0482711
0.120693
0.00199548
0.118229
-0.00178754
0.0284112
0.0196983
0.0563259
0.0416532
0.0435682
0.0905117
0.0141496
0.0483196
0.090369
0.0225505
0.0311943
0.0479581
0.0462757
0.0394124
0.0454523
0.0381269
0.0502159
-0.0108759
0.02789
0.0150331
0.0131888
-0.0162262
0.0285241
0.0147515
-0.0131296
0.0315123
0.0131461
-0.00993328
0.0292882
0.0135822
-0.0308678
0.0239415
0.0384537
0.00205223
0.0258457
-0.0234616
-0.00567702
0.0352082
0.00644117
-0.03412
-0.00440488
0.0269207
0.00553522
-0.0339045
-0.00279492
0.0251886
-0.032199
0.0052307
0.0222793
0.00391307
0.00179174
0.00533283
0.00227557
0.0071048
0.0038381
0.00741834
0.00915644
0.00633244
0.00727962
-0.00179311
-0.0174905
0.0146901
0.00248206
-0.00155835
-0.000458001
0.00583656
0.00271467
-3.35139e-05
-0.00020313
-8.03318e-05
0.00382583
-0.00103569
-0.00231374
-0.000876403
0.00310563
-0.00220634
-0.000144556
0.00191437
0.00987142
0.0105321
0.0283358
-0.0465089
0.0064118
0.0130365
-0.00252204
-0.0053592
0.0517131
0.000347479
-0.0159888
0.00154793
0.00577698
-0.00605156
0.00485504
0.00237221
-0.00569403
-0.0200399
0.00603259
0.018822
-0.0111211
-0.00846977
-0.000492595
0.0145538
-0.00200397
0.0249961
-0.00571506
0.0416564
-0.0106974
0.027918
0.0678942
-0.045511
-0.0218577
0.0122568
0.00974817
0.0266523
0.00689277
-0.0155347
0.0105229
0.0120722
-0.00327254
-0.00966681
0.0106067
0.0124578
-0.00296953
-0.00967871
0.00930611
0.011158
-0.00103412
-0.00892985
0.00681565
0.00918477
-0.00772065
0.00092763
0.00368158
0.00698374
-0.00611771
0.00218068
0.00490985
-0.0048892
0.00358043
0.00423981
-0.00331196
0.0039112
0.00349487
-0.00245648
0.00314625
0.00683113
-0.00560299
0.00218934
0.0181039
-0.012613
0.0011209
0.0256058
-0.030893
0.0227704
0.00765459
-0.0183314
0.0355195
-0.0146703
-0.00430231
0.0257918
-0.0283078
0.0102393
0.00252637
-0.040847
0.025069
-0.013432
-0.0524267
0.0372734
-0.0266116
-0.0602758
0.0465844
-0.0396632
-0.0628486
0.0533284
-0.0516834
-0.0574237
0.0565477
-0.0628907
-0.0435243
0.0569775
-0.0717795
-0.0196603
0.0530107
-0.0777467
0.0132201
0.0464116
-0.0801253
0.0331919
0.0445875
-0.0653179
0.0271246
0.0574627
-0.052013
0.00922768
0.0260575
-0.0083789
0.00508764
0.0101371
-0.00607399
0.00647848
0.00451344
-0.00595888
0.00658263
0.00720799
-0.00738168
0.00814586
-0.00663064
-0.00655572
0.0148545
-0.00468887
-0.00677962
0.0131548
-0.00579836
-0.000305589
-0.00198216
0.0121506
-0.00234777
-0.00840851
0.016468
0.00716712
-0.00318882
-0.00714019
0.0193604
0.0052576
-0.008682
0.0638925
0.0157709
-0.0216387
-0.0050494
0.0524692
-0.0124196
0.00546068
0.0560316
-0.0210491
0.0209044
0.0611025
-0.0244707
0.0327248
0.0662673
-0.0220624
0.0387482
0.0655104
-0.015951
0.038232
0.0599429
-0.00707038
0.0328957
0.0503198
0.000628602
0.0213693
0.0352632
0.0125711
0.0062694
0.0169515
0.0222643
-0.0182864
-0.00244237
0.0362971
-0.0412043
-0.0216307
0.0393189
-0.050946
-0.0366214
0.02712
-0.0200606
-0.0304664
-0.0444311
0.0121335
-0.0120239
-0.0105003
-0.0103213
0.00376607
-0.0105794
-0.00781754
0.00249355
-0.00253348
0.000667642
-0.00590533
0.000893614
-0.00505045
0.00274034
-0.00900168
0.00245217
-0.0106177
0.0118902
0.000777608
-0.0102238
0.0128917
-0.000928194
-0.00853993
0.0120394
-0.00173262
-0.00970884
0.0178348
0.0098451
0.0267197
0.0927484
-0.0617953
-0.00061565
0.00560642
0.0298643
0.00897832
0.00900077
0.00860562
-1.26561e-05
0.00938076
0.011234
0.00119894
0.011027
0.00233621
-0.0173293
-0.0127551
-0.0138863
0.0226766
-0.0150178
0.0386965
-0.0142171
-0.057177
0.0802593
-0.00724964
-0.0623038
0.101801
-0.00509258
-0.0936545
-0.0553938
0.111662
-0.0260838
-0.0684969
-0.034906
-0.0252624
-0.0279128
-0.0230286
-0.0122423
-0.0385732
0.0157809
-0.00649821
-0.0239578
-0.00854022
0.0252124
-0.00935547
-0.0124781
0.0142753
-0.0110464
-0.0130638
0.00944143
-0.00819643
-0.0123376
-0.0114697
-0.00570687
0.0468176
-0.020304
-0.0119347
-0.00839639
0.000612828
-0.0115054
-0.0115029
-5.45255e-05
-0.00887839
-0.0105752
-0.00149984
-0.00519523
-0.00831252
-0.00196874
0.0031003
-0.00168536
-0.00621356
-0.000463038
-0.00928392
-0.00163564
-0.000696393
0.0013155
-0.00338345
0.000982477
-0.0040192
0.00341061
0.00185854
-0.00392167
0.00376462
0.00183731
-0.00276628
0.00322181
0.00160587
0.00232534
0.000642903
0.00570101
0.00211528
-0.00145894
0.00652913
0.00304058
-0.00072277
0.00684239
0.00407804
-0.00070786
0.00470655
-0.000740688
-0.00938712
0.0106197
-0.00494914
-0.00838506
0.0103993
-0.00743518
-0.00674644
0.00953752
-0.00824117
0.00855179
-0.00860628
0.00765279
0.0112588
-0.00610436
0.00980665
0.0129022
-0.00561731
0.0108588
0.0144402
-0.00519969
0.0144048
-0.00360831
-0.0115618
0.0161618
-0.00179846
-0.0109207
0.0170661
-0.00337326
-0.0104964
0.016872
-0.00449869
0.00987333
-0.00442113
0.01268
-0.000538011
0.0108354
-0.00175088
0.00875277
0.0221361
-0.00329493
0.00921343
0.0174154
-0.000900216
0.0165749
0.000325101
-0.0123169
0.0472098
-0.0241572
-0.00710137
0.0386721
-0.026617
0.0429739
-0.0271187
0.0376694
0.109666
-0.0577823
0.118162
-0.0429679
0.0575963
0.122876
-0.0452255
-0.0181331
0.0594197
0.117442
-0.00872215
0.0508013
0.103967
0.00533345
0.0781511
0.0152385
-0.0388057
0.0684926
0.0258082
-0.0528022
0.10213
0.0147456
-0.055457
0.119696
-0.000685497
-0.0486586
-0.0106235
0.125679
-0.118114
-0.0229524
0.122173
-0.0298005
-0.0154444
-0.0512898
-0.104637
0.0316341
0.108872
-0.0963614
-0.07034
0.107494
-0.0349095
-0.0465569
-0.0720371
0.00093642
0.0148916
-0.0144873
-0.0180247
-0.0174433
-0.008987
-0.0055319
-0.012442
-0.00265997
-0.0131406
-0.00474221
0.00275948
-0.0135381
-0.00908137
0.0036938
-0.0120628
-0.0114347
0.00310704
-0.00940994
-0.0154358
0.00344668
-0.0114463
0.00149551
-0.0131222
0.0153539
-0.0147744
0.00100024
-0.0104041
0.000443543
-0.0165712
0.0137088
-0.00102182
-0.0179788
0.0108635
-0.00233553
-0.0192443
0.00910733
-0.00132267
0.0144697
-0.0276971
0.0121883
0.0239263
0.0199798
0.0223279
-0.0519007
0.0177049
0.0173653
0.0194343
-0.0307098
0.0286571
0.0172545
0.0208732
-0.0492156
0.0202306
0.0145893
-0.0262579
0.0199667
0.0388269
-0.0450953
0.00974494
0.0166533
0.0208825
0.0423934
-0.0091053
-0.0154452
0.0269211
0.0259339
-0.0182347
-0.013866
-0.0158232
-0.0184366
0.0107661
-0.016836
0.0038583
-0.0136942
-0.0166017
0.00451925
-0.0160666
-0.0134128
0.00369874
-0.0151063
-0.0152924
0.0027988
-0.017962
0.0026669
-0.0167378
-0.0184391
0.0162844
0.000813951
-0.0175901
-0.000331449
-0.0198398
0.0146589
-0.00165796
0.0122194
-0.00306197
0.0189312
0.0133827
-0.00281636
0.0162446
-0.00120239
0.0178496
0.0168931
-0.0184083
-0.000195017
0.0170567
0.00167778
-0.0163667
0.00307405
-0.0167256
0.00106884
0.0160868
-0.0143372
-0.00128936
0.0134139
-0.00219341
-0.00680109
-0.0150134
0.0219822
0.0183919
-0.00158078
-0.0132456
-0.0154312
-0.0250314
-0.0232852
0.00284282
-0.110699
0.0951284
0.00704183
0.0010783
0.019152
0.0139595
0.0253441
0.0162794
-0.0192588
0.0191629
-0.00811764
0.0195402
-0.0115352
-0.00462245
0.00275898
-0.000479347
-0.0057893
0.00505157
-0.00533547
-0.00187345
-0.00248271
-0.00243908
-0.00396193
0.0141988
-0.000886315
-0.0033624
-0.001346
-0.00350621
0.0174505
-0.0205679
-0.0107192
0.016472
0.00655189
-0.0100816
0.0184785
0.00861186
-0.0111571
0.0209262
0.00850345
-0.0116932
0.0234071
0.00846466
0.0303078
0.0110287
0.00708116
0.0137304
0.0115001
0.00702184
0.0139971
0.0092901
0.00598055
0.0125791
0.00921755
0.0047689
0.0116827
0.00785342
0.0107841
0.00651318
-0.000966122
0.0032012
-0.000907923
0.00391909
-0.00101312
0.00450581
-0.00126217
0.00505367
0.00612193
0.00189154
0.00289828
0.000998023
0.000324263
0.00029306
0.00138022
0.000215794
0.00196227
-0.00197202
0.000299851
-0.000723561
0.00132261
0.00135979
-0.000504937
0.0011588
-0.00110985
0.00151326
-0.00111239
0.00099655
-0.00099713
0.000218309
-0.000335138
0.00201234
-0.00146574
-0.00033158
0.00414752
-0.00114305
-0.00356614
0.0105357
-0.00669107
0.00124517
-0.0181044
0.00520581
0.0163243
0.00173607
-0.0185087
0.0196413
0.00750838
0.00131837
0.00729242
-0.0179091
0.0200943
-0.000874762
0.00666714
0.019045
-0.0158123
-0.0147064
0.0135763
0.00563346
0.0102534
-0.0066577
0.0186182
-0.00681289
0.0161927
0.0116091
0.00106492
0.0190575
0.00722325
0.00382227
-0.000951808
0.00149995
-0.00311933
0.000569811
-0.00235347
0.0121125
0.00139191
-0.00233046
0.00162925
0.000528538
-0.000787803
0.00164933
-0.000586484
0.00168314
-0.000331005
-0.00141143
0.00115467
-0.00210612
0.000985828
-0.000233651
-0.000307091
-0.00156687
-0.000596802
-0.00196931
0.000235136
-0.00178574
0.0012721
-0.00134546
0.00046001
0.000116648
-0.00192338
0.000140063
-0.00124834
-0.000785428
-0.00104576
-0.00245637
0.0011671
0.00151461
0.000485505
0.000754146
-0.00107792
0.000465425
-0.00178858
-0.000516402
0.000447188
0.000533123
6.56429e-05
0.00022511
-0.000808507
0.00110707
0.000471452
0.000506465
-0.000711764
-0.00168821
0.00290304
-0.00080594
0.000624646
7.50178e-05
-0.000658257
-0.00114469
0.0039158
0.00177291
-0.000178317
-0.00253262
0.011654
-0.00231796
-0.00112127
-0.00179446
0.000379042
-0.000851877
0.000535399
-0.000807727
0.000229196
0.000180685
-0.00126413
0.000204516
0.00190331
-0.000210145
-0.00149198
-0.00114551
0.00342354
-0.000897783
0.00028453
-0.000929784
0.00133819
0.00205749
0.000170092
0.000229464
0.000937628
0.000168528
0.00193642
-0.00187284
0.000162539
-0.0012144
0.0025686
0.000577853
-0.000863675
0.000583725
0.0025672
-0.00408473
0.0126274
-0.00287377
-0.0187995
0.00315108
0.00761068
0.0233966
-0.0175284
0.0208379
0.00698363
-0.0188561
0.0214718
-0.000218191
-0.0139477
-0.00317861
-0.0219528
-0.0230179
-0.00495492
-0.0231836
-0.00472616
0.0144299
-0.00645712
0.0212412
0.0331285
0.0386747
-0.0185976
-0.104329
0.0620764
-0.102017
0.0660275
-0.113231
0.0670958
-0.0146937
-0.115764
0.0646213
-0.0224247
-0.112784
0.063793
-0.0271635
-0.10496
0.0633257
-0.0307987
-0.093497
0.0613793
-0.0337205
-0.076832
0.0561918
-0.0362014
-0.0583105
0.0519621
-0.0356413
-0.0475268
0.0389591
-0.0314831
-0.0156109
-0.027853
-0.00653952
0.0350994
-0.0448384
0.00775733
0.0300044
-0.0449693
-0.0073056
0.0434194
-0.0287682
-0.0367974
0.0290527
-0.0522962
-0.014894
0.0299252
-0.0587524
-0.0279193
0.0338723
-0.0595993
-0.0356543
0.0359746
-0.0515649
-0.045034
0.0364731
-0.0423943
-0.0438498
0.0341761
-0.0245587
-0.0426616
0.0243587
0.01394
-0.0389377
0.0332312
0.0405084
-0.0604369
0.0593062
0.0531845
-0.0800264
0.0863262
0.0509346
-0.0787756
0.106762
0.0474922
-0.0687535
0.116384
0.0407761
-0.0512547
0.116547
0.0325268
-0.0335122
0.110168
0.0264153
-0.0208465
0.0934605
0.0243646
-0.00837737
0.0497708
0.0336528
0.00946341
0.0231262
0.0217617
0.00468651
0.0192494
0.00326769
0.000504338
0.0173968
-5.62548e-06
0.00175545
0.0141384
-0.000205787
0.00335384
0.00813455
-0.000259404
0.00616424
0.00862952
-0.000582644
0.00701978
0.00312064
-0.00158157
0.00451226
0.00381657
-0.00135619
0.00507773
0.00161621
-0.00224454
0.00667113
0.0018071
-0.00347943
0.00700552
0.00292913
-0.00334141
0.0062334
0.00333846
-0.00263598
0.00554116
0.00284653
-0.00220897
0.00985033
0.00137376
-0.00576006
0.0246566
-0.00218625
-0.0128389
0.0342424
0.0200212
-0.0302269
0.0162393
0.0349205
-0.0176803
-0.0103982
0.0314677
-0.00566797
-0.0271159
0.00569426
0.0101511
-0.0406225
-0.0134996
0.0261024
-0.0532514
-0.0277678
0.039475
-0.0619867
-0.0419023
0.0497008
-0.0650877
-0.0554343
0.0575903
-0.0594993
-0.0689237
0.0623832
-0.0447057
-0.0806399
0.0648889
-0.0199139
-0.0891935
0.0634381
0.0146361
-0.092344
0.056833
0.0346358
-0.0728436
0.0518825
0.0398587
-0.0615192
0.0553739
0.0380876
-0.0536364
0.0545042
0.02901
-0.0444409
0.0526916
0.0132482
-0.0373845
0.0523448
-0.0423489
0.0548481
-0.0655313
-0.0289753
0.0513601
-0.0756152
-0.0427382
0.0520116
-0.0760388
-0.0554084
0.0549574
-0.0652938
-0.068898
0.0572777
-0.0387211
-0.0865399
0.0590681
0.00356865
-0.101448
0.0582814
0.0264018
-0.0742239
0.0505254
0.0263251
-0.0465868
0.0458541
0.00254533
-0.0282493
0.0512436
-0.00103069
-0.0473046
0.0501427
-0.0463312
0.0424357
-0.0109575
-0.0674402
0.00926148
0.0093775
-0.069936
0.00141204
0.0122795
-0.0543766
0.0223508
0.0158999
-0.0780029
0.0269021
0.0167253
-0.114624
0.03865
0.0412158
-0.14814
0.0212622
0.0644749
-0.127233
0.0164882
0.0743313
-0.100807
0.0211206
0.0728305
-0.0808044
0.0259909
0.0616537
-0.0639137
0.0314923
-0.0446878
0.0391591
-0.0510106
-0.0710761
0.0320871
-0.0492501
-0.0820239
0.0256975
-0.0382222
-0.0914248
0.0179071
-0.008628
-0.106367
0.00293105
0.0289571
-0.134466
0.0035304
0.0523392
-0.130351
0.0167691
0.0652228
-0.119054
0.0245292
0.0680108
-0.101072
0.0283641
0.0613357
-0.0807218
0.0309727
0.0486719
-0.0600874
0.0298667
0.0311673
-0.0389997
0.0277651
0.0118485
-0.0171399
0.0220016
-0.00486477
0.0119074
0.00955914
-0.0207466
0.0508387
-0.00441868
-0.0338471
0.0575076
-0.0104067
-0.0196508
-0.013357
0.0437925
-0.0255992
0.00769628
-0.00748641
-0.00866528
-0.0113495
0.0130382
-0.00752893
-0.0113067
0.0083755
-0.00730428
0.0212208
-0.00938218
0.00501076
-0.00476429
0.0149306
-0.006903
-0.00680709
0.0253987
-0.00382716
-0.00985448
-0.00737588
-0.00527017
0.00102498
-0.0076158
-0.00805895
0.000919339
-0.00663632
-0.00894601
0.00035516
-0.00530078
-0.00897147
6.79888e-05
0.00440899
-0.00619298
-0.000724578
0.00746602
-0.00170658
-0.00343782
-0.00024885
-0.00127678
-0.00191613
-0.000979195
-0.000978279
-0.000482509
-0.000882268
0.000383014
-0.0017196
-0.00455167
0.0156091
-0.00635163
-0.0138071
0.00271691
0.0256834
-0.00976157
-0.0133233
0.0600691
-0.035172
-0.0415933
0.0111681
0.048691
-0.0344061
0.0271927
0.0225807
-0.0206343
0.0401488
-0.00490293
-0.0017972
0.0384893
-0.0214785
0.0186756