/*--------------------------------*- C++ -*----------------------------------*\
| =========                 |                                                 |
| \\      /  F ield         | OpenFOAM: The Open Source CFD Toolbox           |
|  \\    /   O peration     | Version:  v2012                                 |
|   \\  /    A nd           | Website:  www.openfoam.com                      |
|    \\/     M anipulation  |                                                 |
\*---------------------------------------------------------------------------*/
FoamFile
{
    version     2.0;
    format      ascii;
    class       volScalarField;
    location    "80";
    object      nut;
}
// * * * * * * * * * * * * * * * * * * * * * * * * * * * * * * * * * * * * * //

dimensions      [0 2 -1 0 0 0 0];


internalField   nonuniform List<scalar> 
22960
(
0.00387819
0.0021431
0.00182128
0.00159276
0.000939733
0.00137099
0.0015607
0.00185506
0.0017805
0.00155786
0.00142121
0.00232763
0.00332088
0.00399477
0.00409843
0.00409681
0.00398789
0.00430581
0.00510681
0.00558131
0.00506905
0.00320889
0.00437929
0.00536592
0.00435453
0.00330409
0.0029094
0.00393128
0.00446204
0.00449832
0.00458042
0.00458906
0.00463455
0.0046562
0.00473114
0.00477978
0.00494082
0.00504153
0.00516627
0.00576624
0.00601217
0.00608908
0.00622825
0.00628729
0.00638446
0.00645683
0.00653451
0.00659203
0.00660932
0.00696227
0.00728191
0.00711148
0.00700521
0.00689855
0.00670023
0.00588359
0.00379847
0.00229867
0.00214259
0.00228981
0.00239084
0.00243908
0.00209609
0.00111745
0.00146308
0.00170552
0.00209577
0.00206478
0.00186257
0.0017589
0.00287497
0.00385428
0.00445415
0.0045498
0.00459506
0.00454808
0.00455256
0.0044652
0.00444138
0.00392688
0.0029251
0.00335266
0.00391412
0.00392219
0.00330196
0.00248105
0.00413609
0.00467818
0.00460569
0.00497246
0.00548409
0.00586907
0.00594292
0.00579437
0.0048233
0.00355515
0.00217375
0.00217807
0.00228369
0.0022098
0.00187812
0.00148317
0.000927673
0.00154861
0.0017566
0.00159357
0.00145782
0.00129016
0.00141572
0.00253677
0.00461587
0.0053009
0.00529427
0.00521119
0.00516228
0.00515127
0.00514385
0.00534455
0.00550784
0.00564327
0.00591148
0.00616382
0.00621168
0.00543476
0.00328784
0.00187526
0.00168203
0.00179007
0.00184251
0.00210207
0.00210803
0.00182557
0.00174732
0.00187781
0.00301529
0.00531171
0.00594602
0.00586986
0.00562964
0.00534641
0.00516576
0.00495285
0.00470423
0.00466163
0.00470123
0.00480363
0.00492736
0.00496115
0.0044083
0.00250989
0.00153754
0.00138382
0.00146328
0.00176217
0.00181805
0.00194868
0.00159844
0.000958025
0.0016
0.00199114
0.0021152
0.00215913
0.00227764
0.0025422
0.00285982
0.00277834
0.00247775
0.00224067
0.0020945
0.00200696
0.00183615
0.00165691
0.0012892
0.000797997
0.00134405
0.00145669
0.00137425
0.00127364
0.00115832
0.00125101
0.00219548
0.00353061
0.00398323
0.00400596
0.00389861
0.00368517
0.00342277
0.00319981
0.00359801
0.00391823
0.00416298
0.00434351
0.00442288
0.00437492
0.00386684
0.00228837
0.00128878
0.00116172
0.00130855
0.00138978
0.00140522
0.00117067
0.000709937
0.00112972
0.00151759
0.00170582
0.00174942
0.00169554
0.0017
0.00169012
0.00163926
0.00144986
0.00108129
0.0007369
0.000792489
0.000908793
0.000984736
0.00105126
0.00114826
0.00127817
0.00141325
0.00153198
0.00161731
0.00166291
0.00167349
0.00164825
0.00157598
0.00137304
0.00130363
0.00210729
0.00276836
0.00292952
0.00287863
0.00263917
0.00223877
0.00160342
0.00103237
0.00101965
0.00104743
0.000855156
0.000604383
0.000420243
0.000354611
0.000195942
0.000203858
0.000248246
0.000264515
0.000282519
0.000220556
0.00019252
0.000366377
0.000484486
0.000573571
0.000639772
0.000693249
0.000736233
0.000738768
0.000728662
0.000684396
0.000468086
0.000310593
0.00041441
0.000509019
0.000472677
0.000436086
0.000349758
0.000323632
0.000543976
0.000618699
0.000694773
0.000638148
0.000573281
0.000586927
0.000602023
0.000613408
0.000623945
0.0006222
0.0006258
0.00061573
0.000614588
0.00059353
0.000585762
0.000543135
0.000523599
0.000471187
0.000446346
0.000447561
0.000577378
0.00078085
0.00133046
0.0020771
0.0025058
0.00276268
0.00295329
0.00299662
0.00409102
0.0040122
0.00356296
0.00288007
0.00234685
0.00140123
0.000867848
0.000792266
0.000804561
0.000732141
0.000709922
0.000598454
0.000669348
0.000759492
0.000940723
0.000957159
0.000749839
0.000810102
0.000838633
0.000882406
0.000893577
0.000918295
0.000917422
0.000934141
0.000925643
0.000936534
0.000920986
0.000926712
0.000924896
0.000942406
0.000979893
0.00103885
0.000827935
0.00111371
0.00132219
0.0012388
0.00123198
0.00168339
0.00218987
0.00230855
0.0038433
0.00441823
0.00398715
0.00214667
0.00205737
0.00146445
0.000957184
0.000993513
0.00110367
0.0011164
0.00104759
0.00102216
0.00104993
0.00112436
0.00113732
0.00112931
0.00111909
0.00110425
0.00108265
0.00105026
0.000943696
0.000897562
0.00118511
0.00153056
0.00166626
0.00267814
0.00371587
0.00433073
0.00360692
0.00438965
0.00492575
0.00518766
0.00522837
0.00527807
0.00524586
0.00587086
0.00587158
0.00580056
0.00566759
0.00540385
0.00491527
0.00409801
0.00477289
0.00524698
0.00564846
0.00586942
0.00606535
0.00616403
0.00618382
0.00616865
0.00630725
0.00640736
0.00661147
0.00665918
0.00662494
0.00648789
0.00620699
0.00528349
0.00321736
0.00172885
0.00151457
0.00158086
0.0015816
0.00160136
0.00145139
0.000909757
0.00142627
0.00194769
0.00210754
0.00204642
0.00184261
0.00173931
0.00279674
0.00377755
0.00442039
0.00454712
0.00464313
0.00456771
0.00447285
0.00387344
0.0029164
0.00180413
0.00167386
0.00129823
0.000991923
0.0010349
0.00113015
0.000973838
0.000748155
0.000580539
0.000657952
0.000620054
0.000605368
0.000603489
0.000598979
0.000595203
0.000597996
0.000592766
0.000596453
0.000587426
0.000589878
0.000570981
0.000566538
0.00052597
0.000509775
0.000459588
0.000427951
0.000416341
0.000524051
0.000716905
0.00127311
0.00205827
0.00242784
0.00271413
0.00294272
0.00299599
0.00345007
0.00325252
0.00267648
0.00286374
0.00237172
0.00254812
0.00283072
0.00366344
0.00384161
0.00440811
0.00421394
0.00383738
0.00357467
0.002821
0.00287376
0.00256591
0.00130508
0.0021302
0.00186138
0.00118544
0.0011804
0.000893695
0.00105613
0.00137428
0.00123101
0.00117528
0.0022936
0.00196027
0.00207932
0.00218856
0.00231464
0.0035252
0.00253981
0.00257459
0.00405345
0.00349769
0.00293656
0.00303047
0.00354447
0.00344769
0.00322304
0.00295521
0.00327355
0.00321949
0.00323258
0.00319974
0.00319194
0.00318226
0.00316877
0.00332776
0.00345066
0.00365978
0.00375577
0.00378632
0.00372873
0.00349273
0.00324735
0.0012017
0.000451222
0.000516363
0.000617803
0.00073352
0.000872414
0.000985449
0.00109982
0.00127853
0.00127893
0.00118673
0.00108427
0.000957911
0.000790281
0.000487936
0.000293661
0.000264553
0.000456583
0.000750898
0.00104979
0.0011677
0.00164635
0.00156017
0.00234556
0.00393763
0.00423708
0.0045067
0.00464115
0.00467364
0.0045927
0.00396057
0.00256815
0.00257062
0.00265736
0.00260386
0.00258146
0.00258885
0.00253108
0.00248007
0.00214819
0.00196173
0.00136812
0.00117727
0.00140036
0.0015039
0.00163108
0.00161918
0.00181518
0.00171605
0.00176259
0.00169313
0.00151542
0.00138783
0.00228894
0.00327953
0.00398805
0.00412699
0.00418699
0.00402856
0.00382672
0.00318829
0.00235124
0.00143932
0.00131764
0.00101441
0.000768512
0.000794
0.000858631
0.000729512
0.000549222
0.000411858
0.000362981
0.000214621
0.000224249
0.000275255
0.000285555
0.000291423
0.000233804
0.000218623
0.00043537
0.000563856
0.000649777
0.00071387
0.000771796
0.000813063
0.000814843
0.00080383
0.000748212
0.000451707
0.000304808
0.000403451
0.000488056
0.000457155
0.000424848
0.000341891
0.000316669
0.000523659
0.000475521
0.000526009
0.000599283
0.000640059
0.000677654
0.000689737
0.000694222
0.000706312
0.000786013
0.000916377
0.00119492
0.00166526
0.00190914
0.00222074
0.00222047
0.00215555
0.00207385
0.00193664
0.00176555
0.00155085
0.00127053
0.000754107
0.000502705
0.000478493
0.00136894
0.0013966
0.00150959
0.00203423
0.00220878
0.00190679
0.00307218
0.00325876
0.00475542
0.00432883
0.0043784
0.00454258
0.00460241
0.00453885
0.00406959
0.00397353
0.0044328
0.00450511
0.00444612
0.00428647
0.00442301
0.00448997
0.00316494
0.00331651
0.00191185
0.00195959
0.00231577
0.00220223
0.0019503
0.00197842
0.00172952
0.00160441
0.00150886
0.00158996
0.00156098
0.0019122
0.00206392
0.00226058
0.00232903
0.0023082
0.00233561
0.00240826
0.00240851
0.0021975
0.00201376
0.00147016
0.00123579
0.00134224
0.00164587
0.00177232
0.00185125
0.00177043
0.00170814
0.00169763
0.00173685
0.00180031
0.00174125
0.00167597
0.00145813
0.00152484
0.00152765
0.00150116
0.00149467
0.00149504
0.00151157
0.00153268
0.00152071
0.00133298
0.00122328
0.00129181
0.00125147
0.00129641
0.00143698
0.00152073
0.00156273
0.00155205
0.00157936
0.0015648
0.00156312
0.00150643
0.00146607
0.00151934
0.00155298
0.00163519
0.00168345
0.00161906
0.00193048
0.00189453
0.00217569
0.00224915
0.00212046
0.001829
0.001635
0.00301389
0.00288434
0.00287651
0.00179891
0.0018566
0.0021761
0.0020341
0.00199335
0.0017624
0.00159039
0.00155535
0.00158527
0.0015762
0.00157304
0.00154008
0.00153459
0.00150313
0.00145197
0.00136246
0.0013755
0.00136071
0.00133905
0.00122371
0.0011008
0.00107181
0.000982826
0.00124415
0.00132887
0.00128144
0.00131698
0.00152345
0.00143163
0.00133838
0.00250568
0.00166706
0.00111901
0.00112061
0.00112087
0.0011213
0.00111835
0.00111108
0.00109413
0.00106225
0.00101104
0.000881334
0.00141351
0.00227844
0.00279195
0.00347407
0.00396237
0.00405975
0.00471686
0.00470177
0.00475165
0.00479306
0.00482357
0.0048209
0.00473161
0.0040799
0.00316938
0.00282506
0.0025706
0.0027621
0.00298689
0.00312867
0.00192658
0.00210091
0.00215208
0.00224936
0.00256143
0.00305817
0.00320954
0.00293626
0.00275887
0.0026172
0.00247904
0.00218592
0.00257184
0.00279755
0.00286066
0.00288123
0.00311019
0.00378434
0.00392588
0.00378893
0.00339835
0.00337611
0.00330002
0.00334826
0.00334405
0.00333103
0.00353155
0.00452358
0.00474593
0.00449699
0.00449811
0.00475502
0.00451123
0.00409628
0.00414732
0.00223991
0.000597623
0.00247588
0.00305979
0.00426109
0.00382813
0.00307608
0.00267277
0.00362535
0.00347291
0.00432447
0.00442496
0.00392979
0.0043838
0.00435146
0.00457874
0.00475404
0.00418315
0.00384208
0.00400488
0.0041934
0.00425772
0.00406612
0.00427341
0.00421388
0.00442559
0.0044568
0.00381026
0.00460263
0.00349695
0.00299987
0.00485566
0.00552213
0.00620995
0.00691709
0.00744076
0.00794294
0.00848561
0.00906787
0.00931278
0.00946423
0.00895312
0.00828994
0.00773459
0.00727562
0.0068999
0.00661011
0.00638541
0.00614305
0.00604795
0.00582749
0.00542257
0.00581033
0.00610774
0.00633494
0.00653862
0.0067057
0.00682892
0.00697081
0.00748032
0.00751326
0.00752186
0.00738586
0.00717732
0.00692751
0.00656819
0.00563594
0.00334116
0.00197468
0.00179042
0.00184414
0.00204921
0.00201032
0.00202531
0.00171092
0.000974553
0.00123901
0.00187443
0.00219903
0.00217821
0.00219036
0.00226945
0.00202134
0.00351759
0.00361958
0.00571018
0.00671929
0.0071552
0.00751091
0.00788611
0.0082293
0.00842294
0.00853237
0.00767251
0.00732659
0.00709161
0.0068533
0.00662113
0.00639467
0.00614597
0.00632273
0.00654321
0.00677412
0.00708044
0.00747239
0.00799321
0.00869614
0.00976167
0.00934946
0.00876459
0.00820378
0.00770381
0.00726255
0.00679991
0.00612963
0.00549612
0.00352759
0.00360172
0.00194293
0.00208129
0.00229338
0.0022916
0.00228756
0.00224643
0.00191415
0.00145582
0.00171816
0.00161541
0.00283277
0.00315301
0.00344864
0.00353202
0.0020676
0.00207439
0.00213411
0.00224959
0.0021737
0.00215301
0.00307086
0.00306739
0.00310654
0.00319796
0.00328321
0.00241251
0.00266979
0.00341522
0.00335142
0.00285907
0.00275484
0.00289298
0.00283693
0.00349422
0.00341576
0.00326914
0.00327353
0.00247368
0.00270046
0.00337228
0.00325589
0.00258746
0.00234601
0.00261179
0.00098074
0.00185382
0.00153018
0.00259398
0.00321148
0.00344853
0.00406539
0.00394047
0.00387528
0.00380473
0.00314483
0.0029052
0.00266749
0.00372314
0.00367561
0.00305319
0.00311995
0.00351691
0.00326302
0.00403796
0.0041165
0.00387151
0.00368039
0.00243094
0.00361977
0.00373626
0.00383456
0.00363934
0.0032792
0.00290164
0.00267695
0.00323261
0.00322552
0.00321849
0.00274258
0.00229541
0.00183781
0.00260534
0.00281785
0.00338526
0.00325693
0.00311184
0.00239151
0.00246922
0.00178168
0.00200892
0.00210716
0.00194916
0.00165499
0.00289413
0.00443941
0.00503092
0.00509269
0.00509546
0.00505863
0.00496185
0.0043326
0.00277324
0.00273355
0.00280546
0.00278844
0.00279661
0.00279835
0.00273838
0.00281689
0.00277867
0.00281399
0.00282258
0.00284855
0.00289243
0.00290687
0.00296618
0.00460152
0.00437883
0.00451242
0.00433999
0.0042655
0.00440488
0.00445271
0.00439039
0.00415883
0.00390198
0.00377515
0.00422813
0.00428885
0.00431278
0.00436163
0.00441496
0.00437787
0.00427158
0.00421206
0.00401225
0.00427905
0.0045919
0.00468925
0.00459229
0.00442375
0.00437129
0.00431807
0.00462686
0.00433404
0.00436872
0.00487911
0.00497344
0.00500834
0.00499568
0.00490588
0.0044121
0.00279891
0.0015726
0.00185494
0.00200728
0.00200841
0.0018711
0.00177035
0.0018682
0.001895
0.00179441
0.00153244
0.00284441
0.00282619
0.00437828
0.00487505
0.0049732
0.00498476
0.00494427
0.0048465
0.00488567
0.00496909
0.00502027
0.00503433
0.0049863
0.00480363
0.00467872
0.00284324
0.00287935
0.00141397
0.00150367
0.00173697
0.0018227
0.00184588
0.00176094
0.00155731
0.00164641
0.0016046
0.00155541
0.0028869
0.0029379
0.00265863
0.00272163
0.00172452
0.00259351
0.00341119
0.00351662
0.00363861
0.00281352
0.00326302
0.00244348
0.00249574
0.00324107
0.0032209
0.00308244
0.00319559
0.00334504
0.00346444
0.00324123
0.00325736
0.00463288
0.00348119
0.00353626
0.00328979
0.00358559
0.00360052
0.00355182
0.00334211
0.00518974
0.00415815
0.00382217
0.00368904
0.00414547
0.00412573
0.00398374
0.00271518
0.00293764
0.003032
0.00310004
0.00351525
0.00346692
0.004136
0.00421437
0.00392599
0.00360664
0.00350399
0.00306446
0.00297027
0.00408649
0.00464067
0.00465255
0.00315958
0.00368139
0.00462007
0.00458654
0.0047225
0.00487047
0.00484764
0.00295515
0.00283858
0.00275371
0.0025874
0.00240353
0.00269524
0.00298563
0.00326427
0.00338573
0.00372082
0.00404631
0.00441702
0.00447608
0.0042197
0.00468153
0.0046198
0.00457076
0.00452267
0.0045045
0.00385791
0.00495958
0.00478978
0.00453957
0.00418067
0.00267762
0.00166984
0.00193485
0.0021631
0.00208799
0.00311484
0.00385248
0.0031163
0.00401466
0.00405343
0.0041846
0.00377082
0.00361161
0.00399267
0.00441601
0.00428025
0.00427851
0.0049534
0.00418751
0.00418583
0.00443921
0.0043599
0.00475516
0.00432788
0.00411424
0.00437327
0.00460798
0.00425116
0.00394657
0.00422683
0.00436777
0.00380695
0.00360736
0.00320032
0.00252363
0.00276417
0.00294552
0.00285405
0.00317771
0.00383535
0.0043288
0.00332225
0.00418942
0.00419047
0.00414917
0.00411046
0.00449062
0.00497604
0.0048098
0.00506713
0.00499811
0.00496048
0.00469779
0.0045777
0.00427644
0.00453649
0.00464923
0.00462849
0.00446107
0.00422693
0.00452994
0.00417082
0.00362987
0.00376044
0.00428688
0.00446604
0.0040219
0.00409826
0.00452887
0.00491527
0.00475944
0.00435406
0.00399139
0.00436559
0.00448145
0.0040169
0.00383007
0.00339744
0.00354479
0.00412137
0.00433227
0.0038053
0.0037927
0.0037272
0.00367806
0.00427368
0.00456574
0.0044812
0.00464952
0.00478385
0.00492229
0.00484263
0.00480256
0.00475355
0.00489681
0.00479127
0.0048465
0.00475657
0.00448112
0.00463451
0.00444682
0.00467321
0.00391781
0.00458859
0.00474446
0.00420237
0.0047767
0.00484831
0.00471523
0.00494488
0.00362454
0.00361698
0.0033492
0.00357643
0.00423981
0.00518124
0.00464106
0.00463152
0.0040263
0.00413084
0.00466459
0.00465371
0.00454259
0.0043066
0.00541451
0.00581355
0.00491787
0.00579241
0.00538282
0.00516134
0.00509159
0.00509733
0.0050664
0.00499616
0.00491793
0.00484306
0.00478737
0.00474539
0.00467997
0.00425765
0.00448178
0.00465831
0.00445208
0.00413712
0.00415854
0.00423883
0.00430462
0.00431126
0.00426491
0.00422355
0.00422633
0.00421866
0.00410836
0.00393358
0.00368388
0.00375251
0.00375491
0.00376751
0.00375512
0.00376536
0.00386648
0.00420013
0.00445198
0.00451713
0.00450511
0.00437106
0.00429075
0.00440846
0.00460698
0.0048237
0.00493169
0.0050113
0.00508859
0.00515888
0.00530793
0.00562565
0.00609262
0.00627284
0.00555946
0.00489574
0.00475062
0.00458777
0.00449245
0.00437763
0.00415677
0.00375364
0.00397057
0.00393128
0.00456989
0.00477117
0.00483989
0.00478985
0.00437513
0.00303526
0.00314637
0.00313066
0.00282947
0.00240464
0.00274364
0.00280462
0.00313136
0.00316769
0.00291815
0.00279733
0.00266959
0.0030084
0.00323053
0.00319501
0.00316819
0.00304798
0.00290853
0.0028036
0.00266831
0.00259816
0.00251556
0.00248384
0.00244178
0.00242546
0.00238632
0.00377666
0.00430303
0.00421881
0.00398328
0.00362502
0.00381681
0.00397374
0.00360223
0.00229165
0.00237662
0.00232792
0.00239411
0.00234984
0.00234888
0.00235682
0.00235631
0.00236208
0.00235439
0.00236626
0.00236058
0.00241942
0.0023705
0.00248366
0.00275434
0.00138464
0.00149189
0.00151086
0.00150093
0.00146563
0.0014464
0.00143876
0.00143013
0.00142823
0.00142803
0.00144305
0.00143686
0.00139811
0.00128087
0.00136101
0.00228734
0.0022537
0.00353676
0.00222466
0.00132718
0.00135118
0.00156329
0.00155865
0.00161943
0.00158508
0.00146108
0.00142369
0.00142839
0.00143757
0.00144742
0.00150485
0.00169118
0.00174995
0.00173409
0.00151647
0.00155018
0.00181044
0.00174428
0.00150112
0.00123149
0.00109808
0.00107585
0.00107453
0.00107162
0.00106679
0.00106044
0.00105339
0.00104492
0.00103601
0.00104878
0.00116403
0.00140002
0.00159486
0.00144763
0.0015229
0.00146154
0.00127558
0.00213547
0.00335
0.00209495
0.00123414
0.00140019
0.00129111
0.00135432
0.00116141
0.00120526
0.00133202
0.00115211
0.00106588
0.000948418
0.000899691
0.000927837
0.000938327
0.000949086
0.0009583
0.000964818
0.000969402
0.000951529
0.00101084
0.0011449
0.00125256
0.00146927
0.00162175
0.00137226
0.0011317
0.00102042
0.000912995
0.000643145
0.000633577
0.000623806
0.00062321
0.000637481
0.000646907
0.00064865
0.000648566
0.000641883
0.000632993
0.00061939
0.000576243
0.000581915
0.000595475
0.000609123
0.000609524
0.00061624
0.000626109
0.000632976
0.000639389
0.000634422
0.000631682
0.000635415
0.00064099
0.000641136
0.000635504
0.00063323
0.000629019
0.00062738
0.00062033
0.00061398
0.000605506
0.000600779
0.000596343
0.000591365
0.000581335
0.000574963
0.000565993
0.000829245
0.000916036
0.000997624
0.00118505
0.00139324
0.00152237
0.00134745
0.0022786
0.0036043
0.00224019
0.00131202
0.00147264
0.00134194
0.00112564
0.00108957
0.00110454
0.00114148
0.000963238
0.000979795
0.00101956
0.00093057
0.000837913
0.000570367
0.000577515
0.000580914
0.000590293
0.000593692
0.000596632
0.000599637
0.000606689
0.000611136
0.000615893
0.000614518
0.000616315
0.000617116
0.000621924
0.00062164
0.000616567
0.000612918
0.000620709
0.000349729
0.00038352
0.000396008
0.000394684
0.000394089
0.000389573
0.000394231
0.000388835
0.000385921
0.000376948
0.000369813
0.000365482
0.000364259
0.000360753
0.000350797
0.000320887
0.000357557
0.000573132
0.000572434
0.000354626
0.000313574
0.000551718
0.000858928
0.000554978
0.00033869
0.000393124
0.000420116
0.000383734
0.000425212
0.000402143
0.000419955
0.000434728
0.000441528
0.000450302
0.000458825
0.000463197
0.000469192
0.000487894
0.000485039
0.000491518
0.000490964
0.000483711
0.000460438
0.0004078
0.000452461
0.00050292
0.000521907
0.000528939
0.000486239
0.000486558
0.000508536
0.000500803
0.000495871
0.000490122
0.000461908
0.000443778
0.000464243
0.000442826
0.000461665
0.000440189
0.000456
0.000432728
0.0004042
0.000341857
0.000554314
0.000861976
0.000553704
0.000341447
0.000403989
0.00044229
0.000467517
0.000468852
0.00047596
0.000474408
0.00048596
0.000473887
0.000430504
0.00046309
0.00018331
0.000326006
0.000257565
0.000322071
0.000266841
0.000362594
0.000438456
0.000432054
0.000442045
0.000375501
0.000357112
0.000351047
0.000357971
0.000366702
0.000356266
0.000392871
0.000398169
0.000496764
0.000495902
0.000505367
0.000527634
0.00044248
0.000455265
0.000418551
0.000462866
0.000449099
0.000459529
0.000466115
0.000475154
0.000564651
0.000579773
0.000593516
0.000499853
0.000352507
0.000433569
0.000324397
0.000409275
0.00021559
0.000497745
0.000497102
0.000476231
0.000498341
0.000502748
0.000503488
0.00050411
0.000483041
0.000627716
0.000595187
0.000674558
0.000241364
0.000486239
0.000332428
0.000459142
0.000342085
0.000452319
0.000582253
0.000611748
0.000604876
0.000513444
0.000558476
0.00154317
0.110773
0.00117666
0.00143903
0.00146311
0.00143564
0.0011018
0.000814277
0.00109926
0.000695204
0.0011409
0.000499128
0.00166307
0.00146844
0.0016319
0.00172488
0.000767371
0.000816221
0.000845919
0.000889817
0.000772858
0.000752282
0.00090638
0.000926092
0.0916468
0.112385
0.118436
0.113136
0.0865769
0.111003
0.298554
0.471733
0.558175
0.162571
0.00122824
0.00131428
0.000871342
0.000739475
0.000330904
0.000733294
0.00140243
0.118211
0.253401
0.646637
1.19585
0.859225
0.558653
0.289822
0.107917
0.254461
0.103176
0.282347
0.115102
0.14794
0.387317
0.713889
0.551913
0.844763
0.528106
0.852914
1.10016
1.301
1.51852
1.04893
0.413222
0.119588
0.000983839
0.00070605
0.000737773
0.00138503
0.00106745
0.000603204
0.000710614
0.00143144
0.123961
0.43285
1.14007
1.41657
1.49866
1.4197
1.27676
1.08986
1.20276
1.00119
1.04094
0.752227
0.406452
0.147641
0.153192
0.406838
0.749004
1.0197
1.21222
1.22916
1.34374
1.33049
1.46742
1.52843
1.53939
1.43335
0.926806
0.184726
0.0017818
0.000925927
0.00101456
0.00181473
0.181206
0.981638
1.50043
1.56938
1.53773
1.47793
1.47299
1.35502
1.25282
1.09638
0.89242
0.589379
0.319774
0.103533
0.00139727
0.00139423
0.00147756
0.00129969
0.101893
0.267834
0.510069
0.817918
1.02113
1.17312
1.37938
1.47105
1.53973
1.57364
1.56728
1.0587
0.175812
0.00180537
0.00100741
0.000754572
0.00147279
0.104223
0.397653
1.55238
1.54972
1.38254
1.31973
0.736729
0.667103
0.568064
0.419449
0.250164
0.0975207
0.00166561
0.00106831
0.00138454
0.141977
0.154021
0.159436
0.16047
0.105689
0.400683
0.103497
0.390188
0.10217
0.00170482
0.00188537
0.000778892
0.00071098
0.000801407
0.00171732
0.0017814
0.000787559
0.000825629
0.0016007
0.00185237
0.000730546
0.000595584
0.00121301
0.0014915
0.000734649
0.000729921
0.00151713
0.00147316
0.000700493
0.000643575
0.000466443
0.000568312
0.000492703
0.000556105
0.000533052
0.000570567
0.00112981
0.000980967
0.000877349
0.000971719
0.00107857
0.00129172
0.001316
0.00145582
0.00146218
0.00153011
0.001587
0.00160123
0.00147515
0.00113124
0.00137644
0.00147105
0.00144628
0.00122275
0.00172974
0.0010264
0.000882078
0.000938963
0.000954651
0.000746299
0.000942411
0.00103822
0.00110265
0.000977359
0.000836695
0.000992745
0.00113211
0.0014353
0.00144032
0.00127423
0.00131517
0.00166579
0.00148732
0.00155276
0.00162872
0.00146269
0.00136674
0.00153036
0.00122489
0.00130105
0.00270095
0.0104687
0.0169714
0.0280179
0.0328157
0.0304465
0.0180988
0.0124365
0.00479164
0.000993429
0.00104875
0.000706649
0.000984245
0.00123486
0.0013304
0.0012185
0.000902677
0.00112032
0.00134477
0.000911777
0.000781756
0.000816052
0.000919967
0.000845718
0.000663381
0.000606905
0.000834349
0.000866367
0.000926131
0.000849975
0.000674819
0.000753467
0.0009055
0.000970753
0.000866424
0.000824251
0.000685945
0.000478789
0.00089513
0.00100615
0.00111232
0.00107437
0.00108362
0.0012182
0.00130562
0.00133135
0.000944819
0.000784535
0.00107783
0.00129276
0.00143898
0.00140109
0.0061518
0.00235069
0.00126258
0.00090925
0.000833187
0.000818554
0.000901498
0.000662157
0.000778758
0.0008649
0.000907567
0.00085796
0.000830696
0.000731147
0.000831849
0.000887225
0.000866561
0.000807652
0.000677051
0.000761042
0.000771689
0.000845646
0.000806282
0.000706483
0.000738089
0.000798281
0.000847883
0.000816527
0.000931141
0.000716669
0.000934167
0.000926117
0.000892827
0.00101454
0.000865288
0.00105272
0.000784565
0.00073159
0.0010977
0.000760733
0.00070434
0.0012129
0.000786743
0.000733009
0.00141484
0.000836928
0.00073724
0.00176993
0.000676646
0.00105399
0.000997825
0.00101809
0.000876043
0.000905017
0.00102087
0.00102763
0.00141243
0.00106976
0.000797025
0.000406346
0.000354621
0.000393974
0.00046562
0.000511578
0.00053341
0.000554992
0.00056318
0.000522262
0.000540837
0.000566269
0.000586773
0.00056753
0.000539127
0.000489856
0.000406247
0.000410682
0.000497013
0.000562332
0.000598105
0.000594575
0.000573525
0.000807401
0.00136064
0.00135982
0.00116879
0.00126922
0.00145324
0.00129607
0.0010611
0.000906004
0.000991069
0.00108862
0.0010495
0.000977647
0.000887067
0.00103017
0.00103497
0.00105305
0.0010521
0.00106788
0.000902454
0.000980091
0.00107015
0.0011109
0.0010942
0.00101769
0.00104607
0.0012025
0.00130962
0.00120624
0.00128199
0.00136161
0.0012375
0.000936697
0.00059103
0.000587701
0.000572497
0.000495977
0.000409474
0.000404078
0.000493546
0.000574522
0.000581155
0.000591702
0.000560709
0.000485578
0.000393355
0.00037645
0.00046655
0.000528644
0.000571257
0.000551354
0.000501185
0.000426443
0.000346349
0.000355435
0.000434422
0.000517465
0.000544088
0.000562885
0.00059022
0.00060153
0.000596784
0.000585786
0.000568733
0.000541191
0.000527301
0.000521968
0.000499319
0.000489826
0.000488278
0.000472772
0.000466967
0.000476909
0.000452449
0.000421768
0.000379425
0.000349482
0.000308269
0.00054545
0.000849094
0.000973477
0.00116593
0.0011353
0.000953337
0.000943743
0.000919972
0.000936671
0.000841391
0.000543338
0.000336355
0.000397896
0.000442565
0.00044858
0.000452913
0.000658136
0.000688845
0.000814251
0.000855682
0.000752098
0.000837154
0.000930961
0.000836699
0.00071749
0.000826047
0.000910924
0.00105978
0.00117836
0.00104199
0.000985099
0.00113435
0.00125076
0.00110729
0.000888636
0.000600342
0.000953756
0.00102323
0.000893209
0.000760163
0.00418084
0.000824096
0.00128099
0.00085489
0.000754416
0.000788314
0.000871346
0.000797365
0.000643425
0.000587082
0.000782003
0.000808093
0.000860571
0.000787344
0.000639934
0.000714635
0.000842109
0.000901149
0.000818753
0.000880799
0.000677325
0.000462277
0.000743704
0.00085161
0.000948579
0.000880616
0.000984722
0.00123016
0.00112292
0.00104386
0.00110073
0.000763969
0.000768367
0.000730795
0.000709756
0.00182611
0.000708201
0.000657528
0.00177946
0.00079044
0.0007205
0.000907918
0.000734974
0.000792031
0.000790107
0.000807403
0.00151684
0.00169931
0.00158669
0.00119162
0.00116135
0.00123056
0.00173418
0.00175223
0.00173608
0.00154874
0.00104117
0.00148034
0.00186621
0.00193989
0.00159114
0.00125426
0.00138472
0.00143507
0.00127526
0.00091662
0.000904125
0.000887203
0.000828574
0.000859018
0.000871631
0.000871722
0.000874408
0.000814194
0.000902984
0.000928232
0.000963998
0.000896757
0.000844988
0.000942621
0.000978413
0.00108275
0.000922981
0.000978955
0.000750831
0.00107467
0.00126622
0.0014798
0.00150836
0.00133371
0.00103864
0.000822177
0.000970379
0.00117783
0.00142049
0.00133208
0.00113558
0.00133413
0.00106274
0.00112869
0.00137731
0.000989984
0.000938852
0.000918346
0.000932241
0.000814911
0.00131757
0.00101554
0.00104272
0.000956282
0.000912595
0.00132409
0.000772623
0.00102416
0.00101813
0.0010799
0.00113697
0.00104317
0.00182038
0.000694007
0.00104238
0.00106214
0.00169533
0.00109366
0.00119043
0.00116828
0.00112624
0.00176799
0.00122309
0.00126601
0.0010924
0.00106009
0.00244154
0.00129229
0.00131263
0.00103205
0.000940681
0.00220869
0.00121947
0.00119798
0.000935305
0.000985375
0.000368086
0.000448255
0.000532253
0.00052877
0.000581373
0.000549123
0.000596919
0.00055317
0.000568537
0.000511697
0.000515683
0.000502889
0.000492354
0.000468225
0.000460686
0.00045968
0.000455787
0.000447476
0.000436783
0.000418633
0.000398952
0.000353575
0.000565783
0.00056474
0.000558879
0.000556416
0.00167207
0.000755802
0.000387861
0.000333773
0.000548454
0.000543902
0.000849444
0.000839861
0.000824222
0.000530848
0.000539211
0.000333553
0.000395049
0.000440752
0.000436736
0.000442246
0.000433829
0.000393066
0.000329526
0.000328361
0.000528864
0.000537764
0.000332229
0.000394436
0.000392079
0.000422395
0.000432639
0.000443356
0.000433684
0.000438008
0.00039344
0.000332875
0.000538531
0.000544939
0.000336175
0.000397361
0.000442494
0.000448649
0.000438273
0.000671915
0.00081887
0.000875481
0.000973427
0.000959642
0.000817778
0.000845814
0.00091693
0.00101698
0.00100856
0.00100397
0.00103788
0.000938901
0.000741896
0.000673649
0.000853963
0.000902103
0.000990147
0.0015827
0.00115111
0.000886805
0.000830703
0.000908014
0.000853103
0.000855535
0.000814176
0.000764353
0.000812575
0.000791026
0.000635302
0.000686951
0.000777539
0.000810427
0.00074453
0.000801111
0.000710349
0.000623673
0.000742572
0.000794511
0.000789642
0.000720886
0.000570981
0.000756016
0.000781774
0.000811585
0.000708406
0.000617425
0.000740348
0.000735582
0.000778046
0.00166315
0.000724626
0.000755853
0.00163958
0.00065673
0.000622699
0.000575442
0.000644611
0.000643221
0.00069718
0.000697077
0.000729846
0.000737571
0.00163199
0.000681859
0.000733217
0.00158079
0.000641514
0.000562113
0.000568798
0.000623705
0.000584378
0.00063108
0.00058159
0.00170943
0.000667643
0.000707531
0.000746027
0.000750341
0.000792255
0.000757484
0.00181417
0.000695191
0.000740242
0.000619184
0.000571497
0.000597261
0.000571486
0.00184542
0.000718165
0.000781367
0.000771835
0.000822986
0.00077931
0.00043558
0.000396895
0.000335416
0.000576791
0.00178196
0.000759653
0.000726643
0.000582631
0.000616029
0.000724287
0.0016226
0.00143264
0.00149334
0.00151781
0.00143496
0.00135326
0.00139984
0.00145186
0.00145909
0.00149201
0.00148877
0.00159094
0.0015799
0.00189343
0.00221992
0.0014104
0.00198992
0.00435798
0.00562447
0.0073579
0.00149098
0.00109652
0.000855804
0.000877584
0.000791649
0.000865155
0.000830321
0.00101979
0.00105619
0.00101475
0.000798338
0.000813031
0.000842832
0.000922769
0.000889453
0.00110042
0.00144795
0.00707357
0.00589885
0.00332041
0.0022232
0.00129452
0.001362
0.00137163
0.00138114
0.000919229
0.0046454
0.00281373
0.001591
0.00344296
0.00222691
0.00300947
0.00274163
0.00332712
0.00327476
0.0012491
0.00124596
0.00124208
0.00123661
0.00123117
0.00122543
0.00122303
0.00123357
0.00134527
0.00223234
0.00275824