/*--------------------------------*- C++ -*----------------------------------*\
| =========                 |                                                 |
| \\      /  F ield         | OpenFOAM: The Open Source CFD Toolbox           |
|  \\    /   O peration     | Version:  v2012                                 |
|   \\  /    A nd           | Website:  www.openfoam.com                      |
|    \\/     M anipulation  |                                                 |
\*---------------------------------------------------------------------------*/
FoamFile
{
    version     2.0;
    format      ascii;
    class       volScalarField;
    location    "665";
    object      epsilon;
}
// * * * * * * * * * * * * * * * * * * * * * * * * * * * * * * * * * * * * * //

dimensions      [0 2 -3 0 0 0 0];


internalField   nonuniform List<scalar> 
18258
(
0.0240777
0.0122735
0.00915493
0.00720845
0.0126689
0.0125602
0.0130174
0.0173566
0.024171
0.0370065
0.0535693
0.0481468
0.0435246
0.0452669
0.0474368
0.045014
0.0350805
0.0303536
0.040086
0.0667383
0.0607324
0.0496664
0.0606783
0.0514337
0.0659712
0.0835058
0.0640787
0.0575155
0.0515863
0.0485435
0.0420912
0.0243996
0.0342757
0.0527494
0.0723114
0.0791608
0.0849434
0.089808
0.094907
0.0970237
0.0972744
0.0920558
0.0828621
0.0676318
0.0495267
0.0378108
0.0288424
0.0322589
0.045194
0.045453
0.0559904
0.0858389
0.108141
0.0810643
0.0518693
0.0826654
0.112649
0.144408
0.170924
0.193374
0.201082
0.197646
0.186102
0.169355
0.147891
0.122886
0.10188
0.0849464
0.0671486
0.0573478
0.046393
0.0384781
0.0329092
0.0292478
0.027046
0.0253198
0.0241547
0.0250849
0.0249708
0.0178085
0.0140088
0.0131599
0.00941472
0.00782517
0.00814222
0.00774627
0.00804664
0.00710422
0.00608376
0.00528046
0.00447598
0.00651557
0.00700905
0.00724994
0.00726877
0.00779175
0.00804519
0.00777911
0.00787307
0.00720176
0.0074594
0.01194
0.0137006
0.017383
0.015543
0.0107949
0.00906461
0.0101096
0.0107304
0.013344
0.012564
0.0133445
0.0118362
0.0108073
0.00912579
0.00886231
0.00909753
0.00967034
0.0100743
0.0116814
0.011512
0.0106772
0.0118101
0.0130305
0.0127571
0.0122101
0.0116255
0.0142674
0.0114675
0.0121517
0.0136496
0.0219928
0.0215197
0.0260102
0.0255323
0.0259746
0.026158
0.031544
0.0316651
0.0320387
0.0323583
0.0340832
0.0570952
0.050871
0.0497656
0.0495724
0.0428951
0.0424291
0.0417371
0.0425521
0.036072
0.0347227
0.031487
0.0311259
0.0347328
0.0438717
0.0613678
0.0886427
0.122611
0.158976
0.189269
0.210276
0.232045
0.237428
0.251331
0.256061
0.257009
0.251385
0.242986
0.233547
0.220715
0.20215
0.189228
0.148738
0.105304
0.059251
0.0786363
0.0907237
0.100495
0.102393
0.103539
0.0994218
0.093104
0.0818582
0.066192
0.0429362
0.0491273
0.0664146
0.0686085
0.0692662
0.0549018
0.0527781
0.0489426
0.0488716
0.0641023
0.0736975
0.0620106
0.0858537
0.100803
0.0880883
0.0638047
0.0977804
0.144063
0.0810832
0.0690744
0.0536561
0.0526949
0.0445808
0.0373517
0.0627795
0.093963
0.129463
0.150778
0.172566
0.190161
0.203405
0.217437
0.189039
0.17172
0.115616
0.202572
0.154175
0.0782457
0.0581457
0.057162
0.0429571
0.0495383
0.0551172
0.0511685
0.0391516
0.0274167
0.0252462
0.0465781
0.0649554
0.0785684
0.0625539
0.079604
0.0897874
0.0970501
0.102429
0.12973
0.0954765
0.106627
0.0766827
0.103971
0.0739613
0.047772
0.0529068
0.101253
0.161377
0.22107
0.257951
0.147242
0.0748738
0.0557883
0.0561759
0.0538567
0.0485629
0.0602307
0.10686
0.0721266
0.0468785
0.0407437
0.0481882
0.0408049
0.0304007
0.0318079
0.0395376
0.0551855
0.0700144
0.0828468
0.12612
0.121918
0.147108
0.154742
0.130298
0.125818
0.0812924
0.0836091
0.123369
0.0919098
0.0743033
0.10422
0.147336
0.20169
0.248159
0.288674
0.314541
0.303858
0.274837
0.173852
0.0761163
0.0229064
0.0177998
0.0168426
0.0173164
0.0105224
0.00630018
0.00585324
0.00666944
0.00701572
0.00591271
0.00544163
0.00543219
0.00578007
0.0101785
0.0087468
0.0108225
0.0131124
0.0156595
0.0187024
0.0194298
0.0128919
0.00872635
0.00818924
0.00812513
0.00805641
0.00802716
0.00803893
0.00807944
0.00809556
0.00806358
0.00798539
0.00784889
0.00771401
0.0076573
0.00829405
0.0111846
0.0153469
0.0148398
0.0135505
0.0121954
0.0110345
0.00870494
0.0151449
0.0128419
0.0109341
0.0133935
0.0164999
0.0208539
0.0245038
0.0176754
0.0141509
0.0128072
0.0126816
0.0125675
0.0126133
0.0124913
0.0125569
0.0123591
0.0129578
0.0135767
0.016972
0.0189952
0.0211711
0.0226672
0.0232474
0.0239626
0.0211294
0.0229589
0.0227242
0.0235038
0.0233163
0.022626
0.0207084
0.0189191
0.0176994
0.019114
0.0236785
0.0323272
0.0267229
0.0207386
0.0167797
0.0137233
0.0149922
0.0166681
0.0168433
0.0158564
0.0156278
0.0154202
0.0138997
0.0131118
0.0111065
0.0104954
0.0100322
0.0101816
0.0143637
0.0135133
0.013716
0.014449
0.0155419
0.0146994
0.0151334
0.0142901
0.0145366
0.0149562
0.017023
0.0185812
0.0178231
0.0165073
0.016009
0.0137387
0.0158448
0.0157054
0.017025
0.0186094
0.0190995
0.0190337
0.0183964
0.0167987
0.0186906
0.022059
0.0257105
0.0247105
0.0243895
0.0204464
0.0192456
0.0202169
0.0214888
0.0223963
0.0224712
0.0223035
0.0223919
0.0264014
0.0260509
0.0248446
0.0227659
0.0203107
0.0176634
0.0152095
0.0166834
0.018164
0.0195555
0.0208255
0.020587
0.0190599
0.0177013
0.0164713
0.0149789
0.0146897
0.016142
0.0173628
0.0187929
0.0205059
0.0205789
0.0188679
0.0173747
0.0160943
0.0146219
0.0145724
0.0160711
0.0173673
0.018782
0.0202635
0.0196311
0.018479
0.0172309
0.0159906
0.0145399
0.0146068
0.0159269
0.0169936
0.0180747
0.0190224
0.0198763
0.0179171
0.0170088
0.0171034
0.0161173
0.0193019
0.018544
0.0194853
0.0180325
0.0168064
0.0178106
0.0210007
0.0240338
0.0245839
0.0243039
0.0201708
0.0206268
0.0206049
0.0191874
0.0159651
0.0153679
0.0181397
0.0208786
0.0213405
0.0200313
0.016928
0.0132892
0.0143103
0.0174725
0.019785
0.0185272
0.0183662
0.0169517
0.015873
0.0161717
0.0138927
0.0166314
0.0267048
0.024168
0.0221468
0.019673
0.015665
0.0106056
0.0115054
0.0126632
0.01308
0.0105735
0.00791752
0.00710948
0.00691606
0.0067577
0.00653884
0.00617005
0.00561188
0.00537527
0.0106112
0.0258016
0.036455
0.0358149
0.0241015
0.0207752
0.020125
0.0188011
0.00923464
0.00818779
0.00842071
0.0103757
0.00816798
0.00851111
0.0147675
0.0101339
0.0138837
0.0107594
0.0146383
0.0229607
0.0217507
0.0144223
0.0080178
0.00689013
0.00737986
0.00766504
0.00786904
0.00806602
0.00829997
0.00868663
0.0100091
0.0157358
0.020311
0.017768
0.0167758
0.0153022
0.0188451
0.0213294
0.0232687
0.0260311
0.0160956
0.0117855
0.0166343
0.0272612
0.0247477
0.0232899
0.0171553
0.0176957
0.017125
0.0110113
0.0106668
0.0105878
0.0113996
0.0127854
0.0147088
0.0158732
0.0166242
0.0169555
0.0178686
0.0231389
0.0216544
0.0211431
0.0173629
0.0134113
0.0153983
0.0515867
0.0195704
0.0206875
0.0189072
0.0191754
0.0204578
0.0151582
0.0135171
0.012944
0.0146489
0.0215359
0.0215413
0.0214001
0.0182568
0.0174717
0.0209061
0.0220003
0.0224044
0.0217815
0.0213356
0.0194682
0.0166845
0.0181146
0.0196322
0.0208291
0.0228398
0.0231836
0.0179649
0.0172409
0.0158445
0.0105512
0.0112941
0.00972971
0.00969747
0.00966053
0.00938551
0.00893586
0.00922535
0.00934492
0.0093446
0.00899912
0.00929719
0.00834092
0.00867993
0.0097717
0.0152182
0.0147838
0.017579
0.0194896
0.0167358
0.015577
0.0142148
0.0131917
0.0154447
0.0142813
0.0168594
0.0212122
0.0265036
0.0191337
0.018138
0.0179148
0.0175096
0.0173516
0.0174043
0.0167097
0.0157063
0.015138
0.0235892
0.0212874
0.0181642
0.0172151
0.0157818
0.0180351
0.0174777
0.0213775
0.0268627
0.0270674
0.0215451
0.0216229
0.0189652
0.0200706
0.0222615
0.0271038
0.0270278
0.0144407
0.00959729
0.0154425
0.0157824
0.0183917
0.0170077
0.0185352
0.0197157
0.0204428
0.020303
0.0177016
0.0188782
0.0196664
0.0206524
0.0185972
0.0165915
0.0173816
0.0161593
0.0152593
0.0147583
0.0126831
0.0129296
0.0139012
0.0153526
0.0162936
0.0177881
0.0194435
0.0194739
0.0201426
0.0197364
0.0191396
0.0252416
0.0239978
0.02554
0.0282551
0.0224574
0.01782
0.0146948
0.0150078
0.0147737
0.0146812
0.015422
0.0167821
0.0151593
0.0145397
0.017054
0.0194154
0.0246869
0.0330583
0.0287924
0.0262187
0.0332307
0.0313939
0.0382491
0.0286832
0.028154
0.0208614
0.0262986
0.0305169
0.0392205
0.025526
0.020966
0.022423
0.0255451
0.0347942
0.0328043
0.0331733
0.0412109
0.0399799
0.0362142
0.0311896
0.0353764
0.021261
0.0302089
0.0322411
0.0268289
0.0257196
0.0307617
0.0310929
0.0330312
0.0283866
0.0267871
0.0179246
0.0274627
0.0314037
0.0331038
0.0278408
0.0205398
0.0280338
0.0205629
0.0191983
0.02031
0.0137813
0.0127281
0.0148031
0.013874
0.0111996
0.012152
0.0111724
0.0111601
0.0112421
0.011358
0.0114914
0.0117484
0.0117151
0.0127349
0.0133408
0.0126307
0.0115535
0.0122054
0.0125618
0.0160728
0.0181592
0.0204245
0.0220182
0.0228658
0.0240193
0.0227423
0.0248144
0.0236877
0.0252066
0.024913
0.0238261
0.0212733
0.0186127
0.0161983
0.0166752
0.0203025
0.0266911
0.0218817
0.0169618
0.013735
0.0113966
0.0126873
0.0158674
0.00857915
0.00778433
0.0074534
0.00723511
0.00701821
0.00609303
0.00556224
0.00908222
0.0132781
0.0165697
0.0206674
0.0263718
0.0323076
0.0374059
0.0413217
0.0442131
0.0460846
0.0466251
0.0439318
0.0339111
0.0291939
0.0250994
0.0207714
0.0168796
0.0169229
0.0246475
0.0322554
0.0397132
0.0462635
0.0511483
0.0492331
0.032961
0.0301123
0.046733
0.0784593
0.0745197
0.097663
0.111116
0.062976
0.0464546
0.0452447
0.0620218
0.0646139
0.0566785
0.046811
0.0366584
0.0265275
0.0310755
0.0355299
0.039773
0.0442935
0.0575378
0.0602904
0.0589527
0.0561294
0.0525659
0.0479611
0.0413393
0.0331819
0.0252146
0.0192363
0.014613
0.00975033
0.00692365
0.00829616
0.00761861
0.0111271
0.00964247
0.00842351
0.00775498
0.00795498
0.00777408
0.0079203
0.00695617
0.00628583
0.010273
0.00940474
0.0092949
0.00982659
0.0131803
0.0101277
0.00751147
0.00707273
0.00698067
0.0073615
0.0185253
0.0255557
0.030574
0.035049
0.037891
0.0365854
0.0333936
0.0280497
0.0224847
0.0202785
0.0172673
0.0146607
0.0133686
0.0146009
0.0120646
0.00610449
0.00518971
0.00570337
0.00558051
0.00511361
0.00614556
0.00683397
0.00744351
0.00786121
0.00816535
0.00821853
0.00815016
0.00805422
0.00800535
0.00798151
0.00795027
0.00788364
0.00778734
0.00764514
0.00750913
0.00744563
0.00803722
0.0106473
0.0145662
0.0143404
0.0132299
0.012124
0.0112664
0.00955093
0.0153781
0.0130548
0.0109432
0.0101188
0.00997092
0.0102637
0.0112185
0.012848
0.0137616
0.0157514
0.0157996
0.0157046
0.0159937
0.0157758
0.0131474
0.0148919
0.0176267
0.0184522
0.0190586
0.0188233
0.0172884
0.0192997
0.0204377
0.0198889
0.0192775
0.0163892
0.0190596
0.0230803
0.0235272
0.0238057
0.0211614
0.0183399
0.0214872
0.0226366
0.0222214
0.0230831
0.0212063
0.0219304
0.0278484
0.0141116
0.0126441
0.00758642
0.00864135
0.00879635
0.00839924
0.00807227
0.00836968
0.00858526
0.00840086
0.00909865
0.00943104
0.00880546
0.0114039
0.0104326
0.0099494
0.00932577
0.0099623
0.0107238
0.0110876
0.0121756
0.0195216
0.0199524
0.0181666
0.0205715
0.0212
0.0179615
0.0203559
0.0212368
0.0214572
0.0217965
0.0233462
0.0219921
0.0243359
0.0235081
0.0222096
0.0214352
0.0380556
0.0251311
0.0165429
0.0151891
0.0147891
0.0148377
0.0166982
0.0125561
0.0140661
0.00990592
0.00858108
0.00820436
0.00788969
0.00851055
0.0117379
0.0190835
0.0255187
0.0277154
0.0265504
0.0234369
0.0182657
0.0139864
0.0135477
0.0122001
0.011306
0.0111069
0.00750232
0.00518054
0.00646488
0.00658712
0.00716536
0.00757063
0.0078979
0.00814132
0.00827
0.00832956
0.00839716
0.0085045
0.00862398
0.00872798
0.00881021
0.00886982
0.00893336
0.00905342
0.00935805
0.010553
0.0151994
0.0195995
0.0185084
0.0170519
0.0157468
0.016505
0.0172597
0.0180063
0.0221819
0.0190639
0.0219558
0.0205966
0.0196068
0.0182058
0.018933
0.0207163
0.0164824
0.0164075
0.0111775
0.00975352
0.00937617
0.0091604
0.00899127
0.00882589
0.00867295
0.00853718
0.00841052
0.00830243
0.0082203
0.00814981
0.00801459
0.00777291
0.00738447
0.00695189
0.00620756
0.00688102
0.00733599
0.00828408
0.00954648
0.0102436
0.00967442
0.00880914
0.00834848
0.0084036
0.00857377
0.00877142
0.00899808
0.00930742
0.00977837
0.0107477
0.0114246
0.0160691
0.0167968
0.0201001
0.0199152
0.0178286
0.0171798
0.0187954
0.0173397
0.0126428
0.0173308
0.0168353
0.0210485
0.0156018
0.0147027
0.0150892
0.0155612
0.0182444
0.0171478
0.0156825
0.0156585
0.0125983
0.0141563
0.016154
0.0176496
0.0278643
0.027292
0.0343782
0.034314
0.0592995
0.056395
0.049693
0.0538024
0.023694
0.0463624
0.0542431
0.0494176
0.0428655
0.0272773
0.0436489
0.0665324
0.0963402
0.0693987
0.0567292
0.105555
0.076636
0.0373104
0.0265324
0.01498
0.0150741
0.0250182
0.0290601
0.0240721
0.0232126
0.033389
0.0347548
0.027969
0.0286585
0.0310371
0.0299752
0.0324236
0.0280456
0.0273702
0.0154892
0.0127063
0.0137282
0.0154476
0.0164505
0.015942
0.016777
0.0174461
0.0160181
0.0150008
0.0144517
0.0124005
0.0131472
0.0161155
0.0203119
0.0238034
0.0171866
0.0138081
0.0125155
0.0123246
0.0121018
0.0119857
0.0116682
0.011484
0.0110177
0.0112267
0.0097679
0.00977401
0.010306
0.0104672
0.010669
0.0108246
0.010946
0.0110577
0.0119236
0.0186665
0.0258326
0.0206734
0.0163891
0.0139243
0.0151059
0.0170146
0.0208913
0.0262813
0.0177454
0.0175624
0.0114455
0.0106661
0.0104568
0.010286
0.0101361
0.0100409
0.0101044
0.0101142
0.0118556
0.0115446
0.0135653
0.0146447
0.0121011
0.0116706
0.0111987
0.0109113
0.0107525
0.0106666
0.0107543
0.0116138
0.0114483
0.0105213
0.0104296
0.0105522
0.0107683
0.0110945
0.0115454
0.012054
0.0129731
0.0127455
0.0111903
0.0111678
0.0105028
0.010189
0.00995511
0.00993037
0.0099795
0.0101197
0.0103438
0.0112519
0.0170202
0.0172033
0.0264869
0.026474
0.0210513
0.0176011
0.0154615
0.014218
0.0134915
0.0350252
0.0307645
0.0487268
0.0388604
0.0311079
0.050489
0.0718375
0.0557976
0.0909019
0.0982186
0.0723772
0.0655723
0.0208386
0.0158782
0.0153796
0.0168575
0.0185361
0.0211514
0.0217394
0.0265208
0.0286088
0.0170737
0.0164002
0.0154807
0.0247496
0.0229412
0.0195823
0.017713
0.0163389
0.018875
0.0206536
0.014886
0.014927
0.00961314
0.0106032
0.0103523
0.0100089
0.00988731
0.00981233
0.00984772
0.00994753
0.0102341
0.0107359
0.0111263
0.0112975
0.0116457
0.0114333
0.0111604
0.0108359
0.0106428
0.0104493
0.0102908
0.0101677
0.0101983
0.010512
0.0106559
0.00935014
0.00969782
0.00980964
0.00982512
0.00986077
0.00982949
0.00969655
0.00949394
0.0092991
0.00909237
0.00913182
0.00989224
0.0100186
0.0100663
0.00990406
0.00978353
0.00977158
0.00970943
0.00969848
0.00969533
0.00957963
0.00927002
0.00855513
0.00840607
0.00900082
0.00933971
0.00951225
0.00958996
0.00957035
0.0095129
0.0092862
0.00911808
0.00891921
0.00859065
0.00815717
0.0067982
0.00707511
0.00743056
0.00792544
0.00843576
0.00888264
0.0091816
0.00933674
0.009423
0.00933699
0.00904274
0.00851342
0.00845897
0.00885194
0.00903481
0.00899737
0.00873905
0.00833332
0.00777276
0.00707472
0.00639822
0.00588287
0.00564358
0.00525153
0.00654361
0.00711842
0.00765233
0.00814619
0.00861872
0.00913007
0.00933421
0.00939692
0.00937872
0.00922776
0.00890353
0.00838469
0.00838918
0.00885709
0.00916208
0.00928567
0.0092715
0.00908404
0.00867911
0.00778
0.0069836
0.00634243
0.00576898
0.00519204
0.00513117
0.00538718
0.00515019
0.00534879
0.00592522
0.00672616
0.00750271
0.00810601
0.00852902
0.00870922
0.00865546
0.00840163
0.00830336
0.00842899
0.00837484
0.00807331
0.0075096
0.00676761
0.00596957
0.00534176
0.00516593
0.0054984
0.00583389
0.00552046
0.00436745
0.00490677
0.00545168
0.00603238
0.0069357
0.00810466
0.00869218
0.00900401
0.00916069
0.0090967
0.00881283
0.00838093
0.00836141
0.00877743
0.00905418
0.0091017
0.00896953
0.00868255
0.00819118
0.00676954
0.00532506
0.00471101
0.00437184
0.00393506
0.0055959
0.00596404
0.00553841
0.00526309
0.00569991
0.00624186
0.00686872
0.00738215
0.00780649
0.00810835
0.00820827
0.00817467
0.00804217
0.00804787
0.00799535
0.00779343
0.0075489
0.00733867
0.00690082
0.00644987
0.00592049
0.00647634
0.00677466
0.00634202
0.0046402
0.00492247
0.00534172
0.00559574
0.00702505
0.00845585
0.00886788
0.00901378
0.00915444
0.00908772
0.00877557
0.00834093
0.00832677
0.00884127
0.00923319
0.00936283
0.00945395
0.00953565
0.00960996
0.00845157
0.00660235
0.00619437
0.00524018
0.00479747
0.00666197
0.0070953
0.00688479
0.00661528
0.0075546
0.00794793
0.0080947
0.00811058
0.00812173
0.00809147
0.00799763
0.00792598
0.00781159
0.00825471
0.00889465
0.00880139
0.00870661
0.00854677
0.00818377
0.0077315
0.00722068
0.00790264
0.00847876
0.00819377
0.00593624
0.00630272
0.00715619
0.00728411
0.00875802
0.00994104
0.0102881
0.0103034
0.0102104
0.0101992
0.00920752
0.00829422
0.00815055
0.00949031
0.0153975
0.0152466
0.0152888
0.0152309
0.0146713
0.0145126
0.0139584
0.0137154
0.0130299
0.0126012
0.0119235
0.0139602
0.0176718
0.0197424
0.0221209
0.0246196
0.0233719
0.0189089
0.0166998
0.0102262
0.00806171
0.00695032
0.00600736
0.00530036
0.00509371
0.00751836
0.00935803
0.0115154
0.0134801
0.0137891
0.0162127
0.0201515
0.0306859
0.0487925
0.0412359
0.0389671
0.0398921
0.100485
2.55648
2.78149
2.51582
2.91914
3.33782
0.403461
0.154769
0.286338
0.303504
0.337783
0.316191
0.28755
0.262094
0.272203
0.261047
0.273009
0.254235
0.263676
0.230061
0.233763
0.230212
0.615276
0.995903
1.21162
1.69919
1.71571
1.93604
1.89728
1.92139
1.77902
1.89671
1.64918
1.36805
1.29166
1.21864
1.3081
1.42141
1.23427
1.11915
1.00578
0.915285
0.782897
0.993475
0.754066
0.712546
0.71088
0.742255
0.987976
0.89761
1.03463
0.962809
1.01942
0.617477
0.692157
0.50783
0.4232
0.35181
0.42286
0.565973
0.746413
0.920675
0.706967
0.962483
0.890771
0.881055
0.840818
0.768469
0.730334
0.718771
0.740156
0.75284
0.768031
0.795284
0.816063
0.833761
0.983987
1.04644
1.03493
0.847952
0.759585
0.525875
0.563118
0.597861
0.601921
0.561995
0.542503
0.488765
0.476038
0.430076
0.411941
0.372958
0.354691
0.322718
0.446895
0.766317
0.796178
0.864993
0.919405
0.968198
0.990574
1.00604
0.988836
0.955199
0.888246
0.860608
0.799405
0.905076
1.08872
1.09029
1.00407
0.852398
0.807965
3.7373
4.53975
3.01063
6.47155
9.78891
16.3858
7.56506
2.07486
3.46123
2.37843
2.11202
2.05854
2.17165
3.41894
2.4993
3.27759
2.69121
2.85735
2.16838
2.49371
2.37368
1.8265
1.53946
1.30469
1.19709
0.965121
0.957623
0.778336
0.728873
0.672296
0.559367
0.683121
0.666221
1.54011
2.21933
2.77878
4.37271
4.81141
5.2623
8.33238
6.78459
8.53347
5.09346
5.13478
3.79878
3.57531
3.61424
4.96984
7.07519
4.88116
8.50338
4.75018
15.4612
34.5448
9.21272
18.9998
10.9684
9.92556
9.57173
9.86525
14.0108
9.53068
15.5227
12.9292
17.1659
16.4587
17.7067
13.8149
10.2088
11.2243
12.0554
15.484
11.051
12.8348
9.73059
9.51783
8.88331
7.34304
6.58751
5.03199
5.85094
6.90362
7.83531
12.354
15.5702
17.9375
21.6367
16.0347
18.3187
11.0418
12.0886
9.3494
8.76884
8.89582
11.703
20.8043
14.7531
26.8731
0.495721
0.225718
0.543223
0.229221
0.487244
0.390428
0.403013
0.403967
0.3995
0.460939
0.219843
0.184933
0.177239
0.175106
0.176618
0.100158
0.124335
0.080371
0.126865
0.228914
0.502225
0.364675
0.140374
0.0825753
0.0545736
0.0429251
0.063423
0.061216
0.0978936
0.0992403
0.105519
0.131909
0.227177
0.431448
31.5804
7.08989
1.11614
0.521305
0.281222
0.172
0.145625
0.164333
0.17642
0.178683
0.16726
0.141463
0.10098
0.0665536
0.0443897
0.037134
0.0271247
0.0292143
0.0400028
0.0535162
0.0494631
0.0650634
0.0834235
0.106191
0.130483
0.149882
0.164493
0.16841
0.15636
0.122371
0.0805131
0.0443657
0.0265135
0.0228617
0.020931
0.0194354
0.0167893
0.0145785
0.0131555
0.0112437
0.00991239
0.00894405
0.00863287
0.00875676
0.00955885
0.0120918
0.0145528
0.0188437
0.0179648
0.0134515
0.012613
0.00781432
0.00722594
0.00737513
0.00762767
0.0084553
0.0132332
0.0135432
0.0134224
0.0134557
0.0132743
0.0132629
0.0130932
0.0129262
0.0127063
0.0122846
0.0119939
0.0114727
0.0111915
0.0105329
0.0105606
0.0109457
0.0112534
0.0101875
0.0100857
0.00937519
0.0203598
0.0486767
0.0700935
0.0785404
0.0883327
0.0810624
0.0418794
0.0229626
0.00791116
0.0077501
0.00824278
0.00890548
0.00845082
0.0061492
0.00667906
0.00786693
0.0109926
0.0108616
0.01089
0.0126573
0.0131682
0.0145201
0.0150541
0.0154557
0.0156843
0.0156553
0.0157932
0.0155528
0.0156574
0.0154863
0.0155821
0.0151942
0.0269894
0.0253952
0.0260641
0.0260685
0.0271832
0.0266704
0.0261658
0.0251943
0.0244559
0.0229653
0.0213901
0.0198755
0.0178348
0.0185963
0.0179931
0.0112455
0.0106908
0.00773127
0.00769664
0.00740517
0.0103438
0.00940356
0.00790654
0.00931506
0.00677191
0.00693952
0.00729327
0.0103862
0.0109078
0.0173462
0.0172679
0.0152769
0.0161962
0.0172112
0.0184941
0.019634
0.021023
0.0220457
0.0231249
0.0249369
0.0253506
0.0236923
0.0233875
0.0223419
0.0242817
0.0232893
0.0215354
0.0230256
0.0246168
0.0270487
0.0267265
0.0246484
0.023347
0.0219322
0.0196632
0.0170743
0.0157554
0.0147922
0.0148509
0.0138702
0.0162602
0.0147643
0.01019
0.0103992
0.00778181
0.00627703
0.00606764
0.00926738
0.0131523
0.0280907
0.0175075
0.00931924
0.00994095
0.0159265
0.0327036
0.0187888
0.0303346
0.0140119
0.0137004
0.0126628
0.0125377
0.0138211
0.0160855
0.017083
0.0206701
0.0232955
0.0252563
0.0261408
0.0274703
0.0278502
0.0292462
0.0296779
0.0322771
0.0325244
0.0325792
0.0321235
0.0298343
0.0268267
0.024713
0.0305373
0.0353717
0.0385425
0.0409232
0.0433265
0.0420786
0.0385145
0.0376672
0.0357799
0.0346914
0.0332945
0.0302481
0.0264667
0.0217192
0.0211926
0.0271498
0.0328317
0.0490733
0.0527892
0.0525274
0.054839
0.0553145
0.0570312
0.0574451
0.0600562
0.0606095
0.0617396
0.0620637
0.0670997
0.0679594
0.0689303
0.0692403
0.0690046
0.0699848
0.0699968
0.0475416
0.0426198
0.0386764
0.0321124
0.0269237
0.0341329
0.042512
0.0476635
0.0728015
0.0733067
0.0769793
0.0795772
0.0844431
0.0880944
0.0929152
0.097379
0.10175
0.105187
0.10726
0.107679
0.108189
0.107368
0.106128
0.115002
0.149452
0.165969
0.19643
0.211455
0.22434
0.228753
0.219801
0.223388
0.215072
0.217521
0.210936
0.208729
0.203144
0.196548
0.192748
0.186164
0.18196
0.209859
0.157933
0.12094
0.0806076
0.0648384
0.0568528
0.0520466
0.0561216
0.0430713
0.0363942
0.0557032
0.0507223
0.0400039
0.0262505
0.0188776
0.0323086
0.0477461
0.0645111
0.0817146
0.0974403
0.107738
0.110336
0.109266
0.104508
0.0966816
0.0815325
0.0614152
0.0422021
0.0347775
0.0320773
0.0281148
0.0221739
0.0178233
0.0157078
0.0141236
0.0123599
0.0111132
0.0105601
0.0107184
0.011029
0.0132268
0.0173091
0.0173006
0.0115986
0.0111492
0.00767107
0.00775978
0.00801836
0.013336
0.013484
0.0209114
0.0233625
0.0220054
0.0226995
0.0224362
0.0227366
0.022384
0.021198
0.0203639
0.0193963
0.0185567
0.0178155
0.0169953
0.0161965
0.0175234
0.0164767
0.0138815
0.0139941
0.0146037
0.0152474
0.0161303
0.0173907
0.0184642
0.021155
0.0213197
0.0208152
0.0209061
0.0194333
0.0187142
0.0199672
0.0194885
0.0132763
0.0130977
0.0191212
0.0187696
0.0186628
0.0224821
0.020906
0.0214296
0.0225661
0.0224674
0.0195347
0.0181783
0.016625
0.015448
0.0140735
0.0125639
0.0121921
0.0149565
0.0131849
0.0108129
0.0119994
0.0144098
0.0170234
0.0184839
0.0204698
0.0231865
0.0241527
0.0263964
0.0278183
0.029913
0.0307486
0.0355517
0.0362053
0.0340412
0.0321945
0.0311916
0.0274164
0.0234982
0.025915
0.026791
0.0271683
0.0272915
0.0271716
0.0235979
0.0231672
0.0216526
0.0211353
0.0195598
0.0190022
0.0178424
0.0170829
0.0160625
0.0142333
0.0134833
0.01267
0.0123185
0.0173728
0.0108708
0.0106234
0.0160292
0.00988799
0.0116326
0.0113708
0.0118854
0.0125357
0.0103798
0.0151794
0.0103694
0.0112535
0.0114652
0.0143598
0.00993343
0.0201895
0.0631715
0.0925203
0.111387
0.202389
0.24269
0.26303
0.283742
0.297999
0.313985
0.331547
0.349206
0.362242
0.363673
0.338007
0.319496
0.254585
0.227928
0.251669
0.28177
0.194268
0.166668
0.16893
0.169746
0.172306
0.173537
0.177153
0.175109
0.180143
0.175799
0.183038
0.17703
0.183458
0.176106
0.160832
0.144269
0.111864
0.101167
0.0652539
0.0505419
0.0395422
0.0287178
0.020935
0.0187911
0.0177882
0.0164432
0.016527
0.0126634
0.0130979
0.0083944
0.00616907
0.00985805
0.00969576
0.00722175
0.00982529
0.0112229
0.0117344
0.0122701
0.0125633
0.0192112
0.0192429
0.0246424
0.0245578
0.0291328
0.0347455
0.0359962
0.0396458
0.0570356
0.0575597
0.0573031
0.0571366
0.0567153
0.0494986
0.0492175
0.0481143
0.0475301
0.0445866
0.0440331
0.0419504
0.040813
0.0378594
0.0370362
0.0359055
0.0363429
0.040363
0.0552297
0.0977015
0.0292971
0.0278355
0.0204709
0.0145382
0.0213278
0.0159276
0.0154406
0.0136227
0.0187223
0.0134671
0.0137232
0.0165378
0.0170524
0.0164357
0.0213842
0.0266879
0.0234319
0.0258434
0.115915
0.0737794
0.0240847
0.0476867
0.0714987
0.157412
0.203679
0.139387
0.15921
0.18333
0.166441
0.139746
0.10901
0.0813164
0.0574892
0.0441215
0.0114189
0.0133779
0.0185077
0.0405175
0.0602336
0.101396
0.0832601
0.108838
0.148699
0.173118
0.209082
0.200541
0.172481
0.148471
0.145372
0.160753
0.162451
0.104816
0.101819
0.0776183
0.173951
0.219173
0.18438
0.231351
0.243821
0.142746
0.0317392
0.0184033
0.0151456
0.0139401
0.0124619
0.0194011
0.0114869
0.011671
0.0123867
0.0132975
0.0169812
0.02936
0.0134734
0.0149466
0.0183577
0.0158994
0.0149094
0.014656
0.0145618
0.0151762
0.0165323
0.0215691
0.0216701
0.0213364
0.0160065
0.0173014
0.0157168
0.0200304
0.0212381
0.0333553
0.0152774
0.0162218
0.0215273
0.47892
0.024666
0.0178447
0.0232396
0.0219109
0.0301585
0.0438036
0.457826
0.0440979
0.0351277
0.0586468
0.060933
0.0656158
0.0692926
0.0728174
0.0753345
0.0792915
0.0819321
0.0831761
0.0844316
0.100074
0.100027
0.09895
0.103551
0.0976456
0.0576847
0.0578884
0.0974255
0.105145
0.0594277
0.0410206
0.0385011
0.0311939
0.0323139
0.0418527
0.0439374
0.0616486
0.0614747
0.102517
0.0934924
0.0948923
0.0966603
0.0916729
0.0921597
0.0942127
0.0942642
0.0755195
0.0731846
0.0714137
0.0683775
0.0648289
0.0619237
0.0589974
0.0558985
0.0532505
0.0533167
0.0580287
0.0583947
0.0660639
0.072917
0.220776
0.149852
0.107063
0.0795203
0.0648658
0.0588557
0.058505
0.0617259
0.0649777
0.0666202
0.0674279
0.0708185
0.0925558
0.0948594
0.0977106
0.0951645
0.0989666
0.0970026
0.0945406
0.104438
0.112248
0.0656151
0.0676904
0.0477592
0.0445392
0.0324951
0.0330483
0.0235916
0.0195664
0.0195547
0.0195336
0.0197559
0.0226338
0.0316199
0.031727
0.046343
0.0462619
0.0517066
0.0753178
0.0723834
0.12907
0.118312
0.108638
0.101333
0.101706
0.103848
0.106451
0.101454
0.097875
0.092341
0.0725508
0.0685193
0.0663821
0.0651291
0.0637996
0.0671493
0.0902689
0.146022
0.223568
0.328778
0.429471
0.440507
0.399081
0.248841
0.289067
0.143679
0.164273
0.186123
0.16169
0.170341
0.319092
0.265246
0.375318
0.480559
0.534306
0.600569
0.637348
0.62544
0.496255
0.322148
0.3294
0.438912
0.767087
0.860523
0.743001
0.760853
0.65755
0.539771
0.521392
0.496768
0.560521
0.611365
0.576964
0.593851
0.538138
0.514013
0.444148
0.495514
0.362019
0.326082
0.306528
0.297705
0.356728
0.2887
0.325196
0.267329
0.273623
0.222401
0.227924
0.190282
0.145688
0.138137
0.128074
0.14341
0.162616
0.149001
0.153551
0.134093
0.114698
0.0913228
0.098547
0.0736185
0.069598
0.0705783
0.0802517
0.125594
0.368277
0.173231
0.163625
0.167874
0.178019
0.319755
0.283003
0.723447
0.507052
0.708747
0.47395
0.562368
0.470497
0.362954
0.378504
0.418282
0.598562
0.821702
6.65123
0.284682
4.26246
3.16454
3.32343
3.46935
4.44687
7.80623
7.11061
9.38796
6.80517
9.08102
4.97716
4.97586
4.32602
4.47137
4.43882
4.2615
5.19291
6.62858
0.238458
0.0909596
0.0854231
0.0856094
0.0873865
0.197771
0.0525651
0.201976
0.0539549
0.213405
0.0495071
0.246576
0.196839
0.0382332
0.0192578
0.02009
0.0168072
0.0203754
0.016923
0.0250477
0.0235422
0.0236987
0.0265828
0.0762111
0.29182
13.7833
1.65308
0.688512
0.788575
1.18139
0.802571
1.20219
1.67047
1.123
0.559744
0.366558
0.43253
0.523057
0.499411
0.637606
0.918405
0.898598
0.706266
0.71032
0.625931
0.884164
0.892913
1.05909
1.23742
1.13285
0.886768
0.698253
0.590329
1.0187
1.02466
0.957902
0.405012
0.113941
0.046767
0.0489298
0.0357182
0.0376431
0.034818
0.0547226
0.159782
0.220482
0.132362
0.428863
0.414008
0.564186
0.402699
0.412764
0.325592
0.349839
0.533263
0.582539
0.642053
0.673444
0.72394
0.667925
1.28373
2.19788
2.48537
12.8319
17.4043
3.19464
3.09166
13.9394
0.314823
0.083853
0.0233117
0.01743
0.0162167
0.0161299
0.0150008
0.0155383
0.0159996
0.0169634
0.0188282
0.0231943
0.0458273
0.201427
0.203391
0.0643311
0.0324243
0.0229687
0.0196156
0.0170461
0.0163868
0.0155315
0.0154591
0.015008
0.0156575
0.0174635
0.0237781
0.0774105
0.270976
11.3252
2.43394
2.25287
8.37886
5.79173
0.20669
0.0437859
0.0200932
0.0169264
0.0158837
0.0167537
0.0162655
0.0182109
0.0184019
0.0230154
0.0250202
0.0317619
0.0570644
0.110159
0.315416
9.57764
8.64932
8.37136
7.80928
0.310051
0.115168
0.0543841
0.0382279
0.0346223
0.033817
0.0226485
0.0236728
0.0189819
0.0216401
0.0182949
0.0226816
0.0483014
0.21185
5.34942
1.5689
1.69964
1.20863
0.611929
0.654436
0.66823
0.687834
1.77251
4.054
4.9861
3.42472
3.35879
4.70439
3.16849
2.47992
1.82768
1.74624
2.54416
1.96199
1.82418
1.3553
1.46513
1.06691
1.46628
0.810546
0.976143
1.07195
1.53007
1.39659
1.40952
0.907766
1.04949
1.47405
1.7239
1.64848
0.84327
1.22627
1.01296
0.654238
0.60608
0.632459
0.602456
0.577284
0.574292
0.578533
0.557562
0.574717
0.555021
0.587
0.546702
0.531929
0.506383
0.526005
0.543595
0.576079
0.359522
0.422006
0.426293
0.440675
0.453308
0.374217
0.450301
0.44111
0.658151
0.993883
0.832802
1.14976
0.678218
1.00241
2.00635
5.20674
2.34184
0.818654
1.34636
1.58224
1.13819
0.62751
2.55155
3.55855
1.22957
1.78352
10.3813
8.42969
16.5168
10.9636
18.6194
6.02884
4.63139
17.8019
6.66856
6.90205
4.50907
4.5168
2.95627
1.58313
1.62641
1.73851
1.22495
1.29796
1.20833
1.13266
1.47262
1.43729
1.88288
2.03218
2.57389
1.80965
1.77287
2.59373
1.0618
1.39799
1.83498
1.82647
1.35786
2.33796
3.15276
2.96281
2.13491
2.33328
3.50043
4.81303
4.57021
3.16358
3.96061
10.1243
13.5117
13.6826
4.21981
19.3219
18.2976
2.07392
0.564668
0.322527
0.0890096
0.0444736
0.0367061
0.0387759
0.143846
0.045864
0.0570924
0.0455509
0.0728187
0.0697606
0.0871489
0.217551
0.126329
0.215399
0.155036
0.188928
0.120569
0.192891
0.226142
0.235945
0.187672
0.115203
0.212362
0.305996
0.105528
0.353509
0.388782
0.259108
0.331332
0.394942
0.195563
0.993656
0.185175
0.126866
0.14629
0.392291
1.25649
0.217883
0.460542
4.47084
14.709
3.67393
0.935702
0.679025
0.0555772
0.0301764
0.0317734
0.0279298
0.0194576
0.0838745
0.0985979
0.404719
0.208224
0.277865
0.661382
2.92895
2.39872
1.12597
5.48513
10.2727
15.1498