/*--------------------------------*- C++ -*----------------------------------*\
| =========                 |                                                 |
| \\      /  F ield         | OpenFOAM: The Open Source CFD Toolbox           |
|  \\    /   O peration     | Version:  v2012                                 |
|   \\  /    A nd           | Website:  www.openfoam.com                      |
|    \\/     M anipulation  |                                                 |
\*---------------------------------------------------------------------------*/
FoamFile
{
    version     2.0;
    format      ascii;
    class       surfaceScalarField;
    location    "350";
    object      phi;
}
// * * * * * * * * * * * * * * * * * * * * * * * * * * * * * * * * * * * * * //

dimensions      [1 0 -1 0 0 0 0];
oriented        oriented;


internalField   nonuniform List<scalar> 
50655
(
0.0025666
-0.00360309
-0.00139107
-0.00510768
0.00131582
0.00362973
-0.00340973
0.00388189
0.00450315
-0.00249516
-0.00280538
0.00299936
-0.00368255
-0.00377069
0.00269068
-0.00178816
-0.00482268
0.000840559
0.000164333
-0.00468393
0.001624
-0.00183333
-0.0071899
0.00241843
-0.010476
0.00284802
0.000339354
-0.0112986
-0.00346646
0.00417899
-0.0120524
-0.00484465
0.00549602
-0.0129126
-0.00563678
0.0063929
-0.0261913
-0.00931984
0.0224046
-0.0487192
-0.0282689
0.0502365
-0.0483204
-0.0527273
0.0516313
-0.0311169
-0.0711354
0.0531541
-0.00458316
-0.0780618
0.050745
0.00778837
-0.0547438
0.0415609
-0.0019098
-0.0313866
0.0403119
-0.0213439
-0.0217389
0.0404063
-0.0173693
-0.0513525
0.0466555
-0.00742455
-0.0555982
0.0450957
-0.0391736
0.03142
-0.0419658
0.0187886
-0.0162976
-0.0166363
-0.0756902
0.0498659
0.0198584
-0.0798763
0.0428852
0.0305497
-0.0295513
0.018553
0.0342677
-0.00405533
0.0367268
0.017735
-0.0205166
0.0256712
-0.0179807
0.0287604
0.0167762
-0.00948654
0.0182124
0.00390928
-0.00138488
0.0141248
-0.00628458
0.00702432
0.00307426
-0.0053807
0.00041294
-0.00135751
-0.0053637
-0.00111106
0.00107567
-0.00628823
0.000128362
0.000778883
-0.0075502
0.000118383
0.00112699
-0.00866213
2.18554e-06
0.0010926
-0.0090477
-0.000325266
0.000694472
-0.00930603
-0.000746186
0.000987923
-0.00887287
-0.00117553
0.000726089
-0.00824273
-0.00165116
0.00100435
-0.00701975
-0.00210462
0.000865215
-0.00558519
-0.00257381
0.00112237
-0.00372257
-0.00286945
0.000990653
-0.00191066
-0.00305187
0.00122301
0.00108752
-0.00301577
0.000837155
-0.00236138
0.0025861
-0.00592857
0.00490052
0.00182344
-0.0115577
0.0046227
0.00094994
-0.0134903
0.00505367
-0.00318805
-0.0132094
0.00531109
-0.00565899
-0.00555229
0.00461277
-0.0123263
0.000471474
0.00558194
-0.0116474
0.000592556
0.00356537
-0.00371209
-0.00150843
0.0020834
-0.00296075
0.00214019
-0.000705001
-0.00452279
0.0021881
-0.000642219
-0.0058361
0.00234738
-0.00105045
-0.00710219
0.002305
-0.00105387
-0.00860333
0.00249749
-0.00101036
-0.0101692
0.00258358
-0.00103114
-0.0114641
0.00237539
-0.0010936
-0.0123655
0.00201292
-0.00112454
-0.0128309
0.00159845
-0.00114608
-0.0131459
0.00143154
-0.00112979
-0.0137461
0.00155807
-0.000972121
-0.0139507
0.00111517
-0.000925646
-0.0136553
0.000890983
-0.00120184
-0.0136448
0.000778291
-0.000804388
-0.0133707
0.000823711
-0.00111391
-0.0131241
0.000899132
-0.00116172
-0.0129801
0.000842707
-0.00100247
-0.0127049
0.000573326
-0.000864047
-0.0121663
0.000124756
-0.00067883
-0.0112661
-0.00045026
-0.000465225
-0.0101462
-0.00090965
-0.000225518
-0.00882948
-0.00100545
-0.000326059
-0.00738181
-0.000756058
-0.000705467
-0.00757962
-0.00068898
0.00087479
-0.0163831
0.000825534
0.00795144
-0.0211525
0.000405192
0.00430357
-0.0225957
0.00115171
0.000226246
-0.0425715
0.0163467
0.00351162
-0.0545532
0.00560391
0.00607946
-0.0294551
-0.0162975
-0.00910817
-0.0131108
-0.0149484
-0.00152802
-0.0112528
-0.00398839
0.00205242
-0.00999869
-0.0030774
0.00173316
-0.00808124
-0.00342743
0.00140848
-0.00471973
-0.00329146
-0.000165329
-0.00317638
-0.00162865
-0.00444163
0.00458755
-0.00341719
-0.00266112
0.00673019
-0.00862433
0.000930595
0.00620674
-0.00993064
0.00623412
0.00589449
-0.0113428
0.015025
0.00877979
-0.0177518
0.0285696
0.0137493
-0.0275764
0.024894
0.0196506
-0.0162564
0.0164773
0.00635931
0.00187265
0.00769633
7.2945e-05
0.00856072
-0.00120038
-0.00403321
0.012795
-0.00448949
-0.00682804
0.0100008
-0.0075692
0.00540068
0.00441674
0.000982189
-0.0102176
0.00215256
-0.00825857
0.00358104
-0.00502966
-0.00433781
0.00736103
-0.0124635
0.00202844
0.00534547
-0.0143451
0.00568176
0.00242233
-0.0385472
0.0269021
0.0232691
-0.00689989
-0.0133403
0.0370658
-0.00980649
-0.0392944
-0.00483897
0.00927315
-0.00912916
-0.000571455
0.00895972
-0.0074628
0.00264819
0.00958258
-0.00671791
0.00457321
0.00960219
-0.00490696
0.00711964
-0.00134416
0.011264
-0.00496945
-0.0027195
0.0124413
-0.00190292
-0.00245419
0.00881832
-0.000396082
-0.00415063
-0.00202985
-0.0210758
-0.00213516
0.0295526
-0.0106668
-0.0143216
-0.00167875
-0.00712415
-0.00249896
-0.00733649
0.0158767
0.00132029
-0.0102774
0.0219251
0.00112446
-0.00900784
0.0324744
0.000343602
-0.0132049
0.0832128
-0.00215316
-0.0360058
0.0467927
-0.00196035
0.0455189
-0.00220388
0.00744309
-0.0031179
0.0384438
0.00385357
0.0217865
0.00195664
0.0232296
-0.000318476
0.0113143
0.0139351
0.00622972
-0.00794321
0.000101929
0.00680804
0.00521483
-0.00148386
0.00731894
0.00818476
-0.00152693
0.00712009
-0.0150722
0.00797708
-0.00210044
0.00736755
-0.0153152
0.00850127
-0.00126584
0.00743398
-0.0167022
0.00841314
-0.00130399
0.0074178
-0.0160127
0.00861222
-0.000631172
0.00728129
-0.0165808
0.00860608
-0.000256224
0.00702991
-0.0159837
0.00855887
0.000707714
0.00623417
-0.0154463
0.00822963
0.00576454
0.00442093
-0.0169444
0.00745211
0.00149116
-0.0041503
0.00567672
0.00273263
0.000805464
0.00538041
-0.000280766
0.000625652
0.00713855
-0.000735326
0.000779583
0.00801406
-0.00115037
0.000935163
0.00831686
-0.00120413
0.00127211
0.0083846
-0.001317
0.00149582
0.00855926
-0.00136227
0.00149803
0.00870438
-0.00135201
0.00126113
0.00871558
-0.0013709
0.000933766
0.00883055
-0.00119614
0.00730615
-0.000263728
0.00935308
-0.00199889
-0.000818073
0.0110301
-0.00184409
-0.000853786
0.0123128
-0.00154107
-0.000667123
0.0130976
-0.000306488
-0.000944339
0.0135271
0.000857076
-0.00117749
0.0137039
0.00171314
-0.00133251
0.0137021
0.00224069
-0.00141238
0.0137604
0.0022525
-0.00142829
0.0137154
0.00182705
-0.000974731
0.013723
0.00134768
-0.000593069
0.0139063
0.00122441
-0.000532352
0.0132973
0.00113896
0.000570019
0.0124496
0.00243066
0.000227352
-0.000266457
0.0126934
-0.000411318
0.00243683
-0.000850979
0.0123572
-0.000236056
0.00280089
-0.000643453
0.0114845
-7.29483e-05
0.00311484
-0.000169493
0.0102218
5.00841e-05
0.000295169
0.00327964
0.0086226
0.00072124
0.00331768
0.000130322
0.00687673
0.00104006
0.00305147
0.000138005
0.00587202
0.000963004
0.00224285
8.88957e-05
0.00442855
0.00462382
-0.000849352
0.0028736
0.00427892
-0.000552079
0.00142459
-0.000501561
0.00407434
0.00389374
-0.000402676
0.00560345
-0.000510465
-0.00121539
0.0068284
-0.000406315
-0.000835487
0.00780054
-0.000604185
-0.000384439
0.00816515
-0.000470542
8.92141e-05
0.00822042
-0.000603165
0.000531433
0.00752903
-0.000255655
0.00093045
0.00654731
-0.000288813
0.00125397
0.00471889
0.000304597
0.00150674
0.00199509
0.00117661
0.00153006
-0.00179118
0.00206797
0.00170035
-0.00452385
0.000523268
0.00219141
-0.00604485
-0.000896831
0.00239857
-0.00733021
0.000613148
0.000650266
-0.0138211
0.000489467
0.00595658
-0.0249701
-0.00657669
0.0176098
-0.0311335
-0.0162184
0.0222166
-0.0392057
-0.0262663
0.034072
-0.0318665
0.0237705
0.0162178
-0.0386117
0.00908018
0.0260274
-0.0167031
0.00682493
-0.00458691
0.004294
-0.032335
0.026261
0.00143828
-0.0147705
-0.0232805
0.00568083
-0.0374842
0.00596423
0.0412609
-0.0574848
-0.000736304
0.0290932
-0.0500721
0.0152156
0.0126121
-0.00993484
0.016972
-0.0102293
0.0109753
-0.00256005
0.0190466
0.00785284
0.0114262
-0.0125605
0.0134884
0.00538336
-0.00625671
0.00138437
0.0112799
0.00495519
0.00102986
0.0027511
0.00129704
-0.00099961
0.00149044
0.00276196
-0.00486446
0.00386254
0.00204875
-0.00543117
-0.000437684
0.00216005
-0.00957008
0.00200361
0.00241942
-0.00822268
-0.00368023
0.00202394
-0.0118749
0.00195744
0.00141923
-0.00891509
-0.00417608
0.000593328
-0.0112501
0.00215594
-0.000311181
-0.00732719
-0.00319634
-0.00135048
-0.00816146
0.00229578
-0.00188799
-0.0044086
-0.00170312
-0.00257945
0.00130579
-0.00257076
0.00404654
0.0117425
-0.0106638
0.0116149
0.00648324
-0.00949129
0.0132235
0.00878952
-0.00515678
0.0103648
0.010386
-0.00254342
0.00428789
0.00939091
0.00125621
0.0125636
-0.00186686
-0.0022413
0.000673664
0.0147857
-0.0060721
0.00517583
-0.00335465
0.00195343
0.0146859
-0.00760599
-0.00315299
0.00308898
0.00769647
0.0100974
-0.00793295
-0.00275489
0.00314681
0.0120553
0.00175415
-0.00673206
-0.00206053
0.00098813
0.0160627
-0.000550537
-0.00464313
0.00742459
-0.000175759
-0.00524018
0.0113838
0.000222004
-0.0103779
0.0126075
-0.00896614
-0.0142399
-0.0141559
0.00842131
0.00571541
-0.0241226
0.0041188
-0.0185656
0.00624561
-0.016555
-0.0113645
0.00928483
0.00790359
0.00962161
-0.0341268
-0.0238153
0.00756105
0.0111695
0.00744883
-0.0100628
-0.0324595
-0.00920289
0.00783268
-0.0016738
-3.53527e-05
0.00785838
-0.00662928
-0.0104598
0.0115809
-0.00768274
-0.0142261
0.0104576
0.010616
-0.000694522
-0.00888351
0.0103763
-0.00157321
0.00801142
-0.00762887
0.00366572
0.00104774
0.00479658
-0.00349909
0.00559483
-0.00629951
0.013998
-0.0121388
-0.00349286
0.0108206
-0.0170406
-0.00261881
0.00572442
-0.0169782
-0.000973643
-0.00118228
0.00207299
-0.0082846
0.00851568
0.00960239
-0.0096307
0.0110463
0.0111943
-0.00501559
0.0117645
0.0117992
-0.00221164
0.0105664
0.00444804
-0.0111057
0.0109054
0.00309034
-0.00927231
0.0120381
-0.0021558
-0.00503102
0.0116493
-0.00477991
0.00968291
-0.00615598
0.00226352
0.00362405
0.00110384
0.00810158
0.00725831
-0.00153437
0.0110968
0.00853352
0.000422349
0.00734274
0.0066549
-0.00918622
0.0102022
-0.000476852
-0.00702427
0.00399295
0.00229018
0.000218424
0.00171306
-0.00178692
0.0050712
-0.00639692
-0.00147912
-0.00228056
0.01876
-0.00369802
-0.0192571
0.0169963
-0.00146917
-0.00172315
-0.0161341
-0.0118831
-0.000956727
0.00340441
-0.00859762
-0.0107126
-0.0132522
0.00666848
-0.00596819
-0.00495487
0.000913573
0.00139849
0.000390832
-0.00209145
-0.00427003
-0.000991862
0.00399016
-0.00260906
-0.000424055
0.00181871
-0.0023879
0.00130695
-0.00382465
0.00680389
0.000709761
-0.0111736
0.000648269
-0.00348572
0.0105403
-0.0034652
-0.0044311
-0.0190195
0.0140537
-0.0118803
-0.0194571
-0.0117948
0.00784717
0.00429297
-0.0266248
-0.0154002
0.00258419
0.00933447
0.0105382
-0.0355862
-0.0164747
0.0130722
0.00183878
0.0104229
-0.0422843
-0.0146275
0.00984152
8.71315e-05
0.0112935
-0.043646
-0.0107826
0.00324476
-0.00152952
0.0103245
-0.0431288
-0.0061674
-0.00149564
-0.00183785
0.0088738
-0.0394536
-0.0033543
-0.00448177
0.0040668
-0.0347123
-0.00120309
-0.00709182
0.00648463
-0.00303906
-0.0321529
0.0013108
-0.00609617
0.00561575
-0.00349176
-0.0291082
0.0026132
0.00449222
-0.00397195
-0.0062809
-0.0289147
0.00200481
0.00398504
-0.00353728
-0.00275813
-0.0298199
0.000137644
0.00186503
-0.00120459
-0.0277638
-0.00166603
0.00141878
-0.00192241
-0.022951
-0.00270389
0.00157476
-0.00378005
-0.0301256
0.00173481
0.0226221
-0.0172579
-0.0592433
0.029319
-0.0129909
0.0124128
0.00595948
-0.0198858
-0.00141612
-0.0132567
-0.0251813
-0.00911838
-0.0122491
-0.000510035
-0.00873659
-0.0111485
0.000584606
0.000298105
-0.00942127
-0.00062924
0.000538611
-0.0057975
-0.00379939
0.00147382
-0.00309525
-0.00401703
0.00105105
-0.00453959
-0.000253988
-0.00445993
0.000797592
-0.000924489
-0.00684868
0.00204669
0.000278868
-0.0107894
0.00220149
0.00165963
-0.013101
0.000811745
0.0014212
-0.0133675
-0.000357826
0.000554618
-0.0130766
-0.0017529
0.00140795
-0.0236491
0.00141988
0.00907786
-0.0568531
0.0174997
0.0154975
-0.101281
0.00880883
0.035046
-0.117926
-0.00592546
0.0218765
-0.127266
-0.0116495
0.0202151
-0.133681
-0.0165485
0.0221285
-0.137324
-0.0222398
0.0249985
-0.138646
-0.0273065
0.0277181
-0.138568
-0.0307906
0.0297881
-0.137758
-0.0329438
0.031209
-0.136304
-0.0341922
0.031822
-0.13416
-0.0348397
0.0317946
-0.130323
-0.0353468
0.0306379
-0.122357
0.0278542
-0.0366544
-0.10322
0.0208252
-0.0407213
-0.0534267
0.00334994
-0.0537618
-0.0226043
-0.00121397
-0.0298273
-0.0123768
-0.00427916
-0.00602568
-0.0120987
0.00199262
-0.00232579
-0.011199
0.00433245
-0.00530292
-0.00876393
0.00384746
-0.00636299
-0.00424854
0.00401491
-0.00861465
-0.00478685
0.0034817
-0.00301462
-0.00805541
-5.76789e-05
0.00327542
-0.0078169
0.0023625
-0.00267218
-0.00893675
0.00103204
-0.0138085
0.00697949
-0.00220629
-0.0166417
0.00714616
-0.00442296
-0.0189181
0.00764346
-0.00546969
-0.0237751
0.00700269
-0.00225035
-0.0533233
0.0187344
0.0106173
-0.0979468
-0.0080697
0.0521195
-0.110945
-0.0316589
0.0439369
-0.11241
-0.0418094
0.0424629
-0.107712
-0.0476519
0.0421322
-0.0989195
-0.0521201
0.0424704
-0.0862109
-0.0543376
0.0408044
-0.069216
-0.0558365
0.0380218
-0.0494471
-0.0568104
0.0362755
-0.0237556
-0.0481108
0.0217826
-0.0376283
0.013434
-0.0534735
0.0232612
-0.00788313
-0.0592777
0.0254823
-0.0201808
-0.0593374
0.026805
-0.0272716
-0.0503168
0.0265859
-0.0361326
-0.0402404
0.024489
-0.0350682
-0.023064
0.0166281
-0.0342717
0.00940926
-0.0329119
0.0272375
0.0381086
-0.0565735
0.0509942
0.0495032
-0.0740258
0.0748596
0.049596
-0.0742811
0.0950324
0.0498087
-0.070806
0.110759
0.0470051
-0.0635878
0.118958
0.0396833
-0.048705
0.116903
0.0329147
-0.0316698
0.101205
0.0300396
-0.0150619
0.0544722
0.0398262
0.00633292
0.0254572
0.0250277
0.00379098
0.0213498
0.00417479
-0.000172073
0.0194376
0.000588131
0.00122145
0.0158597
0.00029575
0.00317225
0.00912452
-0.00025149
0.00688815
-0.0009287
0.00996544
-0.000976303
-0.00970471
0.00965657
0.000709435
-0.0130965
0.0113018
0.00254895
-0.0142258
0.0122631
0.00405109
-0.0135579
0.0119202
0.00429298
-0.0191538
0.018734
0.00780658
-0.0286157
0.0248169
0.00379335
0.0236084
-0.0198789
-0.00021627
0.0168876
-0.0130571
-0.000406493
0.00843395
-0.00837939
-0.000564799
0.00774531
-0.0077102
-0.00110139
0.00737244
-0.00694484
0.00631596
-0.00648109
0.00344422
0.00545842
-0.000286719
0.00322345
0.00619424
0.00132692
0.00331936
0.00591849
0.00165316
0.00398301
0.00478699
0.00290509
0.0103389
0.0115973
-0.0011713
0.0194021
-0.00899167
-0.000117007
0.00911122
-0.00420267
0.0144528
-0.0230299
-0.0114166
0.0434879
-0.0155417
-0.00575991
-0.0018068
-0.000981515
0.00357705
0.00487249
-0.00944679
0.00605321
-0.00260392
0.0036241
-0.00178848
-0.00825936
0.000438283
-0.00917136
-0.0102617
-0.0126574
0.0184244
-0.00480222
-0.0307334
0.00322781
0.00366041
0.00405648
-0.0175348
-0.0496658
0.00586489
0.0101294
0.000849876
-0.0581451
-0.0156559
0.0262074
-0.00421698
-0.0203944
0.00616988
-0.00324014
-0.0202773
0.00561001
-0.0022624
-0.0206349
0.00530676
-0.000893154
-0.0190164
0.00443819
-0.014978
0.0040319
-0.0211136
0.0022599
0.00404661
-0.0219297
-0.00134801
0.00263806
-0.01788
8.71774e-05
0.00542989
0.00165293
-0.0465688
0.0354317
0.00829654
0.00805423
-0.115023
0.0350312
0.0514567
0.0209016
-0.125121
0.0472739
-0.00799116
-0.125982
0.0547455
-0.0218363
-0.118176
0.0645026
-0.0335017
-0.103263
0.0731597
-0.0419503
-0.0841601
0.0769008
-0.0470626
-0.0615758
0.0746874
-0.0485149
-0.0367268
0.0743379
-0.0504977
0.0504384
-0.0329958
0.0588729
0.0458879
-0.0304408
0.0684591
0.0517983
-0.0354236
0.0687678
0.0529465
-0.0270751
0.0633523
0.0506744
-0.0203842
0.0439616
-0.00602637
-0.0882071
0.0718837
0.00266061
-0.097998
0.0755216
-0.0159649
-0.0994973
0.0799834
-0.02648
-0.0881899
0.0792169
-0.0396682
0.0719219
-0.0407946
0.0880123
0.094486
-0.0367798
0.0976181
0.101685
-0.0330032
0.0944819
0.101107
-0.0189171
0.0819142
0.0960472
-0.00884883
0.090336
0.00678603
-0.0812493
0.103427
0.0129533
-0.0944555
0.110518
-0.00218566
-0.0983482
0.116002
-0.0119635
-0.0904641
0.116891
-0.024051
0.111441
-0.0314399
0.0869857
0.124269
-0.0275902
0.0946433
0.128298
-0.0200413
0.0912274
0.126441
-0.00799935
0.0783098
0.120343
0.00215631
0.112099
0.0166347
-0.0724324
0.11667
0.0193335
-0.0843642
0.125431
0.00590652
-0.0866946
0.132018
-0.00422596
-0.0787776
0.134418
-0.0150172
0.131354
-0.022297
0.0681696
0.132027
-0.0150332
0.0760646
0.134766
-0.00922003
0.0749816
0.131175
0.00094885
0.0640537
0.12477
0.0106517
0.115477
0.02257
-0.052561
0.105758
0.0297659
-0.0645881
0.116321
0.0195335
-0.0641387
0.119902
0.00985975
-0.056198
0.12532
0.000542475
0.126204
-0.00404474
0.0351282
0.0191719
0.0613481
0.0446483
0.0514071
0.0947015
0.0134647
0.0547195
0.0924653
0.0232496
0.0357184
0.0482895
0.0452225
0.0408705
0.0445105
0.0365191
0.0514859
-0.0122924
0.0268443
0.0153774
0.0143649
-0.0187185
0.027664
0.0150797
-0.0152795
0.0311353
0.0135119
-0.0135233
0.0290528
0.0142045
-0.0399339
0.027535
0.0407625
-0.000785487
0.0248736
-0.0283778
-0.00826249
0.0384953
0.00580839
-0.0370267
-0.00678589
0.029955
0.00548519
-0.0370933
-0.00458062
0.0290709
-0.0365409
0.00509486
0.0258654
0.00347576
0.0038008
0.00515404
0.00491066
0.00715541
0.00679463
0.00761455
0.00904951
0.00891582
0.008391
-0.00413632
-0.0199433
0.0156844
0.0026659
-0.000614028
0.000586675
0.0062471
0.0028992
0.000296747
-0.000534086
0.000353117
0.00408995
-0.00154873
-0.0024386
-0.00132202
0.00410956
-0.0016569
-0.000488592
0.00117864
0.010596
0.0120823
0.0316091
-0.0531996
0.00539974
0.017775
-0.00423568
-0.00728935
0.0568284
0.00123865
-0.0150783
0.00283758
0.00353765
-0.00655141
0.00504925
0.00397717
-0.00620356
-0.0222026
0.00968942
0.0175222
-0.00940702
-0.0125203
-0.000318901
0.0179247
-0.00256861
0.0239348
-0.00789328
0.0462646
-0.01271
0.021589
0.0766089
-0.0248305
-0.0326668
0.00460839
0.00708451
0.0297698
0.00212844
-0.0175532
0.00803565
0.0136636
-0.00405229
-0.0106548
0.00847106
0.0149646
-0.00404816
-0.0114584
0.00757441
0.0144396
-0.00236664
-0.0112828
0.00613068
0.0127935
-0.0104327
-0.00101572
0.00367431
0.0105316
-0.00879713
0.000634627
0.0087302
-0.00790258
0.00276627
0.00843377
-0.00315711
0.00338281
0.00803184
-0.0028018
0.00314867
0.0151841
-0.008089
0.000859492
0.0392544
-0.0159678
-0.00832136
0.0727954
-0.0389311
0.00477146
0.0828606
-0.0276666
0.0168419
0.0844018
-0.0235203
0.0211452
0.0818173
-0.0202575
0.0219695
0.076601
-0.0158213
0.0201348
0.0695711
-0.00871604
0.0148275
0.0601058
0.00175742
0.00677982
0.0415525
0.0176678
-4.23817e-05
0.0140734
0.0416293
-0.0150683
-0.00584206
0.0553379
-0.0363247
-0.00194147
0.0502705
-0.0550429
0.0121599
0.0392802
-0.0542146
0.0155486
0.0262774
-0.0304244
0.00971502
0.028879
-0.0236627
0.00221234
0.0113486
-0.00406423
0.000489945
0.00387793
-0.0022325
-0.00032166
0.00180643
-0.00104941
-0.00204082
0.00328545
-0.00163581
0.00316135
-0.00228059
0.00315748
0.00525518
-0.00145451
7.13287e-05
0.00666118
-0.000364999
0.00204355
-0.000187361
0.00651924
-0.000626411
0.00159773
0.00599596
-0.00370818
0.00252095
0.0054521
0.00625656
0.00106646
0.0115978
0.0171116
-0.010618
0.0152597
-0.0103712
0.0234104
0.0239306
-0.0297795
0.0433425
0.014427
-0.044044
0.0506206
0.0129792
-0.0623979
0.0464878
0.0262516
-0.0784216
0.0295449
0.027143
-0.0894711
0.00776733
0.0199775
-0.0950534
-0.00856568
0.0149325
-0.0985155
-0.0208484
0.0146282
-0.100732
-0.0294325
0.0148734
-0.10094
-0.0352018
0.0142157
-0.0975768
-0.0395687
0.0117637
-0.0887099
-0.0439723
0.00653044
-0.0319069
-0.0406018
-0.0448044
-0.0113111
-0.0184336
-0.0104314
-0.0191815
0.00262282
-0.0153819
-0.00711176
0.00132398
-0.00575817
0.000263109
-0.00943948
0.000857773
-0.00380614
0.00166461
-0.00749525
0.000996346
-0.00882242
0.0158377
-0.000177075
-0.00796736
0.0158479
-0.00183869
-0.00616034
0.0139386
-0.00216346
-0.00206933
0.0198153
0.00572232
0.0205001
0.107054
-0.0446188
-0.00952253
0.00401634
0.0307086
0.00548509
0.00762947
0.0105209
-0.000247493
0.00843983
0.0142904
0.000668423
0.0151483
0.00192745
-0.016266
-0.0197636
-0.0126765
0.0308319
-0.0202631
0.0463139
-0.017865
-0.0511627
0.106968
-0.024571
-0.0522021
0.121917
-0.014988
-0.104459
-0.0444576
0.125731
-0.0301814
-0.0752681
-0.0286294
-0.017445
-0.0288622
-0.0143354
-0.00289952
-0.0403322
0.0170224
-0.00212072
-0.024153
-0.00527057
0.027967
-0.0054479
-0.00855565
0.0163648
-0.00785438
-0.00931397
0.0144655
-0.00618544
-0.00946565
-0.011831
-0.00273342
0.0501716
-0.0212459
-0.0125789
-0.00610509
0.000615484
-0.0119215
-0.00848629
-0.000107019
-0.0087434
-0.00715113
-0.00156725
-0.00496708
-0.00441588
-0.00158085
-4.32318e-05
-0.000758086
-0.00377886
-0.00045318
-0.00986366
1.29974e-05
0.000443987
0.0012732
-0.00170574
0.00137245
-0.00207768
0.00335961
0.00174948
-0.00264972
0.00437433
0.00205936
-0.001978
0.00371601
0.00175334
0.00267032
0.000706259
0.00450897
0.00263474
-0.0010606
0.00470927
0.00384291
-0.000402965
0.00456628
0.00492176
-0.000485489
0.00482793
-0.000754351
-0.00637681
0.010876
-0.00419762
-0.00620372
0.0109002
-0.0062632
-0.00533533
0.0100545
-0.0071855
0.00901245
-0.00778936
0.00656978
0.0118716
-0.00566887
0.00799754
0.0135998
-0.00507175
0.0081865
0.0151218
-0.00451706
0.0149284
-0.00312366
-0.00919659
0.0168689
-0.00133052
-0.00931686
0.0178744
-0.00273845
-0.0096577
0.0177711
-0.00393483
0.0104801
-0.00401021
0.0128678
-0.000416868
0.0102344
-0.00167464
0.00749689
0.023294
-0.00289871
0.00735356
0.0183095
-0.000381922
0.0173031
0.000735547
-0.00884353
0.0484857
-0.0252045
-0.00519563
0.0421648
-0.0276478
0.0450076
-0.028295
0.0293997
0.117696
-0.0575573
0.12755
-0.0450578
0.0508059
0.134988
-0.0386902
-0.0206002
0.0554557
0.134909
-0.014943
0.0520747
0.130157
-0.00597472
0.115339
-0.00131459
-0.0502613
0.119794
0.00521681
-0.0559824
0.135129
-0.000334357
-0.0535092
0.140835
-0.00948284
-0.0448512
-0.0146279
0.139938
-0.128251
-0.0233226
0.133655
-0.029328
-0.0128514
-0.051176
-0.114407
0.0286512
0.119392
-0.106081
-0.0668156
0.118407
-0.0384026
-0.0495511
-0.0681071
-0.00476823
0.0138706
-0.013529
-0.0193398
-0.0195584
-0.009982
-0.0060271
-0.0131269
-0.00290411
-0.0140159
-0.00406792
0.00257658
-0.0143898
-0.00818362
0.00317428
-0.01275
-0.0106203
0.0025308
-0.00980509
-0.0145112
0.00286122
-0.0107501
0.00114338
-0.0137745
0.0160582
-0.013743
0.000612971
-0.00949334
-7.39469e-05
-0.0153598
0.0144759
-0.0015774
-0.0167611
0.0116524
-0.0027119
-0.0180434
0.00965905
-0.00145815
0.0149485
-0.025473
0.0110916
0.0252053
0.0187259
0.0207364
-0.0498554
0.018851
0.0161734
0.0178337
-0.0277845
0.030562
0.016056
0.0191772
-0.0470798
0.021361
0.013431
-0.0227592
0.0184009
0.0392761
-0.0422255
0.00893595
0.0152738
0.0201048
0.0463368
-0.0101077
-0.0171591
0.0253925
0.0301028
-0.0202403
-0.0152785
-0.0172259
-0.0205984
0.00991825
-0.0182568
0.00381641
-0.0127862
-0.0179434
0.00437235
-0.0172337
-0.0122976
0.00330672
-0.0161238
-0.0141118
0.0022831
-0.0167836
0.00209995
-0.0176616
-0.0170637
0.0174509
0.000374321
-0.0162758
-0.000770994
-0.0183822
0.0156365
-0.00198985
0.0130046
-0.00309174
0.0175578
0.0143243
-0.00279115
0.017429
-0.00140722
0.0164869
0.0182389
-0.0170363
-0.000365715
0.0183861
0.00133281
-0.0151268
0.00285804
-0.0154898
0.00100803
0.0174976
-0.0154067
-0.00120404
0.0144756
-0.00214779
-0.00752509
-0.0160182
0.0235853
0.0168673
-0.00150662
-0.0143792
-0.0171382
-0.0262006
-0.0242648
-0.00255141
-0.105282
0.103813
0.00754497
0.00121176
0.0182455
0.0127153
0.0239208
0.0147016
-0.0202565
0.0176546
-0.00846024
0.0179704
-0.0122417
-0.00477236
0.00236106
-0.000511418
-0.005552
0.00484976
-0.0058225
-0.00170853
-0.00210869
-0.00217616
-0.00379212
0.0131664
-0.00099037
-0.00316297
-0.00140289
-0.00338357
0.0163848
-0.020076
-0.0115629
0.015479
0.00688484
-0.0116009
0.0176065
0.00911388
-0.0132624
0.0202215
0.00893407
-0.0141961
0.0229753
0.00891708
0.0301966
0.011995
0.00988102
0.0134921
0.0124982
0.00947917
0.0132826
0.00991527
0.00784658
0.0119302
0.00975305
0.00607426
0.0108104
0.00841432
0.0100057
0.00699968
-0.00220257
0.00342411
-0.00261395
0.00416441
-0.00327923
0.00476063
-0.00391277
0.00540411
0.00651373
0.00166375
0.00290475
0.00142427
0.000511134
0.000410273
0.0013948
-0.000143788
0.0019869
-0.00155153
-2.80606e-05
-0.000930137
0.00194837
0.000965238
-0.000330894
0.000792765
-0.000435617
0.00182698
-0.00111613
0.00121438
-0.00053698
0.000311343
-5.66623e-06
0.00202499
-0.00174477
2.78361e-05
0.00379622
-0.000561276
-0.00359449
0.0111522
-0.00639109
0.00357368
-0.0180327
0.00336521
0.0170627
0.00388382
-0.0181425
0.0204366
0.00715278
0.00293353
0.00677388
-0.0170798
0.0208517
0.000286671
0.00596705
0.0197983
-0.0148508
-0.0136331
0.0141913
0.0050376
0.0109819
-0.0073888
0.0172051
-0.00765741
0.017277
0.0109145
-0.000404705
0.0199841
0.00717946
0.00334118
-0.00115104
0.00152944
-0.00351781
0.000374804
-0.00229286
0.0126016
0.00135515
-0.0023376
0.000793589
0.000619035
-0.000777592
0.00151187
-0.000568259
0.0015604
-0.00039245
-0.00124393
0.00106685
-0.00207041
0.000898889
-0.000211127
-0.000225535
-0.00163524
-0.000455845
-0.00209488
0.00024752
-0.00185639
0.00140178
-0.0013812
0.00039179
0.00011224
-0.00188649
0.000170752
-0.00141562
-0.000661051
-0.00126501
-0.00240706
0.00114943
0.00124229
0.000228955
0.000475015
-0.00129706
0.00044799
-0.00168402
-0.000480133
0.000536278
0.000390329
0.000109388
6.94275e-05
-0.0006603
0.0010447
0.000305249
0.000313933
-0.000890863
-0.00161347
0.00281487
-0.000776001
0.000272816
0.000179206
-0.000888187
-0.00113196
0.00380491
0.0013782
-0.000360079
-0.00302807
0.0122796
-0.00264716
-0.00129419
-0.00174902
1.10758e-05
-0.000830544
0.000260166
-0.000726746
0.000329406
-4.07983e-05
-0.00112152
-4.4534e-05
0.00188303
-0.000307179
-0.0016237
-0.0013226
0.00321238
-0.000894772
-0.000170802
-0.00124529
0.00111878
0.00204365
0.000342675
0.000324067
0.000921562
-0.000129426
0.00191584
-0.00142359
-0.000171543
-0.00137071
0.00319723
8.49535e-05
-0.000651962
0.00019964
0.00286151
-0.00405631
0.0133108
-0.0011315
-0.0180592
0.000748059
0.00705504
0.0245561
-0.0164939
0.0219098
0.00640946
-0.0177795
0.0225937
-0.0020985
-0.0148939
-0.00439149
-0.0206951
-0.0218707
-0.00631596
-0.021903
-0.00573382
0.0151614
-0.0026333
0.0198012
0.0317988
0.0374628
-0.023587
-0.101135
0.0665804
-0.0967683
0.070059
-0.107846
0.0712716
-0.0171011
-0.110088
0.068687
-0.0248583
-0.106624
0.0674388
-0.0296612
-0.0981338
0.0662747
-0.0331957
-0.086025
0.0636063
-0.0358049
-0.06859
0.0576486
-0.0379455
-0.0487903
0.0532467
-0.0376711
-0.0386704
0.0426427
-0.0317273
0.00431091
-0.0299586
0.0169014
0.032248
-0.045506
0.0145772
0.0447066
-0.0430499
-0.00709484
0.047738
-0.0264773
-0.0341893
0.0266557
-0.0509383
-0.0129231
0.0292049
-0.0596556
-0.0245161
0.0327306
-0.0620345
-0.0310316
0.0328843
-0.055706
-0.0382287
0.031374
-0.047728
-0.0353061
0.0268253
-0.0303423
-0.0335907
0.0157379
0.00325849
-0.0340395
0.020102
0.0445714
-0.0620517
0.0426285
0.0556174
-0.0789099
0.0678825
0.0549351
-0.081009
0.087983
0.0523948
-0.0733199
0.099155
0.0477396
-0.0597683
0.0999805
0.0399837
-0.0416315
0.094273
0.0340837
-0.0291867
0.0824101
0.0308427
-0.0197001
0.0466074
0.0377293
-0.00250005
0.0224708
0.0228699
0.00107033
0.0193294
0.00392108
-0.000884498
0.0179717
0.000510085
0.000744844
0.0148333
0.000149957
0.00287815
0.0085861
2.37216e-05
0.0061245
0.00907616
-0.000577679
0.00715574
0.00345138
-0.00160158
0.00455642
0.00386472
-0.00131251
0.00472878
0.00169868
-0.00193384
0.00562006
0.00189741
-0.00286755
0.00525728
0.0030777
-0.00279273
0.00407931
0.00333843
-0.00223002
0.00305221
0.00268357
-0.00171109
0.00489899
0.00166575
-0.00358954
0.00956599
0.0026208
-0.00750632
-0.0224828
0.0327186
-0.00128774
-0.048638
0.0234107
0.00198537
-0.0609713
0.0103743
0.00112513
-0.0662498
-0.00196016
0.0063657
-0.0709791
-0.0166291
0.020454
-0.0758473
-0.0315923
0.0355383
-0.0769437
-0.0461919
0.0463513
-0.07392
-0.0594712
0.0555024
-0.0634483
-0.071549
0.0601253
-0.0453148
-0.0813904
0.0622998
-0.0172728
-0.0880931
0.0590879
0.0171732
-0.0843008
0.048894
0.0327427
-0.059099
0.0425682
0.0318597
-0.0454435
0.0454042
0.0242733
-0.0358238
0.0425069
0.010417
-0.0267089
0.0397381
-0.00024304
-0.0234957
0.0333539
-0.034928
0.0339357
-0.0505704
-0.0197305
0.0345751
-0.0577791
-0.0344933
0.0408913
-0.058194
-0.0493096
0.0488499
-0.0496483
-0.0643212
0.0549003
-0.0256587
-0.0818541
0.0569659
0.0045375
-0.0831774
0.0521052
0.00981339
-0.0470965
0.0409553
-0.00780668
-0.0265246
0.0433348
-0.02096
-0.0286551
0.0410227
-0.00458456
-0.0606675
0.043554
-0.0525198
0.0433107
-0.0152865
-0.0692867
0.00179996
0.0183815
-0.0551623
-0.0400581
0.0285581
-0.0397985
9.13126e-05
0.0321897
-0.0478622
0.016812
0.0306442
-0.0775297
0.0310545
0.0413948
-0.126552
0.0316854
0.0548753
-0.123631
0.0273515
0.0575741
-0.0965088
0.0285577
0.0526277
-0.0730589
0.0277901
0.0420263
-0.0521105
0.0273586
-0.0305015
0.0284789
-0.0372937
-0.0479546
0.0271669
-0.0393272
-0.0577414
0.0230217
-0.0337566
-0.0688893
0.0169048
-0.00553261
-0.0851274
-0.00319355
0.0352133
-0.120093
-0.0059592
0.0613897
-0.125756
0.010481
0.0767617
-0.119034
0.0212703
0.0842279
-0.10492
0.024909
0.0835932
-0.0869343
0.027108
0.0794533
-0.0667838
0.0237494
0.0717974
-0.0456138
0.0207057
0.0646739
-0.024365
0.0139013
0.0579539
-0.00318771
0.00700602
0.0463477
0.0144637
0.00659016
0.023783
0.0328559
0.0122033
-0.00751123
0.00283521
0.0465509
0.013641
0.00841084
-0.00283096
-0.00882821
-0.00441677
0.0153381
-0.00202168
-0.00220684
0.0108598
-0.00162961
0.00569858
0.000281131
0.0151711
-0.000232899
-0.00706701
0.00288721
-0.00666815
0.0273442
0.00329528
-0.00890091
-0.00774629
-0.000696633
0.00149224
-0.0079706
-0.00291214
0.00143168
-0.00656318
-0.00412867
0.00061723
-0.00485991
-0.00500121
0.00038556
0.00186016
-0.00360265
-0.000488098
0.00445284
-0.000950202
-0.0018068
-0.000331388
-0.000293053
-0.0011863
-0.000696652
-0.00058698
-0.00057617
-0.000539965
0.000416917
-0.00095294
-0.00324144
0.0128253
-0.00531484
-0.0116156
0.00303933
0.022194
-0.00752873
-0.00951781
0.0612542
-0.0307619
-0.0286594
0.0180909
0.055499
-0.0229678
0.0298006
0.0327459
-0.0152316
0.0381884
-0.0082994
-0.00437528
0.0508487
-0.0382933