/*--------------------------------*- C++ -*----------------------------------*\
| =========                 |                                                 |
| \\      /  F ield         | OpenFOAM: The Open Source CFD Toolbox           |
|  \\    /   O peration     | Version:  v2012                                 |
|   \\  /    A nd           | Website:  www.openfoam.com                      |
|    \\/     M anipulation  |                                                 |
\*---------------------------------------------------------------------------*/
FoamFile
{
    version     2.0;
    format      ascii;
    class       volVectorField;
    location    "350";
    object      U;
}
// * * * * * * * * * * * * * * * * * * * * * * * * * * * * * * * * * * * * * //

dimensions      [0 1 -1 0 0 0 0];


internalField   nonuniform List<vector> 
18258
(
(-0.176022 0.114591 0.138496)
(-0.0515296 0.245107 0.158593)
(-0.104641 0.212698 0.0962848)
(-0.0400998 0.0689458 0.0844984)
(-0.226125 0.201118 0.0190003)
(-0.159456 0.359139 0.017265)
(-0.223023 0.0443935 0.0542851)
(-0.341397 -0.0534216 0.0754721)
(-0.448649 -0.105904 0.108259)
(-0.535638 -0.159667 0.145781)
(-0.621393 -0.217168 0.179947)
(-0.687706 -0.271546 0.309603)
(-0.678587 -0.33426 0.357296)
(-0.622206 -0.445481 0.38588)
(-0.487951 -0.542973 0.369423)
(-0.205103 -0.587349 0.340354)
(0.0739099 -0.374138 0.288766)
(0.0774884 -0.163757 0.298322)
(-0.128765 -0.0788733 0.236856)
(-0.401248 -0.273694 0.117115)
(-0.139683 -0.52669 0.293238)
(-0.199634 -0.366103 0.407312)
(-0.304965 -0.738121 0.301775)
(-0.366071 -0.779838 0.26264)
(-0.137049 -0.708013 0.13216)
(0.00322819 -0.645207 0.182848)
(-0.0179881 -0.340544 0.422974)
(0.173635 -0.113142 0.805478)
(0.29857 -0.0952954 0.893384)
(0.31614 0.0576815 0.914081)
(0.31732 0.184778 0.816001)
(0.167142 0.301667 0.103884)
(0.076876 0.133175 -0.430059)
(0.0105002 0.0812194 -0.722276)
(-0.0678547 0.0780926 -0.897337)
(-0.0579631 0.0741262 -1.07992)
(-0.0709742 0.0732887 -1.21948)
(-0.0993763 0.0912378 -1.31338)
(-0.141101 0.0824956 -1.36089)
(-0.18888 0.0889665 -1.34682)
(-0.238529 0.0753476 -1.2627)
(-0.285126 0.0846265 -1.10891)
(-0.323981 0.0790504 -0.898041)
(-0.354917 0.0801756 -0.643624)
(-0.364646 0.0829391 -0.350911)
(-0.347572 0.0779926 -0.153348)
(-0.155999 0.179792 -0.194742)
(0.364204 -0.0998673 -0.136441)
(0.631041 -0.130328 -0.1568)
(0.676429 -0.112873 -0.166534)
(0.787976 -0.135822 -0.175849)
(0.815226 -0.132566 -0.193424)
(0.508307 -0.0035094 -0.257311)
(0.260014 -0.137854 -0.217889)
(0.113463 -0.0416732 -0.158569)
(0.282742 -0.00948126 -0.168993)
(0.538055 -0.00243217 -0.173664)
(0.792478 -0.0301195 -0.177976)
(1.09297 -0.0348549 -0.175817)
(1.42872 -0.0490191 -0.185278)
(1.76329 -0.064744 -0.183643)
(2.04739 -0.0812863 -0.166706)
(2.24793 -0.0929326 -0.13821)
(2.34789 -0.0990046 -0.10253)
(2.35427 -0.0962813 -0.067878)
(2.29359 -0.0885662 -0.041196)
(2.19976 -0.082051 -0.0246107)
(2.10713 -0.0759416 -0.0179234)
(2.03761 -0.0671533 -0.0189901)
(1.99194 -0.064309 -0.0237024)
(1.96762 -0.0591783 -0.0261772)
(1.95711 -0.0502923 -0.0206781)
(1.94289 -0.039807 -0.00370257)
(1.89948 -0.0250072 0.0238497)
(1.81199 -0.00798007 0.0534225)
(1.69117 0.00937658 0.0766912)
(1.57041 0.0215576 0.0795328)
(1.47774 0.0305166 0.0748963)
(1.39969 0.0375501 0.0702419)
(1.33759 0.0502431 0.0628787)
(1.2868 0.0568964 0.0646234)
(1.19318 0.0440451 0.0780923)
(1.09606 0.0187451 0.109559)
(1.0131 0.000447938 0.126984)
(0.905818 -0.0211563 0.119858)
(0.76186 0.0165682 0.145196)
(0.641118 0.0816063 0.13274)
(0.517473 0.100569 0.133545)
(0.380484 0.117985 0.117925)
(0.224119 0.126902 0.0958053)
(0.11994 0.189937 0.0913812)
(0.121724 0.0107709 0.196981)
(0.16407 -0.100766 0.142925)
(0.113011 -0.129803 0.0385391)
(0.104414 -0.115134 -0.143696)
(0.216411 -0.210325 -0.373015)
(0.262543 -0.231784 -0.558368)
(0.204043 -0.138478 -0.730861)
(0.10545 -0.08023 -0.713742)
(0.0362239 0.0590902 -0.489127)
(-0.0923533 0.232744 -0.150831)
(-0.216986 0.193284 0.181154)
(-0.234406 0.0646722 0.155824)
(-0.340251 0.0146831 0.170553)
(-0.273899 0.137275 0.179611)
(-0.248092 0.285651 -0.0432766)
(-0.106653 0.164289 -0.402191)
(0.063003 0.00510406 -0.584298)
(0.332811 -0.0936988 -0.633424)
(0.495175 -0.229717 -0.491853)
(0.351306 -0.210958 -0.282406)
(0.271591 -0.192211 -0.102347)
(0.282809 -0.186849 0.0381519)
(0.280545 -0.140114 0.159321)
(0.224986 -0.0989318 0.190992)
(0.396153 -0.0813644 0.180019)
(0.53521 -0.063348 0.175572)
(0.587672 -0.0521176 0.163728)
(0.699565 -0.0788115 0.159796)
(0.731952 -0.133822 0.131333)
(0.600528 -0.134343 0.134125)
(0.454154 -0.151846 0.138655)
(0.461217 -0.186061 0.033966)
(0.610468 -0.162957 0.0499098)
(0.735803 -0.162142 0.0473885)
(0.904221 -0.141816 0.0797575)
(1.08781 -0.109933 0.10933)
(1.18914 -0.077776 0.146923)
(1.20812 -0.0107763 0.138851)
(1.24529 -0.00916444 0.119474)
(1.33535 -0.00704283 0.138966)
(1.37728 -0.00181788 0.128997)
(1.36892 -0.0125755 0.157665)
(1.32837 -0.0482181 0.192673)
(1.32271 -0.0511421 0.189579)
(1.2856 -0.0620351 0.150566)
(1.27888 -0.0602043 0.133667)
(1.25783 -0.0477582 0.107213)
(1.2493 -0.0457527 0.109263)
(1.20142 0.00468933 0.107967)
(1.1944 0.0281956 0.136704)
(1.07671 0.137532 0.270622)
(1.2262 0.0531764 0.253324)
(1.21781 0.0203316 0.157623)
(1.26635 -0.0207709 0.127082)
(1.2785 -0.0249516 0.117842)
(1.28901 -0.0381889 0.142824)
(1.3079 -0.0415003 0.182135)
(1.35044 -0.0367146 0.216168)
(1.38625 -0.0367069 0.221119)
(1.42312 -0.0128273 0.182424)
(1.43645 -0.00200442 0.137338)
(1.51262 -0.00660133 0.150454)
(1.6106 -0.0167784 0.158567)
(1.7498 -0.0316763 0.14298)
(1.88182 -0.0542437 0.0484375)
(1.96314 -0.0756926 -0.0717215)
(1.98239 -0.0905278 -0.164751)
(1.96482 -0.0965232 -0.200941)
(1.94838 -0.0968398 -0.194832)
(1.95845 -0.0912056 -0.174986)
(2.00544 -0.0826624 -0.144484)
(2.08696 -0.0701773 -0.107788)
(2.19826 -0.0598958 -0.0838023)
(2.31275 -0.0595567 -0.112547)
(2.39009 -0.0606679 -0.172852)
(2.39312 -0.0583197 -0.276803)
(2.28747 -0.0501334 -0.392167)
(2.07211 -0.042543 -0.483667)
(1.77173 -0.0367786 -0.540203)
(1.42788 -0.0316351 -0.549037)
(1.08182 -0.019347 -0.527861)
(0.793213 -0.0243318 -0.45946)
(0.537431 -0.0156293 -0.415474)
(0.283359 -0.0210993 -0.386767)
(0.109238 -0.0397491 -0.360553)
(0.102398 -0.0416263 -0.637003)
(0.0775096 -0.0369454 -0.873043)
(0.050785 -0.0390161 -1.05757)
(0.0118246 -0.0403547 -1.17625)
(-0.0233518 -0.0280646 -1.216)
(-0.0600443 -0.0155765 -1.16833)
(-0.0938289 0.00354323 -1.03917)
(-0.119252 0.027598 -0.821202)
(-0.121008 0.084923 -0.559646)
(-0.146864 0.132454 -0.0336585)
(-0.194007 0.0247594 0.573588)
(-0.210017 -0.0343827 0.759884)
(-0.228309 -0.00317901 0.928239)
(-0.233503 -0.0463688 1.07016)
(-0.319113 -0.106125 1.13355)
(-0.372131 -0.113525 1.14609)
(-0.37073 -0.234951 1.00549)
(-0.29957 -0.253787 0.771227)
(-0.460692 -0.670057 0.687293)
(-0.485644 -0.547988 0.705258)
(-0.41391 -0.415347 0.833137)
(-0.549148 -0.768884 0.859787)
(-0.683262 -0.834002 0.607482)
(-0.473936 -0.756718 0.800249)
(-0.435255 -0.575962 0.743229)
(-0.783097 -0.526227 0.751214)
(-0.902289 -0.409415 0.861487)
(-0.530493 -0.707909 0.826452)
(-0.439967 -0.577696 0.667421)
(-0.320609 -0.320264 0.407077)
(-0.299784 -0.182603 0.400942)
(-0.283383 -0.146438 0.354952)
(-0.234933 0.110164 0.115372)
(-0.162324 0.29831 -0.417697)
(-0.152053 0.19018 -0.638681)
(-0.132364 0.0290039 -0.913644)
(-0.0872304 -0.0569248 -1.08592)
(-0.0288959 -0.06949 -1.23385)
(0.0382849 -0.10205 -1.26872)
(0.0980649 -0.0987486 -1.23376)
(0.172738 -0.109354 -1.11985)
(0.21678 -0.123541 -0.91992)
(0.261163 -0.146692 -0.705461)
(0.250032 -0.139349 -0.398305)
(0.420044 -0.0490944 -0.63733)
(0.775792 -0.118246 -0.456061)
(0.73166 -0.109674 -0.411001)
(0.63352 -0.0758669 -0.403272)
(0.570813 -0.105151 -0.408795)
(0.132447 -0.0998429 -0.518611)
(0.179213 -0.115841 -0.903506)
(0.258942 -0.224043 -1.05582)
(0.343717 -0.282129 -0.944866)
(0.389293 -0.351375 -0.505218)
(0.199122 0.0436121 0.127382)
(0.265673 0.124034 0.18114)
(0.429049 -0.324224 0.335529)
(0.516142 -0.528865 0.505101)
(0.545846 -0.522336 0.551416)
(0.412707 -0.235224 0.678121)
(0.471661 -0.337621 0.564262)
(0.487092 -0.609647 0.544548)
(0.70435 -0.672663 0.31711)
(0.746449 -0.489018 0.452345)
(0.798507 -0.34574 0.598436)
(0.23607 -0.225992 0.576153)
(-0.235164 -0.269397 0.830403)
(-0.171398 -0.191513 0.681886)
(-0.672487 -0.299147 0.820704)
(-0.46857 -0.183761 0.696722)
(-0.319478 -0.00571142 0.545037)
(-0.218673 0.178196 -0.294261)
(-0.192645 -0.0417889 -0.616427)
(-0.0575899 -0.169262 -1.09987)
(0.104487 -0.158116 -1.24992)
(0.276442 -0.087134 -1.11783)
(0.438353 -0.108283 -0.697938)
(0.508604 -0.0740688 -0.621526)
(0.503539 -0.0436956 -0.609954)
(0.556312 -0.0879335 -0.633803)
(0.59739 -0.121137 -0.726186)
(0.403755 -0.0429983 -0.677779)
(0.36196 -0.0793719 -0.658374)
(0.136487 -0.114074 -0.667614)
(-0.111421 -0.0487082 -0.579096)
(0.297141 0.00646823 -0.588784)
(0.35705 0.0157935 -0.605918)
(0.642405 -0.0964387 -0.642217)
(0.575291 -0.0976208 -0.367568)
(0.271325 0.0747134 -0.354265)
(0.272289 0.0554994 -0.232006)
(-0.303384 -0.0386122 0.121813)
(-0.308425 0.143591 -0.00385962)
(-0.283541 -0.0250942 -0.447325)
(0.0892588 -0.202128 -0.574669)
(0.363431 -0.280633 -0.568209)
(0.727836 -0.34621 -0.405271)
(0.811879 -0.41895 -0.377618)
(0.773224 -0.291059 -0.295376)
(0.814587 -0.365554 -0.2195)
(0.829167 -0.487391 -0.283986)
(0.742443 -0.43315 -0.278097)
(0.72171 -0.30671 -0.330901)
(0.748934 -0.252232 -0.341324)
(0.794539 -0.312092 -0.212006)
(0.806831 -0.367678 -0.160354)
(0.893787 -0.46472 -0.156518)
(1.15912 -0.631057 -0.11764)
(1.61717 -0.726361 -0.0986929)
(1.99405 -0.671705 -0.0380616)
(2.15041 -0.48945 0.0473317)
(2.07017 -0.290359 0.0953651)
(1.90472 -0.162595 0.102762)
(1.80716 -0.0946076 0.0993063)
(1.71034 0.000129213 0.0988347)
(1.57281 0.0882197 0.0909676)
(1.43543 0.106378 0.0479529)
(1.33091 0.0565979 0.0271973)
(1.24109 -0.00543314 0.0214718)
(1.13932 -0.0548456 0.0231571)
(1.05537 -0.0794549 0.0213098)
(0.99751 -0.0630015 0.016839)
(0.82132 -0.110584 -0.0239595)
(0.71639 0.00195755 0.00962601)
(0.633088 0.0680595 0.00877389)
(0.497498 0.0227081 0.00642267)
(0.359363 -0.061119 -0.0132959)
(0.139076 -0.147034 -0.0322845)
(0.225582 -0.308422 0.00129217)
(0.353293 -0.0820094 0.0120304)
(-0.00253981 -0.230348 -0.00922802)
(0.042954 -0.546177 -0.0505088)
(0.0119452 -0.712758 -0.052645)
(-0.00809414 -0.876717 -0.0532685)
(-0.0260478 -1.00678 -0.0649859)
(-0.0360858 -1.10273 -0.0958693)
(-0.0466136 -1.15712 -0.105165)
(-0.0581504 -1.21443 -0.118299)
(-0.0883791 -1.2762 -0.134296)
(-0.113482 -1.32095 -0.149615)
(-0.137463 -1.35471 -0.162536)
(-0.159501 -1.37642 -0.173602)
(-0.178538 -1.38781 -0.183272)
(-0.193957 -1.3895 -0.189992)
(-0.206111 -1.38244 -0.19385)
(-0.216152 -1.36776 -0.193972)
(-0.224727 -1.34588 -0.192051)
(-0.23302 -1.31545 -0.186598)
(-0.240691 -1.27456 -0.178231)
(-0.246138 -1.22031 -0.16517)
(-0.244019 -1.15116 -0.147405)
(-0.191061 -1.0717 -0.127)
(-0.141289 -0.969049 -0.112633)
(-0.165839 -0.868545 -0.0795372)
(-0.189863 -0.754591 -0.0819493)
(-0.205078 -0.543092 -0.0855485)
(-0.273861 -0.450236 -0.0920544)
(0.022443 0.0533038 -0.11625)
(-0.3509 -0.308374 0.0251344)
(-0.231747 -0.617506 -0.0546166)
(-0.270508 -0.0992666 -0.0111053)
(-0.458194 -0.18244 0.0645291)
(-0.678955 -0.198642 0.0822174)
(-0.842473 -0.209217 0.114029)
(-0.95397 -0.223064 0.144145)
(-1.03477 -0.232456 0.203709)
(-1.11811 -0.244252 0.245219)
(-1.18733 -0.244139 0.301944)
(-1.20102 -0.248364 0.336214)
(-1.17406 -0.250124 0.366133)
(-1.10713 -0.248835 0.394445)
(-0.996322 -0.243166 0.422644)
(-0.841683 -0.230185 0.454081)
(-0.667778 -0.205978 0.493542)
(-0.420674 -0.147011 0.542744)
(-0.137595 -0.118732 0.566848)
(-0.15569 0.0284247 0.822637)
(-0.158984 0.0829169 1.04261)
(-0.158666 0.115177 1.11224)
(-0.159923 0.164262 1.02073)
(-0.16374 0.153408 0.837987)
(-0.151368 0.131403 0.567577)
(-0.124292 0.143466 0.285608)
(-0.22562 0.439409 0.37083)
(-0.507348 0.467368 0.335163)
(-0.692388 0.480372 0.339188)
(-0.917275 0.465135 0.332641)
(-1.09943 0.424443 0.308606)
(-1.22649 0.353031 0.265852)
(-1.28213 0.273151 0.218712)
(-1.26486 0.206024 0.181477)
(-1.23187 0.147839 0.158218)
(-1.18895 0.115155 0.140318)
(-1.09956 0.0924588 0.0901787)
(-0.957836 0.0450918 0.0698392)
(-0.766554 -0.0207832 0.0594061)
(-0.50025 -0.114017 0.0189881)
(-0.252768 -0.207758 -0.0190641)
(-0.273818 -0.19753 -0.0664641)
(-0.31811 -0.176964 0.00779609)
(-0.314325 -0.174162 0.0589472)
(-0.272444 -0.156545 0.150049)
(-0.380778 -0.233705 0.117628)
(-0.42263 -0.296968 0.117667)
(-0.326594 -0.288011 0.176364)
(-0.269561 -0.215032 0.044247)
(-0.140916 -0.100729 -0.0266944)
(-0.140936 -0.076857 -0.00811113)
(-0.138727 -0.074184 -0.0360874)
(-0.169445 -0.0557008 -0.0684019)
(-0.167931 -0.50157 -0.149099)
(-0.126365 -0.479725 -0.138926)
(-0.110759 -0.447172 -0.0965746)
(-0.100603 -0.424051 -0.146709)
(-0.266447 -0.537999 -0.0324263)
(-0.276103 -0.575409 -0.0267762)
(-0.283411 -0.631702 -0.0851321)
(-0.337112 -0.582852 -0.0212321)
(-0.340047 -0.529954 0.0541451)
(-0.301427 -0.359135 0.0842837)
(-0.444389 -0.317063 0.114053)
(-0.361384 -0.43183 0.0395748)
(-0.347129 -0.522665 0.0130661)
(-0.377792 -0.508537 -0.0247367)
(-0.42849 -0.394545 0.0312768)
(-0.497285 -0.346651 0.0724469)
(-0.528876 -0.254923 0.16329)
(-0.591187 -0.215508 0.240943)
(-0.680088 -0.197613 0.255513)
(-0.576495 -0.206771 0.211134)
(-0.5167 -0.187865 0.18075)
(-0.544954 -0.185011 0.117449)
(-0.539516 -0.172095 0.0916054)
(-0.495948 -0.18428 0.000609967)
(-0.761352 -0.0867187 0.0643669)
(-0.971379 -0.00544782 0.0894879)
(-1.07898 0.0520705 0.103374)
(-1.12816 0.0749628 0.13794)
(-1.16589 0.0357987 0.237608)
(-1.25059 0.068976 0.266862)
(-1.31664 0.119388 0.34873)
(-1.33032 0.170835 0.431412)
(-1.27315 0.221927 0.523917)
(-1.14842 0.260955 0.603644)
(-0.975867 0.281347 0.64826)
(-0.775725 0.283617 0.657395)
(-0.623231 0.288745 0.644415)
(-0.342223 0.272442 0.644192)
(-0.435912 0.24502 0.874806)
(-0.467947 0.227711 1.00317)
(-0.460845 0.179909 1.0816)
(-0.441614 0.123706 1.01374)
(-0.440203 0.0585834 0.797947)
(-0.711464 -0.00499665 0.744313)
(-0.72209 0.0715862 0.944615)
(-0.740835 0.117389 1.02342)
(-0.74573 0.164398 0.979472)
(-0.695529 0.198884 0.872576)
(-0.838282 0.186448 0.862475)
(-0.88012 0.146008 0.965017)
(-0.882949 0.0884682 1.00101)
(-0.873232 0.0421105 0.926266)
(-0.866898 -0.038886 0.706918)
(-1.01012 -0.0601591 0.675723)
(-1.02468 0.0206542 0.900983)
(-1.03768 0.0696684 0.966124)
(-1.04591 0.122132 0.944077)
(-1.021 0.174114 0.85408)
(-1.16455 0.163032 0.803955)
(-1.16509 0.110653 0.892629)
(-1.14835 0.0572329 0.91443)
(-1.13117 0.00656863 0.859287)
(-1.11109 -0.072947 0.639975)
(-1.17119 -0.0836019 0.595358)
(-1.19672 -0.00613006 0.79669)
(-1.22309 0.0436835 0.839892)
(-1.25245 0.0918821 0.811334)
(-1.27011 0.141393 0.716711)
(-1.31955 0.110865 0.609983)
(-1.29109 0.0688732 0.709037)
(-1.25266 0.0250371 0.747028)
(-1.21726 -0.0216716 0.716205)
(-1.18715 -0.093412 0.539628)
(-1.15389 -0.104658 0.472569)
(-1.18202 -0.0413457 0.62118)
(-1.22085 0.000219048 0.640487)
(-1.27517 0.0391624 0.606202)
(-1.30822 0.074256 0.50891)
(-1.22514 0.0356865 0.414073)
(-1.1884 0.00287587 0.499857)
(-1.12869 -0.0321745 0.530935)
(-1.08648 -0.0600675 0.520002)
(-1.04022 -0.111738 0.386648)
(-0.919303 -0.120117 0.315098)
(-0.923573 -0.109358 0.357995)
(-0.972967 -0.0803654 0.438085)
(-0.956901 -0.087022 0.424863)
(-0.927943 -0.102648 0.394404)
(-1.00466 -0.0684419 0.381097)
(-0.996355 -0.0630891 0.307116)
(-1.00103 -0.0391853 0.282498)
(-1.04405 -0.0272018 0.208869)
(-1.03905 -0.00955118 0.202202)
(-0.806249 -0.105199 0.145107)
(-0.819149 -0.125225 0.157561)
(-0.788206 -0.128429 0.215935)
(-0.824161 -0.141506 0.249056)
(-0.610123 -0.281736 0.132686)
(-0.557046 -0.291458 0.114417)
(-0.503556 -0.326887 0.132016)
(-0.420163 -0.399609 0.115546)
(-0.396866 -0.384023 0.148982)
(-0.488144 -0.284185 0.164789)
(-0.606008 -0.239072 0.18319)
(-0.615328 -0.267871 0.0963948)
(-0.513465 -0.377938 0.0434706)
(-0.439603 -0.460139 0.0275472)
(-0.397345 -0.526341 0.0571338)
(-0.383963 -0.697939 0.121396)
(-0.387071 -0.663314 0.127221)
(-0.405358 -0.380315 0.106084)
(-0.40829 -0.536545 0.0806396)
(-0.399242 -0.601917 0.0429021)
(-0.21572 -0.788228 -0.159719)
(-0.193387 -0.793983 -0.260374)
(-0.115366 -0.703958 -0.369865)
(-0.0786024 -0.623921 -0.385913)
(-0.0451586 -0.588649 -0.348158)
(-0.0136289 -0.555651 -0.301718)
(0.0315728 -0.501638 -0.232145)
(0.124132 -0.455086 -0.108957)
(0.124715 -0.579733 -0.121958)
(0.116829 -0.636089 -0.120215)
(0.0848831 -0.694034 -0.157733)
(0.092299 -0.74865 -0.155905)
(0.10047 -0.805245 -0.175081)
(0.118238 -0.833516 -0.167135)
(0.126259 -0.840189 -0.152898)
(0.126449 -0.826228 -0.130276)
(0.117724 -0.790019 -0.0958114)
(0.104172 -0.732988 -0.0424144)
(0.0365324 -0.652268 0.0338141)
(0.00211782 -0.543163 0.154778)
(0.0167472 -0.296402 0.361739)
(-0.150442 0.0189922 0.448718)
(-0.368342 0.0965549 0.349518)
(-0.393229 -0.0383642 0.257213)
(-0.220275 -0.172905 0.251609)
(-0.181778 -0.190137 0.268209)
(-0.159109 -0.180442 0.214826)
(-0.0955808 -0.147686 0.206597)
(-0.00366079 -0.0472829 0.0753889)
(-0.0336706 0.10663 0.0814874)
(-0.0803135 0.144134 0.0807676)
(-0.0487011 0.209224 0.171747)
(-0.00293541 0.175873 0.194832)
(0.0152791 0.0208147 0.144691)
(-0.0495264 -0.0364547 0.230215)
(0.0230466 0.0843817 0.326469)
(-0.00443548 -0.0691929 0.287665)
(0.074971 0.14027 0.249176)
(0.0894306 -0.0255026 0.226347)
(-0.022025 -0.25308 0.455466)
(0.0492352 -0.356355 0.544924)
(0.172001 -0.499421 0.515891)
(0.168467 -0.691273 0.353162)
(0.0761377 -0.815739 0.145176)
(0.0587991 -0.887935 -0.00714241)
(0.0654545 -0.922886 -0.119305)
(0.0633714 -0.949475 -0.197623)
(0.0602922 -0.964237 -0.248769)
(0.0521682 -0.962539 -0.279527)
(0.0420023 -0.942702 -0.292922)
(0.0293919 -0.905161 -0.289776)
(0.0237607 -0.830289 -0.249986)
(0.00739434 -0.784598 -0.329226)
(0.0436085 -0.703718 -0.225589)
(0.047668 -0.65349 -0.211536)
(0.0448586 -0.636089 -0.232284)
(0.00466979 -0.702074 -0.325692)
(-0.0225701 -0.741747 -0.383585)
(-0.057334 -0.77718 -0.411343)
(-0.0732362 -0.844027 -0.402194)
(-0.131932 -0.90444 -0.346557)
(-0.0939391 -0.96882 -0.332517)
(-0.0888962 -0.979551 -0.3737)
(-0.053765 -0.918197 -0.41861)
(-0.0435527 -0.868154 -0.432476)
(-0.0177323 -0.82589 -0.404817)
(-0.00952835 -0.869312 -0.341648)
(-0.0392476 -0.901668 -0.374674)
(-0.0559794 -0.948386 -0.397136)
(-0.0236538 -0.991447 -0.406292)
(-0.0486128 -1.05977 -0.421066)
(-0.0666029 -1.04241 -0.424681)
(-0.0934106 -0.920247 -0.34552)
(-0.18649 -0.76169 -0.225031)
(-0.197977 -0.614247 -0.041517)
(-0.0998119 -0.733307 -0.197709)
(-0.0795441 -0.839343 -0.260287)
(-0.0593718 -0.928583 -0.324142)
(-0.0609088 -0.94607 -0.334821)
(-0.0278391 -0.829316 -0.381795)
(-0.0240576 -0.72437 -0.338165)
(-0.0322427 -0.54182 -0.255026)
(-0.0164936 -0.353222 -0.164685)
(0.034613 -0.0896039 -0.210445)
(-0.247294 -0.433423 0.0726629)
(-0.328425 -0.461077 0.0257914)
(0.21992 -0.118874 -0.244002)
(-0.172848 -0.247321 0.0429027)
(-0.218065 -0.266496 -0.117498)
(-0.258389 -0.268759 -0.103744)
(-0.20849 -0.281597 -0.0216236)
(0.081128 0.14096 -0.219445)
(0.102698 0.0598353 -0.232225)
(0.100819 -0.000135 -0.261387)
(0.0960338 -0.000150101 -0.266236)
(-0.0803367 -0.429655 -0.202242)
(-0.133204 -0.449938 -0.223041)
(-0.186329 -0.458275 -0.206905)
(-0.249287 -0.445057 -0.169388)
(-0.169054 -0.547369 -0.1844)
(-0.126917 -0.55922 -0.257508)
(-0.0963754 -0.565531 -0.291855)
(-0.0608108 -0.55378 -0.292309)
(-0.0509006 -0.742765 -0.349565)
(-0.0817037 -0.757372 -0.332446)
(-0.106435 -0.769659 -0.282019)
(-0.147257 -0.759918 -0.194932)
(-0.134572 -0.821675 -0.182495)
(-0.12886 -0.882613 -0.200493)
(-0.0982115 -0.905283 -0.297694)
(-0.072755 -0.872392 -0.374212)
(-0.0493216 -0.852192 -0.400669)
(-0.0769726 -0.967728 -0.371355)
(-0.112302 -0.989414 -0.336204)
(-0.138233 -1.00966 -0.283949)
(-0.137343 -1.09233 -0.347203)
(-0.0802571 -1.06671 -0.399753)
(-0.072666 -1.14435 -0.441338)
(-0.049418 -1.12282 -0.474019)
(-0.026883 -1.11384 -0.45934)
(-0.00321162 -1.04203 -0.415916)
(0.0122078 -1.07401 -0.406966)
(-0.0126716 -1.15238 -0.470152)
(-0.0398972 -1.17946 -0.494643)
(-0.0686859 -1.20764 -0.463375)
(-0.131717 -1.22817 -0.379409)
(-0.135057 -1.16585 -0.369489)
(-0.28388 -1.046 -0.22547)
(-0.45766 -1.14547 -0.0769675)
(-0.464037 -1.09954 -0.0674876)
(-0.416247 -1.04523 -0.0648089)
(-0.303058 -1.03576 -0.0738887)
(-0.255842 -0.967043 -0.0640946)
(-0.309364 -0.944536 -0.0576812)
(-0.342487 -0.848723 -0.0422491)
(-0.378222 -0.713425 -0.0379178)
(-0.473937 -0.626762 -0.0367404)
(-0.41002 -0.401444 -0.0341308)
(-0.46505 -0.660729 -0.00585115)
(-0.316831 -0.457601 0.0245704)
(-0.638622 -0.398752 0.00541138)
(-0.815551 -0.379362 0.060121)
(-0.918045 -0.38449 0.0845889)
(-0.968044 -0.39727 0.124307)
(-0.980023 -0.525305 0.0977392)
(-0.940411 -0.68939 0.0653468)
(-0.924132 -0.750129 0.0524801)
(-0.874659 -0.848437 0.0364293)
(-0.859061 -0.895598 0.0304561)
(-0.821212 -0.927892 0.00760564)
(-0.70393 -0.967549 -0.0230263)
(-0.592748 -1.00209 -0.0420225)
(-0.626982 -0.952704 -0.0172239)
(-0.485172 -0.971731 -0.0307336)
(-0.503078 -0.893457 -0.0301483)
(-0.530689 -0.797018 -0.0233022)
(-0.559526 -0.730843 -0.0194921)
(-0.686633 -0.712435 -0.00981458)
(-0.67518 -0.598168 -0.00779918)
(-0.824334 -0.57724 0.0303258)
(-0.918655 -0.559603 0.050383)
(-0.881569 -0.697042 0.0231281)
(-0.800624 -0.704588 0.0121823)
(-0.777757 -0.789757 0.00226969)
(-0.661135 -0.798232 -0.010786)
(-0.635987 -0.882597 -0.0170512)
(-0.748712 -0.866179 -0.00514662)
(-0.825739 -0.850556 0.00443026)
(-0.863356 -0.77298 0.0134972)
(-0.801867 -0.738889 -0.011798)
(-0.624363 -0.612052 0.00180788)
(-0.847375 -0.659641 0.0116618)
(-0.868318 -0.518331 0.0520218)
(-0.870725 -0.379773 0.0580998)
(-0.843603 -0.282214 0.121541)
(-0.83259 -0.30223 0.0764855)
(-0.879177 -0.350627 0.0525352)
(-0.875467 -0.203895 0.128995)
(-0.894452 -0.18421 0.174037)
(-0.760971 -0.161494 0.158394)
(-0.766692 -0.12903 0.259068)
(-0.777939 -0.120733 0.301788)
(-0.821594 -0.108622 0.355151)
(-0.829054 -0.119245 0.352433)
(-0.642433 -0.181696 0.250786)
(-0.607541 -0.173613 0.248233)
(-0.567649 -0.180454 0.21538)
(-0.551237 -0.175603 0.188815)
(-0.568964 -0.191187 0.120272)
(-0.338451 -0.19474 0.0766909)
(-0.320312 -0.189238 0.101579)
(-0.329412 -0.191953 0.114005)
(-0.360718 -0.198823 0.124139)
(-0.449228 -0.216887 0.1414)
(-0.4053 -0.25336 0.0592782)
(-0.38214 -0.284903 0.0678994)
(-0.410716 -0.340986 0.0466339)
(-0.316007 -0.426835 0.0354253)
(-0.311765 -0.394273 0.0485967)
(-0.283653 -0.416143 0.0150636)
(-0.192994 -0.419385 -0.0209816)
(-0.337159 -0.254049 0.0349652)
(-0.403019 -0.330818 0.0407338)
(-0.248336 -0.457296 -0.0070919)
(-0.291734 -0.459682 -0.00017462)
(-0.45184 -0.321152 0.0716045)
(-0.52462 -0.298941 0.130959)
(-0.498085 -0.318604 0.13608)
(-0.471008 -0.336762 0.111162)
(-0.458856 -0.350595 0.094138)
(-0.493324 -0.373135 0.0084587)
(-0.710903 -0.31777 0.0630809)
(-0.718003 -0.529779 0.0388614)
(-0.54918 -0.554316 -0.00190682)
(-0.510079 -0.606995 -0.00417418)
(-0.465867 -0.649281 -0.0176662)
(-0.437094 -0.652551 -0.0214083)
(-0.412986 -0.530933 -0.0232447)
(-0.411226 -0.540947 -0.0486188)
(-0.410102 -0.54141 -0.0345338)
(-0.335516 -0.550465 -0.0172986)
(-0.267574 -0.595913 -0.00754013)
(-0.319685 -0.580877 -0.0037679)
(-0.403512 -0.512991 0.00691898)
(-0.332053 -0.535389 -0.00437057)
(-0.438879 -0.630371 -0.0120489)
(-0.292989 -0.473234 -0.00532911)
(-0.21046 -0.539717 -0.0185241)
(-0.281227 -0.524643 -0.0164896)
(-0.394516 -0.43609 -0.00090877)
(-0.413949 -0.362762 -0.0105872)
(-0.260652 -0.39423 -0.0112344)
(-0.157048 -0.422901 -0.0365601)
(-0.136424 -0.399467 -0.0228678)
(-0.238237 -0.205307 0.0221556)
(-0.3827 -0.342891 -0.00219564)
(-0.251866 -0.474591 -0.0199372)
(-0.21918 -0.468004 -0.0238715)
(-0.12216 -0.392807 -0.0302311)
(-0.219279 -0.194446 0.0390021)
(-0.346952 -0.337957 0.0119987)
(-0.366312 -0.363282 0.0540403)
(-0.195947 -0.511126 -0.0110621)
(-0.174199 -0.468076 0.0184441)
(-0.110072 -0.420212 0.00168259)
(-0.22241 -0.229045 0.0445068)
(-0.325993 -0.341899 0.0521948)
(-0.335181 -0.338982 0.0567934)
(-0.180713 -0.463263 0.0164695)
(-0.109409 -0.408976 -0.000163137)
(-0.232024 -0.220453 0.0619152)
(-0.286064 -0.22146 0.0772536)
(-0.240558 -0.23025 0.0709945)
(-0.35046 -0.337032 0.0782765)
(-0.189817 -0.46536 0.0480947)
(-0.117935 -0.415662 0.037099)
(-0.140631 -0.449755 -0.0041311)
(-0.196621 -0.497656 0.025465)
(-0.381826 -0.350694 0.0789658)
(-0.334494 -0.625518 -0.00378731)
(-0.355837 -0.632213 -0.0117995)
(-0.499497 -0.511907 0.0577976)
(-0.651494 -0.444717 0.0982294)
(-0.66694 -0.286777 0.136276)
(-0.798365 -0.271575 0.170454)
(-0.89107 -0.320739 0.166361)
(-1.02103 -0.488839 0.125968)
(-1.10785 -0.495135 0.167705)
(-1.13273 -0.502735 0.192872)
(-1.11274 -0.505065 0.215869)
(-1.04944 -0.501322 0.23875)
(-0.943819 -0.490352 0.260631)
(-0.794857 -0.467001 0.28722)
(-0.640136 -0.431916 0.326769)
(-0.397542 -0.380596 0.395373)
(-0.163208 -0.292649 0.483268)
(0.0415124 -0.150358 0.487164)
(0.336564 -0.158408 0.428188)
(0.33736 -0.216374 0.378153)
(0.20483 -0.127403 0.487582)
(0.272361 -0.00282899 0.766633)
(0.283544 0.0464855 1.03229)
(0.268712 0.0813639 1.14227)
(0.25068 0.133776 1.09193)
(0.212771 0.122983 0.955151)
(0.142202 0.121235 0.703763)
(0.0393727 0.187162 0.404568)
(0.174319 0.512709 0.424934)
(0.41977 0.513716 0.374322)
(0.6055 0.538671 0.375658)
(0.850369 0.497912 0.351334)
(1.00889 0.417356 0.317452)
(1.07369 0.32301 0.27368)
(1.05797 0.255395 0.233995)
(1.00803 0.210905 0.198743)
(1.02667 0.158778 0.167388)
(1.04194 0.118466 0.144442)
(0.983094 0.0924648 0.09079)
(0.879105 0.0422015 0.0680108)
(0.714273 -0.02288 0.0544473)
(0.469689 -0.109892 0.0209873)
(0.242611 -0.217301 -0.0219448)
(0.102623 -0.621539 -0.109792)
(0.177886 -0.384285 -0.079698)
(-0.178298 -0.171778 0.00722126)
(-0.0995881 -0.389753 -0.0372479)
(-0.108927 -0.308374 -0.0634205)
(-0.110939 -0.332104 -0.0716555)
(-0.108481 -0.288448 -0.0612392)
(-0.0751166 -0.207066 -0.054669)
(-0.14888 -0.15923 -0.0297467)
(-0.221928 0.19934 0.136495)
(-0.13335 0.454501 0.111783)
(-0.03617 0.569522 0.0657674)
(0.0430729 0.634342 0.0996252)
(0.130723 0.679382 0.199271)
(0.224458 0.734587 0.300922)
(0.31531 0.771107 0.337938)
(0.397734 0.767033 0.367014)
(0.474871 0.70188 0.37432)
(0.54041 0.560733 0.371017)
(0.592905 0.337351 0.337129)
(0.572522 0.00363016 0.263449)
(0.395142 -0.33636 0.259127)
(0.294543 -0.335519 0.321523)
(0.228843 -0.289846 0.330717)
(0.161562 -0.199182 0.335894)
(0.147759 -0.00265789 0.313332)
(0.288939 0.00893333 0.340519)
(0.451693 -0.157915 0.331145)
(0.60398 -0.255282 0.3427)
(0.642921 -0.344346 0.351708)
(0.623551 -0.436284 0.353603)
(0.476741 -0.541285 0.334783)
(0.106996 -0.566159 0.316875)
(-0.171392 -0.298212 0.302725)
(-0.0382463 -0.128228 0.355768)
(0.230687 -0.152121 0.23777)
(0.282009 -0.404067 0.0722581)
(0.00869765 -0.519718 0.2382)
(-0.141299 -0.749038 -0.142012)
(0.200262 -0.720184 -0.48078)
(0.308477 -0.392931 -0.176939)
(0.331421 -0.374997 0.0933744)
(0.344874 -0.545199 0.183574)
(0.326842 -0.889918 0.119678)
(0.531734 -0.872525 0.064596)
(0.611184 -0.691761 0.0984015)
(0.576921 -0.538094 0.138299)
(0.50748 -0.395724 0.1888)
(0.338298 -0.230585 0.247059)
(0.363012 -0.346506 0.195559)
(0.426954 -0.377295 0.142768)
(0.508438 -0.363284 0.0804657)
(0.620425 -0.296147 -0.0567186)
(0.865661 0.193111 -0.118756)
(0.909743 0.478162 -0.0235001)
(0.855079 0.682353 0.046743)
(0.75746 0.786441 0.0898053)
(0.632032 0.81481 0.135515)
(0.489225 0.784407 0.155771)
(0.331038 0.721774 0.173855)
(0.165092 0.64451 0.127921)
(-0.00979346 0.580095 0.0657881)
(-0.14824 0.521769 0.0534663)
(-0.282971 0.420741 0.111958)
(-0.40693 0.21541 0.152114)
(-0.285899 -0.115404 0.0118069)
(-0.403002 -0.00978785 0.0584038)
(-0.487404 0.0426648 0.084431)
(-0.54077 0.158087 0.122909)
(-0.54269 0.112173 0.0960144)
(-0.500408 -0.0218986 0.0221486)
(-0.457368 -0.084291 0.0126463)
(-0.388248 -0.141301 -0.00983561)
(-0.29184 -0.202633 -0.0238914)
(-0.189669 -0.23466 -0.0369267)
(-0.139359 -0.204555 -0.0278389)
(-0.196339 -0.169678 -0.0234677)
(-0.183632 -0.326691 -0.0354781)
(-0.122712 -0.320947 -0.0444423)
(-0.100553 -0.340313 -0.0713633)
(-0.0789468 -0.374331 -0.103558)
(-0.0485038 -0.562873 -0.220827)
(-0.088169 -0.500608 -0.154318)
(-0.10633 -0.599934 -0.123144)
(-0.158535 -0.574758 -0.0784972)
(-0.221853 -0.462317 -0.0483525)
(-0.309763 -0.134038 0.0203573)
(-0.188959 0.315552 0.176004)
(-0.0731413 0.435117 0.309734)
(0.0099454 0.512477 0.44767)
(0.0772001 0.500123 0.564073)
(0.145655 0.435211 0.624748)
(0.199538 0.321259 0.654844)
(0.249858 0.165484 0.627556)
(0.235753 -0.0142476 0.532102)
(0.104965 -0.136576 0.440583)
(-0.0121551 -0.0994415 0.449954)
(-0.0324331 0.0153763 0.426499)
(-0.0340989 0.138589 0.427089)
(0.0372218 0.244725 0.367299)
(0.199064 0.136445 0.382057)
(0.156934 0.272882 0.45032)
(-0.0602023 0.174708 -0.064331)
(-0.173256 -0.0674082 -0.642897)
(-0.180435 -0.30722 -0.5396)
(-0.167996 -0.3439 -0.303848)
(-0.144717 -0.30247 -0.0945403)
(-0.061844 -0.585874 -0.106968)
(-0.0278116 -0.863548 -0.0941836)
(0.0023035 -1.02078 -0.0915388)
(0.0326634 -1.14444 -0.100574)
(0.0659109 -1.22818 -0.114843)
(0.0962829 -1.28086 -0.128895)
(0.122794 -1.30714 -0.140768)
(0.146695 -1.31534 -0.152715)
(0.16752 -1.31294 -0.165265)
(0.185775 -1.30338 -0.176109)
(0.201439 -1.28821 -0.184616)
(0.215444 -1.26794 -0.189802)
(0.227868 -1.24236 -0.192521)
(0.239217 -1.21023 -0.191388)
(0.24885 -1.17042 -0.186292)
(0.254651 -1.12066 -0.175506)
(0.251782 -1.0581 -0.158862)
(0.194721 -0.995269 -0.139003)
(0.139748 -0.910571 -0.122762)
(0.164381 -0.826761 -0.08701)
(0.18767 -0.726461 -0.0882339)
(0.20382 -0.558043 -0.0881217)
(0.246659 -0.441326 -0.0844355)
(0.0720723 -0.029564 -0.0955029)
(0.365686 -0.297645 0.0435195)
(0.245614 -0.55011 -0.0572051)
(0.285905 -0.0945004 -0.0269773)
(0.180586 -0.0367263 -0.147476)
(0.201344 -0.112125 -0.124955)
(0.194094 -0.119035 -0.0813577)
(0.21449 -0.131391 -0.0240741)