/*--------------------------------*- C++ -*----------------------------------*\
| =========                 |                                                 |
| \\      /  F ield         | OpenFOAM: The Open Source CFD Toolbox           |
|  \\    /   O peration     | Version:  v2012                                 |
|   \\  /    A nd           | Website:  www.openfoam.com                      |
|    \\/     M anipulation  |                                                 |
\*---------------------------------------------------------------------------*/
FoamFile
{
    version     2.0;
    format      ascii;
    class       volScalarField;
    location    "20";
    object      nut;
}
// * * * * * * * * * * * * * * * * * * * * * * * * * * * * * * * * * * * * * //

dimensions      [0 2 -1 0 0 0 0];


internalField   nonuniform List<scalar> 
22960
(
0.00394311
0.00209312
0.00175983
0.00153188
0.000929453
0.00140163
0.00157691
0.00190117
0.00184018
0.00163473
0.0015046
0.00251571
0.00360999
0.00443245
0.00449073
0.00440843
0.00423233
0.00421124
0.0044732
0.00515952
0.00475625
0.00258387
0.00377729
0.00455897
0.00411208
0.00342443
0.0029648
0.00398807
0.00450905
0.00452915
0.00459708
0.00459253
0.00462091
0.00462481
0.00468676
0.00472605
0.00487256
0.00494783
0.00505055
0.00565885
0.00591351
0.00599849
0.00614364
0.00620706
0.00630947
0.00639546
0.00649946
0.00660502
0.00672134
0.0071902
0.00744643
0.00726276
0.00713137
0.00699299
0.00679005
0.00596234
0.00385089
0.00233209
0.00217562
0.00233071
0.00243631
0.00248721
0.00214231
0.00116139
0.00160679
0.00173564
0.0020714
0.00206687
0.00187527
0.00178373
0.00293001
0.00389964
0.00449659
0.00459569
0.00464795
0.00460809
0.00461881
0.00453676
0.00451968
0.00400249
0.00298602
0.00344547
0.00404552
0.00406341
0.00345711
0.00255582
0.00439796
0.00498061
0.00488687
0.00505148
0.0054431
0.00582379
0.00590519
0.00576725
0.00480412
0.00354133
0.00216487
0.0021705
0.00227731
0.00220099
0.00186248
0.00149184
0.000937172
0.0015676
0.00178362
0.00162482
0.00149345
0.00132242
0.00145273
0.00262645
0.00474446
0.00545389
0.00548565
0.00543409
0.00537671
0.0053144
0.00522388
0.00524636
0.00543133
0.00554182
0.0057596
0.00597256
0.00602239
0.00528345
0.00317396
0.00179827
0.00161036
0.00172174
0.00177711
0.00203687
0.00203708
0.00175097
0.0016809
0.00180665
0.00288212
0.00515293
0.005752
0.00567274
0.00545567
0.00520657
0.00504929
0.00482214
0.00476128
0.00483916
0.00492272
0.00500375
0.00510521
0.00511297
0.00452246
0.00256047
0.00156657
0.00141589
0.0014963
0.00180309
0.00185357
0.00197655
0.00161639
0.000964891
0.00160951
0.00197516
0.00209721
0.00213921
0.00225512
0.00251692
0.00283127
0.00275041
0.00245079
0.00221528
0.00207012
0.00198398
0.00181564
0.00163935
0.00127511
0.000788093
0.00132557
0.0014374
0.00135835
0.00126047
0.00114723
0.00124321
0.00219043
0.00354178
0.00400978
0.00404942
0.00396036
0.00376811
0.0035149
0.0032366
0.00342306
0.00376641
0.00402225
0.00420622
0.00428793
0.00423991
0.00374346
0.00223187
0.00126307
0.00114449
0.00127701
0.00135385
0.00135123
0.00113689
0.000668284
0.00113828
0.00152304
0.00171311
0.0017596
0.00170489
0.00170933
0.00169964
0.00164893
0.0014591
0.00108766
0.000740355
0.00079805
0.000920559
0.00100349
0.00107481
0.00117695
0.00131036
0.00144588
0.00156215
0.00164287
0.00168259
0.00168687
0.00165529
0.00157762
0.00137099
0.00129594
0.00207727
0.00271265
0.00286035
0.00279993
0.00255184
0.00214586
0.00151989
0.000960141
0.000920959
0.000909174
0.000696501
0.000452134
0.000304942
0.000258504
0.00013106
0.000135382
0.000182883
0.000232304
0.000330674
0.000317474
0.000318444
0.000547779
0.000646585
0.000705026
0.000747387
0.000789872
0.000810417
0.000799808
0.000774683
0.000644067
0.000474482
0.000327409
0.00043554
0.000532002
0.000493475
0.000455041
0.000365495
0.000338658
0.000568897
0.00064449
0.000726794
0.000675854
0.000605442
0.000588322
0.00060516
0.000617052
0.000627659
0.000624685
0.000627649
0.000616423
0.000614708
0.000592723
0.000584597
0.000541427
0.000521847
0.00046873
0.000443123
0.000444533
0.000575567
0.000780591
0.00133309
0.00208226
0.00251066
0.00277116
0.00297401
0.00304735
0.00415992
0.00403137
0.00357108
0.00288769
0.00235653
0.00140581
0.000868932
0.00079248
0.000804286
0.000730953
0.000707973
0.000596654
0.000669
0.000759211
0.000940874
0.000957235
0.000749293
0.000809879
0.000838344
0.000882475
0.000894469
0.000920125
0.000920738
0.000938868
0.000932472
0.000945375
0.000932386
0.000940737
0.000944738
0.000968245
0.00101488
0.00107566
0.000856523
0.00114604
0.00135515
0.00126562
0.00125457
0.00171012
0.00222051
0.00233652
0.00388371
0.00446139
0.00402225
0.00217262
0.00208306
0.00148311
0.000972425
0.00100944
0.0011213
0.00113417
0.00106432
0.00103851
0.0010667
0.00114222
0.00115517
0.00114689
0.00113647
0.00112142
0.00109958
0.00106671
0.000958471
0.00091156
0.00120358
0.00155384
0.00169106
0.00271617
0.00376405
0.00438293
0.00365014
0.00442088
0.00494241
0.00518999
0.00521757
0.00525461
0.00521266
0.00583866
0.0058293
0.00576859
0.00565078
0.0054071
0.00494266
0.00415901
0.00483296
0.0053003
0.00569494
0.00591155
0.00611037
0.00622486
0.0062845
0.00635361
0.00651622
0.00682273
0.00685282
0.00681412
0.00681954
0.00672784
0.00647916
0.00553957
0.0033913
0.00184376
0.0016236
0.00169654
0.00169172
0.00168399
0.00152133
0.000953203
0.00148635
0.00203792
0.00220716
0.00214284
0.00192826
0.00181969
0.0029235
0.00393872
0.00460108
0.00472538
0.00481771
0.00473179
0.00462656
0.00400134
0.00300977
0.00185895
0.00172205
0.00133399
0.00101776
0.00106032
0.00115664
0.000995591
0.000763823
0.000591407
0.000670766
0.000633256
0.000617044
0.000614091
0.000608313
0.000604094
0.00060684
0.000600995
0.000604564
0.000594775
0.000596997
0.000577089
0.000571542
0.000530123
0.000514039
0.00046398
0.000429246
0.000418093
0.000521482
0.000717603
0.00128743
0.00209422
0.00248126
0.00278437
0.0030315
0.0030903
0.00359706
0.00339169
0.00277775
0.00293851
0.00242513
0.00261125
0.00294871
0.00378824
0.00401558
0.00461245
0.00443018
0.00401803
0.00361899
0.00286495
0.00293259
0.00262366
0.00132011
0.00215772
0.0018753
0.00119253
0.00118778
0.000898843
0.00105983
0.00137862
0.00123936
0.0011841
0.0023894
0.00199673
0.00211563
0.00224966
0.00239345
0.00376669
0.00267034
0.00276661
0.00442889
0.00378096
0.00314267
0.00316389
0.00378866
0.00363184
0.0034311
0.00314176
0.00343165
0.00337596
0.00338994
0.00335737
0.00335299
0.00334203
0.00333342
0.00349251
0.00361915
0.003829
0.00392252
0.00392735
0.00385932
0.0035898
0.00332885
0.00121772
0.000459828
0.000524823
0.000626492
0.000745328
0.00088485
0.000999177
0.0011114
0.00130404
0.00129836
0.0012071
0.00110451
0.000977522
0.000816916
0.000568577
0.00033821
0.000290664
0.000550897
0.00112522
0.00164815
0.00147676
0.00141099
0.00128402
0.00210794
0.00366089
0.00437605
0.00457164
0.00467025
0.00467548
0.00457656
0.00394321
0.00255981
0.00256576
0.00265801
0.00260724
0.00258867
0.0025963
0.00253411
0.00248057
0.00214408
0.00195363
0.00135813
0.00116639
0.00138674
0.00148683
0.00160892
0.00159478
0.00180171
0.00169938
0.00174308
0.00167539
0.00149875
0.00137348
0.00226269
0.00323924
0.00393979
0.00408759
0.00416609
0.00404337
0.00388862
0.00326662
0.00238727
0.0013965
0.0012096
0.000928924
0.000759586
0.000838279
0.000922314
0.000784533
0.000591745
0.000445733
0.000401158
0.00023855
0.000246662
0.000303132
0.0003177
0.000327532
0.000266361
0.00025995
0.000478292
0.000590737
0.000669398
0.0007297
0.000784436
0.00082422
0.000825594
0.000813884
0.000757647
0.000461587
0.000308953
0.000409135
0.000495093
0.000463885
0.000431296
0.000347304
0.000321813
0.000532762
0.000484623
0.000536569
0.000612064
0.00065367
0.000692356
0.000704871
0.000709617
0.000722277
0.00080064
0.000928798
0.00120558
0.00167481
0.0019211
0.00223972
0.00225613
0.00219225
0.00211632
0.00198132
0.00180953
0.00159135
0.00128427
0.00081682
0.000658228
0.000620049
0.00144503
0.0016071
0.00187404
0.00197984
0.00177426
0.001291
0.00227113
0.00219615
0.00370207
0.0043235
0.00453365
0.00464239
0.00465285
0.00455277
0.0040706
0.00398634
0.00446179
0.00458454
0.00459952
0.00449555
0.00429691
0.00366783
0.00230688
0.00228875
0.00152637
0.00127815
0.00197736
0.00202333
0.00188249
0.00191788
0.0017227
0.0016154
0.00152962
0.00161642
0.00160444
0.00196259
0.00211683
0.00231323
0.00237931
0.00235255
0.002378
0.00244484
0.00243574
0.00221969
0.00203775
0.00149054
0.00125764
0.00136392
0.00167009
0.00179721
0.00187869
0.00179764
0.00173575
0.00172668
0.00176813
0.00183438
0.00177544
0.00170737
0.00148159
0.00155145
0.00155629
0.00152996
0.00152344
0.00152327
0.0015394
0.0015605
0.00154837
0.00135685
0.00124724
0.0013204
0.00127847
0.0013228
0.00146585
0.00155203
0.00159485
0.00158432
0.0016112
0.00159419
0.00159034
0.00153089
0.00148696
0.00153801
0.00157421
0.0016467
0.00167652
0.00161966
0.00183702
0.00181481
0.00203163
0.00200298
0.00195156
0.00157458
0.00144756
0.00234204
0.00243715
0.00272524
0.00168117
0.00180038
0.00208388
0.00199638
0.00191711
0.00176589
0.00159476
0.00157259
0.00160188
0.00160269
0.00160498
0.0015662
0.00156381
0.00153457
0.00148431
0.00139495
0.00140998
0.00139621
0.00137301
0.00125295
0.00112645
0.00109624
0.00100449
0.00127314
0.00136183
0.00131494
0.00135243
0.00156307
0.00146719
0.00137097
0.00258242
0.00170627
0.00114435
0.00114541
0.00114468
0.00114449
0.0011404
0.00113155
0.0011125
0.00107961
0.00102706
0.000895202
0.00143853
0.00232251
0.00285648
0.0035659
0.00408743
0.00419605
0.00487744
0.00485469
0.00489792
0.00492318
0.0049307
0.00490763
0.00480591
0.00414819
0.00325855
0.00290287
0.00265751
0.00286015
0.00310484
0.00320999
0.00197692
0.0022198
0.00224704
0.00232858
0.00266106
0.00322639
0.00339696
0.00310059
0.00290362
0.0027466
0.00259712
0.00228767
0.0026964
0.0029355
0.00300265
0.00302679
0.00326754
0.00395369
0.00405937
0.00392435
0.00352847
0.0035134
0.00345003
0.00351351
0.00348552
0.0034555
0.00362841
0.00465628
0.00489526
0.00463805
0.00462695
0.00489981
0.00464533
0.00422726
0.00426748
0.00231549
0.000625329
0.00257516
0.00318254
0.0045011
0.0040394
0.0032356
0.00279221
0.00372481
0.0035817
0.00461747
0.00472268
0.00413016
0.0045876
0.0044674
0.00480284
0.00502686
0.0043176
0.003971
0.00413386
0.00432054
0.00439189
0.00420121
0.00440941
0.00435288
0.00456184
0.00459522
0.00393472
0.00475238
0.00367946
0.00315432
0.00512941
0.00584158
0.00658389
0.00735572
0.00792991
0.00848015
0.00908381
0.00978401
0.0101449
0.00924097
0.00875058
0.00813159
0.00759544
0.00714781
0.00678428
0.00651132
0.00630665
0.00608744
0.00600888
0.0058131
0.00543995
0.00581494
0.00609975
0.006319
0.00652657
0.00671329
0.00688756
0.00713064
0.00752876
0.00799622
0.00775728
0.00754865
0.00739997
0.00720408
0.00688061
0.00592962
0.00352305
0.00208894
0.00189729
0.00195927
0.00217554
0.00212886
0.00213242
0.00179796
0.0010212
0.00129791
0.00196807
0.00231433
0.00229991
0.00231732
0.00239746
0.00213488
0.00370812
0.00382404
0.00603018
0.00707475
0.00748037
0.00778595
0.00808497
0.00849867
0.00899878
0.0083849
0.00773075
0.00732272
0.00704686
0.00679343
0.00655803
0.00634428
0.00611291
0.00626164
0.00646254
0.00667031
0.00695957
0.00733508
0.00783046
0.00849023
0.00937464
0.0101358
0.00936186
0.00870091
0.00816199
0.00769572
0.00720639
0.0064952
0.00581872
0.00373156
0.00380622
0.0020536
0.00220065
0.00242269
0.00241727
0.00241344
0.00236493
0.00201088
0.00152897
0.00180534
0.00170057
0.00298747
0.00332847
0.00364593
0.00373507
0.00218272
0.00218838
0.00224847
0.00236875
0.0022847
0.00226534
0.00325242
0.00324991
0.00329674
0.00340209
0.00349481
0.00257801
0.00287277
0.00365432
0.00359696
0.0030601
0.00292356
0.00310886
0.00304925
0.00372909
0.00366494
0.00349857
0.00346704
0.00262098
0.00287833
0.00359023
0.00350657
0.00282251
0.00256554
0.00283441
0.00103115
0.00194099
0.00160197
0.00280222
0.00340957
0.00365039
0.00429892
0.00417702
0.00414836
0.00409908
0.00338508
0.00313712
0.00286215
0.00399806
0.00395966
0.00326638
0.0033114
0.00372269
0.003456
0.00428497
0.00437158
0.0041207
0.00391785
0.00258449
0.00383003
0.00393834
0.00401819
0.00382538
0.00348873
0.00310039
0.00287871
0.00346292
0.0034693
0.00342488
0.00293957
0.00249278
0.00200684
0.00283413
0.00301163
0.00360625
0.00350871
0.00330438
0.00253807
0.00264984
0.00187527
0.00209889
0.00219589
0.00203058
0.00172436
0.0030179
0.00462796
0.00524088
0.00530104
0.0052999
0.00525702
0.00514947
0.00448483
0.00286746
0.00282584
0.00290073
0.0028777
0.00288562
0.00288397
0.00280989
0.00288447
0.00282739
0.00285471
0.00284533
0.00286644
0.00289215
0.00288518
0.0029074
0.00458421
0.00394582
0.00396955
0.00434718
0.00449319
0.00457418
0.00455051
0.00443151
0.00418386
0.0039188
0.00378693
0.00425436
0.00431665
0.0043469
0.00441214
0.00453522
0.00460104
0.00457375
0.00446249
0.00428718
0.00429174
0.00469416
0.00453426
0.00458595
0.00443197
0.00443522
0.00440653
0.00474806
0.00447594
0.00452206
0.00506122
0.00516488
0.00520665
0.00519864
0.0051083
0.00459462
0.00290668
0.00162745
0.00191696
0.00207854
0.0020869
0.00195422
0.00187726
0.00196492
0.00197863
0.00186689
0.00159054
0.00295311
0.00296885
0.00459062
0.00509555
0.00518292
0.00518359
0.0051297
0.00501689
0.00502777
0.00513015
0.00520157
0.00523239
0.00519915
0.00502631
0.00491222
0.0029976
0.00303394
0.00150602
0.00158683
0.00184152
0.00194216
0.00196906
0.00187652
0.00165941
0.00175273
0.00171504
0.00165953
0.00304644
0.00310153
0.0028143
0.00287255
0.00185632
0.00271539
0.00357722
0.00372103
0.00384209
0.00297072
0.00345292
0.00260842
0.00265702
0.00342054
0.0033816
0.00323569
0.00337073
0.00353141
0.0036704
0.00343201
0.00345381
0.00491872
0.00369077
0.00374229
0.00348318
0.00379566
0.00382204
0.0037639
0.00353546
0.00555856
0.00442495
0.00402213
0.00386958
0.00435854
0.00432417
0.00420158
0.00284578
0.00308164
0.00317825
0.00324861
0.00367996
0.00361839
0.00429327
0.00435444
0.00404429
0.00371073
0.00359798
0.00317303
0.00308205
0.00406415
0.00462294
0.00466832
0.00326977
0.00380758
0.00468434
0.00475108
0.00496015
0.00513327
0.00510223
0.00308994
0.00297053
0.00288526
0.00270942
0.00251674
0.00281862
0.00312265
0.00340978
0.00353262
0.00387112
0.00420512
0.0045718
0.00461164
0.00432807
0.00479761
0.00475317
0.00472307
0.00469116
0.00468399
0.00402094
0.00519795
0.00499683
0.00471724
0.00435183
0.00279695
0.00174601
0.00202504
0.00226665
0.00219262
0.00334722
0.00413321
0.00336367
0.00421137
0.00424797
0.00436091
0.00394837
0.00380727
0.00417088
0.00458065
0.00447807
0.00448435
0.00527351
0.00432716
0.00432936
0.00465482
0.00461211
0.00507818
0.00458296
0.0043352
0.00459013
0.00483586
0.00447178
0.00414885
0.00442931
0.00458266
0.00401986
0.00381508
0.00338771
0.00264318
0.00290024
0.00309813
0.00300898
0.00335362
0.00405037
0.00457337
0.00350255
0.00439938
0.00442522
0.00446474
0.00437958
0.0047374
0.00525646
0.00511742
0.00538027
0.00528115
0.00527489
0.00501921
0.00482962
0.00451482
0.00479352
0.00490894
0.00488612
0.00470739
0.00446523
0.00478077
0.00436676
0.00383865
0.00398364
0.00449322
0.00468385
0.00424929
0.00432965
0.00476458
0.00519577
0.00500886
0.00456596
0.00418517
0.004572
0.00469544
0.00424197
0.00405362
0.00358724
0.00374741
0.00432123
0.00454952
0.00401217
0.0039978
0.00393187
0.00388489
0.00450586
0.004801
0.00470772
0.00485662
0.00501629
0.00516082
0.00510327
0.00504944
0.00501485
0.00515517
0.0050476
0.00510148
0.00500689
0.0047548
0.00488251
0.00469127
0.00492119
0.00411575
0.00483694
0.00499136
0.00443359
0.0050563
0.005124
0.00503699
0.005277
0.00383214
0.00382392
0.00354165
0.00377945
0.0045165
0.00554366
0.0049443
0.00492963
0.00427903
0.00433743
0.00490325
0.00492371
0.00483902
0.00456674
0.00571287
0.00615158
0.00516162
0.00605509
0.00562235
0.00537882
0.00528682
0.00525145
0.00518168
0.00508037
0.0048915
0.00464075
0.00446456
0.00436062
0.00418361
0.00453823
0.00461963
0.00463478
0.00438023
0.00442174
0.00451671
0.00455174
0.00452454
0.00444032
0.00432253
0.00426688
0.00426645
0.00426267
0.00417291
0.00398359
0.00372954
0.00380849
0.00385388
0.00393855
0.00403953
0.00419372
0.00429622
0.00447489
0.00468769
0.00475775
0.00478895
0.00470722
0.0044447
0.00431111
0.00409123
0.00417754
0.00460744
0.00501572
0.00518255
0.00530497
0.00546901
0.00580381
0.0063036
0.00641464
0.00566639
0.00498149
0.00480082
0.00453899
0.00406569
0.00351839
0.0036249
0.00384638
0.00435327
0.00421926
0.00489549
0.005117
0.00519323
0.00513301
0.00474185
0.00343421
0.00347751
0.00321898
0.00280608
0.00285166
0.00316501
0.00318874
0.00335192
0.00337436
0.00311081
0.00280012
0.00260361
0.00290759
0.00321167
0.0031974
0.00320821
0.00309716
0.00297272
0.00286287
0.00271744
0.00263624
0.00253382
0.00249433
0.0024391
0.0024227
0.00234689
0.00371386
0.00419754
0.00407708
0.00381363
0.00371155
0.00393158
0.0040663
0.00367043
0.00233401
0.00240721
0.00235808
0.00242925
0.0023862
0.00240064
0.00241768
0.00244271
0.00246607
0.00249925
0.00254374
0.00259718
0.00270174
0.00265877
0.00278365
0.0031077
0.00154016
0.00168284
0.00171
0.00168315
0.00159606
0.00154008
0.00150357
0.00147914
0.00146456
0.00145806
0.00146736
0.00145957
0.00141882
0.00130062
0.0013867
0.00233237
0.00230871
0.00363149
0.00228552
0.00136343
0.00138229
0.00159724
0.0015867
0.00164831
0.00161373
0.00149097
0.00145789
0.00147216
0.00149542
0.00153038
0.001629
0.00190711
0.00198479
0.00194973
0.00168104
0.00170888
0.00201764
0.00198719
0.00168029
0.00134336
0.00117563
0.00113505
0.00112397
0.0011115
0.00110148
0.00109031
0.00108044
0.00106938
0.00105915
0.00107116
0.0011884
0.0014284
0.0016278
0.00148379
0.00156291
0.00151011
0.00131956
0.00220688
0.00345368
0.00215793
0.0012771
0.00145338
0.00134124
0.00139748
0.00119612
0.00123567
0.00136353
0.00117783
0.00108952
0.000969434
0.000919943
0.000949326
0.000961443
0.000974513
0.000987551
0.000998924
0.00101137
0.00100174
0.00107998
0.00124914
0.00139949
0.00166009
0.00185499
0.0015677
0.00126848
0.00111347
0.000976522
0.000681381
0.000674251
0.00066582
0.000664979
0.000688608
0.000698457
0.000708339
0.000709333
0.000713942
0.000709385
0.000702483
0.00064616
0.000599929
0.000549808
0.000552225
0.000557538
0.000569587
0.00059408
0.000600075
0.00060734
0.000613581
0.000616604
0.000620429
0.000629386
0.000630444
0.000627247
0.00062504
0.000621341
0.000619539
0.00061261
0.000605781
0.000597071
0.000591713
0.000586954
0.000581116
0.00057076
0.000563381
0.000551027
0.000807749
0.000890298
0.00096776
0.00114751
0.00134563
0.00146717
0.00129624
0.00219475
0.00346651
0.00215151
0.00125881
0.00141746
0.00129797
0.0010994
0.00113156
0.00114719
0.00117804
0.000993548
0.00100768
0.00104463
0.000952917
0.000857624
0.000583808
0.000590591
0.00059402
0.000603754
0.000607352
0.000610751
0.000614176
0.000622075
0.000627197
0.000633362
0.000632814
0.000636468
0.000638395
0.000646521
0.000647836
0.000646373
0.000644262
0.000652532
0.000366516
0.000401174
0.000412516
0.000409411
0.000407325
0.000401607
0.000405539
0.000399342
0.000395854
0.000386071
0.000378516
0.000373811
0.000372477
0.000368847
0.000358719
0.000328244
0.000365902
0.000586672
0.000586052
0.000363258
0.000321662
0.000566792
0.00088235
0.000570195
0.000347727
0.000403098
0.000430303
0.000392801
0.000434975
0.000411337
0.000429353
0.000444387
0.00045132
0.000460588
0.000469643
0.00047485
0.000481544
0.000501559
0.000499612
0.00050771
0.000508958
0.000504073
0.000482133
0.000428649
0.000476298
0.000526299
0.000542991
0.00054711
0.000501294
0.000500483
0.00052218
0.000513489
0.000507811
0.000501305
0.000472036
0.00045332
0.000474336
0.000452676
0.000471988
0.000450396
0.000467014
0.000443732
0.000415107
0.000351636
0.000570888
0.000888316
0.000570618
0.00035153
0.000415365
0.000454199
0.000479403
0.000479933
0.000486836
0.000484735
0.000496461
0.000483904
0.000439342
0.000472311
0.000186814
0.000332721
0.000262793
0.000329709
0.000272864
0.000374121
0.00045288
0.000446895
0.000453198
0.000381111
0.000356701
0.000346636
0.000351023
0.000359068
0.000348857
0.000384807
0.000389165
0.000485864
0.00048526
0.000494406
0.00051577
0.000431415
0.000444984
0.00040845
0.000447738
0.000433088
0.000427733
0.000429457
0.000441123
0.000615167
0.000621997
0.000630175
0.000525413
0.000365523
0.000448408
0.000333988
0.000420722
0.000221424
0.000510836
0.00051018
0.000488846
0.000510763
0.000514575
0.000514802
0.000515022
0.00049324
0.000641202
0.000607317
0.000688903
0.000246705
0.000497738
0.000340028
0.000468429
0.000348588
0.000455971
0.000591808
0.000623949
0.000617676
0.000520911
0.000563885
0.00154941
0.110355
0.00118467
0.001443
0.00146466
0.00143572
0.00109991
0.000814922
0.00110161
0.000698463
0.00114583
0.000503067
0.00167286
0.00147552
0.00163844
0.00173091
0.000783945
0.000835458
0.000867356
0.00091436
0.000796939
0.000775996
0.000936321
0.000933161
0.0912213
0.111995
0.117995
0.112608
0.0861035
0.110205
0.297143
0.470137
0.55688
0.162282
0.00123029
0.00132001
0.000897305
0.000762672
0.000340057
0.000755914
0.00141266
0.116981
0.251363
0.644516
1.19427
0.856771
0.555856
0.288077
0.107061
0.252631
0.102168
0.280606
0.114192
0.146802
0.384435
0.709717
0.548502
0.841202
0.524518
0.849397
1.0976
1.29938
1.51781
1.04554
0.405421
0.116491
0.00100019
0.000732196
0.000773019
0.0014012
0.00108831
0.00063466
0.000758895
0.00144736
0.12052
0.423377
1.13494
1.41487
1.49753
1.41817
1.27455
1.0869
1.20006
0.997643
1.03783
0.748277
0.403623
0.146581
0.152516
0.404949
0.746261
1.01787
1.21121
1.22687
1.34183
1.32826
1.46586
1.52722
1.53848
1.43237
0.923218
0.181903
0.00180019
0.000990949
0.00106019
0.00182732
0.179421
0.979958
1.50102
1.56924
1.53686
1.47664
1.47271
1.35437
1.25313
1.09627
0.891068
0.586625
0.316409
0.103609
0.00140469
0.0014013
0.00148482
0.00130543
0.101886
0.267157
0.510818
0.818952
1.02188
1.17426
1.38003
1.47354
1.54011
1.57614
1.57503
1.06332
0.175767
0.00181149
0.00104142
0.000706912
0.00146005
0.107265
0.414769
1.59243
1.56176
1.41404
1.32541
0.737983
0.666662
0.568363
0.420249
0.249956
0.0974991
0.00167213
0.0010725
0.00138894
0.142516
0.154303
0.159186
0.160191
0.105151
0.413762
0.104626
0.405157
0.104069
0.00169251
0.00184651
0.000733734
0.000689793
0.00074981
0.00168686
0.00176957
0.000745931
0.000776874
0.00157886
0.00185346
0.000716087
0.0005899
0.00121602
0.00149683
0.0007317
0.000729323
0.00152219
0.00147796
0.000701373
0.000644599
0.000467777
0.000568086
0.000494058
0.000560786
0.000537237
0.00058192
0.00113675
0.000998689
0.00089182
0.000975079
0.00109627
0.00130387
0.00130681
0.00145818
0.0014734
0.00155172
0.00160454
0.00162158
0.00150676
0.00117294
0.00143672
0.00150676
0.00148491
0.00126584
0.00176433
0.00105499
0.000902335
0.000971758
0.000988756
0.000757959
0.000968093
0.00107366
0.00114638
0.00101703
0.000860997
0.00102621
0.00116752
0.00148502
0.00149904
0.00133515
0.00136481
0.00171604
0.00153472
0.0016071
0.00169004
0.0015307
0.00143034
0.00159251
0.001281
0.00136283
0.00278834
0.0105883
0.0170324
0.0279503
0.0323908
0.0299428
0.0177572
0.0122503
0.00471888
0.00102481
0.00109496
0.00074078
0.00103192
0.00129122
0.00139312
0.00127541
0.000945155
0.001179
0.00142482
0.00095573
0.000817457
0.000853851
0.00096438
0.000884091
0.000689249
0.000628519
0.000870824
0.000904625
0.000970292
0.000888348
0.000701195
0.000783761
0.000945555
0.00101642
0.000904122
0.000854163
0.000708044
0.00048894
0.000931212
0.00104968
0.00115988
0.00111898
0.00113262
0.00127846
0.0013704
0.00139426
0.000990857
0.000821817
0.00113343
0.00136048
0.00149003
0.00146197
0.00612744
0.00238859
0.00132892
0.000945964
0.00086841
0.00085075
0.000934386
0.000682798
0.000808685
0.000898072
0.000943269
0.000892395
0.00086553
0.000760521
0.000865142
0.000924181
0.000904571
0.000840499
0.000703354
0.000790549
0.000801469
0.000881471
0.000840436
0.000734106
0.000766747
0.000829383
0.000883343
0.000850712
0.000971827
0.000745911
0.000982652
0.000971469
0.000936562
0.00106709
0.000912423
0.00114958
0.000828723
0.000767665
0.00119835
0.000813771
0.000746224
0.00135991
0.000852593
0.000788774
0.001676
0.00092811
0.000807927
0.0022679
0.000732505
0.00125065
0.00116135
0.00115994
0.000968887
0.000999982
0.0011582
0.00119222
0.00173816
0.00126839
0.000918944
0.000431226
0.000377004
0.000419523
0.00049515
0.000539619
0.000557642
0.000576136
0.000581865
0.000538025
0.000556861
0.000584505
0.000608318
0.000592473
0.00056832
0.000521603
0.000432534
0.000438835
0.000530446
0.000594014
0.000624583
0.000616091
0.000592264
0.000858383
0.00144027
0.0014746
0.00127196
0.00138437
0.00157534
0.00138624
0.00114934
0.0009747
0.00107731
0.00118424
0.00115373
0.00107052
0.000970602
0.00114135
0.00115789
0.00117309
0.0011749
0.00119114
0.000984605
0.00107146
0.0011909
0.00123608
0.0012197
0.00110612
0.00114262
0.00130782
0.0014547
0.00134425
0.00143749
0.00151557
0.00135708
0.00101043
0.000613361
0.000615478
0.000607698
0.000531697
0.000439916
0.000439595
0.000533953
0.00061455
0.000613335
0.000633717
0.000607655
0.000532725
0.000434995
0.000424302
0.000519651
0.000581122
0.00061963
0.000603072
0.000551191
0.00048024
0.000392377
0.000346603
0.000402129
0.000461918
0.000484706
0.00050884
0.000547493
0.00056892
0.000574536
0.000567925
0.00055303
0.000526465
0.000513947
0.000510574
0.000488992
0.000480048
0.000478284
0.000462686
0.000456625
0.000465772
0.000440832
0.000410106
0.000368289
0.000338744
0.000298057
0.000527134
0.000820779
0.000940373
0.00112588
0.00109587
0.000920226
0.000928705
0.000955343
0.000971845
0.000871796
0.00056242
0.000347472
0.000410235
0.000455619
0.000460952
0.000464412
0.000679036
0.000713948
0.000840729
0.000885452
0.00077826
0.000861182
0.000963067
0.000868206
0.000742996
0.000857745
0.000947071
0.00110004
0.00122169
0.00107469
0.00101844
0.00117742
0.00130384
0.00115429
0.000925498
0.000622819
0.000984285
0.0010738
0.000906884
0.000788539
0.00402943
0.000833371
0.00135164
0.000893177
0.000786084
0.000821477
0.000908361
0.00082897
0.000667811
0.000608885
0.000815821
0.000843256
0.000899971
0.000821014
0.000665627
0.000744438
0.000879991
0.000943457
0.000854382
0.000913893
0.00070075
0.000472614
0.000773329
0.000890515
0.000993151
0.000919479
0.00102483
0.00128374
0.00117057
0.00109175
0.00115084
0.00079814
0.000801468
0.000758584
0.000736934
0.00197605
0.000734414
0.000678374
0.00193464
0.000826404
0.000747368
0.000956775
0.000763602
0.000827336
0.000822916
0.000842522
0.00161292
0.00182722
0.00169068
0.00127439
0.00124359
0.00131406
0.00173941
0.00175784
0.00174197
0.00157678
0.00107542
0.0016024
0.00198708
0.00208027
0.00169789
0.00136368
0.0015496
0.00157846
0.00140753
0.00100129
0.000976567
0.000953857
0.000887117
0.000925869
0.000953181
0.000952568
0.000954276
0.000881199
0.000971603
0.00101099
0.00104741
0.000976878
0.000912252
0.00101269
0.00102881
0.00116277
0.000995714
0.00104044
0.000796566
0.00114077
0.00134642
0.00157089
0.00158531
0.0014022
0.0010837
0.00086488
0.00102044
0.00124713
0.0015037
0.00139933
0.00118688
0.00140738
0.00111983
0.00120958
0.00146326
0.00107651
0.00103053
0.00100229
0.00101565
0.000874344
0.00139231
0.00110169
0.00113263
0.001041
0.000976421
0.00140228
0.000828685
0.00114692
0.00114633
0.00126324
0.00137117
0.00131087
0.0025715
0.000777106
0.00133315
0.00136501
0.00244791
0.00138621
0.00158654
0.00156753
0.00147853
0.00250901
0.00163477
0.00170352
0.0014369
0.0013274
0.00301885
0.00167177
0.00154744
0.00118838
0.00099513
0.00213984
0.0013056
0.000938835
0.000763382
0.000729462
0.000332084
0.000398104
0.000469243
0.000474316
0.000536513
0.000514287
0.000570763
0.000531045
0.000551031
0.000495843
0.000501889
0.000490642
0.000481607
0.000458821
0.000452002
0.000450831
0.000446897
0.00043827
0.00042707
0.000408424
0.000388644
0.000343956
0.000550462
0.000548675
0.000541643
0.000540527
0.00167529
0.000744574
0.000375542
0.0003227
0.000530008
0.000525228
0.000820849
0.000832391
0.000855461
0.00055114
0.000558669
0.000345179
0.000408284
0.000455011
0.000450165
0.000457174
0.000448983
0.000407253
0.000341738
0.000340347
0.000548621
0.000536488
0.000333535
0.000398485
0.000406274
0.000437467
0.000447872
0.000452711
0.000440581
0.000438
0.000391835
0.000330507
0.000533473
0.000527282
0.000326167
0.000386639
0.000432272
0.000440205
0.000440969
0.000693071
0.000859618
0.000907152
0.000989951
0.000973513
0.00082637
0.000840898
0.000906614
0.00100992
0.000996759
0.00099786
0.00102111
0.000910097
0.000723636
0.000656405
0.000839645
0.000880008
0.000974375
0.00159758
0.00120399
0.000914934
0.000872903
0.000939745
0.000886508
0.00089158
0.000842972
0.000787828
0.000838265
0.000819707
0.000650309
0.000701608
0.000802688
0.000833989
0.000761577
0.000818681
0.000730874
0.000643042
0.000769976
0.000819226
0.000817684
0.000749656
0.000592319
0.000781967
0.000806503
0.00083972
0.000731615
0.000640328
0.000770791
0.000766405
0.000812304
0.00178932
0.000752186
0.000786432
0.00175758
0.00067802
0.000640434
0.000588994
0.000665122
0.000662585
0.000724245
0.000721577
0.000757875
0.000766875
0.00172349
0.000705516
0.000760809
0.00167984
0.000660414
0.000576608
0.000582651
0.000645289
0.000602839
0.000655163
0.000602159
0.00178323
0.000692816
0.000735958
0.000776841
0.000779571
0.000832335
0.000804882
0.00187117
0.000723344
0.000774266
0.000649568
0.000595269
0.000640098
0.000580095
0.00189043
0.000737843
0.000812405
0.00081151
0.000807206
0.000787857
0.000422414
0.000384326
0.000324282
0.000560243
0.00182846
0.000740731
0.000764182
0.000601778
0.000587967
0.000725176
0.00163266
0.00146336
0.00152951
0.00156613
0.00148582
0.00141877
0.00146301
0.00153842
0.00155389
0.00159902
0.00159358
0.0017142
0.00170156
0.00206798
0.00242121
0.00153631
0.00203444
0.00438043
0.00566033
0.007418
0.00158032
0.00116563
0.000915619
0.000946871
0.000850198
0.000945949
0.000893001
0.00110256
0.00113261
0.00108771
0.000851203
0.000867951
0.000906567
0.000996571
0.000954897
0.00117658
0.00154038
0.00714087
0.00598746
0.00342871
0.00237563
0.0014777
0.00158957
0.00157461
0.00153827
0.00100987
0.00475838
0.00297283
0.00177673
0.00361309
0.00244331
0.0037125
0.00328617
0.00406501
0.00406435
0.0013114
0.00129504
0.00128589
0.00127345
0.00126474
0.00125469
0.00125074
0.00125942
0.00137317
0.00238745
0.00298537
0.00301674
0.00331386