/*--------------------------------*- C++ -*----------------------------------*\
| =========                 |                                                 |
| \\      /  F ield         | OpenFOAM: The Open Source CFD Toolbox           |
|  \\    /   O peration     | Version:  v2012                                 |
|   \\  /    A nd           | Website:  www.openfoam.com                      |
|    \\/     M anipulation  |                                                 |
\*---------------------------------------------------------------------------*/
FoamFile
{
    version     2.0;
    format      ascii;
    class       surfaceScalarField;
    location    "20";
    object      phi;
}
// * * * * * * * * * * * * * * * * * * * * * * * * * * * * * * * * * * * * * //

dimensions      [1 0 -1 0 0 0 0];
oriented        oriented;


internalField   nonuniform List<scalar> 
63799
(
0.00324757
-0.00539604
0.00378662
-0.00750609
-0.00614147
0.00876525
-0.00499249
-0.0064526
0.0102799
0.00432572
0.00443366
-0.0059966
-0.0035089
0.00244856
0.00346748
-0.00154557
0.00316023
0.00224733
-0.00300639
0.00490245
0.00335669
-0.00516987
0.000218549
0.00459598
0.000861424
-0.00594266
0.00520068
0.00183698
-0.00585042
0.00476458
0.00238116
-0.00480624
0.00415944
0.00321866
-0.00351789
0.00257607
0.00570381
-0.00584927
0.00317075
0.0031009
-0.0139046
0.0159506
0.00446084
-0.0193347
0.0172803
0.0107628
-0.0193731
0.0122943
0.0136043
-0.0152152
0.0115914
0.0128641
-0.012367
0.0122952
0.00254243
-0.0100644
0.0196085
-0.0134353
-0.0136977
0.0289121
-0.0176407
-0.0277491
0.0312615
0.00193443
-0.0381378
0.0180096
-0.00192968
0.0035075
-0.0553998
0.0498662
0.00326283
-0.0686776
-0.0124962
0.0252219
-0.0741219
-0.0119332
0.0168251
-0.046368
-0.0454979
0.0174014
-0.0597522
0.0130254
-0.0947553
0.00729078
0.027156
-0.114238
0.0152789
0.00350531
-0.12724
0.00952519
0.00270674
-0.132737
0.00463655
5.76756e-05
-0.13367
0.00110621
-0.00102639
-0.131315
-0.00289893
-0.000314298
-0.12629
-0.00855462
0.00265297
-0.117903
-0.0164485
0.00720739
-0.10325
-0.0278464
0.0123372
-0.0807857
-0.0394513
0.0161914
-0.0497261
-0.0494064
0.0175583
-0.0606714
0.010198
-0.101877
0.00520177
0.0352016
-0.130479
0.00146267
0.0263095
-0.149514
-0.000920032
0.0190473
-0.159047
-0.00277736
0.0113833
-0.159068
-0.0051302
0.00418448
-0.150563
-0.00839495
-0.00107484
-0.13354
-0.0128611
-0.00513055
-0.107308
-0.0178489
-0.00934455
-0.0705819
-0.0232509
-0.0144319
-0.0422874
-0.0192251
-0.0100188
0.0152793
-0.0263686
-0.0321393
0.0835419
-0.0275983
-0.0415904
0.123367
-0.0137656
-0.0269681
0.147474
-0.0061843
-0.0187998
0.157673
8.75817e-05
-0.0111245
0.146675
0.00854448
0.00169137
0.0843772
0.0306898
0.030986
0.0357452
0.0152648
0.0331472
0.0201292
0.0110071
0.00453115
0.0205775
7.0594e-05
-0.000574272
0.020258
-0.00205979
0.00230818
0.0172207
-0.000788127
0.00374463
0.0114551
-0.000131397
0.00581214
0.00735525
-0.000211405
0.00423967
0.00780527
-0.000320138
-0.000180966
0.00155709
0.00606763
0.000108995
0.00263684
-0.001168
0.00823791
0.000798827
-0.00649908
0.0139158
0.00212699
-0.00791547
0.0190866
0.00182306
-0.0070971
0.0257937
-0.00139614
-0.00541627
0.0614467
-0.0191488
-0.0167016
0.118903
-0.0150469
-0.0429845
0.14116
0.000659167
-0.0236377
0.149937
0.00289162
-0.0124759
0.15175
0.00283465
-0.00546239
0.148683
0.00313358
-0.000907371
0.140691
0.00392654
0.0032671
0.125203
0.00564961
0.00905799
0.102798
0.00519485
0.0165033
0.0642024
0.00744362
0.0305904
0.0516363
0.0122053
0.0846328
0.0163597
-0.0496998
0.0829685
0.0108653
-0.00975378
0.0623565
0.0169678
0.00309147
0.000514766
0.0624199
-0.00092178
-0.00467032
0.00482495
0.0183838
0.0185447
-0.0421598
0.0202204
0.0322253
-0.0347674
0.0110506
0.0360327
-0.0276409
0.00664816
0.0345014
-0.0308957
0.0154913
0.0350951
-0.0447768
0.0291964
0.0381669
-0.0526842
0.0417582
0.0403592
-0.0537267
0.0445505
0.0420833
-0.0455945
0.0240721
0.0452979
-0.0253933
0.0122157
0.0205
-0.00884048
0.0118867
0.00595968
-0.00573573
0.0117516
0.00560141
-0.00556933
0.0104236
0.00630812
-0.00509034
0.00672762
0.00544362
-0.0018466
0.00149513
0.00514437
0.00275318
0.00356265
-0.00489213
0.00250076
0.00285561
-0.00265419
0.00163118
0.00417488
-0.00337678
0.00237281
0.00481347
-0.00563977
0.00197017
0.00444264
-0.00412075
0.00166176
0.00412463
-0.00388722
0.00201769
0.00204093
-0.00245215
0.00307726
0.00205472
-0.00319184
-0.00268922
0.0112912
-0.00574439
-0.014704
0.0367251
-0.0253312
-0.0176743
0.0364424
-0.0342342
-0.0203789
0.0378603
-0.0359926
-0.0231041
0.0396084
-0.0377589
-0.021197
0.0390937
-0.0419071
-0.0160834
0.0395018
-0.0455374
-0.00901239
0.0385398
-0.046543
0.00135037
0.0416832
-0.0529791
0.00710819
0.0469233
-0.0536046
0.00739659
0.0489396
-0.0501357
0.0064133
0.0493273
-0.0492212
0.011064
0.0450344
-0.0505235
0.01921
0.0422251
-0.0511346
0.0147082
0.0447685
-0.0408883
0.00430816
0.0170239
-0.00684358
0.00283293
0.00579084
-0.0043931
0.00444941
0.00236409
-0.00403553
0.00579081
0.00384218
-0.00525358
0.00446545
-0.00474957
-0.00635376
0.00931422
-0.00503328
-0.00447378
0.00761467
-0.00572844
-0.000423349
-0.00170805
0.00730508
-0.00196643
-0.0040303
0.0114761
0.00505198
-0.00530627
-0.00323884
0.0149565
0.00110355
0.000939808
0.0697179
0.0119057
-0.0420213
0.0167706
0.0648816
-0.0393995
0.0236297
0.0649315
-0.0276815
0.0198871
0.0678701
-0.0157413
0.0136617
0.0651614
-0.0109541
0.0103763
0.0605047
-0.0112661
0.011594
0.0515949
-0.012106
0.0120355
0.0439301
-0.00680756
0.0112927
0.0444913
-0.00521538
0.00637115
0.0466995
-0.00364035
-0.00431984
0.0513169
-0.00195695
-0.0123419
0.0508765
-0.00591789
-0.0145749
0.0517843
-0.0140197
-0.00965585
0.0549261
-0.00471729
-0.0193891
-0.00575811
0.011152
-0.00393099
-0.0077428
0.00937087
-0.00498762
-0.00251225
-0.00449907
-0.001218
-0.00151964
-0.000960319
-0.00243496
0.00891368
-0.00395052
-0.00280161
0.00890196
-0.00418032
-0.00157858
0.00918477
-0.00568587
-0.00247708
0.00709577
-0.00209154
-0.00237632
0.0048244
-0.00211587
-0.00172937
0.00654618
-0.00369323
0.0102925
-0.00697356
0.0148755
-0.00726063
0.00256823
0.0191612
-0.00731954
0.00291023
0.0238858
-0.00772987
0.00286933
0.0341138
-0.011778
0.0013715
0.0462638
-0.0180786
0.00564274
0.0342004
0.00065851
0.0111203
0.0249765
-0.000344673
0.00938894
0.0210012
-0.0015316
0.00537086
0.0174023
-0.000710163
0.00418551
0.0131644
0.000617055
0.00351147
0.00781457
0.00205162
0.00320219
0.00352255
0.00420393
0.00280709
0.00618147
-0.00553741
0.00275296
0.00390824
-0.00390509
0.00551515
0.00160312
-0.00443677
0.00742076
0.00231682
-0.00430705
0.00861543
0.0028319
-0.00410726
0.00842144
0.00334152
-0.00321845
0.00804278
0.00298603
-0.00266259
0.0149186
0.000961103
-0.00791435
0.0387578
-0.00655394
-0.0175044
0.0685447
0.0133786
-0.0437823
0.0761685
0.0249086
-0.0332878
0.074887
0.0295397
-0.0290845
0.0681529
0.0312865
-0.025408
0.0568337
0.0309995
-0.0205485
0.0360526
0.0281675
-0.00824791
-0.00360258
0.0244233
0.0143751
-0.0352132
0.0294138
0.00133945
-0.0471692
0.0338732
-0.0227793
-0.0550015
0.0369096
-0.0299445
-0.0582748
0.03655
-0.0341293
-0.0558718
0.034181
-0.0374054
-0.046498
0.0305612
-0.0406858
-0.0242668
0.0236588
-0.0465052
-0.00878887
0.000944722
-0.0166416
-0.0044392
0.00240042
-0.00682761
-0.00492661
0.00341405
-0.00298194
-0.00463827
0.00436504
-0.00472409
-0.00293361
0.00405903
-0.00584288
-0.00110106
0.00376529
-0.00567794
-8.66001e-06
0.00172375
-0.00287974
-0.000380821
0.00272936
-0.0024049
-0.0017142
0.00533721
-0.00407427
0.00501414
-0.00681501
0.00870126
0.00286496
-0.00665131
0.0113242
0.00442411
-0.00715486
0.0135696
0.00416517
-0.00651703
0.0152626
0.0043133
-0.00610948
0.0163618
0.00446331
-0.00566285
0.0162201
0.00473409
-0.00468644
0.011498
0.00632971
-0.00168477
0.00537513
-0.000261227
0.00635391
0.00526435
-0.00080454
0.000901829
0.0063369
-0.00089057
-0.000196641
0.00738748
-0.000962014
-0.000104095
0.00823596
-0.000674089
-0.000190138
0.00874181
-2.71177e-05
-0.000494192
0.00882649
0.000628075
-0.000728178
0.00862983
0.00107947
-0.00089817
0.00829296
0.00127727
-0.000955791
0.00793585
0.00129593
-0.000954248
0.00758381
0.00123516
-0.000898593
0.00724802
0.00115624
-0.000835993
0.00689952
0.00109172
-0.000758692
0.00654623
0.00104711
-0.000709438
0.0060166
0.000963736
-0.000449328
0.0052921
0.000742399
-3.21307e-05
0.00562881
0.00061695
-0.000966477
0.0119342
-0.000751455
-0.00558212
0.0167379
-0.00307923
-0.0017934
0.0173073
-0.000894417
0.000242452
0.0163699
-0.000253423
0.00110835
0.0139527
0.000257578
0.00207668
0.00807764
0.00167643
0.00412945
0.00315618
0.00306979
0.00182353
0.00243025
0.0001875
0.000525777
0.0019505
-0.000252239
0.000718322
0.0011267
1.16417e-05
0.000798614
0.00024256
-5.69427e-05
0.000929968
0.000147521
0.00046109
-0.000371475
-2.39959e-05
0.000168429
-7.81141e-06
6.28701e-05
-8.0737e-05
1.74523e-05
-3.12587e-05
5.28163e-06
4.93142e-06
-1.3088e-05
2.49665e-05
-1.34793e-05
-5.34671e-06
2.28661e-05
-9.18316e-05
3.35173e-05
4.36611e-05
-3.92555e-05
4.25947e-05
-9.64423e-05
0.000175063
5.5572e-06
-0.000220915
0.000762959
-0.000616722
2.80605e-05
0.00149295
-0.000904693
0.000173508
0.00222405
-0.000924964
0.00019263
0.0028011
-0.000908959
0.000330653
0.0030816
-0.000763456
0.000481713
0.00308945
-0.000639135
0.000630021
0.00290937
-0.000520966
0.000699781
0.00226691
-7.00344e-05
0.000711255
0.00100009
0.000512965
0.0007526
-0.000527687
0.000906945
0.000619595
-0.00167263
0.00103356
0.000110195
-0.00245188
0.000603235
0.00017525
-0.00231592
-3.11895e-05
-0.000105786
-0.00142496
-0.000869496
-2.27275e-05
-0.000859281
-0.000595212
2.83651e-05
-0.000469131
-0.000435854
4.48066e-05
-0.000261312
-0.000281379
7.29189e-05
-0.000316364
-0.000159512
0.000213854
-0.000495202
-0.000150616
0.00032778
0.000416289
-0.000914556
0.000324461
-0.000690487
0.000778777
0.000165233
-0.000512494
0.000668617
-0.000135102
-0.000290833
0.000588054
-0.000447434
-0.000227126
0.000536474
-0.000643063
-0.000332644
0.000525285
-0.000801481
-0.000339087
0.000494619
-0.000826115
-0.000462495
0.000484298
-0.000874886
-0.000413041
0.000459046
-0.00082843
-0.000507783
0.000458611
-0.000833693
-0.000440043
0.00044261
-0.000764555
-0.000517846
0.000446073
-0.000756427
-0.000438609
0.000427823
-0.000682875
-0.000495682
0.0004196
-0.00066614
-0.000401585
0.000382245
-0.000582631
-0.000450891
0.000365034
-0.000498496
-0.000411463
0.000324815
-0.00051149
-0.000474647
0.000485269
-0.00125442
-0.000291905
0.00102959
-0.00143421
-0.000563091
0.000736383
-0.00262774
-0.000316713
0.00149753
-0.0048543
-0.00392374
0.00611479
-0.0110503
-0.0167089
0.0227797
-0.0164743
-0.0208696
0.0261232
-0.0190525
-0.0329449
0.0352079
-0.0176785
-0.0439588
0.0422419
-0.0500489
0.0450227
0.0162464
-0.0800619
0.0205291
0.0253527
-0.0780814
0.0244542
0.0216621
-0.0712896
0.00629605
0.0350722
0.0128407
-0.0221844
0.00997731
0.0049707
-0.0240342
0.0121979
0.00281984
0.00244436
0.00327605
-0.00470126
0.00272898
0.00170451
-0.0035945
0.00158643
0.00190019
0.000507284
0.00107429
0.000259859
0.000718475
-2.27682e-05
0.000376658
0.000338699
8.66352e-05
-0.00016931
3.25537e-05
-0.00114653
0.000816723
0.000158895
-0.00166497
0.000493422
0.00222184
-0.00396134
0.00176471
0.000944672
0.00133738
-0.00431476
0.00210525
0.00213229
0.000811346
0.000534632
0.00114342
0.000550539
0.000957697
-0.00078913
0.000569441
0.00133435
-0.00143763
0.000561516
0.00106862
-0.000773878
0.000597191
0.00143071
-0.00146694
0.000583185
0.00110713
-0.000742183
0.00062187
0.00142805
-0.00144646
0.000613866
0.00104189
-0.000700988
0.000670183
0.00123821
-0.00134601
0.000683189
0.000792399
-0.000654641
0.000757319
0.000779689
-0.00111608
0.000792047
0.000456095
-0.000783891
0.000876239
0.000350324
-0.00109284
0.000903657
6.34015e-05
-0.00120094
0.00097116
-0.000287167
-0.00136877
0.00102412
-0.00218289
0.000975818
-0.00465468
0.000640004
0.00182104
-0.00548087
-0.000206981
0.00102053
-0.00545521
-0.000268853
0.000230368
-0.00619154
-0.000302363
0.00102794
-0.0142273
0.000887017
0.00712395
-0.0210976
0.00610381
0.000714766
-0.0253002
0.00243278
0.00170826
-0.0488082
0.00685335
0.0165592
-0.0502738
0.0045695
-0.0033083
-0.0279426
-0.00404586
-0.0183793
-0.0248123
-0.00137098
-0.0018192
-0.0187914
-0.00496228
-0.00110916
-0.0086494
-0.00129768
-0.00886891
-0.00805298
0.000375663
-0.000982856
-0.00916058
0.000201105
0.000893436
-0.00955729
7.90897e-05
0.000304177
-0.00912127
-0.000559392
0.000109883
-0.00883923
-0.00048554
0.000190835
-0.00874572
-0.00033098
0.000224689
-0.00895324
-0.000117087
0.000311357
-0.0095266
8.47466e-05
0.000474151
-0.00984156
-0.000353232
0.000652881
-0.00973187
-0.000906232
0.000780736
-0.00926137
-0.00137859
0.000892208
-0.00856033
-0.00169014
0.000973325
-0.00792682
-0.00164874
0.000999405
-0.0071644
-0.00154296
0.000765169
-0.00618249
-0.00130993
0.000313286
-0.00631732
-0.00120293
0.00132444
-0.0137801
-0.000666825
0.00809866
-0.0189278
0.00821213
-0.00314028
-0.0213888
0.00544544
-0.00307155
-0.0430036
0.0129309
0.00851173
-0.0559129
0.0254642
-0.0130029
-0.0368273
0.00939016
-0.0290298
-0.034077
-0.00331975
-0.0534455
-0.0253466
0.0440326
-0.0622993
-0.0390459
0.0471433
-0.0609236
-0.0502306
0.0480316
-0.0489592
-0.0581692
0.0453678
-0.0305108
-0.0617617
0.0425072
-0.0631115
0.0420075
0.0233246
-0.104829
0.0227717
0.0428376
-0.103547
0.0214131
0.0564997
-0.0970468
0.024327
0.0582987
-0.0836486
0.0307386
0.0485733
-0.0652081
0.0350603
0.0275131
-0.0428789
0.0378435
-0.0147094
0.0382257
-0.0295553
-0.0308114
0.044897
-0.0412529
-0.0390702
0.0498949
-0.0473109
-0.0476442
0.0527928
-0.046374
-0.0568105
0.0549202
-0.0398845
-0.0642289
0.056787
-0.0300968
-0.0699893
0.0592549
-0.0174498
-0.0736027
0.0600336
-0.00575173
-0.0738947
0.061302
-0.00648918
-0.0627647
0.062629
-0.00949841
-0.0615165
0.0636611
0.00160872
-0.074303
0.0623305
0.0158409
-0.0744684
0.059366
0.028225
-0.0698495
0.0566087
0.0371424
-0.062969
0.0532245
0.0375096
-0.0525049
0.0513819
0.0168392
-0.0346257
0.0546792
0.00719026
-0.0106697
0.0200996
0.00388601
-0.00108506
0.00431203
0.00347518
-0.00319656
0.00355257
0.00242416
-0.00447635
0.00545755
0.000819758
-0.00396088
0.00548716
-0.00071474
-0.00454649
0.00600178
0.000749996
-0.00414563
0.00261778
0.0016417
-0.00472776
0.00378872
-0.00113542
-0.00522668
0.00793281
0.00878087
-0.0100044
0.0145639
-0.00995413
0.00407171
0.0177607
-0.0102075
0.00689996
0.0199772
-0.00837433
0.00605474
0.0234647
-0.00907691
0.00548462
0.052832
-0.0315122
0.00194992
0.110836
-0.00166237
-0.0569046
0.136264
0.0160357
-0.0421546
0.148103
0.0236835
-0.0362897
0.153302
0.0264163
-0.0323593
0.151832
0.028746
-0.0280308
0.136382
0.0334367
-0.0186508
0.0791782
0.0483242
0.00835211
0.0364452
0.018817
0.0237391
0.0293849
0.00615093
0.000818579
0.0188966
0.0101563
0.000260079
0.00789047
0.0103006
0.000675945
0.0069488
0.00162975
-0.000700478
0.00692104
0.000607652
-0.000593557
0.00576257
0.00157877
-0.00043355
0.00260915
0.00247469
0.000667777
0.0010694
0.00125929
0.000275083
0.000435331
0.000630999
0.000269711
-0.000771057
0.000933126
5.76061e-05
-0.000612631
0.000821615
-8.82697e-05
-0.000660681
0.000803425
-0.000228224
-0.000624888
0.000761844
-0.000285556
-0.000660088
0.000714418
-0.000356041
-0.000586256
0.000653842
-0.000336372
-0.000646424
0.000623912
-0.000348934
-0.000571433
0.000581216
-0.000288065
-0.0006329
0.000569302
-0.000276016
-0.000561363
0.000546606
-0.000214343
-0.000612972
0.000548653
-0.000206626
-0.000543344
0.000532954
-0.000181935
-0.000553896
0.000526658
-0.000193971
-0.000487728
0.000497136
-0.00014913
-0.000513827
0.000466612
-1.14101e-05
-0.000479908
0.000339682
5.67116e-05
-0.000423255
0.000352802
-0.000296935
-0.000713535
0.00106188
-0.000560487
0.000866235
-0.000609281
-0.00123294
0.00133331
-0.000673629
-0.00244885
0.00539586
-0.00421578
-0.00945051
0.0246732
-0.0177987
-0.0169651
0.0300831
-0.0227447
-0.0220667
0.0404981
-0.0357174
-0.0183861
0.0449842
-0.0490089
0.0502583
-0.0568163
0.0216308
0.0739781
-0.0293024
0.0277329
0.0648924
-0.0262775
-0.0177876
0.0505736
-0.00513619
0.027149
-0.00450454
0.0330387
-0.00126937
-0.00467772
-0.000617541
0.0447371
-0.0111216
0.0646457
-0.0147566
-0.013056
0.0519864
-0.000731174
-0.0273902
0.0532736
-0.0309784
0.0762701
0.00603896
0.069199
-0.0158062
0.0161245
0.0457148
0.0238551
0.0070847
0.0153715
0.0694321
-0.00692805
-0.00939075
-0.0139296
0.0887589
-0.0175384
0.00029166
-0.00191209
0.0121341
-0.0252563
-0.0032234
0.0101132
-0.00986157
0.00184079
-0.0303172
-0.00875974
0.022233
0.00691159
0.00458036
-0.00621487
0.00610083
0.0142493
0.0217123
-0.0129317
0.0084723
0.00338548
-0.00585758
7.58336e-05
0.0157524
0.00377077
0.00317667
0.0111642
0.00131719
0.00326391
0.010153
6.37551e-05
0.000936749
-0.00892963
-0.000268289
0.0193373
-0.0187847
0.00107887
0.0042327
0.00339565
0.00525317
-0.0044224
0.00699233
-0.000336438
0.00444653
0.00260541
-0.00445944
0.00863349
0.00186755
0.0102318
0.00373989
-0.0111954
-0.000934027
-0.00515829
-0.00220944
-0.00277408
0.0289897
-0.00986715
-0.00242003
0.000875031
0.00997678
0.0041722
0.0025842
-0.0322634
0.00334036
-0.00229861
0.000706177
-0.00113122
0.00313301
-0.00425835
0.00295325
-0.00431466
0.0031647
-0.0113949
-0.0128576
0.00629449
0.0104558
0.00342922
-0.00810343
-0.0105808
0.00706917
0.0113284
-0.00291172
0.00229591
-0.0122713
0.0186675
-0.00255378
-0.0028037
-0.00275831
0.0057381
0.000640975
-0.00256685
-0.00207472
0.00179033
-0.000704173
0.000404395
0.00297475
-0.00243992
-0.00211043
0.00180939
0.0005186
0.00253991
0.00187952
-0.00248832
-0.0020481
0.000425617
-0.00254799
-0.00206463
0.00215901
0.00254361
0.00065545
-0.0026235
-0.00203393
0.00199535
0.00242937
0.000652827
-0.00230529
-0.00203838
0.00182733
0.00251617
0.00103084
-0.00256035
-0.00191716
0.00162777
0.00246901
0.000966659
-0.00233463
-0.00198695
0.00177108
0.00261206
0.00141262
-0.00288362
0.00266001
0.00179956
-0.00202444
0.00132952
-0.00270906
0.00203743
0.00308189
-0.00232977
0.00161445
-0.00268711
-0.00355747
0.00347949
0.00247742
0.00121757
-0.00367818
0.00327064
-0.00319504
0.00399659
0.00103738
-0.00454145
-0.00347146
0.00382978
0.00436026
0.000432582
-0.00441751
0.00513919
0.00368228
-0.00380211
4.60539e-05
0.00420613
-0.00487454
0.00556783
-0.00451607
6.99809e-05
-0.00191536
0.00242457
0.00180235
-0.00233678
0.00181108
-0.00111147
0.00122268
-0.00185305
0.0022777
0.0021363
0.000343079
-0.00294693
0.00209365
-0.000890247
0.000653513
0.000419824
0.00211327
-0.00163655
0.00135634
0.00025942
0.00169612
-0.0011026
0.001229
0.000289632
0.00127103
-0.000686696
0.00082331
0.000287402
0.000539495
-0.000103162
0.000400085
0.00043356
-0.000450293
0.000457434
-4.79118e-05
0.0005792
-0.00112004
0.000515084
-0.000456168
0.000609771
-0.00133554
0.000716864
-0.00104876
0.000546338
-0.00135354
0.000924041
-0.00147223
0.000565109
-0.00126345
0.00094455
-0.0015049
0.000469134
-0.00104644
0.000784686
-0.00126166
0.000258809
-0.000798957
0.000171825
-0.000377835
-4.24383e-05
-0.000330236
0.000843061
7.74108e-05
-0.00139012
-1.37716e-05
0.000355966
-0.000711921
3.8746e-05
0.000268449
0.000270394
-0.000503748
-5.03523e-05
0.00204334
-0.00169224
0.00100238
-0.000396156
-0.000706806
0.0024258
-0.00494739
0.0026531
0.00188962
-0.00621996
-0.0106854
0.00130284
0.00413623
0.00418262
0.0095986
-0.0075256
-0.000966621
-0.00613233
0.00830241
-0.00840894
-0.00355727
0.0032817
0.00108066
-0.0119648
-0.0108215
0.00778497
0.00647617
-0.0518021
-0.0313724
0.0234434
0.0413248
0.00561984
-0.0569543
-0.0285895
0.0457941
-0.0128481
-0.0569605
-0.0299209
0.0490999
-0.0199931
-0.0534814
-0.0300439
0.0504138
-0.0246778
-0.0489418
-0.0307224
0.0519579
-0.0266078
-0.0433323
-0.028914
0.0513781
-0.0288906
-0.0128654
-0.0219033
0.0460494
-0.0169492
-0.0385144
0.0160193
-0.0069567
-0.00989639
-0.0121668
0.0133549
0.0262481
-0.0103458
-0.0133683
0.0213397
0.0169747
-0.0142693
-0.0108245
0.0120864
0.034565
-0.0113338
-0.0141049
0.00501072
0.0278725
-0.00812819
-0.0127678
-0.00663427
0.038912
-0.0103713
-0.0169957
-0.0125516
0.0397927
-0.0143079
-0.0196946
-0.0076116
0.0288814
-0.0136537
-0.0203036
-0.00892753
0.0329719
-0.0130531
-0.0187566
-0.0105377
-0.00499602
-0.00729254
-0.00230751
-0.00914098
0.00584752
-0.00106768
-0.0097805
0.00637174
-0.00247116
-0.00856819
0.00444252
-0.00290978
-0.00620338
0.0028426
-0.00298119
0.00192756
-0.0026822
-0.00899524
0.00589935
0.00997584
-0.00504877
-0.00422053
0.00669881
-0.00539239
0.00644872
-0.00656418
0.00724989
-0.00666166
0.00575032
0.00776227
-0.00579144
0.00517642
0.00784373
-0.00469915
0.00451316
0.0133953
-0.0128741
0.00712793
0.0247779
-0.0338478
0.034677
-0.0395027
0.0434878
-0.0402988
0.0511101
-0.0384091
0.0545553
-0.0341196
0.0520096
-0.0267065
0.0289624
-0.00885131
0.0121245
0.00583995
0.00824541
0.000231217
0.0046016
0.00260537
0.00275303
-0.000566873
0.00238592
0.00302566
-0.00127554
0.000990533
0.00362855
-0.00157766
0.000961128
0.00352664
-0.00059702
0.0006857
0.00162874
0.00102434
0.000862617
0.000587047
0.000312895
0.00072343
0.000644178
-6.0197e-05
0.000468561
0.000196444
-2.25045e-05
0.000345519
-5.41521e-06
0.000127746
0.00048863
-8.54878e-05
-5.82647e-05
0.000743911
-7.42503e-05
-0.00018193
0.000994725
-5.23983e-05
-0.000199588
0.00126454
-0.000207367
-6.37085e-05
0.00103197
-0.00019887
0.000430418
0.00138368
-0.000180639
0.00228142
-0.000114249
0.00319427
3.04757e-05
0.00388937
0.000227693
0.00417614
0.000428852
0.00408508
0.000604879
0.00383887
0.000702388
0.00305249
0.00068198
0.0017622
0.000602343
5.30451e-05
0.000605346
-0.00181205
0.000227342
-0.00291706
0.000213997
-0.002762
-9.61428e-05
-5.99417e-05
-0.00172614
-1.69555e-05
-0.00102017
-0.00105193
3.97744e-05
-0.000715158
-0.000579861
5.57193e-05
-0.000528683
-0.000327179
8.85012e-05
-0.000341826
-0.000402606
0.000262838
-0.000188123
-0.000147845
0.000374559
-0.000647407
0.000457788
4.13225e-05
-0.000248535
0.000300493
0.000558201
0.000451156
-0.00213726
0.00061497
0.000821349
0.00112493
-0.00275142
0.000954723
0.00112123
0.00115366
-0.00249741
0.00124436
0.00122249
0.00205677
-0.00385085
0.00135306
0.00159274
0.00195325
-0.00289528
0.00143167
0.00156528
0.00431072
-0.00538579
0.00291643
0.00504012
0.00415115
0.00296309
-0.00206285
0.00400951
0.00178586
-0.000992146
0.00482143
0.00162614
-0.00108362
0.00486894
0.00239871
-0.00121893
0.00462268
0.00210943
-0.00104152
0.00415152
0.00114203
-0.000272322
0.00336089
0.000343816
0.000397334
0.00249306
-0.000308271
0.000718367
0.00168896
-0.00154461
0.00129842
0.000963284
-0.00267984
0.00193162
2.73928e-05
-0.00270957
0.00213886
-0.00107625
-0.00206994
0.00191002
-0.00111103
-0.000331158
-1.3322e-05
-0.000542776
0.0010274
-0.000753932
0.000540309
-0.000458136
0.00584417
-0.00350094
-0.00378036
-0.00170956
0.00469796
0.0058537
-0.00472077
0.00299959
0.00381282
-0.0052151
0.00228512
0.00356145
-0.0115303
-0.00874206
0.00973499
-0.00492735
-0.00934721
0.0115925
-0.00698269
0.00189673
0.00335301
0.0122141
0.0119004
-0.00641008
0.00800098
0.00170832
0.00878817
-0.0517294
0.0503089
0.0115136
0.0239148
-0.0614668
0.056046
-0.00143004
-0.0645459
0.0605513
-0.00928894
-0.0637185
0.0639969
-0.0153314
-0.0618406
0.0680749
-0.0189247
-0.058142
0.0691952
-0.022451
0.0633036
-0.0331047
0.070741
0.0825666
-0.0286253
0.0717135
0.0830906
-0.0158942
0.0719993
0.0788993
-0.0121212
0.070749
0.0727423
-0.00849464
0.0656908
0.0675461
-0.00293515
0.0511258
0.0639491
0.00565034
-0.00660332
0.00493155
0.0632865
0.0387851
-0.0124863
-0.00501724
0.00833791
0.00244095
-0.00148013
0.00837932
0.00218688
-0.00677364
-0.00362269
0.00664914
-0.00154161
0.0072495
-0.0102905
-0.00993574
0.0092329
-0.00704567
-0.0115368
-0.0107331
0.00739496
0.00756315
-0.00961612
-0.00610227
0.00108642
-0.00839547
0.00197797
-0.00985023
-0.00612795
0.00284205
-0.00383027
-0.0071465
-0.00531805
0.00292578
0.00351683
-0.00504609
-0.00343354
0.0011287
0.00213984
-0.00414927
0.00174234
-0.00186569
0.00196174
-0.00378826
-0.00342381
0.00327275
-0.00551647
-0.00313026
0.00214601
-0.0076342
-0.00309344
0.0025283
-0.00939406
-0.00224727
0.00245956
-0.0103022
-0.00178685
0.00238371
-0.0117568
-0.00102562
0.00282108
-0.0119211
-0.000485391
0.00178875
-0.011257
0.000983007
0.000459259
-0.0103483
0.00186312
-0.000375993
-0.0093012
0.0029705
-0.00239514
-0.00903454
0.00273963
-0.0012235
0.0102525
0.0061429
-0.0162559
-0.00118731
0.00953337
0.00321441
0.000240815
0.0112905
0.00265
-0.00144021
0.012519
0.00079867
-0.000167121
0.0126593
-0.000301392
0.00114098
0.0116894
-0.00114531
0.00162681
0.0108781
-0.00195293
0.00173585
0.00999347
-0.0027321
0.00182704
0.00911025
-0.00327721
0.00191021
0.00755882
-0.00348838
0.00194321
0.00619341
-0.00345009
0.0016822
-0.00395817
0.00257492
-0.00713521
-0.00400974
0.00213701
-0.0081961
-0.00494557
0.00255286
-0.00911485
-0.00445636
0.00188355
-0.0100516
-0.00419621
0.00185276
-0.0110287
-0.00357681
0.00181882
-0.0116415
-0.00293355
0.00159047
-0.0121861
-0.0016417
0.00103794
-0.0125925
-0.000185174
0.000286964
-0.0118622
0.00137419
-0.00130929
-0.00979191
0.00140159
-0.000825549
-0.00940597
0.00214318
0.000681455
0.0119264
0.0029763
-0.018956
0.000772361
0.00912064
0.00457233
0.000372651
0.0130695
-0.0017497
-0.000801453
0.0117652
0.00355577
-0.00088137
0.0160942
-0.00363862
-0.000879613
0.0125365
0.00158601
0.000325841
0.015476
-0.00577937
-9.78265e-05
0.0113656
-0.000683539
0.00121297
0.0133153
-0.0069778
0.000827694
0.00889095
-0.00207876
0.00204271
0.00879626
-0.00679899
0.00194408
0.00550684
-0.00244215
0.00171791
-0.00583853
0.000761394
0.0113008
-0.00825324
-0.014354
0.00300859
0.0111484
-0.00706747
0.00188514
-0.00655693
0.00194166
0.010639
-0.00640311
-0.0121443
0.00133196
-0.00751995
0.000497076
0.009405
-0.00551392
-0.0113944
-3.94522e-05
0.0148807
-0.00852643
-0.0149666
0.00718339
-0.00886541
0.00693781
0.0103001
-0.0075158
-0.0169762
0.00523749
-0.00317881
0.00476836
0.00259072
0.000598221
-0.00857082
0.0021573
0.0113101
0.00445517
-0.003972
0.0164017
-0.000615965
0.00499294
-0.0208096
0.0028092
0.00891772
-0.0135298
0.00236658
0.00908331
-0.00633352
-0.0206161
0.00425838
-0.0228747
0.00636707
0.00917862
0.00177906
-0.0289795
-0.0101302
0.00518133
-0.0116328
0.000308243
0.00577201
-0.0173076
0.00165978
-0.0131526
0.00110715
0.00669096
-0.0153031
-0.00612116
0.00156156
-0.0142018
0.00166276
-0.0171097
-0.00728151
0.00191817
0.00839879
-0.0205364
-0.00705205
0.00206222
-0.0187017
0.00385289
-0.0220059
-0.00687511
0.00250223
-0.0227801
-0.003928
0.000493165
-0.021136
-0.000690781
-0.00105204
-0.0194637
0.00208521
-0.000952
-0.0188936
0.00355543
-0.00116596
-0.00489123
0.00416743
-0.017427
-0.0007624
-0.00630482
-0.0167013
-0.000861014
-0.00736828
-0.0151266
-8.53028e-05
-0.00576648
-0.0116597
0.00175885
-0.00388251
-0.0093222
0.00107459
-0.00694148
0.000630527
-0.0093632
0.00428604
-0.000302669
-0.00671159
-0.0014125
-0.000646756
-0.00476796
-0.000317928
0.00552653
-2.06094e-06
0.0151494
0.00985851
-0.0310562
0.0105605
-0.000509155
-0.00449919
0.00689798
0.00106869
0.000305069
-0.00428682
0.00463891
-0.00798249
0.00911327
-0.00119645
-0.00170032
0.00645524
-0.00132861
-0.00803411
-0.00113754
0.00536135
-0.00637262
-0.00185863
0.00570687
0.00188345
-0.00688586
-0.00228572
0.0056306
-0.00703045
0.00180936
-0.00246731
0.0055185
-0.00705803
0.00170314
-0.00243771
0.00538748
-0.00698375
0.00154858
-0.00230948
0.00527514
-0.00689521
0.00147378
-0.00223945
0.00511483
-0.00666201
0.00145908
-0.00221293
0.00503953
-0.00651285
0.00142879
-0.00209958
0.00469169
-0.00613255
0.0013102
-0.00197985
0.00400936
-0.00486833
0.000723739
-0.00177207
0.00511445
-0.00756868
0.0022228
-0.0116434
0.00354448
-0.0253566
0.0137037
-0.0219523
-0.0240649
0.0114652
-0.0279517
0.0055148
-0.0763189
0.0404002
-0.0183181
-0.0870782
0.0278609
-0.0915144
0.0232865
-0.119816
0.0196762
0.0130388
-0.133308
0.0147406
0.00358525
-0.140808
0.0136118
-0.0030271
-0.143881
0.0135309
-0.00818768
-0.142531
0.0143319
-0.0137121
-0.135374
0.0171464
-0.022274
-0.121187
0.0203435
-0.0347245
-0.0489117
-0.0436716
0.021997
-0.0665406
-0.00566595
0.00882619
-0.0306951
-0.0215941
-0.018539
-0.00634102
-0.0175472
-0.00242597
-0.0145456
0.00816794
-0.00946136
-0.00576483
0.00402659
-0.010806
-0.000896462
0.00169918
-0.00586606
0.000883638
-0.00304441
0.00507967
0.00271841
-0.00702402
0.00853928
0.00271462
-0.0062981
0.0109591
0.00228841
-0.00484462
0.0181442
0.0051737
-0.0125391
0.0333168
0.0182577
-0.0337156
0.0296669
0.034317
-0.0309561
0.0251351
0.0226732
-0.0183276
0.0230038
0.0165679
-0.0145853
0.0198939
0.0142927
-0.0113188
0.0161975
0.01272
-0.00914076
0.00997988
-0.00388487
-0.0150819
0.014924
8.54613e-05
-0.0185247
-0.00291494
0.018963
-0.0208224
0.020705
-0.00424172
-0.021418
0.0226007
-0.00557193
-0.0150651
0.023056
-0.00687466
-0.0532084
0.0378819
0.0607977
-0.0268158
-0.0197271
-0.0192512
-0.047114
0.0505444
-0.0175571
-0.00860698
0.0278146
-0.0215687
-0.0141586
-0.0086335
0.0212466
-0.0161917
-0.00887819
-0.00843525
0.0200065
-0.0170234
-0.00757137
0.0178399
-0.015275
0.00517877
-0.00844574
0.0088158
-0.00948301
0.0111428
-0.00880545
-0.0116803
-0.003611
-0.00281954
-0.00291256
-0.0023471
-0.001176
-0.00142338
-0.00101409
-0.00203523
0.00188379
-0.0010277
0.00261108
-0.00298877
-0.00166198
0.00270754
-0.00152316
-0.00471989
0.000317137
0.00427925
0.00324898
0.00527402
-0.0162456
0.00264791
-0.000438992
-0.00877332
0.0034809
-0.00470515
-0.00191495
-0.00691773
4.27487e-05
0.0278596
-0.0119146
-0.0126592
-0.00530986
0.0050297
0.0161237
0.00666473
0.0390331
0.00710948
-0.0411827
0.011723
-0.00137253
0.0286042
-0.0192822
-0.00276732
0.000276147
-0.00737172
0.00810426
-0.000467227
0.00203961
-0.00276164
0.0164977
-0.0073773
0.00506595
0.0100345
0.0103871
-0.0105039
-0.0109381
-0.00677433
-0.00859114
0.00778451
-0.0104809
-0.00231536
-0.00552266
-0.0330261
-0.0187048
0.0429454
0.00544975
0.000714223
-0.00178714
-0.0736936
0.0342169
-0.00817243
-0.0203411
0.00678062
-0.0195326
0.0041265
0.0030394
-0.000390207
0.00313543
-0.00132837
-0.00276759
-0.000875048
-0.000199702
-0.00220801
0.0015665
0.00267233
0.00165813
-0.0305017
0.0160297
-0.0117091
-0.00972294
-0.0106394
0.0746084
0.0501462
0.0353972
-0.0165799
-0.0152918
-0.0144698
0.0240928
0.0288819