/*--------------------------------*- C++ -*----------------------------------*\
| =========                 |                                                 |
| \\      /  F ield         | OpenFOAM: The Open Source CFD Toolbox           |
|  \\    /   O peration     | Version:  v2012                                 |
|   \\  /    A nd           | Website:  www.openfoam.com                      |
|    \\/     M anipulation  |                                                 |
\*---------------------------------------------------------------------------*/
FoamFile
{
    version     2.0;
    format      ascii;
    class       volScalarField;
    location    "810";
    object      alphat;
}
// * * * * * * * * * * * * * * * * * * * * * * * * * * * * * * * * * * * * * //

dimensions      [1 -1 -1 0 0 0 0];


internalField   nonuniform List<scalar> 
18258
(
0.00484228
0.00210624
0.00172421
0.00149318
0.000990955
0.00162072
0.00225132
0.00268067
0.00281298
0.00278996
0.00288956
0.00487692
0.00684495
0.00846063
0.00888794
0.00887303
0.00805543
0.00769282
0.00835009
0.01027
0.00863972
0.00553339
0.00663165
0.0076613
0.00832893
0.0073733
0.00596088
0.00552148
0.00499888
0.00416596
0.00349131
0.00237786
0.00175446
0.00162732
0.00147392
0.00167945
0.00182844
0.0019486
0.00199267
0.00202412
0.0020103
0.00199889
0.00194493
0.00191221
0.0018562
0.00153674
0.00186629
0.0019026
0.00208249
0.00288203
0.00309846
0.00260691
0.00288544
0.00257398
0.00169627
0.00194153
0.0021075
0.00215296
0.00212528
0.00203706
0.00200732
0.00198214
0.00195023
0.00191235
0.00188929
0.00190828
0.00192816
0.00190735
0.00181379
0.00173806
0.00161542
0.00149245
0.00140132
0.00133073
0.00127749
0.00121825
0.00115168
0.00101163
0.00093761
0.00124142
0.0015585
0.00166528
0.00236039
0.00287786
0.0028974
0.00216934
0.0015462
0.00160477
0.00178368
0.00180107
0.00152578
0.00181307
0.00205301
0.00212775
0.00221718
0.00247855
0.0028235
0.00275305
0.00245195
0.00225995
0.00220466
0.00253037
0.0024082
0.00312375
0.00314419
0.00273817
0.00253785
0.00285509
0.00368295
0.00395956
0.00307392
0.00288791
0.00283146
0.00279452
0.00252851
0.00261826
0.00237876
0.00214351
0.00233563
0.00282095
0.00267531
0.00292122
0.00302752
0.00284067
0.00329172
0.00379592
0.00374191
0.00299443
0.00244281
0.00227714
0.00229432
0.00140322
0.00151525
0.00163187
0.00167187
0.00170011
0.00172398
0.00183767
0.00183351
0.00180646
0.00180247
0.00183377
0.0010107
0.00109506
0.00112236
0.00113024
0.00107388
0.00106276
0.00104282
0.00102666
0.000968569
0.000926855
0.00110888
0.00124504
0.00135599
0.00148582
0.00167924
0.00191589
0.00216464
0.00241605
0.00258233
0.00262969
0.00267747
0.00258039
0.00248253
0.00257092
0.00258574
0.00256895
0.00253436
0.00249072
0.00243181
0.00232381
0.00244843
0.00244131
0.00229328
0.00196564
0.00200932
0.00200567
0.00205785
0.0020475
0.0020684
0.00203945
0.00200546
0.0019093
0.0017749
0.00147734
0.00143886
0.0014572
0.00187163
0.00227248
0.00351061
0.00428316
0.00497391
0.00532346
0.00569829
0.00460894
0.00512927
0.00395261
0.00354857
0.00451043
0.00590106
0.00336662
0.00183741
0.00348515
0.00309043
0.00224084
0.00199441
0.00205493
0.0020596
0.00236778
0.00272969
0.00302858
0.0031733
0.00330117
0.00340329
0.00351607
0.0036591
0.00369866
0.00357355
0.00302542
0.00364547
0.00295996
0.00345711
0.00312227
0.00210548
0.00223546
0.00236819
0.0021663
0.00210667
0.00201792
0.00181538
0.0022322
0.00289382
0.00335938
0.00384065
0.0051204
0.00473729
0.0045432
0.00351836
0.00340206
0.00176628
0.00251962
0.00261069
0.00293415
0.00195142
0.00177916
0.00168765
0.00224103
0.00259684
0.00306416
0.00339756
0.00403573
0.00312767
0.00357219
0.00323194
0.00225083
0.00216779
0.00310602
0.00334591
0.00275126
0.00246229
0.00308884
0.00292266
0.00207282
0.00166194
0.00255198
0.00264313
0.00189434
0.00470196
0.00500556
0.00477608
0.00582776
0.00730342
0.00833237
0.00775532
0.00688067
0.00768457
0.0060995
0.00590491
0.00629952
0.00528988
0.00370812
0.00380184
0.00393233
0.00403957
0.0043375
0.00460787
0.00493771
0.00525161
0.00477325
0.00396321
0.00299906
0.00206226
0.0020332
0.0020225
0.00181621
0.00269191
0.00407488
0.00404883
0.00230215
0.00134137
0.00151593
0.00171128
0.00169433
0.00123012
0.000925519
0.00159423
0.00182317
0.0018528
0.00180693
0.00170614
0.00178296
0.00286337
0.00441128
0.00484717
0.00502049
0.00518456
0.00530055
0.00536526
0.005386
0.00539767
0.00541186
0.00542426
0.00544296
0.00542604
0.00531032
0.00467058
0.00293601
0.00171598
0.00159392
0.00175913
0.00189054
0.00200521
0.00170606
0.00104324
0.00166635
0.0021338
0.00245283
0.00247387
0.0023089
0.0022399
0.00353211
0.00469638
0.0055358
0.00570586
0.00578159
0.00571814
0.00570985
0.00558512
0.00554602
0.00486282
0.0034788
0.00380338
0.00408343
0.00412997
0.00422514
0.00436821
0.00426662
0.00403057
0.00589221
0.00679863
0.00688545
0.00703204
0.00694901
0.00682909
0.00651891
0.00616449
0.00518966
0.00389188
0.00245564
0.00250693
0.00266882
0.00264334
0.00230112
0.00242453
0.00263118
0.00265756
0.00274467
0.00307787
0.00349603
0.00333527
0.00287061
0.00243751
0.00226957
0.00222162
0.00213137
0.00159601
0.00162002
0.00157503
0.00160115
0.00215147
0.00256073
0.00295307
0.00418799
0.00373599
0.00303835
0.00481669
0.00493521
0.00530185
0.00585756
0.00600287
0.00665084
0.00462979
0.00417287
0.0042863
0.00350116
0.00324084
0.00327535
0.00328769
0.00306437
0.00335378
0.00332413
0.00320393
0.0035373
0.00389777
0.0051397
0.00622786
0.00657119
0.00676968
0.00685082
0.00682484
0.00669169
0.00673384
0.00591449
0.00590851
0.00565905
0.00549719
0.00544051
0.0051718
0.00591993
0.00614467
0.0062189
0.00637316
0.00661425
0.0064351
0.0062359
0.00608459
0.00597528
0.00586091
0.00592322
0.00603238
0.00614892
0.00631303
0.00653266
0.00656957
0.00634182
0.00616996
0.00605268
0.00594265
0.00594715
0.00604524
0.00615984
0.00632277
0.00653114
0.00641535
0.00625346
0.00610943
0.00599146
0.00588777
0.00568178
0.00581831
0.00596862
0.00609245
0.00617267
0.00533333
0.00570113
0.00560337
0.00507348
0.00474894
0.00360636
0.00390282
0.00411535
0.00448234
0.00497524
0.00507176
0.00425575
0.00364702
0.00355377
0.0035251
0.00360825
0.00363813
0.00365584
0.00413091
0.00622248
0.0062654
0.00628263
0.00628464
0.0053748
0.00522317
0.00486671
0.00889469
0.00828094
0.00717401
0.00591446
0.003171
0.00271813
0.00321998
0.00391583
0.00437794
0.00483204
0.00320768
0.00198676
0.00231529
0.00240059
0.002342
0.00216492
0.00180353
0.00166484
0.00151107
0.00162623
0.00287993
0.00459639
0.00517797
0.00523351
0.00518219
0.00508204
0.00496046
0.00479109
0.00472048
0.00593437
0.0080082
0.00907826
0.00904676
0.0077724
0.00632615
0.00355815
0.0018189
0.00131746
0.0014575
0.00159923
0.00188308
0.00168346
0.00139062
0.00152295
0.00145197
0.00294719
0.00510066
0.00652254
0.00773828
0.00760275
0.00659557
0.00541333
0.00514091
0.00526187
0.00534127
0.0054099
0.00548039
0.0055286
0.00549732
0.00500301
0.00309028
0.00184474
0.00163906
0.00176243
0.00206552
0.00219471
0.00221705
0.00218625
0.00189536
0.00313483
0.00497871
0.00316605
0.00172724
0.00186617
0.00185253
0.00326805
0.00326319
0.00319296
0.00496839
0.00525364
0.0052406
0.00492355
0.00470005
0.00278223
0.00315745
0.00316802
0.00318492
0.00323728
0.00163498
0.00178208
0.00183743
0.00197771
0.00172984
0.00219814
0.000568818
0.000788032
0.000915574
0.000995539
0.00107256
0.00105219
0.00201256
0.00204168
0.00194847
0.00189723
0.00240869
0.00258506
0.00264231
0.00243391
0.00224599
0.00239075
0.00239586
0.00225765
0.00213867
0.00221768
0.00221932
0.00212677
0.00180894
0.00169508
0.00186095
0.00184086
0.00182601
0.00327965
0.00327409
0.00309859
0.00509189
0.00500967
0.00561158
0.00557515
0.00556852
0.00554575
0.00560563
0.00563684
0.00566047
0.00568812
0.00567726
0.0056223
0.00782374
0.00553088
0.00482613
0.00279064
0.00268793
0.00189815
0.00166353
0.00195882
0.00209501
0.00227124
0.00221981
0.00234033
0.00233748
0.00248039
0.00230235
0.00204447
0.00313151
0.00334556
0.00326778
0.00333258
0.00325432
0.00323531
0.00321142
0.00316559
0.0031104
0.00185183
0.00181637
0.00212694
0.00223264
0.00239895
0.0024208
0.00247328
0.00234579
0.00206319
0.00199723
0.00229999
0.00226905
0.002313
0.00218081
0.00217194
0.00193506
0.00198402
0.00400131
0.00738669
0.00380124
0.0042222
0.00382512
0.00435044
0.00381043
0.00328625
0.00336315
0.00296233
0.00308997
0.00324114
0.00329968
0.00346782
0.00408761
0.00393546
0.00345455
0.0033544
0.0032884
0.00310063
0.00279086
0.00292357
0.00294989
0.00301313
0.00334878
0.0038408
0.00430517
0.00523016
0.00507509
0.00444684
0.0040653
0.00426217
0.00433684
0.00545853
0.00509875
0.00506955
0.0053487
0.00529662
0.00502697
0.00476362
0.00459815
0.00394809
0.0040133
0.00459341
0.00444442
0.00457962
0.00449887
0.00467645
0.00475967
0.0045684
0.00424659
0.00446386
0.004455
0.00494708
0.00481198
0.00446375
0.00408444
0.00436522
0.0043122
0.00498072
0.00468935
0.00438634
0.00403742
0.00386733
0.00438853
0.00430861
0.00488533
0.00502637
0.00502859
0.00438431
0.0042829
0.00509272
0.00490033
0.00473285
0.00492921
0.00408254
0.00419929
0.00517259
0.00528087
0.00500961
0.00418261
0.004247
0.00364199
0.00428198
0.00532939
0.00503238
0.00412483
0.00342351
0.00478976
0.00504074
0.00533223
0.00503965
0.0054898
0.005915
0.00482146
0.00524599
0.00685495
0.00523423
0.00607424
0.00620892
0.00624552
0.00624868
0.00627267
0.00630366
0.00664045
0.0064581
0.00410726
0.00491219
0.00477226
0.00399178
0.00339438
0.00373867
0.00402628
0.00408411
0.00418749
0.00434674
0.00427194
0.00412929
0.00604603
0.00690105
0.0070496
0.0071892
0.00707158
0.00689845
0.00649738
0.00600597
0.00498593
0.00371812
0.00232026
0.00236463
0.00251936
0.00249458
0.00216334
0.00163232
0.00107268
0.00159246
0.00164729
0.0015521
0.00141543
0.00125025
0.00129472
0.00236044
0.00461261
0.00630025
0.00694423
0.00746843
0.00803027
0.00858223
0.00900605
0.00931248
0.00951698
0.00963941
0.0096611
0.00946546
0.00859149
0.00820898
0.0077366
0.00735072
0.00682017
0.00641092
0.00724587
0.00796059
0.00840292
0.00890004
0.00913088
0.00903561
0.00785201
0.00761249
0.00875533
0.0107874
0.00916755
0.0115213
0.0135545
0.010552
0.00948877
0.00948548
0.0105996
0.010804
0.0104168
0.00981395
0.00912282
0.00825181
0.00867973
0.00906974
0.00944695
0.00979346
0.0107647
0.0109414
0.0108643
0.0107023
0.0104805
0.0101536
0.00963742
0.00893065
0.00815079
0.0073904
0.0065057
0.00466402
0.00219508
0.0024827
0.00243631
0.0026275
0.00255883
0.00117728
0.00129925
0.00131632
0.00132579
0.00125276
0.00142553
0.00206332
0.00336122
0.00241668
0.00198805
0.00137084
0.00161147
0.00269354
0.0045801
0.00517564
0.00527449
0.00533519
0.00674595
0.00788885
0.00840697
0.00879655
0.00908834
0.00897141
0.00867177
0.00814183
0.00748405
0.00723742
0.00683676
0.00648359
0.00629409
0.00609855
0.00572413
0.00449538
0.00431068
0.00449287
0.00443917
0.00424957
0.00454157
0.00470635
0.00470293
0.00475571
0.00480193
0.00494429
0.00511179
0.00525765
0.00533444
0.00536326
0.00537267
0.00538417
0.0053933
0.0054101
0.00539198
0.005274
0.00463088
0.00289511
0.00168947
0.00156147
0.00171198
0.0018103
0.00185221
0.00164456
0.00105864
0.00164512
0.00212946
0.0021844
0.00239733
0.00247376
0.00262387
0.00292282
0.0033772
0.00348453
0.0030916
0.00292775
0.0028649
0.00279224
0.00238522
0.00297365
0.00328282
0.00327689
0.00324649
0.00350941
0.00431946
0.00414843
0.00365762
0.00361611
0.00357923
0.00323464
0.00318589
0.00348282
0.00352157
0.00365391
0.00428519
0.00514014
0.00476767
0.00434185
0.00416147
0.00384253
0.00338123
0.00305615
0.00376018
0.00308871
0.00162209
0.00137509
0.00137281
0.00137712
0.00132798
0.00157462
0.0016571
0.00168014
0.00156445
0.00173624
0.00193282
0.00187249
0.00211627
0.00208757
0.001868
0.00184961
0.0020038
0.00211774
0.00217454
0.00222975
0.00365618
0.00377369
0.00292237
0.00423562
0.00488105
0.0048486
0.00514385
0.00422765
0.00378983
0.00450042
0.00520349
0.00597474
0.00471688
0.00446051
0.00456518
0.00209309
0.00110139
0.00155389
0.00192952
0.00215118
0.00208786
0.00197324
0.00166935
0.00296621
0.00304594
0.00483987
0.00542987
0.00550085
0.00546572
0.00546551
0.00594096
0.00682244
0.00783219
0.00815741
0.00804482
0.00768249
0.0070054
0.00633094
0.00629705
0.00608666
0.00593158
0.00588863
0.0051181
0.0045136
0.00483503
0.00475758
0.00491897
0.00499468
0.00504978
0.00510595
0.00519931
0.00531195
0.00541483
0.00548528
0.00553239
0.00557192
0.00561204
0.00565212
0.00569529
0.00571858
0.00566434
0.00511904
0.00306858
0.00182846
0.00166739
0.00177905
0.00209106
0.00220181
0.00236629
0.00210031
0.00110602
0.00130054
0.00226013
0.00250781
0.00232073
0.00217189
0.00213309
0.00178686
0.00323979
0.00319821
0.00502439
0.00565178
0.00573133
0.00571556
0.00567126
0.00562065
0.00557031
0.00552877
0.00549525
0.00545991
0.00541069
0.00535151
0.00529653
0.00524019
0.00514459
0.00500962
0.00485243
0.00504557
0.00522318
0.00545127
0.00569314
0.00580991
0.00570362
0.00554864
0.00548575
0.00552509
0.00557544
0.0056266
0.0056725
0.00569594
0.0056318
0.00530653
0.00497638
0.00314981
0.00319141
0.00156823
0.00174187
0.0020099
0.0020758
0.00225417
0.0022426
0.00176188
0.00137358
0.00155019
0.00144949
0.00259062
0.00284943
0.00316119
0.00313037
0.00169846
0.00174227
0.00181053
0.00204171
0.00189783
0.00183487
0.00454584
0.00435193
0.00455327
0.00558697
0.00481304
0.00332135
0.00363851
0.00506315
0.00534084
0.00322754
0.00242025
0.00268423
0.00340028
0.00500652
0.00506963
0.00481762
0.00479066
0.00349522
0.0042981
0.00517535
0.00503423
0.00392154
0.00270143
0.00201198
0.000976467
0.0018572
0.00158763
0.00389631
0.00431302
0.00426384
0.00466329
0.00495454
0.00500509
0.00486361
0.00431144
0.00439771
0.00444163
0.0050627
0.00508582
0.00430296
0.00362907
0.00294552
0.00297236
0.0030304
0.00335832
0.00420491
0.00396179
0.00347233
0.00336679
0.00329382
0.00309776
0.00279513
0.00245129
0.00246854
0.00229787
0.00222398
0.00350607
0.0046673
0.0055041
0.0056624
0.0057197
0.00563188
0.00559196
0.00543199
0.00534924
0.0046472
0.00593588
0.0062736
0.00605376
0.00609849
0.00613656
0.00618342
0.0061845
0.00606827
0.0052138
0.00311324
0.00203337
0.00229505
0.00247695
0.0023256
0.00231271
0.00246527
0.00233957
0.00205515
0.00332985
0.0032549
0.00520504
0.00589542
0.00602161
0.00602877
0.00600467
0.0059848
0.00599276
0.00630809
0.00616461
0.0062472
0.00657701
0.00658793
0.00666915
0.00626238
0.00618327
0.0061327
0.00609875
0.00604322
0.0058947
0.00521614
0.00505744
0.00574358
0.00592059
0.00599896
0.00605302
0.00611743
0.00620192
0.00644684
0.00662827
0.00669774
0.00643065
0.00633229
0.00618542
0.0059762
0.00592624
0.00591593
0.00591071
0.00588189
0.00572935
0.00504285
0.00324216
0.00332204
0.00197612
0.00198883
0.00229057
0.00240552
0.00236233
0.00218749
0.00213267
0.00367963
0.00418797
0.00445308
0.00480021
0.00458519
0.0045597
0.00521179
0.00504303
0.00449353
0.00467716
0.00419513
0.00399477
0.00386803
0.00389099
0.00203914
0.00220056
0.0022956
0.0022578
0.00215901
0.00192587
0.00176609
0.00322348
0.00319994
0.0031587
0.00187772
0.0018364
0.00216347
0.00210081
0.00192163
0.00163806
0.00179596
0.00277439
0.00310321
0.0048126
0.00498526
0.00533537
0.0057058
0.00584638
0.00588507
0.00590903
0.00593569
0.00599239
0.00605885
0.00607732
0.00607341
0.00611787
0.00610696
0.00610891
0.00607767
0.00604159
0.00599918
0.00595354
0.00587789
0.00572142
0.00534617
0.00497807
0.00561266
0.0056646
0.00577015
0.00587895
0.00592487
0.00593147
0.00590915
0.00586533
0.00581345
0.00575404
0.00575321
0.00592619
0.00596823
0.00599805
0.00597977
0.00595811
0.00595012
0.00592251
0.005879
0.00576988
0.00566061
0.00561452
0.00552063
0.00566805
0.0057335
0.00574311
0.00579875
0.00588812
0.00591493
0.00591555
0.00587276
0.00583629
0.00578835
0.00570941
0.00560434
0.00525723
0.00532719
0.00541928
0.00553997
0.00565644
0.00575074
0.00580424
0.00580907
0.00575663
0.00572127
0.00572273
0.0056741
0.00569923
0.00572507
0.00569549
0.00569113
0.0056939
0.00562698
0.00550685
0.00534039
0.00516492
0.00502107
0.00494988
0.00483225
0.00522148
0.00537532
0.00551157
0.00563153
0.00573872
0.00584515
0.0058759
0.00586198
0.00579603
0.0057585
0.00575695
0.00570149
0.00569863
0.00575216
0.00575426
0.00578532
0.00584126
0.0058276
0.00575157
0.00555038
0.00535377
0.00518187
0.00501626
0.00483909
0.00480223
0.00488108
0.00481088
0.00487293
0.00504037
0.00525317
0.0054384
0.00555874
0.00559815
0.00563459
0.00568694
0.00568185
0.00565066
0.00563291
0.00556214
0.00550004
0.00542422
0.00526127
0.00505579
0.00487678
0.00482363
0.00492408
0.00502026
0.00492873
0.00457261
0.00475676
0.00493272
0.00510602
0.00535025
0.00563032
0.00574979
0.00579217
0.0057637
0.00574155
0.00573861
0.0056879
0.00566984
0.00571663
0.00572063
0.00574321
0.00577931
0.00574664
0.00565023
0.00530805
0.00489639
0.00469776
0.00457916
0.00442347
0.00495331
0.00505721
0.00493373
0.00484996
0.00497986
0.00512919
0.00528448
0.00538852
0.00543111
0.00549149
0.0055707
0.0056093
0.00555339
0.00548764
0.00540711
0.00536577
0.0053659
0.00534189
0.00524307
0.00512429
0.00498364
0.00515086
0.00524819
0.00515365
0.00466528
0.00474276
0.00486413
0.00493611
0.00532312
0.00565469
0.00572799
0.00572715
0.00568997
0.0056659
0.00566604
0.00563629
0.00558075
0.00557118
0.00556714
0.00563437
0.00572297
0.00577811
0.00580789
0.00556139
0.00509909
0.00501593
0.00479912
0.0047007
0.00522314
0.00528198
0.00516078
0.0050488
0.0052948
0.00539847
0.00542542
0.00540128
0.00534291
0.00530527
0.00537404
0.00548264
0.00540072
0.00504919
0.00473745
0.00489823
0.00493917
0.00492887
0.00486326
0.00475106
0.00450538
0.00503184
0.00554443
0.00558545
0.00503804
0.00504658
0.00489357
0.00456081
0.00500997
0.00524245
0.00529065
0.00526452
0.00517916
0.00497991
0.00525921
0.0055054
0.0054579
0.00494098
0.00320693
0.00325087
0.0032738
0.00327642
0.00323374
0.00322185
0.0031751
0.00315092
0.00307808
0.00300385
0.0029332
0.00312839
0.00329619
0.00352164
0.00354062
0.003634
0.0034782
0.00329242
0.00307479
0.00239389
0.00303775
0.00362431
0.00385169
0.00414301
0.00420263
0.00484531
0.00509643
0.00523017
0.00512677
0.00411252
0.003488
0.00278706
0.00181253
0.00112934
0.00132543
0.0013784
0.00144658
0.00176843
0.00328644
0.00167244
0.00232273
0.00181464
0.0031299
0.00164209
0.00102693
0.000679598
0.000863003
0.00102047
0.00102833
0.000987667
0.000824081
0.000648825
0.000663263
0.000620122
0.000659137
0.000596112
0.000683361
0.000640011
0.000894161
0.00134491
0.00152583
0.00155952
0.00126043
0.00142124
0.00118738
0.00136939
0.00122271
0.00133269
0.00127829
0.00156352
0.00171355
0.00164073
0.00164547
0.00143996
0.00100711
0.00116731
0.000916954
0.00110087
0.000842238
0.0010876
0.00093258
0.00121175
0.0012492
0.00124568
0.00119952
0.000916559
0.00108733
0.000855889
0.00104718
0.000856562
0.00090896
0.000756082
0.00109459
0.00111399
0.00102633
0.00109044
0.00122442
0.00131483
0.00145243
0.00137845
0.00157609
0.00152643
0.00155392
0.00147135
0.00142966
0.00139673
0.0013993
0.00137617
0.00138366
0.00142823
0.00143046
0.00143616
0.0014818
0.0014604
0.0014256
0.00140473
0.00124791
0.0010068
0.00175375
0.00180861
0.00183521
0.00183461
0.00179272
0.00177282
0.00171163
0.00169542
0.00164206
0.00161073
0.00153932
0.00148064
0.00141377
0.00158938
0.000889432
0.00100992
0.00106627
0.00109795
0.00112013
0.00113034
0.00113868
0.00113239
0.00111842
0.0010907
0.00108115
0.00105097
0.00134484
0.00152971
0.00159871
0.00161689
0.00151531
0.00144274
0.00315232
0.00381531
0.00580505
0.0059336
0.00445317
0.00444024
0.00153825
0.00162212
0.00110904
0.00155849
0.00160701
0.0015908
0.00150308
0.0010845
0.00162827
0.00113436
0.00152916
0.00114473
0.00141607
0.00116048
0.00164438
0.00209233
0.00201498
0.00182188
0.00123532
0.00102562
0.00102095
0.000874677
0.000960228
0.000797744
0.000984637
0.000836732
0.00124876
0.00178135
0.00197039
0.00200979
0.00158456
0.00218606
0.00164352
0.00237936
0.00188847
0.00232878
0.00186867
0.00216326
0.0026767
0.00268872
0.002625
0.00211571
0.00169582
0.00190317
0.00168605
0.00194149
0.00280656
0.00183916
0.00278912
0.00115251
0.00157084
0.0016191
0.00159694
0.00150586
0.00101487
0.0025861
0.00136759
0.00243779
0.00157753
0.00253319
0.00183277
0.00241973
0.0028906
0.00301524
0.00299788
0.00244516
0.00219707
0.0022609
0.00180419
0.00216512
0.00162185
0.00235959
0.00134926
0.0017575
0.00194722
0.00205024
0.00205867
0.00169236
0.00334131
0.00209768
0.00316634
0.0022013
0.00282049
0.00226057
0.00247362
0.00292124
0.00290336
0.00287929
0.0024417
0.00197537
0.00260707
0.00185998
0.0553282
0.127947
0.0509029
0.129349
0.0585873
0.0831614
0.0819484
0.0821221
0.0824225
0.0618773
0.134983
0.159495
0.16634
0.16836
0.167098
0.270026
0.220154
0.330776
0.214385
0.126086
0.0546076
0.0753256
0.194568
0.321437
0.482414
0.612195
0.417186
0.431854
0.275582
0.271714
0.255776
0.206848
0.126695
0.0635068
0.0109188
0.0119608
0.0170923
0.0227298
0.0178819
0.0109577
0.00216771
0.00223776
0.00228932
0.00232234
0.00231628
0.00226927
0.0023072
0.00218044
0.00205204
0.00229737
0.00250485
0.00267486
0.0031557
0.00348811
0.00314436
0.00344582
0.00365141
0.00381942
0.00395886
0.0041661
0.00439908
0.0046029
0.00461328
0.00422633
0.00360153
0.00292818
0.00245941
0.00232948
0.00218729
0.00192882
0.00176427
0.0016513
0.00159731
0.0015752
0.00161913
0.00176988
0.00190097
0.00194698
0.00190902
0.00187406
0.00184358
0.00164168
0.00191958
0.00263315
0.00265324
0.00454572
0.00523793
0.00534702
0.00535472
0.00474566
0.00303134
0.00303815
0.0030538
0.0031124
0.00312485
0.00313381
0.00313087
0.00312108
0.0031031
0.00307001
0.00305306
0.00300345
0.0029614
0.0028555
0.00286012
0.00289613
0.002925
0.00287649
0.00288772
0.00282786
0.00369802
0.0049343
0.00555333
0.00580288
0.00601858
0.00584142
0.00809798
0.00693419
0.00486848
0.00478544
0.00472614
0.00560706
0.00564506
0.00509658
0.00511784
0.00467293
0.00291846
0.00291344
0.00291547
0.00312027
0.00318225
0.00328833
0.00331799
0.00334224
0.00335766
0.00334853
0.00334577
0.00331404
0.00329125
0.00321561
0.00319058
0.00317973
0.00175301
0.0019135
0.00198569
0.00199952
0.00202981
0.00201811
0.00200725
0.00198337
0.00196859
0.00193575
0.00189846
0.00184147
0.00173061
0.00157598
0.00173389
0.0029406
0.0029391
0.00478755
0.00539986
0.00543972
0.00605742
0.0057496
0.00544543
0.00584188
0.00526535
0.00522225
0.00472999
0.00293837
0.00297845
0.00176876
0.00175405
0.00205185
0.00199598
0.00213346
0.0021923
0.00219832
0.0022284
0.00225643
0.002292
0.00234973
0.00236605
0.00232735
0.00231953
0.0021841
0.00188699
0.0019091
0.00225115
0.00236208
0.0021942
0.00215743
0.0021416
0.00208936
0.00204982
0.00201223
0.00203872
0.00219551
0.00219242
0.00215273
0.00204805
0.00199348
0.00172705
0.00166757
0.00291447
0.00296046
0.00489392
0.00499895
0.00496355
0.00572613
0.00639813
0.00727407
0.00621144
0.00504893
0.00525882
0.00601709
0.00448229
0.00375779
0.00223483
0.00167528
0.00209796
0.00192778
0.00201053
0.00208335
0.00185024
0.00198895
0.00183898
0.00167123
0.00166174
0.00165985
0.00170054
0.00171781
0.00174884
0.00175309
0.00179556
0.00179142
0.00179589
0.00181768
0.00182608
0.00201751
0.00219146
0.00184503
0.00156447
0.00152524
0.0014404
0.0013718
0.00140538
0.00137155
0.00136311
0.0013381
0.00131534
0.00125524
0.001308
0.00138805
0.00162392
0.00155396
0.00125593
0.0011221
0.000766827
0.000782425
0.000787834
0.00081197
0.000820902
0.000831836
0.000835943
0.000849535
0.000852206
0.000856531
0.000856211
0.000877089
0.000874093
0.000863959
0.000857477
0.00086153
0.000865366
0.000864691
0.00126627
0.00140983
0.00153922
0.00182787
0.00215034
0.00185136
0.00156961
0.00135344
0.000870015
0.000883013
0.000899107
0.00090742
0.00092672
0.000944285
0.00096386
0.000976179
0.000985407
0.000995045
0.00100523
0.00100925
0.00100675
0.000987261
0.000975807
0.00100054
0.00109979
0.00115746
0.00123154
0.00125951
0.00128325
0.00129492
0.00128913
0.0013028
0.0012878
0.00128581
0.00126421
0.00125508
0.00124644
0.00123542
0.00122162
0.00118722
0.0011758
0.00123699
0.00209498
0.00273987
0.00315276
0.00347063
0.0032134
0.00261202
0.00273881
0.00481602
0.00456261
0.00268853
0.00251199
0.00232069
0.00203099
0.0017708
0.00214018
0.00244189
0.00266995
0.0028699
0.00305309
0.00317784
0.00333851
0.00354802
0.00391746
0.00396343
0.00361454
0.00292745
0.00247586
0.00231053
0.00223171
0.00209564
0.00194701
0.00199614
0.00201074
0.00195116
0.00187717
0.00185652
0.00188755
0.00192767
0.00190477
0.00190413
0.00170127
0.00170059
0.00290607
0.00295926
0.00455225
0.00479687
0.00484393
0.0031136
0.00307126
0.00179388
0.00166622
0.00181777
0.0018872
0.0018913
0.00189931
0.00189
0.00185729
0.00183331
0.00180529
0.00178241
0.00176194
0.0017267
0.00165938
0.00153272
0.00166973
0.00187212
0.00195579
0.00197792
0.00198871
0.00202022
0.00207176
0.00211284
0.00220827
0.0022175
0.00221638
0.002224
0.00207848
0.00214322
0.00181379
0.00181089
0.00313898
0.00312997
0.00179795
0.00212305
0.00213793
0.00211383
0.00227607
0.00208288
0.00201703
0.00200685
0.00192208
0.00187693
0.00181643
0.00178022
0.00181455
0.00192966
0.00186768
0.00165527
0.0015938
0.00178872
0.00172196
0.00142866
0.00122072
0.00118735
0.00113673
0.00110603
0.00115944
0.00120117
0.001225
0.00125514
0.00126405
0.0013192
0.0012834
0.00134638
0.00142779
0.00149259
0.00177034
0.00191875
0.0017334
0.00170026
0.00167921
0.00167787
0.00168325
0.00161405
0.00160948
0.00157363
0.00155589
0.00150883
0.00148755
0.00146049
0.0014651
0.0014803
0.00162724
0.00418672
0.00533943
0.00556146
0.00950492
0.00383844
0.00392014
0.00769341
0.00317992
0.00478105
0.00512236
0.00535387
0.00559008
0.00511562
0.00651063
0.00454061
0.00506003
0.00526581
0.00459797
0.00173578
0.00199784
0.0022921
0.00203667
0.00179829
0.00122484
0.00131936
0.00136187
0.00139659
0.00141882
0.00144394
0.00147069
0.00149589
0.00151348
0.00151356
0.00146724
0.00141743
0.00130302
0.00126492
0.00131385
0.00136443
0.00119775
0.00112756
0.00114076
0.00115937
0.00116978
0.00117189
0.00118325
0.00118625
0.00120427
0.00119454
0.00120361
0.00118294
0.0011933
0.00117794
0.00113797
0.00108155
0.000985833
0.000962502
0.00138638
0.00147637
0.00155084
0.00176042
0.0020332
0.00216991
0.00194525
0.00179457
0.00172266
0.0019108
0.00191277
0.00348019
0.0066789
0.00298945
0.00334657
0.00975664
0.00388057
0.00301461
0.00305971
0.00309171
0.0030963
0.00179897
0.0021305
0.0020656
0.00207479
0.00175999
0.00147786
0.00132556
0.00118518
0.000803903
0.000801324
0.000807371
0.000819827
0.000823701
0.000788501
0.000788409
0.00078391
0.000782147
0.000765513
0.00076086
0.000747301
0.000739059
0.000719555
0.000708989
0.000690515
0.000687503
0.000720663
0.000804314
0.000972791
0.00107881
0.00122858
0.00124964
0.00139917
0.00345501
0.00400711
0.00552361
0.00548299
0.00864821
0.00540343
0.00408128
0.00368346
0.00539038
0.0055702
0.00516087
0.00699004
0.0048357
0.003208
0.00489875
0.00408848
0.00475709
0.00469403
0.0049899
0.00792885
0.00834036
0.00234269
0.00208753
0.00219498
0.00249089
0.00295804
0.00272807
0.00310598
0.00311191
0.00240957
0.0015191
0.00483437
0.00583364
0.00471664
0.00568891
0.00872511
0.00350056
0.00341317
0.00301944
0.00252009
0.00229002
0.0022601
0.0025206
0.0030163
0.0075462
0.00807639
0.00749776
0.0074912
0.00678906
0.00741154
0.00923817
0.00918697
0.0081266
0.00760269
0.00789481
0.00493768
0.00302673
0.00352077
0.00390695
0.00521435
0.005377
0.0113573
0.00385754
0.00425949
0.00432521
0.00578097
0.00559999
0.00988979
0.0041991
0.00452652
0.00596276
0.00797337
0.0146859
0.00536988
0.00564991
0.00812248
0.00824684
0.00753807
0.00544961
0.00493218
0.00537098
0.00404687
0.00395668
0.00337427
0.00497912
0.00670182
0.00530681
0.00515287
0.00438061
0.00391286
0.00399463
0.00414819
0.00344622
0.00339687
0.00391736
0.00291921
0.00283036
0.00297774
0.000829109
0.000424758
0.00043413
0.000445413
0.000454604
0.000464087
0.000471007
0.000479223
0.00048291
0.000483324
0.000484586
0.000512372
0.000507577
0.000491516
0.00044631
0.000509218
0.000808072
0.000808537
0.000508552
0.000448309
0.000804449
0.00128169
0.00151097
0.00178718
0.00180902
0.00156111
0.00135362
0.000833341
0.000820238
0.000497156
0.00058065
0.000630591
0.00055936
0.000624314
0.000578689
0.000612917
0.000619391
0.00057321
0.000569974
0.000572161
0.000567798
0.000557668
0.00054532
0.000530308
0.000518643
0.000512589
0.000508283
0.000498266
0.00041249
0.00038514
0.000465242
0.000744226
0.000744869
0.00069711
0.000655338
0.000619314
0.000602375
0.000597217
0.000593608
0.000603921
0.000623426
0.00062895
0.000634537
0.000683594
0.00066206
0.000707106
0.000663674
0.000708992
0.000665395
0.000612095
0.00051394
0.000530224
0.000855407
0.000864498
0.00139651
0.00159729
0.00181098
0.00181997
0.00203165
0.00213991
0.00181252
0.00188178
0.0021561
0.00200773
0.00178931
0.00179657
0.00161598
0.00161789
0.0014335
0.000896048
0.000883926
0.000555117
0.000539147
0.000642879
0.000631679
0.00070253
0.000751926
0.000752164
0.00074975
0.000731198
0.000724449
0.000637162
0.000624596
0.000625435
0.000606607
0.000602905
0.000629772
0.000689401
0.000810943
0.000981287
0.00106743
0.00110278
0.00105673
0.000945428
0.000700093
0.000630869
0.0010954
0.00113437
0.00204796
0.00486258
0.00228683
0.00429839
0.00310101
0.000768934
0.000856883
0.0010926
0.00122419
0.00132213
0.00137961
0.00126274
0.0010549
0.00079428
0.000655576
0.000975795
0.000843627
0.000951438
0.00083069
0.00107514
0.0012429
0.00120219
0.00121106
0.00102333
0.00083342
0.000882606
0.000792166
0.000873083
0.000731027
0.000879481
0.000794023
0.000997749
0.0010071
0.000986136
0.000934716
0.000711703
0.000746762
0.000626413
0.000679622
0.000610213
0.000630747
0.00059766
0.000697001
0.000803194
0.0007709
0.000767928
0.000631011
0.00049452
0.000546231
0.000472516
0.000534832
0.000415791
0.000503642
0.000422312
0.000546769
0.00056389
0.000567473
0.000564852
0.000460504
0.000541605
0.000661783
0.000693833
0.000699074
0.000665684
0.000513211
0.000794018
0.000716347
0.000874488
0.000756204
0.000827769
0.000753696
0.000878349
0.0011249
0.00117452
0.00118233
0.000959333
0.000953315
0.00174074
0.0965516
0.0015659
0.00185081
0.00190861
0.00190178
0.00157227
0.00153401
0.00190029
0.00140574
0.00199083
0.0012537
0.00212346
0.000809459
0.00123023
0.00132081
0.00131804
0.00122505
0.000822414
0.00243332
0.11889
0.307839
0.334266
0.333729
0.320726
0.143786
0.500982
0.13631