/*--------------------------------*- C++ -*----------------------------------*\
| =========                 |                                                 |
| \\      /  F ield         | OpenFOAM: The Open Source CFD Toolbox           |
|  \\    /   O peration     | Version:  v2012                                 |
|   \\  /    A nd           | Website:  www.openfoam.com                      |
|    \\/     M anipulation  |                                                 |
\*---------------------------------------------------------------------------*/
FoamFile
{
    version     2.0;
    format      ascii;
    class       volScalarField;
    location    "810";
    object      nut;
}
// * * * * * * * * * * * * * * * * * * * * * * * * * * * * * * * * * * * * * //

dimensions      [0 2 -1 0 0 0 0];


internalField   nonuniform List<scalar> 
18258
(
0.00418679
0.00182154
0.00149126
0.00129145
0.000856986
0.00140149
0.0019468
0.00231775
0.00243199
0.0024118
0.00249764
0.00421542
0.00591643
0.00731229
0.00768093
0.00766728
0.00695996
0.00664677
0.00721419
0.00887117
0.00746127
0.00477952
0.00572724
0.00661635
0.00719232
0.0063672
0.00514852
0.00476888
0.0043175
0.003598
0.00301548
0.00205505
0.00151675
0.00140687
0.00127431
0.00145196
0.00158069
0.0016845
0.00172252
0.00174966
0.00173768
0.00172781
0.00168117
0.00165292
0.00160456
0.00132851
0.00161317
0.00164381
0.00179899
0.00248958
0.00267623
0.00225132
0.00249118
0.00222284
0.00146568
0.00167731
0.0018207
0.00185996
0.00183616
0.00176006
0.00173449
0.00171284
0.00168538
0.00165275
0.00163292
0.00164943
0.00166669
0.00164877
0.00156798
0.00150254
0.00139657
0.00129028
0.0012115
0.00115047
0.00110443
0.0010532
0.000995638
0.000874555
0.000810553
0.00107318
0.00134728
0.00143954
0.00204037
0.00248763
0.00250441
0.00187524
0.00133671
0.0013874
0.00154208
0.00155712
0.00131922
0.00156727
0.00177462
0.00183914
0.0019164
0.00214231
0.00244057
0.00237982
0.00211958
0.00195363
0.00190589
0.0021877
0.00208215
0.00270053
0.00271818
0.00236705
0.00219371
0.00246791
0.00318337
0.00342218
0.00265669
0.00249587
0.00244712
0.00241529
0.00218552
0.00226307
0.00205607
0.00185274
0.00201871
0.00243796
0.00231218
0.00252473
0.0026165
0.00245497
0.00284469
0.00328035
0.0032338
0.00258786
0.00211148
0.0019683
0.00198311
0.0012129
0.0013097
0.00141033
0.00144491
0.00146931
0.00148994
0.00158821
0.00158461
0.00156126
0.00155782
0.00158494
0.000873552
0.000946447
0.000970022
0.000976828
0.000928102
0.000918495
0.000901264
0.000887299
0.000837176
0.000801143
0.000958484
0.00107617
0.00117207
0.00128428
0.00145139
0.00165581
0.00187062
0.00208764
0.0022311
0.00227189
0.00231302
0.00222919
0.00214464
0.00222095
0.00223374
0.0022193
0.00218947
0.0021518
0.00210091
0.00200758
0.00211501
0.00210879
0.00198095
0.00169831
0.00173595
0.00173277
0.00177782
0.00176891
0.00178697
0.001762
0.00173269
0.00164971
0.0015337
0.00127653
0.00124295
0.00125863
0.00161653
0.00196272
0.00303207
0.00369921
0.00429596
0.00459791
0.00492095
0.00398003
0.00442945
0.00341303
0.00306408
0.00389465
0.00509572
0.00290706
0.00158659
0.00300941
0.00266873
0.00193508
0.00172232
0.0017746
0.00177892
0.00204518
0.00235726
0.00261486
0.0027396
0.00284998
0.00293801
0.00303545
0.0031588
0.00319322
0.00308523
0.00261238
0.00314661
0.00255555
0.00298548
0.00269672
0.0018186
0.00193132
0.002046
0.00187154
0.00181999
0.00174333
0.00156871
0.00192859
0.00249892
0.00290071
0.00331621
0.00442155
0.00409056
0.00392273
0.00303781
0.0029375
0.00152513
0.00217568
0.00225432
0.00253363
0.00168508
0.00153646
0.0014576
0.00193532
0.00224195
0.00264501
0.00293251
0.00348309
0.0027002
0.00308471
0.00279134
0.00194413
0.00187239
0.00268256
0.00288937
0.0023754
0.00212609
0.00266752
0.00252426
0.00179037
0.00143554
0.00220423
0.00228284
0.001636
0.00406022
0.00432183
0.00412356
0.00503084
0.00630543
0.00719248
0.00669455
0.0059401
0.00663391
0.00526713
0.00509902
0.00543888
0.00456794
0.00320257
0.00328297
0.00339515
0.00348705
0.00374355
0.00397634
0.00426062
0.0045318
0.00412017
0.00342285
0.00259141
0.00178242
0.0017573
0.00174804
0.00156972
0.00232654
0.00352189
0.00349932
0.00198995
0.00115961
0.00131051
0.00147934
0.00146467
0.00106357
0.000800185
0.00137831
0.00157601
0.00160151
0.00156179
0.0014746
0.00154099
0.00247481
0.00381272
0.00418938
0.00433915
0.00448098
0.0045813
0.00463732
0.00465537
0.0046656
0.00467802
0.0046889
0.00470523
0.00469077
0.00459089
0.00403798
0.00253855
0.00148384
0.00137839
0.0015213
0.00163497
0.00173419
0.00147566
0.000902302
0.00144114
0.00184545
0.00212106
0.00213917
0.00199637
0.00193659
0.00305377
0.00406029
0.00478579
0.00493263
0.00499793
0.00494291
0.0049356
0.00482763
0.00479372
0.00420307
0.00300725
0.00328743
0.00352941
0.00356959
0.00365182
0.00377554
0.00368782
0.00348409
0.00509289
0.00587691
0.00595236
0.00607972
0.00600857
0.00590542
0.00563758
0.00533137
0.00448849
0.00336612
0.00212393
0.00216842
0.00230863
0.00228669
0.00199087
0.00209728
0.00227591
0.00229868
0.00237392
0.00266195
0.00302333
0.00288422
0.00248236
0.0021079
0.00196268
0.00192119
0.00184313
0.00138015
0.00140094
0.00136205
0.00138464
0.00186049
0.0022145
0.00255366
0.00362157
0.00323068
0.0026275
0.00416481
0.00426729
0.00458422
0.00506465
0.00519032
0.00575039
0.00400323
0.00360822
0.0037065
0.00302792
0.00280287
0.00283284
0.00284354
0.00265058
0.00290095
0.00287522
0.00277117
0.00305947
0.00337091
0.00444481
0.00538551
0.00568208
0.00585333
0.00592301
0.00590002
0.00578443
0.00582051
0.00511185
0.00510647
0.00489069
0.00475077
0.00470177
0.00446961
0.00511653
0.00531073
0.00537494
0.00550837
0.00571693
0.00556239
0.00539001
0.00525912
0.00516458
0.00506575
0.0051198
0.00521418
0.005315
0.005457
0.0056471
0.00567942
0.00548222
0.00533347
0.00523198
0.0051368
0.00514089
0.00522579
0.00532501
0.00546609
0.00564659
0.00554682
0.00540648
0.00528171
0.00517954
0.00508976
0.00491189
0.00503008
0.00516023
0.00526756
0.0053373
0.00461179
0.00492945
0.00484468
0.00438635
0.00410561
0.00311791
0.00337429
0.00355812
0.00387547
0.00430186
0.00438553
0.00368032
0.00315397
0.00307351
0.00304875
0.00312083
0.00314663
0.00316178
0.00357251
0.00538081
0.00541785
0.00543281
0.00543458
0.00464788
0.0045167
0.00420831
0.00769032
0.00715987
0.00620334
0.00511436
0.00274235
0.00235082
0.00278464
0.00338626
0.00378598
0.00417836
0.00277388
0.00171819
0.00200241
0.00207635
0.00202584
0.00187282
0.00156052
0.0014405
0.00130739
0.00140686
0.00249111
0.00397547
0.0044783
0.00452619
0.00448167
0.00439496
0.00428979
0.0041434
0.00408241
0.00513209
0.00692491
0.00784968
0.00782248
0.00672108
0.00547068
0.00307682
0.00157272
0.00113931
0.00126067
0.00138323
0.00162864
0.00145609
0.0012026
0.0013169
0.00125569
0.00254849
0.0044111
0.00564059
0.00669139
0.00657413
0.00570329
0.00468087
0.00444501
0.0045494
0.00461808
0.00467753
0.00473862
0.00478048
0.00475361
0.00432639
0.00267262
0.00159563
0.00141784
0.00152462
0.00178683
0.00189843
0.00191756
0.00189076
0.00163911
0.00271084
0.00430497
0.00273772
0.0014937
0.00161392
0.00160223
0.00282612
0.00282178
0.002761
0.004296
0.00454241
0.00453084
0.00425706
0.00406405
0.00240596
0.00273027
0.00273932
0.00275385
0.00279901
0.00141389
0.00154112
0.00158905
0.00171052
0.00149638
0.00190094
0.000491873
0.000681687
0.000791824
0.00086097
0.000927561
0.0009099
0.00174068
0.00176589
0.00168529
0.00164098
0.00208304
0.00223549
0.00228492
0.00210471
0.00194217
0.0020673
0.00207176
0.00195231
0.00184938
0.00191766
0.00191907
0.00183907
0.00156422
0.00146573
0.00160914
0.0015918
0.001579
0.00283554
0.00283064
0.00267894
0.00440188
0.00433099
0.00485113
0.00481984
0.00481443
0.00479503
0.00484663
0.00487331
0.00489341
0.00491712
0.00490762
0.00486024
0.00676201
0.00478085
0.00417187
0.00241253
0.00232387
0.00164122
0.00143837
0.00169374
0.00181152
0.00196393
0.0019195
0.00202357
0.00202118
0.00214468
0.00199059
0.00176753
0.00270728
0.00289221
0.00282487
0.00288078
0.00281305
0.00279655
0.00277593
0.00273639
0.00268878
0.00160097
0.00157042
0.00183899
0.00193041
0.00207425
0.00209306
0.00213848
0.00202811
0.00178368
0.0017266
0.00198846
0.00196165
0.00199979
0.00188544
0.00187764
0.00167276
0.00171513
0.00345886
0.00638487
0.00328605
0.00365001
0.00330687
0.00376099
0.00329423
0.00284108
0.00290766
0.0025612
0.00267166
0.00280232
0.00285299
0.00299843
0.00353439
0.00340299
0.00298715
0.00290051
0.00284339
0.00268102
0.00241313
0.0025279
0.00255072
0.00260544
0.0028957
0.00332108
0.00372258
0.00452221
0.00438818
0.00384507
0.0035152
0.00368542
0.00374997
0.00471964
0.00440865
0.00438337
0.00462462
0.00457952
0.00434629
0.00411855
0.00397543
0.00341346
0.0034697
0.00397099
0.00384235
0.0039593
0.00388954
0.00404313
0.00411521
0.0039498
0.00367163
0.00385959
0.00385192
0.00427727
0.00416039
0.00385942
0.00353138
0.00377426
0.00372849
0.00430638
0.00405437
0.00379239
0.00349086
0.00334389
0.0037945
0.00372537
0.00422386
0.00434587
0.0043478
0.00379087
0.00370315
0.00440316
0.00423676
0.00409212
0.00426193
0.00353002
0.0036309
0.00447224
0.00456589
0.00433147
0.00361656
0.00367219
0.0031491
0.00370246
0.00460788
0.00435121
0.00356665
0.00296029
0.00414139
0.00435822
0.00461009
0.0043571
0.00474603
0.00511331
0.00416824
0.00453504
0.00592551
0.00452494
0.00525075
0.00536692
0.00539833
0.00540086
0.00542141
0.005448
0.0057389
0.00558109
0.00354967
0.00424514
0.00412419
0.0034497
0.00293409
0.00323126
0.00347977
0.00352969
0.00361901
0.00375671
0.00369214
0.0035691
0.00522483
0.0059643
0.00609313
0.0062147
0.00611388
0.0059649
0.00561868
0.00519423
0.00431233
0.00321588
0.0020069
0.0020454
0.00217941
0.00215809
0.00187174
0.00141229
0.000928112
0.001378
0.00142542
0.00134303
0.00122476
0.00108178
0.00112012
0.00204186
0.00399057
0.00545013
0.00600662
0.00645942
0.00694465
0.00742135
0.00778727
0.00805175
0.00822817
0.00833372
0.00835227
0.00818314
0.00742787
0.00709715
0.00668867
0.00635501
0.00589612
0.00554234
0.0062631
0.00688029
0.00726196
0.00769092
0.00788957
0.0078062
0.00678282
0.00657622
0.00756331
0.00931774
0.00791661
0.00994804
0.0117059
0.00911376
0.00819555
0.00819283
0.00915689
0.00933513
0.00900161
0.00848148
0.00788485
0.00713262
0.00750282
0.00784022
0.00816653
0.00846629
0.00930557
0.00945832
0.0093919
0.00925209
0.00906075
0.00877866
0.00833291
0.0077224
0.00704864
0.00639172
0.00562729
0.00403487
0.00189889
0.00214771
0.00210763
0.00227308
0.00221375
0.00101866
0.00112416
0.00113892
0.0011471
0.00108389
0.00123333
0.00178497
0.0029074
0.00209053
0.00171978
0.00118589
0.00139395
0.00232972
0.0039611
0.004476
0.00456131
0.00461372
0.00583397
0.00682194
0.0072695
0.00760593
0.00785782
0.0077565
0.00749737
0.00703934
0.00647083
0.00625752
0.00591102
0.00560552
0.00544138
0.00527217
0.00494853
0.00388613
0.003726
0.0038832
0.00383665
0.00367308
0.00392516
0.0040675
0.00406451
0.00411009
0.00415001
0.00427306
0.00441785
0.00454397
0.00461042
0.00463544
0.00464371
0.00465378
0.00466183
0.00467651
0.00466101
0.00455918
0.0040034
0.00250302
0.00146082
0.00135024
0.00148044
0.00156548
0.00160178
0.00142233
0.000915541
0.00142266
0.00184158
0.00188888
0.00207295
0.00213902
0.00226885
0.00252739
0.00292039
0.00301333
0.0026738
0.0025322
0.00247795
0.00241519
0.00206332
0.00257221
0.00283942
0.00283425
0.00280782
0.00303507
0.00373514
0.00358769
0.00316337
0.00312765
0.00309581
0.00279798
0.00275571
0.00301223
0.0030457
0.00315995
0.00370578
0.00444458
0.00412275
0.00375467
0.00359896
0.00332317
0.00292454
0.00264341
0.00325266
0.00267195
0.00140326
0.00118974
0.00118782
0.00119154
0.00114903
0.00136242
0.00143375
0.00145368
0.00135361
0.00150224
0.00167234
0.00162014
0.00183082
0.00180607
0.00161616
0.00160029
0.00173368
0.00183221
0.00188131
0.00192899
0.00316264
0.00326427
0.00252785
0.00366374
0.00422208
0.00419404
0.00444931
0.00365681
0.00327814
0.00389275
0.00450077
0.00516782
0.00407984
0.00385815
0.00394859
0.00181046
0.000952631
0.00134406
0.00166903
0.00186075
0.00180598
0.00170682
0.00144392
0.00256533
0.00263413
0.00418512
0.00469507
0.00475625
0.00472571
0.00472551
0.00513683
0.0058993
0.00677238
0.00705327
0.00695575
0.00664245
0.00605719
0.0054742
0.00544476
0.00526266
0.00512833
0.0050909
0.00442475
0.00390157
0.00417884
0.00411159
0.00425103
0.00431646
0.0043641
0.00441268
0.0044934
0.00459081
0.00467977
0.00474072
0.00478153
0.0048158
0.0048506
0.00488536
0.00492281
0.00494306
0.00489632
0.00442513
0.00265284
0.00158095
0.0014417
0.00153829
0.00180809
0.00190386
0.00204615
0.00181645
0.000956424
0.00112513
0.00195474
0.00216852
0.00200665
0.00187795
0.00184442
0.00154503
0.00280084
0.00276501
0.00434358
0.00488572
0.0049543
0.00494051
0.00490208
0.00485821
0.0048146
0.0047786
0.00474953
0.0047189
0.0046763
0.0046251
0.00457755
0.00452891
0.00444645
0.00432984
0.00419538
0.00436257
0.00451585
0.00471271
0.00492159
0.00502229
0.00493018
0.00479608
0.00474168
0.00477578
0.00481942
0.00486377
0.0049036
0.00492403
0.00486878
0.00458781
0.0043027
0.00272338
0.00275925
0.0013561
0.00150618
0.00173797
0.00179499
0.00194915
0.00193923
0.00152365
0.00118775
0.00134049
0.00125342
0.00224025
0.00246395
0.00273338
0.00270665
0.00146874
0.00150667
0.00156574
0.00176558
0.00164122
0.00158683
0.00393044
0.00376274
0.00393676
0.0048302
0.00416128
0.00287187
0.003146
0.00437747
0.00461747
0.00279066
0.00209273
0.0023209
0.00294008
0.00432846
0.00438295
0.00416501
0.00414181
0.00302245
0.00371658
0.0044745
0.00435243
0.00339125
0.00233655
0.00173967
0.000844316
0.00160591
0.00137282
0.00336877
0.003729
0.00368642
0.00403161
0.0042835
0.00432722
0.00420483
0.00372762
0.00380223
0.00384021
0.00437701
0.00439694
0.00372032
0.00313772
0.00254679
0.00257008
0.00262032
0.00290388
0.00363585
0.00342567
0.00300244
0.00291112
0.00284796
0.00267841
0.00241671
0.00211963
0.00213445
0.00198671
0.0019227
0.00303106
0.00403488
0.00475806
0.0048947
0.00494405
0.00486798
0.00483334
0.00469496
0.00462336
0.00401653
0.00512961
0.00542158
0.00523171
0.00527052
0.00530359
0.00534428
0.00534544
0.00524523
0.00450698
0.0026913
0.00175781
0.00198416
0.00214157
0.00201078
0.00199957
0.00213142
0.0020226
0.00177661
0.00287845
0.00281356
0.00449909
0.00509549
0.0052043
0.00521027
0.00518924
0.00517189
0.00517861
0.00545096
0.00532676
0.00539819
0.00568323
0.00569271
0.00576326
0.00541194
0.00534375
0.00530024
0.0052711
0.00522332
0.0050952
0.00450898
0.00437152
0.00496431
0.00511706
0.00518459
0.00523113
0.00528661
0.00535947
0.00557095
0.00572744
0.00578748
0.0055566
0.00547154
0.00534478
0.0051641
0.00512106
0.00511231
0.00510798
0.00508328
0.00495169
0.00435863
0.00280237
0.00287149
0.00170819
0.00171923
0.00198019
0.00207971
0.00204246
0.00189138
0.00184401
0.00318146
0.0036208
0.00385013
0.00415008
0.00396413
0.00394223
0.00450599
0.00436005
0.00388539
0.00404411
0.00362733
0.00345412
0.00334404
0.0033638
0.0017631
0.00190255
0.00198461
0.00195179
0.00186634
0.00166471
0.00152659
0.00278614
0.00276583
0.00273026
0.00162315
0.00158753
0.00187032
0.00181628
0.00166147
0.00141624
0.00155267
0.00239832
0.00268239
0.00415991
0.00430881
0.00461123
0.0049311
0.00505237
0.0050856
0.00510614
0.00512902
0.00517789
0.00523521
0.00525107
0.00524778
0.00528626
0.00527681
0.00527869
0.00525187
0.00522085
0.00518437
0.0051451
0.00507992
0.00494492
0.00462085
0.00430286
0.00485118
0.00489585
0.00498682
0.00508063
0.00512012
0.00512566
0.0051062
0.00506817
0.00502315
0.00497164
0.00497094
0.00512036
0.00515661
0.00518248
0.00516681
0.00514821
0.00514146
0.00511776
0.00508035
0.00498627
0.00489209
0.00485249
0.00477168
0.0048989
0.00495513
0.0049632
0.00501104
0.00508807
0.00511105
0.00511144
0.00507432
0.00504269
0.00500115
0.00493285
0.00484212
0.00454226
0.00460269
0.00468242
0.00478686
0.00488766
0.00496932
0.00501571
0.00502006
0.00497494
0.00494462
0.00494612
0.00490444
0.00492598
0.00494797
0.00492215
0.00491816
0.00492038
0.00486237
0.0047584
0.0046144
0.00446262
0.00433812
0.00427641
0.00417475
0.00451105
0.00464397
0.00476183
0.00486563
0.00495836
0.00505047
0.00507719
0.00506533
0.00500854
0.00497633
0.00497524
0.00492762
0.00492499
0.00497094
0.00497252
0.00499915
0.00504731
0.00503534
0.0049695
0.00479552
0.00462552
0.00447684
0.0043336
0.00418048
0.00414857
0.00421675
0.00415631
0.00421013
0.00435499
0.00453904
0.00469927
0.00480343
0.00483767
0.00486936
0.00491485
0.00491079
0.00488366
0.004868
0.00480661
0.00475275
0.00468706
0.00454608
0.00436834
0.00421348
0.00416736
0.00425393
0.00433678
0.00425763
0.00394992
0.0041091
0.00426135
0.0044113
0.00462247
0.00486463
0.004968
0.00500478
0.00498035
0.0049614
0.00495909
0.00491557
0.00489982
0.00493997
0.00494321
0.00496255
0.00499359
0.00496521
0.00488175
0.0045859
0.00423001
0.00405816
0.00395544
0.00382084
0.00427869
0.00436856
0.00426216
0.00419002
0.00430249
0.00443173
0.00456608
0.00465613
0.00469308
0.00474544
0.00481409
0.00484776
0.0047993
0.00474221
0.00467243
0.00463657
0.00463656
0.00461569
0.00453017
0.00442734
0.00430557
0.00444978
0.00453338
0.00445157
0.00402946
0.00409648
0.00420172
0.0042642
0.00459883
0.00488554
0.00494904
0.00494846
0.00491647
0.00489584
0.00489614
0.0048707
0.0048226
0.00481408
0.00481043
0.00486839
0.00494483
0.00499236
0.00501796
0.00480474
0.00440498
0.00433282
0.00414505
0.00405996
0.00451144
0.00456252
0.00445841
0.00436198
0.00457487
0.0046646
0.00468796
0.00466717
0.00461681
0.00458438
0.00464395
0.00473805
0.00466716
0.00436318
0.00409368
0.00423256
0.00426789
0.00425893
0.00420217
0.00410506
0.00389248
0.004347
0.00478913
0.0048242
0.00435117
0.00435863
0.00422705
0.00393993
0.00432831
0.0045294
0.00457118
0.00454871
0.00447505
0.00430297
0.00454444
0.0047574
0.00471628
0.00426942
0.00277098
0.00280893
0.00282874
0.00283098
0.00279412
0.00278381
0.00274343
0.00272252
0.00265962
0.00259549
0.00253452
0.00270318
0.00284817
0.00304298
0.00305941
0.0031401
0.00300554
0.00284509
0.00265707
0.00206901
0.00262545
0.00313227
0.00332873
0.00358053
0.00363217
0.00418728
0.00440411
0.0045196
0.00443025
0.00355395
0.00301431
0.00240861
0.0015664
0.000975998
0.0011455
0.0011913
0.00125026
0.00152805
0.0028212
0.00143737
0.00199089
0.00155676
0.00267523
0.00141689
0.000887389
0.000587258
0.000745731
0.000881803
0.000888627
0.000853536
0.000712165
0.000560748
0.000573223
0.000535948
0.000569664
0.00051519
0.000590596
0.000553102
0.000772773
0.00116232
0.00131859
0.00134763
0.00108911
0.00122805
0.00102605
0.00118328
0.00105667
0.00115158
0.00110471
0.00135096
0.0014806
0.00141767
0.00142174
0.00124415
0.000870163
0.00100864
0.000792297
0.000951261
0.000727689
0.000939651
0.000805606
0.00104674
0.00107903
0.00107594
0.001036
0.000791534
0.000938857
0.000739025
0.000904267
0.000739735
0.000785425
0.000653403
0.000945854
0.00096264
0.000886929
0.000942241
0.00105789
0.00113582
0.00125443
0.00119074
0.00136092
0.00131794
0.00134148
0.00127031
0.00123456
0.00120624
0.00120858
0.00118868
0.0011952
0.00123376
0.00123572
0.00124071
0.00128022
0.00126177
0.00123171
0.00121368
0.00107825
0.000869978
0.00151532
0.00156266
0.00158556
0.00158502
0.00154883
0.00153162
0.00147879
0.00146476
0.00141871
0.00139164
0.00132998
0.0012793
0.00122158
0.00137324
0.000768489
0.000872556
0.000921213
0.000948576
0.00096773
0.000976559
0.000983771
0.000978368
0.000966317
0.000942404
0.000934174
0.000908118
0.00116197
0.00132164
0.00138126
0.00139694
0.00130915
0.00124641
0.00272301
0.00329553
0.00501334
0.0051243
0.0038463
0.00383528
0.00132884
0.00140106
0.000957644
0.00134573
0.00138753
0.00137341
0.00129754
0.000936034
0.00140541
0.00097905
0.00131997
0.000988278
0.00122318
0.00100236
0.00142006
0.00180695
0.00174043
0.00157384
0.00106727
0.000886269
0.00088225
0.000755886
0.000829813
0.00068941
0.000850921
0.00072307
0.00107917
0.00153939
0.00170263
0.00173655
0.00136902
0.00188869
0.00142006
0.00205569
0.00163181
0.00201191
0.00161452
0.00186857
0.00231207
0.00232244
0.00226738
0.00182745
0.00146478
0.0016441
0.00145643
0.0016773
0.00242331
0.00158785
0.00240793
0.000994837
0.0013559
0.00139738
0.00137804
0.00129918
0.000875198
0.00222989
0.00117903
0.0021016
0.0013601
0.00218469
0.00158059
0.00208603
0.00249265
0.00260096
0.00258684
0.00211046
0.00189705
0.00195215
0.00155801
0.00186961
0.0014006
0.00203781
0.00116539
0.00151792
0.00168172
0.00177066
0.00177804
0.00146175
0.00288572
0.00181172
0.00273446
0.00190118
0.00243549
0.00195229
0.00213589
0.00252238
0.00250687
0.002486
0.00210813
0.00170535
0.00225089
0.00160577
0.04778
0.110448
0.0439566
0.111644
0.0505888
0.0717893
0.070728
0.0708575
0.0710983
0.05337
0.116375
0.137537
0.143476
0.14526
0.144204
0.233035
0.190027
0.285513
0.185068
0.108845
0.0471584
0.0650425
0.167976
0.277481
0.416391
0.528329
0.360039
0.372625
0.237778
0.234379
0.220582
0.178355
0.109226
0.0547633
0.0094079
0.0102997
0.0147215
0.0195843
0.0154276
0.00946187
0.00187311
0.00193356
0.00197806
0.00200655
0.00200134
0.0019608
0.00199372
0.00188423
0.00177328
0.00198517
0.00216446
0.00231093
0.00272622
0.00301307
0.0027166
0.00297678
0.00315408
0.00329883
0.00341884
0.00359744
0.00379832
0.00397423
0.00398353
0.00365027
0.00311152
0.00253039
0.00212551
0.00201323
0.00189033
0.00166695
0.00152476
0.00142711
0.00138044
0.00136133
0.0013993
0.00152963
0.00164298
0.00168279
0.00165006
0.00161975
0.00159336
0.00141884
0.00165907
0.00227576
0.0022928
0.00392829
0.00452638
0.00462066
0.00462735
0.00410084
0.0026194
0.00262526
0.00263877
0.00268937
0.00270013
0.00270785
0.0027053
0.00269681
0.00268127
0.00265263
0.00263796
0.00259503
0.00255866
0.00246702
0.00247103
0.00250209
0.00252693
0.00248503
0.0024947
0.00244308
0.00319559
0.00426419
0.0047988
0.00501403
0.00519967
0.00504649
0.00699713
0.00599193
0.00420619
0.00413404
0.00408286
0.00484327
0.00487561
0.00440163
0.00442011
0.00403636
0.00252106
0.0025168
0.00251854
0.00269563
0.00274922
0.00284098
0.00286663
0.00288766
0.002901
0.00289316
0.00289079
0.00286342
0.00284374
0.00277844
0.00275682
0.00274748
0.00151473
0.00165337
0.00171572
0.00172766
0.00175382
0.00174369
0.00173428
0.00171363
0.00170082
0.00167242
0.00164015
0.00159089
0.00149505
0.00136146
0.00149786
0.00254008
0.00253877
0.00413528
0.00466359
0.0046979
0.00523163
0.00496638
0.00470392
0.00504562
0.00454739
0.00451029
0.00408556
0.00253808
0.0025727
0.00152797
0.00151527
0.00177261
0.00172433
0.00184317
0.00189406
0.0018993
0.00192532
0.00194958
0.00198033
0.00203025
0.00204437
0.00201095
0.0020042
0.0018872
0.00163052
0.00164965
0.00194517
0.002041
0.00189593
0.00186413
0.00185044
0.00180527
0.00177108
0.00173857
0.00176143
0.00189685
0.00189413
0.00185986
0.00176935
0.00172223
0.00149195
0.00144062
0.00251743
0.0025573
0.00422756
0.00431774
0.00428718
0.00494652
0.00552803
0.00628528
0.00536675
0.00436189
0.00454324
0.00519903
0.00387341
0.00324685
0.00193138
0.00144742
0.00181284
0.00166551
0.00173709
0.00179994
0.00159859
0.00171841
0.00158888
0.00144395
0.00143577
0.00143414
0.00146932
0.00148424
0.00151107
0.00151475
0.00155147
0.00154789
0.00155178
0.0015706
0.00157788
0.00174328
0.0018936
0.00159428
0.00135185
0.00131794
0.00124463
0.00118534
0.00121435
0.0011851
0.00117781
0.00115619
0.00113652
0.00108458
0.00113015
0.0011993
0.00140308
0.00134266
0.00108517
0.00096955
0.000662586
0.000676048
0.000680718
0.000701579
0.000709297
0.000718747
0.000722296
0.000734047
0.000736356
0.000740095
0.000739818
0.00075787
0.000755283
0.000746528
0.000740928
0.000744443
0.000747765
0.000747181
0.00109418
0.00121824
0.00133006
0.00157948
0.00185809
0.00159979
0.00135633
0.00116953
0.000751797
0.00076303
0.00077694
0.000784123
0.000800809
0.00081599
0.000832914
0.000843564
0.000851544
0.000859877
0.000868686
0.000872164
0.000870001
0.000853165
0.00084327
0.000864648
0.000950406
0.00100024
0.00106425
0.00108843
0.00110894
0.00111903
0.00111404
0.00112586
0.00111292
0.0011112
0.00109255
0.00108467
0.00107722
0.0010677
0.00105579
0.00102607
0.00101622
0.0010691
0.0018106
0.00236794
0.00272474
0.00299951
0.00277727
0.00225753
0.00236708
0.00416191
0.00394274
0.00232351
0.00217084
0.00200541
0.00175497
0.00153023
0.00184927
0.00210988
0.00230686
0.00247951
0.00263765
0.00274532
0.00288403
0.00306498
0.00338408
0.00342391
0.00312284
0.00252962
0.00213965
0.00199682
0.00192868
0.00181107
0.00168261
0.00172506
0.00173767
0.00168615
0.0016222
0.00160436
0.0016312
0.00166593
0.00164618
0.00164555
0.00147018
0.00146959
0.00251128
0.00255713
0.00393371
0.00414509
0.00418575
0.00269049
0.00265391
0.00155016
0.00143982
0.00157075
0.00163073
0.00163427
0.00164117
0.00163313
0.00160484
0.00158412
0.00155988
0.0015401
0.00152238
0.00149191
0.00143369
0.00132426
0.00144263
0.00161754
0.00168988
0.00170903
0.00171838
0.00174563
0.00179018
0.0018257
0.00190818
0.00191616
0.00191521
0.00192179
0.00179606
0.00185203
0.00156738
0.00156489
0.00271241
0.00270462
0.00155373
0.00183463
0.00184748
0.00182666
0.00196682
0.00179988
0.00174296
0.00173415
0.00166088
0.00162186
0.00156956
0.00153826
0.0015679
0.00166734
0.00161374
0.00143015
0.00137706
0.00154556
0.00148792
0.00123454
0.00105487
0.00102604
0.000982298
0.000955768
0.00100191
0.00103798
0.00105856
0.00108461
0.00109232
0.00114
0.00110905
0.00116349
0.00123384
0.00128985
0.00152986
0.00165808
0.00149792
0.00146927
0.00145108
0.0014499
0.00145456
0.00139474
0.00139079
0.0013598
0.00134447
0.0013038
0.00128541
0.00126202
0.00126601
0.00127913
0.0014061
0.00361757
0.00461356
0.00480545
0.00821392
0.00331648
0.00338697
0.00664815
0.00274731
0.00413085
0.00442585
0.00462598
0.00483004
0.00441998
0.00562594
0.00392303
0.00437189
0.00454978
0.00397289
0.00149992
0.00172661
0.00198142
0.00176061
0.00155453
0.00105876
0.00114043
0.00117713
0.00120712
0.00122631
0.00124802
0.00127113
0.00129291
0.00130811
0.00130818
0.00126816
0.0012251
0.00112623
0.00109329
0.00113558
0.00117928
0.00103525
0.000974572
0.000985979
0.00100206
0.00101105
0.00101287
0.00102268
0.00102527
0.00104083
0.00103241
0.00104023
0.00102236
0.00103131
0.00101803
0.000983487
0.000934727
0.000852015
0.000831848
0.00119818
0.00127593
0.00134027
0.00152136
0.00175704
0.00187515
0.00168098
0.00155073
0.00148859
0.00165122
0.00165299
0.00300732
0.00577124
0.00258331
0.00289179
0.00843035
0.00335314
0.00260493
0.0026439
0.00267154
0.00267552
0.00155462
0.00184109
0.00178502
0.00179294
0.00152095
0.00127714
0.00114552
0.00102421
0.000694712
0.00069247
0.000697694
0.000708457
0.000711804
0.000681377
0.000681297
0.000677409
0.000675885
0.000661508
0.000657488
0.000645772
0.00063865
0.000621795
0.000612668
0.000596707
0.000594112
0.000622847
0.000695185
0.000840905
0.00093237
0.00106181
0.00107998
0.00120915
0.00298551
0.0034624
0.00477262
0.00473757
0.00747298
0.00466884
0.00352647
0.00318278
0.00465759
0.00481293
0.00445937
0.0060401
0.00417843
0.00277212
0.00423374
0.00353357
0.00411062
0.00405638
0.00431206
0.00685177
0.00720767
0.00202501
0.00180446
0.00189725
0.00215298
0.00255673
0.00235817
0.00268462
0.00268974
0.00208261
0.0013126
0.00417695
0.00504079
0.00407582
0.00491618
0.00753931
0.00302538
0.00294982
0.0026096
0.0021781
0.00197928
0.00195346
0.00217859
0.00260697
0.00652087
0.00697923
0.00647969
0.00647353
0.0058669
0.00640437
0.00798292
0.00793864
0.00702262
0.00656994
0.00682268
0.00426742
0.00261553
0.00304222
0.00337586
0.0045055
0.00464605
0.00981455
0.00333309
0.00368038
0.00373724
0.00499518
0.00483883
0.00854639
0.0036283
0.00391125
0.00515234
0.00688978
0.0126909
0.00464005
0.00488205
0.00701866
0.00712608
0.00651363
0.00470891
0.00426176
0.00464088
0.00349678
0.00341883
0.00291564
0.00430225
0.00579105
0.00458536
0.00445235
0.00378511
0.00338117
0.00345161
0.00358433
0.00297782
0.00293517
0.00338484
0.00252238
0.00244565
0.00257306
0.000716481
0.000367075
0.000375167
0.000384913
0.000392853
0.000401046
0.000407025
0.000414126
0.000417312
0.00041767
0.00041876
0.000442777
0.000438634
0.000424755
0.000385696
0.000440069
0.00069832
0.000698721
0.000439493
0.000387435
0.000695202
0.00110762
0.00130576
0.00154445
0.00156335
0.00134911
0.0011698
0.000720172
0.000708846
0.000429654
0.000501808
0.000544968
0.000483403
0.000539535
0.000500098
0.000529675
0.00053527
0.000495359
0.000492563
0.000494453
0.000490683
0.000481929
0.000471262
0.000458295
0.000448224
0.000443005
0.000439301
0.000430662
0.000356483
0.000332858
0.000402132
0.000643408
0.000643947
0.000602621
0.000566468
0.000535287
0.000520616
0.000516138
0.000513005
0.000521913
0.000538771
0.000543545
0.000548373
0.000590768
0.000572155
0.000611098
0.00057356
0.000612737
0.000575055
0.000528991
0.000444162
0.000458236
0.000739243
0.000747101
0.00120688
0.00138038
0.00156504
0.00157283
0.00175569
0.00184923
0.00156633
0.00162616
0.00186321
0.00173503
0.00154634
0.0015526
0.00139656
0.0013982
0.00123886
0.000774375
0.000763895
0.000479749
0.000465948
0.000555605
0.000545921
0.000607158
0.000649852
0.000650056
0.000647965
0.000631927
0.000626089
0.000550646
0.00053979
0.000540519
0.000524248
0.000521059
0.000544302
0.000595879
0.000701001
0.000848327
0.000922828
0.000953364
0.000913517
0.000817276
0.000605255
0.000545393
0.000946952
0.000980621
0.00177026
0.0042023
0.00197668
0.00371512
0.00268033
0.000664695
0.000740689
0.00094446
0.00105825
0.00114297
0.0011927
0.00109167
0.000911941
0.000686678
0.000566776
0.000843648
0.000729391
0.000822597
0.000718243
0.000929515
0.00107455
0.00103933
0.00104697
0.000884644
0.00072047
0.000763027
0.000684829
0.00075483
0.000631986
0.00076037
0.000686394
0.000862502
0.000870577
0.000852439
0.000807976
0.000615186
0.000645483
0.000541482
0.000587461
0.000527494
0.00054521
0.000516637
0.000602443
0.000694227
0.000666305
0.000663726
0.000545375
0.000427404
0.00047211
0.000408384
0.000462256
0.000359356
0.000435296
0.000364983
0.000472559
0.000487364
0.000490475
0.000488227
0.000398041
0.000468099
0.000571958
0.000599642
0.000604157
0.000575291
0.000443507
0.00068622
0.000619066
0.000755764
0.000653507
0.000715381
0.000651342
0.000759058
0.000972147
0.00101504
0.00102179
0.000829064
0.000823963
0.00150391
0.0834525
0.00135287
0.00159908
0.001649
0.00164307
0.00135833
0.00132517
0.00164153
0.00121425
0.00171976
0.00108291
0.00183445
0.000699415
0.00106312
0.00114142