/*--------------------------------*- C++ -*----------------------------------*\
| =========                 |                                                 |
| \\      /  F ield         | OpenFOAM: The Open Source CFD Toolbox           |
|  \\    /   O peration     | Version:  v2012                                 |
|   \\  /    A nd           | Website:  www.openfoam.com                      |
|    \\/     M anipulation  |                                                 |
\*---------------------------------------------------------------------------*/
FoamFile
{
    version     2.0;
    format      ascii;
    class       surfaceScalarField;
    location    "810";
    object      phi;
}
// * * * * * * * * * * * * * * * * * * * * * * * * * * * * * * * * * * * * * //

dimensions      [1 0 -1 0 0 0 0];
oriented        oriented;


internalField   nonuniform List<scalar> 
50655
(
0.00258227
-0.00360174
-0.00141242
-0.00513598
0.00138647
0.00359188
-0.00339407
0.00393695
0.00445176
-0.00249884
-0.00283416
0.00306222
-0.00370095
-0.00378933
0.00266431
-0.00177193
-0.00485174
0.000808914
0.000206402
-0.00471491
0.00159731
-0.00180472
-0.00719135
0.00238891
-0.0104794
0.00282389
0.000365384
-0.0113023
-0.00345054
0.00416342
-0.0120538
-0.00483668
0.00548577
-0.0129142
-0.00563253
0.00638886
-0.0261918
-0.00931383
0.0223975
-0.048715
-0.0282575
0.0502204
-0.0482984
-0.0527278
0.051614
-0.031091
-0.0711332
0.0531479
-0.00457761
-0.0780105
0.0507142
0.00786784
-0.0547274
0.0414706
-0.00162499
-0.0314986
0.0402186
-0.02086
-0.0216894
0.0401577
-0.0167689
-0.051222
0.0464085
-0.00694431
-0.0550883
0.044706
-0.0386546
0.0313812
-0.041008
0.0188225
-0.0167704
-0.0156835
-0.0755257
0.0497065
0.0202842
-0.0797414
0.0432772
0.0305533
-0.0291172
0.0185411
0.0340199
-0.00380394
0.0364363
0.0179109
-0.0206498
0.0252728
-0.0179338
0.0288214
0.0163381
-0.00948578
0.0182513
0.00329289
-0.00134582
0.0142641
-0.0065087
0.00672273
0.00298359
-0.00542347
7.66567e-05
-0.00120259
-0.0053911
-0.00125973
0.00120897
-0.00631556
0.000263697
0.000643472
-0.00758444
0.000255186
0.000997098
-0.00873455
0.000133248
0.000999731
-0.00913469
-0.000211256
0.000595028
-0.0094061
-0.000627379
0.000882196
-0.00896924
-0.00105277
0.00059963
-0.00834648
-0.00151768
0.000878238
-0.00712146
-0.00196238
0.000720937
-0.0056979
-0.00242321
0.000982784
-0.00382035
-0.00272374
0.000830009
-0.00198289
-0.0029169
0.00106248
0.000903692
-0.00290417
0.000642875
-0.00253498
0.00277016
-0.00545373
0.00503896
0.00101587
-0.0108703
0.0047845
0.000575605
-0.0130243
0.00520017
-0.00311316
-0.0129181
0.00540685
-0.00558002
-0.0054114
0.00467084
-0.012234
0.000512296
0.0056165
-0.0115819
0.000602186
0.00357653
-0.00369205
-0.00150354
0.00208813
-0.00295079
0.00214202
-0.000711902
-0.00451018
0.00218898
-0.000645745
-0.00582365
0.00234709
-0.00105001
-0.00709063
0.00230383
-0.0010518
-0.00859265
0.00249564
-0.00100764
-0.0101594
0.00258178
-0.0010284
-0.0114558
0.00237428
-0.00109109
-0.0123593
0.00201295
-0.00112243
-0.0128278
0.00159985
-0.00114439
-0.0131467
0.00143406
-0.00112842
-0.0137512
0.00156127
-0.000970997
-0.0139592
0.00111754
-0.000924556
-0.0136656
0.000891849
-0.00120092
-0.0136564
0.000777844
-0.000802668
-0.0133826
0.000822194
-0.00111217
-0.0131356
0.000896779
-0.00115968
-0.0129911
0.000839737
-0.000999977
-0.0127153
0.00056973
-0.000861116
-0.012176
0.000120638
-0.000675393
-0.0112743
-0.000455752
-0.00046123
-0.0101527
-0.000916211
-0.000220655
-0.00883467
-0.00101213
-0.000320706
-0.00738597
-0.000762545
-0.000700007
-0.00758252
-0.000694143
0.000878695
-0.0163867
0.000816448
0.00796113
-0.0211615
0.000380405
0.00433388
-0.0226108
0.00113221
0.00025186
-0.0426104
0.0163272
0.00355482
-0.0546017
0.0055183
0.00617476
-0.029474
-0.0164014
-0.00903388
-0.0131221
-0.0149939
-0.00149011
-0.0112687
-0.00400902
0.00207762
-0.0100199
-0.00310492
0.001766
-0.00810293
-0.00345677
0.00143832
-0.00473336
-0.00331576
-0.000149087
-0.00319593
-0.00162273
-0.00446907
0.00460918
-0.00343093
-0.00269987
0.00673869
-0.00862151
0.000876776
0.00621859
-0.00992743
0.00615692
0.00591095
-0.0113359
0.0148958
0.0088215
-0.0177415
0.0284474
0.013815
-0.0276491
0.0248863
0.0196811
-0.0164015
0.0165461
0.00640589
0.00174965
0.00788881
7.01106e-05
0.00843984
-0.00105054
-0.00394726
0.0127517
-0.00444279
-0.0067833
0.0100592
-0.00757474
0.00542341
0.00437911
0.000993896
-0.0102213
0.00207981
-0.00821045
0.00361277
-0.00510456
-0.00427426
0.00738559
-0.0124935
0.00201659
0.00530964
-0.014324
0.00571531
0.00238418
-0.0383803
0.0270374
0.0232454
-0.00712682
-0.0132666
0.037178
-0.00968242
-0.0393718
-0.00477444
0.00930911
-0.00911429
-0.000519222
0.00897934
-0.00745366
0.00268768
0.00960035
-0.00671108
0.00460053
0.00961927
-0.00490337
0.00714377
-0.00134364
0.0112891
-0.00501088
-0.00270841
0.0124671
-0.00193992
-0.00244537
0.00881976
-0.000392354
-0.00420185
-0.00202265
-0.0210993
-0.00218994
0.0295674
-0.0106546
-0.01434
-0.00173237
-0.00711266
-0.00255448
-0.00732363
0.0158936
0.00125073
-0.0102625
0.0219454
0.00105801
-0.00899836
0.0325173
0.000258717
-0.0131974
0.0832665
-0.0022891
-0.0359698
0.0468337
-0.00190841
0.0455345
-0.00234432
0.00750619
-0.00317481
0.0384608
0.00387139
0.0218172
0.00196955
0.0232355
-0.000313237
0.0113227
0.0139349
0.00624935
-0.00798994
9.42931e-05
0.00681158
0.00521829
-0.00149891
0.00732191
0.008189
-0.00153915
0.00712321
-0.0150824
0.00798131
-0.00211998
0.00737049
-0.0153152
0.00850571
-0.00128035
0.00743721
-0.0167148
0.00841743
-0.00132473
0.00742086
-0.0160141
0.0086168
-0.000644701
0.00728618
-0.0165988
0.00861195
-0.000274997
0.00703475
-0.0159898
0.0085653
0.000695682
0.00623523
-0.015454
0.00822951
0.00575219
0.00442066
-0.0169424
0.00745074
0.00149701
-0.00417469
0.0056756
0.00273994
0.000813759
0.00537894
-0.000282008
0.000635863
0.00713865
-0.000736281
0.000790348
0.00801861
-0.00115064
0.000946485
0.00832142
-0.00120436
0.00128316
0.0083879
-0.00131697
0.00150665
0.00856235
-0.00136191
0.00150787
0.00870817
-0.00135187
0.00126979
0.0087195
-0.00137053
0.000940347
0.00883512
-0.00119565
0.00731009
-0.000262703
0.00935803
-0.00200857
-0.0008159
0.0110366
-0.00185407
-0.000852041
0.0123209
-0.00155085
-0.000665576
0.0131068
-0.000314122
-0.000943149
0.0135373
0.000850832
-0.00117647
0.0137146
0.00170842
-0.00133188
0.0137132
0.00223714
-0.0014122
0.0137719
0.00225006
-0.00142858
0.0137266
0.00182622
-0.000975158
0.0137329
0.0013492
-0.000593744
0.0139145
0.00122899
-0.000534276
0.0133015
0.0011472
0.000568069
0.0124487
0.00243518
0.000232734
-0.000268062
0.0126886
-0.000412731
0.00244014
-0.000846508
0.0123494
-0.000237242
0.00280243
-0.000639357
0.0114749
-7.36838e-05
0.00311461
-0.000166617
0.0102111
4.97026e-05
0.000296929
0.00327817
0.0086114
0.000722206
0.00331545
0.000130301
0.00686551
0.00104067
0.00304907
0.000137965
0.0058601
0.000964
0.00224178
8.85083e-05
0.00441642
0.00462396
-0.000849582
0.00286354
0.00428063
-0.000554988
0.00141861
-0.000506358
0.00407691
0.00389816
-0.000408353
0.00560845
-0.000517066
-0.00120937
0.00683261
-0.000410566
-0.000830438
0.00780528
-0.000608357
-0.000380804
0.00817088
-0.000473319
9.10085e-05
0.00822978
-0.000606913
0.000531548
0.00754358
-0.000259516
0.000929126
0.00657147
-0.000296814
0.00125235
0.00476298
0.000286105
0.00150531
0.0020946
0.00111421
0.00153706
-0.00166834
0.00205192
0.00169307
-0.00443453
0.000587321
0.00216088
-0.00596004
-0.000859924
0.00236617
-0.00724138
0.000623139
0.000636256
-0.0136737
0.000507985
0.00587945
-0.024702
-0.00654104
0.0174535
-0.0308534
-0.016072
0.0220582
-0.0390452
-0.025928
0.0338533
-0.031495
0.0235207
0.0161745
-0.0382814
0.00919846
0.0258046
-0.0166327
0.00693417
-0.00456061
0.00438321
-0.0321503
0.0260117
0.00152925
-0.0146463
-0.0233161
0.00577685
-0.0374472
0.00612185
0.0410824
-0.0572605
-0.000782498
0.0288919
-0.0498335
0.0151102
0.0125618
-0.00999328
0.016925
-0.0103006
0.0108888
-0.00246055
0.0188399
0.0079096
0.0112087
-0.0125553
0.0135296
0.00523129
-0.00616338
0.00130355
0.0112204
0.00482094
0.00102203
0.0026674
0.0012834
-0.00104668
0.00155941
0.00272041
-0.00489107
0.00381273
0.00206204
-0.00545326
-0.000526639
0.00218208
-0.00958465
0.00197321
0.0024238
-0.00823124
-0.00369441
0.00202409
-0.0118824
0.00195242
0.00141935
-0.00891906
-0.0041877
0.000597654
-0.0112551
0.00214789
-0.000304922
-0.00733146
-0.00321258
-0.00133908
-0.00817137
0.00228414
-0.00187497
-0.00441459
-0.00172906
-0.00256401
0.00129114
-0.00255662
0.00393557
0.0117805
-0.0105969
0.0113293
0.00661131
-0.00938666
0.0127294
0.00898654
-0.00504958
0.00968079
0.0106063
-0.00242722
0.00396052
0.00956925
0.000883025
0.0128144
-0.00266603
-0.0021269
0.000918693
0.0152625
-0.00575643
0.0042926
-0.00324123
0.00218153
0.0151825
-0.00739284
-0.00304899
0.00330778
0.00714075
0.0105503
-0.00785075
-0.0026628
0.00332763
0.011744
0.0017646
-0.00669042
-0.00197264
0.00120193
0.0161618
-0.00106596
-0.0042466
0.0075225
-0.0004806
-0.00524875
0.01098
-0.000182603
-0.0103417
0.0126211
-0.00898545
-0.0142394
-0.0141243
0.00842619
0.00569785
-0.0240983
0.00411251
-0.0185205
0.00622983
-0.0164346
-0.0114202
0.00926517
0.00798518
0.00961754
-0.0340839
-0.0237048
0.00755643
0.0112091
0.00756117
-0.0100053
-0.0325583
-0.00913084
0.00776495
-0.00160699
7.52628e-05
0.00773295
-0.00654881
-0.0104534
0.0114337
-0.00760639
-0.0141159
0.0105956
0.0104818
-0.000915486
-0.00881359
0.0103006
-0.0014407
0.00789007
-0.00793847
0.00411424
0.0010419
0.00444005
-0.00379841
0.00613516
-0.00634103
0.013972
-0.0121725
-0.0036105
0.0108111
-0.017054
-0.00263291
0.00569902
-0.0169877
-0.00103041
-0.00114916
0.00198387
-0.00819485
0.00822903
0.00974602
-0.00944873
0.0106339
0.0114388
-0.00493737
0.0112003
0.012099
-0.00213933
0.0108655
0.00407877
-0.0106845
0.0112433
0.00284337
-0.00893539
0.0123888
-0.00212232
-0.00481013
0.0119365
-0.00470659
0.00986034
-0.00602567
0.0021104
0.00400367
0.00104067
0.00774532
0.00790908
-0.00169474
0.0107931
0.00907063
0.000183349
0.00783894
0.00627509
-0.00914643
0.0101843
3.91167e-05
-0.00715188
0.00356164
0.003426
0.000179722
0.00161272
-0.00112471
0.00493795
-0.00675972
-0.00153987
-0.00232032
0.0187411
-0.00334905
-0.0196008
0.0169102
-0.00135634
-0.00183216
-0.0163645
-0.0118635
-0.000738327
0.00318343
-0.0087339
-0.0106154
-0.0129942
0.00640108
-0.00594343
-0.00496064
0.00082277
0.00133402
0.000379609
-0.00209084
-0.00423466
-0.000992289
0.00395198
-0.00258167
-0.000414382
0.00178632
-0.00236561
0.00128719
-0.0037946
0.00670467
0.000674185
-0.0110643
0.00065114
-0.00347302
0.0103347
-0.00346036
-0.00448153
-0.018832
0.0138041
-0.0117765
-0.019349
-0.0117658
0.0078738
0.0043169
-0.0265663
-0.015378
0.00259344
0.00933118
0.0105596
-0.035556
-0.0164571
0.0130872
0.0018426
0.0104146
-0.0422731
-0.0146226
0.00985165
9.27172e-05
0.0112919
-0.0436516
-0.0107886
0.00325482
-0.00152237
0.0103302
-0.0431563
-0.00617487
-0.00147984
-0.00183438
0.00888389
-0.0394803
-0.0033491
-0.0044938
0.00407288
-0.0347366
-0.00118135
-0.00710701
0.00648539
-0.00304884
-0.0321761
0.00135186
-0.00611415
0.00560834
-0.00350849
-0.0291309
0.00267183
0.00447862
-0.0039952
-0.00630317
-0.0289338
0.00207792
0.00396495
-0.00356813
-0.00278401
-0.029841
0.000213347
0.00181272
-0.00122586
-0.0277854
-0.00158759
0.00136338
-0.00194502
-0.022991
-0.00262769
0.00153729
-0.00380037
-0.0301806
0.00169897
0.0226455
-0.0172304
-0.0593155
0.0293281
-0.0129062
0.0123423
0.0060486
-0.019921
-0.0013224
-0.0131987
-0.0252005
-0.00921364
-0.0122568
-0.000474816
-0.00876141
-0.0111607
0.000627846
0.000284596
-0.00943244
-0.000572707
0.000513877
-0.00580613
-0.00375557
0.00145728
-0.00310525
-0.00399391
0.00104555
-0.00453571
-0.000261941
-0.00445767
0.000803877
-0.000929166
-0.00684363
0.00204903
0.000273747
-0.010784
0.00220517
0.00165554
-0.0130958
0.000814928
0.00141826
-0.0133633
-0.000355119
0.000552916
-0.0130732
-0.00175087
0.00140677
-0.0236434
0.00142085
0.00907462
-0.0568408
0.0174983
0.0154924
-0.101268
0.00881724
0.0350372
-0.117916
-0.00591701
0.0218714
-0.127261
-0.0116427
0.0202124
-0.133678
-0.0165436
0.0221262
-0.137322
-0.0222361
0.0249954
-0.138642
-0.027304
0.027713
-0.138559
-0.0307866
0.02978
-0.137745
-0.0329374
0.0311979
-0.136287
-0.0341832
0.0318089
-0.13414
-0.0348292
0.0317814
-0.130301
-0.0353371
0.0306262
-0.122333
0.0278453
-0.0366471
-0.103196
0.0208205
-0.0407171
-0.0534097
0.00335332
-0.0537581
-0.022597
-0.00120874
-0.0298229
-0.0123731
-0.00427539
-0.00602583
-0.0120949
0.00199396
-0.00232723
-0.0111952
0.0043341
-0.00530456
-0.00876065
0.00384972
-0.00636472
-0.00424539
0.00401675
-0.00861636
-0.00478439
0.00348448
-0.00301671
-0.00805199
-5.5388e-05
0.00327217
-0.0078133
0.00236673
-0.0026766
-0.0089367
0.00103559
-0.0138066
0.00697761
-0.00220629
-0.0166371
0.00714584
-0.0044253
-0.0189118
0.00764467
-0.00547261
-0.0237666
0.00700499
-0.00225491
-0.053301
0.0187376
0.0106004
-0.0978976
-0.00810621
0.0521291
-0.110886
-0.0316921
0.0439599
-0.112352
-0.0418413
0.0424966
-0.107668
-0.0476816
0.0421751
-0.0989004
-0.0521467
0.0425224
-0.0862286
-0.0543605
0.0408641
-0.0692809
-0.0558566
0.038089
-0.0495604
-0.0568342
0.0363477
-0.0238771
-0.0481157
0.0217957
-0.0375882
0.0132725
-0.0534467
0.0234565
-0.00806517
-0.0592991
0.0257362
-0.0203866
-0.0593956
0.0270658
-0.0274955
-0.0504113
0.0268328
-0.0363433
-0.0403593
0.0246742
-0.035229
-0.0231732
0.0166893
-0.0343426
0.00924007
-0.0328519
0.027024
0.0382423
-0.0566629
0.0507741
0.0496227
-0.0741387
0.0746217
0.0497138
-0.0743812
0.0948098
0.0499372
-0.0709497
0.110575
0.0471332
-0.0637548
0.118825
0.0397973
-0.0488701
0.116812
0.0330068
-0.0318044
0.101146
0.030106
-0.0151599
0.0544514
0.0398729
0.00624836
0.0254503
0.0250411
0.00376369
0.0213471
0.00418276
-0.000184327
0.0194403
0.000596647
0.0012076
0.0158661
0.000303334
0.00316095
0.0091308
-0.000245838
0.00688263
-0.000924114
0.00996714
-0.000962706
-0.00971699
0.00965983
0.000727519
-0.0131005
0.0113014
0.0025704
-0.0142291
0.0122631
0.0040758
-0.0135611
0.0119201
0.00432358
-0.0191461
0.0187204
0.00784042
-0.0286042
0.0248022
0.00381742
0.0235983
-0.019859
-0.000201941
0.0168806
-0.0130404
-0.00040295
0.0084266
-0.00836125
-0.000566442
0.00773759
-0.00769731
-0.00110601
0.00736648
-0.0069359
0.00631221
-0.00647841
0.00344946
0.00545553
-0.00028859
0.00322658
0.00618986
0.00132744
0.00331705
0.00591343
0.00165596
0.00397344
0.00478258
0.0029094
0.0103185
0.0115924
-0.00116254
0.0193877
-0.00899723
-0.000117388
0.00909279
-0.00420077
0.014455
-0.0230296
-0.0114053
0.0434578
-0.0155228
-0.00574948
-0.0018359
-0.000978293
0.00357894
0.00486628
-0.00943925
0.00604909
-0.00259829
0.00361626
-0.00178286
-0.00825822
0.000440638
-0.009166
-0.0102481
-0.0126323
0.0184216
-0.00483275
-0.0307205
0.00322965
0.00366481
0.00405848
-0.0175852
-0.0496195
0.00589134
0.0101398
0.000825822
-0.0581049
-0.0156835
0.02618
-0.00423574
-0.0203863
0.00616419
-0.00325818
-0.0202773
0.00560614
-0.00227662
-0.0206388
0.00530348
-0.000902847
-0.0190215
0.00443462
-0.0149917
0.00402927
-0.0211219
0.00227297
0.00403574
-0.0219327
-0.00133343
0.00262676
-0.0178726
8.47687e-05
0.00545731
0.00164624
-0.0465404
0.0354239
0.00832177
0.0080358
-0.114926
0.0351025
0.0514402
0.0208245
-0.124984
0.0473681
-0.00805881
-0.1258
0.0548631
-0.0219072
-0.117944
0.0646349
-0.0335699
-0.102993
0.0732903
-0.0419897
-0.0839097
0.0770112
-0.0470253
-0.0614296
0.0747702
-0.0483758
-0.0367107
0.074424
-0.050334
0.0505653
-0.0329118
0.0589731
0.0459442
-0.0302852
0.0685389
0.0519079
-0.0352659
0.0688414
0.0530951
-0.0269568
0.0634
0.0508362
-0.0202661
0.0440913
-0.00591795
-0.0882816
0.071931
0.00279363
-0.0980857
0.075556
-0.0158244
-0.0995754
0.079989
-0.0263464
-0.0882639
0.0791732
-0.0395191
0.0718293
-0.0406337
0.0880742
0.0942951
-0.0366605
0.0976783
0.101545
-0.0329049
0.094544
0.101019
-0.0188257
0.0819655
0.096002
-0.00875833
0.0903227
0.00687785
-0.0813013
0.103371
0.0130251
-0.0945215
0.110423
-0.00212176
-0.0984239
0.115861
-0.0119002
-0.0905516
0.116702
-0.0239908
0.111212
-0.0313786
0.0870988
0.124049
-0.0275812
0.0947392
0.1281
-0.0200146
0.0913032
0.126278
-0.00795781
0.0783642
0.120218
0.00220701
0.112015
0.0166903
-0.0724913
0.116574
0.0193749
-0.0844481
0.125298
0.00593935
-0.0868016
0.131856
-0.00420363
-0.0789005
0.134235
-0.0150157
0.131165
-0.0223192
0.0682864
0.131873
-0.0150675
0.0761702
0.134608
-0.00923418
0.0750662
0.131026
0.000957315
0.0641146
0.124642
0.0106707
0.115381
0.0225985
-0.0526209
0.105673
0.0297825
-0.0646663
0.116204
0.0195412
-0.0642364
0.119774
0.00985788
-0.056302
0.125191
0.000518894
0.126083
-0.00408747
0.0352189
0.0191096
0.061314
0.0446043
0.0514929
0.094611
0.0134315
0.0547767
0.0923781
0.0232374
0.0357663
0.048252
0.0451641
0.0408589
0.0444806
0.0364792
0.0514816
-0.012305
0.0268201
0.0153747
0.0143745
-0.0187393
0.0276365
0.0150755
-0.0152971
0.0311008
0.0135056
-0.0135611
0.0290192
0.0141998
-0.0400125
0.0275494
0.040748
-0.000830779
0.0248267
-0.0284145
-0.0082911
0.0384741
0.00579076
-0.0370046
-0.00681293
0.0299451
0.00547361
-0.0370734
-0.00460332
0.0290682
-0.0365304
0.00508273
0.0258646
0.00346061
0.00382053
0.00514161
0.00493518
0.00714405
0.00682044
0.0076034
0.00903473
0.0089205
0.00838482
-0.00414831
-0.0199265
0.0156663
0.00266321
-0.000606787
0.000592906
0.00624099
0.00289626
0.000298413
-0.000535495
0.000354831
0.00408629
-0.00154972
-0.00243644
-0.00132319
0.00411029
-0.00165139
-0.000490289
0.00117437
0.0105885
0.0120794
0.0315822
-0.0531572
0.00538569
0.0177755
-0.00423885
-0.00728942
0.0567832
0.00123687
-0.015055
0.00283974
0.00352161
-0.00654437
0.00504358
0.00398167
-0.00620021
-0.0221943
0.00969925
0.0174984
-0.00938955
-0.0125318
-0.000316578
0.0179264
-0.00256759
0.0239076
-0.0078935
0.04624
-0.0127027
0.0215528
0.0765619
-0.0247577
-0.0326513
0.00457852
0.00707105
0.029749
0.0021169
-0.0175435
0.00802043
0.0136525
-0.0040485
-0.0106457
0.00845542
0.0149536
-0.00404357
-0.0114516
0.0075601
0.0144299
-0.00236488
-0.0112762
0.00612001
0.0127854
-0.0104275
-0.00101652
0.00366797
0.0105248
-0.00879233
0.000632235
0.00872597
-0.00789982
0.00276139
0.00842943
-0.0031513
0.00337713
0.00802812
-0.00279776
0.003144
0.0151757
-0.00808036
0.000855579
0.0392313
-0.0159503
-0.00832416
0.0727561
-0.03889
0.00474659
0.0828288
-0.0276361
0.0168041
0.084391
-0.0234967
0.0211007
0.0818411
-0.0202432
0.0219206
0.0766735
-0.0158238
0.0200886
0.0697531
-0.00874154
0.0147435
0.0603835
0.00167181
0.00676974
0.0418743
0.0174527
0.000128634
0.0146377
0.0413928
-0.0150741
-0.00543365
0.0552252
-0.0360562
-0.00179898
0.0503001
-0.0548066
0.0121936
0.0392486
-0.0540743
0.0154159
0.026362
-0.0303425
0.00949611
0.0287476
-0.0234452
0.00204293
0.0112539
-0.00401894
0.000334339
0.00376388
-0.00213226
-0.000500782
0.00174515
-0.000964611
-0.00212986
0.0032442
-0.00168465
0.00314331
-0.00228873
0.0032712
0.00521274
-0.00148876
0.000323717
0.00656725
-0.00045099
0.00222133
-0.000174034
0.0065443
-0.000587731
0.00182037
0.00590908
-0.0038816
0.00258367
0.00576328
0.00616337
0.000976328
0.0118796
0.0170393
-0.0110292
0.0156413
-0.0104951
0.0235667
0.0242645
-0.0301457
0.0433823
0.0145979
-0.0445388
0.0505215
0.0132365
-0.0628516
0.0462534
0.0263323
-0.0786797
0.029293
0.0269627
-0.0896736
0.00756153
0.0199125
-0.095174
-0.00866897
0.0148682
-0.0985537
-0.0208833
0.0145553
-0.10073
-0.0294353
0.0148339
-0.10091
-0.0351818
0.014181
-0.0975278
-0.0395352
0.0117353
-0.0886543
-0.0439288
0.00651085
-0.0318878
-0.0405712
-0.0447556
-0.0113131
-0.0184217
-0.0104179
-0.0191703
0.00261436
-0.0153714
-0.00709991
0.00132195
-0.00575684
0.000261955
-0.00943283
0.00085649
-0.00379704
0.00166124
-0.00748143
0.000994085
-0.00880781
0.0158268
-0.000176627
-0.00795369
0.015836
-0.00183684
-0.00614929
0.0139275
-0.00216092
-0.00205178
0.0198008
0.00570951
0.0204703
0.106991
-0.0445602
-0.00951774
0.00400953
0.030681
0.00547523
0.00761839
0.0105135
-0.000246874
0.00842747
0.0142803
0.00066796
0.0151379
0.00192632
-0.0162455
-0.0197502
-0.0126614
0.0308126
-0.0202485
0.0462804
-0.0178514
-0.051107
0.106899
-0.0245612
-0.0521538
0.121851
-0.0149782
-0.10441
-0.0444315
0.125676
-0.0301529
-0.075229
-0.0286086
-0.0174317
-0.0288272
-0.0143126
-0.00288697
-0.0402857
0.0170122
-0.00211406
-0.0241355
-0.00526176
0.0279527
-0.00544206
-0.00854485
0.0163571
-0.00784943
-0.00930474
0.0144604
-0.00618212
-0.00945819
-0.0118252
-0.00273309
0.0501495
-0.021235
-0.0125715
-0.00610461
0.000616725
-0.0119141
-0.00848431
-0.000104006
-0.00873815
-0.0071485
-0.00156189
-0.00496985
-0.00440952
-0.00157254
-5.6247e-05
-0.000758459
-0.00377262
-0.000448803
-0.00985786
1.38622e-05
0.000445459
0.00127258
-0.0017046
0.0013724
-0.0020769
0.00335543
0.00174962
-0.00265065
0.00437062
0.00205973
-0.00197988
0.00371304
0.00175288
0.00266833
0.000705771
0.0045134
0.00263261
-0.00106212
0.00471328
0.00383954
-0.000402148
0.00456795
0.00491867
-0.00048376
0.00482534
-0.000748033
-0.00637657
0.0108686
-0.00418669
-0.00620655
0.0108937
-0.00625674
-0.005339
0.0100491
-0.00718263
0.00900848
-0.00778934
0.0065733
0.0118668
-0.00566924
0.00800082
0.0135932
-0.00507027
0.00818796
0.0151136
-0.00451354
0.0149191
-0.00311759
-0.00919805
0.0168597
-0.00132721
-0.00931948
0.0178658
-0.00273694
-0.00965948
0.0177634
-0.00393464
0.0104758
-0.0040109
0.0128652
-0.000417173
0.0102355
-0.00167461
0.00749933
0.0232851
-0.00289886
0.00735535
0.0183017
-0.000382013
0.0172951
0.000736569
-0.00884448
0.0484668
-0.0251924
-0.00519784
0.0421478
-0.0276373
0.0449926
-0.0282859
0.0293921
0.11766
-0.0575416
0.1275
-0.0450302
0.0507779
0.13494
-0.0386758
-0.0205884
0.055413
0.134855
-0.0149306
0.0520264
0.130097
-0.0059747
0.115277
-0.0013273
-0.0502226
0.119749
0.00519516
-0.055946
0.13508
-0.000342769
-0.0534817
0.140786
-0.00947821
-0.0448326
-0.0146215
0.139892
-0.128216
-0.0233145
0.133621
-0.0293195
-0.0128389
-0.0511609
-0.114387
0.0286298
0.119375
-0.106073
-0.0668045
0.118406
-0.0383939
-0.049547
-0.0681005
-0.00477666
0.013872
-0.0135294
-0.0193362
-0.0195544
-0.00997773
-0.00602552
-0.0131237
-0.00290319
-0.0140121
-0.00406986
0.00257642
-0.0143856
-0.0081858
0.00317447
-0.0127461
-0.010622
0.00253109
-0.00980148
-0.0145124
0.00286101
-0.0107524
0.00114394
-0.0137696
0.0160533
-0.0137451
0.000612789
-0.00949593
-7.27276e-05
-0.0153584
0.0144741
-0.00157991
-0.0167577
0.0116536
-0.00271397
-0.0180386
0.00966139
-0.00145951
0.0149514
-0.0254612
0.0110849
0.0252115
0.0187215
0.0207282
-0.0498462
0.0188559
0.0161705
0.0178281
-0.0277745
0.0305694
0.0160533
0.0191717
-0.0470743
0.0213653
0.013429
-0.0227502
0.018397
0.0392785
-0.0422192
0.00893456
0.0152708
0.0201042
0.0463453
-0.0101097
-0.0171627
0.0253914
0.0301056
-0.0202418
-0.0152793
-0.0172245
-0.0205972
0.00991922
-0.0182553
0.00381536
-0.0127862
-0.0179397
0.00437122
-0.0172298
-0.0122989
0.00330577
-0.0161197
-0.014113
0.00228236
-0.0167845
0.00209878
-0.0176591
-0.0170631
0.017449
0.000372175
-0.0162749
-0.000773311
-0.0183787
0.0156371
-0.00199179
0.0130069
-0.00309275
0.0175557
0.0143268
-0.00279209
0.0174297
-0.00140875
0.0164867
0.0182397
-0.0170346
-0.000367291
0.0183844
0.00133119
-0.0151268
0.00285656
-0.0154887
0.00100677
0.0174984
-0.0154092
-0.00120475
0.0144779
-0.00214868
-0.0075286
-0.0160201
0.0235883
0.0168634
-0.0015043
-0.014379
-0.0171402
-0.0261979
-0.0242623
-0.00257892
-0.105231
0.103815
0.00754711
0.00121374
0.0182378
0.0127078
0.0239078
0.0146896
-0.0202585
0.0176504
-0.00846128
0.0179632
-0.0122446
-0.00477283
0.00235907
-0.000511325
-0.00555067
0.00484821
-0.00582539
-0.00170696
-0.00210629
-0.00217468
-0.00379055
0.0131598
-0.000991015
-0.0031621
-0.00140312
-0.00338241
0.0163733
-0.0200693
-0.0115665
0.0154686
0.00688443
-0.0116105
0.0175886
0.00911342
-0.0132754
0.0201989
0.0089325
-0.0142123
0.0229463
0.00891481
0.0301617
0.0119945
0.00989457
0.0134725
0.0124957
0.00948959
0.0132592
0.00991287
0.0078546
0.0119127
0.00975044
0.00607946
0.0107973
0.00841247
0.00999989
0.006998
-0.00220402
0.00342244
-0.00261779
0.00416257
-0.00328548
0.0047584
-0.00392272
0.00540254
0.00651131
0.00166166
0.00290182
0.00142527
0.000512718
0.000411027
0.00139359
-0.000145415
0.00198511
-0.00154741
-2.96307e-05
-0.000931048
0.00194996
0.00096276
-0.000330956
0.000790701
-0.000431426
0.00182856
-0.00111496
0.00121555
-0.000535121
0.000312287
-4.44212e-06
0.00202295
-0.00174336
2.94014e-05
0.00379293
-0.000558847
-0.00359105
0.0111486
-0.00638054
0.00358445
-0.0180123
0.00335087
0.017054
0.00389293
-0.0181212
0.0204266
0.00714078
0.00294049
0.00676519
-0.0170631
0.0208432
0.000292247
0.0059612
0.0197916
-0.0148387
-0.0136271
0.0141874
0.00503687
0.0109817
-0.00739168
0.0171994
-0.00766024
0.0172763
0.0109123
-0.000410054
0.0199797
0.00717749
0.00334009
-0.00115026
0.00152955
-0.0035167
0.000375257
-0.00229188
0.0125971
0.00135505
-0.00233661
0.00079272
0.000618828
-0.000777363
0.00151174
-0.000568041
0.00156043
-0.000392186
-0.00124406
0.00106693
-0.00206989
0.000898857
-0.00021117
-0.000225764
-0.00163444
-0.000455904
-0.00209387
0.000247512
-0.00185566
0.001401
-0.00138065
0.000391935
0.000112122
-0.00188597
0.000170585
-0.00141451
-0.000660994
-0.00126423
-0.00240639
0.0011495
0.00124186
0.000229256
0.000476021
-0.00129625
0.000447933
-0.00168372
-0.000480024
0.000535875
0.000390566
0.000109262
6.9403e-05
-0.000660041
0.00104441
0.000304971
0.000314026
-0.000890331
-0.00161275
0.0028137
-0.000775649
0.000273233
0.000179295
-0.000887949
-0.00113143
0.00380248
0.00137597
-0.00036074
-0.00302696
0.0122741
-0.00264628
-0.00129397
-0.00174776
1.07016e-05
-0.000829883
0.000260158
-0.000727178
0.000329616
-4.12326e-05
-0.00112064
-4.52874e-05
0.00188155
-0.000307521
-0.00162264
-0.0013225
0.00321042
-0.000894019
-0.000171458
-0.00124531
0.00111748
0.00204162
0.000343743
0.000324522
0.000920616
-0.00013023
0.00191411
-0.0014203
-0.000172636
-0.00137085
0.00319678
8.38154e-05
-0.000652482
0.000199068
0.00286111
-0.00405304
0.0133047
-0.00112782
-0.0180437
0.000741905
0.00704719
0.0245449
-0.0164839
0.0219007
0.00640577
-0.0177679
0.0225872
-0.00210566
-0.0148935
-0.00439719
-0.0206808
-0.0218541
-0.00632343
-0.0218855
-0.00574077
0.0151619
-0.00260442
0.0197805
0.0317768
0.0374433
-0.0236195
-0.101072
0.0665961
-0.0967318
0.0700819
-0.107807
0.0713067
-0.0171159
-0.110054
0.0687364
-0.0248683
-0.106606
0.0675032
-0.0296672
-0.0981418
0.0663548
-0.0331977
-0.0860709
0.0637039
-0.0358049
-0.0686851
0.0577696
-0.0379499
-0.0489436
0.0533911
-0.0376851
-0.0388506
0.0427316
-0.0317762
0.00392743
-0.0299169
0.0163312
0.0324382
-0.0455095
0.0142427
0.0445791
-0.043158
-0.00721699
0.0476402
-0.0265918
-0.0343417
0.026686
-0.0511107
-0.0128774
0.0291793
-0.0597684
-0.0245195
0.0326744
-0.0620632
-0.0310704
0.0328389
-0.0556068
-0.0383236
0.0313409
-0.0475341
-0.0354206
0.0268452
-0.0301254
-0.0336809
0.015805
0.00337917
-0.0339433
0.0203504
0.0443573
-0.0619653
0.0432366
0.0554249
-0.0790772
0.068469
0.0546639
-0.0807162
0.0884014
0.0522603
-0.0730172
0.0994617
0.0477041
-0.0596211
0.100367
0.0400624
-0.04179
0.094702
0.0341736
-0.0293191
0.082858
0.0308993
-0.0197755
0.0467964
0.0377941
-0.00230596
0.0225433
0.022915
0.0011416
0.0193736
0.00392171
-0.000856689
0.0179931
0.000505255
0.000772352
0.0148272
0.000142651
0.002913
0.00855991
1.21205e-05
0.0061562
0.00908284
-0.000610551
0.00716747
0.00348681
-0.00164207
0.00455679
0.00389096
-0.00132739
0.00477956
0.00171667
-0.00200225
0.00576828
0.00191981
-0.00298738
0.00550035
0.00310127
-0.00291115
0.00438651
0.00337344
-0.00232916
0.00341176
0.00273113
-0.00181098
0.0056249
0.00165688
-0.00394704
0.0114879
0.00193924
-0.00802073
-0.0201567
0.0321548
-0.00112811
-0.0484715
0.0244214
0.00313434
-0.0622823
0.012067
0.000909852
-0.0667449
0.00116489
0.00242482
-0.0691237
-0.0128099
0.0142842
-0.0733135
-0.0280411
0.0313088
-0.0743344
-0.0434171
0.043501
-0.0716526
-0.0574401
0.0538132
-0.0618157
-0.070132
0.0593431
-0.0443036
-0.080232
0.0617628
-0.0171354
-0.0867344
0.0586029
0.0165025
-0.0827493
0.0481507
0.0318976
-0.0570803
0.0407238
0.0309459
-0.0440134
0.0440428
0.0233154
-0.0345366
0.0412637
0.00927147
-0.025665
0.0388818
-0.00101062
-0.0229514
0.0324316
-0.0348349
0.033075
-0.0501916
-0.0194394
0.0339982
-0.0573027
-0.0342043
0.0405048
-0.0577397
-0.0490303
0.0485926
-0.0492572
-0.0640961
0.0547385
-0.0254207
-0.0817191
0.0569839
0.00463419
-0.0833735
0.0524426
0.0101093
-0.0476099
0.0412694
-0.00735353
-0.0266824
0.0433354
-0.0208069
-0.0281754
0.0408431
-0.00473164
-0.060112
0.0432985
-0.0519651
0.0428603
-0.0148027
-0.0686742
0.00169244
0.0184747
-0.0546318
-0.0396423
0.0284214
-0.0391939
0.00019636
0.0321134
-0.0480802
0.0168117
0.0304463
-0.0782455
0.0313786
0.0409893
-0.126793
0.0319377
0.0541426
-0.1234
0.027582
0.0566667
-0.0960739
0.0285226
0.0515985
-0.0725506
0.0276829
0.0410815
-0.0516193
0.027072
-0.0300479
0.0279159
-0.0367634
-0.0465649
0.0267444
-0.0388132
-0.0559182
0.0225021
-0.0331754
-0.0669155
0.0162939
-0.00470461
-0.0822454
-0.0043037
0.0355685
-0.117777
-0.00625114
0.0606037
-0.12424
0.0114653
0.0750952
-0.117711
0.0219863
0.0816862
-0.102973
0.0252535
0.0808567
-0.0839586
0.0263583
0.0769702
-0.0629632
0.0224502
0.0701073
-0.0410724
0.0189224
0.0656753
-0.0194189
0.010083
0.0595786
0.000817259
0.00550283
0.046478
0.0165007
0.0077404
0.0218553
0.0338169
0.014311
-0.00886737
0.000510935
0.046444
0.0149367
0.00832246
-0.00337206
-0.00882483
-0.00514681
0.014985
-0.00283693
-0.00345117
0.0105601
-0.00237902
0.00752447
-0.000848759
0.0141323
-0.000755508
-0.00490878
0.00199073
-0.00664735
0.0269366
0.0025357
-0.00879326
-0.00769313
-0.00124706
0.0014877
-0.00799006
-0.00357121
0.00141396
-0.00670514
-0.00476269
0.00055851
-0.00497753
-0.00550037
0.000319268
0.00221037
-0.00396583
-0.00054519
0.00490544
-0.00106147
-0.00203238
-0.000318297
-0.000422647
-0.00129537
-0.000742614
-0.000639197
-0.000568331
-0.000583532
0.000406683
-0.00112347
-0.00342057
0.0132157
-0.00548665
-0.0119416
0.00297618
0.0228499
-0.00778167
-0.0100447
0.065267
-0.0314619
-0.0293922
0.0163265
0.0637939
-0.024134
0.0278338
0.0495911
-0.0188137
0.033005
0.0136583
-0.0103523