/*--------------------------------*- C++ -*----------------------------------*\
| =========                 |                                                 |
| \\      /  F ield         | OpenFOAM: The Open Source CFD Toolbox           |
|  \\    /   O peration     | Version:  v2012                                 |
|   \\  /    A nd           | Website:  www.openfoam.com                      |
|    \\/     M anipulation  |                                                 |
\*---------------------------------------------------------------------------*/
FoamFile
{
    version     2.0;
    format      ascii;
    class       volVectorField;
    location    "530";
    object      U;
}
// * * * * * * * * * * * * * * * * * * * * * * * * * * * * * * * * * * * * * //

dimensions      [0 1 -1 0 0 0 0];


internalField   nonuniform List<vector> 
18258
(
(-0.175941 0.113288 0.139021)
(-0.0515213 0.244586 0.159253)
(-0.104708 0.211774 0.0963804)
(-0.0408753 0.0683342 0.0847707)
(-0.226213 0.200225 0.0195342)
(-0.159757 0.357937 0.0178043)
(-0.223284 0.0440925 0.0547235)
(-0.341718 -0.0539262 0.0758114)
(-0.44904 -0.106238 0.108472)
(-0.536079 -0.159926 0.145936)
(-0.621762 -0.217382 0.18007)
(-0.688003 -0.271763 0.30976)
(-0.678752 -0.334465 0.3574)
(-0.622293 -0.445671 0.38595)
(-0.48793 -0.543172 0.36941)
(-0.204692 -0.5876 0.340341)
(0.0744668 -0.374302 0.288625)
(0.0786669 -0.164105 0.298448)
(-0.127828 -0.0784206 0.236868)
(-0.399792 -0.273584 0.116786)
(-0.13865 -0.52631 0.292616)
(-0.197941 -0.36544 0.407092)
(-0.303007 -0.737434 0.301317)
(-0.363546 -0.778889 0.262476)
(-0.135722 -0.7081 0.132895)
(0.00400811 -0.645442 0.183243)
(-0.0173519 -0.34026 0.422777)
(0.174284 -0.11311 0.805029)
(0.299184 -0.0953668 0.892744)
(0.316702 0.0576179 0.912938)
(0.31811 0.185408 0.81422)
(0.166655 0.301841 0.0979833)
(0.0781117 0.13079 -0.431363)
(0.0121714 0.0794196 -0.723962)
(-0.0666264 0.0770554 -0.898216)
(-0.0569127 0.0733596 -1.08038)
(-0.0701997 0.0726034 -1.22044)
(-0.0984021 0.0906955 -1.31478)
(-0.1398 0.081895 -1.36243)
(-0.187281 0.0882404 -1.34838)
(-0.236767 0.0745652 -1.26425)
(-0.283166 0.0837358 -1.11045)
(-0.321811 0.0781734 -0.899589)
(-0.35261 0.0791166 -0.645032)
(-0.362426 0.0816603 -0.352036)
(-0.345706 0.0768801 -0.154158)
(-0.157774 0.174784 -0.196043)
(0.359341 -0.097997 -0.137098)
(0.625056 -0.130093 -0.157615)
(0.672938 -0.112495 -0.167039)
(0.785351 -0.135916 -0.176148)
(0.813114 -0.133168 -0.19359)
(0.507366 -0.00481582 -0.257351)
(0.259829 -0.137979 -0.218052)
(0.113471 -0.0420474 -0.158658)
(0.282378 -0.00980346 -0.169056)
(0.537345 -0.00266065 -0.173726)
(0.791542 -0.0302516 -0.178034)
(1.09186 -0.0349244 -0.175861)
(1.42749 -0.0490661 -0.185324)
(1.762 -0.0647869 -0.183702)
(2.04607 -0.0813433 -0.16679)
(2.24665 -0.093014 -0.138335)
(2.34673 -0.0991146 -0.102704)
(2.35329 -0.0964157 -0.0681048)
(2.29281 -0.0887148 -0.0414592)
(2.19914 -0.0821971 -0.0248598)
(2.10662 -0.0760757 -0.0181646)
(2.03717 -0.0672821 -0.0192239)
(1.99153 -0.0644485 -0.0239255)
(1.96721 -0.0593181 -0.0263929)
(1.95669 -0.0504359 -0.020895)
(1.94246 -0.0399558 -0.00392947)
(1.89905 -0.0251631 0.0236121)
(1.81158 -0.00814377 0.0531799)
(1.69081 0.00919683 0.0764221)
(1.57009 0.0213643 0.0792533)
(1.47741 0.0303054 0.0746193)
(1.39936 0.0373048 0.0699848)
(1.33731 0.0499163 0.0626363)
(1.28653 0.0565685 0.0643389)
(1.19291 0.0437734 0.07772)
(1.09573 0.0184933 0.109029)
(1.01268 0.000193995 0.126356)
(0.905271 -0.0214037 0.11919)
(0.76132 0.0163981 0.144605)
(0.640643 0.0814939 0.132332)
(0.516996 0.100487 0.133058)
(0.380005 0.11784 0.117419)
(0.223749 0.12659 0.0952341)
(0.1198 0.189773 0.0908897)
(0.121366 0.011036 0.196467)
(0.163949 -0.100717 0.142205)
(0.112872 -0.12985 0.0376972)
(0.104289 -0.114996 -0.144633)
(0.21606 -0.21007 -0.373939)
(0.262225 -0.231204 -0.55932)
(0.20375 -0.137767 -0.731085)
(0.105102 -0.0794405 -0.712698)
(0.0361969 0.0604337 -0.486823)
(-0.094924 0.234042 -0.143402)
(-0.217735 0.192058 0.182489)
(-0.234471 0.0643145 0.157408)
(-0.340388 0.014091 0.171755)
(-0.274897 0.136058 0.181061)
(-0.249262 0.284911 -0.0388529)
(-0.106715 0.165533 -0.400563)
(0.0623113 0.00591688 -0.583209)
(0.332152 -0.0932209 -0.633605)
(0.49443 -0.229359 -0.492658)
(0.35092 -0.210811 -0.283335)
(0.271373 -0.192159 -0.10328)
(0.282602 -0.186894 0.0372017)
(0.280305 -0.14012 0.158617)
(0.224538 -0.0989107 0.190429)
(0.395638 -0.0814463 0.179367)
(0.534663 -0.0634595 0.174898)
(0.587133 -0.0522439 0.16313)
(0.698953 -0.0789157 0.159112)
(0.731431 -0.133895 0.130504)
(0.600097 -0.134391 0.133343)
(0.453796 -0.151878 0.137898)
(0.460902 -0.186111 0.033008)
(0.610077 -0.162976 0.0489475)
(0.735374 -0.162142 0.0464187)
(0.903774 -0.141833 0.0789268)
(1.08742 -0.109926 0.108554)
(1.18885 -0.077775 0.146157)
(1.20777 -0.0108649 0.138209)
(1.24495 -0.00925887 0.118925)
(1.3351 -0.00711529 0.138418)
(1.37699 -0.0019205 0.128522)
(1.36867 -0.0126404 0.1571)
(1.32809 -0.0482372 0.192002)
(1.32245 -0.0511529 0.188916)
(1.28536 -0.0620303 0.149877)
(1.27862 -0.0601826 0.132951)
(1.25749 -0.0476644 0.106661)
(1.24893 -0.045664 0.108738)
(1.20105 0.00485984 0.107528)
(1.19403 0.0283994 0.13634)
(1.07618 0.137782 0.270444)
(1.22585 0.0533234 0.253144)
(1.2174 0.0204622 0.157226)
(1.26599 -0.0207141 0.126593)
(1.27818 -0.0248948 0.117288)
(1.28879 -0.03818 0.142144)
(1.30769 -0.0415063 0.181492)
(1.35018 -0.0367274 0.215516)
(1.38597 -0.0367307 0.220461)
(1.42285 -0.012888 0.181849)
(1.43614 -0.00209135 0.136878)
(1.51233 -0.00667804 0.149995)
(1.61032 -0.0168485 0.158132)
(1.74947 -0.0317398 0.142584)
(1.88146 -0.0543029 0.0481308)
(1.96276 -0.0757558 -0.0719627)
(1.98202 -0.0905932 -0.164953)
(1.96448 -0.0965895 -0.201128)
(1.94807 -0.0969087 -0.195015)
(1.95816 -0.0912777 -0.175179)
(2.00511 -0.0827356 -0.144712)
(2.08656 -0.070273 -0.108072)
(2.19776 -0.0600238 -0.08418)
(2.31206 -0.0596988 -0.112985)
(2.38914 -0.0608006 -0.17331)
(2.39196 -0.0584225 -0.277191)
(2.28617 -0.0501972 -0.392429)
(2.07078 -0.0425629 -0.483832)
(1.77045 -0.0367802 -0.540308)
(1.42668 -0.0316348 -0.54911)
(1.08073 -0.0193556 -0.527925)
(0.792304 -0.0244029 -0.459518)
(0.536731 -0.0157958 -0.415524)
(0.28297 -0.0213336 -0.386804)
(0.109194 -0.0400069 -0.360576)
(0.102339 -0.0418534 -0.637028)
(0.0774652 -0.0371021 -0.873051)
(0.0507714 -0.0391287 -1.05759)
(0.0118514 -0.0404398 -1.17634)
(-0.0232916 -0.0281384 -1.21621)
(-0.0599559 -0.0156559 -1.16875)
(-0.0937246 0.00340224 -1.03983)
(-0.119133 0.0272439 -0.822615)
(-0.12103 0.0839649 -0.56095)
(-0.146431 0.132879 -0.0392529)
(-0.193337 0.0256457 0.571108)
(-0.209354 -0.0339179 0.757696)
(-0.227713 -0.0028338 0.926421)
(-0.232944 -0.045831 1.06872)
(-0.318601 -0.105291 1.13211)
(-0.371798 -0.112366 1.1449)
(-0.370407 -0.233936 1.00493)
(-0.29891 -0.252816 0.771163)
(-0.460527 -0.669023 0.687485)
(-0.485963 -0.546618 0.705401)
(-0.414074 -0.41404 0.832813)
(-0.54958 -0.767988 0.858576)
(-0.684058 -0.833475 0.606462)
(-0.474701 -0.756178 0.800002)
(-0.435785 -0.57597 0.742575)
(-0.783711 -0.526247 0.750325)
(-0.902646 -0.409224 0.860682)
(-0.530785 -0.707326 0.82494)
(-0.440134 -0.577243 0.665865)
(-0.320516 -0.318987 0.405675)
(-0.299471 -0.181027 0.399588)
(-0.282948 -0.144988 0.353064)
(-0.234242 0.112231 0.113695)
(-0.162219 0.2974 -0.418655)
(-0.152166 0.188443 -0.639198)
(-0.132313 0.0284933 -0.914338)
(-0.0871631 -0.0572603 -1.08627)
(-0.0289028 -0.0696697 -1.23408)
(0.0382223 -0.102247 -1.26882)
(0.097939 -0.0988612 -1.23379)
(0.172534 -0.109529 -1.11983)
(0.216528 -0.123637 -0.919908)
(0.26087 -0.14683 -0.705449)
(0.249778 -0.13944 -0.398379)
(0.419343 -0.0500865 -0.637288)
(0.773818 -0.118647 -0.45641)
(0.729201 -0.109721 -0.411684)
(0.630335 -0.0754547 -0.404318)
(0.564748 -0.105008 -0.41062)
(0.127395 -0.100482 -0.521609)
(0.175778 -0.115922 -0.907789)
(0.256702 -0.223982 -1.05989)
(0.342394 -0.282148 -0.94831)
(0.389769 -0.351541 -0.509864)
(0.199243 0.038588 0.132775)
(0.265079 0.122271 0.178646)
(0.429344 -0.324099 0.335619)
(0.516353 -0.529191 0.505381)
(0.545889 -0.522979 0.552068)
(0.412884 -0.235649 0.677938)
(0.471782 -0.338091 0.564832)
(0.487034 -0.610178 0.545858)
(0.70422 -0.673171 0.318116)
(0.746392 -0.489183 0.453798)
(0.798577 -0.345846 0.599347)
(0.235686 -0.22598 0.576277)
(-0.236226 -0.269118 0.829538)
(-0.172442 -0.191463 0.680795)
(-0.672676 -0.298961 0.820181)
(-0.468972 -0.182735 0.69565)
(-0.319709 -0.00471971 0.543528)
(-0.218435 0.17845 -0.295181)
(-0.192618 -0.0430098 -0.616693)
(-0.0574323 -0.169739 -1.10017)
(0.104338 -0.158642 -1.24989)
(0.276002 -0.0878048 -1.11782)
(0.43707 -0.108482 -0.698687)
(0.506974 -0.0742759 -0.622641)
(0.501455 -0.0435038 -0.611537)
(0.552394 -0.0877082 -0.636144)
(0.595036 -0.120909 -0.728581)
(0.402454 -0.0428408 -0.679769)
(0.361008 -0.079516 -0.660225)
(0.13581 -0.114226 -0.668942)
(-0.110796 -0.0490981 -0.580505)
(0.296227 0.00522836 -0.590323)
(0.355794 0.0149548 -0.608215)
(0.641029 -0.0970603 -0.6444)
(0.575911 -0.0977764 -0.373799)
(0.271735 0.0735226 -0.359074)
(0.274375 0.0545368 -0.240258)
(-0.303596 -0.0397508 0.116649)
(-0.307983 0.142979 -0.00558131)
(-0.283063 -0.025457 -0.448254)
(0.088785 -0.202087 -0.575786)
(0.362269 -0.280663 -0.568995)
(0.725937 -0.346466 -0.405844)
(0.810357 -0.419425 -0.377878)
(0.771586 -0.291529 -0.295415)
(0.812898 -0.365938 -0.219534)
(0.827561 -0.487828 -0.28426)
(0.740311 -0.433158 -0.278649)
(0.719355 -0.306565 -0.331478)
(0.746945 -0.252406 -0.341625)
(0.792469 -0.312181 -0.21217)
(0.804632 -0.367734 -0.160589)
(0.892054 -0.465316 -0.156703)
(1.15775 -0.631696 -0.117805)
(1.61597 -0.726992 -0.0988469)
(1.99297 -0.672414 -0.0382307)
(2.14952 -0.490274 0.0471796)
(2.06955 -0.291244 0.0951833)
(1.90427 -0.163431 0.102613)
(1.80678 -0.0954116 0.0991593)
(1.70998 -0.000761647 0.0986899)
(1.57241 0.0872358 0.0908181)
(1.43499 0.105253 0.0477934)
(1.33045 0.0554108 0.0270145)
(1.2406 -0.00663728 0.0212435)
(1.13879 -0.0560549 0.0228823)
(1.05488 -0.0805328 0.0210096)
(0.996979 -0.0638897 0.0164696)
(0.820616 -0.111403 -0.024323)
(0.715896 0.00101696 0.0091038)
(0.632643 0.0669545 0.00834045)
(0.497112 0.0214077 0.00598962)
(0.359071 -0.0620946 -0.0135624)
(0.138919 -0.147566 -0.0324897)
(0.225405 -0.308717 0.00136274)
(0.353145 -0.0821159 0.0119803)
(-0.00264303 -0.230513 -0.00925432)
(0.0428437 -0.546273 -0.0505578)
(0.011845 -0.712826 -0.0526983)
(-0.00819035 -0.876738 -0.0533163)
(-0.0261416 -1.00677 -0.0650474)
(-0.0361829 -1.10267 -0.0959734)
(-0.046742 -1.15702 -0.105277)
(-0.0582957 -1.21427 -0.118402)
(-0.0885231 -1.27595 -0.134388)
(-0.113612 -1.32062 -0.149698)
(-0.137578 -1.35428 -0.162612)
(-0.1596 -1.37588 -0.173669)
(-0.178616 -1.3872 -0.18333)
(-0.194018 -1.38885 -0.190041)
(-0.206167 -1.38178 -0.193897)
(-0.216216 -1.36711 -0.194022)
(-0.22481 -1.34524 -0.192112)
(-0.233125 -1.3148 -0.18667)
(-0.240813 -1.27391 -0.178317)
(-0.246273 -1.21966 -0.165264)
(-0.244156 -1.15053 -0.147502)
(-0.191164 -1.07111 -0.127101)
(-0.141357 -0.968522 -0.112757)
(-0.165942 -0.868092 -0.0796444)
(-0.189987 -0.754221 -0.0820636)
(-0.20522 -0.542781 -0.0856643)
(-0.274108 -0.44997 -0.0921681)
(0.0222007 0.0535804 -0.116391)
(-0.350949 -0.308172 0.0250161)
(-0.231847 -0.617307 -0.0547688)
(-0.270643 -0.0992005 -0.0112465)
(-0.458356 -0.182358 0.0644665)
(-0.679101 -0.198592 0.0822083)
(-0.842571 -0.209188 0.114041)
(-0.954015 -0.223052 0.144168)
(-1.03472 -0.232455 0.203736)
(-1.11799 -0.244259 0.245254)
(-1.18715 -0.244171 0.301972)
(-1.20085 -0.248425 0.336238)
(-1.17394 -0.250213 0.366155)
(-1.1071 -0.248953 0.394464)
(-0.996419 -0.243311 0.422659)
(-0.84195 -0.23036 0.454079)
(-0.668297 -0.206188 0.4935)
(-0.421173 -0.147224 0.542496)
(-0.138772 -0.118417 0.566339)
(-0.157427 0.0285735 0.8223)
(-0.160918 0.0830678 1.04261)
(-0.160606 0.115396 1.11249)
(-0.161841 0.164582 1.02115)
(-0.165388 0.153661 0.838554)
(-0.152519 0.131563 0.568113)
(-0.124393 0.143656 0.286119)
(-0.225604 0.43977 0.371227)
(-0.50721 0.467629 0.335391)
(-0.69199 0.480592 0.339441)
(-0.916742 0.46532 0.332837)
(-1.09875 0.424541 0.308738)
(-1.22567 0.353087 0.265934)
(-1.28121 0.27318 0.218753)
(-1.26387 0.206056 0.181486)
(-1.23092 0.147881 0.158215)
(-1.18807 0.115196 0.140308)
(-1.09872 0.0925016 0.0901695)
(-0.957098 0.0451284 0.069833)
(-0.765945 -0.0207619 0.0593875)
(-0.499802 -0.113991 0.01899)
(-0.252466 -0.20772 -0.0191222)
(-0.273638 -0.197513 -0.0665459)
(-0.317905 -0.176947 0.00764871)
(-0.314117 -0.174144 0.058701)
(-0.272235 -0.156489 0.149709)
(-0.380538 -0.233555 0.117239)
(-0.422336 -0.296797 0.117258)
(-0.32625 -0.287821 0.175901)
(-0.269205 -0.214796 0.0436727)
(-0.140829 -0.100559 -0.0271853)
(-0.140803 -0.0767623 -0.00872196)
(-0.138756 -0.074068 -0.0365728)
(-0.169527 -0.0556185 -0.0687883)
(-0.167945 -0.501419 -0.149527)
(-0.126417 -0.479462 -0.13961)
(-0.110707 -0.446927 -0.0973808)
(-0.100542 -0.423787 -0.147355)
(-0.266122 -0.537597 -0.0328803)
(-0.275647 -0.574891 -0.0273203)
(-0.282781 -0.631078 -0.085859)
(-0.336633 -0.582514 -0.0219581)
(-0.339665 -0.529619 0.0535718)
(-0.301084 -0.358902 0.0836456)
(-0.443983 -0.316896 0.113659)
(-0.360944 -0.431584 0.0391743)
(-0.346541 -0.522321 0.0125573)
(-0.377321 -0.508307 -0.0252778)
(-0.428079 -0.394347 0.0308703)
(-0.496858 -0.346463 0.0721329)
(-0.528459 -0.254792 0.162998)
(-0.590759 -0.215396 0.240688)
(-0.679629 -0.197496 0.255259)
(-0.576138 -0.206655 0.21086)
(-0.516368 -0.187782 0.180514)
(-0.54461 -0.184941 0.117264)
(-0.539181 -0.172026 0.0914831)
(-0.495634 -0.18422 0.000560409)
(-0.760837 -0.0866521 0.064305)
(-0.970696 -0.00541762 0.089442)
(-1.0782 0.0521046 0.103342)
(-1.12735 0.0749927 0.13791)
(-1.16508 0.035827 0.237544)
(-1.24969 0.06901 0.266814)
(-1.31568 0.119409 0.348696)
(-1.32941 0.170835 0.43142)
(-1.27232 0.221912 0.523986)
(-1.14771 0.260929 0.603797)
(-0.975298 0.281314 0.648524)
(-0.775397 0.283476 0.65778)
(-0.623365 0.288507 0.644818)
(-0.342715 0.272239 0.644752)
(-0.436592 0.244633 0.875275)
(-0.46866 0.227261 1.00356)
(-0.461535 0.179427 1.08202)
(-0.442322 0.12319 1.01424)
(-0.440875 0.0581728 0.798158)
(-0.711925 -0.00525304 0.744554)
(-0.722549 0.0712911 0.944978)
(-0.741309 0.117119 1.02366)
(-0.746179 0.16407 0.979721)
(-0.695854 0.198586 0.872887)
(-0.838141 0.186231 0.862762)
(-0.880138 0.145746 0.965221)
(-0.883069 0.0882742 1.00115)
(-0.873394 0.0419132 0.92648)
(-0.867089 -0.0390645 0.707062)
(-1.0101 -0.0602982 0.675825)
(-1.02457 0.0205115 0.901132)
(-1.03748 0.0695305 0.966235)
(-1.04559 0.121973 0.944246)
(-1.02055 0.17401 0.854298)
(-1.16391 0.162972 0.804089)
(-1.16456 0.110549 0.892746)
(-1.14795 0.0571367 0.914511)
(-1.13088 0.00646596 0.859373)
(-1.1109 -0.0730532 0.640042)
(-1.17088 -0.0836758 0.595406)
(-1.19628 -0.00619678 0.796745)
(-1.22253 0.0436285 0.839948)
(-1.25176 0.0918312 0.811398)
(-1.26933 0.14137 0.716768)
(-1.31868 0.110866 0.609986)
(-1.29031 0.0688577 0.709058)
(-1.252 0.0250175 0.747049)
(-1.21673 -0.0217055 0.716237)
(-1.18677 -0.0934552 0.539665)
(-1.15349 -0.104673 0.472598)
(-1.18146 -0.0413503 0.621189)
(-1.22016 0.000225184 0.640479)
(-1.27436 0.0391773 0.606187)
(-1.30732 0.0742822 0.508866)
(-1.2243 0.0357279 0.414006)
(-1.18763 0.00291511 0.499811)
(-1.12802 -0.0321454 0.530892)
(-1.08593 -0.0600506 0.519978)
(-1.03986 -0.111729 0.38666)
(-0.919007 -0.120095 0.315097)
(-0.923212 -0.10933 0.357981)
(-0.972468 -0.080337 0.438036)
(-0.956371 -0.0869888 0.424794)
(-0.927356 -0.102592 0.39429)
(-1.004 -0.0683746 0.380977)
(-0.995689 -0.0630321 0.306988)
(-1.00035 -0.0391305 0.282376)
(-1.04334 -0.0271634 0.208778)
(-1.03835 -0.00951308 0.202125)
(-0.805721 -0.105124 0.145011)
(-0.818607 -0.125142 0.157429)
(-0.787683 -0.128333 0.215767)
(-0.823604 -0.141408 0.248871)
(-0.609586 -0.281541 0.132446)
(-0.556564 -0.291238 0.114142)
(-0.503115 -0.326647 0.131695)
(-0.41977 -0.399326 0.115197)
(-0.396551 -0.383768 0.148611)
(-0.487808 -0.28398 0.164444)
(-0.605582 -0.238924 0.18288)
(-0.614752 -0.267698 0.0961257)
(-0.512967 -0.377676 0.04313)
(-0.439212 -0.459785 0.0272089)
(-0.397046 -0.526001 0.0567248)
(-0.383729 -0.697549 0.120854)
(-0.386834 -0.662936 0.126745)
(-0.405065 -0.380084 0.105566)
(-0.407916 -0.536266 0.0801289)
(-0.3989 -0.601562 0.0423371)
(-0.215454 -0.787682 -0.160331)
(-0.19318 -0.793382 -0.260774)
(-0.115254 -0.703447 -0.370085)
(-0.0785492 -0.623359 -0.386138)
(-0.0450751 -0.587994 -0.34837)
(-0.0134834 -0.554921 -0.301839)
(0.0316834 -0.500918 -0.232086)
(0.124098 -0.454336 -0.108895)
(0.12468 -0.578807 -0.1219)
(0.116806 -0.634989 -0.120142)
(0.0848971 -0.692827 -0.15768)
(0.0923395 -0.747367 -0.155911)
(0.100526 -0.803972 -0.175121)
(0.118312 -0.832208 -0.167168)
(0.126333 -0.838834 -0.152904)
(0.126508 -0.824802 -0.130233)
(0.117754 -0.788534 -0.0956771)
(0.104266 -0.731271 -0.042199)
(0.0362031 -0.649975 0.0342692)
(0.00259361 -0.539936 0.156253)
(0.0172575 -0.292386 0.363234)
(-0.153423 0.0243805 0.448596)
(-0.370152 0.097907 0.348904)
(-0.39421 -0.037319 0.257498)
(-0.220943 -0.173275 0.251361)
(-0.182843 -0.190899 0.268163)
(-0.160043 -0.181483 0.215282)
(-0.0975322 -0.149555 0.207203)
(-0.00504773 -0.0524859 0.0767206)
(-0.0329684 0.104632 0.0819718)
(-0.0800837 0.142367 0.0810389)
(-0.0483759 0.207888 0.172553)
(-0.00183063 0.173445 0.196319)
(0.0154651 0.015022 0.145635)
(-0.0514974 -0.0389608 0.231584)
(0.0225414 0.0816935 0.327908)
(-0.00534772 -0.0710346 0.28861)
(0.0738158 0.13906 0.25059)
(0.0887959 -0.0246601 0.226031)
(-0.0232318 -0.250627 0.455193)
(0.0476284 -0.353424 0.54518)
(0.171195 -0.495131 0.517136)
(0.169741 -0.688213 0.354668)
(0.0769796 -0.813346 0.146386)
(0.0589567 -0.886096 -0.00653839)
(0.0656104 -0.92149 -0.119041)
(0.0634606 -0.948214 -0.1975)
(0.0603819 -0.963035 -0.248773)
(0.0522579 -0.961394 -0.27961)
(0.0420894 -0.941605 -0.293057)
(0.0294739 -0.904116 -0.28993)
(0.0238678 -0.829167 -0.250053)
(0.00745463 -0.783566 -0.329262)
(0.0436627 -0.702673 -0.225587)
(0.0477475 -0.652497 -0.211465)
(0.0449405 -0.635196 -0.232239)
(0.00473815 -0.701169 -0.325795)
(-0.0225321 -0.740926 -0.383773)
(-0.0572807 -0.776471 -0.411555)
(-0.0731469 -0.843362 -0.402433)
(-0.131726 -0.903754 -0.346932)
(-0.093751 -0.968048 -0.333087)
(-0.0887207 -0.97873 -0.374114)
(-0.0536832 -0.917435 -0.418861)
(-0.0434965 -0.867341 -0.43266)
(-0.0176931 -0.82497 -0.404962)
(-0.00943492 -0.868338 -0.341849)
(-0.039129 -0.900806 -0.374945)
(-0.0558443 -0.947599 -0.397491)
(-0.023529 -0.990564 -0.40658)
(-0.0484899 -1.05889 -0.421517)
(-0.0665166 -1.0416 -0.425111)
(-0.093202 -0.919507 -0.345996)
(-0.186171 -0.761125 -0.225436)
(-0.197311 -0.614263 -0.0420216)
(-0.0994325 -0.732745 -0.198415)
(-0.0793011 -0.83867 -0.261066)
(-0.0592532 -0.927826 -0.324906)
(-0.060902 -0.945368 -0.335568)
(-0.0279115 -0.828697 -0.382824)
(-0.0241454 -0.723759 -0.339261)
(-0.0323265 -0.54114 -0.256315)
(-0.0167141 -0.35295 -0.166369)
(0.0358097 -0.0884934 -0.212475)
(-0.246097 -0.432939 0.0722044)
(-0.327302 -0.460563 0.0255672)
(0.217936 -0.119446 -0.243465)
(-0.173026 -0.247176 0.0422231)
(-0.217994 -0.266333 -0.118335)
(-0.258293 -0.268597 -0.104284)
(-0.208356 -0.281461 -0.0220182)
(0.0810122 0.141182 -0.219833)
(0.102586 0.0601143 -0.232852)
(0.100687 4.55207e-05 -0.262265)
(0.0957059 -0.000278065 -0.266906)
(-0.0806568 -0.429277 -0.203208)
(-0.133457 -0.449649 -0.223685)
(-0.186581 -0.457979 -0.207415)
(-0.249523 -0.444799 -0.169679)
(-0.169159 -0.54703 -0.184667)
(-0.127022 -0.558815 -0.257945)
(-0.0965017 -0.565087 -0.292441)
(-0.0609985 -0.55331 -0.29306)
(-0.0510624 -0.742233 -0.350246)
(-0.0817931 -0.756871 -0.332989)
(-0.106503 -0.769198 -0.282409)
(-0.14734 -0.759521 -0.195184)
(-0.134643 -0.82125 -0.18271)
(-0.12892 -0.882135 -0.200728)
(-0.0982497 -0.904746 -0.298054)
(-0.072803 -0.87183 -0.37472)
(-0.0494296 -0.851571 -0.401343)
(-0.0770684 -0.967023 -0.37189)
(-0.11236 -0.98878 -0.336608)
(-0.13829 -1.00905 -0.284314)
(-0.137416 -1.09166 -0.347469)
(-0.0802942 -1.06594 -0.400221)
(-0.0727186 -1.14355 -0.441697)
(-0.049388 -1.12195 -0.47438)
(-0.0268048 -1.11291 -0.459709)
(-0.00311213 -1.04108 -0.416172)
(0.012299 -1.073 -0.40715)
(-0.0126199 -1.15141 -0.470438)
(-0.0398988 -1.17857 -0.494919)
(-0.0687465 -1.20684 -0.463635)
(-0.131802 -1.22744 -0.379567)
(-0.135145 -1.16514 -0.369695)
(-0.283973 -1.0454 -0.225494)
(-0.457838 -1.14495 -0.0769634)
(-0.464235 -1.09901 -0.0674935)
(-0.416428 -1.04467 -0.0648447)
(-0.30322 -1.0352 -0.0739547)
(-0.255952 -0.966487 -0.0641707)
(-0.309533 -0.944012 -0.0577533)
(-0.342666 -0.848265 -0.0423166)
(-0.378386 -0.713042 -0.0379882)
(-0.474126 -0.626459 -0.0368059)
(-0.410232 -0.401291 -0.0342323)
(-0.465351 -0.660464 -0.0058951)
(-0.31708 -0.457429 0.0245176)
(-0.63885 -0.398628 0.00540185)
(-0.815732 -0.379278 0.0601286)
(-0.918166 -0.384434 0.0846037)
(-0.968086 -0.397224 0.124324)
(-0.980074 -0.525216 0.0977502)
(-0.940511 -0.689246 0.0653547)
(-0.924241 -0.749952 0.0524875)
(-0.874794 -0.848218 0.0364427)
(-0.859193 -0.895353 0.0304713)
(-0.821373 -0.927594 0.00761587)
(-0.70413 -0.96716 -0.0230157)
(-0.59297 -1.00162 -0.0420278)
(-0.627215 -0.952264 -0.0172247)
(-0.485412 -0.971223 -0.030754)
(-0.503338 -0.892988 -0.0301696)
(-0.530954 -0.796603 -0.0233322)
(-0.559806 -0.730486 -0.0195274)
(-0.68688 -0.712138 -0.00981166)
(-0.67543 -0.597954 -0.0078015)
(-0.824532 -0.577073 0.0303332)
(-0.918784 -0.559478 0.0503973)
(-0.881723 -0.696855 0.0231431)
(-0.800834 -0.704348 0.0121914)
(-0.777968 -0.78946 0.00227872)
(-0.661379 -0.797873 -0.0107831)
(-0.636229 -0.882192 -0.0170494)
(-0.748925 -0.865842 -0.00513782)
(-0.825909 -0.850285 0.00444566)
(-0.863517 -0.772746 0.0135117)
(-0.802 -0.73865 -0.0117865)
(-0.624322 -0.611778 0.00179782)
(-0.8475 -0.659455 0.0116679)
(-0.868369 -0.518199 0.0520163)
(-0.870779 -0.379701 0.0580858)
(-0.843553 -0.282146 0.121519)
(-0.832608 -0.30216 0.0764644)
(-0.879257 -0.350567 0.0525333)
(-0.875428 -0.203855 0.128992)
(-0.894359 -0.184181 0.174037)
(-0.760882 -0.161447 0.158376)
(-0.766444 -0.128985 0.259049)
(-0.777606 -0.120685 0.301738)
(-0.821141 -0.108573 0.355066)
(-0.828544 -0.119187 0.352325)
(-0.642001 -0.181602 0.250621)
(-0.607178 -0.173521 0.24808)
(-0.567374 -0.18037 0.215255)
(-0.551066 -0.175512 0.188737)
(-0.568934 -0.191116 0.12021)
(-0.338454 -0.194607 0.0765076)
(-0.320224 -0.189104 0.101386)
(-0.329206 -0.191837 0.113741)
(-0.360471 -0.198692 0.123881)
(-0.448866 -0.216776 0.141133)
(-0.404988 -0.253227 0.0589938)
(-0.381815 -0.28476 0.0675926)
(-0.410363 -0.340778 0.0463745)
(-0.315711 -0.426563 0.0351095)
(-0.311474 -0.394045 0.0482306)
(-0.283413 -0.415869 0.0146721)
(-0.192797 -0.419121 -0.0213454)
(-0.33687 -0.253892 0.0346756)
(-0.40268 -0.330592 0.0405015)
(-0.24809 -0.457 -0.00738862)
(-0.291462 -0.459372 -0.000486619)
(-0.451473 -0.320954 0.0713867)
(-0.524233 -0.298771 0.130789)
(-0.497784 -0.318432 0.135924)
(-0.470814 -0.336599 0.111027)
(-0.45877 -0.350428 0.0940598)
(-0.493383 -0.372986 0.00838658)
(-0.710916 -0.317662 0.0630482)
(-0.718071 -0.529596 0.0388354)
(-0.549291 -0.554075 -0.00196656)
(-0.510218 -0.606705 -0.00425296)
(-0.466046 -0.648957 -0.017768)
(-0.437249 -0.652234 -0.0215721)
(-0.413118 -0.530773 -0.0234258)
(-0.411433 -0.540824 -0.0487161)
(-0.410328 -0.541275 -0.0346439)
(-0.335637 -0.550289 -0.0175069)
(-0.267745 -0.595679 -0.00777943)
(-0.319889 -0.580611 -0.00399424)
(-0.40364 -0.512778 0.00676601)
(-0.332186 -0.535176 -0.00456171)
(-0.439103 -0.630097 -0.0121606)
(-0.29311 -0.473043 -0.00553339)
(-0.210634 -0.539499 -0.0187939)
(-0.281436 -0.524402 -0.0167263)
(-0.394634 -0.4359 -0.00105887)
(-0.414057 -0.36261 -0.010706)
(-0.260783 -0.39408 -0.0114374)
(-0.157178 -0.422674 -0.0368613)
(-0.136564 -0.399223 -0.0232033)
(-0.238313 -0.205161 0.0218746)
(-0.382833 -0.342754 -0.00238189)
(-0.252067 -0.474367 -0.0201937)
(-0.219335 -0.467771 -0.0241477)
(-0.122254 -0.392556 -0.0305853)
(-0.219266 -0.194302 0.0386979)
(-0.347013 -0.337804 0.0117917)
(-0.36628 -0.363105 0.0538991)
(-0.195998 -0.510859 -0.0113515)
(-0.174214 -0.467823 0.0181396)
(-0.110068 -0.419956 0.00126927)
(-0.22235 -0.228894 0.0442246)
(-0.325959 -0.341724 0.0520027)
(-0.335055 -0.3388 0.0565695)
(-0.180669 -0.463012 0.0161514)
(-0.109362 -0.408727 -0.000574441)
(-0.231895 -0.220308 0.0616012)
(-0.285902 -0.221329 0.0769442)
(-0.240421 -0.230101 0.0706607)
(-0.3503 -0.336845 0.0780183)
(-0.189726 -0.465115 0.0477297)
(-0.117881 -0.415438 0.0366303)
(-0.14057 -0.449512 -0.00462832)
(-0.196556 -0.497395 0.0251233)
(-0.381666 -0.350517 0.0787692)
(-0.334387 -0.625195 -0.00403175)
(-0.35585 -0.631898 -0.011992)
(-0.499435 -0.511664 0.057726)
(-0.651391 -0.444539 0.0981994)
(-0.66679 -0.286666 0.136243)
(-0.798179 -0.271494 0.170434)
(-0.890852 -0.320659 0.16633)
(-1.02102 -0.488775 0.125977)
(-1.10777 -0.495115 0.167697)
(-1.13265 -0.502765 0.192851)
(-1.1127 -0.505149 0.215837)
(-1.04948 -0.501462 0.238712)
(-0.943981 -0.490551 0.260594)
(-0.79519 -0.467263 0.287185)
(-0.640718 -0.432231 0.326703)
(-0.398249 -0.380658 0.395069)
(-0.164806 -0.292002 0.482439)
(0.0378627 -0.149906 0.486885)
(0.334154 -0.158271 0.428492)
(0.335585 -0.217219 0.378953)
(0.20465 -0.126995 0.488498)
(0.271867 -0.00222228 0.767398)
(0.283083 0.0472328 1.03268)
(0.26846 0.0821282 1.14224)
(0.25065 0.134477 1.09149)
(0.212992 0.123526 0.954364)
(0.14261 0.121453 0.702799)
(0.0396269 0.186758 0.40371)
(0.174747 0.512283 0.424649)
(0.420185 0.513457 0.374155)
(0.605929 0.538437 0.375571)
(0.850649 0.497957 0.351377)
(1.00961 0.417787 0.317462)
(1.07551 0.323756 0.27352)
(1.06185 0.256631 0.233472)
(1.01507 0.211211 0.19725)
(1.03536 0.158505 0.166173)
(1.04722 0.118864 0.143451)
(0.987699 0.0930521 0.090232)
(0.882396 0.0425139 0.0676265)
(0.717142 -0.022467 0.0543368)
(0.472387 -0.109549 0.0207586)
(0.244956 -0.217339 -0.0211627)
(0.104778 -0.624245 -0.109176)
(0.180213 -0.386188 -0.0799586)
(-0.177585 -0.173277 0.00793299)
(-0.0994133 -0.393693 -0.0372092)
(-0.108628 -0.31462 -0.0638235)
(-0.110661 -0.34077 -0.0724293)
(-0.108027 -0.30054 -0.0635043)
(-0.0769841 -0.227022 -0.0580544)
(-0.138595 -0.182293 -0.0454534)
(-0.219062 0.11806 0.115752)
(-0.143314 0.428317 0.119206)
(-0.0383923 0.545916 0.0691898)
(0.0435558 0.626738 0.106976)
(0.131095 0.678811 0.205933)
(0.224465 0.736016 0.302247)
(0.315091 0.772191 0.338481)
(0.397387 0.767826 0.366878)
(0.474414 0.702413 0.374041)
(0.539821 0.561304 0.370674)
(0.59215 0.337929 0.336764)
(0.571877 0.00514199 0.263178)
(0.394152 -0.334936 0.25862)
(0.293514 -0.333583 0.321302)
(0.227946 -0.287879 0.330437)
(0.160788 -0.197253 0.335929)
(0.147714 -0.000739248 0.313065)
(0.289143 0.00907161 0.340151)
(0.451615 -0.157598 0.331061)
(0.603738 -0.254993 0.342749)
(0.642658 -0.344099 0.351809)
(0.623245 -0.436099 0.353689)
(0.476536 -0.541147 0.335004)
(0.107166 -0.566128 0.317146)
(-0.171215 -0.298353 0.302852)
(-0.0382183 -0.128138 0.355699)
(0.230859 -0.151627 0.237523)
(0.282674 -0.403722 0.0722183)
(0.00912383 -0.519335 0.237914)
(-0.140966 -0.748455 -0.14165)
(0.201303 -0.719647 -0.480644)
(0.308491 -0.391826 -0.176889)
(0.331585 -0.374811 0.0934388)
(0.345 -0.545334 0.183873)
(0.326998 -0.889792 0.120114)
(0.531501 -0.872225 0.0650167)
(0.61065 -0.691418 0.0987251)
(0.576302 -0.537657 0.138779)
(0.506799 -0.395155 0.189207)
(0.337719 -0.229905 0.24726)
(0.362179 -0.345497 0.195999)
(0.425867 -0.375998 0.143183)
(0.507176 -0.362013 0.08106)
(0.618589 -0.294772 -0.0561121)
(0.864546 0.194614 -0.118317)
(0.90882 0.478811 -0.0232432)
(0.854371 0.682876 0.0468975)
(0.756909 0.78696 0.0899222)
(0.631538 0.815691 0.135688)
(0.489003 0.785806 0.156519)
(0.331397 0.723672 0.17516)
(0.166494 0.644121 0.132616)
(-0.00874019 0.572197 0.0721265)
(-0.151694 0.502113 0.0578679)
(-0.295935 0.398438 0.117999)
(-0.410355 0.166479 0.144748)
(-0.28442 -0.136693 0.00368077)
(-0.397529 -0.0628562 0.0401559)
(-0.479023 -0.00322942 0.0676387)
(-0.544501 0.109589 0.109292)
(-0.538834 0.0728126 0.0876139)
(-0.498954 -0.056539 0.0213143)
(-0.458568 -0.113648 0.0110607)
(-0.391595 -0.166092 -0.0114881)
(-0.295547 -0.22053 -0.026226)
(-0.188757 -0.249362 -0.0391688)
(-0.142383 -0.223082 -0.0310815)
(-0.195379 -0.193124 -0.0289082)
(-0.184109 -0.341153 -0.0432859)
(-0.123395 -0.333901 -0.0485866)
(-0.100371 -0.351423 -0.0756836)
(-0.077908 -0.385241 -0.108712)
(-0.0480881 -0.568527 -0.224744)
(-0.0867571 -0.505822 -0.162858)
(-0.10444 -0.592669 -0.129025)
(-0.158614 -0.554311 -0.069722)
(-0.224425 -0.443893 -0.0341474)
(-0.304974 -0.0962762 0.0375581)
(-0.182973 0.321245 0.178858)
(-0.0730271 0.441359 0.30945)
(0.00919889 0.514448 0.446232)
(0.0764528 0.501849 0.562724)
(0.144846 0.436363 0.623869)
(0.198579 0.322464 0.654038)
(0.248659 0.166696 0.627032)
(0.234797 -0.0120107 0.53155)
(0.103404 -0.134852 0.43874)
(-0.0135223 -0.0972987 0.448444)
(-0.0330639 0.0181069 0.424739)
(-0.0339233 0.140429 0.425524)
(0.0376443 0.245952 0.365231)
(0.199439 0.136608 0.379918)
(0.156737 0.273748 0.449552)
(-0.0612857 0.171951 -0.0708216)
(-0.173846 -0.0665277 -0.641319)
(-0.180634 -0.306512 -0.536887)
(-0.168298 -0.343568 -0.301681)
(-0.145149 -0.301751 -0.0934729)
(-0.0619217 -0.584866 -0.106385)
(-0.0278291 -0.862135 -0.0939708)
(0.00238592 -1.01927 -0.0916124)
(0.0328216 -1.14314 -0.100861)
(0.0661706 -1.22716 -0.115256)
(0.0966333 -1.2802 -0.1294)
(0.123194 -1.30685 -0.141324)
(0.14711 -1.3154 -0.1533)
(0.16793 -1.31335 -0.165831)
(0.186158 -1.30414 -0.176628)
(0.201785 -1.28927 -0.185072)
(0.215752 -1.26923 -0.190184)
(0.228146 -1.24373 -0.192824)
(0.239475 -1.21154 -0.19161)
(0.249094 -1.17156 -0.186459)
(0.254875 -1.12162 -0.175646)
(0.251964 -1.05892 -0.159005)
(0.194825 -0.996086 -0.139096)
(0.1398 -0.911343 -0.122798)
(0.164424 -0.82745 -0.0870169)
(0.187722 -0.727056 -0.0882493)
(0.203879 -0.558523 -0.0881445)
(0.246714 -0.44172 -0.0844715)
(0.0720565 -0.0297073 -0.0955386)
(0.365911 -0.298018 0.0435793)
(0.245758 -0.550642 -0.0572302)
(0.286145 -0.0946719 -0.0270005)
(0.180761 -0.0368765 -0.147553)
(0.201641 -0.112342 -0.125069)
(0.194488 -0.119202 -0.0816079)
(0.214822 -0.131466 -0.0246518)