/*--------------------------------*- C++ -*----------------------------------*\
| =========                 |                                                 |
| \\      /  F ield         | OpenFOAM: The Open Source CFD Toolbox           |
|  \\    /   O peration     | Version:  v2012                                 |
|   \\  /    A nd           | Website:  www.openfoam.com                      |
|    \\/     M anipulation  |                                                 |
\*---------------------------------------------------------------------------*/
FoamFile
{
    version     2.0;
    format      ascii;
    class       volScalarField;
    location    "745";
    object      epsilon;
}
// * * * * * * * * * * * * * * * * * * * * * * * * * * * * * * * * * * * * * //

dimensions      [0 2 -3 0 0 0 0];


internalField   nonuniform List<scalar> 
18258
(
0.0239894
0.0122572
0.00911573
0.00716232
0.0126549
0.012533
0.0129945
0.0173367
0.0241549
0.0370053
0.053591
0.0481765
0.0435571
0.0453051
0.0474646
0.0450067
0.0350602
0.0303215
0.0398447
0.0665634
0.0608613
0.0497009
0.060959
0.0513898
0.0653382
0.0824134
0.0631606
0.0568331
0.0509789
0.0479102
0.0413324
0.0233872
0.0343792
0.0530979
0.0724376
0.0791288
0.0847665
0.0894455
0.0947072
0.0968656
0.0971179
0.0918998
0.0827147
0.0677055
0.049817
0.038448
0.0306812
0.0310024
0.0435456
0.0445779
0.0553803
0.0853188
0.107873
0.08093
0.0518429
0.0825414
0.112493
0.144245
0.170748
0.193188
0.200906
0.197489
0.18597
0.169253
0.147822
0.12285
0.101874
0.084968
0.0671945
0.0574038
0.0464627
0.0385572
0.0329952
0.0293385
0.0271392
0.0254089
0.024241
0.0251756
0.0250632
0.0178736
0.0140608
0.0132098
0.00945098
0.00785537
0.00817333
0.00778057
0.00808549
0.00713968
0.00611168
0.00530165
0.00449078
0.006529
0.00701756
0.00725719
0.00727464
0.00780054
0.00806661
0.00780576
0.00790183
0.00723382
0.00739588
0.0118808
0.0136803
0.0173672
0.0154938
0.0107286
0.0091109
0.0101519
0.0107779
0.0133783
0.0125634
0.0133499
0.0118466
0.0108145
0.00914109
0.00888461
0.00912731
0.009703
0.0101109
0.0117062
0.0115341
0.010692
0.0118263
0.0130511
0.0127779
0.0122322
0.0116544
0.0143041
0.0115146
0.0122024
0.0137044
0.0220822
0.021605
0.0260791
0.0256009
0.0260509
0.0262364
0.0316216
0.0317428
0.032117
0.0324366
0.0341498
0.0572254
0.0509965
0.0498889
0.0496952
0.0430191
0.0425475
0.0418457
0.0426591
0.0362046
0.0348594
0.0316013
0.0312307
0.0348383
0.0439929
0.0614986
0.0887835
0.122763
0.159142
0.189448
0.210474
0.232226
0.237667
0.251559
0.256261
0.257143
0.251432
0.24299
0.233493
0.220614
0.202034
0.18914
0.148679
0.105236
0.0591701
0.0785337
0.0905598
0.100279
0.102137
0.103265
0.099186
0.0929764
0.0818416
0.0663781
0.0431661
0.0481074
0.0652847
0.0677049
0.0685123
0.0544002
0.0524493
0.0488188
0.0488887
0.064331
0.0736221
0.061825
0.0852798
0.100254
0.0877425
0.0636656
0.0974495
0.142719
0.0802987
0.0681214
0.0525715
0.0515737
0.0435569
0.0369155
0.06299
0.0940172
0.128856
0.149872
0.17163
0.189171
0.202492
0.216598
0.18829
0.171096
0.115193
0.201727
0.152763
0.0770469
0.0567312
0.0549023
0.0461723
0.0516555
0.0566939
0.0523451
0.0403618
0.0278361
0.024711
0.0461263
0.0644056
0.0778635
0.0619289
0.0788071
0.0888855
0.0961682
0.10146
0.128741
0.0948508
0.105425
0.075185
0.102213
0.0723467
0.0465292
0.0524882
0.100334
0.160213
0.219598
0.256886
0.145726
0.0735514
0.0544872
0.0544159
0.0526974
0.0477518
0.0594105
0.105889
0.0718941
0.0465633
0.0403595
0.047628
0.0416784
0.0308815
0.0324781
0.0398554
0.0548501
0.0685269
0.0814288
0.125137
0.12208
0.147335
0.15442
0.130223
0.126078
0.081578
0.0835217
0.122871
0.0917344
0.0741826
0.104281
0.147584
0.201881
0.248198
0.288594
0.31447
0.303941
0.275008
0.173947
0.0761723
0.0229231
0.0177994
0.0168332
0.0173082
0.0105196
0.00630561
0.0058628
0.00669011
0.00703386
0.00591939
0.00544499
0.00543449
0.00578902
0.010186
0.00875166
0.0108304
0.0131227
0.0156725
0.0187186
0.0194479
0.0129043
0.00873461
0.0081966
0.00813233
0.00806374
0.00803486
0.00804729
0.00808866
0.00810558
0.00807411
0.00799601
0.00785915
0.00772357
0.00766601
0.00830238
0.0111935
0.0153587
0.0148521
0.0135618
0.0122054
0.0110433
0.00871163
0.0151565
0.012853
0.0109436
0.0134049
0.0165136
0.0208708
0.0245238
0.0176902
0.0141625
0.0128168
0.0126901
0.0125747
0.012619
0.0124948
0.0125573
0.0123542
0.0129435
0.0135817
0.0169841
0.0190089
0.0211882
0.022685
0.0232636
0.0239692
0.0211184
0.0229899
0.0227375
0.023516
0.0233357
0.0226507
0.0207321
0.0189393
0.017717
0.0191342
0.0237047
0.0323606
0.0267534
0.020766
0.0168053
0.0137483
0.0150182
0.0166907
0.0168657
0.0158777
0.0156429
0.015434
0.0139146
0.0131288
0.0111144
0.0105035
0.0100393
0.01019
0.0143726
0.0135197
0.0137229
0.0144558
0.015558
0.0147169
0.0151484
0.0142995
0.0145491
0.0149715
0.0170366
0.0185952
0.0178356
0.0165164
0.0160207
0.0137514
0.0158597
0.0157183
0.0170388
0.0186247
0.0191192
0.0190553
0.0184177
0.0168246
0.0187153
0.022085
0.0257401
0.0247392
0.024411
0.0204637
0.0192605
0.0202327
0.0215049
0.0224071
0.022468
0.0222814
0.0223567
0.0263309
0.02595
0.0247661
0.0227028
0.020262
0.0176205
0.015196
0.016665
0.0181386
0.019522
0.0207837
0.0205608
0.0190389
0.0176864
0.0164619
0.0149739
0.0146893
0.0161385
0.0173558
0.018783
0.0204954
0.020581
0.0188672
0.0173742
0.0160952
0.0146246
0.0145776
0.0160754
0.0173716
0.0187875
0.0202727
0.0196427
0.0184878
0.0172382
0.0159974
0.0145469
0.0146152
0.0159353
0.0170026
0.0180851
0.0190348
0.0198903
0.0179284
0.0170191
0.0171135
0.0161277
0.0193144
0.0185562
0.019497
0.0180436
0.0168179
0.017823
0.0210164
0.0240529
0.0246065
0.024327
0.0201918
0.0206476
0.0206232
0.0192026
0.0159782
0.0153821
0.0181556
0.0208951
0.0213586
0.0200495
0.0169444
0.0132993
0.014323
0.0174898
0.019805
0.0185402
0.0183812
0.016967
0.0158857
0.016183
0.0139034
0.016643
0.0267196
0.024176
0.0221592
0.0196918
0.0156874
0.0106258
0.0115266
0.0126865
0.0131018
0.0105875
0.00792913
0.00712126
0.00692874
0.00677137
0.00655379
0.00618695
0.0056315
0.00538567
0.0105816
0.0255707
0.0363922
0.0357946
0.0241043
0.0207033
0.0199218
0.0182422
0.0086108
0.00820074
0.00839091
0.0104102
0.00828789
0.00819484
0.0141599
0.00990325
0.0136366
0.0106548
0.0146216
0.0229137
0.0216477
0.0143087
0.00801309
0.00690803
0.00739875
0.00768063
0.00788372
0.00807989
0.00831302
0.00869873
0.0100205
0.0157488
0.020332
0.0177914
0.0168008
0.0153239
0.0188641
0.021344
0.0232809
0.0260475
0.0161073
0.0117961
0.0166482
0.0272795
0.0247632
0.0233071
0.0171666
0.017708
0.0171391
0.0110227
0.010677
0.0105931
0.0114045
0.0127928
0.0147135
0.0158697
0.0166179
0.0169488
0.0178605
0.0231267
0.0216372
0.021119
0.0173326
0.0133917
0.0154145
0.0516346
0.0195576
0.0206776
0.0189025
0.0191718
0.020459
0.0151538
0.0135048
0.0129291
0.0146187
0.0215118
0.0215285
0.0213932
0.0182588
0.0174772
0.0209054
0.0219943
0.0223896
0.0217732
0.0213348
0.019472
0.0166921
0.018124
0.0196424
0.0208362
0.0228427
0.0231801
0.0179618
0.0172407
0.0158474
0.0105533
0.0112952
0.00973322
0.00970377
0.00967067
0.00939727
0.0089483
0.00923605
0.00935243
0.00934994
0.00900407
0.0093007
0.00835328
0.00868898
0.00978079
0.0152298
0.0147942
0.0175924
0.0195062
0.0167499
0.0155898
0.014226
0.0132014
0.0154576
0.0142933
0.0168736
0.0212296
0.0265259
0.0191497
0.0181531
0.0179303
0.0175249
0.0173674
0.0174201
0.0167251
0.01572
0.0151504
0.0236108
0.0213065
0.0181803
0.01723
0.0157952
0.0180506
0.0174925
0.0213951
0.0268848
0.0270905
0.0215633
0.0216418
0.0189818
0.0200886
0.0222817
0.0271283
0.0270513
0.0144562
0.00961118
0.0154584
0.0157984
0.0184102
0.0170244
0.0185532
0.0197356
0.0204606
0.0203186
0.0177148
0.0188906
0.0196792
0.0206651
0.0186098
0.0166031
0.017393
0.0161703
0.0152698
0.0147697
0.0126932
0.0129388
0.0139113
0.0153635
0.0163073
0.0178024
0.0194594
0.0194874
0.0201565
0.0197525
0.0191498
0.0252438
0.0240037
0.0255453
0.0282547
0.022465
0.0178321
0.0147073
0.0150208
0.0147871
0.0146951
0.0154365
0.0167979
0.0151754
0.0145553
0.017068
0.0194292
0.0246993
0.0330662
0.0288016
0.0262293
0.03324
0.0314037
0.038257
0.0286934
0.0281647
0.0208744
0.0263087
0.0305269
0.0392278
0.0255364
0.0209785
0.0224342
0.0255558
0.0348009
0.0328139
0.0331843
0.0412182
0.0399831
0.0362182
0.031194
0.0353824
0.0212726
0.0302141
0.0322437
0.0268317
0.0257263
0.0307713
0.0310968
0.0330303
0.0283861
0.0267907
0.0179343
0.0274677
0.0314116
0.0331033
0.0278397
0.0205442
0.0280381
0.0205747
0.0192098
0.0203217
0.0137959
0.0127425
0.0148173
0.0138877
0.0112121
0.0121617
0.0111795
0.0111656
0.0112456
0.0113591
0.0114892
0.0117416
0.0117007
0.0126978
0.0133371
0.012623
0.0115669
0.0122319
0.0126036
0.0161187
0.0182064
0.0204716
0.0220637
0.0229049
0.0240474
0.0227105
0.0248324
0.0237623
0.0252285
0.0249347
0.0238737
0.0213718
0.0187502
0.016372
0.0169267
0.0206112
0.0271453
0.0222254
0.0171968
0.0138998
0.0115026
0.0127893
0.0160338
0.00869238
0.00794522
0.00765934
0.00749224
0.00736601
0.00654887
0.00579471
0.00821139
0.0128944
0.0162208
0.0202835
0.0258601
0.0320506
0.037509
0.0416695
0.0446287
0.0464389
0.0469032
0.0439996
0.033274
0.0285392
0.0244432
0.0201754
0.0164409
0.0167579
0.0243946
0.032034
0.0395857
0.0462585
0.0512556
0.0493498
0.0331243
0.0300083
0.0462601
0.0778534
0.0735796
0.0967084
0.110577
0.0626263
0.046323
0.0452946
0.0621353
0.0648019
0.0567
0.0466303
0.0363075
0.026096
0.0305205
0.0349244
0.0391964
0.0437082
0.0580268
0.0610508
0.0597891
0.0571749
0.05365
0.0486675
0.041413
0.0327824
0.0248645
0.0189275
0.0142532
0.00901595
0.00738746
0.00779911
0.00717725
0.00952324
0.00879438
0.00848889
0.00819548
0.00843904
0.00829779
0.00843714
0.00748218
0.00669493
0.0103805
0.00962923
0.00962681
0.01032
0.013522
0.0103925
0.00767949
0.00725186
0.00720593
0.00743116
0.0152942
0.0248224
0.0303521
0.0350041
0.0387554
0.0373796
0.033843
0.0280232
0.0218191
0.0196536
0.0166571
0.0142302
0.0130905
0.0144574
0.0119249
0.00592951
0.00516291
0.00569922
0.00555633
0.0050854
0.00613055
0.00683234
0.00745503
0.00788572
0.0082016
0.00826494
0.00820472
0.00811512
0.00807109
0.00805068
0.00802134
0.00795485
0.00785718
0.00771235
0.00757327
0.00750701
0.00810009
0.0107152
0.0146406
0.0143992
0.0132834
0.0121713
0.0113072
0.00958217
0.0154321
0.013099
0.0109846
0.010162
0.0100256
0.0103304
0.0113106
0.0129508
0.0138678
0.015869
0.0159014
0.0157864
0.0160736
0.0158626
0.0132311
0.0150153
0.017727
0.0185529
0.0191694
0.0189499
0.0174178
0.0194302
0.0205678
0.0200099
0.0193972
0.0165509
0.0192893
0.0232522
0.0236984
0.0239732
0.0213082
0.0184773
0.0216384
0.022803
0.0224045
0.0232897
0.0215093
0.0222379
0.0277346
0.0143006
0.0131214
0.00787366
0.00876117
0.00900211
0.00871676
0.00844236
0.00879974
0.00905569
0.00882179
0.00949783
0.0098112
0.00913876
0.0116008
0.0106869
0.0103189
0.00970228
0.0102066
0.0108491
0.0111615
0.0123124
0.0197216
0.0202203
0.018331
0.0208842
0.021493
0.0180788
0.0205449
0.0214106
0.0217165
0.0220756
0.0235752
0.0221492
0.0244696
0.0237016
0.0223232
0.021564
0.0383146
0.0252728
0.0166588
0.0153879
0.0150456
0.0151132
0.0170344
0.0128127
0.0143613
0.010167
0.00881196
0.00845112
0.00816717
0.00820366
0.0106542
0.0163055
0.0248193
0.0281058
0.0270308
0.0236093
0.0179387
0.013241
0.0129811
0.0117572
0.0110211
0.0109224
0.00732124
0.00510443
0.0064938
0.006581
0.00717527
0.00759665
0.00794082
0.00820076
0.00834605
0.00842304
0.00851001
0.00863202
0.00876238
0.00887273
0.00895735
0.00901621
0.00907761
0.00919646
0.00950212
0.0107075
0.0153625
0.01976
0.0186331
0.0171656
0.0158555
0.016623
0.0173788
0.0181
0.0222856
0.019164
0.0220592
0.020753
0.0197731
0.0183576
0.019086
0.0208821
0.0166781
0.0166142
0.0113682
0.00993354
0.00955942
0.00934799
0.0091831
0.00901803
0.00884906
0.00869718
0.00855256
0.0084256
0.00832457
0.00822902
0.00808421
0.00783416
0.00742603
0.00699072
0.00609398
0.00668318
0.00735494
0.00838335
0.00953849
0.0100787
0.00950042
0.00874921
0.00844816
0.00859628
0.00878171
0.00898238
0.00920975
0.00952453
0.00999021
0.0109609
0.0116182
0.0162958
0.0170414
0.0202778
0.02008
0.0179782
0.0173277
0.0189357
0.0174356
0.012678
0.0174231
0.0169581
0.0212262
0.0157549
0.0148632
0.0152801
0.0157661
0.0184117
0.0173206
0.0158365
0.0157883
0.0126966
0.0142839
0.0162885
0.0177641
0.0280011
0.0274598
0.0345315
0.0344118
0.0594316
0.0565689
0.0499048
0.0539188
0.0237889
0.0465861
0.0544401
0.0496151
0.0430858
0.0274739
0.0439153
0.0668291
0.0969036
0.0698952
0.0571878
0.1063
0.0771364
0.0375485
0.0266657
0.0150496
0.0151237
0.0251209
0.0291759
0.0241966
0.0233525
0.0335452
0.0349082
0.0281261
0.0287884
0.0311626
0.0300886
0.0325713
0.0282036
0.0274813
0.015582
0.0127923
0.0138309
0.0155719
0.0165817
0.0160673
0.0169122
0.0175861
0.0161394
0.0151075
0.0145421
0.0124714
0.0132081
0.0161982
0.0204217
0.0239355
0.0172852
0.0138882
0.0125876
0.0123921
0.0121637
0.012043
0.0117205
0.0115329
0.0110628
0.0112707
0.00982438
0.00983589
0.0103732
0.010537
0.0107421
0.0109012
0.0110258
0.0111392
0.0120051
0.018783
0.0259816
0.0207884
0.0164741
0.0139889
0.01518
0.0171076
0.0210169
0.0264474
0.0178631
0.0176878
0.0115353
0.0107571
0.0105474
0.0103745
0.0102225
0.0101257
0.0101886
0.010193
0.0119348
0.0115766
0.0135292
0.0146072
0.0120816
0.0116584
0.0111924
0.0109097
0.0107544
0.0106711
0.0107611
0.0116234
0.011458
0.0105278
0.0104327
0.0105516
0.0107632
0.0110838
0.0115281
0.0120297
0.012938
0.012714
0.0112377
0.0112564
0.0105983
0.0102888
0.0100537
0.0100295
0.010078
0.0102186
0.010441
0.011349
0.017154
0.0173331
0.0266734
0.0266495
0.0211825
0.0177007
0.0155409
0.0142859
0.0135531
0.0352672
0.0309565
0.0489347
0.0391027
0.0313277
0.0508528
0.0723089
0.0561679
0.0914184
0.0987699
0.0727853
0.0658064
0.0209797
0.0159794
0.0154553
0.0169478
0.0186458
0.0212891
0.0218841
0.0267126
0.0288204
0.0172147
0.0165342
0.0156108
0.0249178
0.0230845
0.0197018
0.0178113
0.0164211
0.0189704
0.0207714
0.0150034
0.0150514
0.00970377
0.0107102
0.0104514
0.0101122
0.00999521
0.00992185
0.00995988
0.0100599
0.0103479
0.0108475
0.0112289
0.0113658
0.0116254
0.0114049
0.0111348
0.0108154
0.0106279
0.0104404
0.0102872
0.0101689
0.0102037
0.0105208
0.0106653
0.00935884
0.00970477
0.00981278
0.00982338
0.00985336
0.00981643
0.00967773
0.00947039
0.00927158
0.00906368
0.00911294
0.00996264
0.0101186
0.0101831
0.0100292
0.00990956
0.0098975
0.00982992
0.00981345
0.00980361
0.00967918
0.00936528
0.00863855
0.00849097
0.00909721
0.0094437
0.00962466
0.00970936
0.00969597
0.00964247
0.00941091
0.00923324
0.00901816
0.00866936
0.00820429
0.00676278
0.00703109
0.007391
0.00789231
0.00840908
0.0088629
0.00916855
0.00933054
0.00942266
0.00934159
0.00905049
0.00852264
0.00846782
0.0088577
0.00903542
0.008991
0.00872464
0.00831011
0.00774203
0.0070373
0.00635615
0.00583884
0.00560061
0.00521582
0.00656927
0.00717136
0.0077314
0.00825036
0.00874083
0.00926251
0.00946275
0.00951656
0.00949347
0.00933524
0.00900257
0.0084722
0.00847885
0.00895782
0.00927004
0.00939667
0.00937795
0.00919586
0.00878833
0.00787228
0.00705471
0.0063923
0.00579724
0.00520109
0.00510815
0.00536296
0.00512636
0.00532022
0.00589203
0.00669101
0.00746973
0.00808254
0.00851518
0.00870447
0.00865807
0.00840934
0.00830914
0.00842754
0.00836419
0.00805294
0.00748122
0.00673508
0.00593989
0.00531823
0.00514793
0.00547891
0.00580521
0.00549376
0.00437337
0.00492426
0.00549142
0.00609323
0.00701899
0.00820683
0.00879461
0.00911256
0.00927117
0.00920458
0.0089139
0.00847146
0.00845122
0.0088777
0.00916152
0.00921038
0.00907069
0.0087928
0.00830784
0.006871
0.00538856
0.00475283
0.00439561
0.00395875
0.0055696
0.00593452
0.00551905
0.00524873
0.00568621
0.00622329
0.00684199
0.00735272
0.00778291
0.00809335
0.00820289
0.00817808
0.00804324
0.00803939
0.00797793
0.00776987
0.00752339
0.00732077
0.00689252
0.00644079
0.00590236
0.00645196
0.00673658
0.00630914
0.00467279
0.00496331
0.00542665
0.00572732
0.00720386
0.00862988
0.00901305
0.009143
0.00927391
0.00919879
0.00887545
0.00842874
0.00841158
0.00894213
0.00935301
0.00950081
0.00961499
0.00975274
0.00987808
0.00873339
0.0067914
0.00629431
0.00528074
0.00482363
0.00662647
0.00705055
0.00685599
0.00659319
0.00754762
0.00794486
0.00808426
0.0080912
0.00809934
0.00807343
0.00798715
0.00792511
0.00780942
0.00824263
0.0088755
0.00878119
0.00869127
0.00854015
0.00818276
0.00772805
0.007195
0.00786921
0.00842176
0.00814149
0.00596847
0.00634287
0.00724336
0.007467
0.00904766
0.0102359
0.010555
0.0105173
0.0103792
0.0103369
0.0093108
0.00837414
0.00822176
0.00958838
0.0155718
0.015407
0.0154324
0.0153536
0.0147775
0.0146064
0.0140346
0.0137753
0.0130686
0.0126116
0.0119232
0.0139587
0.0176975
0.0197875
0.0221602
0.0246616
0.0232868
0.0187704
0.0165388
0.0101054
0.00797267
0.00688123
0.00596387
0.00527025
0.00506501
0.00750229
0.00934288
0.0114798
0.0133995
0.0137121
0.016113
0.020019
0.0304837
0.0484571
0.0408943
0.0385871
0.038777
0.0960865
2.54399
2.71733
2.48428
2.88935
3.33771
0.387765
0.150866
0.282478
0.301997
0.337981
0.315469
0.284177
0.259271
0.266076
0.255275
0.263993
0.245743
0.254555
0.222528
0.229837
0.239631
0.716802
1.05401
1.26809
1.76683
1.7635
1.98792
1.93369
1.94909
1.7982
1.91234
1.66163
1.37744
1.30161
1.22953
1.31947
1.43364
1.24407
1.12741
1.01187
0.920766
0.788748
0.999984
0.758762
0.717261
0.715974
0.74817
0.99698
0.909664
1.04698
0.971933
1.01251
0.611848
0.688697
0.504335
0.420568
0.348302
0.424109
0.572679
0.764261
0.954726
0.727665
0.98803
0.907993
0.895128
0.850951
0.773245
0.733695
0.720835
0.741853
0.754698
0.77035
0.798651
0.820349
0.839818
0.991602
1.05803
1.05015
0.860619
0.769348
0.532716
0.57063
0.60457
0.607825
0.566178
0.548474
0.49848
0.486122
0.441752
0.422603
0.384647
0.365298
0.333198
0.460677
0.786956
0.816619
0.886824
0.939331
0.989726
1.01112
1.02849
1.01102
0.977536
0.906294
0.874379
0.810424
0.918525
1.1034
1.10049
1.01049
0.857784
0.811841
3.7935
4.61534
3.05268
6.58712
10.0185
16.8068
7.63237
2.06818
3.45738
2.37508
2.10745
2.0544
2.16972
3.42148
2.505
3.27656
2.74279
2.89938
2.30682
2.5766
2.45635
1.8818
1.58293
1.33911
1.2227
0.986199
0.980038
0.795165
0.739078
0.674982
0.560196
0.691489
0.709025
1.72329
2.32839
2.89939
4.54365
4.9805
5.43887
8.56733
6.91438
8.63619
5.12521
5.18001
3.82796
3.59895
3.63713
5.00161
7.16012
4.92935
8.6097
4.79517
15.5826
34.8545
9.19736
19.0162
10.9618
9.90626
9.54322
9.82894
13.9711
9.54968
15.5286
13.1718
17.5824
17.2514
18.2989
14.2075
10.5501
11.5836
12.4613
15.9471
11.3282
13.0976
9.95684
9.71728
9.05096
7.47282
6.60108
5.06638
6.00782
7.02995
8.01228
12.7388
15.9296
18.2811
22.0246
16.234
18.5007
11.1304
12.2259
9.43917
8.85614
8.99047
11.8302
20.9762
14.858
27.1808
0.498185
0.22613
0.545906
0.229754
0.487142
0.390668
0.40321
0.404147
0.399854
0.461315
0.220342
0.185207
0.177419
0.175265
0.176783
0.100244
0.124466
0.0804243
0.126926
0.229355
0.504429
0.365788
0.140546
0.0826061
0.0546041
0.0429551
0.0634729
0.0612707
0.0979842
0.0993455
0.105685
0.13226
0.228585
0.434279
31.841
7.11936
1.13149
0.531215
0.281866
0.172853
0.149421
0.168929
0.181779
0.18472
0.173765
0.148056
0.106691
0.0710852
0.0480222
0.0405541
0.0295665
0.0278469
0.0393707
0.0532048
0.0493677
0.0651385
0.083592
0.106408
0.130664
0.149971
0.164482
0.168446
0.156395
0.122391
0.0805614
0.0443645
0.0264758
0.0228166
0.0208827
0.0193897
0.016744
0.0145163
0.0131043
0.0112073
0.00988701
0.00892791
0.0086273
0.00875545
0.00956396
0.0120978
0.0145601
0.0188542
0.0179791
0.0134621
0.0126096
0.00781224
0.00722288
0.00737207
0.00762495
0.00844249
0.0132046
0.0135141
0.0133932
0.0134256
0.0132461
0.0132399
0.0130731
0.0129159
0.012698
0.0122825
0.0119914
0.0114667
0.01118
0.010494
0.0105211
0.0108789
0.0111791
0.0101108
0.00999708
0.00931689
0.0209057
0.0494841
0.0702738
0.0787313
0.0885155
0.0812016
0.0421007
0.0232181
0.00794541
0.00768993
0.0081897
0.00883416
0.00838247
0.006163
0.00670852
0.00791786
0.0111337
0.0111208
0.0111551
0.0130328
0.0135841
0.014936
0.0154847
0.0158514
0.0160784
0.0159872
0.0161144
0.0158157
0.0159075
0.0156967
0.0157855
0.0153797
0.0273048
0.0257166
0.0264547
0.0264973
0.027722
0.0272169
0.0267476
0.0257629
0.0250713
0.0235388
0.0219635
0.0203564
0.0182129
0.0189365
0.0182564
0.0113453
0.010758
0.00769234
0.0077017
0.00740767
0.010236
0.00930898
0.00782558
0.0091777
0.0067169
0.00689227
0.00726475
0.0103786
0.010909
0.0174218
0.017449
0.0154894
0.0164934
0.0175501
0.0189011
0.0200545
0.0214809
0.0224742
0.0235635
0.0254507
0.0258579
0.0240826
0.0237309
0.022607
0.0245326
0.0234969
0.0217663
0.0233417
0.0250005
0.027562
0.0272522
0.0250854
0.0237657
0.0223576
0.0200314
0.0173868
0.0159871
0.0149542
0.0149591
0.0138967
0.0161787
0.0145777
0.0101292
0.0105772
0.00811289
0.00631703
0.00602857
0.00926171
0.0132776
0.02832
0.0177052
0.00949211
0.0106246
0.0171155
0.0357797
0.0214381
0.0347432
0.014734
0.0161872
0.0126281
0.0126061
0.0139016
0.0162041
0.0173182
0.0209973
0.0236893
0.0256891
0.0266124
0.0279323
0.0283257
0.0297424
0.0301913
0.0329073
0.0331631
0.033187
0.0327156
0.0302935
0.0272359
0.0250209
0.0309697
0.0358848
0.0392183
0.0416498
0.0441384
0.0428656
0.0391428
0.0382615
0.0363347
0.0352083
0.0338012
0.0306731
0.0268307
0.0220092
0.0213914
0.0274106
0.0331637
0.0494946
0.0535253
0.0532588
0.0555581
0.056072
0.0578342
0.0582823
0.0609358
0.061517
0.062685
0.0630258
0.0682811
0.0691747
0.0701623
0.0704917
0.0701717
0.0711135
0.0711212
0.0483421
0.0433236
0.0392277
0.0325493
0.0272266
0.0345648
0.0431074
0.0483748
0.0738482
0.0742959
0.078005
0.080622
0.0855624
0.0892456
0.0941145
0.0985833
0.102959
0.106342
0.108374
0.108665
0.109117
0.108138
0.106838
0.115598
0.150239
0.166852
0.197654
0.212785
0.225353
0.229297
0.220713
0.224579
0.216581
0.219195
0.21305
0.211137
0.205929
0.1996
0.196042
0.18969
0.185587
0.213878
0.161566
0.123779
0.0820477
0.0657917
0.0589965
0.0555036
0.0579742
0.0449332
0.0384248
0.0573381
0.0529377
0.0425478
0.0287815
0.0188426
0.0321823
0.0478204
0.064736
0.0819418
0.097645
0.107892
0.11043
0.109315
0.10456
0.096707
0.0815469
0.0613686
0.0420925
0.0346187
0.0319059
0.0279698
0.0220662
0.0177442
0.0156419
0.0140684
0.0123172
0.0110817
0.0105356
0.01071
0.0110241
0.0132205
0.0173027
0.0172916
0.011594
0.0111254
0.00765562
0.0077452
0.00800495
0.0133036
0.0134535
0.020861
0.02331
0.0219553
0.0226491
0.0223892
0.0226937
0.0223501
0.02117
0.0203408
0.019379
0.0185385
0.0177887
0.0169542
0.0161198
0.0174329
0.0163679
0.0137962
0.0139351
0.0145626
0.0152173
0.0161036
0.0173605
0.0184313
0.0211228
0.0212773
0.0207726
0.020861
0.0193865
0.0186655
0.0199143
0.0194316
0.0132417
0.0130598
0.0190604
0.0187101
0.01861
0.0224303
0.0208617
0.0213826
0.0225168
0.0224307
0.019497
0.0181417
0.0165877
0.0154047
0.0140177
0.0124944
0.0121014
0.014834
0.0130165
0.0107071
0.0119221
0.0143234
0.0169326
0.0184006
0.0203888
0.0231037
0.0240787
0.0263272
0.0277542
0.0298519
0.0306881
0.0354953
0.0361389
0.0339592
0.0321178
0.031124
0.0273523
0.023446
0.0258568
0.0267293
0.0271065
0.0272446
0.0271282
0.0235517
0.0231209
0.0216061
0.021087
0.0195097
0.0189477
0.0177829
0.0170177
0.0159895
0.0141621
0.01346
0.0126431
0.0122886
0.0173316
0.0108437
0.0105763
0.0159835
0.00983934
0.0115765
0.0113219
0.0118501
0.012515
0.0103412
0.0151213
0.0103161
0.0112187
0.0114611
0.0144169
0.0100521
0.0216256
0.0656642
0.0937635
0.112719
0.204348
0.24417
0.264183
0.284738
0.298649
0.314548
0.331887
0.349422
0.362282
0.363577
0.337715
0.319081
0.254026
0.227361
0.250993
0.280951
0.193508
0.165983
0.168187
0.168925
0.171414
0.172578
0.1761
0.174019
0.178937
0.174596
0.181706
0.175681
0.181963
0.174791
0.159726
0.143288
0.111198
0.100624
0.0649156
0.0502894
0.0393358
0.0285911
0.0208548
0.0187252
0.0177319
0.0164019
0.0164866
0.012632
0.0130891
0.00839324
0.00617956
0.00985366
0.00967686
0.00722995
0.00980528
0.0111968
0.0117032
0.0122355
0.0125295
0.0191501
0.0191784
0.0245552
0.0244895
0.0290605
0.0346695
0.0359117
0.0395476
0.0569203
0.0574515
0.0571953
0.0570425
0.056628
0.0494002
0.049119
0.0480144
0.0474302
0.0444816
0.0439256
0.0418363
0.0406937
0.0377379
0.0369117
0.0357868
0.0362727
0.0410611
0.0569632
0.101042
0.029858
0.0285618
0.0209117
0.0145515
0.0214612
0.0158959
0.0154571
0.0136131
0.018677
0.0134464
0.0136937
0.0165074
0.0170309
0.0164389
0.0215109
0.026796
0.0235119
0.0261061
0.118462
0.0771865
0.0249021
0.0491785
0.0727395
0.15903
0.204562
0.140393
0.16018
0.184197
0.167324
0.140528
0.110139
0.0820008
0.0585232
0.0454308
0.0113198
0.0134049
0.0186209
0.041545
0.0615667
0.101365
0.0834873
0.109064
0.149004
0.173467
0.209366
0.201028
0.173005
0.148884
0.145373
0.160369
0.163272
0.106315
0.103294
0.0780299
0.174162
0.219184
0.184694
0.231831
0.244838
0.145594
0.0321789
0.0183809
0.0151194
0.013917
0.0124366
0.0193432
0.0114742
0.0116502
0.0123706
0.0132697
0.0169659
0.0293472
0.0134604
0.0149283
0.018335
0.0158724
0.0148711
0.0146365
0.0145352
0.0151432
0.0164876
0.0215338
0.0216496
0.0213235
0.0159771
0.0172786
0.0156947
0.0200176
0.0212105
0.0332437
0.0152567
0.0162021
0.0215057
0.479664
0.0246464
0.0178229
0.0232419
0.0219079
0.0301285
0.043749
0.46054
0.0443959
0.0351471
0.0585326
0.0607552
0.0654172
0.0690929
0.0726305
0.0751476
0.0791207
0.0817522
0.0830065
0.0842794
0.099902
0.0998246
0.0987555
0.103343
0.0974282
0.0575535
0.0577471
0.0971838
0.104869
0.0592875
0.0409181
0.0384104
0.0311071
0.0322156
0.0417409
0.0438208
0.0615069
0.0613244
0.102246
0.0932549
0.094649
0.0964272
0.0914728
0.0919686
0.0939841
0.0940891
0.0753845
0.0730321
0.0712575
0.0682268
0.0646677
0.06177
0.0588709
0.0558554
0.0533805
0.0537317
0.058911
0.0584382
0.0665236
0.0746306
0.228531
0.156368
0.111112
0.0816811
0.0658348
0.0591908
0.0585279
0.0616166
0.0648422
0.066478
0.0672884
0.070694
0.092394
0.09461
0.0974507
0.0949474
0.0987262
0.0967408
0.0942906
0.104158
0.111946
0.0654522
0.0675278
0.0476289
0.0443998
0.0323794
0.0329212
0.0235016
0.0194978
0.0194948
0.0194767
0.019689
0.0225469
0.0314849
0.0316003
0.0461496
0.0460929
0.0515503
0.0751186
0.0721954
0.128706
0.117985
0.108332
0.101061
0.101423
0.103579
0.106167
0.101184
0.0977193
0.092198
0.0724246
0.0683788
0.0662524
0.0650368
0.0638466
0.067636
0.0919398
0.149913
0.229852
0.336862
0.437412
0.447352
0.404126
0.254919
0.293288
0.146633
0.166346
0.188833
0.165946
0.174592
0.321712
0.267434
0.379455
0.48399
0.537962
0.604577
0.642315
0.632673
0.504518
0.328944
0.336391
0.447266
0.77237
0.865914
0.744004
0.761172
0.657949
0.539781
0.521115
0.496247
0.559636
0.609922
0.575641
0.591955
0.536345
0.512493
0.44279
0.493863
0.360757
0.324935
0.305434
0.296618
0.355394
0.287621
0.324014
0.26642
0.272767
0.22173
0.227207
0.189681
0.145234
0.137719
0.127696
0.143001
0.162192
0.148646
0.153296
0.133889
0.114557
0.0911898
0.0983655
0.0735167
0.0696073
0.0708578
0.081095
0.127817
0.374561
0.174564
0.164033
0.167913
0.177838
0.31938
0.282641
0.721735
0.505634
0.706138
0.472428
0.560351
0.468782
0.36169
0.377287
0.416952
0.596803
0.81956
6.64574
0.284525
4.25867
3.16195
3.32124
3.46736
4.44353
7.79776
7.10677
9.37642
6.80057
9.07542
4.97708
4.97518
4.32572
4.47133
4.43957
4.26373
5.21408
6.66835
0.239248
0.0910442
0.0854278
0.0856045
0.0873808
0.197766
0.0525545
0.201904
0.0539333
0.213306
0.0494811
0.246448
0.196754
0.0382249
0.019257
0.0200883
0.0168067
0.0203742
0.0169227
0.0250473
0.0235424
0.0237012
0.0266011
0.0764504
0.292792
13.8787
1.68229
0.703741
0.80442
1.20398
0.819766
1.22099
1.69397
1.14084
0.570554
0.375518
0.443094
0.53584
0.511119
0.65009
0.934146
0.913211
0.718053
0.721638
0.638162
0.898476
0.906633
1.07278
1.25189
1.14449
0.898653
0.708894
0.602064
1.03252
1.03539
0.967887
0.413312
0.117604
0.0475113
0.050006
0.0360762
0.038002
0.034939
0.0563112
0.164658
0.22606
0.136724
0.435642
0.418828
0.56682
0.404301
0.413868
0.327258
0.35089
0.535692
0.584897
0.644211
0.675195
0.726285
0.672761
1.29288
2.21806
2.50937
12.8862
17.4385
3.21145
3.0996
13.9494
0.31506
0.0839583
0.0233287
0.0174339
0.0162176
0.01613
0.0150006
0.0155379
0.0159989
0.0169626
0.0188264
0.0231905
0.0458138
0.201338
0.203295
0.0643048
0.0324128
0.0229644
0.0196135
0.0170451
0.0163861
0.015531
0.0154587
0.0150081
0.0156581
0.0174655
0.0237831
0.0774192
0.27086
11.3154
2.43511
2.25309
8.37708
5.79024
0.206648
0.0437781
0.020092
0.016926
0.0158833
0.0167528
0.0162649
0.0182097
0.0184006
0.0230127
0.0250158
0.0317511
0.0570343
0.1101
0.315144
9.5618
8.63396
8.35396
7.79596
0.30977
0.115086
0.054356
0.038217
0.0346155
0.0338115
0.0226463
0.0236702
0.0189805
0.0216371
0.0182934
0.0226778
0.0482894
0.2118
5.34784
1.56831
1.6995
1.20786
0.612084
0.655085
0.669301
0.689108
1.77874
4.07516
5.00631
3.43715
3.36747
4.7189
3.17729
2.48665
1.83313
1.7498
2.54978
1.96491
1.82617
1.35757
1.46757
1.0674
1.46668
0.810807
0.976025
1.07211
1.53085
1.39677
1.40949
0.907649
1.04956
1.47459
1.7232
1.64729
0.843259
1.22564
1.01302
0.654371
0.606975
0.633794
0.604022
0.579086
0.57556
0.579588
0.558286
0.575221
0.55515
0.586783
0.54615
0.531703
0.506543
0.526442
0.544313
0.57707
0.359859
0.422395
0.426528
0.441008
0.453801
0.374927
0.450847
0.442024
0.659072
0.99486
0.83866
1.16251
0.682234
1.00459
2.00894
5.20817
2.36614
0.823894
1.34852
1.5813
1.13865
0.627883
2.55163
3.55584
1.22913
1.78179
10.3672
8.42096
16.4997
10.9766
18.6579
6.04571
4.63651
17.8222
6.6845
6.92331
4.5227
4.52672
2.96344
1.58757
1.63219
1.74589
1.2289
1.30298
1.21281
1.13402
1.47639
1.44286
1.89091
2.03942
2.58378
1.81426
1.78053
2.60758
1.06455
1.40464
1.84246
1.83485
1.3636
2.35069
3.16693
2.98531
2.15272
2.34309
3.51282
4.8294
4.59754
3.18464
3.99119
10.1521
13.552
13.7062
4.23231
19.3028
18.3106
2.09483
0.575373
0.330334
0.0913811
0.0448701
0.0366901
0.0387298
0.14444
0.0458124
0.0571738
0.04576
0.0742
0.070374
0.087972
0.220871
0.127777
0.21907
0.157343
0.193485
0.123527
0.197495
0.231571
0.241942
0.192676
0.118371
0.21757
0.312988
0.108475
0.361543
0.397827
0.265941
0.339467
0.404451
0.200806
1.00445
0.187531
0.129593
0.150135
0.401113
1.27662
0.2232
0.468071
4.50273
14.7261
3.70731
0.949914
0.691097
0.0558491
0.030278
0.0321963
0.0280313
0.0194268
0.0851856
0.100359
0.409304
0.210526
0.278226
0.66155
2.92398
2.40003
1.13973
5.51587
10.2732
15.1512
9.14317
2.25401
9.78025
19.6127
13.9054
6.98334
1.6335