/*--------------------------------*- C++ -*----------------------------------*\
| =========                 |                                                 |
| \\      /  F ield         | OpenFOAM: The Open Source CFD Toolbox           |
|  \\    /   O peration     | Version:  v2012                                 |
|   \\  /    A nd           | Website:  www.openfoam.com                      |
|    \\/     M anipulation  |                                                 |
\*---------------------------------------------------------------------------*/
FoamFile
{
    version     2.0;
    format      ascii;
    class       volScalarField;
    location    "745";
    object      nut;
}
// * * * * * * * * * * * * * * * * * * * * * * * * * * * * * * * * * * * * * //

dimensions      [0 2 -1 0 0 0 0];


internalField   nonuniform List<scalar> 
18258
(
0.00418328
0.0018208
0.00149045
0.00129053
0.000856715
0.00140079
0.00194589
0.00231676
0.00243106
0.00241109
0.00249709
0.00421476
0.00591573
0.00731172
0.00768062
0.00766717
0.00696039
0.00664696
0.00721512
0.00887187
0.00745903
0.00477861
0.00572492
0.00661455
0.00719333
0.00636874
0.0051497
0.00476951
0.00431793
0.00359835
0.00301625
0.00205708
0.00151616
0.00140606
0.00127379
0.00145157
0.00158057
0.00168482
0.00172307
0.0017504
0.0017385
0.00172856
0.00168172
0.00165314
0.00160429
0.00132765
0.00161027
0.00164521
0.00180013
0.00249015
0.0026768
0.00225225
0.00249263
0.00222369
0.00146596
0.00167789
0.00182143
0.00186062
0.00183662
0.00176033
0.00173462
0.00171286
0.00168531
0.00165262
0.00163274
0.00164922
0.00166647
0.00164857
0.00156783
0.00150238
0.00139647
0.00129024
0.00121153
0.00115056
0.00110456
0.00105333
0.000995762
0.000874663
0.00081065
0.0010733
0.00134744
0.00143973
0.00204068
0.00248807
0.00250501
0.00187568
0.001337
0.00138775
0.00154248
0.00155751
0.00131944
0.00156749
0.00177484
0.00183933
0.00191656
0.00214256
0.00244088
0.00238009
0.00211991
0.00195418
0.00190315
0.00218596
0.00208127
0.00269946
0.00271629
0.00236374
0.00219462
0.00246859
0.00318421
0.00342273
0.00265695
0.00249621
0.00244745
0.00241558
0.00218585
0.00226354
0.00205656
0.00185314
0.00201929
0.00243847
0.00231264
0.00252516
0.00261695
0.00245542
0.00284523
0.00328094
0.00323442
0.00258829
0.00211199
0.00196874
0.00198351
0.00121313
0.00130996
0.00141055
0.00144512
0.00146954
0.00149018
0.00158843
0.00158484
0.00156146
0.00155801
0.00158491
0.000873631
0.000946577
0.000970165
0.000976971
0.000928243
0.000918628
0.000901392
0.000887423
0.000837324
0.00080128
0.000958631
0.00107632
0.00117221
0.00128438
0.0014514
0.00165571
0.00187045
0.00208747
0.00223099
0.00227189
0.00231307
0.00222955
0.00214509
0.00222152
0.00223431
0.00221979
0.00218996
0.00215226
0.00210139
0.00200821
0.00211601
0.0021101
0.00198224
0.00169899
0.00173694
0.00173382
0.00177887
0.00176962
0.00178737
0.00176201
0.0017323
0.00164905
0.00153289
0.0012759
0.00124383
0.00125929
0.00161712
0.00196323
0.00303259
0.00369936
0.00429566
0.00459726
0.00491961
0.00397941
0.0044289
0.00341307
0.00306414
0.00389473
0.00509542
0.00290683
0.00158661
0.00300954
0.00266927
0.00193615
0.00172344
0.00177595
0.0017795
0.00204392
0.00235625
0.00261514
0.002741
0.00285232
0.00294124
0.0030394
0.00316344
0.00319755
0.00308917
0.00261487
0.00315116
0.00255888
0.00298726
0.00269749
0.00181965
0.00192941
0.00204521
0.00187109
0.00181952
0.00174211
0.00156818
0.00192938
0.00249842
0.00289998
0.00331559
0.00442115
0.00409029
0.00392225
0.00303725
0.00293698
0.00152456
0.00217458
0.0022544
0.00253415
0.00168537
0.00153697
0.00145843
0.00193567
0.00224265
0.00264699
0.0029366
0.00348922
0.00270474
0.00308668
0.00279181
0.00194481
0.00187271
0.00268245
0.00288986
0.00237734
0.00212593
0.00266684
0.00252394
0.00179053
0.0014346
0.00220276
0.00228065
0.00163535
0.00405244
0.00432853
0.00415357
0.00507249
0.00635157
0.00723641
0.00673432
0.00597149
0.00667415
0.00530299
0.00513322
0.00547208
0.00459033
0.00320434
0.00328526
0.00339684
0.00348746
0.00374313
0.00397569
0.0042604
0.00453183
0.00412041
0.00342281
0.00259147
0.00178267
0.00175752
0.00174814
0.0015698
0.00232662
0.00352222
0.00350004
0.0019904
0.00115979
0.00131057
0.0014794
0.00146472
0.00106368
0.000800226
0.00137833
0.00157607
0.00160157
0.00156185
0.00147466
0.00154105
0.00247492
0.00381288
0.00418955
0.00433932
0.00448115
0.00458145
0.00463747
0.00465552
0.00466576
0.00467821
0.00468912
0.00470549
0.00469107
0.00459124
0.00403835
0.00253886
0.00148399
0.00137845
0.00152135
0.00163501
0.00173419
0.00147564
0.000902354
0.00144115
0.0018455
0.00212121
0.00213935
0.00199656
0.0019368
0.00305414
0.00406084
0.00478653
0.0049335
0.00499896
0.00494412
0.00493705
0.00482934
0.00479577
0.00420513
0.00300764
0.00328788
0.00352994
0.00357003
0.0036522
0.00377577
0.00368797
0.00348442
0.00509253
0.00587706
0.0059526
0.0060799
0.00600869
0.00590561
0.00563798
0.00533197
0.00448911
0.00336664
0.00212434
0.00216887
0.00230913
0.00228721
0.00199132
0.00209765
0.00227632
0.0022991
0.00237437
0.00266246
0.00302389
0.00288482
0.00248303
0.00210842
0.00196314
0.00192146
0.00184324
0.00138005
0.001401
0.00136228
0.00138496
0.00186103
0.00221516
0.00255443
0.00362244
0.00323141
0.00262806
0.00416565
0.00426851
0.00458559
0.0050663
0.00519219
0.00575258
0.00400398
0.00360885
0.00370714
0.00302848
0.00280338
0.00283335
0.00284406
0.00265108
0.00290151
0.00287576
0.00277166
0.00305997
0.00337144
0.00444542
0.0053861
0.00568256
0.00585376
0.00592357
0.00590086
0.00578563
0.00582198
0.00511321
0.00510888
0.00489321
0.00475336
0.00470445
0.00447242
0.0051189
0.00531315
0.00537734
0.0055107
0.00571909
0.00556412
0.00539195
0.00526112
0.00516657
0.00506768
0.00512142
0.00521584
0.00531666
0.00545856
0.0056484
0.00568036
0.00548343
0.0053348
0.00523335
0.00513815
0.00514203
0.00522692
0.00532608
0.00546704
0.00564731
0.00554747
0.00540729
0.00528262
0.0051805
0.00509072
0.00491271
0.00503091
0.00516104
0.00526832
0.00533797
0.00461244
0.00493018
0.00484543
0.00438703
0.00410624
0.00311837
0.00337479
0.00355868
0.00387609
0.00430254
0.00438622
0.00368092
0.00315449
0.00307402
0.00304926
0.00312138
0.00314718
0.00316234
0.00357313
0.00538211
0.00541943
0.0054348
0.00543682
0.00464976
0.0045183
0.00420914
0.00769314
0.00716275
0.00620581
0.00511661
0.00274299
0.00235132
0.00278518
0.003387
0.0037869
0.00417948
0.00277453
0.00171876
0.00200319
0.0020773
0.00202692
0.0018738
0.00156118
0.00144112
0.00130798
0.0014075
0.00249221
0.00397681
0.00447956
0.00452726
0.00448258
0.00439578
0.00429056
0.00414418
0.0040826
0.00512963
0.00691755
0.0078479
0.00782141
0.00672049
0.00546922
0.00307537
0.00157104
0.00113693
0.00126007
0.00138257
0.00162829
0.00145581
0.00120159
0.00131491
0.00125486
0.00254691
0.00440961
0.00564157
0.00669051
0.0065714
0.00569885
0.0046799
0.00444557
0.0045501
0.00461873
0.00467831
0.00473955
0.00478159
0.00475495
0.0043279
0.0026739
0.00159636
0.0014185
0.0015254
0.00178772
0.00189934
0.0019184
0.00189148
0.00163962
0.00271144
0.00430608
0.00273834
0.00149415
0.0016145
0.00160289
0.00282732
0.00282286
0.00276183
0.00429717
0.00454345
0.00453179
0.00425806
0.00406514
0.00240662
0.00273088
0.00273989
0.0027544
0.00279957
0.00141411
0.00154136
0.00158928
0.00171069
0.00149733
0.0019016
0.00049205
0.000681842
0.000792
0.000861076
0.000927624
0.000909953
0.00174052
0.00176567
0.00168533
0.00164116
0.00208334
0.00223581
0.00228525
0.00210504
0.00194252
0.00206775
0.00207219
0.00195267
0.00184974
0.00191808
0.00191949
0.00183939
0.0015645
0.00146598
0.00160947
0.00159214
0.00157934
0.00283629
0.00283135
0.00267952
0.00440278
0.00433193
0.00485205
0.00482074
0.00481541
0.00479616
0.0048476
0.00487418
0.00489422
0.00491792
0.0049083
0.00486106
0.00676499
0.00478119
0.00417224
0.00241276
0.00232409
0.00164137
0.00143846
0.00169384
0.00181163
0.00196404
0.00191958
0.00202371
0.00202137
0.00214483
0.00199077
0.0017677
0.00270761
0.00289259
0.00282522
0.00288115
0.00281338
0.00279687
0.00277622
0.00273665
0.00268903
0.00160108
0.00157052
0.0018391
0.00193053
0.00207438
0.0020932
0.00213863
0.00202829
0.00178387
0.00172678
0.00198863
0.00196181
0.00199992
0.00188556
0.0018778
0.00167293
0.0017153
0.00345978
0.00638848
0.00328686
0.00365104
0.00330752
0.00376188
0.00329488
0.00284149
0.00290814
0.00256152
0.00267199
0.00280273
0.00285343
0.00299892
0.00353496
0.00340357
0.00298767
0.00290099
0.00284382
0.00268135
0.00241342
0.00252831
0.0025512
0.00260596
0.00289625
0.00332195
0.00372392
0.00452412
0.00439005
0.00384654
0.00351624
0.00368689
0.00375125
0.00472162
0.00441062
0.00438507
0.00462625
0.00458089
0.00434774
0.00411992
0.00397675
0.00341428
0.00347054
0.00397227
0.00384353
0.00396062
0.00389085
0.00404431
0.00411687
0.00395161
0.00367305
0.00386023
0.00385217
0.00427824
0.00416162
0.00386009
0.00353259
0.00377478
0.00372845
0.0043073
0.00405558
0.00379348
0.0034912
0.00334376
0.00379476
0.00372599
0.00422524
0.00434676
0.00434858
0.00379094
0.00370352
0.00440458
0.00423815
0.00409265
0.00426269
0.00353004
0.00363163
0.00447366
0.00456736
0.00433239
0.00361662
0.00367288
0.00314976
0.00370371
0.0046097
0.0043528
0.00356769
0.0029603
0.00414245
0.00435967
0.00461167
0.00435831
0.00474806
0.00511562
0.00416971
0.0045368
0.00592872
0.0045256
0.00525174
0.00536818
0.00539991
0.0054028
0.0054238
0.00545093
0.00574265
0.00558573
0.00355114
0.00424779
0.00412583
0.00345021
0.00293364
0.00323104
0.00347953
0.00352934
0.00361854
0.00375625
0.00369196
0.00356988
0.00522509
0.00596404
0.00609375
0.00621572
0.00611495
0.00596576
0.00561908
0.00519358
0.00430973
0.0032137
0.00200488
0.00204326
0.00217703
0.00215559
0.00186957
0.00141085
0.000927037
0.00137661
0.00142379
0.00134129
0.00122294
0.00107959
0.00111706
0.00203899
0.00402121
0.0054593
0.00601161
0.00646159
0.00694515
0.0074207
0.00778573
0.00804928
0.00822495
0.00832997
0.008348
0.00817791
0.00742589
0.00709666
0.00668982
0.00635772
0.00590014
0.00554498
0.00626528
0.0068817
0.00726272
0.00769113
0.00788928
0.00780548
0.00678238
0.00657885
0.00756742
0.00932134
0.00791861
0.00995162
0.0117077
0.00912215
0.00819971
0.00819295
0.00915535
0.0093341
0.00900091
0.0084813
0.00788553
0.00713463
0.00750353
0.00783944
0.0081638
0.00846146
0.00929821
0.00945259
0.00938703
0.00924795
0.00905776
0.00877715
0.00833251
0.00772289
0.00705096
0.00639731
0.00563735
0.00405872
0.00189367
0.00215436
0.00210716
0.00230102
0.00222701
0.00101565
0.00112032
0.00113501
0.00114332
0.00108082
0.00122962
0.00178049
0.00289987
0.00208572
0.0017141
0.0011838
0.00139291
0.00232855
0.0039615
0.00447578
0.00455917
0.00460858
0.00583266
0.00682288
0.00726988
0.00760608
0.00785609
0.00775341
0.00749385
0.0070354
0.00647157
0.00625858
0.00591434
0.00560908
0.00544554
0.00527576
0.00495364
0.00389619
0.00372459
0.00388127
0.00383549
0.00367237
0.00392422
0.00406652
0.00406348
0.00410899
0.00414888
0.00427189
0.00441666
0.0045428
0.0046093
0.00463438
0.00464274
0.00465292
0.00466107
0.00467585
0.00466044
0.00455869
0.00400298
0.00250261
0.00146051
0.00134999
0.00148019
0.00156523
0.00160153
0.00142206
0.000915308
0.00142238
0.00184119
0.00188847
0.00207241
0.00213842
0.00226836
0.00252719
0.00292031
0.00301324
0.00267363
0.00253204
0.00247763
0.00241483
0.00206206
0.00257053
0.00283875
0.00283375
0.00280754
0.00303484
0.00373508
0.00358743
0.00316299
0.00312699
0.00309499
0.00279608
0.00275365
0.00301132
0.00304493
0.00315952
0.00370552
0.00444465
0.00412256
0.00375423
0.00359803
0.00332204
0.00292256
0.00264144
0.0032567
0.0026749
0.00139967
0.00118618
0.00118642
0.00118921
0.00114601
0.00135852
0.00142951
0.00144941
0.00135045
0.00149874
0.00166845
0.00161671
0.00182785
0.00180257
0.00161233
0.00159609
0.00173082
0.00183094
0.00188066
0.00192672
0.0031579
0.00325752
0.00252493
0.00365776
0.00421634
0.00419471
0.00444799
0.00365531
0.0032749
0.00388847
0.00449795
0.0051676
0.0040807
0.0038573
0.00395024
0.00181007
0.000952402
0.00134383
0.0016687
0.00185995
0.00180508
0.00170608
0.00144336
0.00256509
0.00263381
0.00418567
0.00469559
0.0047563
0.00472496
0.00472362
0.00513883
0.00590571
0.00677793
0.00705335
0.00695408
0.00664074
0.00605684
0.00547755
0.00544746
0.00526645
0.00513224
0.00509552
0.00443222
0.00390162
0.0041759
0.00411012
0.00424958
0.00431501
0.00436261
0.00441117
0.00449188
0.00458931
0.00467835
0.00473947
0.00478049
0.004815
0.00485003
0.004885
0.00492263
0.00494305
0.00489641
0.00442524
0.00265251
0.00158061
0.00144136
0.00153793
0.00180769
0.00190343
0.00204567
0.00181599
0.000956164
0.00112491
0.00195423
0.00216806
0.00200622
0.00187755
0.00184411
0.00154474
0.00280066
0.00276491
0.00434404
0.00488618
0.00495459
0.00494054
0.00490179
0.00485756
0.0048136
0.00477729
0.004748
0.00471721
0.00467452
0.00462341
0.00457576
0.00452687
0.00444413
0.00432719
0.00419358
0.00436208
0.00451239
0.00471049
0.00492159
0.00502384
0.00493151
0.00479589
0.00474007
0.00477443
0.00481848
0.00486328
0.00490356
0.00492447
0.00486948
0.00458863
0.00430334
0.00272345
0.0027594
0.00135589
0.00150593
0.00173769
0.00179466
0.00194884
0.00193893
0.00152336
0.00118738
0.00134005
0.00125316
0.00224001
0.00246366
0.00273325
0.00270657
0.00146848
0.00150631
0.00156532
0.00176513
0.00164059
0.00158638
0.00393203
0.00376283
0.0039359
0.00483067
0.00416096
0.00287102
0.00314593
0.00437712
0.0046174
0.00279044
0.00209244
0.00232123
0.00294085
0.00432896
0.0043838
0.0041665
0.00414293
0.00302357
0.00371647
0.00447376
0.00435225
0.00339082
0.00233655
0.00173978
0.000844077
0.00160551
0.00137259
0.00336813
0.0037282
0.00368586
0.00403108
0.0042822
0.00432585
0.00420407
0.00372641
0.00380107
0.00383902
0.00437574
0.00439616
0.00371895
0.00313746
0.00254629
0.00256967
0.00262003
0.00290378
0.00363584
0.0034256
0.00300227
0.00291086
0.00284759
0.002678
0.00241624
0.0021192
0.00213406
0.00198639
0.00192244
0.00303077
0.00403465
0.00475792
0.00489458
0.00494389
0.0048677
0.00483288
0.00469427
0.00462244
0.00401556
0.00512789
0.00541976
0.00523038
0.00526963
0.00530308
0.00534409
0.00534547
0.00524538
0.00450685
0.00269108
0.0017576
0.0019839
0.00214125
0.00201042
0.00199926
0.00213116
0.00202241
0.00177647
0.00287828
0.00281343
0.00449907
0.00509569
0.0052043
0.00520992
0.00518853
0.00517074
0.00517709
0.00544924
0.00532584
0.00540034
0.00568837
0.0056969
0.00576691
0.00541495
0.00534628
0.0053023
0.00527274
0.0052246
0.00509618
0.00450963
0.00437209
0.0049652
0.00511825
0.0051861
0.00523296
0.00528872
0.00536172
0.0055733
0.00573004
0.00579092
0.00555747
0.00547018
0.00534285
0.00516227
0.00511953
0.00511124
0.0051073
0.00508298
0.00495167
0.00435857
0.00280227
0.0028714
0.00170808
0.0017191
0.00198001
0.00207947
0.00204217
0.0018911
0.00184373
0.00318155
0.0036209
0.00384917
0.00414985
0.0039646
0.00394233
0.00450504
0.00435937
0.00388427
0.00404337
0.00362696
0.0034528
0.00334562
0.00336532
0.00176282
0.0019023
0.00198439
0.00195164
0.00186618
0.0016646
0.00152648
0.00278606
0.00276574
0.00273022
0.001623
0.00158734
0.00187012
0.00181604
0.0016612
0.001416
0.00155246
0.00239814
0.00268231
0.0041598
0.00430889
0.00461118
0.00493087
0.0050518
0.00508464
0.00510483
0.00512728
0.00517599
0.00523334
0.00524969
0.00524707
0.00528672
0.00527697
0.00527915
0.0052528
0.00522203
0.00518562
0.00514626
0.00508089
0.00494567
0.00462138
0.00430326
0.00485154
0.00489628
0.00498734
0.00508119
0.00512066
0.00512601
0.00510615
0.00506752
0.00502167
0.00496956
0.00496853
0.00511839
0.00515534
0.00518111
0.00516527
0.0051466
0.00514003
0.00511656
0.00507948
0.00498575
0.00489181
0.00485234
0.00477145
0.00489854
0.0049548
0.00496271
0.00501029
0.00508693
0.00510969
0.00511
0.0050728
0.00504126
0.00499967
0.00493099
0.00483863
0.00453681
0.00459843
0.00467885
0.00478436
0.0048861
0.00496847
0.00501535
0.00501999
0.0049751
0.00494485
0.00494638
0.00490472
0.00492618
0.00494808
0.00492212
0.00491787
0.00491962
0.0048608
0.00475618
0.0046115
0.00445926
0.00433512
0.00427489
0.00417423
0.0045079
0.00464211
0.00476037
0.00486423
0.00495695
0.00504912
0.00507582
0.00506405
0.00500762
0.00497568
0.00497474
0.00492714
0.00492438
0.00497031
0.00497175
0.00499813
0.00504586
0.00503395
0.00496828
0.00479425
0.00462431
0.00447554
0.00433199
0.00417786
0.00415284
0.004221
0.0041581
0.00420918
0.00435287
0.00453661
0.00469697
0.00480206
0.00483692
0.00486904
0.00491479
0.00491091
0.0048837
0.00486779
0.00480605
0.00475176
0.0046856
0.00454432
0.00436698
0.00421334
0.00416953
0.00425741
0.00433985
0.00426039
0.00394851
0.00410819
0.00426067
0.00441053
0.00462162
0.00486373
0.00496677
0.00500362
0.00497937
0.00496059
0.00495838
0.00491484
0.004899
0.0049392
0.00494238
0.00496156
0.00499228
0.00496424
0.00488138
0.00458574
0.00422997
0.00405791
0.0039551
0.00382065
0.0042812
0.00437142
0.00426526
0.00419313
0.00430538
0.00443332
0.00456632
0.00465556
0.0046923
0.00474485
0.0048138
0.00484774
0.00479926
0.00474191
0.00467197
0.00463626
0.00463722
0.00461747
0.00453315
0.00443088
0.00430799
0.00445195
0.0045355
0.00445353
0.00402926
0.00409621
0.00420225
0.00426479
0.0045993
0.00488566
0.00494842
0.00494756
0.0049156
0.00489503
0.00489534
0.0048698
0.00482163
0.00481324
0.00480962
0.00486755
0.00494382
0.00499203
0.0050184
0.00480562
0.00440656
0.00433431
0.00414489
0.00405985
0.0045133
0.00456433
0.00445988
0.00436356
0.00457754
0.00466721
0.00469002
0.00466851
0.00461723
0.00458416
0.00464371
0.004738
0.00466713
0.00436296
0.0040935
0.00423273
0.00426857
0.00426009
0.00420373
0.0041069
0.00389319
0.00434806
0.00479053
0.00482533
0.00435073
0.0043582
0.0042287
0.00394169
0.00432956
0.00452992
0.00457109
0.00454806
0.0044743
0.00430222
0.0045436
0.00475638
0.0047152
0.0042686
0.00277036
0.00280826
0.00282791
0.0028301
0.00279324
0.00278288
0.00274246
0.00272146
0.00265856
0.00259444
0.00253346
0.00270151
0.00284539
0.00303955
0.00305572
0.00313611
0.00300196
0.00284188
0.00265449
0.00206812
0.00262428
0.00313097
0.00332759
0.00357963
0.00363146
0.00418397
0.00439865
0.00451225
0.00442211
0.00354812
0.00300952
0.00240503
0.00156418
0.000974695
0.00114402
0.00118986
0.00124854
0.00152621
0.00282103
0.00143692
0.00199069
0.00155695
0.00267784
0.00141694
0.000888324
0.000589827
0.00075322
0.000894964
0.000903006
0.000864219
0.000720619
0.00056534
0.000577857
0.000538247
0.000571855
0.000515262
0.00059052
0.000552825
0.000772647
0.00116193
0.00131827
0.00134737
0.00108894
0.00122787
0.00102588
0.00118294
0.00105624
0.00115086
0.00110379
0.00134973
0.00147903
0.00141587
0.00141968
0.00124221
0.000868732
0.00100701
0.00079102
0.000949748
0.000726617
0.000938185
0.000804334
0.00104506
0.00107727
0.00107415
0.00103425
0.000790172
0.000937339
0.000737954
0.000906754
0.000742784
0.000791965
0.000659695
0.000957471
0.00097558
0.000898445
0.000958998
0.00107831
0.00115799
0.00127624
0.00120515
0.0013726
0.00132334
0.00133948
0.00126819
0.00123228
0.00120412
0.00120655
0.00118674
0.00119329
0.00123181
0.00123378
0.00123872
0.00127806
0.0012596
0.00122957
0.00121159
0.00107659
0.000868884
0.00151372
0.00156107
0.0015843
0.00158397
0.00154839
0.0015312
0.00147867
0.0014647
0.00141898
0.00139205
0.00133054
0.00127989
0.00122216
0.00137414
0.000768864
0.00087292
0.000921462
0.000948654
0.000967593
0.000976198
0.000983181
0.000977562
0.000965332
0.000941352
0.000933075
0.000907005
0.0011602
0.00131937
0.00137886
0.00139454
0.00130695
0.00124444
0.00272047
0.00329276
0.00500988
0.00511996
0.00384291
0.00383225
0.00132764
0.00139984
0.000956683
0.00134426
0.00138593
0.00137173
0.00129585
0.000934785
0.00140344
0.000977906
0.00132012
0.000991379
0.00123036
0.00101562
0.00144785
0.0018458
0.00178195
0.0016136
0.00110508
0.000919737
0.000921651
0.000786839
0.00086142
0.000706305
0.000865182
0.00073073
0.00108505
0.00153961
0.00170214
0.00173606
0.00136868
0.00188808
0.00141962
0.00205493
0.00163127
0.00201121
0.00161357
0.00186698
0.00230983
0.00231994
0.00226469
0.00182519
0.00146296
0.00164203
0.0014548
0.00167537
0.0024214
0.00158681
0.00240702
0.000994237
0.00135504
0.00139648
0.00137711
0.00129824
0.000874453
0.00222773
0.00117814
0.00210019
0.00136064
0.00218666
0.00158699
0.00210379
0.00251771
0.00263405
0.00262532
0.00214157
0.00193172
0.0019981
0.00159546
0.00191435
0.00142452
0.00206702
0.00117027
0.00152029
0.00168215
0.00177044
0.00177775
0.00146144
0.00288498
0.00181133
0.00273366
0.0019007
0.00243469
0.00195136
0.00213435
0.00252027
0.00250438
0.0024832
0.00210559
0.00170362
0.00224887
0.0016042
0.04786
0.110528
0.0440163
0.111723
0.0506294
0.0718469
0.0707877
0.0709211
0.0711707
0.0534503
0.116485
0.137636
0.143559
0.145334
0.144273
0.23314
0.190121
0.285645
0.18516
0.108947
0.0472461
0.0651323
0.168109
0.277627
0.416587
0.52854
0.360199
0.372802
0.237894
0.234514
0.220742
0.178512
0.109305
0.0548407
0.00939632
0.0102798
0.0146844
0.0195398
0.0154243
0.00946668
0.00187101
0.00193113
0.00197521
0.00200326
0.00199762
0.00195694
0.00198997
0.00188091
0.00177001
0.00198047
0.00215903
0.00231271
0.00272668
0.00301386
0.00271731
0.00297819
0.00315588
0.00330028
0.00341937
0.00359706
0.00379732
0.0039736
0.00398298
0.00364982
0.00311155
0.00253051
0.00212558
0.00201327
0.00189032
0.00166697
0.00152476
0.00142682
0.00138018
0.00136115
0.00139916
0.00152952
0.00164295
0.0016828
0.00165013
0.00161982
0.00159342
0.00141889
0.00165914
0.00227586
0.00229281
0.00392833
0.00452637
0.00462063
0.00462732
0.00410061
0.00261919
0.0026251
0.00263864
0.00268939
0.00270019
0.00270813
0.00270564
0.00269737
0.00268189
0.00265345
0.00263885
0.00259605
0.00255963
0.00246745
0.00247147
0.00250247
0.00252738
0.0024854
0.00249508
0.0024436
0.00319813
0.00426598
0.00479935
0.00501522
0.00520076
0.00504763
0.00699914
0.00599364
0.00420788
0.00413504
0.00408372
0.00484481
0.00487667
0.00440136
0.00441967
0.00403788
0.00252202
0.00251789
0.00251962
0.00269649
0.00274996
0.00284141
0.00286696
0.0028877
0.00290095
0.00289285
0.0028904
0.00286298
0.00284328
0.00277797
0.00275636
0.002747
0.00151451
0.0016531
0.00171541
0.00172737
0.00175354
0.0017435
0.0017343
0.00171373
0.00170107
0.00167275
0.00164063
0.00159145
0.00149568
0.00136203
0.00149846
0.00254105
0.00253977
0.00413681
0.00466286
0.00469744
0.00523226
0.00496735
0.00470513
0.00504655
0.00454773
0.00451003
0.00408705
0.00253923
0.00257374
0.00152865
0.00151591
0.00177341
0.00172507
0.00184388
0.00189468
0.00189975
0.00192565
0.00194978
0.00198041
0.00202996
0.00204395
0.00201049
0.00200372
0.00188684
0.00163028
0.00164938
0.00194474
0.0020404
0.00189551
0.00186379
0.00185021
0.00180537
0.0017713
0.00173892
0.00176191
0.00189752
0.00189496
0.00186072
0.00177023
0.00172319
0.00149279
0.00144159
0.00251882
0.00255766
0.00422484
0.00431708
0.00428817
0.00494794
0.00552966
0.00628662
0.00536748
0.00436078
0.00453476
0.00518684
0.00386269
0.00323835
0.0019253
0.00144628
0.00180778
0.0016666
0.00173802
0.00180089
0.00159936
0.0017191
0.00158937
0.00144436
0.0014361
0.00143443
0.00146953
0.00148443
0.00151117
0.00151482
0.00155128
0.00154768
0.0015515
0.0015703
0.00157752
0.00174287
0.00189295
0.00159378
0.0013515
0.00131768
0.00124441
0.00118517
0.00121421
0.00118517
0.0011779
0.00115635
0.00113671
0.00108482
0.00113046
0.00119968
0.00140358
0.00134321
0.00108557
0.000969853
0.000662791
0.000676207
0.000680877
0.000701716
0.000709424
0.000718855
0.000722398
0.000734117
0.000736419
0.00074014
0.000739859
0.000757798
0.000755201
0.000746431
0.00074083
0.000744351
0.00074766
0.000747062
0.00109399
0.00121799
0.00132963
0.00157892
0.00185734
0.00159913
0.00135581
0.00116925
0.00075165
0.000762888
0.000776765
0.000783945
0.000800585
0.000815749
0.000832634
0.000843268
0.000851223
0.000859547
0.000868339
0.000871815
0.000869645
0.000852819
0.000842919
0.000864365
0.000950168
0.00100002
0.00106403
0.00108821
0.00110879
0.00111899
0.00111388
0.00112563
0.00111257
0.00111082
0.00109203
0.00108408
0.00107651
0.00106693
0.00105492
0.00102516
0.00101524
0.00106817
0.00180831
0.00236437
0.00271991
0.00299385
0.00277131
0.00225204
0.00236191
0.00415095
0.00393216
0.00231817
0.00216577
0.00200063
0.00175047
0.00152953
0.00184949
0.00211029
0.00230756
0.00248049
0.00263861
0.00274591
0.00288407
0.00306452
0.00338361
0.00342336
0.00312257
0.00252943
0.00213944
0.00199635
0.00192803
0.00181048
0.00168215
0.00172464
0.00173729
0.00168582
0.00162194
0.00160415
0.00163102
0.00166587
0.00164615
0.0016455
0.00147016
0.00146956
0.00251128
0.00255686
0.00393337
0.00414471
0.00418544
0.00269003
0.00265355
0.00154989
0.00143965
0.00157059
0.00163064
0.00163423
0.0016412
0.00163331
0.00160501
0.00158439
0.00156018
0.00154048
0.0015228
0.00149229
0.00143381
0.00132439
0.00144268
0.00161752
0.00169008
0.00170931
0.00171867
0.00174584
0.00179043
0.00182587
0.00190842
0.00191616
0.00191513
0.00192167
0.0017958
0.00185169
0.00156704
0.00156449
0.00271182
0.00270393
0.00155333
0.00183416
0.00184708
0.00182643
0.0019667
0.00179968
0.00174284
0.00173429
0.00166098
0.00162201
0.00156967
0.00153842
0.00156806
0.00166746
0.00161372
0.00143015
0.00137688
0.00154549
0.001488
0.00123459
0.00105489
0.00102607
0.000982321
0.00095578
0.00100192
0.00103804
0.00105863
0.00108469
0.00109238
0.00114011
0.00110904
0.00116332
0.00123367
0.00128971
0.0015296
0.00165787
0.00149772
0.0014691
0.00145092
0.00144995
0.0014547
0.00139482
0.00139089
0.0013599
0.00134459
0.00130385
0.00128548
0.0012621
0.0012661
0.00127921
0.00140623
0.00361546
0.00461104
0.00480273
0.00820906
0.00331646
0.00338567
0.00665011
0.00274616
0.00413038
0.00442479
0.00462443
0.0048282
0.00441891
0.00562786
0.00392347
0.00437307
0.00454838
0.00397135
0.00150084
0.00172933
0.00198319
0.00176126
0.00155504
0.00105901
0.00114056
0.0011772
0.00120717
0.0012263
0.001248
0.00127105
0.00129279
0.0013079
0.0013079
0.0012678
0.0012247
0.0011258
0.00109287
0.00113505
0.00117861
0.0010347
0.000974155
0.000985511
0.00100151
0.00101043
0.00101218
0.00102188
0.00102439
0.00103979
0.00103133
0.00103898
0.00102103
0.00102976
0.00101663
0.000982244
0.000933581
0.000851205
0.000831199
0.00119732
0.00127513
0.00133943
0.00152069
0.00175655
0.00187474
0.0016807
0.00155051
0.00148837
0.001651
0.00165294
0.00300858
0.00577354
0.0025838
0.00289157
0.00843206
0.0033539
0.00260461
0.00264347
0.00267103
0.00267501
0.0015543
0.0018406
0.00178436
0.0017925
0.00152061
0.00127696
0.00114536
0.00102403
0.000694656
0.000692443
0.000697664
0.000708501
0.000711895
0.000681401
0.000681322
0.000677439
0.000675931
0.000661536
0.000657523
0.000645793
0.000638672
0.00062178
0.000612655
0.000596692
0.000594118
0.000623221
0.000695963
0.000841939
0.000933035
0.00106281
0.00108072
0.00120906
0.002984
0.00346007
0.00477054
0.00473493
0.00746615
0.00466619
0.00352445
0.00318053
0.0046541
0.00480995
0.00445677
0.00603458
0.00417447
0.00277044
0.00424063
0.00353961
0.00411273
0.00405837
0.00431482
0.0068588
0.00721123
0.00202544
0.00180469
0.00189741
0.00215336
0.00255731
0.00235887
0.00268532
0.00269108
0.00208431
0.00131267
0.00417738
0.00504504
0.00408093
0.00492311
0.00754013
0.00302582
0.00295026
0.00260997
0.00217828
0.00197926
0.00195353
0.00217889
0.00260741
0.00652281
0.00698077
0.00648599
0.006481
0.00587315
0.00640592
0.00798443
0.00793931
0.00702463
0.00657047
0.00682472
0.00427475
0.00261463
0.00304057
0.00337463
0.00450372
0.0046452
0.00980182
0.00333473
0.00367911
0.00373605
0.00499188
0.00483998
0.00853715
0.00363103
0.00391123
0.00515281
0.00689055
0.0126729
0.0046451
0.00488188
0.00701512
0.0071232
0.00651198
0.0047114
0.00426183
0.00463794
0.00349519
0.0034175
0.00291429
0.00429899
0.0057821
0.00458327
0.00445011
0.00378144
0.00338144
0.0034488
0.00358253
0.00297693
0.00293402
0.00338133
0.00252349
0.00244491
0.00257191
0.000716255
0.000367052
0.000375133
0.0003849
0.000392838
0.000401048
0.000407012
0.000414136
0.000417284
0.000417672
0.000418814
0.000442807
0.000438595
0.00042472
0.000385657
0.000439996
0.000698221
0.0006986
0.000439403
0.000387339
0.000695108
0.00110741
0.0013055
0.001544
0.0015628
0.00134871
0.00116951
0.00072008
0.000708722
0.000429542
0.000501689
0.000544815
0.000483291
0.000539445
0.000500037
0.00052956
0.000535299
0.000495415
0.00049255
0.000494416
0.000490686
0.000481909
0.000471252
0.000458272
0.000448214
0.000443019
0.000439386
0.000430847
0.000356485
0.000332934
0.000402428
0.000644089
0.000644835
0.00060332
0.000566909
0.000535488
0.000520668
0.000516139
0.000512987
0.000521914
0.000538733
0.000543516
0.00054842
0.000590833
0.000571996
0.000610926
0.000573444
0.00061258
0.000574871
0.000528843
0.000444037
0.000458105
0.000739101
0.000746975
0.00120655
0.00137983
0.00156435
0.00157207
0.00175504
0.00184874
0.00156609
0.00162593
0.0018628
0.00173446
0.00154557
0.00155188
0.00139574
0.0013975
0.00123843
0.000774185
0.000763715
0.000479589
0.000465803
0.000555418
0.000545761
0.000606951
0.000649652
0.000649859
0.000647774
0.000631991
0.000626199
0.000550675
0.000539743
0.000540482
0.00052424
0.000521027
0.000544302
0.00059601
0.000701354
0.000848874
0.000923369
0.000953744
0.000913834
0.000817504
0.000605716
0.0005456
0.000947532
0.000980949
0.0017728
0.00421055
0.00198272
0.00371851
0.00268234
0.000664853
0.000740751
0.000944498
0.00105825
0.00114296
0.00119288
0.00109197
0.000912222
0.0006868
0.000566952
0.000843666
0.00072941
0.000822496
0.000718111
0.00092931
0.00107427
0.00103902
0.0010466
0.000884288
0.000720134
0.000762681
0.000684457
0.000754411
0.000631687
0.000760005
0.000686015
0.000862
0.000870073
0.000851938
0.000807486
0.000614797
0.00064507
0.000541146
0.000587108
0.000527228
0.000544976
0.000516414
0.00060218
0.000693931
0.000666035
0.000663466
0.000545173
0.000427273
0.000471991
0.000408367
0.000462247
0.000359387
0.000435309
0.000364935
0.000472529
0.00048734
0.000490433
0.000488225
0.000398123
0.000468215
0.000571964
0.000599671
0.000604197
0.000575089
0.000443495
0.000686068
0.000618447
0.000755028
0.000652675
0.000714774
0.00065074
0.000758434
0.000971403
0.00101431
0.00102104
0.000828489
0.000823444
0.00150342
0.0834973
0.00135241
0.00159861
0.00164861
0.00164275
0.00135808
0.00132464
0.00164117
0.00121353
0.00171916
0.0010825
0.00183436
0.000699264
0.0010631
0.00114142
0.00113905
0.00105868
0.000710728