/*--------------------------------*- C++ -*----------------------------------*\
| =========                 |                                                 |
| \\      /  F ield         | OpenFOAM: The Open Source CFD Toolbox           |
|  \\    /   O peration     | Version:  v2012                                 |
|   \\  /    A nd           | Website:  www.openfoam.com                      |
|    \\/     M anipulation  |                                                 |
\*---------------------------------------------------------------------------*/
FoamFile
{
    version     2.0;
    format      ascii;
    class       volScalarField;
    location    "1135";
    object      alphat;
}
// * * * * * * * * * * * * * * * * * * * * * * * * * * * * * * * * * * * * * //

dimensions      [1 -1 -1 0 0 0 0];


internalField   nonuniform List<scalar> 
18258
(
0.004858
0.00211284
0.00173222
0.00150138
0.000992952
0.00162554
0.0022573
0.00268703
0.00281889
0.00279428
0.00289261
0.00488023
0.00684791
0.00846207
0.00888819
0.00887337
0.00805283
0.00768961
0.00834866
0.0102711
0.00864405
0.00553614
0.00663429
0.00766608
0.00833803
0.0073842
0.00596838
0.00552902
0.005007
0.00417363
0.00349797
0.00237955
0.00175793
0.0016301
0.00147654
0.0016827
0.00183232
0.00195324
0.00199711
0.00202838
0.00201435
0.00200265
0.00194843
0.00191548
0.00185946
0.00153966
0.00186892
0.00189889
0.00208006
0.0028778
0.00309386
0.00260343
0.00288222
0.00257178
0.00169527
0.00194076
0.0021067
0.00215211
0.00212447
0.00203634
0.00200666
0.00198152
0.00194964
0.00191177
0.00188867
0.00190758
0.00192731
0.00190632
0.00181258
0.00173663
0.00161372
0.00149051
0.00139915
0.00132836
0.001275
0.00121588
0.00114943
0.00100965
0.000935731
0.00123898
0.00155536
0.00166179
0.00235525
0.00287145
0.00289077
0.00216341
0.00154157
0.00159977
0.00177859
0.00179668
0.00152284
0.00181104
0.00205178
0.00212675
0.00221646
0.00247712
0.00281914
0.00274802
0.00244715
0.00225415
0.00222276
0.0025421
0.0024139
0.00313044
0.00315593
0.00275787
0.00252955
0.00284735
0.00367194
0.0039519
0.00307355
0.00288647
0.00282931
0.00279351
0.00252623
0.00261429
0.00237396
0.00213906
0.00233029
0.00281704
0.00267194
0.00291854
0.00302416
0.00283724
0.00328775
0.00379166
0.00373669
0.0029903
0.00243711
0.00227176
0.00228917
0.00140003
0.0015119
0.00162966
0.00166957
0.00169747
0.0017212
0.0018354
0.00183126
0.0018044
0.00180042
0.00183226
0.00100967
0.00109384
0.00112103
0.00112888
0.00107223
0.00106122
0.00104145
0.00102536
0.000966591
0.000924814
0.00110664
0.00124267
0.00135356
0.00148314
0.00167663
0.00191335
0.00216211
0.00241349
0.0025798
0.00262723
0.00267514
0.00257816
0.0024806
0.00256911
0.00258403
0.00256734
0.00253281
0.00248922
0.00243031
0.00232236
0.00244704
0.00244038
0.00229292
0.00196499
0.00200906
0.00200566
0.00205808
0.00204773
0.0020686
0.00203943
0.00200522
0.00190873
0.00177425
0.00147756
0.00143926
0.00145806
0.00187297
0.00227431
0.00351366
0.00428694
0.00497803
0.00532744
0.00570338
0.00461396
0.00513456
0.00395752
0.00355334
0.00451653
0.0059094
0.00337138
0.00184041
0.00348931
0.00309427
0.00224335
0.00199624
0.0020564
0.00205988
0.00236698
0.00272925
0.00302879
0.003174
0.00330225
0.00340452
0.003517
0.00365982
0.00369865
0.00357295
0.00302414
0.00364434
0.0029592
0.00345493
0.00311958
0.00210374
0.0022288
0.00236526
0.00216509
0.00210603
0.00201797
0.0018157
0.00223041
0.00290105
0.00336825
0.00385083
0.00513225
0.00474829
0.00455616
0.003528
0.00341148
0.00177151
0.00252789
0.00261554
0.00294107
0.00195521
0.00178305
0.00169102
0.00224013
0.0025962
0.00306491
0.00339903
0.00403628
0.00312856
0.00357139
0.00322938
0.00224849
0.00216519
0.00310291
0.00334433
0.00275202
0.00246097
0.00308613
0.00291933
0.0020702
0.00165973
0.00254935
0.00264102
0.00189401
0.00472066
0.00503027
0.00479276
0.00582271
0.00729737
0.00830831
0.0077433
0.00686709
0.00766168
0.00609258
0.00590923
0.00630144
0.00528908
0.00370225
0.00379595
0.00392556
0.004032
0.00432954
0.00460015
0.00493053
0.00524499
0.00476802
0.00395943
0.00299654
0.00206185
0.00203423
0.00202418
0.00181756
0.00269347
0.00407409
0.00404555
0.00229797
0.0013396
0.00151546
0.00171134
0.00169458
0.00122933
0.000925426
0.00159427
0.00182291
0.00185233
0.00180631
0.00170542
0.00178205
0.00286175
0.00440859
0.00484397
0.00501683
0.00518032
0.00529569
0.00535972
0.00537978
0.00539078
0.00540441
0.00541641
0.0054349
0.005418
0.00530261
0.00466409
0.00293252
0.00171431
0.00159261
0.0017577
0.00188908
0.00200382
0.00170506
0.00104244
0.00166513
0.00213208
0.00245046
0.00247129
0.00230633
0.00223725
0.00352766
0.00469033
0.00552852
0.0056981
0.00577339
0.00570964
0.00570091
0.00557588
0.00553628
0.0048539
0.00347579
0.00380087
0.00408134
0.00412876
0.00422461
0.00436841
0.00426719
0.00403046
0.00589206
0.00679741
0.00688427
0.00703049
0.00694672
0.00682589
0.00651487
0.00615984
0.00518532
0.00388838
0.00245322
0.0025042
0.00266564
0.00263992
0.00229786
0.00242155
0.00262824
0.00265457
0.00274142
0.00307455
0.00349222
0.00333096
0.00286593
0.00243422
0.00226653
0.0022193
0.00212955
0.0015954
0.00161896
0.00157342
0.00159921
0.00214797
0.00255652
0.00294841
0.00418259
0.00373114
0.00303437
0.00481272
0.00493098
0.00529765
0.00585182
0.00599694
0.00664494
0.00462548
0.00416836
0.00428208
0.00349776
0.00323751
0.00327201
0.00328432
0.00306077
0.00335012
0.00332073
0.00320083
0.00353399
0.00389455
0.00513583
0.00622392
0.00656767
0.00676667
0.00684828
0.00682251
0.00668883
0.00672995
0.00591019
0.00590232
0.0056533
0.00549069
0.00543273
0.00516223
0.00591081
0.00613677
0.00621209
0.00636712
0.00660872
0.00643067
0.00623045
0.00607828
0.00596804
0.00585258
0.0059153
0.0060255
0.00614298
0.00630809
0.00652893
0.00656606
0.00633723
0.00616439
0.00604615
0.00593512
0.00593995
0.00603901
0.00615452
0.00631834
0.00652757
0.00641155
0.00624902
0.00610423
0.00598546
0.00588089
0.00567529
0.00581253
0.00596347
0.0060879
0.00616862
0.00532937
0.00569656
0.00559838
0.0050684
0.00474356
0.00360228
0.00389848
0.00411111
0.00447777
0.00497047
0.00506732
0.00425214
0.00364388
0.00355068
0.00352198
0.00360481
0.00363471
0.00365243
0.00412716
0.0062206
0.00626241
0.00627952
0.00628163
0.00537075
0.00521894
0.00486284
0.00889229
0.00827795
0.00717168
0.00590986
0.00316731
0.00271503
0.00321638
0.00391123
0.00437264
0.00482482
0.00320352
0.0019839
0.00231188
0.0023965
0.00233714
0.00216004
0.00179959
0.00166118
0.00150762
0.00162256
0.00287396
0.00458708
0.00516724
0.00522234
0.00517069
0.00507009
0.00494757
0.00477693
0.00472137
0.0059626
0.00808234
0.00909669
0.00905746
0.00778115
0.00634743
0.00358215
0.00184885
0.00136597
0.00146172
0.00160625
0.00188477
0.00167843
0.0014218
0.00155768
0.0014718
0.00297849
0.00513443
0.00652557
0.00775334
0.00763679
0.00664666
0.00542074
0.00512895
0.00524846
0.0053297
0.00539853
0.00546913
0.00551748
0.00548651
0.00499347
0.00308445
0.00184113
0.00163565
0.00175851
0.00206104
0.00219036
0.00221322
0.00218287
0.00189262
0.00313081
0.00497052
0.00316147
0.00172474
0.00186327
0.00184936
0.00326238
0.00325764
0.00318788
0.00495959
0.00524446
0.00523192
0.00491622
0.00469283
0.0027786
0.00315434
0.00316513
0.00318178
0.00323385
0.00163385
0.00178106
0.00183668
0.00197761
0.00172765
0.00219415
0.000567857
0.000787321
0.000914667
0.000994861
0.00107196
0.00105161
0.00201236
0.00204226
0.00194853
0.00189696
0.00240737
0.00258329
0.00264013
0.00243145
0.00224345
0.00238809
0.00239349
0.00225584
0.0021367
0.00221519
0.00221666
0.00212436
0.0018069
0.00169318
0.00185869
0.00183873
0.00182415
0.00327513
0.00326932
0.00309438
0.00508298
0.00500162
0.00560158
0.00556521
0.00555834
0.00553537
0.00559486
0.00562617
0.00564982
0.00567738
0.00566663
0.00561194
0.0077966
0.00552176
0.00481846
0.00278699
0.00268471
0.00189615
0.00166187
0.00195686
0.00209295
0.00226907
0.00221779
0.00233789
0.00233499
0.00247776
0.00229972
0.00204194
0.00312728
0.00334078
0.0032628
0.00332725
0.00324892
0.00322971
0.00320609
0.00316069
0.00310592
0.00184952
0.00181432
0.00212458
0.00223023
0.00239643
0.00241806
0.00247056
0.00234296
0.00206049
0.00199448
0.0022971
0.00226608
0.00231027
0.00217815
0.00216901
0.00193218
0.00198115
0.00399371
0.00736694
0.00379504
0.00421529
0.00381967
0.00434395
0.00380532
0.00328217
0.00335923
0.00295889
0.00308647
0.00323747
0.00329601
0.00346414
0.00408342
0.00393119
0.00345069
0.00335053
0.00328461
0.00309717
0.00278786
0.00292014
0.00294624
0.00300944
0.00334477
0.00383664
0.00430013
0.00522499
0.0050702
0.00444198
0.00406122
0.00425852
0.00433315
0.00545415
0.00509488
0.00506501
0.00534373
0.00529123
0.00502135
0.0047577
0.00459229
0.00394327
0.00400806
0.00458613
0.00443789
0.0045735
0.00449321
0.00467169
0.0047561
0.00456442
0.00424219
0.00446143
0.00445293
0.0049443
0.00480802
0.0044606
0.00407917
0.00436239
0.00431055
0.00497819
0.00468527
0.00438202
0.00403482
0.00386575
0.00438687
0.00430613
0.00488182
0.00502415
0.00502645
0.00438282
0.00428029
0.00508924
0.00489563
0.00473033
0.00492718
0.00408128
0.00419655
0.00516903
0.00527694
0.00500722
0.00418158
0.00424437
0.00363874
0.00427917
0.00532577
0.00503005
0.00412309
0.00342228
0.00478684
0.00503585
0.00532611
0.00503403
0.00548166
0.00590478
0.00481436
0.00523731
0.00684168
0.0052265
0.00606458
0.00619851
0.00623448
0.00623706
0.00626039
0.00629062
0.00662563
0.006441
0.00410027
0.00490135
0.00476392
0.00398798
0.00339484
0.00373837
0.0040262
0.00408448
0.00418821
0.00434748
0.00427199
0.00412703
0.00604412
0.00689629
0.00704543
0.00718378
0.00706474
0.00688883
0.00648637
0.00599856
0.00499242
0.00372562
0.00232859
0.00237459
0.00253129
0.0025083
0.00217678
0.00164149
0.00107901
0.00159958
0.00165409
0.00155895
0.00142293
0.00126003
0.00131011
0.00237442
0.00425615
0.00620002
0.00691676
0.00749381
0.00809001
0.00862123
0.00901892
0.00931384
0.00951996
0.00965101
0.00968102
0.00950373
0.00865472
0.00826624
0.00778326
0.00738475
0.00683513
0.0064127
0.00725405
0.0079705
0.00841104
0.0089053
0.0091329
0.0090348
0.0078421
0.00760411
0.00875976
0.0107961
0.00918189
0.011539
0.0135577
0.0105495
0.00948169
0.0094737
0.0105993
0.0108066
0.0104268
0.00983122
0.00914568
0.00827501
0.0087177
0.00912006
0.00950839
0.00986698
0.0107959
0.0109491
0.01086
0.0106765
0.0104394
0.0101226
0.00964326
0.00897237
0.00815711
0.0073308
0.00637367
0.00433843
0.00222474
0.00250604
0.00247302
0.00247745
0.00249574
0.00119897
0.00132357
0.00133905
0.00134588
0.00126708
0.00144283
0.00208589
0.00336184
0.00241666
0.00199542
0.00137837
0.00161208
0.00268721
0.00454304
0.00512703
0.00523542
0.0054143
0.00726351
0.00797756
0.00843787
0.00881218
0.00904652
0.00894236
0.00866691
0.00817328
0.0075417
0.00728959
0.00687218
0.00650402
0.00629772
0.00609319
0.00570855
0.00445889
0.00432603
0.00450576
0.00444655
0.00425553
0.00454884
0.00471362
0.00470973
0.00476199
0.00480752
0.00494912
0.00511574
0.00526061
0.00533631
0.00536399
0.0053723
0.00538275
0.00539098
0.00540704
0.00538841
0.00527021
0.00462759
0.00289404
0.0016895
0.00156186
0.00171243
0.00181085
0.00185291
0.00164553
0.00105939
0.00164625
0.00213088
0.0021856
0.0023982
0.00247409
0.00262227
0.00291968
0.00337339
0.00348074
0.00308878
0.00292564
0.00286386
0.00279131
0.00239235
0.0029817
0.00328316
0.00327611
0.00324438
0.00350644
0.00431486
0.004145
0.00365548
0.00361556
0.00357974
0.00324286
0.00319431
0.00348368
0.00352155
0.00365199
0.00428162
0.00513416
0.00476338
0.00433915
0.00416151
0.00384399
0.0033886
0.003064
0.00375675
0.003077
0.00163904
0.00140042
0.00138531
0.00139321
0.00134786
0.0015973
0.00167971
0.00170064
0.00157787
0.00175007
0.00194675
0.00188149
0.00213203
0.00210495
0.00188629
0.00187027
0.00201614
0.00212178
0.00217692
0.00224305
0.00366787
0.0037914
0.00293193
0.0042332
0.00487733
0.00482538
0.00511735
0.00421733
0.00378277
0.00448809
0.0051801
0.00593145
0.0046949
0.00444246
0.00454194
0.00209272
0.00110127
0.00155333
0.00192857
0.00215055
0.00208669
0.00197118
0.00166661
0.00295186
0.00303266
0.00480124
0.00538568
0.00545456
0.00542001
0.00556656
0.00612401
0.00710654
0.00790059
0.00813468
0.00801849
0.00767544
0.00703738
0.00639435
0.00634149
0.00610946
0.00593864
0.00588135
0.00509652
0.00453142
0.00485109
0.00476563
0.00492637
0.00500105
0.00505501
0.00510981
0.0052015
0.00531209
0.00541238
0.00548027
0.00552503
0.00556258
0.00560113
0.00564003
0.00568229
0.00570469
0.00564983
0.00510563
0.0030634
0.00182683
0.00166663
0.00177829
0.00208997
0.00220054
0.00236508
0.00210015
0.00110624
0.00130031
0.00226019
0.00250586
0.0023184
0.00216983
0.00213105
0.00178525
0.00323291
0.00319047
0.00500592
0.00563013
0.00570918
0.00569383
0.00565032
0.00560136
0.00555531
0.00551763
0.00548773
0.00545567
0.00540934
0.00535237
0.00529944
0.00524607
0.00515373
0.00502258
0.00487756
0.00506638
0.00523931
0.00545158
0.00568906
0.00581695
0.00571692
0.00555796
0.00548033
0.00550802
0.00555364
0.00560171
0.00564516
0.00566601
0.00560334
0.00528131
0.00495641
0.00314055
0.00318128
0.00156656
0.00174023
0.00200794
0.00207384
0.00225231
0.00224187
0.00176292
0.00137403
0.0015501
0.00144832
0.00258646
0.00284421
0.00315363
0.00312235
0.00169662
0.0017402
0.00180864
0.00204046
0.00189767
0.0018334
0.00451163
0.00432752
0.00453128
0.00555744
0.00478869
0.00330816
0.0036237
0.00504237
0.00531706
0.00321487
0.00241261
0.00267401
0.00338711
0.00498703
0.00504846
0.00479536
0.00476902
0.00348213
0.00428133
0.00515146
0.00501046
0.00390733
0.00269195
0.00200534
0.000976709
0.00185787
0.00158851
0.00388965
0.00430405
0.00425276
0.00465004
0.00494145
0.00499208
0.00484975
0.00430304
0.00438844
0.00443158
0.00504809
0.00506945
0.00429404
0.00362365
0.00294506
0.00297096
0.00302795
0.00335467
0.00420006
0.0039575
0.00346913
0.00336446
0.00329243
0.00309735
0.00279545
0.00245234
0.00246917
0.00229816
0.00222404
0.00350555
0.00466588
0.00550184
0.00566018
0.00571781
0.00563067
0.00559164
0.00543266
0.0053509
0.00464933
0.00593824
0.00627566
0.00605442
0.00609782
0.00613462
0.00618021
0.00618004
0.00606318
0.00521114
0.0031125
0.00203326
0.00229504
0.00247722
0.00232633
0.00231305
0.00246514
0.00233905
0.00205456
0.0033286
0.00325336
0.00520131
0.00588948
0.00601645
0.00602498
0.00600178
0.0059828
0.00599131
0.00630679
0.00616134
0.00623551
0.00655985
0.00657405
0.00665498
0.00624892
0.00617006
0.00611991
0.00608649
0.00603163
0.00588405
0.00520747
0.00504833
0.00573241
0.00590854
0.00598653
0.00604063
0.0061055
0.00619103
0.00643721
0.00661955
0.00668595
0.00642053
0.00632741
0.00618188
0.00597272
0.00592297
0.00591213
0.00590678
0.00587728
0.00572402
0.00503898
0.00324021
0.00332009
0.00197521
0.00198814
0.00228993
0.00240527
0.00236246
0.00218778
0.0021331
0.00366571
0.0041727
0.00443987
0.00478089
0.00456602
0.00453946
0.00518901
0.00502206
0.00447771
0.00465855
0.00417805
0.00398238
0.00384877
0.00386975
0.00203931
0.00220051
0.00229519
0.002257
0.00215826
0.00192496
0.00176527
0.00322134
0.0031978
0.0031559
0.00187706
0.00183595
0.00216299
0.00210064
0.0019217
0.0016381
0.00179573
0.00277209
0.00310031
0.00480699
0.00497899
0.00533006
0.00570049
0.00584142
0.00588007
0.00590329
0.00592988
0.00598568
0.00605172
0.00606947
0.00606561
0.00611547
0.00610679
0.00610662
0.00607214
0.00603351
0.00598922
0.00594248
0.00586641
0.00571024
0.00533619
0.00496923
0.00560268
0.00565432
0.00575985
0.00586939
0.00591689
0.00592591
0.00590693
0.00586716
0.00582017
0.00576421
0.0057632
0.00592261
0.00595909
0.00598677
0.00596841
0.0059484
0.00594195
0.00591656
0.00587452
0.0057654
0.00565586
0.00560879
0.00551487
0.0056629
0.00572874
0.00573922
0.00579529
0.0058848
0.00590892
0.00590624
0.00586176
0.0058249
0.00577913
0.00570504
0.00561057
0.00528479
0.00535093
0.00543864
0.00555264
0.00566296
0.00575202
0.00580144
0.0058032
0.00574856
0.00571204
0.00571304
0.00566474
0.00569022
0.00571651
0.00568842
0.0056866
0.00569326
0.00563192
0.00551718
0.00535648
0.00518573
0.00504272
0.0049664
0.00484463
0.00523215
0.00537592
0.00550532
0.00562085
0.00572633
0.00583331
0.00586854
0.00585917
0.00579333
0.00575561
0.00575325
0.00569716
0.00569531
0.00574966
0.00575268
0.0057843
0.00584175
0.00582283
0.00574213
0.00554178
0.00534768
0.00518014
0.00502112
0.00485117
0.00478643
0.00486474
0.0048073
0.00488204
0.00505433
0.00526712
0.00544962
0.00556354
0.00559785
0.00563048
0.00568018
0.00567367
0.00564368
0.00562834
0.00556108
0.00550312
0.00543154
0.00527176
0.00506528
0.00488056
0.00481659
0.00491068
0.00500872
0.00491791
0.00458184
0.00476278
0.00493078
0.00509941
0.00534017
0.00561921
0.0057447
0.00578943
0.00576232
0.00574067
0.00573719
0.00568566
0.00566873
0.00571616
0.00572024
0.00574199
0.00577789
0.00573751
0.00563258
0.00528944
0.00488551
0.00469394
0.00458258
0.00442529
0.00494229
0.00504538
0.00492048
0.00483689
0.00496898
0.00512497
0.00528679
0.00539378
0.00543515
0.00549251
0.00556819
0.00560373
0.00554918
0.00548672
0.00540901
0.00536871
0.00536629
0.00533622
0.00523044
0.00510895
0.00497319
0.00514159
0.00523985
0.00514556
0.00466614
0.00474363
0.00485044
0.00490963
0.00528778
0.00562558
0.00571092
0.00571984
0.00568669
0.00566516
0.00566618
0.00563625
0.00558167
0.00557161
0.0055655
0.0056285
0.00571084
0.0057496
0.0057665
0.00551236
0.00506151
0.00499629
0.00479945
0.00470199
0.00521445
0.00527528
0.00515574
0.00504297
0.00528225
0.00538556
0.00541674
0.005398
0.00534373
0.00530707
0.00537414
0.00547962
0.00539867
0.0050501
0.00473928
0.0048988
0.00493644
0.00492208
0.00485382
0.00474233
0.00450321
0.00502721
0.00553779
0.00558055
0.00503987
0.00504792
0.00487608
0.00452852
0.00496541
0.00520367
0.00526005
0.00524675
0.00517114
0.00497777
0.00525991
0.00550723
0.00546068
0.00494238
0.00320793
0.00325275
0.00327733
0.00328133
0.00323813
0.00322629
0.00317921
0.00315505
0.00308176
0.00300755
0.00293614
0.00313208
0.00330017
0.00352568
0.00354408
0.0036372
0.00348145
0.00329594
0.00307774
0.00239438
0.00303855
0.00362546
0.00385297
0.00414491
0.00420607
0.00485418
0.00510821
0.00524778
0.00514954
0.00413015
0.00350372
0.00279975
0.00182066
0.00113441
0.00133183
0.00138546
0.00145914
0.00178907
0.00329058
0.00167884
0.00232826
0.00181952
0.00313388
0.00166224
0.00103568
0.000686779
0.000877267
0.00104439
0.00105732
0.00101463
0.000846473
0.000668405
0.000683368
0.000637773
0.000677702
0.000606212
0.000693609
0.000643615
0.000894291
0.00133369
0.00152199
0.00155625
0.00125806
0.00141917
0.00118565
0.00136781
0.00122158
0.00133174
0.00127765
0.00156275
0.00171282
0.00163995
0.00164458
0.00143943
0.0010071
0.00116731
0.000917331
0.00110148
0.000842961
0.00108874
0.000933787
0.00121344
0.00125089
0.00124731
0.00120099
0.000917534
0.00108741
0.000856296
0.00105479
0.000866452
0.000928943
0.000774105
0.00112414
0.00114494
0.00105454
0.00112242
0.00126189
0.00135438
0.00148917
0.00140682
0.00159673
0.00153836
0.00155435
0.00147228
0.00143226
0.00139963
0.00140256
0.00137944
0.00138685
0.00143134
0.00143325
0.00143866
0.00148369
0.00146162
0.00142571
0.00140385
0.001247
0.00100616
0.00175282
0.00180748
0.0018344
0.00183408
0.00179296
0.00177256
0.0017109
0.00169455
0.00164134
0.0016104
0.00153912
0.00148085
0.00141419
0.00158888
0.000889167
0.0010094
0.00106541
0.00109702
0.00111885
0.00112893
0.00113692
0.00113048
0.00111637
0.00108904
0.00108
0.00105017
0.00134376
0.00152876
0.00159888
0.00161815
0.00151708
0.00144489
0.00316501
0.00383014
0.00582106
0.00594864
0.00446714
0.00445269
0.00153894
0.00162486
0.00111139
0.00156191
0.0016107
0.00159446
0.00150635
0.00108659
0.00163059
0.00113645
0.00153013
0.0011497
0.00142218
0.00118322
0.00168906
0.0021548
0.00208091
0.00188553
0.00129965
0.00108804
0.00109603
0.000940021
0.00103133
0.000841206
0.00102318
0.000854985
0.00125566
0.0017714
0.00196593
0.00200526
0.00158096
0.00218162
0.00164004
0.00237543
0.00188628
0.00232725
0.00186746
0.00216107
0.00267424
0.00268671
0.00262346
0.00211501
0.0016952
0.00190274
0.00168588
0.0019417
0.00280603
0.00183934
0.0027917
0.00115392
0.00157316
0.00162176
0.00159979
0.00150871
0.00101675
0.00258772
0.00136886
0.00243419
0.00157547
0.00252608
0.00183791
0.00244424
0.00292445
0.00305965
0.00304794
0.00248794
0.00224874
0.00233255
0.00186679
0.00224283
0.00166784
0.00241502
0.00135974
0.00176181
0.0019452
0.00204819
0.00205582
0.00168884
0.00333594
0.0020947
0.00316207
0.00219909
0.00281799
0.00225845
0.00247019
0.0029175
0.00289951
0.0028754
0.00243856
0.00197415
0.00260594
0.00185906
0.0553681
0.127938
0.0508998
0.129268
0.0584829
0.0830296
0.0818112
0.0819828
0.0822958
0.0617823
0.134913
0.159402
0.166226
0.168236
0.166975
0.269847
0.220025
0.330611
0.214346
0.126136
0.0546827
0.0754259
0.194651
0.321407
0.482228
0.611904
0.416934
0.431587
0.2754
0.271551
0.255663
0.206829
0.126804
0.0635766
0.0109384
0.0119817
0.017143
0.0228193
0.0179523
0.0109831
0.00216751
0.00223699
0.00228767
0.00231948
0.00231202
0.00226388
0.00230155
0.00217709
0.00205066
0.00229358
0.00249937
0.00267305
0.00314932
0.00348148
0.00313694
0.0034394
0.00364561
0.00381336
0.00395202
0.00415871
0.00439169
0.00459678
0.0046082
0.00422261
0.00359855
0.00292801
0.00246242
0.00233335
0.00219138
0.00193248
0.00176803
0.00165634
0.00160175
0.00157887
0.00162218
0.00177241
0.00190233
0.00194778
0.00190897
0.0018739
0.00184328
0.00164126
0.00191875
0.00263196
0.00265347
0.00454579
0.00523784
0.00534636
0.00535339
0.00474719
0.00303299
0.00303946
0.00305503
0.00311303
0.00312512
0.00313254
0.00312909
0.00311737
0.00309906
0.00306474
0.00304785
0.00299861
0.00295734
0.00285474
0.00285935
0.0028963
0.0029254
0.00287807
0.00289033
0.00282911
0.00365313
0.00489594
0.00554524
0.00579629
0.00601241
0.00583617
0.00807901
0.00689743
0.00484969
0.0047859
0.00472545
0.00560302
0.0056422
0.00510046
0.00512076
0.0046594
0.00290642
0.002894
0.00289577
0.00309563
0.00315576
0.00326507
0.00329491
0.00332324
0.00333937
0.00333631
0.00333501
0.00330808
0.00328664
0.00321376
0.00318939
0.0031792
0.0017527
0.00191271
0.00198353
0.00199604
0.00202341
0.00201055
0.0019974
0.00197306
0.0019564
0.00192346
0.00188465
0.00182903
0.00171994
0.00156742
0.00172549
0.00293082
0.00293084
0.00478396
0.00540801
0.00544729
0.00605665
0.00575058
0.00544655
0.00584596
0.0052759
0.00523532
0.00472768
0.00293342
0.00297323
0.00176312
0.0017469
0.00204144
0.00198435
0.00212053
0.00217822
0.00218558
0.00221601
0.00224569
0.00228195
0.0023403
0.00235836
0.00232357
0.00231765
0.00218378
0.00188715
0.00190992
0.00225167
0.00236117
0.00219107
0.00215087
0.00213337
0.00208071
0.00204066
0.00200203
0.00202793
0.00218311
0.00218102
0.00214299
0.00203956
0.00198697
0.00172381
0.00166553
0.00291205
0.00294752
0.00486825
0.00500097
0.00496315
0.00571007
0.00636622
0.00724774
0.00618269
0.00502782
0.00523998
0.00598701
0.00444928
0.00370189
0.00220486
0.00166024
0.00205174
0.0019224
0.00200318
0.00207559
0.00184333
0.00197945
0.00183019
0.00166301
0.00165391
0.00165187
0.00169315
0.00171038
0.00174168
0.00174589
0.00178844
0.00178453
0.00179041
0.00181242
0.00182352
0.00201494
0.00219171
0.00184387
0.00156281
0.00152119
0.00143625
0.00136685
0.00139998
0.00136617
0.0013578
0.00133272
0.00131009
0.00124991
0.00130255
0.00138201
0.00161668
0.00154813
0.00125139
0.0011182
0.000764475
0.000779327
0.000784728
0.000809018
0.000817856
0.000828754
0.000832782
0.000846435
0.000849075
0.000853386
0.000853052
0.000873895
0.000870927
0.000861021
0.000854537
0.000858845
0.000862985
0.00086247
0.00126289
0.00140655
0.00153801
0.00182734
0.00215175
0.00185186
0.00156888
0.00135106
0.000868376
0.000881524
0.000897798
0.000906114
0.000925636
0.000943291
0.000963163
0.000975694
0.000985243
0.000995155
0.00100561
0.00100991
0.00100758
0.000988266
0.000976887
0.0010018
0.00110107
0.0011587
0.00123257
0.00126046
0.00128441
0.00129636
0.00129006
0.00130343
0.00128798
0.00128575
0.00126364
0.00125413
0.00124507
0.00123363
0.00121957
0.00118482
0.00117329
0.0012345
0.00209092
0.00273569
0.00315309
0.00347471
0.00321028
0.00260197
0.00273773
0.00481046
0.00455224
0.00268887
0.00250947
0.00231563
0.00202448
0.00176616
0.00213181
0.00243402
0.00266326
0.00286476
0.0030489
0.00317386
0.00333415
0.00354332
0.00391311
0.00396001
0.00361244
0.00292824
0.00248027
0.00231788
0.0022399
0.00210311
0.00195362
0.00200239
0.00201668
0.00195648
0.00188165
0.0018601
0.0018906
0.00192899
0.00190569
0.00190489
0.00170166
0.00170111
0.00290648
0.00296269
0.0045569
0.00480081
0.00484661
0.0031168
0.00307375
0.00179547
0.00166727
0.00181885
0.00188799
0.00189178
0.00189926
0.00188922
0.001856
0.00183163
0.00180334
0.00178046
0.00176044
0.00172584
0.00166008
0.00153322
0.00167114
0.00187426
0.00195673
0.00197787
0.00198787
0.00201918
0.00207062
0.00211201
0.00220775
0.00221805
0.00221731
0.00222526
0.0020802
0.00214556
0.0018159
0.00181352
0.00314304
0.00313495
0.001801
0.00212676
0.00214085
0.00211591
0.00227762
0.00208429
0.00201808
0.00200676
0.00192166
0.00187637
0.00181618
0.00178031
0.00181551
0.00193174
0.00187109
0.00165786
0.00159952
0.00179364
0.00172448
0.00143067
0.00122222
0.00118843
0.00113752
0.00110666
0.00115986
0.00120129
0.00122493
0.00125501
0.00126395
0.00131926
0.00128379
0.00134752
0.00142901
0.00149385
0.00177214
0.00192026
0.00173479
0.00170145
0.00168032
0.00167807
0.00168323
0.00161381
0.0016092
0.00157333
0.00155569
0.00150892
0.00148781
0.00146099
0.00146591
0.00148154
0.00162883
0.00419697
0.00534837
0.00557026
0.00950221
0.00384363
0.00392588
0.00768348
0.00318558
0.00478536
0.00512805
0.00536262
0.00559922
0.00512372
0.00649584
0.00454361
0.00505681
0.00527905
0.00464206
0.00172574
0.00193912
0.00225026
0.00202312
0.00178771
0.00121918
0.00131576
0.00135931
0.00139456
0.00141753
0.00144287
0.00147005
0.00149554
0.00151347
0.00151385
0.00146801
0.00141853
0.00130477
0.00126688
0.00131599
0.00136677
0.00120069
0.00113059
0.00114404
0.00116302
0.00117372
0.00117611
0.00118782
0.00119104
0.00120947
0.0011998
0.00120918
0.00118862
0.00119936
0.00118349
0.00114295
0.00108626
0.000989693
0.000965961
0.00139124
0.00148138
0.00155627
0.00176565
0.00203845
0.00217498
0.00194925
0.00179727
0.00172517
0.00191385
0.00191374
0.00347196
0.0066606
0.00298698
0.00334848
0.0097396
0.00387697
0.00301851
0.00306446
0.00309675
0.0031009
0.00180214
0.00213469
0.00207004
0.00207787
0.00176216
0.0014793
0.00132682
0.00118635
0.000804333
0.000801616
0.000807672
0.000819929
0.000823722
0.000788484
0.00078839
0.000783882
0.000782111
0.00076553
0.000760904
0.000747451
0.000739287
0.000719916
0.0007094
0.000690883
0.000687429
0.000714156
0.000791723
0.000956355
0.00106792
0.00121173
0.00123483
0.00139727
0.00347247
0.0040256
0.00554325
0.00549462
0.00866805
0.00541491
0.00409124
0.0037009
0.0054132
0.00559116
0.00519636
0.00704122
0.00487317
0.00322178
0.00478339
0.00396289
0.00477081
0.00465626
0.00493452
0.00784519
0.00828002
0.00233492
0.00208193
0.00219071
0.00248516
0.00295039
0.00271463
0.00309352
0.00308669
0.00237824
0.00152247
0.00484916
0.00584481
0.00467206
0.00559539
0.00869486
0.00349576
0.00340978
0.0030171
0.00251821
0.00228888
0.00225796
0.00251753
0.00301265
0.00755767
0.00808259
0.00740352
0.00736021
0.00668372
0.00738416
0.00923254
0.00920509
0.00812593
0.00760278
0.00785744
0.00482629
0.00303439
0.00353668
0.0039155
0.0052235
0.00538648
0.0113807
0.0038581
0.00426399
0.00433021
0.00579475
0.00560687
0.00992492
0.00419774
0.00452976
0.00596815
0.00797124
0.0147162
0.00535982
0.00565283
0.00813353
0.00825496
0.00754499
0.00544931
0.00493942
0.00538445
0.00405573
0.00396426
0.00338612
0.00500057
0.00673542
0.00531829
0.0051646
0.00439764
0.00390322
0.00400868
0.00415722
0.00345203
0.00340521
0.00393358
0.00290991
0.0028122
0.00298911
0.000828536
0.00042481
0.00043437
0.000445642
0.000454792
0.000464193
0.000471102
0.000479255
0.000482988
0.000483357
0.000484569
0.000512459
0.000507814
0.000491766
0.000446544
0.000509611
0.000808719
0.000809318
0.000509092
0.000448832
0.000805246
0.0012832
0.00151283
0.00178998
0.00181233
0.00156356
0.00135554
0.000834226
0.000821158
0.000497773
0.000581329
0.000631319
0.000559907
0.000624814
0.000579071
0.000613419
0.00061957
0.00057321
0.000570063
0.00057229
0.000567884
0.000557822
0.000545479
0.000530419
0.000518465
0.000511704
0.000506168
0.000494466
0.000412025
0.000383566
0.00045983
0.000731559
0.000730362
0.000685215
0.000647186
0.00061492
0.000600522
0.000596716
0.000593631
0.000604012
0.000623584
0.000629088
0.000634557
0.000683746
0.000662748
0.00070792
0.000664291
0.000709764
0.000666265
0.000612887
0.00051462
0.000530963
0.000856492
0.000865596
0.00139877
0.00160045
0.00181505
0.00182454
0.0020366
0.00214455
0.00181575
0.00188513
0.00216077
0.00201278
0.00179443
0.00180132
0.00162049
0.00162178
0.00143627
0.000897462
0.000885242
0.000556008
0.000539956
0.000643856
0.000632548
0.000703529
0.000752865
0.000753138
0.000750688
0.000731363
0.000724532
0.000637208
0.000624764
0.000625571
0.000606562
0.000602333
0.000627417
0.000683354
0.000800675
0.000967904
0.00105436
0.00109224
0.0010488
0.0009397
0.000691692
0.000626393
0.00108428
0.00112738
0.00200522
0.00474649
0.00219061
0.00424739
0.00306676
0.000764912
0.000854137
0.00108929
0.00122063
0.00131753
0.00137205
0.00125268
0.00104436
0.000786491
0.000649707
0.000972752
0.000841226
0.000951099
0.000830784
0.00107515
0.00124324
0.00120283
0.00121203
0.00102443
0.000834682
0.000883918
0.00079378
0.000874961
0.000732469
0.000881284
0.000795782
0.00100006
0.00100946
0.000988469
0.000936962
0.000713438
0.00074854
0.000627856
0.000681058
0.000611398
0.000631908
0.000598792
0.000698313
0.000804662
0.000772233
0.000769191
0.00063198
0.000495173
0.000546852
0.000472712
0.000534986
0.000415734
0.000503653
0.000422434
0.000546796
0.000563552
0.000566249
0.000562042
0.000456704
0.000536827
0.000658977
0.000692499
0.00069845
0.00066561
0.000512978
0.000793927
0.000717023
0.000875572
0.000757635
0.000829071
0.000755091
0.000880115
0.0011271
0.00117665
0.00118448
0.00096092
0.000954766
0.00174156
0.0964785
0.00156657
0.00185152
0.00190915
0.00190221
0.0015728
0.00153477
0.00190053
0.00140636
0.00199109
0.00125365
0.00212288
0.00080935
0.00123022
0.00132076
0.00131788
0.0012247
0.000820487
0.00242566