/*--------------------------------*- C++ -*----------------------------------*\
| =========                 |                                                 |
| \\      /  F ield         | OpenFOAM: The Open Source CFD Toolbox           |
|  \\    /   O peration     | Version:  v2012                                 |
|   \\  /    A nd           | Website:  www.openfoam.com                      |
|    \\/     M anipulation  |                                                 |
\*---------------------------------------------------------------------------*/
FoamFile
{
    version     2.0;
    format      ascii;
    class       volScalarField;
    location    "180";
    object      epsilon;
}
// * * * * * * * * * * * * * * * * * * * * * * * * * * * * * * * * * * * * * //

dimensions      [0 2 -3 0 0 0 0];


internalField   nonuniform List<scalar> 
18258
(
0.0240249
0.0122456
0.00911551
0.00715615
0.0126331
0.0125088
0.0129713
0.0173073
0.024117
0.0369535
0.0535245
0.0481287
0.0435196
0.0452726
0.0474479
0.0450231
0.035087
0.0303511
0.0399862
0.0666643
0.060817
0.0496871
0.0608137
0.0514008
0.0656414
0.0829485
0.0636544
0.057205
0.0513102
0.0482713
0.0417894
0.0240524
0.0341618
0.0526578
0.0720662
0.0788173
0.0844978
0.0892519
0.0943788
0.0964902
0.0967406
0.0915469
0.0824012
0.0673332
0.0494009
0.0378775
0.0293678
0.0317678
0.0444649
0.0450208
0.0556428
0.0854607
0.10784
0.0809127
0.0518456
0.082574
0.112525
0.144286
0.170826
0.193304
0.201043
0.197634
0.186109
0.169374
0.147914
0.122907
0.101895
0.0849574
0.0671599
0.0573582
0.0464033
0.0384903
0.0329234
0.0292637
0.0270629
0.0253392
0.0241763
0.02511
0.0249982
0.0178295
0.0140255
0.0131758
0.00942625
0.00783492
0.00815273
0.00775692
0.00805765
0.00711327
0.00609229
0.00528914
0.00448492
0.00653024
0.00702319
0.00726347
0.00728125
0.00780442
0.00806088
0.00779822
0.00789644
0.00723276
0.0073577
0.0118487
0.0136568
0.017338
0.0154525
0.0106661
0.00911448
0.0101492
0.0107695
0.0133753
0.0125844
0.013368
0.0118589
0.0108314
0.00914746
0.00888097
0.00911458
0.00968829
0.0100899
0.0117034
0.0115352
0.0107001
0.0118342
0.0130571
0.0127829
0.0122316
0.0116417
0.0142863
0.0114789
0.0121634
0.0136615
0.0220111
0.0215377
0.0260417
0.0255629
0.0260037
0.0261872
0.0316013
0.0317234
0.0320972
0.0324158
0.0340871
0.0571715
0.0509647
0.0498581
0.0496618
0.0429443
0.042476
0.0417853
0.0426018
0.0361022
0.0347513
0.0315116
0.0311466
0.0347468
0.0438728
0.061354
0.0886171
0.122586
0.158968
0.18929
0.210314
0.232106
0.23745
0.251373
0.256095
0.257032
0.251394
0.242972
0.233512
0.220659
0.202067
0.189137
0.148633
0.105195
0.059178
0.0785145
0.0905439
0.100266
0.102163
0.103323
0.0992615
0.0930264
0.0818584
0.0662932
0.0430537
0.048744
0.0659929
0.0682799
0.0690033
0.0547378
0.0526813
0.0489171
0.0488949
0.0642261
0.073719
0.0619813
0.0857019
0.100669
0.0880224
0.063812
0.0977439
0.143669
0.0808493
0.0687626
0.0532655
0.0522829
0.0442008
0.037204
0.0628692
0.0939371
0.129033
0.150102
0.171781
0.189244
0.202467
0.216474
0.188243
0.171047
0.115209
0.201634
0.153083
0.077544
0.0574475
0.0561529
0.0441102
0.0501571
0.0555096
0.0514404
0.039463
0.0274677
0.0250923
0.046422
0.0646665
0.078127
0.0622012
0.0791282
0.089155
0.0964585
0.101775
0.129134
0.0950557
0.106264
0.0761666
0.103379
0.0734072
0.0473306
0.052765
0.100718
0.160457
0.21971
0.256664
0.146049
0.0741184
0.0551518
0.0553943
0.0533348
0.0481606
0.0597719
0.106156
0.071951
0.0466956
0.0405434
0.0479168
0.0410792
0.0305543
0.0320311
0.0396935
0.0550663
0.069308
0.082085
0.125429
0.121792
0.14695
0.154311
0.130037
0.125721
0.0812854
0.0834346
0.122921
0.0916725
0.0741159
0.104077
0.147299
0.201682
0.248103
0.288504
0.314236
0.303594
0.27458
0.173681
0.0760589
0.022921
0.0178211
0.0168647
0.0173401
0.0105373
0.00630929
0.00586257
0.00668026
0.00702926
0.00592661
0.00545495
0.00544645
0.0057939
0.010198
0.00876134
0.0108382
0.013129
0.0156771
0.0187208
0.0194466
0.0129021
0.00873277
0.00819498
0.00813061
0.00806168
0.00803226
0.00804386
0.00808413
0.0080998
0.00806714
0.00798809
0.00785062
0.00771475
0.00765711
0.00829298
0.0111826
0.0153438
0.0148355
0.0135459
0.0121907
0.0110296
0.00870101
0.0151372
0.0128346
0.0109268
0.0133841
0.0164879
0.020838
0.0244848
0.0176618
0.01414
0.0127971
0.0126714
0.0125575
0.0126032
0.0124814
0.0125471
0.0123495
0.0129475
0.013567
0.0169619
0.0189856
0.021162
0.022658
0.0232373
0.0239505
0.0211165
0.0229437
0.0227097
0.0234899
0.0233062
0.0226211
0.020709
0.0189217
0.0177023
0.0191172
0.0236824
0.0323317
0.0267272
0.0207426
0.0167836
0.0137272
0.0149928
0.0166655
0.0168406
0.0158533
0.0156191
0.015409
0.0138892
0.0131021
0.0110937
0.0104859
0.010024
0.0101747
0.0143576
0.013505
0.0137057
0.0144339
0.015528
0.0146882
0.0151219
0.0142781
0.0145253
0.0149439
0.0170096
0.0185667
0.0178102
0.0164933
0.0159968
0.0137287
0.0158325
0.0156942
0.0170145
0.0185994
0.0190932
0.0190302
0.0183932
0.0168004
0.018692
0.022061
0.025714
0.0247143
0.0243865
0.020444
0.0192427
0.0202134
0.021483
0.0223854
0.0224551
0.0222836
0.0223708
0.026371
0.0260189
0.0248174
0.0227431
0.0202908
0.0176476
0.0151969
0.0166694
0.0181489
0.0195384
0.0208058
0.0205687
0.0190439
0.0176869
0.0164578
0.0149667
0.0146777
0.016129
0.0173491
0.0187782
0.02049
0.0205661
0.0188546
0.0173616
0.0160815
0.0146098
0.0145603
0.0160585
0.0173548
0.0187703
0.0202539
0.0196232
0.0184684
0.017219
0.0159782
0.0145279
0.0145947
0.0159146
0.0169821
0.0180647
0.0190152
0.0198689
0.017907
0.0169972
0.0170902
0.0161042
0.0192862
0.0185293
0.01947
0.0180185
0.0167947
0.0178001
0.0209915
0.0240254
0.0245798
0.0243004
0.0201674
0.0206228
0.0205974
0.0191784
0.0159525
0.0153564
0.0181299
0.0208696
0.0213319
0.0200207
0.0169152
0.0132771
0.0142995
0.0174635
0.0197774
0.0185156
0.0183543
0.0169396
0.0158619
0.0161614
0.0138837
0.0166169
0.0266882
0.0241525
0.0221419
0.0196813
0.0156774
0.0106122
0.0115108
0.0126696
0.0130842
0.0105728
0.0079151
0.00710737
0.00691441
0.00675672
0.0065388
0.00617141
0.00561569
0.00537811
0.0105999
0.0257002
0.0364328
0.035813
0.0241211
0.0207543
0.0200353
0.0185246
0.00891021
0.00819685
0.00839666
0.0103898
0.00823526
0.00834565
0.0144546
0.0100215
0.0137692
0.0107203
0.0146447
0.0229495
0.021715
0.0143773
0.00801483
0.00689336
0.00738209
0.00766593
0.00786894
0.00806497
0.00829807
0.00868395
0.0100055
0.0157323
0.0203097
0.0177698
0.0167842
0.0153091
0.0188468
0.0213224
0.0232547
0.0260133
0.0160805
0.0117787
0.0166212
0.027241
0.0247321
0.02328
0.0171474
0.0176872
0.0171152
0.0110062
0.0106617
0.010581
0.0113897
0.012774
0.014693
0.0158536
0.0166044
0.0169376
0.0178518
0.0231195
0.0216324
0.0211163
0.0173347
0.0134035
0.0153873
0.0515432
0.0195537
0.0206658
0.0188966
0.019168
0.0204536
0.0151573
0.0135156
0.0129417
0.0146339
0.0215141
0.0215287
0.0213913
0.0182523
0.0174674
0.0208988
0.021989
0.0223863
0.0217674
0.0213268
0.0194625
0.0166804
0.0181107
0.019628
0.0208237
0.0228318
0.0231719
0.0179548
0.0172327
0.0158382
0.0105469
0.011288
0.00972674
0.00969371
0.00965737
0.00938248
0.00893407
0.00922389
0.0093436
0.00934398
0.00899892
0.00929509
0.00834182
0.0086788
0.00976908
0.015212
0.0147785
0.0175736
0.0194829
0.0167292
0.0155702
0.0142082
0.0131858
0.0154365
0.0142739
0.0168483
0.0211969
0.0264836
0.0191186
0.0181235
0.0179011
0.0174963
0.0173398
0.0173928
0.0166997
0.015698
0.0151306
0.0235785
0.0212789
0.0181559
0.0172063
0.0157733
0.0180243
0.0174669
0.0213626
0.0268424
0.0270481
0.021531
0.0216095
0.0189545
0.0200603
0.022249
0.0270869
0.0270092
0.0144321
0.00959487
0.0154332
0.0157728
0.0183812
0.0169969
0.0185241
0.0197044
0.02043
0.0202875
0.0176882
0.0188632
0.019651
0.0206362
0.0185834
0.0165784
0.0173677
0.0161467
0.0152475
0.0147476
0.0126742
0.0129195
0.0138901
0.0153395
0.016281
0.0177734
0.0194294
0.0194606
0.0201285
0.0197222
0.0191229
0.0252202
0.0239742
0.0255181
0.0282309
0.0224386
0.017807
0.0146831
0.0149964
0.0147636
0.0146723
0.0154129
0.0167717
0.0151512
0.0145326
0.0170442
0.0194063
0.0246743
0.0330461
0.0287841
0.0262114
0.0332206
0.0313824
0.0382316
0.0286646
0.0281388
0.0208526
0.0262845
0.0305057
0.0392046
0.025509
0.0209527
0.0224101
0.0255348
0.0347844
0.0327946
0.0331601
0.0411963
0.039961
0.036199
0.0311714
0.0353558
0.0212486
0.0301952
0.0322291
0.0268212
0.0257096
0.0307497
0.0310702
0.0330133
0.0283728
0.0267693
0.0179117
0.0274492
0.0313889
0.0330883
0.0278304
0.0205336
0.0280201
0.020549
0.0191871
0.0202994
0.0137737
0.0127216
0.014794
0.0138654
0.0111935
0.012142
0.0111619
0.0111489
0.0112303
0.0113458
0.0114788
0.0117357
0.0117032
0.0127239
0.0133334
0.0126247
0.0115607
0.012217
0.0125735
0.0160874
0.0181738
0.0204365
0.0220255
0.0228659
0.0240139
0.0227317
0.0248332
0.0237251
0.0252239
0.0249366
0.0238697
0.021346
0.0187044
0.0163041
0.01681
0.0204636
0.0269154
0.0220483
0.0170747
0.013813
0.0114454
0.0127346
0.0159422
0.00863492
0.0078682
0.00756154
0.00736945
0.00719854
0.00632968
0.00567605
0.00866007
0.0130813
0.0163693
0.0204212
0.0260357
0.0320966
0.0373619
0.0413604
0.0442347
0.0460271
0.046485
0.0436335
0.033312
0.028668
0.0246501
0.020418
0.0166562
0.0168535
0.0245206
0.032126
0.0396186
0.0462231
0.0511607
0.0492618
0.0330821
0.0301606
0.0465943
0.0782193
0.0740725
0.0971356
0.110946
0.0629379
0.0465132
0.0453752
0.062038
0.0646436
0.056605
0.0466333
0.0364111
0.0262734
0.0306912
0.0350353
0.0391889
0.0435749
0.0573343
0.0603173
0.0590882
0.0564568
0.0530166
0.0483022
0.0413682
0.0329398
0.0249959
0.0190661
0.0144359
0.00940101
0.0071572
0.00800783
0.00732948
0.0104143
0.00922269
0.00828452
0.00796195
0.00819493
0.00804273
0.00818967
0.00723001
0.0064933
0.0103197
0.00951246
0.00946674
0.010091
0.0133679
0.0102805
0.00759355
0.00715764
0.00708394
0.00734534
0.0165323
0.0251142
0.030406
0.0349513
0.03823
0.0367954
0.033386
0.0278155
0.0219944
0.0198484
0.016908
0.0144305
0.0132452
0.014555
0.0120313
0.00607366
0.005163
0.00568256
0.00555981
0.00509532
0.00612224
0.00681054
0.00742198
0.00784307
0.00815163
0.00821034
0.00814757
0.00805688
0.00801281
0.00799318
0.0079653
0.00790099
0.00780602
0.00766437
0.00752854
0.00746524
0.00805834
0.0106695
0.0145871
0.014353
0.0132415
0.0121341
0.0112747
0.00955544
0.0153852
0.0130621
0.0109511
0.0101285
0.00998586
0.0102837
0.0112478
0.0128882
0.0138115
0.0158186
0.0158639
0.0157614
0.0160513
0.0158354
0.0131903
0.0149573
0.0176987
0.0185282
0.0191406
0.0189115
0.0173725
0.0193964
0.020535
0.0199794
0.0193637
0.016475
0.019179
0.023197
0.0236465
0.023927
0.0212705
0.0184352
0.0215994
0.0227563
0.0223435
0.0232145
0.0213646
0.0220885
0.0277716
0.014202
0.0128881
0.00772952
0.00870073
0.00889522
0.0085525
0.00825998
0.00859219
0.00883269
0.00862457
0.00931273
0.00963324
0.00897231
0.011503
0.0105706
0.0101488
0.00952493
0.0100947
0.0107922
0.0111289
0.0122404
0.019606
0.0200668
0.0182471
0.0207137
0.0213234
0.0180159
0.020449
0.0213246
0.0215813
0.0219264
0.0234567
0.0220813
0.0244123
0.0236035
0.0222856
0.0215248
0.038224
0.0252295
0.0166179
0.0153159
0.0149456
0.0150006
0.0168895
0.0127182
0.0142458
0.0100463
0.00869552
0.00832223
0.00802066
0.00822674
0.0110054
0.0173246
0.0251541
0.0278319
0.0266631
0.0233614
0.0179714
0.0135269
0.0132018
0.0119568
0.0111653
0.0110365
0.00744655
0.00513076
0.00644136
0.00656152
0.00714106
0.00755042
0.00788355
0.00813386
0.00827038
0.00833875
0.00841644
0.00853214
0.00865899
0.00876874
0.00885506
0.00891741
0.00898299
0.00910567
0.00941403
0.0106171
0.0152685
0.0196622
0.0185527
0.0170923
0.0157867
0.01655
0.0173053
0.0180401
0.0222182
0.0190992
0.0220021
0.0206655
0.019678
0.0182676
0.0189998
0.0207841
0.0165689
0.016504
0.0112623
0.00982786
0.00944772
0.00923043
0.00906058
0.00889303
0.00872861
0.00858188
0.00844385
0.00832455
0.00823178
0.00814752
0.00800757
0.00776163
0.00736595
0.00693152
0.0061255
0.00675352
0.00729252
0.00829415
0.00949175
0.0100849
0.00950887
0.00871129
0.00834835
0.00846749
0.00864919
0.00885108
0.0090812
0.00939801
0.00987067
0.0108473
0.0115229
0.0161813
0.016919
0.0201791
0.0199867
0.0178992
0.0172544
0.0188614
0.0173897
0.0126584
0.0173649
0.0168799
0.0211135
0.0156711
0.0147796
0.0151856
0.015664
0.0183225
0.0172318
0.0157536
0.0157244
0.0126393
0.014207
0.0162067
0.0176987
0.0279282
0.0273624
0.0344392
0.0343815
0.0593246
0.0564337
0.0497451
0.0538342
0.023752
0.0464313
0.0542875
0.049477
0.0429357
0.0273365
0.0437039
0.0665406
0.0963433
0.069458
0.0567869
0.105538
0.0766863
0.037377
0.0265812
0.0150062
0.015091
0.0250495
0.0290925
0.0241083
0.0232536
0.0334275
0.034795
0.0280166
0.028694
0.031073
0.0300042
0.0324631
0.0280905
0.0273967
0.0155217
0.0127379
0.0137693
0.0155021
0.0165157
0.016013
0.0168493
0.0175157
0.0160737
0.0150458
0.0144862
0.0124239
0.0131638
0.016142
0.0203503
0.0238523
0.0172261
0.0138423
0.0125477
0.0123546
0.0121287
0.0120095
0.0116886
0.0115017
0.0110325
0.0112388
0.00978258
0.00979558
0.0103326
0.0104969
0.0107019
0.0108607
0.0109847
0.0110974
0.0119598
0.018714
0.0258888
0.0207153
0.0164177
0.0139429
0.0151292
0.0170478
0.0209402
0.0263487
0.0177952
0.017615
0.0114851
0.0107094
0.0105
0.0103271
0.010175
0.0100775
0.0101389
0.010144
0.0118815
0.0115597
0.0135536
0.0146243
0.0120839
0.0116541
0.0111834
0.0108972
0.0107397
0.010655
0.010744
0.0116044
0.01144
0.0105118
0.0104181
0.0105387
0.0107527
0.0110766
0.0115248
0.0120306
0.0129472
0.0127247
0.0112062
0.0111962
0.0105379
0.0102291
0.00999687
0.00997425
0.0100238
0.0101647
0.0103877
0.011293
0.0170752
0.0172583
0.0265622
0.0265444
0.021102
0.0176364
0.015487
0.0142379
0.0135093
0.0351067
0.0308211
0.0487627
0.0389219
0.0311769
0.0506004
0.0719201
0.0558704
0.0909329
0.0982724
0.0724891
0.0656097
0.020883
0.0159091
0.0154016
0.0168866
0.018575
0.0212042
0.0217935
0.0265962
0.0286907
0.0171316
0.0164543
0.0155338
0.0248114
0.0229907
0.019624
0.0177445
0.0163625
0.018902
0.0206911
0.0149313
0.0149771
0.0096481
0.0106468
0.0103937
0.0100538
0.00993496
0.00986053
0.00989669
0.00999435
0.0102791
0.0107763
0.0111595
0.0113138
0.0116201
0.011404
0.0111328
0.0108125
0.0106229
0.0104328
0.0102772
0.0101569
0.01019
0.0105058
0.0106512
0.00934755
0.00969324
0.00980249
0.00981492
0.00984701
0.00981209
0.00967532
0.00946894
0.00927014
0.00906202
0.0091036
0.00990626
0.0100522
0.0101103
0.00995412
0.00983547
0.00982479
0.00976023
0.00974647
0.00973998
0.00961909
0.00930621
0.00858509
0.00843474
0.00903529
0.00937868
0.00955573
0.00963611
0.00962001
0.00956518
0.00933616
0.00916309
0.00895513
0.00861446
0.00815909
0.00676189
0.00703904
0.00739679
0.00789649
0.00841176
0.00886342
0.00916691
0.00932645
0.00941651
0.00933354
0.00904148
0.00851352
0.00846021
0.00885163
0.00903175
0.00899034
0.00872692
0.00831476
0.00774901
0.00704647
0.00636674
0.00585098
0.00561616
0.00522947
0.00653953
0.00713157
0.00767915
0.00818537
0.00866617
0.00918156
0.00938196
0.00943878
0.00941944
0.009265
0.0089365
0.00841239
0.00841522
0.00888711
0.00919466
0.00931855
0.00929856
0.00911616
0.00871291
0.00780876
0.00700588
0.00635568
0.00577148
0.00518451
0.00512799
0.00538281
0.00513718
0.00532832
0.00590161
0.00670156
0.00748
0.00809091
0.00852036
0.00870575
0.00865559
0.00840378
0.00830608
0.00842898
0.00837038
0.00806301
0.00749327
0.00674681
0.0059491
0.00532493
0.00515541
0.00549059
0.00582645
0.00551532
0.00436241
0.00490492
0.00545949
0.00604879
0.00695784
0.00813008
0.00871333
0.0090294
0.00918804
0.00912371
0.00883846
0.00840416
0.00838042
0.0087969
0.0090736
0.00911969
0.00897959
0.00870082
0.00821842
0.00679931
0.00534562
0.0047232
0.00437504
0.00394111
0.0055911
0.0059564
0.00552985
0.00525351
0.00568885
0.00622733
0.00685019
0.00736467
0.00779497
0.00810288
0.00820778
0.00817758
0.00804498
0.00804674
0.00798901
0.00778129
0.00753192
0.00732245
0.00688894
0.00643809
0.00590581
0.00646282
0.0067622
0.00633352
0.00464927
0.00493461
0.00537561
0.00565641
0.00710017
0.00851351
0.00890152
0.00903661
0.0091709
0.00910117
0.0087884
0.00835459
0.00833427
0.00884713
0.00924166
0.0093793
0.00948306
0.00960399
0.00971184
0.00857488
0.00669087
0.00623376
0.00525221
0.0048034
0.00665183
0.00707724
0.00686309
0.00659342
0.00753959
0.00793557
0.00808005
0.00809507
0.00810945
0.00808464
0.00799592
0.00792854
0.00781392
0.00825252
0.00888719
0.00878934
0.00869146
0.00853183
0.00816955
0.00771559
0.00719739
0.00788171
0.00845852
0.00817719
0.00594349
0.00631341
0.00719134
0.00737546
0.00889565
0.010057
0.0103783
0.0103539
0.0102303
0.0102029
0.00920562
0.00829498
0.00814429
0.00947843
0.0153621
0.0151929
0.0152096
0.015131
0.01457
0.0143992
0.0138461
0.0135924
0.0129155
0.0124793
0.0118202
0.0137979
0.0174247
0.0194466
0.0217712
0.0242168
0.0229663
0.0186086
0.0164656
0.0101428
0.00799695
0.00689512
0.00597234
0.00527731
0.00507443
0.00746549
0.0092632
0.0113595
0.0132634
0.0136138
0.0160137
0.0199213
0.0303529
0.0482973
0.0408109
0.0385607
0.0390046
0.0972769
2.54712
2.73983
2.49435
2.89627
3.33093
0.390904
0.151447
0.280491
0.295616
0.327541
0.305141
0.277429
0.253109
0.261892
0.251219
0.26267
0.244729
0.256437
0.224268
0.231174
0.233871
0.662571
1.01972
1.23426
1.72578
1.73325
1.95534
1.90977
1.93038
1.78433
1.89994
1.65111
1.36924
1.29349
1.22121
1.31067
1.42427
1.2365
1.12096
1.0067
0.916001
0.783772
0.993846
0.754162
0.71284
0.711439
0.743259
0.99016
0.902508
1.03905
0.956729
1.00107
0.599957
0.673245
0.491331
0.409052
0.339621
0.408447
0.547974
0.726983
0.90627
0.698933
0.956195
0.888698
0.88759
0.844892
0.7689
0.729729
0.717187
0.73815
0.750801
0.766133
0.79385
0.814958
0.833612
0.984178
1.04875
1.03918
0.851289
0.7616
0.527153
0.564505
0.598344
0.601968
0.560972
0.542665
0.490826
0.478426
0.433134
0.414516
0.376027
0.357299
0.325361
0.450289
0.771391
0.801154
0.87046
0.924061
0.973688
0.995935
1.01259
0.995814
0.962675
0.89399
0.86421
0.801924
0.908675
1.09267
1.09195
1.00388
0.852205
0.807197
3.7579
4.5703
3.02506
6.51823
9.89326
16.5822
7.58769
2.06582
3.44583
2.36752
2.10173
2.04906
2.16372
3.41166
2.50079
3.27605
2.71657
2.86186
2.22722
2.47963
2.33552
1.78658
1.49839
1.26448
1.13214
0.903942
0.883232
0.719022
0.672807
0.634792
0.536733
0.67089
0.677967
1.62694
2.26541
2.82899
4.44175
4.879
5.33242
8.42764
6.83491
8.56963
5.09981
5.1435
3.80326
3.5782
3.61712
4.97477
7.1035
4.89597
8.54326
4.7655
15.5043
34.6478
9.18716
18.9487
10.9301
9.88506
9.52878
9.81936
13.9568
9.54187
15.5298
13.0879
17.4055
16.9182
17.9518
13.8547
10.2438
11.1981
11.9892
15.3608
10.8369
12.4092
9.38789
9.16519
8.65807
7.19723
6.53535
5.03067
5.92306
6.95951
7.91247
12.5201
15.7125
18.072
21.7856
16.1079
18.3799
11.0675
12.1295
9.37491
8.79721
8.92985
11.7516
20.8649
14.7891
26.9944
0.496555
0.225789
0.544039
0.229273
0.486482
0.390068
0.402649
0.403647
0.399376
0.460954
0.220069
0.184989
0.177219
0.175059
0.176561
0.100126
0.124303
0.0803405
0.126828
0.22901
0.502937
0.364985
0.140386
0.0825466
0.0545536
0.0429142
0.0634026
0.061202
0.0978704
0.0992332
0.105556
0.132074
0.228036
0.433327
31.7488
7.09193
1.11978
0.524381
0.280583
0.171655
0.146396
0.165439
0.177919
0.180601
0.169528
0.143878
0.103051
0.0681109
0.0455859
0.038299
0.027964
0.0285655
0.0396552
0.0532855
0.0493333
0.0649962
0.0833949
0.106205
0.130524
0.14992
0.1645
0.168399
0.156343
0.12235
0.0805061
0.0443892
0.0265491
0.0228943
0.0209595
0.0194609
0.0168097
0.0145928
0.0131684
0.0112548
0.00992278
0.00895477
0.00864542
0.00876981
0.0095737
0.0121078
0.0145692
0.0188616
0.0179802
0.0134623
0.0126198
0.00781788
0.00722849
0.00737749
0.00763001
0.00845356
0.0132225
0.0135318
0.0134093
0.0134377
0.0132553
0.01324
0.0130704
0.0129031
0.0126835
0.0122623
0.0119712
0.0114478
0.0111647
0.010498
0.0105254
0.0109069
0.0112125
0.0101482
0.0100425
0.00933974
0.020586
0.0490459
0.0701672
0.0786273
0.0884319
0.0811289
0.041969
0.0230684
0.00791846
0.00772035
0.0082132
0.00887457
0.00842576
0.00614955
0.00668508
0.00788867
0.0110626
0.0109911
0.0110214
0.0128345
0.0133641
0.0146879
0.0152223
0.0155922
0.0158158
0.0157404
0.0158676
0.015589
0.0156827
0.0154923
0.0155842
0.0151863
0.0269725
0.0253836
0.0260732
0.0261113
0.027295
0.0268045
0.0263433
0.0253782
0.0246825
0.0231886
0.0216433
0.0200903
0.0180124
0.0187662
0.0181098
0.0112928
0.0107223
0.00770752
0.00768986
0.00739748
0.0103025
0.00936184
0.00787152
0.00926042
0.00674264
0.0069156
0.00727893
0.0103803
0.0109051
0.0173568
0.01734
0.0153559
0.0163211
0.0173445
0.0186539
0.0197851
0.0211767
0.0221668
0.023235
0.0250515
0.0254399
0.0237048
0.0233586
0.0223018
0.0242373
0.0232181
0.0214668
0.0229658
0.0246131
0.0271284
0.026836
0.0247536
0.0234608
0.022067
0.0197881
0.0171865
0.0158332
0.0148355
0.014874
0.0138542
0.0161941
0.0146417
0.0101606
0.010475
0.00791753
0.006293
0.00604418
0.0092581
0.0131984
0.0281776
0.0175733
0.00935712
0.0101916
0.016332
0.033827
0.0199371
0.0321952
0.0142817
0.0148199
0.0126149
0.0125329
0.0138227
0.0160931
0.0171521
0.0207667
0.0234185
0.0253816
0.0262819
0.0275898
0.0279743
0.0293622
0.0297986
0.032406
0.0326522
0.032668
0.0322024
0.0298203
0.0268057
0.0246131
0.030455
0.0353174
0.0386108
0.041015
0.0434746
0.0422301
0.0386546
0.0377982
0.0359116
0.0348091
0.0334236
0.0303489
0.0265597
0.0217939
0.0212169
0.0271817
0.0328702
0.0490808
0.0529588
0.0526963
0.0549737
0.055469
0.0571997
0.0576316
0.0602345
0.0607993
0.0619365
0.0622664
0.067314
0.0681812
0.069142
0.069458
0.0691862
0.0701189
0.0701044
0.0476212
0.0426553
0.038568
0.0319869
0.0267577
0.0339331
0.0423279
0.0476139
0.0727768
0.0732528
0.076837
0.0794213
0.0841722
0.0877684
0.0924455
0.0968049
0.101016
0.104316
0.106249
0.106538
0.106944
0.106017
0.104718
0.113407
0.147373
0.163716
0.193886
0.20878
0.221198
0.225323
0.216661
0.220413
0.212333
0.214896
0.208592
0.206648
0.201307
0.195047
0.191411
0.185166
0.181066
0.208697
0.157223
0.120357
0.0799249
0.0641999
0.0570909
0.053098
0.0562618
0.0433281
0.0368862
0.0558292
0.0512351
0.0408201
0.0272114
0.0187252
0.0321546
0.0476922
0.064528
0.081745
0.0974853
0.107802
0.110414
0.10935
0.104592
0.0967578
0.0815912
0.0614696
0.0422541
0.034826
0.0321186
0.0281474
0.0221971
0.0178383
0.0157212
0.0141353
0.0123691
0.0111205
0.0105677
0.0107302
0.0110418
0.0132387
0.0173212
0.017312
0.0116042
0.0111494
0.00767101
0.007759
0.00801709
0.0133286
0.0134757
0.0208936
0.0233422
0.0219833
0.0226727
0.0224067
0.0226999
0.0223483
0.021157
0.0203235
0.0193553
0.0185145
0.0177693
0.0169446
0.0161368
0.0174593
0.0164119
0.013825
0.0139432
0.014558
0.015206
0.0160909
0.0173522
0.0184267
0.0211261
0.0212899
0.0207932
0.0208874
0.0194153
0.0186976
0.0199505
0.0194738
0.0132705
0.0130922
0.0191105
0.0187576
0.0186486
0.0224674
0.0208911
0.0214078
0.0225347
0.0224366
0.019495
0.018137
0.0165819
0.0154024
0.0140249
0.0125139
0.0121387
0.0148901
0.013103
0.0107566
0.01195
0.014352
0.0169593
0.0184206
0.0204048
0.0231172
0.0240868
0.0263318
0.0277557
0.0298534
0.0306905
0.0355083
0.0361583
0.0339963
0.0321547
0.0311673
0.0273955
0.0234766
0.0258902
0.0267553
0.0271316
0.0272554
0.0271366
0.0235517
0.0231204
0.0216037
0.0210854
0.0195084
0.018949
0.0177876
0.0170265
0.0160046
0.0141788
0.013465
0.0126507
0.0122945
0.0173522
0.0108413
0.0105907
0.0160023
0.0098538
0.0116003
0.0113414
0.0118582
0.0125186
0.0103561
0.0151464
0.0103397
0.0112291
0.0114552
0.0143703
0.00996797
0.0208627
0.0644289
0.093129
0.112052
0.203386
0.243473
0.263704
0.284386
0.298554
0.314542
0.332089
0.349746
0.362801
0.364226
0.338513
0.319967
0.254942
0.228251
0.252012
0.282149
0.194506
0.16687
0.169116
0.169917
0.172449
0.17366
0.177234
0.175169
0.180151
0.175797
0.182979
0.176956
0.183318
0.175993
0.160729
0.144181
0.111816
0.101141
0.0652453
0.0505393
0.0395412
0.0287213
0.0209426
0.0188028
0.0177982
0.0164465
0.0165295
0.0126687
0.0131091
0.00839804
0.00617371
0.00986241
0.00969596
0.00722623
0.00982563
0.0112229
0.0117342
0.0122686
0.0125607
0.019208
0.0192364
0.0246274
0.0245428
0.0291125
0.034724
0.0359588
0.0395968
0.0569613
0.057484
0.0572278
0.0570655
0.0566476
0.0494057
0.0491242
0.0480184
0.0474339
0.0444862
0.0439316
0.0418467
0.0407072
0.0377551
0.036931
0.0358052
0.0362671
0.0406773
0.056078
0.0993751
0.0295585
0.0281966
0.020699
0.0145413
0.0213907
0.0159042
0.0154408
0.0136141
0.0187032
0.0134522
0.0137006
0.0165145
0.0170381
0.0164338
0.0214416
0.0267388
0.0234665
0.0259666
0.117147
0.0754782
0.0244433
0.0483974
0.0720877
0.15815
0.203929
0.139861
0.159712
0.183835
0.166888
0.140117
0.109536
0.0816287
0.0579633
0.0447119
0.011365
0.0133764
0.0185439
0.0409342
0.0608031
0.101341
0.0833619
0.108953
0.148902
0.173408
0.209437
0.200925
0.172801
0.148688
0.145315
0.160429
0.162675
0.105476
0.102505
0.0778289
0.173967
0.218986
0.184439
0.23156
0.244198
0.144104
0.031939
0.0183808
0.015122
0.0139199
0.0124375
0.0193735
0.0114627
0.0116451
0.0123626
0.0132735
0.0169613
0.0293485
0.0134507
0.0149225
0.0183356
0.0158786
0.0148904
0.0146349
0.0145393
0.0151544
0.016508
0.0215473
0.0216509
0.02132
0.0159851
0.0172796
0.0156945
0.0200111
0.0212184
0.0333083
0.0152602
0.0162046
0.0215125
0.479497
0.0246534
0.0178243
0.0232293
0.0218963
0.0301402
0.0437529
0.459213
0.0442324
0.0351019
0.0585288
0.0607817
0.0654484
0.0691221
0.07265
0.0751655
0.0791323
0.081769
0.0830212
0.0842874
0.0999563
0.0998949
0.0988239
0.103412
0.0975194
0.057611
0.0578157
0.097309
0.105012
0.0593656
0.040985
0.0384818
0.0311745
0.032295
0.0418336
0.0439077
0.0615984
0.061417
0.1024
0.0933888
0.0947762
0.096537
0.091566
0.0920489
0.0940852
0.0941605
0.0753958
0.0730506
0.0712756
0.0682412
0.0646875
0.061788
0.058879
0.0558244
0.0532658
0.0534729
0.0584153
0.0583563
0.0662272
0.0737166
0.224729
0.1529
0.108921
0.0804857
0.0652725
0.058964
0.0584621
0.0616162
0.0648545
0.0664961
0.0673082
0.0707067
0.092464
0.0947317
0.0975865
0.0950584
0.098858
0.0968872
0.0944391
0.104326
0.112143
0.0655676
0.0676489
0.0477361
0.044519
0.0324759
0.0330307
0.0235825
0.0195661
0.0195586
0.0195419
0.0197633
0.0226334
0.0316112
0.0317145
0.0463222
0.0462403
0.0516867
0.0752829
0.0723445
0.128971
0.118208
0.108536
0.101234
0.101593
0.103735
0.106326
0.101332
0.0977899
0.0922603
0.0724401
0.0684012
0.0662668
0.0650306
0.063772
0.0673451
0.0910662
0.147967
0.226802
0.333083
0.433922
0.444086
0.401682
0.251934
0.291204
0.145184
0.16531
0.187414
0.163735
0.172375
0.320291
0.266279
0.377446
0.482385
0.536255
0.602731
0.640086
0.629338
0.500605
0.325656
0.332945
0.443101
0.769851
0.863365
0.743953
0.761737
0.658548
0.540548
0.52211
0.497412
0.561185
0.611876
0.577457
0.594081
0.53829
0.514091
0.444172
0.49552
0.361995
0.32603
0.306454
0.297606
0.356576
0.288531
0.325
0.267153
0.273441
0.222233
0.22772
0.19011
0.145549
0.137996
0.127938
0.143252
0.162433
0.148845
0.153417
0.133975
0.114564
0.0912007
0.0983895
0.0735142
0.0695503
0.070666
0.0806193
0.126637
0.371481
0.17386
0.163767
0.167823
0.177861
0.319442
0.28272
0.7224
0.506272
0.707394
0.473237
0.561469
0.469871
0.362548
0.378162
0.41795
0.598164
0.821227
6.65041
0.28464
4.26166
3.16386
3.32279
3.46874
4.44588
7.8019
7.10845
9.38127
6.8024
9.07688
4.97673
4.97497
4.32573
4.47119
4.43905
4.26249
5.20362
6.65017
0.238883
0.0910034
0.0854237
0.0856048
0.0873811
0.197758
0.0525564
0.201927
0.0539416
0.213346
0.0494945
0.246518
0.196806
0.0382306
0.0192578
0.0200891
0.016807
0.0203745
0.0169228
0.0250472
0.0235421
0.0236999
0.0265927
0.0763403
0.292341
13.8341
1.66833
0.696527
0.796709
1.19313
0.811434
1.21175
1.68247
1.13204
0.565225
0.371073
0.437897
0.529568
0.505296
0.64387
0.926399
0.905996
0.712192
0.716053
0.63211
0.891415
0.899866
1.06603
1.24478
1.13872
0.892847
0.703688
0.596265
1.0257
1.03004
0.962963
0.409037
0.115633
0.04709
0.0494106
0.0358737
0.0377837
0.0348433
0.0554508
0.16208
0.223177
0.134383
0.432122
0.416325
0.565482
0.403466
0.413188
0.326413
0.350424
0.534675
0.583947
0.643429
0.674629
0.725354
0.670561
1.28856
2.20845
2.49814
12.8612
17.4222
3.20361
3.09702
13.9469
0.314968
0.0839118
0.0233211
0.0174322
0.0162172
0.0161299
0.0150008
0.0155382
0.0159995
0.0169633
0.0188279
0.0231935
0.0458234
0.201395
0.20336
0.0643236
0.0324216
0.0229678
0.0196153
0.017046
0.0163868
0.0155315
0.0154592
0.0150082
0.015658
0.0174648
0.0237815
0.0774227
0.270956
11.3222
2.43622
2.25508
8.38061
5.7935
0.206712
0.0437891
0.0200938
0.0169267
0.0158839
0.0167538
0.0162656
0.0182109
0.0184018
0.0230152
0.0250195
0.0317598
0.057057
0.110145
0.315348
9.57402
8.6459
8.36733
7.80728
0.309987
0.115149
0.0543788
0.0382264
0.0346218
0.0338171
0.0226486
0.0236732
0.0189821
0.0216404
0.0182951
0.022682
0.0483058
0.211882
5.3515
1.57066
1.70147
1.2093
0.612891
0.655514
0.66932
0.688962
1.77653
4.06652
4.99833
3.43233
3.36459
4.71359
3.17431
2.48458
1.83132
1.74872
2.5481
1.96431
1.82616
1.35715
1.46697
1.06751
1.46701
0.810976
0.97662
1.07274
1.53138
1.39743
1.41032
0.908259
1.05029
1.47533
1.72481
1.64881
0.843798
1.22693
1.01382
0.654719
0.607168
0.633603
0.603605
0.578495
0.57535
0.579552
0.558526
0.575754
0.555999
0.587891
0.547478
0.532805
0.507245
0.526918
0.544557
0.577097
0.359911
0.422335
0.426696
0.441074
0.453594
0.374688
0.450714
0.441621
0.658724
0.994491
0.835782
1.15624
0.680117
1.00352
2.00765
5.20766
2.35481
0.821145
1.34749
1.58203
1.13865
0.627953
2.55205
3.55803
1.22973
1.78319
10.3758
8.42621
16.5075
10.9713
18.6419
6.03849
4.63482
17.8126
6.67852
6.91496
4.51742
4.52327
2.95979
1.58545
1.62941
1.74255
1.22705
1.30051
1.21059
1.13342
1.47486
1.44051
1.88743
2.03639
2.57987
1.81265
1.77745
2.60183
1.0633
1.40136
1.83886
1.83095
1.36088
2.34472
3.16017
2.97448
2.14404
2.33836
3.50679
4.82146
4.58435
3.17424
3.97647
10.1384
13.5328
13.6941
4.2261
19.3097
18.3035
2.08454
0.570035
0.326341
0.0900989
0.0446347
0.0366647
0.0387165
0.144133
0.0458047
0.0571046
0.0456218
0.0734482
0.0700274
0.0875198
0.219217
0.126995
0.217181
0.156111
0.191171
0.122054
0.1952
0.228833
0.238938
0.190158
0.116797
0.214967
0.309457
0.107014
0.357391
0.393213
0.262537
0.335411
0.399689
0.19817
0.999056
0.186329
0.128194
0.148139
0.396645
1.26696
0.220549
0.464448
4.48729
14.717
3.69242
0.943147
0.685281
0.0557062
0.0302165
0.0319616
0.0279703
0.019437
0.084487
0.0994286
0.406904
0.209287
0.277885
0.66132
2.92632
2.39897
1.133
5.50178
10.2734
15.1514
9.13757
2.24362
9.77054
19.6111
13.9003