/*--------------------------------*- C++ -*----------------------------------*\
| =========                 |                                                 |
| \\      /  F ield         | OpenFOAM: The Open Source CFD Toolbox           |
|  \\    /   O peration     | Version:  v2012                                 |
|   \\  /    A nd           | Website:  www.openfoam.com                      |
|    \\/     M anipulation  |                                                 |
\*---------------------------------------------------------------------------*/
FoamFile
{
    version     2.0;
    format      ascii;
    class       volScalarField;
    location    "155";
    object      k;
}
// * * * * * * * * * * * * * * * * * * * * * * * * * * * * * * * * * * * * * //

dimensions      [0 2 -2 0 0 0 0];


internalField   nonuniform List<scalar> 
18258
(
0.0334884
0.0157714
0.012311
0.0101416
0.0109702
0.0139652
0.0167618
0.0211303
0.0255537
0.0314977
0.0385704
0.0475089
0.0535148
0.0606697
0.0636437
0.0619283
0.052054
0.0473028
0.0565294
0.0809967
0.0710737
0.0514051
0.0622852
0.0615175
0.0724071
0.0765986
0.0602892
0.0550402
0.0496223
0.0439339
0.0373726
0.0232276
0.0241342
0.0288613
0.0320937
0.0358089
0.038675
0.0410277
0.0426697
0.043486
0.0433976
0.0421009
0.0394069
0.0353468
0.0298673
0.0238585
0.0233606
0.0238509
0.029589
0.0351341
0.0405457
0.0461171
0.0545257
0.044639
0.0290398
0.0392068
0.0476884
0.0545863
0.0590204
0.0614735
0.0622372
0.061322
0.0590282
0.0557627
0.0517941
0.0474466
0.0434196
0.0394254
0.0341764
0.0309109
0.0267952
0.0234491
0.0210078
0.0192948
0.0181757
0.0171751
0.0163119
0.0155807
0.0149659
0.0145443
0.0144522
0.0144769
0.0145757
0.0146713
0.0150134
0.0126711
0.0109029
0.0104348
0.0101846
0.00954156
0.00809574
0.0106561
0.0117617
0.0121772
0.0124437
0.013616
0.0147706
0.0143523
0.0136327
0.0125284
0.0124838
0.016975
0.0177846
0.0228263
0.0216152
0.0167548
0.0148941
0.0166647
0.0194871
0.022512
0.0192478
0.0192274
0.0179336
0.0170393
0.0148888
0.0149166
0.0143949
0.014088
0.0149983
0.017765
0.0171816
0.017301
0.0185141
0.0188327
0.0200546
0.0210659
0.0203975
0.020215
0.0163535
0.0162534
0.0172915
0.0171655
0.0176446
0.0201508
0.0202074
0.0205487
0.0207643
0.0235645
0.0235837
0.0235521
0.0236424
0.0244644
0.0235168
0.0231103
0.0231359
0.0231699
0.02099
0.0207676
0.0204066
0.0204456
0.0182682
0.0175321
0.0182643
0.0192424
0.0212108
0.0249464
0.0313714
0.0402866
0.0503818
0.0606297
0.0684133
0.0727798
0.0771616
0.0766133
0.0773298
0.0794367
0.0798174
0.0786883
0.0768393
0.0746813
0.0717363
0.0671066
0.0666488
0.0589991
0.048105
0.0333952
0.0388888
0.04172
0.0444657
0.0447653
0.0452442
0.0440364
0.0422829
0.0387161
0.0336176
0.0247298
0.0258498
0.0302983
0.0349562
0.0387391
0.0429002
0.0465165
0.0483381
0.0500208
0.0593511
0.0571426
0.0552545
0.0569988
0.0585497
0.0617382
0.0601517
0.0562208
0.0503198
0.0519594
0.0450889
0.0337354
0.0315185
0.0293987
0.0270453
0.0378124
0.0495925
0.0611555
0.0675006
0.073648
0.0784913
0.0825322
0.0870638
0.0816277
0.0764796
0.0577513
0.0838235
0.0657692
0.0505442
0.0412912
0.0334269
0.0310801
0.0340288
0.034179
0.0324226
0.0278738
0.021984
0.0229963
0.0359546
0.0457934
0.0538431
0.0554142
0.0601253
0.0625959
0.0572821
0.0578642
0.0469804
0.0481918
0.0515821
0.0462577
0.0439451
0.035335
0.0276016
0.0336376
0.0500167
0.0685886
0.0845029
0.0995495
0.0660585
0.0502363
0.0411745
0.034368
0.0331522
0.0377629
0.0436941
0.0528329
0.0411814
0.0371555
0.0336554
0.0307864
0.0257091
0.0274508
0.0286391
0.0268874
0.0499254
0.0576121
0.0612045
0.0836325
0.0922776
0.108302
0.107055
0.0925665
0.0961909
0.0688778
0.0686498
0.0860884
0.0681257
0.0512378
0.0614955
0.0744174
0.0882393
0.101387
0.112664
0.121706
0.123398
0.111898
0.0811118
0.0466995
0.0212783
0.0186486
0.0181021
0.0173931
0.0165047
0.0156992
0.0150735
0.012126
0.0095053
0.00929147
0.0094746
0.00942248
0.00827586
0.00952661
0.0115895
0.0137786
0.0152833
0.0164885
0.0175045
0.0182342
0.018819
0.0192144
0.0195073
0.0197709
0.0200016
0.0201825
0.0203151
0.0204002
0.0204371
0.0204181
0.0203374
0.020194
0.0199862
0.0196981
0.019227
0.0177092
0.0158669
0.0150421
0.0151002
0.0148513
0.0145507
0.0119243
0.012294
0.0143084
0.0149372
0.0177183
0.0197467
0.0214432
0.0228905
0.0244104
0.0251839
0.0260089
0.0262719
0.0263222
0.02622
0.0260681
0.0258424
0.0255393
0.0244775
0.0212422
0.0248442
0.0272405
0.0289326
0.0302869
0.0311919
0.0312941
0.0285472
0.0360284
0.0384847
0.039389
0.0396531
0.0388348
0.0368322
0.0343917
0.0323424
0.0308354
0.0297184
0.0275776
0.0253314
0.0230234
0.0206094
0.0173896
0.0186565
0.0204888
0.0206981
0.020405
0.0214454
0.0226969
0.0210387
0.0189453
0.0160671
0.0150744
0.0145898
0.0144034
0.0148192
0.0144713
0.0143646
0.0148567
0.0178523
0.0189442
0.0206421
0.0238979
0.022768
0.0208274
0.027992
0.0295978
0.0300464
0.0303963
0.030302
0.0295406
0.0264733
0.0250226
0.0264126
0.0249624
0.0243353
0.0244281
0.0240619
0.0222033
0.0245028
0.0265032
0.028094
0.0289415
0.0301734
0.0317267
0.0338846
0.0356764
0.0373334
0.0383346
0.0383127
0.0377755
0.0379526
0.038597
0.0382729
0.036585
0.0345107
0.0324183
0.0294548
0.0292749
0.0312479
0.0328097
0.0344693
0.0362452
0.0355642
0.0336736
0.0320475
0.030628
0.0289193
0.028799
0.030474
0.0319171
0.0336567
0.035781
0.0359599
0.0338124
0.0319921
0.0304879
0.0287863
0.0287541
0.0304537
0.0319667
0.0336932
0.0355874
0.0347187
0.0332413
0.0317158
0.0302469
0.0285828
0.0281462
0.0297504
0.0311346
0.0324521
0.0335239
0.031852
0.0312551
0.0301814
0.0287904
0.027032
0.0257794
0.0262882
0.0276755
0.0277868
0.0282687
0.02939
0.0292425
0.0289624
0.0289231
0.0286422
0.0263975
0.0268036
0.0268478
0.0275363
0.0308173
0.0303375
0.0330071
0.0354167
0.0331127
0.0316241
0.0280608
0.0335981
0.0336435
0.0346101
0.0334439
0.0236917
0.0218417
0.0228374
0.0243651
0.0260028
0.0253013
0.0225615
0.0224997
0.0231043
0.0225241
0.0209718
0.0179981
0.0135218
0.0135294
0.0135207
0.0142519
0.0170473
0.0186318
0.0187385
0.0185808
0.0182772
0.0178054
0.0170902
0.0160238
0.0156
0.0246485
0.044744
0.0564513
0.0558463
0.0424996
0.0355967
0.0262419
0.0180645
0.0106861
0.0107524
0.0113852
0.0137404
0.0115813
0.010599
0.0146159
0.0118631
0.0198055
0.0229818
0.0302817
0.0413489
0.0399335
0.0303216
0.0204142
0.0183936
0.019246
0.0197613
0.0201479
0.0205292
0.0209151
0.0213358
0.0218491
0.0215368
0.0189089
0.0166737
0.0168027
0.0173733
0.0198681
0.0212408
0.0220284
0.0216957
0.0219409
0.0236475
0.0224102
0.0211938
0.0209889
0.020288
0.0231202
0.0234622
0.0228333
0.0228325
0.0231041
0.0229809
0.0231209
0.0239275
0.0197519
0.0218601
0.0224095
0.0226889
0.0234792
0.0190086
0.0191992
0.0192654
0.0181217
0.0148589
0.0179586
0.0167197
0.012138
0.0134464
0.0134159
0.0140287
0.0143547
0.0171054
0.016277
0.0155506
0.0163111
0.0222625
0.0230666
0.0232431
0.0206039
0.0193581
0.0218414
0.0224297
0.0219748
0.0210867
0.0212481
0.0203062
0.0184086
0.0176912
0.0178279
0.0192341
0.0200308
0.0201012
0.0236892
0.0231858
0.0216321
0.0226048
0.0232023
0.0227892
0.0226823
0.0226344
0.02227
0.0218476
0.0222543
0.022436
0.0224856
0.0220457
0.0222958
0.0248894
0.0213887
0.0211999
0.0201288
0.019476
0.0178552
0.0176024
0.0176997
0.0176598
0.017566
0.0167316
0.0185834
0.017859
0.0199864
0.021594
0.0227407
0.0239073
0.0240544
0.0236209
0.023578
0.0231915
0.0231545
0.022608
0.0217672
0.0211875
0.0204196
0.019217
0.0192095
0.0191607
0.0190179
0.0204183
0.0203188
0.0218783
0.0229944
0.0227067
0.0217462
0.0216359
0.0204645
0.0204407
0.0214767
0.0223601
0.0226111
0.023465
0.02597
0.0236593
0.0252102
0.0259129
0.0265733
0.0259662
0.0248712
0.0256225
0.0239632
0.0228537
0.0241703
0.0248933
0.0261544
0.0269493
0.0249733
0.0239461
0.0227502
0.0218883
0.0209046
0.0183867
0.0189963
0.0197836
0.0210129
0.0228255
0.0255385
0.0282687
0.0311821
0.0312386
0.028945
0.0272542
0.0320508
0.0315198
0.0364812
0.0370862
0.0329662
0.030166
0.0272576
0.0268308
0.0259124
0.0253782
0.0241113
0.0253561
0.025774
0.0248341
0.0272973
0.0288697
0.0331948
0.0387521
0.0354196
0.0326018
0.0376599
0.0365779
0.0425223
0.0363057
0.0346585
0.0285246
0.0331264
0.0354878
0.0432115
0.0338078
0.0296325
0.0294175
0.0307476
0.0382253
0.0367631
0.0393441
0.0445057
0.0438455
0.0389818
0.0357465
0.0414844
0.0315351
0.036975
0.0389872
0.0323822
0.0321324
0.0389894
0.0396019
0.0397773
0.0337113
0.0329753
0.0249678
0.033516
0.0399792
0.0398982
0.0331356
0.025948
0.0358235
0.0314542
0.0312527
0.031255
0.0268573
0.0267885
0.0260916
0.0263452
0.0270491
0.0246243
0.0254248
0.0256834
0.0258463
0.0259786
0.0261728
0.0265203
0.0271684
0.0279031
0.0228391
0.0242749
0.0229216
0.0215879
0.0202457
0.0240187
0.0264934
0.0282996
0.0297524
0.0308842
0.0313627
0.0299486
0.0379205
0.0395997
0.0412485
0.0414033
0.0401718
0.0375237
0.0341044
0.0306754
0.0285548
0.0272462
0.0247749
0.0226568
0.0205918
0.0184485
0.0156488
0.0143136
0.0129971
0.0116245
0.0112937
0.010766
0.0101797
0.0095247
0.00918899
0.0115464
0.0168821
0.0272794
0.0327302
0.0384056
0.0452934
0.0518736
0.0571641
0.0611221
0.063964
0.065776
0.0662913
0.0638033
0.053178
0.0480886
0.0431138
0.0380664
0.0329337
0.0321162
0.0412731
0.0495926
0.0566113
0.0629326
0.0670444
0.0654017
0.0498451
0.0467411
0.0624134
0.0899357
0.0807114
0.103704
0.120147
0.0795901
0.0648181
0.0640545
0.0794935
0.0820088
0.0754416
0.0665161
0.0566699
0.0457115
0.050866
0.0557601
0.0604153
0.065105
0.0779785
0.0802837
0.0789953
0.076387
0.0730243
0.0685739
0.0620474
0.0535282
0.0442488
0.0362338
0.0289209
0.0179965
0.0127333
0.0136431
0.0131701
0.0138744
0.0139504
0.010117
0.0104548
0.0106496
0.0105543
0.0102692
0.01032
0.0117062
0.0181955
0.01498
0.0136255
0.0117426
0.014457
0.0163064
0.0180935
0.0186525
0.0188274
0.0198057
0.0359761
0.044285
0.0498928
0.054646
0.0577786
0.0565213
0.0531368
0.0472168
0.0402061
0.0374735
0.0333927
0.0299269
0.0281361
0.0290251
0.0254426
0.0157137
0.0147007
0.0157461
0.015429
0.0144417
0.0163879
0.0176029
0.0183726
0.0189934
0.019456
0.0198101
0.020061
0.0202256
0.0203095
0.0203309
0.0203041
0.0202344
0.0201209
0.019961
0.0197442
0.0194404
0.0189244
0.0172242
0.0153936
0.0146827
0.0147666
0.0145362
0.0141742
0.0123004
0.0125257
0.0143851
0.0149865
0.0145948
0.0151803
0.0156454
0.0168346
0.0190018
0.0211403
0.0229806
0.021681
0.0210347
0.0210142
0.020609
0.0175095
0.0208186
0.0236481
0.0241558
0.0244159
0.0252257
0.0268141
0.0277778
0.0268509
0.0263603
0.0258353
0.0227918
0.024426
0.0279102
0.0283191
0.028978
0.0295661
0.0301251
0.0314231
0.0308019
0.0299337
0.0293474
0.0265501
0.0256843
0.031666
0.0207156
0.0146109
0.0105577
0.0109159
0.0111421
0.0108351
0.0116023
0.0121349
0.0123582
0.0116846
0.0127694
0.0136837
0.0129489
0.0155779
0.0148731
0.0138566
0.0134038
0.0141758
0.0149009
0.0152905
0.0164255
0.0265152
0.0273297
0.0228114
0.02933
0.0319057
0.0289828
0.0318699
0.0295533
0.0282173
0.0310012
0.0343562
0.0355615
0.0332359
0.0318698
0.0311955
0.0208097
0.0201218
0.019403
0.0175474
0.0178146
0.0173418
0.016877
0.0164576
0.0189232
0.0203161
0.0214017
0.0210949
0.0207812
0.0203625
0.0213985
0.0260155
0.035226
0.043952
0.0467732
0.0455211
0.0417537
0.0350963
0.0289159
0.0283849
0.0263866
0.0250901
0.0247683
0.018784
0.0149518
0.0174415
0.0173749
0.0184355
0.0191025
0.0196261
0.0200426
0.0203887
0.0206862
0.0209725
0.02124
0.0214743
0.0216721
0.0218425
0.0219844
0.0221376
0.0223223
0.0225784
0.0227858
0.0211782
0.0185728
0.0172377
0.0170913
0.0178054
0.0187065
0.0198329
0.0190904
0.0153784
0.0154522
0.0218711
0.0223011
0.0209289
0.0195094
0.019714
0.018874
0.0226528
0.0224511
0.0232122
0.0230023
0.0227197
0.0224378
0.0221573
0.0218703
0.021598
0.0213597
0.0211435
0.0209427
0.0207444
0.0205301
0.0202594
0.019859
0.0191817
0.0183919
0.0170152
0.0181301
0.0193072
0.0209388
0.0228059
0.0237667
0.0228955
0.0216273
0.0210158
0.0211864
0.0214774
0.0217995
0.0221473
0.0225512
0.0229757
0.0233777
0.0233474
0.022043
0.0226803
0.017417
0.0182716
0.0185718
0.0185318
0.0201928
0.0193492
0.0146503
0.0151523
0.0158652
0.0171375
0.0197123
0.0200704
0.0214093
0.0216326
0.0172719
0.0169648
0.0165406
0.0175561
0.0151919
0.0158193
0.0265203
0.0271517
0.0349008
0.038237
0.0398594
0.033122
0.0455681
0.052401
0.0505031
0.0408904
0.0234953
0.034615
0.0421341
0.0487772
0.0457013
0.0355297
0.0448365
0.0473051
0.0631424
0.058778
0.0524137
0.0631508
0.044647
0.0268791
0.0158036
0.0163775
0.0151856
0.0306272
0.0347286
0.0314213
0.0322643
0.0398947
0.0409125
0.03617
0.0344891
0.0362467
0.0357986
0.0397448
0.0370419
0.0336773
0.0232624
0.0189907
0.0198257
0.0212295
0.0230545
0.0253968
0.0252918
0.0241496
0.022788
0.0218159
0.020767
0.018275
0.0176232
0.0195788
0.0212049
0.02258
0.0240851
0.0249024
0.0257401
0.0259038
0.0257953
0.0254735
0.0250472
0.0244957
0.0238154
0.022411
0.0236388
0.0243141
0.0245184
0.0247927
0.0251021
0.0253757
0.0255146
0.0253994
0.0244572
0.0236524
0.0224897
0.0213749
0.0197727
0.0176616
0.0183412
0.0200952
0.0216901
0.0228008
0.0238474
0.023455
0.0239404
0.0245898
0.0246136
0.0244343
0.0242118
0.0240631
0.0241577
0.0247928
0.0265053
0.0262239
0.0290572
0.0302393
0.0276632
0.0263284
0.0256325
0.0252049
0.0249593
0.0247544
0.0245585
0.0240194
0.0234741
0.0239686
0.0242177
0.0245125
0.0248687
0.0253749
0.0260668
0.0271637
0.0285788
0.028458
0.0262173
0.0260694
0.025012
0.0242242
0.0238475
0.0237948
0.0238413
0.0239444
0.0238824
0.0233681
0.0230447
0.0234505
0.0224436
0.0225117
0.0215429
0.0201887
0.0187523
0.0173043
0.016645
0.0352151
0.0352024
0.0457055
0.0423495
0.0370302
0.0470606
0.0600158
0.0520249
0.0627286
0.066509
0.0540552
0.0502382
0.0278262
0.0243474
0.0173757
0.0188971
0.0202379
0.0214379
0.0212539
0.0221712
0.0220528
0.0230151
0.0224734
0.0216881
0.0211496
0.0201369
0.0201933
0.0189259
0.0173852
0.0172519
0.0188954
0.0199316
0.0211074
0.0210945
0.022549
0.023055
0.0234534
0.0236055
0.0235955
0.0236831
0.0238547
0.0243022
0.0250165
0.0254848
0.0256344
0.0260686
0.0258116
0.0254883
0.0250298
0.024718
0.0243984
0.0241187
0.0238248
0.0235493
0.0231228
0.022471
0.0223518
0.0228614
0.0231985
0.0234318
0.0235684
0.0235538
0.023367
0.0230592
0.0227515
0.0224084
0.0224679
0.0237378
0.023967
0.0240885
0.0238673
0.0236927
0.0236728
0.0235527
0.0234572
0.0232274
0.0228581
0.0223854
0.0213196
0.021421
0.022302
0.0227476
0.0230779
0.0233579
0.0233756
0.0232896
0.0229147
0.0226256
0.0222846
0.0217318
0.0210149
0.018618
0.0190835
0.0196986
0.0205319
0.0213705
0.0220843
0.0225383
0.0227267
0.0227225
0.0225504
0.0221997
0.0214567
0.0214394
0.0219759
0.022144
0.0220947
0.0217938
0.0211804
0.0202596
0.0190602
0.0178471
0.0168751
0.016386
0.0156018
0.0181815
0.0192095
0.0201514
0.0210116
0.0218194
0.0226716
0.0230064
0.0230766
0.0229197
0.0226533
0.0222378
0.0214654
0.0214747
0.0221808
0.022574
0.0227923
0.0228894
0.0226022
0.0219198
0.0203871
0.018974
0.0177952
0.0167128
0.0155925
0.0152534
0.0157546
0.0153504
0.0158041
0.0169382
0.0184214
0.0197829
0.0207627
0.0213551
0.0216394
0.0216683
0.0213402
0.0211644
0.0212921
0.0210964
0.0206069
0.0197483
0.0184728
0.0170031
0.0157741
0.0153798
0.0159983
0.0166552
0.0160615
0.0138861
0.015003
0.0160828
0.0172121
0.0188852
0.0209409
0.0219497
0.0224431
0.0225926
0.0224727
0.0221067
0.0214519
0.021399
0.0220243
0.02238
0.022476
0.0223714
0.0219067
0.0210523
0.0185422
0.0158129
0.0145818
0.0138844
0.0129407
0.0162131
0.016901
0.016073
0.0155297
0.0163824
0.0174333
0.0185978
0.0194933
0.0201349
0.0206332
0.0209046
0.0209309
0.0206641
0.0205507
0.0203315
0.0199843
0.0196349
0.0192778
0.0184826
0.0176448
0.0166985
0.0177758
0.0183673
0.0176211
0.0144304
0.0149874
0.0157692
0.0162454
0.0188801
0.0213687
0.0220764
0.0223042
0.0224269
0.0223111
0.0219255
0.0213133
0.0211914
0.0218215
0.0222886
0.0225624
0.0228226
0.0229703
0.0230683
0.0211407
0.0178872
0.017196
0.0155486
0.0147262
0.0181806
0.0188576
0.0183546
0.0177777
0.0194265
0.0201282
0.0203901
0.0203975
0.0203383
0.0202558
0.0202768
0.0203892
0.0200952
0.019972
0.0200708
0.0202769
0.0202207
0.0199854
0.0194049
0.0186364
0.0175692
0.0194273
0.0211216
0.0208695
0.0169565
0.0174838
0.0182352
0.0177498
0.0204176
0.0222931
0.022824
0.0228358
0.0225832
0.0221513
0.0216333
0.0210058
0.0207298
0.0212831
0.0218472
0.0218896
0.0220035
0.0219727
0.0214104
0.0212476
0.0206742
0.0204059
0.019644
0.0190687
0.0183186
0.020476
0.02366
0.0258525
0.0274246
0.0293045
0.0278781
0.0243691
0.0221132
0.0152401
0.0152504
0.0154774
0.0148525
0.0144841
0.0143141
0.0187222
0.0214308
0.0240974
0.0258208
0.023387
0.0233574
0.0232764
0.0231621
0.0230562
0.0229671
0.0227708
0.0235804
0.0413368
0.283126
0.210403
0.235803
0.22477
0.314975
0.079857
0.0390432
0.0431604
0.0498684
0.0567138
0.0547563
0.0510357
0.0444427
0.0398323
0.039429
0.0388965
0.0386871
0.0377818
0.0378464
0.0373173
0.0445423
0.0930434
0.123049
0.136741
0.145285
0.15449
0.149947
0.159077
0.151062
0.151617
0.153254
0.158007
0.150638
0.143266
0.139406
0.135104
0.117779
0.118134
0.0997031
0.103533
0.0864158
0.090905
0.0948
0.0941455
0.0929371
0.0927149
0.0929878
0.0938015
0.0974555
0.092784
0.0984066
0.0910733
0.0723197
0.0696725
0.0716047
0.0658866
0.0576049
0.0652879
0.080093
0.0955194
0.112234
0.0960152
0.120477
0.114404
0.115447
0.109669
0.103259
0.0994526
0.0986991
0.0992997
0.100413
0.103043
0.104962
0.106557
0.109445
0.11803
0.120358
0.118933
0.101497
0.0862388
0.0947337
0.0995508
0.103257
0.103545
0.0988279
0.0966467
0.090365
0.0887813
0.0831879
0.080598
0.075086
0.0717833
0.0669582
0.0834474
0.0816657
0.0886668
0.0949554
0.0992521
0.102903
0.104526
0.105783
0.104595
0.102199
0.0972481
0.0951983
0.0904106
0.108848
0.127245
0.130026
0.125394
0.111867
0.106242
0.338796
0.410996
0.412184
0.611678
0.653249
0.844321
0.335475
0.179898
0.192269
0.188947
0.180778
0.177583
0.177342
0.189039
0.198075
0.189087
0.199518
0.177108
0.172867
0.165076
0.190247
0.187779
0.168874
0.147638
0.114883
0.0932555
0.0919158
0.0763869
0.0773869
0.0684585
0.0700982
0.0724806
0.0896186
0.167486
0.208109
0.234783
0.261183
0.32152
0.29134
0.44045
0.353111
0.438783
0.303162
0.327794
0.31355
0.304786
0.302769
0.318727
0.341001
0.299861
0.372759
0.298733
0.647087
0.783308
0.496596
0.458929
0.406988
0.392923
0.383099
0.377595
0.369486
0.48684
0.451474
0.552395
0.512207
0.638404
0.559135
0.562996
0.528684
0.564742
0.583161
0.596032
0.47523
0.516485
0.400964
0.434087
0.364673
0.401312
0.290141
0.290938
0.332912
0.370634
0.396194
0.452229
0.711897
0.604629
0.81564
0.584458
0.70655
0.490854
0.5378
0.513733
0.496039
0.497632
0.525608
0.629786
0.609049
0.695236
0.514696
0.526974
0.516693
0.534033
0.523467
0.558408
0.563091
0.564265
0.562238
0.52341
0.533998
0.532177
0.531963
0.531984
0.53233
0.509574
0.512753
0.505219
0.511
0.526912
0.514585
0.514503
0.512364
0.50479
0.502736
0.502252
0.50401
0.503779
0.50891
0.50878
0.509118
0.512172
0.526882
0.51442
1.8225
0.902369
0.430068
0.339824
0.220165
0.134818
0.0555611
0.0600112
0.0629429
0.0638727
0.0618258
0.0564375
0.048269
0.0382887
0.0305076
0.029594
0.0263684
0.0268672
0.0345235
0.0421188
0.0384988
0.046277
0.0539732
0.0623015
0.0703075
0.077283
0.0831762
0.0860854
0.0830466
0.0703258
0.0526565
0.0352914
0.0250564
0.0226575
0.0210127
0.0190142
0.0169065
0.0152603
0.0142531
0.013079
0.0124454
0.0123561
0.0125738
0.0128127
0.013251
0.0147614
0.0160568
0.0172365
0.0181934
0.0184362
0.0179223
0.0184602
0.0190496
0.0194392
0.0197779
0.0196032
0.0195922
0.019836
0.0197943
0.019991
0.01989
0.0198872
0.0197449
0.0195665
0.0193391
0.0188986
0.0186202
0.0180585
0.0177147
0.0168984
0.016934
0.0173515
0.0176793
0.0166839
0.0166306
0.0158725
0.0267885
0.0479226
0.0610546
0.0660952
0.0714009
0.067386
0.0569984
0.0390266
0.0191387
0.0187585
0.0192267
0.0217557
0.0213004
0.0173475
0.0181167
0.0186639
0.0174474
0.0173289
0.0173584
0.0193764
0.019963
0.0213399
0.0218337
0.0222339
0.0224566
0.0224426
0.0225417
0.0222886
0.0222936
0.0219277
0.0219134
0.0216021
0.0213731
0.0216585
0.0223451
0.0224132
0.0230355
0.0227326
0.022421
0.021858
0.0214344
0.020585
0.0196496
0.0186464
0.0171121
0.0166782
0.0171955
0.0177071
0.0172564
0.0187035
0.0199784
0.0196687
0.0244093
0.0226519
0.0202099
0.0227215
0.0184517
0.0186206
0.0180725
0.0169847
0.0175305
0.017024
0.016935
0.0172213
0.0174994
0.0186595
0.0196204
0.0202701
0.0211361
0.0217944
0.0225109
0.0237101
0.0240166
0.023057
0.0228836
0.0217056
0.0210305
0.0207162
0.0216375
0.0229199
0.0228203
0.0236883
0.0234321
0.0221883
0.0213748
0.0205116
0.0195288
0.0188606
0.0180843
0.0173546
0.0169423
0.01614
0.0162578
0.0151868
0.01674
0.0171033
0.0192195
0.0173616
0.0169364
0.0224859
0.0283585
0.0442435
0.032297
0.0213284
0.0228754
0.0309648
0.0384327
0.0267905
0.0263944
0.0150475
0.0171472
0.0151438
0.0154221
0.016487
0.0167783
0.017947
0.0190082
0.0192436
0.0199949
0.0203371
0.0211122
0.0213698
0.0221071
0.0223003
0.0235725
0.0236424
0.0237163
0.0236968
0.0229182
0.0228462
0.0228782
0.0233243
0.0231036
0.0237791
0.0238042
0.0238811
0.0238091
0.02247
0.0221474
0.0213761
0.0208621
0.0199559
0.0194064
0.0186863
0.0182976
0.0176713
0.0179931
0.0187167
0.0189199
0.0198391
0.0198588
0.020606
0.0208119
0.0212781
0.0214099
0.0220767
0.0222156
0.0224833
0.0225394
0.0237494
0.0238644
0.0239052
0.0238697
0.023888
0.024119
0.0241189
0.0240573
0.0240446
0.0239714
0.0238144
0.0236628
0.0247218
0.0253897
0.0249218
0.0246853
0.0249552
0.0258121
0.0263642
0.0274581
0.0283132
0.0293903
0.0302837
0.0311114
0.0317887
0.0322693
0.0323939
0.0324305
0.0319836
0.0316104
0.0333098
0.0398089
0.0430344
0.0482942
0.0506694
0.0526523
0.0533805
0.0522107
0.0529219
0.051633
0.0518869
0.0506794
0.050239
0.0494083
0.048395
0.0476697
0.0461972
0.0454637
0.0500689
0.0566278
0.0567228
0.049687
0.0467696
0.0424004
0.0368398
0.0388774
0.0452916
0.0406641
0.038375
0.0355379
0.0305201
0.0233879
0.0178798
0.0256527
0.0333701
0.0405977
0.0473863
0.0533906
0.0572903
0.0594267
0.0609611
0.0626474
0.0606119
0.053157
0.0415626
0.0317483
0.0278946
0.0263448
0.0238946
0.0204466
0.0185525
0.0174754
0.0163183
0.0149662
0.0141051
0.0138612
0.0141025
0.0142184
0.0155619
0.0168193
0.0168117
0.0179863
0.0178067
0.0183142
0.0189001
0.0192959
0.0199573
0.0199212
0.0189612
0.019304
0.0195633
0.0202332
0.0201289
0.0202904
0.0200679
0.0193456
0.0188284
0.0182271
0.0177104
0.017253
0.0166858
0.0159858
0.0159794
0.0161764
0.0157271
0.0161272
0.016563
0.0169683
0.0175944
0.0185027
0.0192632
0.0210978
0.0212441
0.0210003
0.0210911
0.0196696
0.0196119
0.0186417
0.0184131
0.0200068
0.0198546
0.0181825
0.0195745
0.0195722
0.0213471
0.0213453
0.0206693
0.0208577
0.0207361
0.0189049
0.0180128
0.0169452
0.0161678
0.0155811
0.015184
0.0147241
0.0153498
0.0141502
0.0135719
0.0140214
0.0139966
0.0140647
0.0144537
0.0148833
0.0156257
0.0163287
0.0173721
0.01801
0.0189085
0.0192426
0.0211547
0.0210687
0.0209467
0.0209786
0.021122
0.021575
0.0207804
0.0207422
0.0208747
0.0208889
0.0209056
0.0208866
0.0190443
0.0188404
0.0180044
0.0176866
0.0167566
0.0163982
0.0157432
0.0154288
0.0150388
0.0148407
0.0231927
0.0253767
0.0255307
0.0396356
0.0199007
0.0198994
0.034199
0.0172927
0.0229809
0.0235285
0.0245929
0.0258171
0.0224692
0.0306141
0.0211391
0.0232489
0.0239847
0.0251521
0.0128122
0.0196612
0.0372128
0.0424601
0.0437882
0.0487403
0.0554312
0.0586523
0.061702
0.0637513
0.0660245
0.0684924
0.0709079
0.0726664
0.07283
0.0691601
0.0661075
0.056613
0.0527877
0.0565418
0.060982
0.0474702
0.0426632
0.0432122
0.043684
0.044221
0.0444321
0.0451248
0.0449316
0.0459354
0.0452001
0.0463115
0.045165
0.0461978
0.0449453
0.0421923
0.0389538
0.0327184
0.0307261
0.0296115
0.0268845
0.0243731
0.0221092
0.0202731
0.0198363
0.0182651
0.0168517
0.0165521
0.0152663
0.0155215
0.0167335
0.0198577
0.0168163
0.017661
0.0259948
0.0191351
0.0180347
0.0185852
0.0191039
0.0193396
0.0182353
0.0198652
0.0221438
0.0221279
0.0221871
0.0221933
0.0213822
0.0212171
0.0209407
0.0209944
0.021027
0.0211464
0.021113
0.0192862
0.0192298
0.0189558
0.0188172
0.0180281
0.0178607
0.0172779
0.0169483
0.0161099
0.015817
0.0153692
0.0154276
0.0166341
0.0205271
0.0300371
0.0173277
0.0180061
0.0155786
0.0139369
0.0265523
0.0246734
0.0285154
0.0266758
0.0392669
0.0263237
0.0230974
0.0241061
0.0296059
0.0295488
0.0325019
0.0422288
0.0329106
0.0281405
0.0732964
0.0534987
0.0331952
0.0462446
0.0582132
0.108968
0.127382
0.0559459
0.056472
0.0621692
0.0630642
0.0629414
0.0533705
0.0491883
0.0413777
0.0318731
0.0128559
0.0248274
0.0320755
0.0426918
0.0570687
0.091924
0.0528583
0.0596847
0.065662
0.0647543
0.0678638
0.066003
0.0646108
0.0655429
0.102543
0.111446
0.107668
0.0863507
0.0810327
0.0739562
0.123955
0.138895
0.119825
0.129927
0.135742
0.0816549
0.0302727
0.0248547
0.023734
0.0262976
0.0252364
0.0458558
0.0204947
0.0217303
0.0225631
0.0270552
0.0300813
0.0527823
0.0231686
0.025383
0.0323198
0.0348116
0.0458846
0.027372
0.0280344
0.0343638
0.0361606
0.0394692
0.0335608
0.0316579
0.0286218
0.0258265
0.0243296
0.0253817
0.0317511
0.046191
0.0277784
0.0282065
0.0299714
0.133507
0.0306357
0.0265582
0.0276261
0.0266318
0.033558
0.0349984
0.111165
0.0353992
0.0166602
0.0154171
0.0158866
0.0166936
0.0173299
0.0179464
0.0183917
0.0190316
0.0194272
0.0195797
0.0197477
0.0221278
0.0220327
0.0215679
0.0210246
0.0218204
0.0211258
0.0211759
0.021795
0.021262
0.0214057
0.0224604
0.0236383
0.0231527
0.0237217
0.0250708
0.0239056
0.0221984
0.0219926
0.0221156
0.0228221
0.0239599
0.0227653
0.0234152
0.0225945
0.0235144
0.0236189
0.0203172
0.0199506
0.0197474
0.0192423
0.0185697
0.0179467
0.0172786
0.0166348
0.0161431
0.0160818
0.016603
0.0151591
0.0155719
0.0179681
0.0395366
0.0325538
0.0266363
0.0222783
0.0195763
0.0183977
0.0182625
0.0186993
0.0193492
0.0199128
0.0201219
0.0207051
0.0245852
0.0245346
0.0257415
0.0246063
0.0259462
0.0248941
0.0235713
0.0227018
0.023912
0.0232152
0.0237069
0.0253305
0.0261825
0.0238188
0.0240925
0.0215
0.0200865
0.0184709
0.0188146
0.0202653
0.020941
0.023382
0.0234589
0.0269025
0.0268767
0.0267229
0.0254793
0.0248023
0.0262528
0.0247625
0.0259125
0.024798
0.0262009
0.0273822
0.0277244
0.0270174
0.0261535
0.0252764
0.0210049
0.0202187
0.0199122
0.0194201
0.0191682
0.0201043
0.0243876
0.0336239
0.0457527
0.0578873
0.0673003
0.0667508
0.060115
0.0407632
0.0417756
0.0387649
0.0422347
0.0601431
0.086119
0.0603807
0.114347
0.0886088
0.0525887
0.0628636
0.0748588
0.0840236
0.0899533
0.0909549
0.0774617
0.0570253
0.0500667
0.0524868
0.0847744
0.0834894
0.0824756
0.0780271
0.0825348
0.0804258
0.0777632
0.0762072
0.0744342
0.0701785
0.0701577
0.0674598
0.0674234
0.060267
0.0614496
0.0616829
0.059106
0.0563536
0.0540635
0.0518706
0.0495443
0.0456445
0.044363
0.041879
0.0401324
0.0367684
0.0362292
0.0357442
0.0335688
0.0320149
0.0307601
0.0294973
0.0277921
0.0279511
0.0263531
0.026195
0.0213377
0.0209595
0.0199462
0.0196119
0.0193664
0.0195732
0.0208278
0.0235198
0.0436273
0.0330978
0.0329284
0.0334751
0.0336776
0.0395756
0.0463583
0.0705911
0.0653162
0.0718921
0.0614556
0.063909
0.0631273
0.0627491
0.0654723
0.0690644
0.0744069
0.086907
0.333668
0.513808
0.253313
0.237266
0.246871
0.251746
0.259168
0.339239
0.360149
0.356123
0.360648
0.330466
0.318304
0.196599
0.226023
0.238097
0.236983
0.223862
0.202265
0.393143
0.522657
0.518789
0.523657
0.52377
0.518766
0.522603
0.502912
0.514275
0.501758
0.51503
0.502298
0.521674
0.518933
0.504364
0.501137
0.501156
0.500916
0.501379
0.501556
0.504894
0.506056
0.506108
0.505103
0.504116
0.514523
0.437047
0.122509
0.0852119
0.141591
0.196751
0.161071
0.233135
0.268022
0.193176
0.109815
0.0895707
0.101035
0.124433
0.125967
0.153018
0.200305
0.187566
0.153096
0.154077
0.154611
0.199781
0.191404
0.217666
0.260033
0.253313
0.188666
0.150203
0.14937
0.227455
0.242288
0.237522
0.123007
0.0441271
0.0218091
0.0227264
0.03263
0.0165082
0.0168024
0.0221381
0.0579669
0.0966695
0.0499505
0.136149
0.137963
0.182009
0.147402
0.178269
0.115502
0.118843
0.0676258
0.0796346
0.0895815
0.0953405
0.0996408
0.0937156
0.216518
0.319724
0.190637
0.561218
0.538024
0.196122
0.217234
0.575991
0.51301
0.503524
0.501784
0.501698
0.501859
0.501816
0.500969
0.500915
0.500728
0.500765
0.500716
0.501163
0.504767
0.520397
0.51461
0.50524
0.501385
0.500824
0.500799
0.50069
0.50073
0.50075
0.500807
0.501017
0.501049
0.501151
0.50167
0.503942
0.512028
0.435624
0.169989
0.182418
0.406136
0.361911
0.511502
0.504622
0.501369
0.500942
0.500855
0.500829
0.500794
0.500969
0.50089
0.501397
0.501231
0.501287
0.502777
0.508259
0.506398
0.443348
0.369613
0.417376
0.330201
0.506674
0.507778
0.503277
0.502899
0.503246
0.503414
0.501514
0.501527
0.500992
0.50106
0.500893
0.50134
0.504756
0.511013
0.346088
0.171008
0.1779
0.258212
0.0879791
0.0908895
0.0927957
0.0948802
0.247205
0.441687
0.555742
0.471314
0.475377
0.542342
0.385736
0.36451
0.294167
0.317715
0.402086
0.347365
0.312924
0.250418
0.2887
0.24782
0.303617
0.21798
0.23429
0.221863
0.283208
0.287079
0.287445
0.226847
0.216708
0.271797
0.286079
0.31705
0.218893
0.259192
0.203443
0.192469
0.0871879
0.0893471
0.0812223
0.0712707
0.0710352
0.079178
0.0776306
0.083839
0.0808511
0.0845633
0.0817002
0.0796687
0.0728414
0.0748601
0.0686288
0.0712719
0.130335
0.166496
0.150435
0.151843
0.179528
0.131054
0.157416
0.153473
0.197572
0.247973
0.226742
0.291866
0.225115
0.27558
0.405633
0.754312
0.438886
0.244484
0.318114
0.340096
0.2887
0.189616
0.449578
0.5386
0.298072
0.360282
1.19633
1.04375
1.78142
0.992502
1.11907
0.670863
0.597689
1.02877
0.653869
0.666296
0.559771
0.573551
0.499252
0.324325
0.323819
0.305691
0.241884
0.280625
0.271329
0.266771
0.29638
0.261526
0.316589
0.352365
0.397071
0.322663
0.28551
0.366892
0.215586
0.290704
0.346266
0.315616
0.259704
0.337969
0.449954
0.421344
0.362572
0.399076
0.509481
0.563281
0.532593
0.451855
0.513132
1.00674
0.963415
0.930933
0.590532
1.93386
1.71904
0.353326
0.137833
0.0960791
0.0363295
0.0224125
0.0182252
0.0178309
0.0487508
0.0194976
0.0234818
0.0211427
0.0300229
0.0272908
0.0315525
0.0554521
0.0375711
0.0528293
0.0391805
0.0521553
0.0415166
0.0570953
0.0613075
0.0645758
0.0522272
0.0411677
0.0622178
0.0830306
0.0388564
0.0999793
0.105655
0.0682906
0.0830284
0.102507
0.0530693
0.165176
0.057221
0.0569161
0.0677785
0.127144
0.252171
0.0857039
0.112289
0.58652
1.53086
0.510921
0.201739
0.164509
0.0412817
0.0358189
0.0292026
0.0354341