/*--------------------------------*- C++ -*----------------------------------*\
| =========                 |                                                 |
| \\      /  F ield         | OpenFOAM: The Open Source CFD Toolbox           |
|  \\    /   O peration     | Version:  v2012                                 |
|   \\  /    A nd           | Website:  www.openfoam.com                      |
|    \\/     M anipulation  |                                                 |
\*---------------------------------------------------------------------------*/
FoamFile
{
    version     2.0;
    format      ascii;
    class       surfaceScalarField;
    location    "155";
    object      phi;
}
// * * * * * * * * * * * * * * * * * * * * * * * * * * * * * * * * * * * * * //

dimensions      [1 0 -1 0 0 0 0];
oriented        oriented;


internalField   nonuniform List<scalar> 
50655
(
0.00257671
-0.00361225
-0.00141436
-0.005128
0.00138624
0.00360073
-0.003404
0.00391869
0.0044653
-0.00248975
-0.00283051
0.00304466
-0.00369697
-0.00378664
0.00265958
-0.00176625
-0.00484932
0.000800052
0.000215531
-0.00471575
0.00158104
-0.00178521
-0.00717203
0.00236874
-0.0104543
0.0028096
0.00037387
-0.0112794
-0.0034424
0.00415753
-0.0120378
-0.0048318
0.00548772
-0.0129002
-0.00562861
0.00638688
-0.0261705
-0.00931186
0.0223882
-0.0486842
-0.0282529
0.0502063
-0.0482707
-0.0527178
0.0516072
-0.0310583
-0.0711326
0.0531422
-0.00453352
-0.0780386
0.0507308
0.00787822
-0.0547364
0.0415132
-0.00172146
-0.0314433
0.0402701
-0.0210443
-0.0216875
0.0402434
-0.0169679
-0.0512891
0.0464903
-0.00709178
-0.0552833
0.0448495
-0.0388246
0.0314038
-0.0413373
0.0188158
-0.0166044
-0.0160416
-0.075556
0.0497655
0.0201329
-0.0798038
0.0431327
0.0305898
-0.0293174
0.0185535
0.034136
-0.00388353
0.0365558
0.0178981
-0.0206405
0.0254275
-0.0180015
0.0288539
0.0164963
-0.00950077
0.0182628
0.0034607
-0.00133509
0.0142437
-0.00647376
0.00688012
0.00295905
-0.00542329
0.000166862
-0.00125804
-0.00539328
-0.00121503
0.00116663
-0.00631734
0.000216414
0.000690363
-0.00758411
0.000205808
0.00104436
-0.008722
8.59461e-05
0.00103481
-0.00911602
-0.00025505
0.000632698
-0.00938097
-0.000673641
0.000921995
-0.00894356
-0.0011007
0.000647014
-0.00831623
-0.00156872
0.000924712
-0.00709054
-0.00201696
0.000774834
-0.00566171
-0.00248048
0.00103478
-0.00378902
-0.00277874
0.000889881
-0.00195973
-0.00296695
0.0011207
0.000968676
-0.00294601
0.000718024
-0.00248276
0.00270777
-0.00559172
0.00498884
0.00127914
-0.0111158
0.00472748
0.000740054
-0.0131973
0.00514742
-0.00313286
-0.0130235
0.00537274
-0.00561352
-0.00545488
0.00465106
-0.0122761
0.000499909
0.00560745
-0.011604
0.000599168
0.00357481
-0.0036997
-0.00150668
0.00208826
-0.00295452
0.00214372
-0.000713022
-0.00451395
0.00219148
-0.000648201
-0.00582665
0.00235058
-0.00105427
-0.00709314
0.00230786
-0.00105632
-0.00859457
0.00249982
-0.0010124
-0.0101607
0.00258595
-0.00103323
-0.0114562
0.00237847
-0.00109612
-0.012359
0.00201752
-0.00112773
-0.0128269
0.00160487
-0.00115001
-0.0131454
0.00143958
-0.00113433
-0.01375
0.00156754
-0.000977166
-0.0139581
0.00112376
-0.000930721
-0.0136645
0.000897885
-0.00120694
-0.0136559
0.000783914
-0.000808185
-0.013382
0.000828276
-0.00111825
-0.0131352
0.00090288
-0.00116563
-0.0129907
0.000845675
-0.00100592
-0.0127148
0.000575715
-0.000867157
-0.0121754
0.000126801
-0.000681721
-0.0112746
-0.000448008
-0.000468048
-0.0101543
-0.000907088
-0.000228479
-0.00883696
-0.00100272
-0.000329407
-0.00738853
-0.000752995
-0.000709289
-0.00758748
-0.000686628
0.000873574
-0.0164017
0.000832062
0.00795561
-0.0211751
0.000420264
0.00429252
-0.0226184
0.00116436
0.000213754
-0.042613
0.0163811
0.00349599
-0.0546174
0.00566259
0.00604349
-0.0295039
-0.0162661
-0.00915504
-0.0131348
-0.014946
-0.00155522
-0.0112711
-0.00397964
0.00203799
-0.0100131
-0.00306066
0.00171252
-0.00809298
-0.00341172
0.00139011
-0.00472877
-0.00328073
-0.000178768
-0.00317
-0.00164408
-0.00443693
0.00459212
-0.00342008
-0.0026594
0.00674509
-0.00863626
0.000925389
0.00622527
-0.00994226
0.00621244
0.00591656
-0.0113484
0.0149692
0.00881436
-0.0177522
0.0285261
0.0138047
-0.0276441
0.0249537
0.0196905
-0.0163996
0.0166361
0.00641462
0.00171826
0.00807421
4.48978e-05
0.0083696
-0.000914763
-0.00386097
0.012715
-0.0044036
-0.00672295
0.0100954
-0.00755825
0.00542594
0.00434882
0.00100247
-0.0101974
0.00199835
-0.00812813
0.00364196
-0.00521316
-0.00418034
0.00740508
-0.012568
0.00198464
0.00528224
-0.0143773
0.00571124
0.00237587
-0.0384924
0.0270442
0.0233041
-0.00712418
-0.0133201
0.0371749
-0.00975855
-0.0393615
-0.00482443
0.00930474
-0.00912056
-0.000570871
0.00898715
-0.00745423
0.00264384
0.00960474
-0.00671661
0.0045664
0.00961988
-0.00490728
0.00712765
-0.00134369
0.011276
-0.00495252
-0.00272474
0.0124529
-0.00187878
-0.00246116
0.00884119
-0.000398604
-0.00411851
-0.00203672
-0.0211046
-0.00211575
0.0296011
-0.0106738
-0.014342
-0.00166131
-0.00712592
-0.00248642
-0.00733475
0.015901
0.00132427
-0.0102709
0.0219559
0.00113335
-0.00900584
0.0325148
0.000355482
-0.0132069
0.0833074
-0.00212827
-0.036005
0.0468326
-0.00193057
0.0455705
-0.00217196
0.00741707
-0.00309968
0.0384815
0.00386347
0.021798
0.00195343
0.0232563
-0.000321005
0.0113232
0.0139517
0.00623051
-0.00792775
0.000106411
0.00681427
0.0052195
-0.00147753
0.00732601
0.00819247
-0.00152282
0.00712644
-0.0150838
0.00798454
-0.00209498
0.00737433
-0.0153314
0.00850935
-0.00126232
0.00744068
-0.0167149
0.00842108
-0.00129895
0.00742472
-0.0160293
0.00862044
-0.000627122
0.00728904
-0.0165959
0.00861442
-0.000249885
0.00703826
-0.0160038
0.00856829
0.000715193
0.00624595
-0.0154721
0.00824251
0.00579102
0.0044277
-0.0169789
0.00746087
0.00148651
-0.00412992
0.00570044
0.00271966
0.000798894
0.00539234
-0.000284004
0.000621226
0.00715229
-0.000739435
0.000775858
0.00802427
-0.00115294
0.000932109
0.00832615
-0.00120634
0.00126932
0.00839224
-0.00131798
0.00149298
0.00856678
-0.00136304
0.00149512
0.00871189
-0.00135267
0.00125792
0.00872301
-0.00137169
0.000931129
0.00883827
-0.00119735
0.00731265
-0.000264273
0.00936102
-0.00199588
-0.000819464
0.0110388
-0.00184101
-0.000854891
0.012322
-0.00153831
-0.000667877
0.0131077
-0.000304063
-0.000945329
0.013538
0.000859852
-0.00117903
0.0137159
0.00171671
-0.00133481
0.013715
0.00224605
-0.0014157
0.0137738
0.00226035
-0.0014328
0.013728
0.0018375
-0.0009799
0.0137336
0.00136079
-0.000598532
0.0139149
0.00124019
-0.00053926
0.0133017
0.00115872
0.000562984
0.0124481
0.00244009
0.000239541
-0.000272582
0.0126885
-0.000416734
0.00244441
-0.000841814
0.0123498
-0.000240557
0.00280612
-0.000635226
0.0114758
-7.62284e-05
0.00311779
-0.000163221
0.0102131
4.69384e-05
0.000299818
0.00328117
0.00861404
0.000724762
0.00331853
0.000128206
0.00686857
0.00104311
0.00305221
0.000136146
0.00586369
0.000966155
0.0022446
8.70278e-05
0.00442042
0.00462932
-0.00085186
0.00286767
0.00428462
-0.000556611
0.0014223
-0.000507016
0.0040797
0.00389957
-0.000405944
0.00561068
-0.00051419
-0.00121307
0.00683558
-0.000408022
-0.000833726
0.00780815
-0.0006056
-0.000383455
0.00817307
-0.000470765
8.91223e-05
0.00822984
-0.000603628
0.000530397
0.00754069
-0.000256086
0.000928642
0.00656376
-0.000291671
0.00125203
0.00474681
0.000294857
0.00150502
0.00205749
0.00113856
0.00153363
-0.00171521
0.00206063
0.00169412
-0.00447069
0.000567281
0.0021702
-0.00599566
-0.000870249
0.00237596
-0.00727917
0.000622554
0.000639008
-0.0137355
0.000504387
0.00590712
-0.0248043
-0.00655099
0.0175039
-0.0309571
-0.0161236
0.0221111
-0.0391138
-0.0260362
0.0339264
-0.0316163
0.0235959
0.016198
-0.0383985
0.00916422
0.0258831
-0.0166702
0.00691658
-0.00457201
0.00436485
-0.0322267
0.0260994
0.00150647
-0.0146905
-0.0233269
0.00575548
-0.0374951
0.00608809
0.0411669
-0.0573525
-0.00079994
0.0289729
-0.0499375
0.0151539
0.0125843
-0.00998571
0.0169517
-0.0102825
0.0109242
-0.00249714
0.0189114
0.00790098
0.0112785
-0.0125604
0.0135265
0.00528025
-0.00619179
0.00131866
0.011251
0.00486676
0.00102459
0.00269821
0.00128808
-0.0010287
0.00153851
0.0027341
-0.00488131
0.0038376
0.0020541
-0.00544567
-0.00048963
0.00217159
-0.00958156
0.00199046
0.0024198
-0.00823026
-0.00368495
0.00202189
-0.0118836
0.00195991
0.00141745
-0.00892105
-0.0041803
0.000594327
-0.0112582
0.00215558
-0.000308952
-0.00733351
-0.00320512
-0.00134484
-0.00817239
0.00229182
-0.00188113
-0.00441501
-0.00172006
-0.00257075
0.00129754
-0.00256275
0.00397446
0.0117715
-0.0106204
0.0114384
0.00656622
-0.00943158
0.0129187
0.00891449
-0.00509178
0.00993125
0.0105267
-0.00246159
0.00405482
0.00950704
0.00104437
0.0127299
-0.00239541
-0.00217359
0.000823353
0.0151088
-0.00584647
0.00458681
-0.00328993
0.00209539
0.0150308
-0.00745573
-0.00309287
0.0032283
0.00732499
0.0104226
-0.00787882
-0.00270366
0.00326318
0.0118533
0.00179398
-0.00671424
-0.00201282
0.0011275
0.0161431
-0.000820654
-0.00439026
0.00746472
-0.000404895
-0.00517472
0.0110957
3.0275e-05
-0.0103454
0.0126808
-0.00895678
-0.014245
-0.014148
0.00843676
0.00573125
-0.0241408
0.00411603
-0.0185607
0.00623572
-0.0165084
-0.0113947
0.00927331
0.00796237
0.00961939
-0.0341367
-0.0237725
0.00755884
0.0112092
0.0075226
-0.0100331
-0.0325598
-0.00916824
0.00779816
-0.00162637
3.61768e-05
0.00777821
-0.00657765
-0.0104682
0.0114907
-0.00763908
-0.0141612
0.0105478
0.0105317
-0.00082874
-0.00884546
0.0103312
-0.00148877
0.00793466
-0.00782812
0.00396148
0.00103022
0.00457564
-0.00368759
0.00594501
-0.00633832
0.0139767
-0.0121674
-0.00355697
0.0108094
-0.0170561
-0.00261156
0.00570178
-0.0169908
-0.000999248
-0.00116417
0.00202228
-0.0082303
0.0083462
0.00969467
-0.00952122
0.0107973
0.0113499
-0.00496669
0.0114086
0.0119909
-0.00215573
0.0107567
0.00424358
-0.0108462
0.0111212
0.00295549
-0.00907727
0.0122633
-0.00212476
-0.00491084
0.0118319
-0.00473207
0.00979503
-0.00608126
0.00219529
0.00386286
0.00105263
0.00789263
0.00768794
-0.00164064
0.0109184
0.00888664
0.000263828
0.00767277
0.00641639
-0.00918594
0.0102101
-0.000137167
-0.00714528
0.00369719
0.00306034
0.000171926
0.00163074
-0.00134948
0.00497846
-0.00659079
-0.00149412
-0.00228595
0.018722
-0.00353851
-0.0194618
0.0169158
-0.00138246
-0.0017697
-0.016279
-0.0118619
-0.000848494
0.0032898
-0.00868475
-0.0106514
-0.0131058
0.00651253
-0.00595223
-0.00496113
0.000855712
0.00135952
0.000384578
-0.00209263
-0.00424663
-0.00099289
0.00396663
-0.00259075
-0.000418611
0.00179678
-0.00237244
0.00129073
-0.00380415
0.00674306
0.000689416
-0.0111149
0.000652989
-0.00347628
0.0104075
-0.00346329
-0.00446203
-0.0188835
0.0138855
-0.0118289
-0.019369
-0.0118052
0.00788688
0.00431164
-0.0265803
-0.0154303
0.00260684
0.00935099
0.0105726
-0.0355639
-0.0165099
0.0130978
0.00185886
0.0104347
-0.0422752
-0.014672
0.00986124
0.000107984
0.0113107
-0.0436498
-0.0108362
0.0032646
-0.00150579
0.0103475
-0.0431551
-0.00622448
-0.00146706
-0.00181436
0.00890125
-0.0394738
-0.00340254
-0.00447916
0.00410632
-0.0347343
-0.00124393
-0.00708469
0.00650819
-0.00302711
-0.0321727
0.00127594
-0.00608771
0.00563145
-0.0034832
-0.029125
0.00258062
0.00450512
-0.00396376
-0.00627254
-0.0289324
0.00197039
0.00399875
-0.00352585
-0.00274788
-0.0298372
0.000103399
0.00189094
-0.00119662
-0.02778
-0.001702
0.00144527
-0.00191412
-0.0229556
-0.00274028
0.00159306
-0.00377354
-0.0301327
0.00175203
0.0226346
-0.0172851
-0.0592884
0.0293483
-0.0130386
0.012466
0.00592664
-0.0199004
-0.00145889
-0.013299
-0.0252059
-0.00908605
-0.0122684
-0.000531717
-0.00873743
-0.0111642
0.00055623
0.000308417
-0.0094336
-0.000670388
0.000555749
-0.0058012
-0.0038387
0.0014861
-0.00309112
-0.00404203
0.00105478
-0.00455163
-0.000253248
-0.00447049
0.000791613
-0.000919996
-0.00686375
0.00204706
0.000283008
-0.0108079
0.00220063
0.0016639
-0.0131199
0.000808794
0.00142463
-0.0133846
-0.000362159
0.000557014
-0.0130917
-0.00175778
0.00141091
-0.0236753
0.00141854
0.00909026
-0.0569144
0.0175113
0.0155211
-0.101373
0.00878594
0.0350995
-0.118015
-0.0059652
0.0219139
-0.127344
-0.011696
0.0202501
-0.133741
-0.0165957
0.0221576
-0.137363
-0.022284
0.0250219
-0.138667
-0.0273413
0.0277338
-0.138572
-0.0308136
0.0297944
-0.137747
-0.0329564
0.0312068
-0.136279
-0.0341982
0.0318135
-0.13412
-0.0348435
0.0317827
-0.130266
-0.0353503
0.0306248
-0.122285
0.0278427
-0.0366574
-0.103143
0.0208196
-0.0407208
-0.0533768
0.00336266
-0.0537476
-0.0225847
-0.00120165
-0.0298094
-0.012367
-0.00427097
-0.00602405
-0.0120889
0.00199463
-0.00232781
-0.0111892
0.00433399
-0.00530447
-0.00875505
0.00384961
-0.0063642
-0.00423982
0.00401677
-0.00861636
-0.00477986
0.00348711
-0.00301831
-0.00804559
-5.14297e-05
0.00326633
-0.00780584
0.00237012
-0.00268105
-0.00893451
0.00104085
-0.0138003
0.00697045
-0.00220325
-0.0166263
0.00713996
-0.0044239
-0.0188978
0.00763904
-0.00547015
-0.0237483
0.00699981
-0.00225407
-0.0532594
0.0187244
0.0105902
-0.0978213
-0.00810355
0.0520918
-0.110801
-0.0316684
0.0439273
-0.112268
-0.041809
0.042465
-0.107589
-0.047645
0.0421441
-0.0988288
-0.052108
0.0424908
-0.0861655
-0.0543214
0.0408335
-0.0692277
-0.0558172
0.0380594
-0.0495213
-0.0567921
0.0363196
-0.023864
-0.0480729
0.0217789
-0.0375495
0.0132468
-0.0534034
0.0234486
-0.00806193
-0.0592606
0.0257193
-0.0203649
-0.0593591
0.0270342
-0.027462
-0.0503789
0.0267911
-0.0362976
-0.0403291
0.0246308
-0.0351834
-0.0231502
0.0166555
-0.0343017
0.0092278
-0.0328167
0.0270049
0.0382018
-0.0566156
0.0507554
0.0495663
-0.0740828
0.0745979
0.0496512
-0.0743136
0.0947637
0.0498661
-0.0708564
0.110494
0.0470613
-0.063648
0.118722
0.0397384
-0.0487892
0.116707
0.0329577
-0.031753
0.101049
0.030061
-0.0151235
0.0543946
0.0398174
0.00626375
0.0254222
0.0250088
0.0037672
0.0213223
0.00417583
-0.000180568
0.0194154
0.000593289
0.00121099
0.0158442
0.000300098
0.00316115
0.00911803
-0.000247312
0.00687496
-0.000923566
0.00995381
-0.000963467
-0.00970085
0.009645
0.000724974
-0.0130822
0.0112848
0.0025663
-0.01421
0.0122455
0.00406969
-0.0135412
0.0119023
0.00431528
-0.0191186
0.0186951
0.00781805
-0.0285495
0.0247616
0.00378828
0.0235496
-0.0198036
-0.000227252
0.0168453
-0.013009
-0.000424368
0.00840919
-0.00834775
-0.00058511
0.00772474
-0.00768721
-0.00111687
0.00735527
-0.0069325
0.00630426
-0.00647607
0.00345634
0.00544969
-0.00029419
0.00323853
0.0061821
0.00131892
0.00333127
0.00590543
0.00164882
0.0039836
0.00477608
0.00290255
0.0103157
0.0115674
-0.00115985
0.0193517
-0.00896762
-0.000113836
0.00909307
-0.00418738
0.0144053
-0.0229801
-0.0113851
0.0433883
-0.0154988
-0.00573986
-0.00181994
-0.000973401
0.00357075
0.00486109
-0.00942097
0.00603999
-0.00259383
0.00361625
-0.00177857
-0.00824448
0.000447111
-0.00914784
-0.0102386
-0.0126178
0.0184008
-0.00481775
-0.0306823
0.00322359
0.00366071
0.00405825
-0.0175493
-0.0495353
0.00588754
0.010117
0.000829209
-0.0580204
-0.0156524
0.0261515
-0.00422602
-0.0203583
0.00615741
-0.00325047
-0.020249
0.00559973
-0.00227104
-0.0206111
0.00529712
-0.000899496
-0.0189954
0.0044291
-0.0149684
0.00402396
-0.0210938
0.00226593
0.00403481
-0.0219064
-0.00133643
0.00262806
-0.0178539
8.54778e-05
0.00544349
0.00164653
-0.0464942
0.0353849
0.00830534
0.00803123
-0.114821
0.0350486
0.0513871
0.0208175
-0.124878
0.0473037
-0.00804118
-0.125702
0.0547921
-0.0218771
-0.117868
0.064553
-0.0335244
-0.102945
0.0732016
-0.0419461
-0.0838674
0.0769306
-0.0470096
-0.0613796
0.0747041
-0.0483798
-0.0366607
0.0743635
-0.0503302
0.0505245
-0.0328953
0.0589334
0.0458851
-0.0302707
0.0684968
0.0518472
-0.0352446
0.068801
0.0530385
-0.0269335
0.0633568
0.0507905
-0.0202346
0.044057
-0.00589208
-0.0882255
0.0718735
0.00280293
-0.0980243
0.0754916
-0.015811
-0.0995096
0.0799179
-0.0263364
-0.0882016
0.0791027
-0.0395058
0.0717656
-0.0406273
0.0880078
0.0942294
-0.0366584
0.0976104
0.101467
-0.0328962
0.0944819
0.100939
-0.0188219
0.081912
0.095925
-0.00875442
0.0902526
0.00687627
-0.0812437
0.10329
0.0130173
-0.0944526
0.110334
-0.00212153
-0.0983469
0.11577
-0.0118976
-0.0904723
0.116616
-0.0239845
0.111139
-0.031373
0.08701
0.123959
-0.0275639
0.0946552
0.128
-0.020006
0.0912291
0.126174
-0.00795546
0.078304
0.120119
0.00220414
0.111925
0.016678
-0.0724318
0.116476
0.0193591
-0.0843739
0.12519
0.00593332
-0.0867179
0.131741
-0.00420255
-0.0788136
0.134122
-0.0150063
0.131059
-0.0222981
0.0682079
0.131758
-0.0150512
0.0760925
0.134487
-0.00922687
0.0749969
0.130905
0.000954519
0.06406
0.12453
0.0106601
0.115282
0.0225785
-0.0525757
0.105579
0.0297547
-0.0646045
0.116094
0.0195214
-0.0641672
0.119657
0.00984733
-0.0562327
0.125072
0.00051756
0.125966
-0.00408061
0.0351668
0.0190957
0.06125
0.0445633
0.0514327
0.0945111
0.0134198
0.0547241
0.0922756
0.0232152
0.0357373
0.0482063
0.0451164
0.0408191
0.044442
0.0364463
0.0514333
-0.0122972
0.0267967
0.0153606
0.0143656
-0.0187254
0.0276107
0.0150622
-0.0152845
0.0310685
0.0134935
-0.0135498
0.0289853
0.0141874
-0.039958
0.0275198
0.0407161
-0.000819333
0.024813
-0.0283732
-0.008273
0.0384276
0.00579086
-0.0369649
-0.00679692
0.0299095
0.0054718
-0.0370339
-0.00459135
0.0290339
-0.0364912
0.0050819
0.0258334
0.00346174
0.00381026
0.00513969
0.00492182
0.00714042
0.0068038
0.00759936
0.00903064
0.00890749
0.00837704
-0.00413827
-0.0199084
0.0156548
0.00266085
-0.000609039
0.000589854
0.00623565
0.00289361
0.000297367
-0.000534164
0.000353744
0.00408208
-0.00154708
-0.00243341
-0.00132078
0.00410376
-0.00165067
-0.000489018
0.00117599
0.0105728
0.0120634
0.0315532
-0.0531058
0.00538461
0.0177526
-0.00423157
-0.00728023
0.0567281
0.00123525
-0.0150436
0.00283456
0.00352469
-0.00653919
0.00503789
0.00397399
-0.00619204
-0.0221638
0.00968349
0.0174779
-0.00937682
-0.0125142
-0.000316372
0.0178936
-0.00256261
0.0238771
-0.00787993
0.0461767
-0.0126857
0.0215386
0.0764858
-0.0247733
-0.0326132
0.00458309
0.00706583
0.0297195
0.00211786
-0.017524
0.00801425
0.0136408
-0.00404552
-0.0106361
0.00844916
0.0149421
-0.00404118
-0.0114424
0.00755454
0.01442
-0.00236403
-0.0112679
0.00611501
0.0127776
-0.0104199
-0.00101676
0.00366503
0.0105192
-0.00878656
0.000629985
0.00872354
-0.00789571
0.00275676
0.00842803
-0.00314803
0.00337283
0.00802683
-0.00279497
0.0031411
0.0151711
-0.00807498
0.000853435
0.0392147
-0.0159379
-0.00832454
0.072715
-0.0388611
0.00474224
0.0827755
-0.0276159
0.0167959
0.0843273
-0.0234766
0.0210909
0.0817634
-0.0202171
0.0219084
0.0765869
-0.0157834
0.020057
0.0696102
-0.0086868
0.0147451
0.0601796
0.00177655
0.00672595
0.041651
0.0176731
-7.24026e-05
0.0142243
0.0416055
-0.015097
-0.00575306
0.0553327
-0.0362577
-0.0019222
0.0502958
-0.0549985
0.0121724
0.0392673
-0.054195
0.0154908
0.0263602
-0.0304371
0.00956127
0.0288712
-0.0235591
0.00208914
0.0113032
-0.00404938
0.000377748
0.0038022
-0.00216778
-0.000448368
0.00176608
-0.000994556
-0.00210203
0.00326305
-0.00167891
0.00315318
-0.00228835
0.00323651
0.00523299
-0.00148272
0.000254384
0.00660408
-0.000434335
0.0021786
-0.000179708
0.0065527
-0.000600542
0.00176184
0.00595107
-0.00383547
0.00256246
0.00569078
0.00621903
0.000983989
0.0118428
0.0171991
-0.0108988
0.0154388
-0.0103311
0.0235279
0.0241008
-0.0298633
0.0433768
0.0145037
-0.0441716
0.0506119
0.013057
-0.0625193
0.0464459
0.026282
-0.0784844
0.0295075
0.027098
-0.0894923
0.00775649
0.019952
-0.0950399
-0.0085523
0.0149034
-0.0984589
-0.0208124
0.0145783
-0.100644
-0.0293846
0.0148323
-0.100833
-0.0351476
0.0141826
-0.0974597
-0.0395085
0.0117369
-0.088595
-0.0439031
0.00651416
-0.0318695
-0.0405432
-0.0447277
-0.0112992
-0.0184123
-0.0104095
-0.0191574
0.00260975
-0.0153632
-0.00709368
0.00132153
-0.0057557
0.000261584
-0.00942827
0.000855864
-0.00379266
0.00165911
-0.00747503
0.000992386
-0.00880073
0.0158166
-0.000176982
-0.0079477
0.0158242
-0.00183552
-0.00614514
0.013916
-0.00215922
-0.00205764
0.019783
0.0057078
0.0204641
0.106902
-0.0445678
-0.00949705
0.00400754
0.0306593
0.00547493
0.00761284
0.010505
-0.000246403
0.00842057
0.0142698
0.00066797
0.0151282
0.00192521
-0.0162339
-0.0197351
-0.0126532
0.030789
-0.0202319
0.0462436
-0.0178366
-0.0510907
0.106824
-0.024535
-0.0521521
0.12176
-0.014961
-0.104316
-0.0444401
0.125578
-0.0301385
-0.0751456
-0.0286143
-0.0174515
-0.0287994
-0.0143285
-0.00292459
-0.0402339
0.016996
-0.00214794
-0.0241034
-0.00525966
0.0279209
-0.00546294
-0.00854605
0.0163374
-0.00786316
-0.00930875
0.0144315
-0.00619032
-0.00946076
-0.011818
-0.0027429
0.0501069
-0.0212186
-0.012562
-0.00611387
0.000615469
-0.0119045
-0.00849714
-0.000105076
-0.00873276
-0.00716537
-0.00156167
-0.00495744
-0.00444655
-0.00157641
-2.96231e-06
-0.000777556
-0.00379613
-0.000447073
-0.00983368
2.5396e-05
0.000449139
0.00126809
-0.00171363
0.00136602
-0.00209044
0.00335846
0.00174459
-0.0026602
0.00436461
0.00205374
-0.00198497
0.00370613
0.00174757
0.0026632
0.00070393
0.00451949
0.00262731
-0.00106542
0.00472438
0.00383147
-0.000406009
0.00458172
0.00491212
-0.000485904
0.00482538
-0.000754791
-0.00639325
0.010861
-0.00419941
-0.00621433
0.0108855
-0.00626399
-0.00534181
0.0100411
-0.00718763
0.00900196
-0.00779092
0.0065739
0.0118592
-0.00566886
0.00800377
0.0135836
-0.00507112
0.00819614
0.0151031
-0.00451652
0.0149094
-0.00312423
-0.00920333
0.0168486
-0.00133337
-0.00932104
0.0178545
-0.00273981
-0.00965834
0.0177522
-0.00393567
0.0104692
-0.00401089
0.0128595
-0.000417414
0.0102336
-0.00167396
0.00750062
0.0232707
-0.00289892
0.00735922
0.01829
-0.000384217
0.0172832
0.000732063
-0.00885095
0.0484336
-0.0251744
-0.00520155
0.0421143
-0.0276183
0.0449629
-0.0282672
0.0294001
0.117584
-0.0575279
0.127412
-0.0450185
0.0507781
0.134858
-0.0386757
-0.0205951
0.0554075
0.134764
-0.0149314
0.0520102
0.130009
-0.00596787
0.115199
-0.00131496
-0.0502029
0.119669
0.0052048
-0.0559356
0.134997
-0.000338037
-0.0534748
0.140705
-0.0094848
-0.0448278
-0.0146307
0.139821
-0.128146
-0.0233248
0.133564
-0.0293262
-0.0128228
-0.0511672
-0.114294
0.0286014
0.119293
-0.106021
-0.0668049
0.118366
-0.0383674
-0.0495188
-0.0680891
-0.00477984
0.0138705
-0.0135265
-0.0193243
-0.0195412
-0.00996981
-0.00602139
-0.0131162
-0.00290107
-0.0140032
-0.00407101
0.00257567
-0.0143757
-0.00818611
0.00317379
-0.0127365
-0.0106206
0.00253048
-0.0097927
-0.0145098
0.00285935
-0.0107512
0.0011441
-0.0137559
0.0160395
-0.0137429
0.000611891
-0.00949548
-7.10981e-05
-0.0153514
0.0144627
-0.00158087
-0.0167476
0.0116448
-0.00271393
-0.0180273
0.00965445
-0.001459
0.0149413
-0.0254453
0.0110771
0.0251951
0.0187106
0.0207147
-0.0498154
0.0188443
0.0161625
0.0178183
-0.0277615
0.0305517
0.016046
0.0191618
-0.0470508
0.0213543
0.013424
-0.0227437
0.0183887
0.0392611
-0.0422037
0.00893151
0.0152647
0.0200968
0.0463205
-0.0101038
-0.0171538
0.0253841
0.0300845
-0.0202302
-0.01527
-0.0172137
-0.0205841
0.00991786
-0.0182435
0.00381231
-0.0127828
-0.0179276
0.00436849
-0.0172173
-0.0122972
0.00330328
-0.0161069
-0.0141102
0.00228067
-0.0167806
0.00209649
-0.0176458
-0.0170573
0.0174363
0.000369541
-0.0162686
-0.000775475
-0.0183692
0.015626
-0.00199282
0.0129981
-0.00309216
0.0175478
0.0143175
-0.00279178
0.0174178
-0.00141005
0.0164815
0.0182277
-0.0170276
-0.000369061
0.0183718
0.0013288
-0.0151228
0.00285345
-0.0154832
0.00100425
0.0174875
-0.0153996
-0.0012055
0.0144696
-0.00214881
-0.00752689
-0.0160091
0.0235727
0.0168562
-0.0014995
-0.0143632
-0.0171234
-0.0261754
-0.0242396
-0.00259979
-0.105174
0.10372
0.00754616
0.00121757
0.0182301
0.0127058
0.0238972
0.0146853
-0.0202441
0.0176423
-0.00845508
0.0179535
-0.0122398
-0.00476979
0.00235786
-0.000510681
-0.00554694
0.00484525
-0.00582314
-0.00170504
-0.00210446
-0.00217316
-0.00378754
0.0131511
-0.000990298
-0.00316015
-0.00140181
-0.00338
0.0163605
-0.0200542
-0.0115597
0.0154572
0.0068786
-0.0116034
0.0175732
0.00910522
-0.0132659
0.0201782
0.00892508
-0.0142006
0.0229188
0.0089078
0.0301185
0.0119858
0.00988523
0.013445
0.0124856
0.00948153
0.0132387
0.00990454
0.00784936
0.0118979
0.00974158
0.00607642
0.0107887
0.0084033
0.00999408
0.00699075
-0.00219919
0.00341717
-0.00261091
0.0041554
-0.00327616
0.0047513
-0.0039122
0.00539435
0.006503
0.0016603
0.00289723
0.00142278
0.000512863
0.000410826
0.00139127
-0.000144256
0.00198235
-0.00154532
-2.9164e-05
-0.000929939
0.0019468
0.000962059
-0.000331982
0.000790515
-0.000431921
0.00182613
-0.0011132
0.00121374
-0.000535571
0.000311939
-4.83078e-06
0.00202042
-0.00174128
2.95024e-05
0.00378851
-0.000558765
-0.00358659
0.0111342
-0.00637176
0.00358419
-0.017992
0.00334584
0.0170376
0.00389273
-0.0181054
0.0204074
0.00713574
0.00294131
0.00676264
-0.017051
0.0208238
0.000294875
0.00596128
0.0197717
-0.0148299
-0.0136205
0.0141739
0.0050381
0.0109719
-0.00738976
0.0171919
-0.0076592
0.0172621
0.0109094
-0.000413029
0.0199625
0.00717276
0.00333914
-0.00114767
0.00152975
-0.00351315
0.000376731
-0.00228939
0.0125849
0.00135541
-0.00233388
0.000792227
0.000618098
-0.000776493
0.00151197
-0.000567396
0.00156053
-0.000391618
-0.00124413
0.00106707
-0.0020688
0.000899212
-0.000211677
-0.00022613
-0.00163248
-0.000456335
-0.00209122
0.000247674
-0.00185367
0.00139928
-0.00137914
0.000392052
0.000111638
-0.00188409
0.000169729
-0.00141158
-0.000661141
-0.00126228
-0.00240503
0.00114996
0.00124205
0.000231193
0.000477826
-0.00129409
0.000446577
-0.00168323
-0.000479807
0.000534304
0.000390563
0.000108536
6.96622e-05
-0.000659357
0.00104405
0.000304807
0.000314038
-0.000887567
-0.00161208
0.00281028
-0.000775093
0.000275436
0.000178031
-0.000885869
-0.00113219
0.00380002
0.00137599
-0.000358968
-0.00302226
0.0122574
-0.00264021
-0.00129091
-0.00174655
1.11352e-05
-0.000829081
0.000260526
-0.000725286
0.000328362
-4.0843e-05
-0.00111897
-4.53236e-05
0.00188021
-0.000306442
-0.00162241
-0.00131945
0.00320647
-0.000893076
-0.000168987
-0.0012429
0.00111603
0.00203952
0.000342609
0.000323494
0.00091966
-0.000129693
0.00191264
-0.00141989
-0.000172609
-0.00136801
0.0031921
8.41873e-05
-0.000651265
0.000199734
0.00285555
-0.00404999
0.0132875
-0.00112645
-0.0180359
0.000740091
0.00704843
0.0245189
-0.0164783
0.0218772
0.00640786
-0.0177591
0.0225643
-0.00210874
-0.0148796
-0.00439826
-0.0206682
-0.0218388
-0.00632234
-0.0218705
-0.00573878
0.0151483
-0.00259452
0.0197654
0.0317534
0.0374171
-0.023611
-0.100997
0.0665343
-0.0966678
0.0700372
-0.107734
0.0712587
-0.0171098
-0.109979
0.06869
-0.0248557
-0.106533
0.0674578
-0.0296508
-0.0980739
0.0663101
-0.0331795
-0.0860083
0.0636608
-0.0357871
-0.0686301
0.0577314
-0.0379339
-0.0489025
0.0533644
-0.0376727
-0.0388223
0.0427145
-0.0317632
0.00389814
-0.0298849
0.0162725
0.0324281
-0.04547
0.0141915
0.0445137
-0.0431003
-0.00720471
0.0475456
-0.0265607
-0.0342989
0.0266554
-0.0510408
-0.0128662
0.029141
-0.0596874
-0.024497
0.0326407
-0.0619901
-0.0310423
0.0328186
-0.0555687
-0.0382811
0.0313334
-0.0475254
-0.0353751
0.026829
-0.0301367
-0.0336338
0.0157778
0.00333512
-0.0339106
0.0202643
0.0443656
-0.0619316
0.0429727
0.0554276
-0.0789022
0.0682006
0.0547096
-0.0807575
0.088232
0.052258
-0.073114
0.0994514
0.047665
-0.0597411
0.100533
0.0399528
-0.0418571
0.0952632
0.0340105
-0.0295508
0.0835721
0.0306364
-0.0196656
0.0471317
0.037677
-0.00181016
0.0226711
0.0229415
0.00132273
0.01946
0.00390654
-0.000800285
0.0180749
0.000488988
0.000793341
0.0149397
0.000140263
0.00288455
0.00866969
1.63192e-05
0.00615478
0.00912494
-0.000542882
0.00723049
0.00340528
-0.00158147
0.00462248
0.00388462
-0.00132372
0.00483047
0.00167013
-0.00194094
0.00581912
0.00186267
-0.00293018
0.00555705
0.00304543
-0.00286118
0.00444789
0.0033311
-0.00229151
0.00348839
0.00271053
-0.00180564
0.00572065
0.00165931
-0.0039686
0.0122815
0.00167846
-0.00845783
-0.0152451
0.0309527
-0.0040441
-0.0452714
0.0252256
0.00404155
-0.0599808
0.0115938
0.00228157
-0.0652419
-0.000203947
0.00459209
-0.0696508
-0.0150241
0.0185285
-0.0748231
-0.0303617
0.0346118
-0.0759553
-0.0452065
0.0454017
-0.0731243
-0.0587296
0.0549535
-0.0628966
-0.0709848
0.059805
-0.0450179
-0.0808908
0.0620548
-0.0173619
-0.0874844
0.058865
0.0167238
-0.0836831
0.0486367
0.0321901
-0.058183
0.0417553
0.0311758
-0.044741
0.0448329
0.0235167
-0.0351518
0.0419074
0.00948715
-0.026113
0.0393154
-0.00084589
-0.0231536
0.0326848
-0.0348021
0.0332069
-0.0502629
-0.0193831
0.034046
-0.0574251
-0.0341603
0.0405118
-0.0578381
-0.0490156
0.0485539
-0.0493371
-0.064092
0.0547158
-0.0254192
-0.0817368
0.0569201
0.00469723
-0.0832664
0.0522739
0.00997788
-0.0472891
0.0411431
-0.00769769
-0.0264988
0.0433644
-0.0210306
-0.0283087
0.0408558
-0.00475329
-0.0604085
0.0433929
-0.0522636
0.0430575
-0.0149652
-0.0689802
0.00166211
0.0185942
-0.0547567
-0.040096
0.0286234
-0.0392407
2.72568e-05
0.0321744
-0.0477808
0.0168369
0.0304606
-0.0777203
0.0312208
0.0410668
-0.126608
0.0317966
0.0543913
-0.123395
0.0273887
0.0569943
-0.0961091
0.0284829
0.0519992
-0.0725763
0.02765
0.0414324
-0.0515824
0.0271289
-0.0299742
0.0280471
-0.0367318
-0.0471975
0.0269711
-0.0387956
-0.0568335
0.0228162
-0.0332768
-0.0679737
0.0167435
-0.00499027
-0.0839003
-0.00356719
0.0354615
-0.119222
-0.00591829
0.0611804
-0.125103
0.0108939
0.0762269
-0.118488
0.0215497
0.0833965
-0.104175
0.0250247
0.0826506
-0.0858802
0.0269066
0.0785664
-0.0654358
0.023331
0.0707617
-0.0440216
0.0204928
0.0641588
-0.0223071
0.0129277
0.0570666
-0.000869733
0.00681644
0.0432413
0.0160075
0.00848503
0.017924
0.0352484
0.0143782
-0.00960109
-0.000725288
0.0470779
0.0111393
0.00821523
-0.00361074
-0.00876514
-0.00559433
0.0147351
-0.0031944
-0.00418729
0.0104223
-0.00275535
0.00856556
-0.00162567
0.0133837
-0.00113798
-0.00298038
0.00105564
-0.00669698
0.0270108
0.00191906
-0.00894976
-0.00773361
-0.00159923
0.00144823
-0.00798123
-0.00392109
0.0013382
-0.00669992
-0.0050678
0.000509739
-0.0049657
-0.00570661
0.000280218
0.00230939
-0.00406581
-0.000553006
0.00502979
-0.00108439
-0.00210912
-0.000314276
-0.000464057
-0.00133472
-0.000749334
-0.000651369
-0.000563696
-0.000592388
0.000404184
-0.00111504
-0.00344593
0.0131708
-0.00544414
-0.0119279
0.00297331
0.0224222
-0.00783814
-0.0100426
0.0614799
-0.0311063
-0.0293393
0.0163613
0.0578958
-0.0221489
0.0288668
0.0402168
-0.0159408
0.03498
0.000659047
-0.00681466