/*--------------------------------*- C++ -*----------------------------------*\
| =========                 |                                                 |
| \\      /  F ield         | OpenFOAM: The Open Source CFD Toolbox           |
|  \\    /   O peration     | Version:  v2012                                 |
|   \\  /    A nd           | Website:  www.openfoam.com                      |
|    \\/     M anipulation  |                                                 |
\*---------------------------------------------------------------------------*/
FoamFile
{
    version     2.0;
    format      ascii;
    class       volScalarField;
    location    "960";
    object      nut;
}
// * * * * * * * * * * * * * * * * * * * * * * * * * * * * * * * * * * * * * //

dimensions      [0 2 -1 0 0 0 0];


internalField   nonuniform List<scalar> 
18258
(
0.00419459
0.00182629
0.00149775
0.00129822
0.000858344
0.00140491
0.00195096
0.00232196
0.00243574
0.0024143
0.00249915
0.00421673
0.00591712
0.00731169
0.00768021
0.0076683
0.00695979
0.00664552
0.00721962
0.00887468
0.00745952
0.00478045
0.00572224
0.00661961
0.00721367
0.00639309
0.00516921
0.00478587
0.00433387
0.00361351
0.00303214
0.00207639
0.00151703
0.00140558
0.0012747
0.00145339
0.00158325
0.00168877
0.00172631
0.00175341
0.0017414
0.00173139
0.00168449
0.00165494
0.00160477
0.00132556
0.00159275
0.00165608
0.00181113
0.00249559
0.00267789
0.00225127
0.00249077
0.00222228
0.00146516
0.00167758
0.00182115
0.00186032
0.00183633
0.00176005
0.0017343
0.00171249
0.00168488
0.00165211
0.00163213
0.00164845
0.00166549
0.00164733
0.00156631
0.00150063
0.00139438
0.00128786
0.00120887
0.00114766
0.0011015
0.00105039
0.000992964
0.000872191
0.000808309
0.00107024
0.0013435
0.00143534
0.00203423
0.00248003
0.00249668
0.00186894
0.00133194
0.0013823
0.00153692
0.00155269
0.00131622
0.00156511
0.00177316
0.00183786
0.00191524
0.00214047
0.00243571
0.00237418
0.00211437
0.00194784
0.00191896
0.0021965
0.00208604
0.00270485
0.00272644
0.00238033
0.00218566
0.00245992
0.00317182
0.00341362
0.00265577
0.00249396
0.00244468
0.00241394
0.00218298
0.0022588
0.00205096
0.00184799
0.00201293
0.00243314
0.00230819
0.00252159
0.00261259
0.00245072
0.00283938
0.00327384
0.00322618
0.00258174
0.00210459
0.00196183
0.00197678
0.00120902
0.00130557
0.00140704
0.00144148
0.00146551
0.00148598
0.00158452
0.00158095
0.00155783
0.00155439
0.00158224
0.000871811
0.000944444
0.000967866
0.00097463
0.000925735
0.000916238
0.000899203
0.000885322
0.000834694
0.000798668
0.000955704
0.00107319
0.00116898
0.00128094
0.00144811
0.00165264
0.00186753
0.00208465
0.00222828
0.00226929
0.00231067
0.0022272
0.00214304
0.00221962
0.00223263
0.00221836
0.0021887
0.0021512
0.00210052
0.0020075
0.00211559
0.00210991
0.00198228
0.00169867
0.00173686
0.00173395
0.00177911
0.00176984
0.00178753
0.00176195
0.00173185
0.00164824
0.00153145
0.00127473
0.00124902
0.00126404
0.00162228
0.00196884
0.00304048
0.00370698
0.00430117
0.00460032
0.00492034
0.00398402
0.0044355
0.00342123
0.00307097
0.00390221
0.00510437
0.00291257
0.00159191
0.00301861
0.00267962
0.00194577
0.00173197
0.00178495
0.0017836
0.00204154
0.00235457
0.0026159
0.00274285
0.00285435
0.00294358
0.0030416
0.00316557
0.00319944
0.00309054
0.00261532
0.00315235
0.00256155
0.00299252
0.00270687
0.00183212
0.00189772
0.00202547
0.00185885
0.00180998
0.00173095
0.00156253
0.0019389
0.00251001
0.00291231
0.00332955
0.00443914
0.00410685
0.00394
0.0030503
0.00294989
0.0015314
0.00218484
0.00226335
0.00254949
0.00169402
0.00154681
0.00146864
0.0019379
0.00224496
0.00264967
0.00294016
0.003492
0.00270937
0.00309453
0.00280125
0.00195465
0.00187841
0.00268785
0.00289453
0.00238024
0.00212501
0.0026674
0.00252564
0.00179256
0.0014274
0.00219436
0.00227002
0.00163235
0.00408121
0.0043551
0.00415308
0.00505683
0.00632826
0.00721046
0.00672505
0.00596111
0.00664632
0.00527519
0.00512019
0.00546965
0.0045886
0.00319953
0.00327969
0.0033906
0.00348104
0.00373647
0.00396879
0.00425305
0.00452481
0.00411431
0.00341791
0.00258745
0.00178055
0.00175689
0.00174829
0.00156985
0.00232639
0.00351878
0.00349426
0.00198536
0.00115765
0.00130977
0.00147911
0.00146466
0.00106266
0.000799955
0.00137808
0.0015755
0.00160084
0.00156102
0.00147379
0.00154003
0.00247318
0.00381013
0.00418649
0.00433603
0.00447753
0.00457745
0.004633
0.00465053
0.00466023
0.00467218
0.00468271
0.00469885
0.00468439
0.00458478
0.00403287
0.00253585
0.00148252
0.00137729
0.00152008
0.0016337
0.00173295
0.00147474
0.000901635
0.00144004
0.00184394
0.00211909
0.00213705
0.00199429
0.00193445
0.00305019
0.00405546
0.0047801
0.00492671
0.00499186
0.00493684
0.00492952
0.00482175
0.00478813
0.00419876
0.00300512
0.00328547
0.00352784
0.00356863
0.00365144
0.00377582
0.00368878
0.00348522
0.00509108
0.00587528
0.0059509
0.0060776
0.00600561
0.00590185
0.00563374
0.00532736
0.00448481
0.00336316
0.00212198
0.00216621
0.00230598
0.00228376
0.00198796
0.00209452
0.00227334
0.0022961
0.00237114
0.0026593
0.00302033
0.00288079
0.00247867
0.00210554
0.00196047
0.00191943
0.00184161
0.00137951
0.0014001
0.0013609
0.00138331
0.00185787
0.00221126
0.00255017
0.00361765
0.003227
0.00262437
0.00416262
0.00426547
0.00458337
0.00506291
0.00518822
0.00574905
0.00400031
0.0036047
0.00370322
0.00302527
0.00280016
0.00283004
0.00284071
0.00264738
0.00289782
0.00287237
0.00276857
0.00305667
0.00336833
0.00444169
0.00538228
0.00567903
0.00585056
0.00592091
0.00589896
0.0057842
0.00582045
0.00511252
0.0051078
0.00489145
0.0047505
0.00470016
0.00446663
0.00511222
0.00530768
0.0053731
0.00550747
0.0057167
0.00556171
0.00538853
0.00525673
0.00516113
0.00506112
0.00511496
0.00521042
0.00531221
0.00545505
0.00564583
0.00567742
0.0054798
0.00533036
0.00522803
0.00513187
0.00513591
0.00522169
0.00532164
0.00546328
0.00564405
0.00554395
0.00540338
0.00527813
0.00517533
0.00508478
0.00490702
0.00502584
0.0051565
0.00526423
0.0053342
0.00460875
0.00492603
0.00484095
0.00438252
0.00410148
0.00311476
0.00337095
0.00355492
0.00387201
0.00429822
0.00438214
0.00367754
0.00315153
0.00307102
0.00304622
0.003118
0.00314383
0.00315908
0.00356961
0.00538084
0.00541717
0.00543262
0.00543507
0.00464665
0.00451467
0.00420569
0.0076933
0.00716254
0.0062057
0.00511355
0.00273966
0.00234847
0.00278182
0.00338279
0.00378214
0.00417319
0.00277088
0.00171629
0.00200031
0.00207374
0.00202256
0.00186928
0.00155738
0.00143762
0.00130469
0.00140404
0.00248669
0.00396828
0.00446972
0.00451703
0.00447205
0.00438478
0.00427856
0.00413066
0.00408156
0.0051549
0.00698834
0.00786459
0.00783028
0.00672728
0.00548947
0.00309988
0.00160285
0.00118932
0.00126325
0.00138883
0.00162853
0.00144844
0.00123532
0.00135224
0.00127576
0.00257975
0.00444414
0.00564531
0.00670485
0.00660423
0.00574816
0.00468667
0.00443431
0.00453795
0.00460845
0.00466827
0.00472962
0.00477175
0.00474536
0.00431943
0.00266869
0.00159309
0.00141534
0.00152172
0.00178355
0.0018954
0.00191503
0.00188857
0.00163724
0.00270791
0.00429902
0.00273437
0.00149197
0.00161198
0.00160009
0.00282238
0.00281807
0.00275741
0.0042896
0.00453576
0.00452494
0.00425206
0.00405899
0.00240355
0.00272847
0.00273776
0.00275214
0.00279714
0.00141339
0.00154081
0.00158907
0.00171131
0.00149563
0.00189801
0.000491175
0.000681373
0.000791402
0.000860617
0.000927233
0.00090953
0.00174064
0.0017666
0.00168584
0.00164176
0.00208284
0.00223472
0.00228373
0.00210312
0.00194043
0.00206568
0.00207044
0.00195153
0.00184836
0.00191615
0.00191734
0.00183737
0.00156277
0.00146437
0.00160761
0.00159045
0.00157794
0.00283285
0.00282764
0.00267615
0.00439597
0.00432588
0.00484459
0.00481305
0.00480704
0.00478727
0.00483846
0.00486553
0.00488611
0.00490999
0.00490044
0.00485328
0.00675233
0.00477371
0.00416586
0.00240965
0.00232135
0.00163964
0.001437
0.00169212
0.00180981
0.00196213
0.00191784
0.00202156
0.00201916
0.00214249
0.00198844
0.00176547
0.00270387
0.00288839
0.00282087
0.00287651
0.00280873
0.00279209
0.00277166
0.00273248
0.00268521
0.00159907
0.00156874
0.00183704
0.00192841
0.00207215
0.00209078
0.00213622
0.0020258
0.00178149
0.00172438
0.0019861
0.00195922
0.00199753
0.00188324
0.00187525
0.00167043
0.00171281
0.00345367
0.00637528
0.00328167
0.00364538
0.00330287
0.00375653
0.00329055
0.00283791
0.00290467
0.00255846
0.00266889
0.0027995
0.00285018
0.00299565
0.00353118
0.00339973
0.00298424
0.00289757
0.00284048
0.00267828
0.00241075
0.0025253
0.00254798
0.00260269
0.0028926
0.00331856
0.00371968
0.00452075
0.00438698
0.00384281
0.00351365
0.00368505
0.00374884
0.00471946
0.00440918
0.00438281
0.00462326
0.00457721
0.00434401
0.00411583
0.00397268
0.00341056
0.00346637
0.00396664
0.00383862
0.0039562
0.00388706
0.00404153
0.00411511
0.00394939
0.00367033
0.00385958
0.00385181
0.00427718
0.00415921
0.00385857
0.00352889
0.0037735
0.00372838
0.00430642
0.00405296
0.00379043
0.00348992
0.00334347
0.00379457
0.0037247
0.00422305
0.00434611
0.00434821
0.00379107
0.00370233
0.00440271
0.00423533
0.0040922
0.00426277
0.00353054
0.00363023
0.00447205
0.00456561
0.00433229
0.00361747
0.00367173
0.00314753
0.00370232
0.00460824
0.00435284
0.00356788
0.00296084
0.0041419
0.00435685
0.00460886
0.00435553
0.00474278
0.00510851
0.0041645
0.00453027
0.00591903
0.00451881
0.00524335
0.0053592
0.00539047
0.00539299
0.00541358
0.00544036
0.00573132
0.00557464
0.0035456
0.00423901
0.00411808
0.00344583
0.00293247
0.00322942
0.00347824
0.00352868
0.00361833
0.00375617
0.00369156
0.00356938
0.00522353
0.00595717
0.00609013
0.00621134
0.00610839
0.00595403
0.00560348
0.00517857
0.0043067
0.00321389
0.00200815
0.00204836
0.00218433
0.00216517
0.00187997
0.00141788
0.000931394
0.00137981
0.00142468
0.00134105
0.00122234
0.00107975
0.00111784
0.00203606
0.00378252
0.00539489
0.00601274
0.00652188
0.00702499
0.00746346
0.00779362
0.00803973
0.00821388
0.00832608
0.00835149
0.00819937
0.00749168
0.00716406
0.00675462
0.00641657
0.00594121
0.00555811
0.0062852
0.00689931
0.00727405
0.0076956
0.00788755
0.00780085
0.0067693
0.00657842
0.00758667
0.00934359
0.0079487
0.00998535
0.0117249
0.00913604
0.0082019
0.00818444
0.0091511
0.00933076
0.0090077
0.0085005
0.00791725
0.00717478
0.00755616
0.00789891
0.00822591
0.00852698
0.00930158
0.00943461
0.00935951
0.00920046
0.0089984
0.00873525
0.0083384
0.00778483
0.00709081
0.00636598
0.00554012
0.00383429
0.00189873
0.00213716
0.00210891
0.00219032
0.00217455
0.00102831
0.00113365
0.00114563
0.00115043
0.00108309
0.00123099
0.00178189
0.00286344
0.00206041
0.00169643
0.00118088
0.00138694
0.00231121
0.00391328
0.00440671
0.00449875
0.00496813
0.00636697
0.00692458
0.00730141
0.0076157
0.00779595
0.00770446
0.00747255
0.0070582
0.00654457
0.00632923
0.00597784
0.00565456
0.00547094
0.00528414
0.00495715
0.00390129
0.00373743
0.00389104
0.00384477
0.00368058
0.00393102
0.00407173
0.00406722
0.00411153
0.00415033
0.00427223
0.00441583
0.00454077
0.00460614
0.00463019
0.00463759
0.00464689
0.00465428
0.00466847
0.0046527
0.00455096
0.00399638
0.00249976
0.00145966
0.00134975
0.00147995
0.00156509
0.00160158
0.00142246
0.000915642
0.00142295
0.00184179
0.00188872
0.00207187
0.002137
0.00226443
0.00252176
0.00291411
0.00300711
0.00266888
0.00252843
0.0024751
0.00241223
0.00206709
0.00257538
0.00283712
0.00283118
0.00280365
0.0030297
0.00372776
0.00358154
0.00315871
0.00312425
0.00309321
0.00280028
0.00275719
0.00300946
0.00304228
0.00315526
0.00369944
0.00443572
0.00411554
0.00374873
0.00359447
0.00331978
0.00292366
0.00264372
0.0032483
0.0026627
0.00140829
0.00120011
0.00119441
0.00120033
0.00115933
0.00137197
0.00144111
0.00145738
0.00135206
0.00150124
0.00167147
0.00161784
0.00183767
0.00181215
0.00162062
0.00160741
0.00173695
0.00183197
0.00188094
0.00193603
0.00316095
0.00326173
0.00252413
0.00364355
0.00420758
0.00417692
0.00442553
0.00364291
0.00326111
0.00386954
0.00447439
0.00513701
0.0040617
0.00383768
0.00392972
0.00180802
0.000951258
0.00134208
0.0016658
0.00185494
0.00179843
0.00169861
0.00143579
0.00254274
0.00261273
0.00413566
0.004639
0.00469544
0.00466827
0.00482901
0.00534639
0.00624615
0.00684337
0.00701666
0.0069125
0.00662657
0.00609672
0.00557267
0.00551908
0.005317
0.00516114
0.00510792
0.00443975
0.00391783
0.00418368
0.00411726
0.00425448
0.00431772
0.00436323
0.00440973
0.00448817
0.00458287
0.00466862
0.00472681
0.00476531
0.00479783
0.00483136
0.00486527
0.00490207
0.00492164
0.00487454
0.00440537
0.0026443
0.00157752
0.00143947
0.00153597
0.00180514
0.00190052
0.0020427
0.00181457
0.000955815
0.001124
0.00195316
0.00216416
0.00200193
0.0018737
0.00184047
0.0015418
0.00279034
0.00275349
0.00431797
0.00485559
0.00492319
0.00490952
0.00487158
0.00482904
0.00478979
0.00475772
0.00473246
0.00470545
0.0046662
0.00461824
0.00457274
0.00452671
0.00444776
0.00433271
0.00421993
0.00439751
0.00452396
0.00470249
0.00491735
0.00503726
0.00495131
0.00480682
0.00472963
0.00474787
0.0047867
0.00482817
0.00486559
0.0048834
0.00483028
0.00455367
0.00427509
0.00270997
0.00274496
0.00135286
0.00150293
0.00173414
0.00179099
0.00194545
0.00193716
0.00152399
0.00118703
0.00133866
0.00125063
0.00223319
0.00245521
0.00272173
0.00269453
0.00146508
0.00150243
0.0015615
0.00176215
0.00163873
0.00158304
0.00388824
0.00372991
0.00390669
0.00479326
0.00413043
0.00285492
0.00312972
0.00435381
0.00459001
0.00277697
0.0020827
0.00231039
0.00292695
0.00430741
0.00435989
0.00414051
0.00411859
0.00301073
0.00370023
0.00444793
0.00432601
0.00337849
0.00232857
0.00173213
0.000843813
0.00160532
0.00137301
0.00335883
0.00371613
0.00367107
0.00401421
0.00426574
0.00430968
0.00418687
0.00371557
0.003789
0.00382612
0.00435771
0.00437615
0.00370763
0.00312938
0.00254387
0.0025661
0.00261528
0.00289776
0.00362823
0.00341864
0.00299666
0.00290628
0.00284407
0.00267579
0.00241499
0.00211913
0.00213347
0.00198553
0.00192137
0.00302846
0.0040309
0.00475297
0.00488964
0.00493927
0.00486372
0.00482968
0.00469198
0.00462096
0.00401478
0.00512456
0.00541614
0.00522605
0.00526434
0.00529686
0.00533685
0.0053372
0.00523666
0.00450114
0.00268862
0.00175643
0.00198271
0.00214032
0.0020101
0.00199852
0.00212978
0.00202062
0.00177472
0.0028751
0.00280985
0.00449185
0.00508562
0.00519466
0.00520127
0.0051804
0.00516306
0.00516958
0.00544152
0.00531694
0.00538782
0.00567621
0.00568731
0.00575608
0.00540418
0.00533541
0.00529158
0.00526235
0.00521471
0.00508702
0.0045021
0.00436432
0.00495575
0.00510817
0.00517579
0.00522283
0.00527919
0.00535336
0.00556637
0.00572462
0.00578277
0.00554467
0.00545879
0.00533228
0.00515184
0.00510963
0.00510124
0.00509765
0.00507315
0.0049417
0.0043509
0.00279807
0.00286727
0.00170595
0.00171724
0.00197809
0.00207797
0.00204116
0.00189037
0.00184319
0.00316375
0.00360115
0.00383245
0.00412628
0.00394052
0.0039179
0.00447918
0.00433492
0.00386841
0.0040237
0.0036067
0.00343839
0.00332116
0.00333814
0.00176202
0.00190114
0.00198274
0.00194952
0.00186413
0.00166246
0.00152449
0.00278158
0.00276128
0.00272507
0.00162118
0.00158583
0.00186843
0.00181477
0.00166035
0.00141524
0.00155126
0.00239384
0.00267711
0.00415019
0.00429834
0.00460149
0.00492038
0.00504096
0.00507316
0.0050921
0.00511415
0.00516182
0.00521902
0.00523542
0.00523518
0.00528569
0.00527829
0.00527848
0.00524922
0.00521608
0.00517789
0.00513743
0.00507156
0.00493645
0.00461306
0.00429596
0.00484343
0.00488796
0.00497917
0.00507384
0.00511482
0.0051224
0.00510557
0.00507057
0.00502905
0.00497998
0.00497811
0.00510964
0.00513991
0.00516264
0.00514612
0.00512894
0.00512405
0.00510333
0.00506839
0.00497546
0.00488183
0.00484156
0.00476093
0.00488829
0.00494456
0.00495306
0.00500064
0.00507667
0.00509614
0.00509273
0.00505391
0.00502241
0.00498378
0.00492064
0.00483949
0.00456323
0.00462232
0.00469843
0.0047977
0.00489375
0.00497131
0.00501444
0.0050162
0.00496919
0.00493774
0.00493872
0.00489718
0.00491909
0.00494163
0.00491723
0.00491549
0.00492094
0.00486738
0.0047678
0.00462855
0.0044808
0.00435768
0.00429308
0.00418819
0.00451413
0.00463765
0.00474797
0.00484623
0.00493647
0.00502889
0.00506051
0.00505396
0.0049982
0.00496653
0.00496517
0.00491743
0.00491541
0.00496159
0.00496351
0.00499002
0.00503898
0.00502144
0.00495113
0.00477854
0.00461219
0.00446881
0.00433278
0.00418676
0.00414253
0.00421028
0.00415756
0.00421977
0.00436801
0.0045519
0.00470978
0.00480874
0.0048387
0.00486707
0.00491015
0.00490467
0.00487864
0.00486528
0.00480706
0.00475685
0.00469484
0.00455654
0.0043781
0.00421897
0.00416535
0.00424807
0.00433344
0.00425464
0.00395503
0.00411058
0.00425427
0.00439824
0.00460476
0.00484498
0.00495407
0.00499316
0.00497051
0.00495264
0.00495039
0.0049067
0.00489172
0.0049318
0.00493446
0.00495236
0.00498251
0.00494638
0.00485473
0.00455866
0.00421314
0.00404918
0.00395413
0.00381806
0.00427524
0.00436485
0.00425603
0.00418332
0.00429716
0.00443126
0.00457064
0.00466278
0.00469825
0.00474779
0.00481322
0.00484398
0.0047967
0.00474271
0.00467558
0.00464093
0.00463953
0.00461386
0.00452279
0.00441833
0.00430085
0.0044466
0.00453269
0.00445061
0.00402525
0.00409165
0.00418216
0.00422937
0.00455209
0.00484536
0.00492128
0.00493161
0.004904
0.00488639
0.00488828
0.00486339
0.00481607
0.00480629
0.00479967
0.00485257
0.00492137
0.00495107
0.00496316
0.00474206
0.00436015
0.00431052
0.00414046
0.00405709
0.00450999
0.00456335
0.0044582
0.00436052
0.00456708
0.00465613
0.00468299
0.00466677
0.00461944
0.00458734
0.00464524
0.0047364
0.00466622
0.00436493
0.00409623
0.00423421
0.00426685
0.00425441
0.00419551
0.00409924
0.00389323
0.00434699
0.0047906
0.00482653
0.0043482
0.00435533
0.00421009
0.00390413
0.00427362
0.00447948
0.00452906
0.00452
0.00445733
0.00429236
0.00453721
0.00475175
0.00471172
0.00426349
0.00276666
0.00280543
0.00282682
0.00283059
0.00279361
0.00278359
0.00274338
0.00272291
0.00266034
0.00259708
0.00253608
0.00270533
0.00284969
0.00304383
0.00305983
0.00314004
0.00300845
0.00285048
0.00266399
0.00207259
0.00263031
0.00313857
0.00333396
0.00358558
0.00363818
0.00419421
0.0044124
0.00453228
0.00444788
0.00356772
0.00302686
0.00241901
0.00157313
0.000980221
0.00115097
0.00119754
0.00126413
0.00155269
0.00282633
0.00144712
0.00199888
0.001563
0.00268072
0.00143939
0.000898236
0.000595957
0.000762833
0.00090833
0.000918604
0.000878973
0.000731815
0.000573844
0.000586451
0.000545907
0.000579762
0.000520117
0.000595428
0.0005542
0.000764008
0.00112113
0.00130114
0.00133301
0.0010788
0.00121955
0.00101916
0.00117711
0.00105223
0.0011474
0.00110111
0.00134658
0.0014758
0.00141247
0.00141581
0.00123892
0.000866571
0.00100468
0.00078949
0.000948247
0.000725752
0.000936969
0.000803547
0.00104421
0.00107641
0.00107325
0.00103327
0.000789275
0.000935404
0.000736778
0.000909001
0.000748437
0.000803103
0.000669293
0.000974212
0.00099304
0.000914361
0.000976398
0.00109804
0.00117652
0.00128978
0.00121467
0.00137803
0.00132548
0.0013366
0.00126638
0.00123214
0.00120434
0.00120716
0.00118736
0.0011937
0.00123189
0.00123328
0.0012377
0.00127603
0.00125713
0.00122594
0.00120684
0.00107242
0.000866044
0.00150874
0.00155574
0.00157971
0.00157995
0.00154556
0.00152714
0.00147209
0.00145778
0.00141072
0.00138442
0.00132189
0.00127206
0.00121414
0.00136469
0.00076426
0.000867812
0.000916034
0.000943735
0.000962353
0.000971165
0.000977684
0.00097202
0.000959626
0.000936491
0.000929218
0.00090379
0.00115564
0.0013145
0.00137524
0.00139213
0.00130506
0.0012434
0.00272904
0.00330486
0.00501294
0.005123
0.00385164
0.00383794
0.00132479
0.0014014
0.000957429
0.00134552
0.00138766
0.00137357
0.00129738
0.000935659
0.0014044
0.000979496
0.00131728
0.000992894
0.00122172
0.00102304
0.00146545
0.00187225
0.00181058
0.00164126
0.00113405
0.000945375
0.000952928
0.000812677
0.000890653
0.000723718
0.000880501
0.000736264
0.00107415
0.00150091
0.00168317
0.00171822
0.00135552
0.00187155
0.00140763
0.00204031
0.00162321
0.0020048
0.00161024
0.00186143
0.00230358
0.00231437
0.00225955
0.00182123
0.00145808
0.00163737
0.00145006
0.00167113
0.00241624
0.00158334
0.00240836
0.000994365
0.00135591
0.00139803
0.00137918
0.0013006
0.000876041
0.00222856
0.00117941
0.00209302
0.00135536
0.00216618
0.0015819
0.00210827
0.00252247
0.00264401
0.00263797
0.002153
0.00194805
0.00202571
0.00161894
0.00194457
0.00144096
0.00208673
0.00117473
0.0015202
0.00167233
0.00176276
0.00176788
0.00145002
0.00286775
0.00180223
0.00272069
0.00189428
0.00242785
0.00194657
0.00212695
0.00251258
0.00249651
0.00247497
0.00209852
0.00169939
0.00224409
0.00159923
0.0480575
0.110688
0.0441771
0.111873
0.050591
0.0718218
0.0707401
0.0708552
0.0711097
0.0533892
0.116521
0.137667
0.143571
0.145349
0.144303
0.233188
0.190208
0.285728
0.185229
0.109144
0.0474404
0.06533
0.168317
0.277729
0.416715
0.528679
0.360284
0.372882
0.237935
0.234556
0.220828
0.178673
0.109628
0.0550053
0.00940577
0.0102916
0.0147302
0.0196227
0.0154194
0.0094162
0.00186199
0.00192058
0.00196287
0.00198875
0.00198064
0.00193728
0.00196687
0.00185622
0.00174308
0.0019455
0.00212092
0.00233214
0.00272905
0.00301072
0.00271123
0.00297122
0.00314915
0.00329369
0.00341266
0.00359015
0.00379034
0.00396695
0.00397685
0.00364449
0.00310623
0.00252786
0.00212631
0.00201512
0.00189269
0.00166923
0.00152738
0.00143114
0.00138406
0.00136441
0.0014019
0.00153176
0.00164401
0.00168328
0.00164977
0.0016194
0.00159291
0.00141832
0.00165818
0.00227452
0.00229294
0.00392835
0.00452655
0.00462055
0.00462685
0.00410288
0.00262129
0.00262696
0.00264038
0.00269053
0.00270097
0.00270742
0.00270444
0.00269431
0.0026785
0.00264888
0.00263429
0.00259181
0.00255621
0.00246797
0.002472
0.00250494
0.00253027
0.00248962
0.00250068
0.00244682
0.00314861
0.00422171
0.00478615
0.00500336
0.00519035
0.00503879
0.00697228
0.00595018
0.00418981
0.00414044
0.00408719
0.00484801
0.00488093
0.00440292
0.00441959
0.00402644
0.00250957
0.00249529
0.00249663
0.00266586
0.00271678
0.00281141
0.00283696
0.00286193
0.0028758
0.00287429
0.00287334
0.00285137
0.00283317
0.00277119
0.00275035
0.00274184
0.00151172
0.00164946
0.00170997
0.0017205
0.00174339
0.00173234
0.00172088
0.00170005
0.00168542
0.00165724
0.0016237
0.00157649
0.00148352
0.00135249
0.00148962
0.0025319
0.00253282
0.00414065
0.0046697
0.00470321
0.00524055
0.00497621
0.00471395
0.00506214
0.00456268
0.00452708
0.00409092
0.00253767
0.0025717
0.00152443
0.00150898
0.0017628
0.00171235
0.00182911
0.00187807
0.00188424
0.00191013
0.00193593
0.00196697
0.00201634
0.00203178
0.00200258
0.00199782
0.00188328
0.0016279
0.00164778
0.001942
0.00203544
0.00188864
0.00185339
0.00183845
0.00179403
0.00175978
0.00172648
0.00174926
0.00188351
0.00188287
0.00185127
0.00176306
0.00171914
0.00149274
0.00144453
0.0025212
0.00254248
0.00417719
0.00431528
0.00429248
0.00493489
0.00549373
0.00625299
0.00533194
0.00432846
0.00446941
0.00510224
0.00378016
0.00312476
0.00185903
0.00142386
0.00172373
0.00166474
0.00173219
0.00179464
0.0015933
0.00170911
0.00157948
0.00143493
0.00142687
0.00142487
0.00146048
0.00147521
0.00150199
0.00150549
0.00154131
0.00153785
0.00154289
0.00156186
0.00157185
0.00173685
0.00188955
0.00158939
0.00134718
0.00131103
0.00123786
0.00117805
0.0012067
0.00117827
0.00117122
0.00114979
0.00113044
0.00107863
0.00112433
0.00119309
0.00139587
0.00133755
0.00108105
0.00096581
0.000660403
0.000672652
0.00067731
0.000698274
0.000705826
0.000715145
0.000718561
0.00073025
0.000732476
0.00073612
0.000735803
0.000753382
0.00075077
0.000742178
0.000736567
0.000740404
0.000743997
0.000743516
0.00108857
0.00121234
0.00132568
0.0015751
0.00185517
0.00159624
0.00135215
0.00116462
0.000748679
0.000760093
0.000774061
0.000781245
0.000797981
0.000813198
0.000830275
0.000841109
0.000849341
0.000857967
0.000867016
0.000870856
0.0008689
0.000852423
0.000842671
0.000864315
0.000949863
0.000999552
0.00106312
0.00108717
0.00110808
0.00111872
0.00111306
0.00112444
0.0011109
0.0011089
0.00108951
0.00108109
0.00107296
0.00106283
0.00105046
0.00102027
0.00101017
0.00106291
0.00179878
0.00235293
0.00271358
0.00299142
0.00275277
0.00222046
0.00234928
0.00411951
0.00389022
0.00230833
0.00214904
0.00197627
0.00171787
0.00152553
0.00184371
0.00210259
0.00229968
0.00247399
0.00263321
0.00274109
0.00287918
0.00305919
0.00337812
0.00341841
0.00311837
0.00252815
0.00214187
0.002002
0.00193478
0.00181666
0.00168765
0.00172986
0.00174231
0.00169041
0.00162592
0.00160741
0.00163381
0.00166696
0.00164683
0.00164609
0.00147045
0.00146998
0.00251159
0.00256012
0.00393783
0.00414875
0.00418855
0.00269335
0.00265629
0.00155166
0.00144094
0.00157189
0.00163161
0.0016349
0.00164137
0.00163276
0.00160407
0.00158307
0.00155861
0.00153888
0.00152164
0.00149186
0.0014353
0.00132576
0.0014453
0.00162073
0.00169169
0.00170971
0.00171822
0.0017452
0.00178968
0.00182537
0.00190795
0.00191676
0.00191607
0.00192293
0.00179765
0.00185405
0.00156926
0.00156716
0.00271586
0.00270876
0.00155633
0.00183766
0.00184991
0.00182824
0.00196809
0.00180104
0.00174389
0.00173421
0.00166086
0.00162181
0.00156982
0.00153894
0.00156959
0.0016704
0.00161835
0.00143407
0.00138423
0.00155183
0.00149143
0.00123725
0.00105688
0.00102755
0.000983461
0.000956709
0.00100263
0.00103841
0.00105881
0.00108474
0.00109243
0.00114009
0.00110939
0.00116442
0.00123481
0.00129079
0.00153119
0.00165926
0.001499
0.00147025
0.00145201
0.00145012
0.00145462
0.0013948
0.00139085
0.00135991
0.0013447
0.00130429
0.0012861
0.001263
0.00126733
0.00128096
0.00140842
0.00363059
0.00462641
0.00481749
0.00822028
0.00332384
0.00339535
0.00665406
0.0027534
0.00413979
0.00443719
0.00463908
0.00484477
0.00443313
0.00562298
0.00392958
0.00437277
0.0045684
0.00402491
0.00149051
0.00166402
0.00193753
0.0017462
0.00154321
0.00105249
0.00113592
0.00117364
0.00120412
0.00122411
0.00124602
0.0012696
0.00129163
0.00130715
0.00130748
0.00126792
0.00122519
0.001127
0.00109426
0.00113667
0.00118049
0.00103715
0.00097661
0.000988245
0.00100465
0.00101391
0.00101597
0.0010261
0.00102888
0.00104481
0.00103645
0.00104456
0.0010268
0.00103607
0.00102233
0.000987315
0.000938342
0.00085495
0.000834437
0.00120178
0.00127966
0.0013444
0.0015253
0.00176103
0.00187904
0.00168418
0.00155303
0.00149076
0.00165385
0.00165373
0.00300074
0.00576129
0.00258139
0.00289314
0.00841697
0.00334912
0.00260827
0.00264784
0.00267571
0.00267938
0.0015573
0.00184444
0.00178837
0.00179522
0.0015225
0.00127815
0.00114648
0.00102513
0.000695067
0.000692715
0.000697946
0.000708565
0.000711857
0.000681477
0.000681399
0.000677523
0.000676003
0.000661702
0.000657713
0.000646101
0.000639057
0.000622323
0.000613244
0.00059725
0.000594236
0.000616833
0.000683489
0.000825406
0.000922364
0.0010463
0.00106643
0.00120737
0.00300812
0.00348429
0.00480047
0.00475412
0.00749867
0.00468446
0.0035388
0.00320241
0.00468497
0.00484044
0.00450454
0.00610292
0.00422236
0.00279072
0.00412775
0.00341825
0.00414113
0.00403374
0.00426817
0.00676884
0.00713852
0.00201557
0.00179727
0.00189132
0.00214542
0.00254702
0.00234274
0.00267001
0.0026622
0.0020493
0.00131715
0.00419721
0.00506802
0.00403883
0.00482642
0.00749071
0.0030182
0.00294411
0.00260513
0.00217447
0.00197656
0.00194972
0.00217372
0.00260118
0.00651982
0.00697402
0.00637779
0.00633847
0.00576412
0.00638531
0.0079647
0.0079406
0.00700838
0.00655505
0.0067746
0.00416576
0.00262884
0.0030603
0.00338687
0.00451798
0.00465824
0.00983293
0.00333634
0.00368672
0.00374284
0.00500917
0.00484795
0.00857178
0.00362989
0.00391494
0.00515805
0.00688432
0.0126981
0.00463213
0.0048825
0.00702187
0.00712622
0.00651552
0.00471062
0.00427169
0.00465587
0.00350741
0.00342887
0.00292974
0.00432695
0.00582336
0.00460048
0.00446742
0.00380311
0.00337864
0.00346694
0.00359471
0.00298569
0.00294563
0.00340324
0.0025206
0.00243082
0.00258828
0.000716259
0.000367201
0.000375477
0.000385224
0.000393126
0.000401245
0.000407206
0.000414239
0.000417449
0.000417767
0.000418812
0.000442876
0.000438838
0.000424959
0.000385889
0.000440383
0.000698839
0.000699342
0.000439918
0.000387849
0.000695826
0.00110873
0.00130703
0.00154644
0.0015657
0.00135078
0.00117116
0.000720837
0.000709542
0.000430135
0.000502333
0.000545532
0.000483833
0.000539926
0.000500399
0.000530091
0.000535454
0.000495436
0.000492715
0.000494642
0.000490856
0.000482174
0.000471514
0.000458492
0.000448137
0.000442232
0.000437353
0.000427115
0.000356113
0.000331438
0.000397071
0.00063148
0.00063045
0.00059156
0.000558895
0.000531229
0.000518947
0.000515756
0.000513123
0.000522093
0.00053899
0.000543741
0.000548471
0.000590943
0.00057272
0.00061176
0.000574036
0.000613327
0.000575726
0.000529599
0.000444688
0.000458794
0.000740033
0.000747892
0.00120844
0.00138258
0.001568
0.00157617
0.00175948
0.00185289
0.00156902
0.00162886
0.00186683
0.00173889
0.00155014
0.00155611
0.00139983
0.00140096
0.00124078
0.000775367
0.000764823
0.000480402
0.000466553
0.000556338
0.000546578
0.000607919
0.000650566
0.000650829
0.000648718
0.000632104
0.000626218
0.000550762
0.000540004
0.000540713
0.00052429
0.000520589
0.000542123
0.000590192
0.000691328
0.000835694
0.000910368
0.000943076
0.000905522
0.000811305
0.000597155
0.000540822
0.000935947
0.000973238
0.00173007
0.00410087
0.00188883
0.00366552
0.00264598
0.000660383
0.000737446
0.000940503
0.001054
0.00113776
0.00118489
0.00108175
0.000901765
0.000679135
0.000561099
0.00084028
0.000726699
0.000821734
0.000717869
0.000928898
0.00107414
0.00103924
0.00104717
0.000885078
0.000721168
0.000763748
0.000685884
0.000756086
0.000632962
0.000761612
0.000687613
0.000864116
0.000872238
0.000854098
0.000809586
0.000616438
0.000646776
0.000542532
0.000588495
0.000528352
0.000546073
0.000517497
0.000603433
0.000695338
0.000667322
0.000664695
0.000546122
0.000427918
0.000472601
0.000408552
0.000462396
0.00035935
0.000435359
0.000365124
0.000472634
0.000487097
0.000489343
0.000485573
0.000394453
0.000463737
0.000569426
0.000598519
0.000603692
0.000575238
0.000443377
0.000686181
0.000619515
0.000756497
0.000654504
0.000716308
0.000652342
0.00076035
0.000973726
0.00101651
0.00102324
0.00083011
0.000824962
0.00150434
0.0834041
0.00135322
0.00159947
0.00164928
0.00164329
0.00135871
0.00132566
0.00164163
0.00121464
0.00171988
0.00108281
0.00183398
0.000699298