/*--------------------------------*- C++ -*----------------------------------*\
| =========                 |                                                 |
| \\      /  F ield         | OpenFOAM: The Open Source CFD Toolbox           |
|  \\    /   O peration     | Version:  v2012                                 |
|   \\  /    A nd           | Website:  www.openfoam.com                      |
|    \\/     M anipulation  |                                                 |
\*---------------------------------------------------------------------------*/
FoamFile
{
    version     2.0;
    format      ascii;
    class       surfaceScalarField;
    location    "960";
    object      phi;
}
// * * * * * * * * * * * * * * * * * * * * * * * * * * * * * * * * * * * * * //

dimensions      [1 0 -1 0 0 0 0];
oriented        oriented;


internalField   nonuniform List<scalar> 
50655
(
0.00256726
-0.00360766
-0.00137959
-0.00510495
0.00127846
0.00365691
-0.00342145
0.0038617
0.00453646
-0.00249591
-0.00278992
0.00297227
-0.00368262
-0.00376215
0.00271092
-0.00180149
-0.00480845
0.000862086
0.00013713
-0.00466624
0.00164829
-0.00186108
-0.00720135
0.00244757
-0.0104909
0.00287302
0.000317824
-0.0113127
-0.0034851
0.00419682
-0.012064
-0.00485649
0.00550537
-0.0129222
-0.00564548
0.0063996
-0.0262059
-0.00933169
0.0224215
-0.0487338
-0.0282976
0.0502651
-0.0483265
-0.0527575
0.0516531
-0.0310963
-0.0711658
0.0531577
-0.00453252
-0.0780939
0.0507472
0.00787934
-0.0547603
0.0415371
-0.00179121
-0.0314064
0.0403041
-0.0212193
-0.0217139
0.0403753
-0.0172224
-0.0513293
0.04661
-0.00731269
-0.0555113
0.0450439
-0.0390614
0.0314197
-0.0417802
0.0187996
-0.016382
-0.0164695
-0.0756346
0.0498291
0.0199353
-0.0798442
0.042943
0.0305676
-0.029492
0.0185526
0.0342347
-0.00400446
0.0366876
0.0177941
-0.0205695
0.0256178
-0.0180124
0.0288064
0.0167076
-0.00949725
0.0182383
0.00377926
-0.00136657
0.0141679
-0.00634024
0.00698873
0.00303548
-0.00539226
0.000343681
-0.00133236
-0.00537114
-0.00113914
0.00109963
-0.00629446
0.000150525
0.000755506
-0.00755663
0.000139643
0.00110593
-0.0086757
2.38081e-05
0.00107814
-0.00906314
-0.000308792
0.000679866
-0.00932283
-0.000728969
0.000972063
-0.00888877
-0.00115758
0.000707241
-0.00825925
-0.00163095
0.000984759
-0.00703616
-0.00208269
0.000843173
-0.00560344
-0.0025499
0.00110031
-0.00373898
-0.00284565
0.000965014
-0.00192324
-0.00302903
0.00119634
0.00105612
-0.00299695
0.000807857
-0.00239555
0.00261817
-0.00583595
0.00492184
0.0016802
-0.0114471
0.00464715
0.00090749
-0.0134159
0.00507449
-0.00317269
-0.0131572
0.00532344
-0.00564915
-0.0055194
0.00461951
-0.0123137
0.000481422
0.00558834
-0.0116309
0.000595151
0.00356755
-0.00370692
-0.00150684
0.0020844
-0.00295628
0.00214103
-0.000708729
-0.00451645
0.00218901
-0.000644986
-0.00582891
0.0023484
-0.00105233
-0.00709483
0.00230611
-0.00105514
-0.00859568
0.0024983
-0.00101147
-0.0101612
0.00258432
-0.00103214
-0.0114561
0.00237636
-0.00109464
-0.0123578
0.00201439
-0.00112571
-0.0128238
0.00160047
-0.00114745
-0.0131397
0.00143392
-0.00113133
-0.0137407
0.00156067
-0.000973871
-0.013946
0.00111765
-0.000927436
-0.013651
0.000893157
-0.00120356
-0.0136411
0.000780284
-0.000805921
-0.0133671
0.000825577
-0.00111564
-0.0131205
0.000900897
-0.00116343
-0.0129765
0.000844424
-0.00100423
-0.0127013
0.000575135
-0.000865885
-0.0121627
0.000126686
-0.000680786
-0.0112628
-0.000447795
-0.000467351
-0.0101434
-0.000906746
-0.000227982
-0.00882696
-0.00100244
-0.000328727
-0.0073796
-0.000753045
-0.000708168
-0.00757791
-0.000686509
0.000872815
-0.0163806
0.00082987
0.0079463
-0.0211465
0.000417286
0.004288
-0.0225862
0.00116145
0.000212992
-0.0425474
0.0163553
0.0034884
-0.0545198
0.00564785
0.00602629
-0.0294398
-0.0162369
-0.00915058
-0.0131025
-0.0149193
-0.00155018
-0.0112426
-0.00397523
0.00203731
-0.00998543
-0.00306024
0.00171299
-0.00806758
-0.00340869
0.00138933
-0.00471126
-0.00327519
-0.0001764
-0.00316286
-0.0016337
-0.00442209
0.00457459
-0.00341025
-0.00263665
0.0067234
-0.00862246
0.000960491
0.00619833
-0.00992766
0.00626643
0.00588573
-0.0113365
0.0150699
0.00875693
-0.0177415
0.0286018
0.0137128
-0.0275273
0.0248679
0.0196331
-0.0161806
0.0164006
0.00633442
0.0019482
0.00751714
8.41025e-05
0.00865198
-0.00133812
-0.00411389
0.0128342
-0.00453825
-0.00687283
0.00995659
-0.00757545
0.00538732
0.00445844
0.000970938
-0.0102293
0.00223925
-0.00831881
0.0035515
-0.00492829
-0.0044134
0.00734126
-0.0124081
0.0020522
0.00537886
-0.0143275
0.00567062
0.00244637
-0.0385872
0.026832
0.0232488
-0.00676937
-0.0133633
0.0369964
-0.00985344
-0.0392315
-0.00486702
0.00925364
-0.00912755
-0.000600231
0.00894861
-0.00745972
0.00262396
0.0095698
-0.00671808
0.00455408
0.0095898
-0.00490646
0.00710456
-0.00134491
0.0112473
-0.00494158
-0.00272704
0.012424
-0.00187885
-0.00246051
0.00881695
-0.000398799
-0.00411809
-0.00203463
-0.0210573
-0.00210328
0.029538
-0.0106701
-0.0143072
-0.00164708
-0.00712767
-0.00246534
-0.00734015
0.0158621
0.00135785
-0.0102794
0.0219073
0.00115965
-0.00900826
0.0324422
0.000388262
-0.0132031
0.0831709
-0.00209195
-0.0360114
0.0467674
-0.00197882
0.0455058
-0.002145
0.0074108
-0.00309175
0.0384318
0.00384642
0.0217696
0.0019498
0.0232252
-0.000321189
0.0113097
0.0139345
0.00621995
-0.00792054
0.000105544
0.00680608
0.00521293
-0.00147675
0.00731719
0.00818235
-0.00152136
0.00711814
-0.0150663
0.00797465
-0.00209201
0.00736572
-0.0153137
0.0084988
-0.00125996
0.00743227
-0.016696
0.0084112
-0.0012962
0.00741613
-0.0160108
0.00861014
-0.00062685
0.00727876
-0.0165725
0.00860377
-0.000251428
0.00702726
-0.0159788
0.00855612
0.000709586
0.00623118
-0.0154377
0.00822692
0.00576251
0.00441925
-0.0169369
0.00745026
0.00149028
-0.0041476
0.00567278
0.00273271
0.000804103
0.00537815
-0.000279706
0.000623088
0.00713559
-0.000734155
0.000776235
0.00801127
-0.00114946
0.000930974
0.0083144
-0.00120335
0.00126772
0.00838284
-0.00131671
0.00149124
0.00855764
-0.00136218
0.00149367
0.00870226
-0.00135194
0.00125709
0.00871336
-0.00137096
0.00093067
0.00882813
-0.00119641
0.0073041
-0.000264261
0.00935073
-0.00199444
-0.000819217
0.0110273
-0.00183966
-0.000854799
0.0123096
-0.00153681
-0.00066809
0.0130944
-0.000303068
-0.000945234
0.0135238
0.000860075
-0.00117844
0.0137008
0.00171574
-0.00133349
0.0136992
0.00224316
-0.00141339
0.0137576
0.00225525
-0.00142939
0.0137124
0.0018303
-0.000976022
0.0137197
0.00135146
-0.000594439
0.0139026
0.00122868
-0.000534018
0.0132928
0.00114426
0.000567916
0.0124439
0.0024325
0.000230812
-0.000267916
0.0126866
-0.00041256
0.00243833
-0.000847802
0.0123496
-0.000237125
0.00280174
-0.000640396
0.0114766
-7.37514e-05
0.00311497
-0.000167
0.010214
4.92254e-05
0.000297153
0.00327931
0.00861521
0.000722837
0.00331714
0.000129632
0.00686997
0.00104147
0.00305098
0.000137259
0.00586533
0.000964507
0.00224312
8.81677e-05
0.00442242
0.00462513
-0.000850213
0.00286913
0.00428017
-0.000554087
0.00142272
-0.000504302
0.00407533
0.00389456
-0.000404361
0.00560435
-0.000512371
-0.00121357
0.0068292
-0.000407677
-0.000834019
0.00780201
-0.000605711
-0.000383581
0.00816747
-0.000471605
8.94271e-05
0.00822445
-0.000604529
0.000531086
0.00753502
-0.000256855
0.00092969
0.0065566
-0.000291241
0.0012531
0.00473382
0.000299985
0.00150571
0.00202528
0.00116056
0.00153085
-0.00175634
0.00206712
0.00169656
-0.00450021
0.000543682
0.0021822
-0.00602437
-0.000883976
0.00238887
-0.0073111
0.000619408
0.00064538
-0.0137919
0.000498892
0.00593704
-0.0249159
-0.00655894
0.0175671
-0.0310758
-0.0161812
0.0221759
-0.0391844
-0.0261789
0.034021
-0.0317837
0.0237086
0.0162157
-0.0385547
0.00911905
0.0259774
-0.0166995
0.00686928
-0.00458173
0.00432625
-0.0323037
0.026207
0.00146623
-0.0147457
-0.0233034
0.0057101
-0.0375063
0.00601476
0.0412444
-0.0574452
-0.000766421
0.029065
-0.050059
0.0152014
0.0126058
-0.00995377
0.0169652
-0.0102437
0.0109646
-0.00254223
0.0190006
0.00787519
0.0113757
-0.012553
0.0135031
0.00533931
-0.0062262
0.00135845
0.0112783
0.00491984
0.00102743
0.00273256
0.00129308
-0.0010115
0.00151651
0.00274965
-0.00487429
0.00385895
0.00204942
-0.00543959
-0.0004599
0.0021648
-0.00957752
0.00199684
0.0024206
-0.00822702
-0.00368603
0.0020242
-0.0118788
0.0019557
0.00141934
-0.00891692
-0.00418043
0.000594219
-0.0112516
0.00215314
-0.000309785
-0.00732784
-0.00320121
-0.00134797
-0.00816301
0.00229195
-0.00188463
-0.00440957
-0.00170956
-0.00257548
0.00130161
-0.00256705
0.00402132
0.0117482
-0.0106485
0.0115689
0.00649992
-0.00948046
0.0131513
0.00881711
-0.0051458
0.0102615
0.0104185
-0.00252405
0.00422434
0.00941866
0.00121318
0.0126063
-0.00200394
-0.0022252
0.000709641
0.0148645
-0.0060127
0.00503256
-0.00333968
0.00198625
0.014769
-0.00756679
-0.00313932
0.00312058
0.00760775
0.0101778
-0.00791864
-0.00274396
0.00317253
0.0120071
0.00175668
-0.00672682
-0.00205017
0.0010219
0.0160912
-0.000625334
-0.00457439
0.00742614
-0.000237967
-0.00522425
0.0113112
0.000168305
-0.0103785
0.0126397
-0.0089635
-0.014257
-0.0141605
0.00843168
0.00572717
-0.0241485
0.00411589
-0.0185817
0.00624176
-0.0165535
-0.0113764
0.00927908
0.00793106
0.00961562
-0.0341468
-0.0238111
0.00755839
0.0111908
0.00747908
-0.0100565
-0.032513
-0.00919929
0.00782993
-0.00165802
-1.28753e-05
0.00784038
-0.00661786
-0.0104721
0.0115603
-0.00766915
-0.014211
0.0104752
0.0105968
-0.000727421
-0.00886962
0.0103672
-0.00154971
0.00799078
-0.00767135
0.0037502
0.00102751
0.00473544
-0.00353901
0.00569548
-0.00631278
0.0139876
-0.0121481
-0.00351794
0.0108127
-0.0170467
-0.00261915
0.00571408
-0.0169811
-0.000985305
-0.00118104
0.00205296
-0.00827049
0.00847593
0.00962466
-0.00961657
0.0109937
0.0112315
-0.00501228
0.0116854
0.0118447
-0.00219808
0.0106103
0.00441225
-0.0110531
0.0109554
0.00307065
-0.00923808
0.0120923
-0.00214618
-0.0050082
0.011695
-0.00477699
0.0097127
-0.00615235
0.00225744
0.00368994
0.00107348
0.00806242
0.00737691
-0.0015742
0.0110639
0.00862368
0.000380114
0.00742717
0.00660197
-0.00920564
0.0102147
-0.000380226
-0.00708674
0.00391435
0.00250199
0.000195137
0.00166833
-0.00166278
0.00502758
-0.0064429
-0.00149729
-0.00228217
0.0187502
-0.0036661
-0.0193092
0.0169701
-0.00145856
-0.00173179
-0.0161717
-0.0118914
-0.000936483
0.00338152
-0.00862291
-0.0107114
-0.0132106
0.00662754
-0.00596149
-0.00496003
0.000895384
0.00138984
0.000390073
-0.00209302
-0.004261
-0.000992351
0.00398343
-0.00260259
-0.000423142
0.00181143
-0.00238202
0.00129773
-0.00381608
0.00678671
0.00070543
-0.0111665
0.000653281
-0.00348103
0.0104953
-0.00346474
-0.00443756
-0.0189661
0.013996
-0.0118699
-0.0194157
-0.0118071
0.00786636
0.00429811
-0.026597
-0.0154217
0.00259577
0.00934244
0.0105537
-0.035561
-0.0164966
0.0130819
0.00184942
0.0104271
-0.0422613
-0.0146506
0.0098521
9.73143e-05
0.0112981
-0.0436271
-0.0108076
0.00325696
-0.00151845
0.0103305
-0.0431165
-0.0061942
-0.00148098
-0.00182659
0.00888123
-0.0394411
-0.00337999
-0.0044722
0.00408273
-0.0347034
-0.00122983
-0.00708008
0.00649337
-0.00302922
-0.0321438
0.00128115
-0.00608499
0.00562356
-0.00348123
-0.0290983
0.00257924
0.00450083
-0.00395964
-0.00626878
-0.0289055
0.00196562
0.0039957
-0.00352176
-0.00274441
-0.0298087
9.73719e-05
0.00189164
-0.00119295
-0.0277512
-0.00170913
0.00144733
-0.00190926
-0.022927
-0.00274745
0.0015946
-0.00376772
-0.0300926
0.00175425
0.022608
-0.0172723
-0.0591948
0.029312
-0.0130406
0.0124531
0.00590723
-0.0198616
-0.00147546
-0.0132936
-0.0251661
-0.00905548
-0.0122424
-0.000532186
-0.00871908
-0.0111388
0.000557814
0.000306773
-0.00941147
-0.00066542
0.000554517
-0.00578899
-0.00382831
0.00148488
-0.00308609
-0.00403283
0.00105513
-0.00454079
-0.000248673
-0.00446073
0.000792247
-0.000919544
-0.00685116
0.00204358
0.000283656
-0.010791
0.00219667
0.00166353
-0.0131016
0.000807592
0.0014244
-0.0133672
-0.000361374
0.000557226
-0.0130755
-0.00175522
0.00140956
-0.0236468
0.00141726
0.00907929
-0.0568478
0.0174918
0.0155024
-0.101261
0.00878332
0.0350572
-0.117893
-0.00595232
0.0218905
-0.12722
-0.0116778
0.0202299
-0.13362
-0.0165762
0.0221418
-0.13725
-0.0222646
0.02501
-0.138565
-0.0273243
0.0277278
-0.138483
-0.030802
0.0297961
-0.137673
-0.0329512
0.0312163
-0.13622
-0.0341995
0.03183
-0.134075
-0.0348504
0.0318047
-0.130237
-0.0353613
0.030651
-0.122271
0.0278718
-0.0366714
-0.103142
0.0208496
-0.0407372
-0.0533826
0.00339019
-0.0537687
-0.0225884
-0.00119425
-0.0298189
-0.012369
-0.00427056
-0.00602615
-0.0120908
0.001996
-0.00232922
-0.0111914
0.00433699
-0.00530718
-0.00875754
0.00385295
-0.00636727
-0.00424232
0.00402127
-0.00862085
-0.00478354
0.00348897
-0.00301897
-0.0080524
-5.20634e-05
0.0032701
-0.00781349
0.00236942
-0.00267951
-0.00894134
0.00104004
-0.0138135
0.00697578
-0.00220223
-0.0166446
0.00714281
-0.00442167
-0.0189192
0.00764159
-0.00546954
-0.0237748
0.00700168
-0.00225081
-0.0533178
0.0187329
0.0106136
-0.0979271
-0.00807871
0.0521144
-0.11092
-0.0316647
0.0439371
-0.112386
-0.0418142
0.0424696
-0.107697
-0.0476571
0.0421457
-0.0989187
-0.0521264
0.0424909
-0.0862292
-0.0543455
0.0408314
-0.0692592
-0.0558455
0.0380556
-0.049519
-0.056822
0.0363158
-0.0238363
-0.0481109
0.0217916
-0.037601
0.013326
-0.0534553
0.0233886
-0.00800144
-0.0592873
0.0256425
-0.0203133
-0.0593636
0.0269671
-0.027417
-0.0503581
0.026745
-0.0362768
-0.0402912
0.0246239
-0.0351935
-0.0231066
0.0167059
-0.0343576
0.00939219
-0.0329375
0.0272091
0.0381629
-0.0566165
0.0509463
0.0495612
-0.0740643
0.0747898
0.0496468
-0.0743101
0.0949488
0.0498483
-0.0708317
0.110658
0.0470328
-0.0635985
0.118846
0.0396996
-0.0487102
0.116785
0.0329214
-0.0316703
0.101101
0.0300362
-0.0150724
0.0544174
0.0398051
0.00630478
0.0254317
0.0250078
0.00378152
0.0213285
0.00417262
-0.000174115
0.0194184
0.000589135
0.00121842
0.0158424
0.000295955
0.00317015
0.00911259
-0.000251636
0.00688287
-0.000930819
0.00995563
-0.0009791
-0.00969666
0.00964919
0.000704236
-0.0130856
0.0112933
0.00254036
-0.0142136
0.0122543
0.00403879
-0.0135455
0.0119115
0.00427609
-0.0191369
0.0187217
0.00778079
-0.0285875
0.0247977
0.00376995
0.0235842
-0.019857
-0.000234427
0.0168673
-0.0130421
-0.000422706
0.00842516
-0.00837254
-0.00058186
0.00773894
-0.00770299
-0.00111425
0.00736717
-0.00694376
0.00631268
-0.00648267
0.00345541
0.00545549
-0.000291334
0.00323756
0.00619006
0.0013229
0.00333283
0.00591401
0.00165193
0.00399218
0.00478387
0.0029037
0.0103427
0.0115806
-0.00116944
0.0193823
-0.00897085
-0.000114179
0.00911961
-0.00419262
0.0144146
-0.0229943
-0.0114032
0.0434473
-0.015536
-0.00575545
-0.00178142
-0.000979245
0.00357092
0.00487125
-0.00943714
0.00604868
-0.0026027
0.00362881
-0.00178767
-0.00824831
0.000445336
-0.00915709
-0.0102568
-0.0126497
0.0184025
-0.00477873
-0.0307084
0.00322327
0.00365565
0.00405537
-0.0175135
-0.0496198
0.00585936
0.0101143
0.000852826
-0.0580932
-0.0156409
0.0261871
-0.00420987
-0.020377
0.00616527
-0.00323414
-0.0202599
0.00560611
-0.00225836
-0.0206174
0.00530344
-0.000890927
-0.0190008
0.00443525
-0.0149657
0.00402976
-0.0210949
0.00225792
0.00404243
-0.0219097
-0.00134481
0.00263451
-0.017862
8.7113e-05
0.0054308
0.00165005
-0.0465236
0.0354003
0.00829496
0.00804297
-0.114911
0.0350226
0.0514108
0.0208677
-0.125
0.0472693
-0.00799886
-0.125864
0.0547507
-0.0218324
-0.118067
0.0645172
-0.03349
-0.10317
0.0731853
-0.0419319
-0.0840883
0.0769382
-0.0470395
-0.0615546
0.0747339
-0.04846
-0.0367739
0.0743891
-0.0504225
0.0504935
-0.0329661
0.058916
0.045975
-0.0303811
0.0684956
0.0519044
-0.035364
0.0688075
0.0530536
-0.0270233
0.06338
0.05078
-0.0203175
0.0440453
-0.0059551
-0.0882478
0.0719206
0.00273648
-0.09804
0.0755598
-0.0158962
-0.0995298
0.08002
-0.026419
-0.0882307
0.0792443
-0.0395813
0.0719276
-0.0407028
0.0880481
0.0944333
-0.0367107
0.0976414
0.101652
-0.0329306
0.0945078
0.101093
-0.0188689
0.0819383
0.0960435
-0.00880519
0.0903408
0.00683337
-0.0812677
0.103407
0.0129879
-0.0944756
0.110484
-0.0021535
-0.0983693
0.115952
-0.0119262
-0.0904949
0.116821
-0.0240041
0.111357
-0.0314018
0.087009
0.124163
-0.0275659
0.0946603
0.128202
-0.0200086
0.0912421
0.126365
-0.00797106
0.0783221
0.120285
0.00218269
0.112061
0.0166593
-0.0724415
0.11662
0.0193487
-0.0843751
0.125359
0.00592227
-0.086707
0.131926
-0.00420929
-0.0787921
0.134309
-0.0150016
0.131237
-0.0222856
0.0681765
0.131905
-0.0150307
0.0760715
0.134652
-0.00921492
0.0749886
0.131076
0.000955693
0.0640608
0.124692
0.0106582
0.115423
0.0225765
-0.052567
0.105708
0.0297632
-0.0645903
0.116243
0.019529
-0.0641407
0.119808
0.00985575
-0.056199
0.125212
0.000535153
0.126087
-0.00405452
0.0351311
0.0191396
0.0612953
0.0446046
0.051404
0.0946178
0.0134458
0.0547121
0.0923906
0.0232339
0.0357212
0.0482592
0.0451865
0.040849
0.044492
0.036498
0.0514688
-0.0122923
0.0268318
0.0153717
0.0143646
-0.0187168
0.027648
0.0150729
-0.0152771
0.0311124
0.0135037
-0.0135246
0.0290292
0.0141958
-0.0399207
0.0275193
0.0407351
-0.000791673
0.0248477
-0.0283644
-0.00826018
0.0384609
0.005802
-0.0369944
-0.00678344
0.0299289
0.00547822
-0.0370604
-0.00457995
0.0290455
-0.0365083
0.0050894
0.0258432
0.00347047
0.00379756
0.00514872
0.00490584
0.00714909
0.00678882
0.00760688
0.00904175
0.00890139
0.00838053
-0.00412656
-0.0199196
0.015668
0.00266295
-0.000615819
0.000583473
0.00624061
0.00289618
0.000295563
-0.000532825
0.000351312
0.0040861
-0.0015461
-0.00243625
-0.00131989
0.00410328
-0.00165689
-0.000487446
0.00117974
0.010586
0.012069
0.0315728
-0.0531347
0.00539899
0.017745
-0.00422604
-0.00727647
0.0567664
0.00123323
-0.0150696
0.00283058
0.00354344
-0.00654441
0.00504446
0.00396911
-0.0061977
-0.0221823
0.00967111
0.0175154
-0.00940635
-0.0125011
-0.000318574
0.0179024
-0.00256484
0.0239241
-0.00787951
0.0462184
-0.0126929
0.0216072
0.0765268
-0.0249178
-0.0325912
0.00463776
0.00709284
0.0297395
0.00214995
-0.0175346
0.00804328
0.013649
-0.00404788
-0.0106439
0.00847876
0.0149456
-0.00404337
-0.0114443
0.00758098
0.0144178
-0.00235967
-0.0112669
0.00613249
0.0127717
-0.0104161
-0.00100576
0.00367314
0.0105122
-0.00878198
0.000641812
0.00871169
-0.00788755
0.00276857
0.00841477
-0.0031572
0.0033834
0.0080126
-0.00279999
0.0031471
0.0151493
-0.00807809
0.000864159
0.0391695
-0.0159543
-0.00828475
0.0726475
-0.0389128
0.00481622
0.0826911
-0.0276681
0.016865
0.0842219
-0.0235235
0.0211588
0.0816262
-0.0202539
0.021977
0.0764005
-0.0158028
0.0201257
0.0693116
-0.00868223
0.0148527
0.0597372
0.0018362
0.00681012
0.0411072
0.017865
-0.000162865
0.0134693
0.0418454
-0.0151254
-0.00623214
0.0554174
-0.0366184
-0.00208965
0.0502452
-0.0552596
0.012131
0.0392802
-0.0543339
0.015634
0.0262399
-0.0305013
0.0098094
0.0289865
-0.0237793
0.00226797
0.0114057
-0.00408257
0.000539218
0.00391941
-0.00226763
-0.000261736
0.0018265
-0.00108013
-0.00200231
0.00330782
-0.00163676
0.0031764
-0.00228422
0.00311388
0.00528538
-0.00144625
8.47731e-07
0.00670078
-0.000355359
0.00199863
-0.000192854
0.00652939
-0.00063999
0.0015321
0.006035
-0.00365292
0.00250242
0.00535853
0.00630546
0.00110259
0.0115736
0.0171886
-0.0104819
0.0150847
-0.0101668
0.0232833
0.0237917
-0.0294302
0.0432932
0.0143313
-0.0435684
0.050673
0.0127753
-0.0619155
0.0466544
0.0261577
-0.0780635
0.0297458
0.0272825
-0.0891775
0.00792219
0.0200844
-0.0948376
-0.00848988
0.0150132
-0.0983396
-0.0208141
0.0146675
-0.100565
-0.0294199
0.0148881
-0.100781
-0.035207
0.0142322
-0.0974243
-0.0395845
0.0117832
-0.0885682
-0.043992
0.00655942
-0.0318481
-0.0405472
-0.0448218
-0.0112471
-0.0184008
-0.0104322
-0.0191413
0.00262935
-0.0153552
-0.00711504
0.00132683
-0.00574237
0.000264752
-0.00942181
0.000857718
-0.00381193
0.00166864
-0.00750197
0.00100217
-0.00882917
0.0158132
-0.000174301
-0.00797517
0.0158271
-0.00183581
-0.00616935
0.0139231
-0.0021614
-0.0021085
0.0197965
0.00574095
0.0205289
0.106938
-0.0447059
-0.0094698
0.00402339
0.0306949
0.0055018
0.00763386
0.0105075
-0.000246918
0.00844311
0.0142703
0.000668874
0.0151244
0.0019268
-0.0162714
-0.0197282
-0.01268
0.0307791
-0.0202324
0.0462597
-0.0178413
-0.0512127
0.106833
-0.0245104
-0.0522696
0.12178
-0.014949
-0.104352
-0.0445283
0.125606
-0.0301604
-0.0751911
-0.0286606
-0.0174952
-0.0288374
-0.0143747
-0.00295843
-0.0402849
0.0170104
-0.00215739
-0.0241388
-0.00527535
0.0279366
-0.0054765
-0.00856758
0.0163424
-0.00787769
-0.00933
0.014422
-0.00620041
-0.00947969
-0.0118232
-0.00275562
0.0501266
-0.02123
-0.0125667
-0.00612428
0.00061527
-0.0119096
-0.00851085
-0.000105477
-0.00873627
-0.00717858
-0.0015636
-0.00495612
-0.00445658
-0.00158065
4.81509e-06
-0.000772527
-0.00380529
-0.000449398
-0.00984803
2.14047e-05
0.000445903
0.00127015
-0.00171437
0.00136855
-0.00208993
0.00336262
0.00174698
-0.00265992
0.00436948
0.00205768
-0.00198519
0.00371022
0.00175193
0.00266595
0.000706131
0.00452173
0.00262886
-0.00106459
0.00472724
0.00383392
-0.000404974
0.00458641
0.00491446
-0.000485202
0.00482647
-0.000756186
-0.00640384
0.0108669
-0.00420361
-0.00622351
0.0108907
-0.00626825
-0.00534898
0.0100456
-0.00719172
0.00900537
-0.00779545
0.00658042
0.0118626
-0.00567208
0.00801341
0.0135885
-0.00507453
0.00820822
0.0151092
-0.00451987
0.0149163
-0.00312637
-0.00921541
0.0168553
-0.00133475
-0.00933042
0.0178605
-0.00274242
-0.00966495
0.0177573
-0.00393872
0.0104716
-0.0040135
0.0128638
-0.000417936
0.0102394
-0.00167501
0.00750777
0.0232772
-0.00290155
0.00736869
0.0182956
-0.000386095
0.0172898
0.000731164
-0.00886855
0.0484574
-0.0251868
-0.00521073
0.0421236
-0.0276304
0.0449779
-0.0282776
0.0294543
0.117606
-0.0575522
0.127444
-0.0450409
0.0508609
0.134873
-0.038733
-0.0206036
0.0555099
0.134776
-0.0149352
0.0521178
0.130012
-0.00595602
0.115195
-0.00128242
-0.0502937
0.119643
0.00524077
-0.0560236
0.13498
-0.0003215
-0.0535483
0.1407
-0.00948206
-0.0448812
-0.0146347
0.13982
-0.128153
-0.0233335
0.133555
-0.0293381
-0.0128567
-0.0511875
-0.114317
0.0286575
0.119302
-0.106007
-0.0668373
0.118334
-0.0383694
-0.049525
-0.0681267
-0.00474075
0.0138783
-0.0135348
-0.0193269
-0.0195402
-0.00997088
-0.00602209
-0.0131189
-0.00290148
-0.0140061
-0.00407425
0.00257762
-0.0143799
-0.00819146
0.0031778
-0.0127416
-0.010627
0.00253473
-0.00979904
-0.0145184
0.00286465
-0.0107564
0.00114607
-0.013766
0.016049
-0.0137508
0.000615213
-0.00950109
-6.87168e-05
-0.0153653
0.0144691
-0.00157624
-0.0167644
0.0116478
-0.0027115
-0.0180453
0.00965679
-0.00145826
0.0149465
-0.0254747
0.0110919
0.0252001
0.0187281
0.0207372
-0.0498554
0.0188462
0.0161767
0.0178369
-0.0277911
0.0305534
0.0160594
0.0191808
-0.0470832
0.0213555
0.0134351
-0.0227709
0.0184052
0.0392715
-0.0422336
0.00893888
0.015278
0.0201073
0.0463154
-0.0101023
-0.0171503
0.0253994
0.0300764
-0.0202277
-0.0152691
-0.0172145
-0.0205825
0.00992415
-0.0182452
0.00381512
-0.012791
-0.0179304
0.00437172
-0.0172219
-0.0123054
0.00330802
-0.016113
-0.0141198
0.0022854
-0.0167915
0.00210212
-0.0176529
-0.0170708
0.0174409
0.000374805
-0.0162822
-0.000770459
-0.0183867
0.0156299
-0.00198977
0.0130006
-0.00309232
0.0175629
0.0143193
-0.002792
0.017421
-0.00140757
0.0164941
0.0182297
-0.0170417
-0.000366354
0.018375
0.00133309
-0.0151335
0.00285756
-0.015495
0.0010069
0.017488
-0.0154007
-0.00120521
0.0144697
-0.00214877
-0.00752331
-0.0160122
0.0235757
0.0168718
-0.00150459
-0.0143703
-0.0171275
-0.0261887
-0.024254
-0.00254263
-0.105266
0.10375
0.0075436
0.00121312
0.0182437
0.0127164
0.0239177
0.0147009
-0.0202503
0.0176587
-0.00845831
0.0179725
-0.0122393
-0.00477146
0.00236171
-0.000511128
-0.0055519
0.00484942
-0.00582166
-0.00170805
-0.00210878
-0.00217641
-0.00379161
0.0131664
-0.000990179
-0.00316321
-0.00140253
-0.00338324
0.0163816
-0.0200728
-0.0115607
0.0154766
0.0068819
-0.0115986
0.0175984
0.00910929
-0.0132583
0.0202087
0.00892903
-0.0141909
0.0229571
0.0089113
0.0301704
0.0119871
0.00987311
0.0134778
0.0124886
0.00947185
0.0132711
0.00990806
0.00784178
0.0119213
0.00974671
0.00607107
0.0108069
0.00840812
0.010006
0.00699518
-0.00219679
0.0034211
-0.00260703
0.00416085
-0.00327031
0.00475691
-0.00390372
0.00539928
0.0065085
0.00166352
0.00290202
0.00142211
0.000511021
0.000410135
0.00139346
-0.000142539
0.00198491
-0.00155088
-2.68507e-05
-0.000929465
0.00194502
0.00096592
-0.000332297
0.000793497
-0.000436734
0.00182582
-0.00111499
0.00121364
-0.000538502
0.000311216
-6.5577e-06
0.00202299
-0.00174179
2.67166e-05
0.00379516
-0.000562944
-0.00359096
0.0111431
-0.00638405
0.00356763
-0.0180161
0.00336607
0.0170487
0.00387778
-0.0181286
0.0204218
0.00714643
0.00292946
0.00677007
-0.017071
0.0208384
0.000283882
0.005967
0.0197864
-0.0148463
-0.013634
0.0141836
0.00504004
0.0109763
-0.00738668
0.0172078
-0.00765488
0.0172684
0.0109164
-0.000400286
0.0199734
0.00717776
0.00334313
-0.00114925
0.00152931
-0.00351427
0.000376322
-0.00229229
0.0125943
0.00135517
-0.00233679
0.000798249
0.00061831
-0.000777501
0.00151253
-0.000568183
0.00156112
-0.000391839
-0.00124503
0.00106741
-0.00207013
0.000899307
-0.00021122
-0.000226256
-0.00163414
-0.000456795
-0.00209321
0.000247312
-0.00185535
0.00140019
-0.00138054
0.000392366
0.000112315
-0.00188648
0.000170511
-0.0014137
-0.000661797
-0.00126284
-0.00240668
0.0011491
0.00124369
0.000230693
0.000477619
-0.00129474
0.000448189
-0.00168431
-0.000480248
0.000535392
0.000391529
0.000109021
7.0423e-05
-0.000661043
0.00104483
0.00030615
0.000315346
-0.000889186
-0.00161331
0.00281444
-0.000775872
0.000275563
0.00017852
-0.000886376
-0.00113159
0.00380355
0.00137896
-0.000359161
-0.00302381
0.0122706
-0.00264413
-0.00129282
-0.00174822
1.31694e-05
-0.000830104
0.000261936
-0.00072759
0.000328842
-3.9716e-05
-0.0011216
-4.35356e-05
0.00188186
-0.000306818
-0.0016219
-0.00132139
0.0032121
-0.000894095
-0.000168497
-0.00124317
0.001119
0.00204216
0.000342341
0.000323763
0.000920854
-0.000128193
0.00191451
-0.0014238
-0.000170291
-0.00136977
0.00319275
8.71668e-05
-0.000653702
0.000201605
0.00285936
-0.00405375
0.0133013
-0.00113903
-0.0180503
0.000757068
0.00705222
0.0245391
-0.0164915
0.0218946
0.00641024
-0.0177755
0.0225796
-0.0020935
-0.0148861
-0.00438905
-0.0206899
-0.0218635
-0.0063134
-0.0218959
-0.00573278
0.0151556
-0.0026313
0.0197928
0.0317872
0.0374516
-0.0235809
-0.101098
0.0665558
-0.0967596
0.0700455
-0.107832
0.0712647
-0.0170993
-0.110075
0.0686902
-0.0248534
-0.106619
0.0674533
-0.0296545
-0.0981431
0.066302
-0.0331884
-0.0860542
0.0636474
-0.0357992
-0.0686463
0.0577084
-0.0379443
-0.0488855
0.0533309
-0.0376761
-0.0387878
0.0427021
-0.0317556
0.00405491
-0.029928
0.0165418
0.0323538
-0.0455081
0.0143607
0.0445958
-0.0430822
-0.00715435
0.0476265
-0.0265228
-0.0342477
0.0266546
-0.0509914
-0.0129011
0.0291777
-0.0596711
-0.0245262
0.0327031
-0.0620157
-0.031066
0.0328843
-0.0556522
-0.0382884
0.0313986
-0.0476518
-0.0353735
0.0268703
-0.0302636
-0.033645
0.0157897
0.00330945
-0.0340118
0.0201749
0.0445095
-0.0620118
0.0427104
0.0555817
-0.0788832
0.0679522
0.0549083
-0.08097
0.0880629
0.0523947
-0.07333
0.0993195
0.047749
-0.0598622
0.100323
0.0399751
-0.0418005
0.0949675
0.0340277
-0.029483
0.0832453
0.0306752
-0.0196732
0.0469941
0.0376833
-0.00200558
0.022622
0.0229241
0.00125157
0.0194313
0.00391014
-0.000824184
0.0180559
0.000493578
0.000778951
0.0149257
0.000144201
0.00287575
0.00866285
2.18856e-05
0.00614198
0.00911676
-0.000541528
0.00721213
0.00340942
-0.00157543
0.0046087
0.00387255
-0.00131623
0.00479162
0.00167217
-0.0019179
0.00572616
0.0018664
-0.0028798
0.00541181
0.00305091
-0.00281436
0.00427102
0.0033257
-0.00225447
0.00328488
0.00269472
-0.00176319
0.00532851
0.00167388
-0.00379453
0.0112566
0.00205949
-0.00820612
-0.0167969
0.0314359
-0.00400031
-0.0453322
0.0247531
0.0030231
-0.0591037
0.010768
0.00216961
-0.0657361
-0.00195412
0.00771364
-0.0709852
-0.01666
0.0210046
-0.0759288
-0.0315588
0.0355804
-0.0770088
-0.0461204
0.0462633
-0.0739552
-0.0593849
0.0553863
-0.0634835
-0.071458
0.0600343
-0.0453676
-0.0812829
0.0622098
-0.0173866
-0.0879574
0.0590131
0.0169911
-0.0841628
0.0488243
0.0325345
-0.0588883
0.0423837
0.0316136
-0.0452778
0.0452764
0.0240307
-0.0356867
0.0423662
0.0101589
-0.0266008
0.0396454
-0.000396921
-0.0234513
0.0332054
-0.0349268
0.0337806
-0.0505374
-0.019654
0.0344667
-0.0577395
-0.0344215
0.0408128
-0.0581501
-0.0492461
0.0487821
-0.0496098
-0.0642695
0.0548539
-0.0256445
-0.081815
0.056951
0.0045326
-0.0831643
0.0521113
0.00981636
-0.0471114
0.0409623
-0.00781947
-0.0264929
0.0433189
-0.0210168
-0.0285331
0.0409446
-0.00465573
-0.0606042
0.043505
-0.0524765
0.0432471
-0.0151862
-0.0692216
0.00173712
0.018463
-0.0550412
-0.0400969
0.0285829
-0.0396222
9.37982e-05
0.0322056
-0.0478179
0.0168082
0.0306515
-0.0775467
0.0310652
0.0413775
-0.126524
0.0316944
0.0548187
-0.123564
0.0273628
0.057496
-0.0964177
0.0285398
0.0525377
-0.0729498
0.0277564
0.041936
-0.0519888
0.027309
-0.0303751
0.0283831
-0.0371349
-0.0478279
0.027116
-0.0391514
-0.0575693
0.0229698
-0.0335891
-0.0686885
0.016878
-0.00534384
-0.0848454
-0.00328615
0.0353385
-0.119897
-0.00595383
0.0614473
-0.125593
0.0105216
0.0767982
-0.118902
0.0212668
0.0842704
-0.104802
0.0248753
0.0836925
-0.0868116
0.0270147
0.0795998
-0.0666907
0.0236806
0.0718613
-0.0455927
0.0208007
0.0641123
-0.0244475
0.0145783
0.0562148
-0.00315943
0.00816138
0.0432526
0.0150705
0.00773305
0.0193776
0.0346417
0.0130702
-0.00872537
0.000396376
0.0471765
0.0109803
0.00829057
-0.00326198
-0.00877427
-0.00513357
0.0149578
-0.00279636
-0.003611
0.010589
-0.00237555
0.00769116
-0.001075
0.014002
-0.000832636
-0.00429449
0.00161278
-0.00669985
0.0272247
0.00236342
-0.00898695
-0.00775455
-0.00127897
0.0014514
-0.00800482
-0.00355492
0.00135448
-0.00668808
-0.00470997
0.000514537
-0.00492641
-0.00540192
0.000296851
0.00210138
-0.00385422
-0.000533104
0.00477623
-0.00102425
-0.00199078
-0.000321135
-0.000389681
-0.0012839
-0.000727055
-0.000620377
-0.000572166
-0.000565461
0.000408007
-0.00105494
-0.00334043
0.0129606
-0.00538502
-0.0117589
0.00301546
0.0220696
-0.00773537
-0.00975116
0.0595511
-0.0307595
-0.0290289
0.0173242
0.053526
-0.021859
0.0299995
0.0300048
-0.0137321
0.0385015
-0.0102899
-0.00303443
0.0501052
-0.0388697
0.0125915
0.0360372