/*--------------------------------*- C++ -*----------------------------------*\
| =========                 |                                                 |
| \\      /  F ield         | OpenFOAM: The Open Source CFD Toolbox           |
|  \\    /   O peration     | Version:  v2012                                 |
|   \\  /    A nd           | Website:  www.openfoam.com                      |
|    \\/     M anipulation  |                                                 |
\*---------------------------------------------------------------------------*/
FoamFile
{
    version     2.0;
    format      ascii;
    class       volScalarField;
    location    "535";
    object      alphat;
}
// * * * * * * * * * * * * * * * * * * * * * * * * * * * * * * * * * * * * * //

dimensions      [1 -1 -1 0 0 0 0];


internalField   nonuniform List<scalar> 
18258
(
0.00484224
0.00210997
0.00172994
0.00149921
0.000992089
0.00162347
0.00225455
0.00268375
0.00281554
0.00279139
0.00289015
0.004877
0.00684419
0.00845859
0.00888622
0.00887371
0.00805628
0.00769311
0.00836188
0.010277
0.00863422
0.0055331
0.00662204
0.00766326
0.00835581
0.00740617
0.00598827
0.00554296
0.00501906
0.00418508
0.00351309
0.00240973
0.00175305
0.00162393
0.00147321
0.00168012
0.00183068
0.00195329
0.0019969
0.00202852
0.00201483
0.00200335
0.00194904
0.00191434
0.00185537
0.00153097
0.00183476
0.00192182
0.00210127
0.00289276
0.00310323
0.00260876
0.00288658
0.00257424
0.00169592
0.00194227
0.00210856
0.00215387
0.00212587
0.00203733
0.00200732
0.0019819
0.00194977
0.00191169
0.00188842
0.00190718
0.00192681
0.00190576
0.00181195
0.00173596
0.00161304
0.00148985
0.00139851
0.00132776
0.00127444
0.00121531
0.00114888
0.00100915
0.000935255
0.00123832
0.00155455
0.00166098
0.0023542
0.00287035
0.00289007
0.00216332
0.00154158
0.00159989
0.0017788
0.00179691
0.00152289
0.00181105
0.00205174
0.00212662
0.00221616
0.00247693
0.00281875
0.00274718
0.00244652
0.00225415
0.00221452
0.00253761
0.0024112
0.00312685
0.00315055
0.00274767
0.00253002
0.00284718
0.0036718
0.00395175
0.00307345
0.00288661
0.00282958
0.00279347
0.00252628
0.00261446
0.00237411
0.0021391
0.00233037
0.00281671
0.00267185
0.00291858
0.0030243
0.00283707
0.00328716
0.00379005
0.00373468
0.00298846
0.00243607
0.00227075
0.00228798
0.00139931
0.0015111
0.00162855
0.00166843
0.0016963
0.00172003
0.00183394
0.0018298
0.00180293
0.00179896
0.00183077
0.00100888
0.00109299
0.00112016
0.001128
0.00107149
0.00106048
0.00104073
0.00102466
0.000966069
0.000924346
0.00110605
0.00124201
0.00135286
0.00148249
0.00167597
0.00191273
0.00216159
0.00241311
0.0025796
0.00262724
0.00267527
0.00257871
0.00248123
0.00256996
0.00258498
0.00256837
0.00253399
0.00249056
0.00243191
0.00232433
0.00244973
0.00244321
0.00229529
0.00196647
0.00201082
0.00200751
0.00205983
0.00204899
0.00206939
0.00203957
0.00200445
0.00190736
0.00177168
0.00147446
0.00144818
0.00146518
0.0018798
0.00228093
0.00352187
0.00429296
0.00497951
0.00532464
0.00569389
0.0046121
0.00513563
0.00396245
0.00355638
0.00451851
0.00590881
0.003372
0.00184371
0.00349687
0.00310502
0.00225614
0.00200853
0.00207042
0.00206695
0.00236244
0.00272569
0.00303024
0.0031781
0.00330754
0.00341135
0.00352503
0.00366905
0.00370811
0.00358188
0.00303052
0.00365485
0.00296975
0.00346912
0.00313872
0.00212618
0.00218929
0.00234022
0.00214894
0.00209272
0.00199957
0.00180677
0.00224823
0.00290585
0.00337112
0.00385448
0.0051397
0.00475524
0.00456164
0.00353134
0.00341513
0.00177219
0.00252771
0.00262151
0.00295451
0.00196294
0.00179297
0.00170298
0.00224513
0.00260164
0.00307079
0.00340843
0.00404884
0.00314115
0.00358743
0.00324775
0.00226726
0.00217759
0.00311496
0.00335419
0.0027583
0.00246128
0.00308934
0.00292566
0.00207687
0.00164996
0.00253734
0.00262394
0.00188925
0.00471408
0.00503987
0.00481348
0.0058659
0.00734041
0.00836644
0.00780481
0.00691722
0.0077108
0.00611679
0.00593809
0.00634554
0.00532249
0.00370695
0.00380023
0.00392904
0.0040346
0.00433144
0.00460147
0.00493166
0.00524593
0.00476844
0.00395894
0.00299557
0.00206055
0.00203282
0.00202271
0.00181631
0.00269173
0.00407196
0.00404452
0.00229798
0.00133948
0.00151513
0.001711
0.0016943
0.00122926
0.000925278
0.00159393
0.00182262
0.00185211
0.00180616
0.00170533
0.001782
0.00286174
0.00440871
0.00484431
0.00501737
0.00518107
0.00529662
0.00536079
0.00538094
0.00539202
0.00540571
0.00541777
0.00543633
0.00541951
0.00530419
0.0046656
0.00293362
0.00171479
0.00159282
0.00175789
0.00188922
0.00200386
0.00170503
0.0010426
0.00166518
0.00213224
0.00245091
0.00247186
0.00230695
0.00223791
0.00352881
0.00469198
0.00553075
0.00570076
0.00577655
0.00571335
0.0057054
0.00558129
0.00554317
0.00486166
0.00347706
0.00380161
0.00408208
0.00412904
0.00422467
0.00436825
0.00426749
0.00403218
0.00588912
0.00679665
0.00688382
0.00702964
0.00694576
0.00682543
0.00651534
0.00616109
0.0051866
0.00388947
0.00245416
0.00250526
0.00266678
0.002641
0.00229865
0.00242207
0.00262902
0.00265541
0.00274235
0.00307579
0.00349365
0.00333248
0.00286768
0.00243577
0.00226788
0.00222012
0.00212987
0.00159517
0.00161921
0.00157415
0.00160023
0.00214953
0.00255828
0.00295055
0.00418521
0.0037332
0.00303584
0.00481595
0.00493563
0.00530396
0.00585933
0.00600428
0.00665362
0.00462799
0.00417002
0.00428372
0.00349915
0.00323871
0.00327312
0.00328541
0.00306165
0.00335123
0.00332189
0.00320186
0.00353502
0.00389578
0.00513724
0.00622526
0.00656859
0.00676726
0.00684922
0.00682477
0.00669329
0.00673636
0.00591821
0.00591476
0.00566421
0.00550125
0.00544328
0.00517354
0.00591894
0.006145
0.00622051
0.00637583
0.00661765
0.00643703
0.00623716
0.00608486
0.00597436
0.00585871
0.00592029
0.00603062
0.00614822
0.00631312
0.00653313
0.00656867
0.00634084
0.00616844
0.00605032
0.00593925
0.00594341
0.00604242
0.00615769
0.00632103
0.00652937
0.00641316
0.00625124
0.00610685
0.00598831
0.00588381
0.00567776
0.00581497
0.00596576
0.00608994
0.00617029
0.00533102
0.00569851
0.00560045
0.00507039
0.00474544
0.00360368
0.00390001
0.00411277
0.00447955
0.00497234
0.00506914
0.00425366
0.00364519
0.00355186
0.00352315
0.00360603
0.00363595
0.00365378
0.00412872
0.00622469
0.00626741
0.00628581
0.00628913
0.00537677
0.0052236
0.00486527
0.00890265
0.00828908
0.00718147
0.00591798
0.00316917
0.0027164
0.00321777
0.00391327
0.00437533
0.00482833
0.00320549
0.00198567
0.00231438
0.0023994
0.0023403
0.00216275
0.00180117
0.00166267
0.00150906
0.00162419
0.00287689
0.00459067
0.00517058
0.00522521
0.00517317
0.00507231
0.00494961
0.00477866
0.00471625
0.00595037
0.00805904
0.00909024
0.00905258
0.00777734
0.00634331
0.00358044
0.00184886
0.00136787
0.00145895
0.00160423
0.00188222
0.00167405
0.00142353
0.00155815
0.0014722
0.00297838
0.00513363
0.00652978
0.0077511
0.00762919
0.0066333
0.00541648
0.00513034
0.00525086
0.00533191
0.00540108
0.00547204
0.00552085
0.00549046
0.0049979
0.00308812
0.00184319
0.00163741
0.00176053
0.0020634
0.00219298
0.00221572
0.0021851
0.0018942
0.00313261
0.00497408
0.00316341
0.00172609
0.00186503
0.0018513
0.00326603
0.003261
0.00319044
0.00496335
0.00524811
0.00523579
0.00491982
0.00469642
0.00278081
0.00315661
0.00316738
0.00318409
0.00323635
0.00163488
0.00178225
0.00183799
0.00197909
0.00173062
0.00219614
0.00056835
0.000788112
0.000915521
0.000995386
0.00107238
0.00105194
0.00201251
0.00204231
0.00194926
0.00189885
0.00240931
0.00258494
0.00264179
0.00243292
0.00224481
0.00238984
0.00239524
0.00225758
0.00213827
0.00221681
0.0022182
0.0021255
0.00180783
0.00169404
0.00185988
0.00183999
0.00182546
0.0032781
0.00327209
0.0030966
0.00508702
0.00500576
0.00560602
0.00556925
0.00556204
0.0055391
0.00559824
0.00562975
0.00565382
0.00568166
0.00567055
0.00561612
0.00782021
0.0055237
0.00482025
0.00278795
0.00268564
0.0018967
0.00166221
0.00195725
0.00209335
0.00226949
0.0022182
0.00233841
0.00233562
0.0024783
0.00230032
0.00204253
0.00312835
0.00334201
0.00326402
0.00332856
0.00325018
0.00323102
0.00320729
0.00316182
0.00310699
0.00184998
0.00181472
0.00212503
0.00223068
0.00239691
0.0024186
0.00247111
0.00234361
0.00206114
0.00199512
0.00229774
0.00226672
0.00231081
0.00217867
0.00216962
0.00193282
0.00198181
0.00399765
0.00738448
0.0037981
0.00421925
0.00382209
0.00434744
0.00380773
0.00328358
0.00336068
0.00295987
0.00308752
0.00323875
0.00329735
0.0034656
0.00408503
0.00393286
0.00345224
0.00335199
0.00328595
0.00309821
0.00278873
0.00292141
0.00294771
0.003011
0.00334632
0.00383964
0.0043043
0.00523211
0.00507733
0.0044471
0.00406601
0.00426478
0.00433795
0.00546209
0.00510328
0.00507261
0.0053505
0.00529692
0.00502757
0.00476369
0.00459812
0.00394685
0.00401152
0.00459155
0.00444321
0.00457934
0.00449934
0.0046777
0.00476288
0.00457143
0.00424822
0.00446595
0.00445646
0.0049494
0.00481338
0.0044649
0.00408456
0.00436623
0.0043132
0.00498303
0.00469042
0.00438653
0.00403781
0.00386767
0.00438989
0.00430939
0.00488705
0.00502874
0.0050311
0.00438564
0.00428325
0.00509494
0.00490178
0.00473498
0.0049324
0.00408428
0.00420028
0.00517538
0.00528374
0.0050131
0.00418484
0.00424822
0.00364174
0.00428419
0.00533334
0.00503755
0.00412864
0.00342529
0.00479318
0.00504247
0.00533525
0.00504152
0.00549099
0.00591484
0.00482048
0.00524426
0.00685402
0.00522863
0.00606781
0.00620253
0.0062394
0.00624306
0.00626777
0.00629982
0.00663819
0.00645949
0.00410512
0.00490954
0.004768
0.00398802
0.00339141
0.00373591
0.00402386
0.0040821
0.00418562
0.00434495
0.00427054
0.00413093
0.00604487
0.00689195
0.00704661
0.00718579
0.00706506
0.00688471
0.00647738
0.00598184
0.00496797
0.00370678
0.00231458
0.00236101
0.00251798
0.00249599
0.00216741
0.00163531
0.00107369
0.00159072
0.00164112
0.0015434
0.00140515
0.00123834
0.00127695
0.00233775
0.00454095
0.00628948
0.00698249
0.00755646
0.00812916
0.00863101
0.00900969
0.00929216
0.00949257
0.00962203
0.00965107
0.00947414
0.00866152
0.00828503
0.0078153
0.00742842
0.00688188
0.00643394
0.00727477
0.00798373
0.0084166
0.00890443
0.00912747
0.00902877
0.00783632
0.00761832
0.00878613
0.0108196
0.00920775
0.0115665
0.0135778
0.0105824
0.0094984
0.00947621
0.0105925
0.0107971
0.0104212
0.00983366
0.00915978
0.00830362
0.00874175
0.00913491
0.00950951
0.00985578
0.0107465
0.010902
0.010816
0.0106322
0.0103996
0.0100984
0.00964392
0.00901017
0.00821887
0.00739637
0.00646143
0.00456553
0.00217002
0.00247913
0.00241982
0.00262284
0.00255734
0.00117762
0.00129645
0.00130934
0.00131438
0.00123868
0.00140592
0.00203812
0.00327866
0.00236234
0.00193961
0.00135484
0.00159864
0.00266646
0.00452428
0.00509031
0.00518639
0.00574108
0.0073745
0.00801212
0.00844472
0.00880678
0.00901054
0.00890314
0.00863511
0.0081564
0.00757069
0.00732312
0.00692273
0.0065494
0.00633743
0.00611913
0.00574443
0.00453429
0.00432226
0.00449959
0.00444609
0.00425659
0.00454629
0.00470927
0.00470421
0.00475547
0.00480024
0.00494102
0.00510688
0.00525116
0.00532655
0.00535418
0.00536258
0.00537323
0.00538171
0.00539807
0.00537982
0.00526213
0.00462076
0.00288999
0.00168731
0.00156023
0.00171071
0.00180911
0.00185125
0.00164397
0.0010582
0.00164466
0.0021286
0.00218305
0.0023946
0.00246979
0.00261733
0.00291541
0.00336911
0.00347643
0.0030852
0.00292291
0.00286083
0.00278801
0.00238656
0.00297287
0.00327837
0.00327191
0.00324064
0.003502
0.00430955
0.00413959
0.00365053
0.00360999
0.00357373
0.00323176
0.00318095
0.00347633
0.00351462
0.00364626
0.00427579
0.00512807
0.0047568
0.00433209
0.00415201
0.00383395
0.0033724
0.00304927
0.00375601
0.00308068
0.00161617
0.00137317
0.00137552
0.00138021
0.00133029
0.0015726
0.0016505
0.00166842
0.00155019
0.00172261
0.00191869
0.00185809
0.00211574
0.00208417
0.00186043
0.00184403
0.00199892
0.00211403
0.00217248
0.00223167
0.00363793
0.00374721
0.00290462
0.00419397
0.00484789
0.00483161
0.00511642
0.00420739
0.00376063
0.00446206
0.0051688
0.00594915
0.00469986
0.00443491
0.00454832
0.0020891
0.00109905
0.00155091
0.00192475
0.00214149
0.00207552
0.00196048
0.00165724
0.00293831
0.00301871
0.00478088
0.00536226
0.00542567
0.00539248
0.00558505
0.00619872
0.00725645
0.00791998
0.00811243
0.00798976
0.00766076
0.00705198
0.00645368
0.00639098
0.00616003
0.00597931
0.00591848
0.00515271
0.00453493
0.00483692
0.00476109
0.00491993
0.00499319
0.0050458
0.00509942
0.00518986
0.00529902
0.00539779
0.00546487
0.0055093
0.0055469
0.00558573
0.00562499
0.00566757
0.00569022
0.00563582
0.00509344
0.00305702
0.00182344
0.00166389
0.00177539
0.00208652
0.00219673
0.00236098
0.00209698
0.00110468
0.00129853
0.00225693
0.00250134
0.00231393
0.00216572
0.00212734
0.00178212
0.00322598
0.00318323
0.00499206
0.00561349
0.00569147
0.00567544
0.00563132
0.00558186
0.0055364
0.00549938
0.00547039
0.00543947
0.00539446
0.00533971
0.00528697
0.00523336
0.00514249
0.00500965
0.00487865
0.00509006
0.00522587
0.00543191
0.0056869
0.00583165
0.00573297
0.00556219
0.00546786
0.00548637
0.00553133
0.0055797
0.0056235
0.00564466
0.00558365
0.00526422
0.00494232
0.00313268
0.00317336
0.00156352
0.00173709
0.00200428
0.00206986
0.0022487
0.00223909
0.00176141
0.00137183
0.00154691
0.00144547
0.00258144
0.00283791
0.00314606
0.00311467
0.00169313
0.00173611
0.00180431
0.00203626
0.00189333
0.00182925
0.00449683
0.00431079
0.00451482
0.0055424
0.0047748
0.00329928
0.00361894
0.00503415
0.00530783
0.00321117
0.00240739
0.00267229
0.00338531
0.00498144
0.00504278
0.00478967
0.00476405
0.00348252
0.0042795
0.00514417
0.00500356
0.00390716
0.00269275
0.00200317
0.000975287
0.00185544
0.00158713
0.00388244
0.00429544
0.00424402
0.00464117
0.00493099
0.00498179
0.00484081
0.00429499
0.00437957
0.0044225
0.00503749
0.00505977
0.00428561
0.0036178
0.00294052
0.00296626
0.00302327
0.00335022
0.00419494
0.00395237
0.00346432
0.00335977
0.00328775
0.00309323
0.00279165
0.00244941
0.00246612
0.00229533
0.00222137
0.00350159
0.00466101
0.00549642
0.00565477
0.0057124
0.00562517
0.0055858
0.00542646
0.00534412
0.00464289
0.0059259
0.00626303
0.00604363
0.00608824
0.00612605
0.00617246
0.00617301
0.00605669
0.00520521
0.00310884
0.00203084
0.00229232
0.00247434
0.00232367
0.00231047
0.00246233
0.00233632
0.00205213
0.00332468
0.00324938
0.00519491
0.00588232
0.00600829
0.0060156
0.00599123
0.00597095
0.00597838
0.00629315
0.00615074
0.00623871
0.00657816
0.00658917
0.00666722
0.00625867
0.00617813
0.00612648
0.00609183
0.00603593
0.00588742
0.00520975
0.0050506
0.00573577
0.00591289
0.00599186
0.00604696
0.00611279
0.00619906
0.00644596
0.00662998
0.0066989
0.00641816
0.00631444
0.00616662
0.00595753
0.0059087
0.00589921
0.00589528
0.00586728
0.00571562
0.00503203
0.00323596
0.00331596
0.00197275
0.00198572
0.00228721
0.00240249
0.0023598
0.00218538
0.0021308
0.0036582
0.00416399
0.00443034
0.00477119
0.00455682
0.00453066
0.00517948
0.00501257
0.00447308
0.00465291
0.00417017
0.00397502
0.00384156
0.00386117
0.00203702
0.00219799
0.00229248
0.00225427
0.00215556
0.00192249
0.00176294
0.00321696
0.00319344
0.00315154
0.00187466
0.00183367
0.00216037
0.00209817
0.0019195
0.00163618
0.00179355
0.00276805
0.00309593
0.00479952
0.00497142
0.00532216
0.00569073
0.00582966
0.00586658
0.00588839
0.00591387
0.00596937
0.00603627
0.00605662
0.00605789
0.00611892
0.00610961
0.00611005
0.00607673
0.00603859
0.00599432
0.00594718
0.00587047
0.00571352
0.00533862
0.00497129
0.00560488
0.00565682
0.00576283
0.00587267
0.00592024
0.00592887
0.00590892
0.00586761
0.00581838
0.00576076
0.00575816
0.00591106
0.005947
0.00597261
0.00595239
0.00593154
0.00592529
0.00590109
0.00586084
0.00575394
0.00564602
0.0055995
0.00550586
0.00565312
0.00571842
0.00572807
0.00578262
0.00586999
0.00589263
0.00588933
0.0058454
0.00581003
0.00576607
0.00569281
0.0055964
0.00527322
0.00534361
0.0054326
0.005549
0.0056615
0.00575226
0.0058028
0.00580512
0.00575088
0.00571432
0.00571516
0.00566665
0.00569206
0.00571847
0.00569033
0.00568817
0.00569392
0.00563079
0.00551463
0.00535245
0.00518069
0.00503864
0.00496606
0.00484628
0.00522052
0.00536563
0.00549363
0.00560673
0.00571014
0.00581591
0.00585161
0.00584371
0.00577973
0.00574352
0.00574216
0.00568679
0.00568447
0.00573802
0.00574004
0.00577027
0.00582622
0.00580639
0.00572624
0.0055281
0.00533688
0.00517132
0.00501355
0.00484303
0.00480362
0.00488179
0.00481538
0.00488245
0.00505215
0.00526448
0.00544732
0.00556321
0.00559871
0.00563196
0.00568192
0.00567542
0.00564533
0.00562989
0.00556226
0.00550372
0.00543139
0.00527093
0.00506507
0.00488291
0.00482489
0.00492359
0.00502269
0.00493139
0.00457655
0.00475717
0.00492394
0.00509053
0.00532823
0.00560414
0.00572881
0.00577382
0.00574794
0.00572761
0.00572516
0.00567448
0.00565728
0.0057038
0.00570668
0.00572688
0.00576089
0.00571946
0.00561488
0.00527445
0.00487668
0.00468643
0.00457597
0.00441858
0.00495536
0.00505917
0.00493243
0.00484754
0.00497853
0.00513144
0.00529057
0.00539578
0.00543629
0.00549368
0.00556961
0.00560528
0.00555064
0.00548808
0.00541035
0.00537071
0.00537082
0.00534309
0.00523972
0.00511994
0.00498246
0.00515157
0.00525261
0.00515777
0.00465825
0.00473406
0.00483873
0.00489349
0.00526444
0.00560214
0.0056892
0.00570116
0.00567059
0.00565102
0.00565356
0.00562467
0.00557009
0.00555877
0.0055505
0.00561046
0.0056879
0.00572191
0.00573618
0.00548169
0.00504418
0.00498762
0.00479068
0.00469569
0.00522721
0.00528779
0.00516356
0.00504978
0.00529025
0.00539313
0.00542336
0.00540328
0.00534692
0.00530863
0.00537542
0.00548095
0.00539982
0.00505107
0.00474029
0.00490062
0.00493926
0.0049257
0.00485812
0.00474718
0.00450739
0.00503427
0.00555086
0.00559304
0.00503216
0.00503922
0.00487196
0.00451711
0.00494004
0.00517712
0.00523421
0.00522412
0.00515322
0.00496375
0.00524764
0.0054959
0.00544987
0.00493138
0.00319963
0.00324451
0.00326926
0.00327377
0.00323124
0.00321975
0.00317337
0.00314979
0.00307751
0.00300461
0.0029339
0.00312932
0.00329551
0.0035199
0.00353879
0.00363192
0.00348056
0.00329791
0.00308239
0.00239813
0.00304334
0.00363153
0.00385722
0.00414791
0.00420832
0.00484843
0.00509971
0.00523817
0.00514086
0.0041239
0.00349878
0.00279625
0.00181852
0.00113315
0.00133053
0.00138437
0.0014611
0.00179517
0.00329227
0.00168398
0.0023321
0.00182184
0.0031363
0.0016669
0.0010389
0.000689225
0.000882136
0.00104958
0.00106082
0.00101507
0.000845393
0.000662812
0.00067735
0.000630672
0.000669783
0.000601553
0.000688765
0.00064151
0.000882107
0.00128686
0.00150145
0.00153949
0.00124652
0.00141008
0.00117835
0.00136145
0.00121704
0.00132734
0.00127371
0.00155802
0.00170752
0.00163415
0.00163789
0.00143323
0.00100238
0.00116208
0.00091312
0.00109673
0.000839377
0.00108349
0.000929323
0.00120765
0.00124487
0.00124122
0.00119498
0.00091281
0.00108177
0.000852096
0.00105089
0.000865514
0.000927333
0.000772566
0.00112455
0.00114619
0.00105562
0.0011269
0.00126665
0.001357
0.00148789
0.00140119
0.00159151
0.00153175
0.00154534
0.00146446
0.00142501
0.0013929
0.0013962
0.00137333
0.00138067
0.00142483
0.00142641
0.00143151
0.00147578
0.00145404
0.00141795
0.00139581
0.00124039
0.00100179
0.00174549
0.00179999
0.00182814
0.0018286
0.00178912
0.00176754
0.0017032
0.00168654
0.00163168
0.00160133
0.00152855
0.00147092
0.00140362
0.00157839
0.000883962
0.0010039
0.00105976
0.00109195
0.00111344
0.00112363
0.00113104
0.00112438
0.00110991
0.00108317
0.00107489
0.00104547
0.00133671
0.00152046
0.00159079
0.00161033
0.00150946
0.00143818
0.00315927
0.00382688
0.0058033
0.00593108
0.00445979
0.00444324
0.00153271
0.00162204
0.00110826
0.00155747
0.00160633
0.00159009
0.00150191
0.0010832
0.00162549
0.00113368
0.00152314
0.00114782
0.00140865
0.00118024
0.00169027
0.00215923
0.00208764
0.00189267
0.00130755
0.00108991
0.00109822
0.000936349
0.00102623
0.000834454
0.00101619
0.000850558
0.00123906
0.00172675
0.00194346
0.00198507
0.00156676
0.00216343
0.00162719
0.00235893
0.00187716
0.00231941
0.00186337
0.00215457
0.00266644
0.00267893
0.00261539
0.00210792
0.00168711
0.00189442
0.00167761
0.00193329
0.00279722
0.00183303
0.00278927
0.00115157
0.00157035
0.00161936
0.00159778
0.001507
0.00101533
0.00258276
0.00136703
0.00242439
0.00156944
0.00250586
0.00183066
0.00243926
0.00291612
0.00305602
0.00304904
0.00248867
0.00225178
0.00234204
0.0018714
0.00224787
0.00166515
0.00241195
0.00135938
0.00175935
0.00193375
0.0020394
0.00204506
0.00167689
0.00331784
0.00208538
0.0031485
0.00219244
0.00281079
0.00225346
0.00246255
0.00290915
0.00289052
0.00286552
0.00242962
0.00196772
0.00259831
0.00185138
0.0556881
0.128271
0.0511993
0.129679
0.0586106
0.0832375
0.0820002
0.082158
0.0824827
0.0619636
0.135259
0.159719
0.166509
0.168518
0.167267
0.270282
0.220428
0.331103
0.214605
0.126469
0.0549622
0.0756792
0.194994
0.321765
0.48289
0.612751
0.417587
0.432288
0.275852
0.272016
0.256185
0.207371
0.127341
0.0639111
0.0109098
0.011925
0.0170786
0.0227561
0.0178564
0.0108895
0.00215152
0.00221919
0.00226798
0.00229769
0.00228793
0.00223705
0.00226992
0.00214043
0.00200785
0.00224006
0.00244228
0.00270669
0.00316294
0.00348817
0.00314034
0.00344117
0.00364735
0.0038151
0.00395343
0.00415953
0.00439181
0.00459639
0.00460729
0.00422113
0.00359692
0.00292606
0.00246029
0.00233141
0.00218965
0.00193114
0.0017669
0.00165509
0.00160072
0.00157812
0.0016216
0.00177187
0.00190191
0.0019474
0.0019087
0.00187369
0.00184314
0.00164117
0.0019187
0.00263193
0.0026534
0.00454589
0.00523823
0.00534703
0.00535431
0.00474778
0.00303328
0.00303999
0.00305557
0.00311389
0.00312604
0.00313389
0.00313054
0.00311918
0.00310097
0.00306696
0.00305017
0.00300123
0.00295995
0.00285714
0.00286183
0.00290005
0.00292963
0.00288228
0.00289512
0.002833
0.00365149
0.00489193
0.00554025
0.00579197
0.00600927
0.00583366
0.0080724
0.0068915
0.0048534
0.00479492
0.00473309
0.00561731
0.0056562
0.0050961
0.00511371
0.00466005
0.00290435
0.00288725
0.00288876
0.00308227
0.00314062
0.00324959
0.00327899
0.00330781
0.0033238
0.00332228
0.00332121
0.00329658
0.00327573
0.00320467
0.00318071
0.00317097
0.00174839
0.00190753
0.0019771
0.00198908
0.00201511
0.00200232
0.00198918
0.00196513
0.00194824
0.00191579
0.00187728
0.00182315
0.00171661
0.00156512
0.00172388
0.00293047
0.0029319
0.00479342
0.00540292
0.0054438
0.00607269
0.00576497
0.00546031
0.00586585
0.00528285
0.00523912
0.00473643
0.00293821
0.00297726
0.00176457
0.00174648
0.00204002
0.00198144
0.00211566
0.00217169
0.00217843
0.00220817
0.00223798
0.00227382
0.00233031
0.00234823
0.002315
0.00230976
0.00217793
0.00188291
0.001906
0.00224586
0.00235317
0.00218342
0.00214225
0.00212487
0.00207403
0.00203451
0.00199608
0.00202267
0.00217832
0.00217829
0.00214206
0.00204064
0.00199014
0.00172843
0.00167316
0.00291977
0.00294302
0.00482924
0.00499322
0.00497196
0.00571724
0.00636332
0.00724015
0.00617418
0.00500944
0.00515631
0.00588594
0.0043584
0.00360091
0.00213965
0.00164602
0.00198423
0.00192762
0.00200485
0.00207695
0.00184352
0.00197701
0.00182654
0.00165928
0.00164982
0.00164743
0.00168855
0.00170555
0.00173644
0.00174046
0.00178142
0.00177742
0.00178338
0.00180534
0.00181717
0.00200793
0.00218449
0.00183733
0.0015574
0.00151548
0.00143088
0.00136164
0.00139473
0.00136221
0.00135409
0.00132938
0.00130707
0.00124723
0.00130015
0.00137979
0.00161446
0.00154719
0.00125039
0.001117
0.0007638
0.000777831
0.000783223
0.000807441
0.000816153
0.000826904
0.000830839
0.000844321
0.000846885
0.000851079
0.000850707
0.000870833
0.000867804
0.000857889
0.000851392
0.000855884
0.000860089
0.000859543
0.00125837
0.00140145
0.00153241
0.00182073
0.00214468
0.00184508
0.00156288
0.00134631
0.000865558
0.000878815
0.000894921
0.00090324
0.000922516
0.000940103
0.000959799
0.000972345
0.000981859
0.00099189
0.00100238
0.00100692
0.0010047
0.000985768
0.000974527
0.000999745
0.00109885
0.0011564
0.00122995
0.00125783
0.00128232
0.00129494
0.00128827
0.00130135
0.00128558
0.00128327
0.00126069
0.00125091
0.00124138
0.00122961
0.00121522
0.00118023
0.00116847
0.00122969
0.00208055
0.00272115
0.00313776
0.00345806
0.00317848
0.00256093
0.00271265
0.00475605
0.00448899
0.00266524
0.00248008
0.0022789
0.00197774
0.00176589
0.00213592
0.00243507
0.00266289
0.00286459
0.00304891
0.00317387
0.00333393
0.00354244
0.00391175
0.00395817
0.00361039
0.00292608
0.0024779
0.00231517
0.00223712
0.00210063
0.00195161
0.00200056
0.00201507
0.00195514
0.00188068
0.00185942
0.00188999
0.0019286
0.00190534
0.0019046
0.00170151
0.00170097
0.00290643
0.00296218
0.00455633
0.00480047
0.00484674
0.00311621
0.0030735
0.00179524
0.00166731
0.0018189
0.00188815
0.00189204
0.00189963
0.00188993
0.0018567
0.00183254
0.00180423
0.00178152
0.00176159
0.00172709
0.00166126
0.00153457
0.00167275
0.00187551
0.00195792
0.00197887
0.0019888
0.00201991
0.00207156
0.00211276
0.00220841
0.00221818
0.00221732
0.00222516
0.00207995
0.002145
0.00181542
0.00181282
0.003142
0.00313354
0.00180022
0.00212563
0.00214003
0.00211527
0.00227734
0.00208395
0.0020179
0.00200714
0.00192223
0.00187709
0.00181676
0.00178108
0.00181647
0.00193304
0.00187243
0.00165958
0.00160137
0.00179533
0.00172585
0.00143163
0.00122289
0.001189
0.00113799
0.00110704
0.00116019
0.00120172
0.00122537
0.00125541
0.00126429
0.00131949
0.00128377
0.00134716
0.00142862
0.00149343
0.00177146
0.0019198
0.00173436
0.00170113
0.00168004
0.00167822
0.00168355
0.00161426
0.00160972
0.00157391
0.00155629
0.00150937
0.00148832
0.00146159
0.00146658
0.00148231
0.00162984
0.00419745
0.00534906
0.00557006
0.00950585
0.00384615
0.0039272
0.00770262
0.00318518
0.00479007
0.00513237
0.00536549
0.00560345
0.00512864
0.00650896
0.00454789
0.00506203
0.00528427
0.00465502
0.00172638
0.00193455
0.00224881
0.00202248
0.00178708
0.0012185
0.00131465
0.0013581
0.00139329
0.00141631
0.00144163
0.00146882
0.00149425
0.00151211
0.00151241
0.00146651
0.001417
0.00130327
0.00126538
0.00131434
0.00136493
0.00119906
0.00112909
0.00114246
0.00116131
0.00117191
0.00117419
0.00118577
0.0011889
0.00120715
0.00119745
0.00120668
0.00118605
0.00119657
0.00118087
0.00114058
0.00108403
0.000987927
0.000964385
0.00138903
0.00147921
0.00155407
0.00176367
0.00203675
0.00217348
0.00194824
0.00179675
0.0017247
0.00191327
0.00191345
0.00347576
0.00667604
0.00298826
0.00334815
0.00975428
0.00387825
0.00301783
0.00306339
0.00309552
0.00309978
0.00180139
0.00213342
0.0020683
0.00207668
0.00176123
0.00147873
0.00132638
0.00118595
0.00080423
0.000801576
0.000807629
0.000820024
0.000823889
0.00078867
0.000788581
0.000784098
0.000782354
0.000765774
0.00076116
0.000747688
0.000739524
0.000720088
0.000709576
0.000691071
0.000687642
0.000714801
0.000792955
0.000957785
0.00106913
0.00121362
0.00123658
0.00139734
0.00348038
0.00402788
0.00555295
0.00549708
0.00866701
0.00541602
0.00409114
0.0037014
0.00541578
0.0055974
0.00521113
0.00705831
0.00488173
0.00322907
0.00480713
0.0039884
0.00480336
0.00468916
0.00496194
0.00786488
0.00827569
0.00233312
0.00208004
0.0021886
0.00248307
0.0029482
0.00271268
0.00309131
0.00308426
0.00237623
0.00152409
0.00485779
0.00587283
0.00469497
0.0056164
0.00867736
0.00349312
0.00340722
0.00301462
0.00251607
0.00228683
0.00225591
0.00251541
0.00301028
0.0075457
0.00807229
0.00740361
0.0073729
0.00670606
0.00741258
0.00923195
0.00919316
0.00811341
0.00758633
0.00784884
0.0048486
0.00304322
0.00353819
0.00391716
0.00522587
0.00538911
0.0113607
0.00386304
0.0042643
0.00432968
0.00579175
0.00561284
0.00990677
0.0042048
0.00453117
0.00597106
0.00797086
0.014674
0.00536855
0.00565058
0.00812245
0.00824487
0.00754014
0.00545651
0.00494495
0.00538345
0.00405639
0.003966
0.00338806
0.00500217
0.00672389
0.00532044
0.00516639
0.00439404
0.00391752
0.00400677
0.00415705
0.00345393
0.00340698
0.00393249
0.00292316
0.00281676
0.00299472
0.000828831
0.000424866
0.000434418
0.000445733
0.000454887
0.000464314
0.000471203
0.000479374
0.000483048
0.000483455
0.000484701
0.00051254
0.000507774
0.000491705
0.000446482
0.00050948
0.000808513
0.00080905
0.000508895
0.000448633
0.000804983
0.00128259
0.00151199
0.00178872
0.0018108
0.00156237
0.00135469
0.000833914
0.000820815
0.000497532
0.000581066
0.000631028
0.000559701
0.000624646
0.000578959
0.000613263
0.000619659
0.000573364
0.000570156
0.000572348
0.00056801
0.000557929
0.000545592
0.000530501
0.000518542
0.000511782
0.000506317
0.000494738
0.000412107
0.00038374
0.000460268
0.000732535
0.000731403
0.000686056
0.000647729
0.000615194
0.000600649
0.000596818
0.000593733
0.000604137
0.000623643
0.000629162
0.000634713
0.000683902
0.000662505
0.000707617
0.000664068
0.000709465
0.000665905
0.000612566
0.000514347
0.000530656
0.000856052
0.000865151
0.0013977
0.0015989
0.00181322
0.00182249
0.00203477
0.00214314
0.00181503
0.00188434
0.00215937
0.00201103
0.00179229
0.0017993
0.00161837
0.00161989
0.00143492
0.00089682
0.000884653
0.000555608
0.000539609
0.000643432
0.000632185
0.000703106
0.000752484
0.000752749
0.00075032
0.000731513
0.000724766
0.000637344
0.000624809
0.000625623
0.000606662
0.000602388
0.000627473
0.00068356
0.000801218
0.000968764
0.00105517
0.00109267
0.00104873
0.000939419
0.000692162
0.000626318
0.0010846
0.00112703
0.00200994
0.00477605
0.00220378
0.0042521
0.00306806
0.000764567
0.00085348
0.00108841
0.00121963
0.00131657
0.0013716
0.00125269
0.00104456
0.000786492
0.000649815
0.000972206
0.000840757
0.000950283
0.000830031
0.00107412
0.001242
0.00120161
0.00121074
0.0010233
0.000833718
0.000882911
0.000792793
0.000873853
0.000731648
0.000880295
0.000794818
0.000998809
0.00100821
0.000987252
0.000935806
0.000712551
0.00074764
0.000627127
0.000680318
0.000610807
0.000631371
0.000598293
0.000697727
0.000804011
0.000771652
0.000768646
0.000631567
0.000494906
0.000546613
0.000472709
0.000535009
0.000415849
0.000503746
0.000422426
0.000546826
0.000563587
0.000566226
0.000562033
0.000456803
0.000537283
0.00065922
0.000692765
0.000698699
0.000665519
0.000513192
0.000793989
0.000716336
0.000874677
0.000756527
0.000828216
0.000754202
0.00087912
0.00112587
0.00117541
0.00118318
0.000959927
0.000953888
0.00174077
0.0965372
0.00156592
0.00185086
0.00190863
0.0019018
0.0015725
0.00153411
0.0019002
0.00140565
0.00199064
0.00125341
0.0021231
0.000809273
0.00123023
0.00132078
0.00131791
0.00122471
0.000820757
0.00242629
0.119476
0.308284
0.334317