/*--------------------------------*- C++ -*----------------------------------*\
| =========                 |                                                 |
| \\      /  F ield         | OpenFOAM: The Open Source CFD Toolbox           |
|  \\    /   O peration     | Version:  v2012                                 |
|   \\  /    A nd           | Website:  www.openfoam.com                      |
|    \\/     M anipulation  |                                                 |
\*---------------------------------------------------------------------------*/
FoamFile
{
    version     2.0;
    format      ascii;
    class       volScalarField;
    location    "145";
    object      alphat;
}
// * * * * * * * * * * * * * * * * * * * * * * * * * * * * * * * * * * * * * //

dimensions      [1 -1 -1 0 0 0 0];


internalField   nonuniform List<scalar> 
18258
(
0.0048456
0.00210388
0.00172039
0.00148739
0.000989026
0.00161658
0.00224628
0.00267575
0.0028089
0.0027872
0.00288765
0.00487516
0.00684359
0.00846006
0.00888827
0.00887417
0.00805516
0.00769091
0.00834688
0.0102672
0.00863862
0.00553306
0.00662993
0.00766033
0.00833183
0.00737798
0.00596393
0.00552417
0.00500186
0.00416888
0.00349385
0.00237844
0.00175478
0.00162736
0.00147396
0.00167958
0.0018288
0.00194934
0.00199361
0.0020252
0.00201142
0.00199996
0.0019459
0.00191316
0.00185728
0.00153793
0.00186833
0.00190263
0.00208204
0.00288114
0.00309752
0.00260648
0.00288549
0.00257426
0.0016969
0.0019426
0.00210876
0.00215411
0.00212625
0.00203782
0.00200794
0.00198262
0.00195057
0.00191254
0.00188929
0.00190806
0.00192765
0.00190654
0.00181272
0.00173675
0.0016139
0.00149083
0.00139963
0.00132898
0.00127569
0.00121659
0.00115017
0.00101034
0.000936408
0.00123985
0.00155638
0.00166274
0.00235638
0.00287263
0.00289161
0.00216554
0.00154374
0.00160207
0.00178111
0.00179927
0.00152544
0.00181331
0.00205311
0.00212775
0.00221672
0.0024775
0.00282372
0.00275508
0.00245492
0.00226474
0.00218761
0.00251867
0.00240312
0.00311832
0.00313264
0.00271718
0.00254397
0.00285889
0.00368582
0.00395782
0.00307133
0.00288573
0.0028299
0.0027944
0.00252804
0.00261629
0.00237594
0.00214093
0.00233157
0.00281685
0.00267242
0.00291936
0.00302452
0.00283702
0.00328655
0.00378912
0.00373446
0.0029887
0.00243756
0.00227229
0.00228947
0.00140035
0.00151209
0.00162902
0.00166893
0.00169695
0.00172078
0.00183553
0.00183142
0.00180473
0.00180069
0.00183164
0.00100976
0.00109419
0.00112127
0.00112907
0.00107208
0.00106094
0.0010411
0.00102498
0.000966677
0.000925084
0.00110686
0.00124275
0.00135337
0.00148267
0.00167576
0.00191234
0.00216126
0.00241304
0.00257987
0.00262776
0.00267613
0.00257936
0.00248213
0.00257098
0.00258606
0.00256943
0.00253486
0.00249127
0.00243247
0.0023247
0.0024499
0.00244322
0.00229515
0.00196661
0.00201046
0.00200678
0.00205883
0.00204799
0.00206844
0.00203899
0.00200453
0.00190821
0.00177377
0.00147646
0.00144
0.0014581
0.00187249
0.00227333
0.00351175
0.00428417
0.00497461
0.00532382
0.00569848
0.00460966
0.00513009
0.00395377
0.00354974
0.00451191
0.00590309
0.00336772
0.00183829
0.00348633
0.003092
0.00224242
0.00199584
0.00205645
0.00206004
0.00236606
0.00272812
0.0030284
0.00317442
0.00330319
0.00340627
0.00351988
0.00366353
0.00370284
0.00357717
0.00302754
0.00364896
0.00296202
0.00345717
0.00312127
0.00210482
0.0022355
0.00236866
0.00216683
0.00210725
0.00201879
0.0018153
0.0022308
0.00289681
0.00336292
0.00384477
0.0051249
0.00474155
0.00454885
0.00352237
0.00340611
0.00176863
0.00252379
0.00261228
0.00293708
0.00195289
0.00178138
0.00169024
0.00224246
0.00259805
0.00306623
0.00340148
0.0040413
0.00313168
0.00357314
0.00323117
0.00225018
0.00216741
0.00310537
0.00334598
0.00275279
0.00246192
0.00308841
0.00292258
0.00207294
0.00166275
0.00255287
0.00264369
0.00189444
0.00470886
0.00501581
0.00480426
0.00586825
0.00734526
0.0083729
0.00779222
0.00690903
0.00772103
0.00612979
0.00593367
0.00632963
0.00530887
0.00370789
0.0038019
0.0039316
0.00403711
0.00433359
0.00460307
0.0049325
0.00524592
0.00476741
0.00395716
0.00299374
0.00205952
0.00203183
0.00202167
0.00181542
0.00269057
0.00407105
0.00404368
0.00229918
0.00134098
0.00151683
0.00171271
0.00169611
0.00123106
0.000926187
0.00159527
0.00182386
0.00185316
0.001807
0.00170597
0.00178257
0.00286248
0.00440964
0.0048451
0.00501815
0.00518198
0.00529776
0.00536225
0.00538273
0.00539406
0.00540783
0.0054198
0.00543809
0.00542085
0.005305
0.00466579
0.00293325
0.00171456
0.00159268
0.00175773
0.00188903
0.00200363
0.00170482
0.00104234
0.00166489
0.00213176
0.00245021
0.00247109
0.00230617
0.00223712
0.00352752
0.00469009
0.00552803
0.0056975
0.00577273
0.005709
0.00570033
0.00557544
0.00553613
0.00485421
0.00347438
0.00379867
0.00407875
0.00412584
0.00422135
0.00436463
0.00426328
0.00402748
0.00588891
0.0067951
0.00688191
0.00702831
0.00694536
0.00682597
0.00651618
0.00616198
0.0051874
0.00389008
0.00245441
0.00250553
0.00266718
0.00264154
0.0022994
0.00242256
0.00262886
0.00265517
0.00274194
0.00307448
0.00349175
0.00333067
0.00286607
0.00243375
0.00226637
0.00221897
0.00212919
0.00159497
0.00161861
0.00157323
0.00159892
0.00214795
0.00255666
0.00294846
0.00418195
0.00373067
0.00303404
0.00480969
0.00492802
0.00529275
0.00584626
0.00599076
0.00663458
0.00462281
0.00416766
0.00428142
0.00349751
0.00323771
0.00327257
0.00328496
0.00306214
0.00335159
0.00332219
0.00320227
0.00353554
0.00389511
0.00513629
0.0062236
0.00656663
0.00676485
0.00684576
0.00681995
0.00668701
0.00672912
0.00591026
0.00590301
0.00565287
0.00549007
0.00543211
0.00516268
0.00590974
0.00613499
0.00621045
0.00636582
0.00660802
0.00642907
0.00622864
0.00607627
0.00596601
0.00585111
0.00591365
0.00602331
0.00614061
0.00630569
0.00652652
0.00656329
0.00633442
0.00616174
0.00604387
0.00593339
0.00593821
0.0060367
0.00615181
0.00631548
0.00652497
0.00640938
0.00624638
0.00610172
0.00598327
0.00587924
0.00567385
0.0058106
0.00596129
0.00608577
0.00616705
0.00532854
0.00569495
0.00559664
0.00506696
0.00474257
0.00360164
0.00389774
0.00411009
0.00447666
0.00496927
0.00506622
0.00425171
0.00364378
0.00355115
0.00352255
0.00360546
0.00363524
0.00365247
0.00412683
0.00621107
0.00625368
0.00627249
0.00627545
0.0053682
0.00521632
0.00485951
0.00887023
0.00826007
0.00715995
0.00590558
0.00316709
0.00271488
0.00321596
0.00391064
0.00437211
0.00482425
0.00320275
0.00198384
0.00231186
0.00239734
0.00233924
0.00216265
0.0018018
0.00166311
0.00150946
0.00162431
0.00287585
0.00458914
0.00516991
0.00522573
0.00517502
0.00507571
0.00495523
0.00478749
0.00471831
0.00593267
0.00800674
0.00907734
0.00904613
0.00777454
0.0063249
0.00355285
0.00180892
0.00129994
0.00145842
0.00159694
0.00188388
0.001689
0.0013818
0.00151163
0.0014463
0.00293842
0.00509377
0.00651912
0.00773613
0.00760132
0.00659397
0.00541072
0.0051365
0.0052557
0.00533418
0.00540207
0.00547193
0.00551963
0.00548808
0.0049945
0.00308552
0.0018422
0.00163695
0.00176038
0.00206309
0.00219183
0.00221387
0.00218292
0.0018925
0.00312995
0.00497041
0.00316094
0.00172459
0.00186332
0.0018498
0.00326266
0.00325772
0.00318777
0.00495974
0.00524465
0.00523152
0.0049152
0.00469205
0.00277797
0.00315283
0.00316356
0.00318044
0.00323275
0.00163329
0.00178028
0.00183561
0.00197602
0.00172767
0.00219452
0.000567881
0.000787209
0.000914502
0.000994748
0.00107187
0.00105157
0.00201208
0.00204176
0.00194828
0.00189645
0.00240651
0.00258286
0.00264006
0.00243176
0.00224385
0.00238834
0.0023934
0.0022553
0.00213639
0.0022153
0.00221703
0.00212474
0.00180726
0.00169349
0.00185903
0.0018389
0.00182406
0.00327514
0.0032697
0.00309483
0.00508421
0.00500168
0.00560256
0.00556563
0.00555909
0.00553631
0.00559641
0.00562759
0.00565109
0.00567922
0.00566926
0.00561394
0.0077893
0.00552444
0.00482028
0.00278749
0.00268513
0.00189641
0.00166202
0.00195699
0.00209302
0.00226908
0.00221776
0.00233789
0.00233505
0.00247763
0.0022996
0.00204187
0.00312722
0.00334075
0.00326298
0.00332755
0.00324948
0.00323042
0.00320682
0.00316138
0.00310651
0.0018498
0.00181455
0.00212476
0.00223032
0.00239644
0.00241808
0.00247052
0.00234291
0.00206045
0.00199455
0.00229716
0.00226624
0.0023104
0.00217837
0.00216929
0.00193246
0.00198131
0.00399246
0.00735281
0.00379391
0.00421316
0.00381857
0.0043415
0.00380401
0.00328165
0.00335877
0.00295861
0.00308617
0.00323701
0.00329549
0.00346344
0.00408255
0.00393046
0.00345014
0.00335015
0.00328428
0.00309693
0.00278761
0.00291988
0.00294599
0.00300906
0.00334434
0.00383512
0.00429884
0.00522017
0.00506619
0.00444021
0.00405937
0.00425681
0.00433084
0.00544882
0.00509119
0.00506085
0.00533756
0.00528445
0.00501499
0.00475281
0.00458829
0.00394155
0.00400596
0.00458287
0.00443537
0.00457107
0.00449173
0.00466967
0.00475522
0.0045642
0.00424245
0.00446032
0.00445124
0.00494206
0.00480578
0.00445915
0.00407944
0.0043607
0.00430863
0.00497594
0.00468304
0.00437995
0.00403315
0.00386403
0.00438515
0.00430473
0.00487968
0.00502188
0.00502405
0.00438096
0.00427854
0.00508661
0.00489196
0.00472778
0.00492441
0.00407975
0.00419497
0.00516552
0.00527306
0.00500438
0.00417942
0.00424225
0.00363738
0.00427729
0.00532144
0.00502694
0.0041217
0.0034213
0.00478394
0.00503118
0.00532105
0.00503037
0.00547501
0.00589613
0.00480947
0.00523119
0.00682907
0.00522636
0.00606386
0.0061974
0.00623315
0.00623564
0.006259
0.00628948
0.00662534
0.00644362
0.00410019
0.00490175
0.00476427
0.00398708
0.00339236
0.00373588
0.00402337
0.00408131
0.00418464
0.00434362
0.00426859
0.00412598
0.00604392
0.00689706
0.00704532
0.00718442
0.00706694
0.00689399
0.00649361
0.00600513
0.00499206
0.00372406
0.00232587
0.00237103
0.00252671
0.00250273
0.00217097
0.00163733
0.00107628
0.00159659
0.00165146
0.00155633
0.0014199
0.00125604
0.00130324
0.00236606
0.00445363
0.00625387
0.00692783
0.00747547
0.00805552
0.0086031
0.00901733
0.0093189
0.00952342
0.00964893
0.00967423
0.00948701
0.00861634
0.00822803
0.00774798
0.0073541
0.00681451
0.00640494
0.00724335
0.00796082
0.00840422
0.00890159
0.00913212
0.00903585
0.00784975
0.00760865
0.00875683
0.0107926
0.00917386
0.0115312
0.0135584
0.0105551
0.00948641
0.00947977
0.0105991
0.0108055
0.0104209
0.00981959
0.00912829
0.00825393
0.00868931
0.00908671
0.00947212
0.00982784
0.0107873
0.0109523
0.0108694
0.0106993
0.0104727
0.010151
0.00964892
0.00895263
0.00815206
0.00736259
0.00644697
0.00452386
0.00220897
0.00247913
0.00244273
0.00253182
0.00250804
0.00118816
0.00131247
0.00132922
0.00133764
0.00126131
0.00143564
0.00207483
0.00336736
0.00242377
0.00199726
0.00137483
0.00161152
0.00268951
0.00455758
0.00514808
0.00525206
0.0053484
0.00695447
0.0079286
0.00842514
0.00881091
0.00908077
0.00896685
0.00867533
0.00815903
0.00750054
0.00725015
0.006839
0.00648011
0.00628433
0.00608816
0.00570668
0.00445965
0.00431746
0.00449848
0.00444176
0.0042527
0.00454401
0.00470787
0.00470364
0.00475564
0.00480111
0.00494274
0.00510951
0.0052547
0.00533091
0.00535919
0.00536807
0.00537897
0.00538752
0.00540379
0.00538529
0.00526723
0.00462502
0.00289234
0.00168843
0.00156066
0.00171104
0.00180931
0.00185125
0.00164397
0.00105832
0.00164448
0.00212857
0.00218325
0.00239576
0.00247176
0.00262064
0.00291862
0.00337245
0.00348016
0.00308851
0.00292555
0.00286368
0.00279106
0.00238882
0.00297809
0.00328257
0.00327602
0.00324441
0.00350634
0.00431455
0.00414521
0.00365561
0.00361557
0.0035793
0.00323949
0.00319127
0.00348341
0.00352163
0.00365219
0.00428205
0.00513429
0.00476423
0.00433965
0.00416187
0.00384376
0.00338672
0.00306163
0.00375785
0.00307985
0.0016341
0.00139111
0.0013786
0.00138515
0.00133855
0.00158757
0.00167062
0.00169267
0.00157286
0.00174546
0.00194267
0.00187942
0.00212594
0.00209829
0.00187925
0.00186173
0.00201074
0.0021191
0.00217459
0.00223743
0.00366592
0.00378844
0.00293194
0.0042401
0.00488283
0.00483702
0.00513185
0.00422409
0.00378981
0.00449849
0.00519467
0.00595294
0.00470639
0.0044535
0.00455433
0.00209259
0.00110119
0.00155331
0.00192862
0.0021508
0.00208714
0.00197169
0.00166729
0.00295746
0.00303721
0.00481608
0.00540237
0.00547297
0.00543937
0.00549113
0.00600373
0.00690629
0.00787113
0.0081544
0.008039
0.00768043
0.00701502
0.00634296
0.00630247
0.00608284
0.00592308
0.00587447
0.00509352
0.00451822
0.00484141
0.00475894
0.0049191
0.0049937
0.0050478
0.00510285
0.00519486
0.00530592
0.00540691
0.00547548
0.00552099
0.00555921
0.00559827
0.00563751
0.00567998
0.00570262
0.00564807
0.00510439
0.0030627
0.00182621
0.00166588
0.00177748
0.00208906
0.0021997
0.00236428
0.00209953
0.00110568
0.00129956
0.00225924
0.00250496
0.00231768
0.00216913
0.00213014
0.00178452
0.00323229
0.00319027
0.00500661
0.00563101
0.00571022
0.00569496
0.00565164
0.0056026
0.00555487
0.00551565
0.00548425
0.00545088
0.00540345
0.00534544
0.00529209
0.00523811
0.00514524
0.00501333
0.00486264
0.00504923
0.00522917
0.00544954
0.00568411
0.0058002
0.00569537
0.00554028
0.00547319
0.0055091
0.00555667
0.00560553
0.00564952
0.00567116
0.00560744
0.00528441
0.00495849
0.00314071
0.00318173
0.00156592
0.0017395
0.00200702
0.00207281
0.00225112
0.00224026
0.0017612
0.00137286
0.00154887
0.0014476
0.00258607
0.0028437
0.00315327
0.00312218
0.00169593
0.00173962
0.00180797
0.00203927
0.00189636
0.00183256
0.00451991
0.00433108
0.00453426
0.00556026
0.0047914
0.00330958
0.00362557
0.00504406
0.00531996
0.00321692
0.00241387
0.00267631
0.00338864
0.00498831
0.0050504
0.00479726
0.00477075
0.00348256
0.00428221
0.00515382
0.00501263
0.0039067
0.00269138
0.00200668
0.00097594
0.00185626
0.00158701
0.00388888
0.00430377
0.00425398
0.00465008
0.00494105
0.0049916
0.00484973
0.00430193
0.00438776
0.00443081
0.00504791
0.00506957
0.0042926
0.00362229
0.00294273
0.00296905
0.00302648
0.00335365
0.00419922
0.00395629
0.00346772
0.0033627
0.00329025
0.00309495
0.00279297
0.00244989
0.00246686
0.0022961
0.00222212
0.00350283
0.00466265
0.00549833
0.0056566
0.00571416
0.0056269
0.00558762
0.00542843
0.00534636
0.00464504
0.00593189
0.00626941
0.00604887
0.00609259
0.00612964
0.00617549
0.00617568
0.00605917
0.00520721
0.00310995
0.00203148
0.00229303
0.00247503
0.00232414
0.00231099
0.00246306
0.00233713
0.00205286
0.00332592
0.00325069
0.00519728
0.00588537
0.00601196
0.00602023
0.00599709
0.00597813
0.00598664
0.00630186
0.00615712
0.00623541
0.00656082
0.00657262
0.00665321
0.0062473
0.00616861
0.00611867
0.00608552
0.00603102
0.00588391
0.00520781
0.00504936
0.00573309
0.00590864
0.00598607
0.00603961
0.00610385
0.00618856
0.00643369
0.00661547
0.00668398
0.00641934
0.00632373
0.00617843
0.00596958
0.00591961
0.00590857
0.00590268
0.00587292
0.00571987
0.00503505
0.00323758
0.0033174
0.00197359
0.00198648
0.00228806
0.00240324
0.0023604
0.00218592
0.0021313
0.0036692
0.00417546
0.00444128
0.0047834
0.00456927
0.0045436
0.00519199
0.00502443
0.00447864
0.00466085
0.00418178
0.00398555
0.00385122
0.00387254
0.00203762
0.00219864
0.00229328
0.00225517
0.0021565
0.00192339
0.00176383
0.00321876
0.00319528
0.00315373
0.00187555
0.00183451
0.00216123
0.00209893
0.00192017
0.00163685
0.00179434
0.00277043
0.00309832
0.0048045
0.00497606
0.00532671
0.0056969
0.00583805
0.00587756
0.00590185
0.00592898
0.00598521
0.00605113
0.00606853
0.00606432
0.00611016
0.00609965
0.00610059
0.00606799
0.00603089
0.00598784
0.00594212
0.00586694
0.00571155
0.00533794
0.00497107
0.00560531
0.00565652
0.00576124
0.00586957
0.00591565
0.00592306
0.0059022
0.00586012
0.00581045
0.00575279
0.00575232
0.00592018
0.00596005
0.00598929
0.00597121
0.00595046
0.00594272
0.0059155
0.00587175
0.00576205
0.00565224
0.00560524
0.00551169
0.00565941
0.00572489
0.00573542
0.00579191
0.00588207
0.00590863
0.00590845
0.00586558
0.00582896
0.00578194
0.00570492
0.00560415
0.00526495
0.00533305
0.00542288
0.0055406
0.0056544
0.00574636
0.00579822
0.00580211
0.00574932
0.00571412
0.00571595
0.00566792
0.00569359
0.00571919
0.00568969
0.00568583
0.00568979
0.00562497
0.00550706
0.00534306
0.00516948
0.00502574
0.00495272
0.00483333
0.00522392
0.00537388
0.00550721
0.00562527
0.00573153
0.00583737
0.00586954
0.0058568
0.00579001
0.00575155
0.00574907
0.00569339
0.00569112
0.00574485
0.00574783
0.00577995
0.00583725
0.00582187
0.00574425
0.00554491
0.00535046
0.00518025
0.00501738
0.00484348
0.0047944
0.00487252
0.00480592
0.00487285
0.00504228
0.00525492
0.00543892
0.00555698
0.0055948
0.00563027
0.0056821
0.0056769
0.00564641
0.00562906
0.00555898
0.00549778
0.00542299
0.00526094
0.00505504
0.00487387
0.00481664
0.00491454
0.00501423
0.00492447
0.00457602
0.00475769
0.00492946
0.00510191
0.00534346
0.00562108
0.0057429
0.00578605
0.00575754
0.00573496
0.00573156
0.00568089
0.00566316
0.00570941
0.00571323
0.00573567
0.00577164
0.00573511
0.00563415
0.00529314
0.00488799
0.00469226
0.00457703
0.00442057
0.0049496
0.00505143
0.00492431
0.00483879
0.00496783
0.0051196
0.00527789
0.00538438
0.00542815
0.00548863
0.00556747
0.00560566
0.00555013
0.00548456
0.00540365
0.00536076
0.00535728
0.00532918
0.00522709
0.00510745
0.00497139
0.00514157
0.00524341
0.00515071
0.00466124
0.00473709
0.00484821
0.00491542
0.00529569
0.00562925
0.0057095
0.00571394
0.00567947
0.00565692
0.00565824
0.00562976
0.00557424
0.00556251
0.00555615
0.00562042
0.00570462
0.00575099
0.0057725
0.00552209
0.00506728
0.00499275
0.00479309
0.00469777
0.00522066
0.005277
0.00515091
0.00503593
0.00527714
0.00538079
0.00540997
0.00538933
0.00533511
0.00530058
0.00537065
0.00547953
0.00539766
0.00504572
0.00473268
0.00489058
0.00492833
0.00491535
0.00484824
0.00473632
0.00449624
0.00502404
0.00553936
0.0055838
0.00503344
0.00504044
0.00487167
0.00453286
0.00497417
0.00520938
0.00526281
0.00524358
0.00516357
0.00496855
0.00525022
0.00549898
0.00545182
0.00493241
0.00319998
0.00324373
0.00326691
0.00326997
0.00322728
0.00321512
0.00316871
0.00314442
0.00307234
0.00299851
0.0029287
0.00312162
0.00328623
0.0035095
0.00352732
0.00361957
0.00346535
0.00328278
0.00306736
0.002393
0.00303627
0.00362159
0.00385003
0.00414261
0.00420389
0.00484371
0.00509126
0.00522358
0.00512128
0.00411088
0.00348751
0.00278733
0.00181289
0.00112982
0.00132647
0.00137997
0.00145072
0.00177632
0.00328859
0.00167563
0.00232597
0.00181779
0.00313441
0.00165325
0.00103101
0.00068395
0.000872661
0.00103566
0.00104395
0.000998264
0.000831598
0.000651115
0.000665468
0.000619685
0.000658303
0.00059387
0.00068068
0.00063775
0.000890631
0.0013396
0.00152457
0.00155848
0.00125968
0.00142055
0.00118677
0.00136863
0.00122198
0.00133166
0.00127712
0.00156194
0.00171162
0.0016386
0.00164306
0.00143774
0.00100561
0.00116561
0.000915816
0.00109956
0.000841626
0.001087
0.000932094
0.00121118
0.00124871
0.00124527
0.00119917
0.00091632
0.00108711
0.000855834
0.00105035
0.000860104
0.000915576
0.000762483
0.0011068
0.00112766
0.00103826
0.00110937
0.00124753
0.0013394
0.00147625
0.00139381
0.00158883
0.00153306
0.00155409
0.00147121
0.00142951
0.0013965
0.00139898
0.00137574
0.00138307
0.00142744
0.00142945
0.00143487
0.00148001
0.00145826
0.00142327
0.00140229
0.00124598
0.00100549
0.00175163
0.0018065
0.0018334
0.00183306
0.00179183
0.00177201
0.00171126
0.00169513
0.00164223
0.00161109
0.00153993
0.00148134
0.00141454
0.00158996
0.00088968
0.00101008
0.00106625
0.00109774
0.00111967
0.00112965
0.00113773
0.00113123
0.00111707
0.00108933
0.00107977
0.00104962
0.00134275
0.00152705
0.00159607
0.00161448
0.00151347
0.00144146
0.00314853
0.00381042
0.00579733
0.00592545
0.00444723
0.00443507
0.0015373
0.00162153
0.00110856
0.00155787
0.00160649
0.00159037
0.00150271
0.00108425
0.00162792
0.00113434
0.00153055
0.00114842
0.00142396
0.00117437
0.00167397
0.00213418
0.0020606
0.00186636
0.00127619
0.00106011
0.00106138
0.000904609
0.00099053
0.000812347
0.000995998
0.000842027
0.00125027
0.00177733
0.00196885
0.00200822
0.00158333
0.00218453
0.00164223
0.00237777
0.00188743
0.00232775
0.00186713
0.00216069
0.0026733
0.00268514
0.00262136
0.00211281
0.00169372
0.00190076
0.00168435
0.00193952
0.00280432
0.00183824
0.00278844
0.00115206
0.0015704
0.0016188
0.00159676
0.00150577
0.00101483
0.00258569
0.00136769
0.00243839
0.00157911
0.00253764
0.00184052
0.00243972
0.00291898
0.00305304
0.00304353
0.00248251
0.00223604
0.00231175
0.00184336
0.00221201
0.00164546
0.00238838
0.00135389
0.00175927
0.00194651
0.00204952
0.00205762
0.00169101
0.00333943
0.00209654
0.00316458
0.00220025
0.00281901
0.0022589
0.00247096
0.00291782
0.00289956
0.00287514
0.00243801
0.00197302
0.00260439
0.00185805
0.0554414
0.128064
0.0509771
0.129438
0.0586311
0.0832085
0.0819866
0.0821545
0.0824523
0.0618995
0.135023
0.159545
0.166392
0.168415
0.167163
0.270128
0.220268
0.33095
0.214532
0.126242
0.0547409
0.0754703
0.194783
0.321673
0.482682
0.612425
0.417349
0.431996
0.275672
0.271798
0.255858
0.206906
0.126677
0.0635078
0.0109241
0.0119572
0.0170697
0.0226904
0.0178663
0.0109501
0.00216526
0.00223498
0.00228612
0.00231869
0.00231239
0.00226574
0.0023048
0.00218003
0.00205323
0.00229795
0.00250534
0.00267437
0.00315494
0.00348734
0.00314429
0.00344593
0.00365157
0.00381891
0.00395694
0.00416272
0.00439457
0.00459826
0.00460836
0.00422127
0.00359643
0.00292505
0.00245889
0.00232969
0.00218778
0.00192934
0.00176514
0.00165335
0.00159918
0.00157688
0.0016207
0.00177144
0.00190222
0.00194804
0.00190977
0.00187447
0.00184369
0.00164153
0.00191916
0.00263243
0.00265246
0.00454391
0.00523544
0.00534423
0.00535176
0.00474261
0.00302866
0.00303517
0.00305047
0.00310776
0.00311982
0.0031273
0.00312401
0.00311293
0.00309475
0.00306095
0.00304397
0.00299452
0.00295307
0.00284998
0.00285462
0.00289166
0.00292056
0.00287218
0.0028833
0.00282359
0.00369647
0.00493298
0.00555072
0.00580201
0.00601766
0.0058409
0.00809674
0.00693215
0.00486343
0.00477816
0.00471876
0.00560007
0.00564335
0.00509284
0.00511182
0.00465348
0.0029053
0.00289652
0.00289837
0.00309983
0.00316075
0.00326832
0.0032981
0.00332491
0.0033408
0.00333493
0.00333292
0.0033038
0.0032817
0.00320806
0.0031835
0.00317299
0.00174943
0.0019091
0.00198001
0.00199324
0.00202198
0.00200968
0.00199761
0.00197341
0.00195749
0.00192458
0.00188649
0.00183031
0.00172089
0.00156801
0.00172505
0.00292811
0.00292726
0.00477096
0.00539528
0.00543625
0.00605699
0.00574392
0.00543947
0.00584035
0.00526144
0.00521805
0.00471495
0.0029272
0.00296721
0.00176033
0.00174553
0.00204047
0.00198449
0.00212061
0.0021788
0.00218581
0.00221619
0.00224516
0.00228113
0.00233904
0.0023563
0.00231955
0.00231245
0.00217895
0.00188327
0.00190556
0.00224595
0.00235502
0.00218709
0.00214886
0.0021321
0.00207978
0.00203993
0.00200172
0.00202759
0.00218271
0.00217981
0.00214086
0.00203705
0.00198333
0.00171946
0.00166039
0.00290376
0.00294578
0.00487391
0.00499191
0.00496186
0.00572641
0.00639693
0.00727354
0.00621325
0.00505344
0.00524945
0.00599631
0.00446184
0.0037351
0.00222454
0.00166662
0.00208328
0.00191786
0.00199954
0.00207224
0.00184056
0.00197802
0.00182918
0.00166238
0.00165325
0.0016514
0.00169237
0.00170965
0.00174082
0.00174509
0.00178741
0.00178346
0.00178873
0.00181058
0.00182013
0.00201096
0.00218523
0.00183919
0.0015595
0.00151948
0.00143484
0.00136595
0.00139911
0.00136547
0.00135704
0.00133198
0.00130925
0.0012492
0.00130161
0.00138099
0.00161536
0.00154609
0.00124986
0.0011169
0.00076345
0.000778797
0.000784199
0.000808361
0.000817254
0.000828188
0.000832268
0.000845884
0.000848555
0.000852887
0.000852567
0.000873308
0.000870351
0.000860413
0.000853941
0.00085819
0.000862196
0.00086158
0.00126156
0.00140469
0.00153419
0.00182207
0.00214422
0.00184552
0.0015643
0.00134868
0.000867089
0.000880183
0.000896144
0.000904445
0.000923563
0.00094106
0.000960498
0.000972799
0.000981972
0.000991626
0.00100176
0.00100583
0.00100331
0.000983929
0.000972462
0.000997329
0.00109632
0.0011539
0.0012277
0.00125565
0.00127934
0.00129122
0.00128504
0.00129861
0.00128328
0.00128126
0.00125936
0.00125015
0.00124124
0.00123016
0.00121622
0.00118193
0.00117046
0.00123143
0.0020852
0.00272733
0.00314009
0.00345871
0.00320283
0.00260357
0.0027312
0.00479841
0.00454787
0.00268262
0.00250692
0.00231721
0.00202966
0.00177275
0.00214167
0.0024425
0.00267028
0.00287017
0.00305323
0.00317753
0.00333747
0.00354632
0.00391532
0.00396104
0.00361216
0.00292653
0.00247731
0.00231405
0.00223577
0.00209913
0.00194984
0.00199855
0.00201293
0.00195308
0.0018788
0.00185782
0.00188883
0.00192848
0.00190549
0.00190443
0.00170114
0.00170043
0.00290516
0.00295885
0.00455105
0.00479503
0.00484133
0.00311211
0.00306928
0.0017928
0.00166486
0.00181603
0.00188485
0.00188862
0.00189605
0.00188621
0.00185305
0.00182877
0.00180059
0.00177762
0.00175734
0.00172254
0.00165659
0.00153028
0.00166736
0.00186936
0.00195175
0.00197331
0.00198383
0.00201542
0.00206692
0.00210832
0.00220427
0.00221432
0.00221371
0.00222169
0.00207689
0.00214204
0.00181311
0.00181066
0.00313823
0.00312996
0.00179815
0.00212304
0.00213726
0.00211255
0.00227406
0.00208084
0.0020146
0.0020035
0.0019182
0.00187283
0.00181248
0.00177625
0.00181074
0.00192606
0.00186509
0.00165311
0.00159194
0.00178627
0.00171903
0.00142611
0.00121852
0.00118516
0.00113462
0.00110398
0.00115728
0.00119882
0.00122257
0.00125273
0.00126172
0.00131718
0.00128169
0.0013452
0.00142658
0.00149152
0.0017693
0.00191712
0.00173193
0.00169851
0.00167742
0.00167533
0.00168053
0.00161093
0.00160629
0.00157033
0.00155263
0.00150576
0.0014845
0.00145745
0.00146208
0.00147735
0.00162397
0.00418127
0.0053302
0.00554781
0.00946063
0.00382762
0.00391001
0.00764169
0.00317542
0.00476431
0.00510397
0.00533825
0.00557753
0.00510164
0.0064717
0.00452749
0.0050446
0.0052531
0.00457887
0.00173481
0.00200326
0.00229445
0.0020363
0.00179798
0.00122475
0.00131925
0.00136188
0.00139666
0.00141906
0.00144427
0.00147129
0.00149663
0.00151437
0.00151455
0.00146844
0.00141872
0.00130457
0.0012665
0.00131559
0.00136631
0.00119987
0.00112962
0.00114299
0.00116183
0.00117243
0.00117471
0.0011863
0.00118943
0.00120771
0.00119798
0.00120723
0.0011866
0.00119716
0.0011814
0.00114099
0.00108435
0.000988011
0.000964367
0.00138895
0.00147887
0.00155342
0.00176248
0.00203487
0.00217134
0.00194628
0.00179487
0.00172298
0.00191164
0.00191308
0.00347282
0.00666347
0.00298661
0.00334553
0.00974004
0.00387506
0.00301438
0.00305992
0.003092
0.00309625
0.00179938
0.00213094
0.00206639
0.00207448
0.00175936
0.0014771
0.00132466
0.00118435
0.000803021
0.000800304
0.000806352
0.000818629
0.000822437
0.000787099
0.000787
0.000782465
0.000780681
0.000764053
0.000759406
0.000745899
0.000737686
0.000718288
0.000707755
0.000689327
0.000686364
0.000720141
0.000803933
0.000972539
0.00107793
0.0012277
0.00124875
0.00139811
0.00344603
0.0040018
0.00551145
0.00547426
0.00863086
0.00539595
0.00407661
0.00367987
0.00538389
0.00556054
0.00514407
0.00696623
0.0048244
0.00320032
0.00488718
0.00407796
0.00472977
0.00466747
0.00496857
0.00790619
0.00832767
0.0023421
0.00208727
0.00219504
0.00249042
0.00295723
0.00272756
0.00310537
0.00311201
0.00240999
0.00151736
0.00481921
0.0057927
0.0046893
0.00566278
0.00871272
0.00349966
0.00341232
0.00301933
0.00252042
0.00229063
0.00226037
0.00252047
0.00301559
0.00753335
0.00806063
0.00748997
0.00747184
0.00676689
0.00738469
0.00921349
0.00916465
0.00811208
0.00758912
0.00788159
0.00492561
0.00301976
0.00351828
0.00390339
0.00520816
0.00536602
0.011339
0.00384585
0.00424888
0.00431743
0.00577477
0.00558928
0.00988058
0.00418789
0.00451837
0.00595134
0.00796389
0.0146852
0.0053565
0.00564547
0.00812273
0.00824727
0.00753396
0.00543652
0.00492476
0.00536849
0.00404517
0.00395361
0.00337233
0.00497743
0.00670244
0.00530255
0.00514902
0.00437827
0.00390409
0.00399156
0.00414707
0.00344523
0.00339585
0.00391542
0.00290905
0.00282148
0.00297344
0.000827981
0.000424177
0.000433496
0.000444698
0.000453853
0.000463286
0.000470206
0.000478397
0.000482132
0.000482527
0.000483745
0.000511684
0.000506992
0.000490983
0.000445821
0.000508791
0.000807382
0.000807964
0.000508273
0.000448087
0.000803969
0.00128118
0.00151062
0.00178711
0.00180941
0.00156127
0.0013535
0.000832986
0.000819877
0.000496981
0.000580427
0.000630323
0.000559012
0.000623857
0.00057817
0.000612401
0.000618649
0.000572271
0.000569106
0.000571302
0.000566881
0.000556789
0.000544474
0.000529556
0.000517991
0.000512074
0.000507893
0.000498002
0.000411987
0.000384747
0.000465061
0.00074434
0.000745111
0.000697235
0.000655276
0.000619013
0.000601849
0.000596486
0.000592766
0.000603006
0.000622543
0.000628062
0.000633554
0.000682776
0.000661642
0.000706762
0.000663295
0.000708716
0.000665229
0.000611955
0.000513823
0.000530174
0.000855228
0.000864368
0.00139674
0.00159802
0.00181196
0.00182138
0.00203295
0.00214081
0.00181306
0.00188235
0.00215715
0.00200921
0.00179122
0.00179815
0.00161779
0.0016192
0.00143419
0.000896209
0.000883981
0.000555218
0.000539167
0.000642927
0.000631623
0.00070247
0.000751768
0.000751967
0.000749486
0.000730392
0.00072356
0.000636232
0.000623777
0.000624601
0.000605782
0.000602239
0.000629361
0.000689325
0.000811016
0.000981337
0.00106742
0.00110272
0.00105672
0.000945376
0.000700091
0.000630856
0.00109533
0.00113423
0.00204648
0.00484617
0.0022841
0.00429319
0.00309899
0.000768919
0.000856856
0.00109252
0.00122414
0.00132216
0.00137954
0.00126276
0.00105504
0.000794545
0.000655673
0.000975792
0.000843618
0.000951643
0.000831073
0.00107573
0.00124377
0.00120326
0.00121233
0.00102458
0.000834608
0.000883861
0.000793443
0.000874501
0.000732085
0.000880768
0.000795231
0.000999282
0.0010086
0.000987573
0.000936051
0.000712695
0.000747709
0.000627163
0.000680278
0.000610712
0.00063116
0.000598019
0.000697389
0.000803571
0.000771168
0.000768109
0.000631077
0.000494461
0.000546092
0.000472119
0.000534331
0.000415209
0.00050299
0.000421835
0.000546129
0.000563302
0.0005671
0.00056471
0.000460507
0.000541315
0.000661322
0.00069314
0.000698244
0.000665051
0.000512471
0.000793127
0.000716118
0.000874361
0.000756397
0.00082787
0.000753965
0.000878885
0.00112563
0.00117523
0.00118309
0.000959888
0.000953901
0.00174095
0.0965204
0.001566
0.00185089
0.0019086
0.0019017
0.00157235
0.00153399
0.00189992
0.00140552
0.00199035
0.00125311
0.00212258
0.000809236
0.00123014
0.00132072
0.00131797
0.001225
0.00082212
0.00243283
0.118931