/*--------------------------------*- C++ -*----------------------------------*\
| =========                 |                                                 |
| \\      /  F ield         | OpenFOAM: The Open Source CFD Toolbox           |
|  \\    /   O peration     | Version:  v2012                                 |
|   \\  /    A nd           | Website:  www.openfoam.com                      |
|    \\/     M anipulation  |                                                 |
\*---------------------------------------------------------------------------*/
FoamFile
{
    version     2.0;
    format      ascii;
    class       volScalarField;
    location    "145";
    object      epsilon;
}
// * * * * * * * * * * * * * * * * * * * * * * * * * * * * * * * * * * * * * //

dimensions      [0 2 -3 0 0 0 0];


internalField   nonuniform List<scalar> 
18258
(
0.0239372
0.0122282
0.00906746
0.00709229
0.0125898
0.0124529
0.0129222
0.0172603
0.0240734
0.0369235
0.0535156
0.0481422
0.0435418
0.0453022
0.0474708
0.0450203
0.0350441
0.03029
0.0397729
0.0664777
0.0608811
0.0497071
0.0609736
0.0514022
0.0653666
0.0824946
0.0631975
0.0568793
0.0510423
0.0479859
0.0413811
0.023327
0.0344243
0.0531713
0.0725009
0.0791806
0.084804
0.0894639
0.094718
0.0968666
0.0971117
0.0918985
0.0827327
0.0677593
0.0499132
0.0385995
0.0309408
0.0309177
0.043426
0.0444978
0.0552851
0.0851589
0.10767
0.0808361
0.0518447
0.0825554
0.112508
0.144265
0.170787
0.193245
0.200972
0.197555
0.186026
0.169287
0.147824
0.122816
0.101803
0.0848659
0.0670775
0.0572768
0.0463293
0.0384255
0.0328655
0.0292095
0.0270089
0.0252904
0.0241314
0.0250645
0.0249526
0.0177964
0.0139955
0.0131415
0.00939697
0.00780716
0.00811735
0.00773282
0.00803973
0.00709646
0.00607899
0.00528042
0.00448417
0.00652747
0.00701459
0.00725372
0.00726714
0.00778673
0.00806414
0.00781908
0.0079255
0.00727246
0.00725548
0.0117428
0.0136088
0.017295
0.0153536
0.0105263
0.00916444
0.0101829
0.0107933
0.013353
0.0125265
0.0133129
0.0118208
0.0108078
0.0091303
0.00885757
0.00908684
0.00966027
0.0100483
0.0116467
0.0114884
0.0106648
0.0117838
0.0129925
0.0127095
0.0121593
0.0115775
0.0142139
0.0114304
0.0121145
0.0136077
0.0219315
0.0214546
0.0259289
0.0254523
0.0258919
0.0260758
0.0314959
0.0316188
0.0320102
0.0323263
0.0340303
0.0570457
0.0508502
0.0497174
0.0495154
0.0427805
0.0423066
0.0416175
0.0424281
0.035969
0.0346372
0.0314093
0.0310415
0.0346201
0.0436963
0.0611084
0.0882929
0.122201
0.158558
0.1889
0.209967
0.231812
0.23721
0.251218
0.256008
0.256969
0.251328
0.242893
0.233419
0.220563
0.201997
0.189141
0.148692
0.105243
0.0591579
0.0784947
0.0905001
0.100196
0.102035
0.103148
0.0990668
0.0928606
0.0817537
0.0663178
0.043132
0.0481053
0.0652874
0.0677093
0.0685198
0.0544125
0.0524684
0.0488382
0.0489076
0.0643784
0.073679
0.0618667
0.0853397
0.100334
0.087812
0.0637323
0.0975538
0.142899
0.0803585
0.068173
0.052587
0.0515748
0.043546
0.0368928
0.0629432
0.093941
0.128753
0.149759
0.171471
0.188989
0.2023
0.21637
0.188105
0.17091
0.11507
0.201398
0.152466
0.0769027
0.0566192
0.0547462
0.0463052
0.0517373
0.0567658
0.0524191
0.0404909
0.027853
0.0246281
0.046291
0.0646505
0.0781478
0.0620985
0.079024
0.08924
0.0965397
0.101864
0.129386
0.0954543
0.10559
0.0753539
0.102375
0.072534
0.0466551
0.0525453
0.100357
0.160144
0.219395
0.256548
0.145536
0.0734597
0.054412
0.0543027
0.0526334
0.0477212
0.0593771
0.105797
0.0718686
0.0465733
0.040365
0.0476151
0.0418136
0.0309701
0.0325872
0.0399021
0.0550385
0.0686994
0.0814678
0.125097
0.121977
0.14719
0.154212
0.130029
0.125963
0.0815328
0.083453
0.122712
0.0915869
0.0740371
0.104056
0.147262
0.201413
0.247572
0.287786
0.31347
0.302897
0.273909
0.173135
0.0757533
0.0228198
0.0177551
0.0168077
0.017281
0.0105017
0.00628527
0.00583614
0.00665846
0.00702262
0.00592764
0.00545664
0.00544981
0.00579867
0.0102034
0.00876579
0.0108391
0.0131262
0.0156698
0.018708
0.0194299
0.0128888
0.00872253
0.00818408
0.00811911
0.00804994
0.00802045
0.00803209
0.00807226
0.00808753
0.00805418
0.00797421
0.00783576
0.0076989
0.00764016
0.00827345
0.0111559
0.0153129
0.0148121
0.0135247
0.0121723
0.0110144
0.00869044
0.0151108
0.0128159
0.0109086
0.0133568
0.0164509
0.0207875
0.0244212
0.0176124
0.014098
0.0127554
0.0126261
0.0125077
0.0125478
0.0124199
0.0124773
0.0122709
0.0128544
0.013522
0.0169117
0.0189322
0.0211135
0.0226136
0.0231982
0.0239054
0.0210591
0.0229525
0.0226964
0.0234732
0.0232932
0.0226109
0.0206995
0.0189096
0.0176874
0.019099
0.0236577
0.0322893
0.0266881
0.0207102
0.0167562
0.013705
0.0149712
0.0166349
0.0168083
0.0158191
0.0155803
0.0153671
0.013847
0.0130546
0.0110533
0.0104502
0.00999762
0.0101551
0.0143451
0.0134803
0.013667
0.0143835
0.0154663
0.0146318
0.0150621
0.014226
0.0144757
0.0148966
0.0169659
0.0185144
0.017762
0.0164528
0.0159572
0.0136927
0.0157901
0.0156501
0.0169704
0.0185541
0.0190511
0.0189941
0.0183597
0.016776
0.0186651
0.0220308
0.0256832
0.024687
0.0243472
0.0204126
0.019213
0.0201838
0.0214523
0.0223489
0.0224076
0.0222179
0.0222897
0.0262498
0.0258377
0.0246445
0.0225755
0.0201319
0.0174929
0.0150951
0.0165621
0.0180389
0.0194277
0.0206991
0.0204818
0.0189501
0.0175923
0.0163649
0.0148803
0.0146029
0.016049
0.0172677
0.0186997
0.0204214
0.0205101
0.0187874
0.0172904
0.0160109
0.0145434
0.0145009
0.0159955
0.0172919
0.0187115
0.020206
0.0195797
0.0184155
0.0171627
0.0159216
0.0144741
0.0145454
0.0158628
0.0169308
0.0180166
0.0189744
0.0198267
0.0178608
0.0169486
0.0170382
0.016054
0.0192282
0.0184737
0.0194113
0.0179649
0.016748
0.0177546
0.0209441
0.0239744
0.0245371
0.0242591
0.0201316
0.0205849
0.0205527
0.0191336
0.0159124
0.0153171
0.0180802
0.0208088
0.0212696
0.019965
0.0168719
0.0132388
0.0142583
0.0174118
0.0197202
0.0184569
0.0183012
0.0168918
0.0158108
0.0161051
0.0138243
0.0165535
0.0265732
0.0240383
0.0220363
0.0195881
0.0156105
0.0105787
0.0114726
0.0126255
0.0130347
0.010527
0.00788277
0.00708125
0.00689219
0.00673841
0.00652493
0.00616332
0.00561483
0.0053767
0.0105863
0.0256359
0.0364034
0.0357989
0.0241279
0.0207049
0.0198587
0.018
0.00832291
0.00822578
0.00836462
0.0104276
0.00837261
0.00805913
0.0139081
0.00980546
0.0135391
0.0106209
0.0145892
0.0229014
0.0216604
0.0143302
0.00800574
0.00688714
0.00736891
0.00764643
0.0078452
0.00803739
0.00826643
0.00864722
0.00995847
0.0156524
0.0202173
0.0176951
0.0167135
0.0152443
0.0187596
0.0212218
0.023146
0.0259028
0.0160202
0.0117275
0.0165552
0.0271279
0.024621
0.0231729
0.0170589
0.0175979
0.0170393
0.0109559
0.0106145
0.0105311
0.0113379
0.0127165
0.0146321
0.0157879
0.0165358
0.0168656
0.0177733
0.0230403
0.0215579
0.021043
0.0172797
0.0133121
0.0153205
0.0513187
0.0194776
0.0205876
0.0188471
0.0191275
0.0204157
0.0151432
0.0135079
0.0129214
0.0145926
0.0214405
0.0214607
0.0213257
0.0181988
0.0174145
0.0208254
0.0219095
0.0223037
0.0216876
0.0212486
0.0193957
0.0166325
0.0180605
0.0195734
0.0207553
0.0227514
0.0230875
0.0178718
0.0171569
0.0157777
0.0104984
0.0112333
0.00968031
0.00964833
0.00961534
0.00934242
0.00889856
0.00918534
0.00930104
0.00930106
0.00896163
0.00925389
0.00832068
0.00865604
0.0097418
0.0151721
0.0147416
0.0175363
0.0194459
0.0166969
0.0155398
0.0141805
0.0131608
0.0154036
0.0142424
0.016811
0.0211451
0.0264134
0.0190617
0.0180659
0.0178431
0.0174373
0.0172827
0.0173337
0.0166468
0.0156515
0.015088
0.0235251
0.0212351
0.0181182
0.0171704
0.0157402
0.0179832
0.0174274
0.0213077
0.0267657
0.0269703
0.0214753
0.0215534
0.0189109
0.0200145
0.022192
0.0270084
0.0269294
0.0143928
0.00957062
0.0153921
0.0157305
0.0183355
0.0169545
0.0184785
0.0196561
0.0203767
0.0202322
0.0176407
0.018808
0.0195931
0.0205747
0.0185299
0.0165295
0.0173153
0.0160989
0.0152035
0.0147092
0.0126428
0.0128822
0.0138467
0.0152904
0.0162315
0.0177168
0.0193668
0.0194
0.0200632
0.0196576
0.0190601
0.0251334
0.0238915
0.0254335
0.0281317
0.0223639
0.0177548
0.0146423
0.0149526
0.0147211
0.0146305
0.0153754
0.0167303
0.0151137
0.0144979
0.0169947
0.0193449
0.0245944
0.0329161
0.0286575
0.0261172
0.0331292
0.0313122
0.0381176
0.0285792
0.0280671
0.0207924
0.0262188
0.0304468
0.0390931
0.0254324
0.0208934
0.022357
0.0254879
0.0347092
0.0327115
0.0330556
0.0410879
0.0398568
0.0361255
0.0311074
0.0352474
0.021183
0.0301218
0.0321493
0.0267695
0.0256418
0.0306593
0.0309773
0.0329272
0.0283152
0.0266973
0.0178571
0.027359
0.0312867
0.0329816
0.0277464
0.0204958
0.0279411
0.0204864
0.0191272
0.020239
0.0137338
0.0126868
0.0147526
0.0138267
0.0111625
0.0121003
0.0111149
0.0110947
0.0111683
0.0112751
0.0113982
0.0116429
0.0115973
0.0125803
0.0132505
0.0125182
0.0114941
0.0121823
0.0125845
0.0160836
0.0181682
0.0204328
0.0220239
0.0228602
0.0239897
0.0226362
0.0247992
0.0237205
0.0251712
0.0248693
0.0238114
0.0213187
0.0187114
0.0163691
0.0170173
0.020749
0.0274208
0.0224727
0.0174008
0.0140819
0.0116618
0.0129432
0.0162474
0.00878352
0.00803048
0.00774973
0.00759484
0.00751205
0.00673223
0.00585965
0.00722158
0.0125462
0.0160639
0.020318
0.0260968
0.0322911
0.0376702
0.0417924
0.0447702
0.046638
0.0471655
0.0443842
0.0335885
0.0287424
0.0245366
0.0201755
0.0163647
0.0166844
0.0243412
0.0320141
0.0395882
0.0462748
0.0512772
0.0493612
0.0330961
0.0299205
0.0461966
0.0778556
0.0736618
0.0968395
0.1106
0.0624977
0.046211
0.0452043
0.0621502
0.064846
0.0567778
0.0467117
0.0363616
0.0260925
0.0306116
0.0351301
0.0395493
0.0442451
0.0585323
0.0613458
0.0599663
0.0572033
0.053583
0.0486544
0.0415664
0.0330173
0.0248501
0.0186642
0.0137953
0.00808153
0.0075894
0.00769203
0.00723721
0.00821201
0.00813201
0.00880112
0.00853265
0.00877694
0.00860452
0.00868233
0.00770979
0.00685747
0.0103002
0.00967545
0.00971627
0.0104632
0.0135507
0.0103597
0.00756342
0.00713677
0.00712366
0.00751103
0.0167668
0.0251871
0.0305428
0.035172
0.038683
0.0373661
0.0339314
0.0282474
0.0219548
0.0197461
0.0166439
0.0141788
0.0129983
0.014352
0.0117778
0.00574329
0.00519229
0.00572831
0.00557028
0.00509859
0.00614383
0.00684294
0.00746307
0.00789074
0.00820322
0.00826307
0.00819955
0.00810692
0.00806016
0.00803707
0.00800486
0.0079354
0.00783488
0.00768768
0.00754687
0.00747953
0.00807072
0.0106878
0.0146199
0.0143814
0.0132651
0.0121544
0.0112921
0.0095748
0.0154256
0.0130884
0.0109751
0.0101508
0.0100122
0.0103125
0.0112746
0.0128966
0.0138088
0.0158089
0.0158543
0.0157512
0.0160567
0.0158469
0.0133127
0.0151092
0.0177325
0.0185447
0.0191352
0.0189017
0.0173574
0.0193862
0.0205381
0.0200102
0.0194105
0.0166562
0.0194272
0.0232814
0.023714
0.0239458
0.021263
0.0184113
0.0215922
0.0227736
0.0224255
0.0233326
0.0216546
0.022404
0.0276694
0.0144421
0.0135161
0.00822378
0.00890158
0.00921174
0.00899464
0.00872442
0.00909471
0.00933897
0.0090251
0.00971499
0.0100288
0.00929677
0.011815
0.010913
0.0105785
0.00996967
0.0103614
0.01089
0.0111712
0.012481
0.0199138
0.0204699
0.0184573
0.0211225
0.0216849
0.0180936
0.020629
0.0215265
0.0218881
0.0222609
0.0236905
0.0221679
0.0244766
0.0237798
0.0222975
0.0215585
0.0383154
0.0252526
0.0166419
0.0153967
0.0150493
0.0150941
0.016988
0.0127014
0.0142416
0.0100128
0.00867507
0.00832224
0.00805287
0.0083291
0.0109822
0.0168583
0.0251282
0.0280727
0.0269906
0.0236076
0.0180148
0.0132912
0.0129941
0.0117085
0.0109473
0.0108128
0.00717858
0.00511892
0.00653255
0.00659293
0.00718241
0.00759907
0.00793882
0.00819352
0.00833242
0.00840193
0.00847981
0.00859207
0.00871342
0.00881596
0.00889408
0.00894785
0.00900488
0.00911913
0.00941921
0.0106142
0.0152782
0.0196966
0.018592
0.017129
0.0158176
0.0165833
0.0173432
0.0180888
0.022279
0.0191242
0.0220445
0.0206914
0.0197044
0.0182963
0.0190133
0.020808
0.016564
0.0164906
0.0112435
0.00982105
0.009452
0.00924659
0.00908919
0.00893447
0.00878061
0.00864187
0.00850899
0.0083923
0.00830004
0.00820936
0.00807271
0.00783474
0.00743973
0.00701833
0.00613962
0.00669903
0.00739632
0.00838634
0.00949232
0.0100182
0.009451
0.00871014
0.00839827
0.00852853
0.00869784
0.00888399
0.0090979
0.00939766
0.00985622
0.0108179
0.0114873
0.0161519
0.0168823
0.0201943
0.0200045
0.0179067
0.0172595
0.0188646
0.0173858
0.0126681
0.0174084
0.0169289
0.0211536
0.0156747
0.0147768
0.0151659
0.0156422
0.0183361
0.0172504
0.0157791
0.015741
0.0126794
0.0142394
0.0162277
0.017727
0.0279827
0.0274002
0.0345276
0.0344537
0.0595945
0.0566571
0.0499332
0.0540735
0.0237922
0.0466461
0.0545348
0.0496548
0.0430844
0.0274246
0.0439187
0.0669288
0.097124
0.0699706
0.0572133
0.106505
0.0771691
0.0375476
0.026641
0.0150351
0.0151107
0.0251141
0.0291808
0.0241852
0.0233209
0.0335498
0.0349198
0.0281042
0.0287955
0.0311773
0.0301078
0.0325835
0.0281883
0.0274966
0.015555
0.0127618
0.0137894
0.0155146
0.0165124
0.0160005
0.0168407
0.0175165
0.0160827
0.015062
0.0145068
0.0124482
0.0131908
0.0161708
0.020381
0.0238818
0.0172397
0.0138471
0.0125475
0.0123534
0.012128
0.0120116
0.011695
0.0115137
0.01105
0.0112617
0.00981372
0.00982529
0.0103552
0.0105109
0.010708
0.0108597
0.0109775
0.0110872
0.0119594
0.0187258
0.0259152
0.0207386
0.0164404
0.0139676
0.0151505
0.0170651
0.0209541
0.0263621
0.0178008
0.0176197
0.0114828
0.0107002
0.0104962
0.0103319
0.0101874
0.0100981
0.0101658
0.010172
0.011897
0.011497
0.0133927
0.0144731
0.0119719
0.0115545
0.0110966
0.0108219
0.0106739
0.0105981
0.0106952
0.0115617
0.0113978
0.010464
0.0103619
0.0104741
0.0106802
0.0109966
0.0114389
0.0119406
0.0128453
0.0126128
0.0111729
0.0112187
0.0105735
0.0102652
0.0100286
0.009998
0.0100405
0.0101733
0.0103888
0.0112961
0.0170817
0.0172604
0.0265731
0.0265583
0.0211156
0.0176538
0.0155067
0.0142589
0.0135307
0.0353011
0.0309737
0.0490542
0.0391202
0.031323
0.0509156
0.0724287
0.0562328
0.0916733
0.0990451
0.0729582
0.0660709
0.020977
0.0159637
0.0154248
0.0169075
0.0185926
0.0212173
0.021811
0.026612
0.0287128
0.0171394
0.0164623
0.0155365
0.0248355
0.0230177
0.0196444
0.0177675
0.0163884
0.0189347
0.0207205
0.0149408
0.0149802
0.00965475
0.0106498
0.0104002
0.0100659
0.00995551
0.0098892
0.00993097
0.0100357
0.0103218
0.0108174
0.0111888
0.0113191
0.0115781
0.0113626
0.0110861
0.0107577
0.010564
0.0103734
0.0102208
0.0101059
0.0101458
0.010468
0.0106167
0.00931946
0.00966022
0.00976391
0.00977285
0.00980404
0.0097724
0.00964361
0.00944858
0.00926522
0.00906895
0.00912179
0.00994359
0.0100843
0.0101464
0.00999485
0.00988052
0.00986859
0.0098017
0.00978201
0.00976641
0.00963748
0.00931919
0.00859722
0.00845342
0.00905764
0.00940816
0.00959467
0.00968574
0.00967254
0.0096157
0.00938462
0.00920616
0.00899599
0.00865858
0.00822103
0.00681701
0.00707382
0.00742251
0.00790721
0.00840786
0.00884692
0.00914174
0.00929711
0.00938553
0.00930485
0.00901643
0.00849273
0.00844107
0.00882933
0.00900767
0.00896721
0.00870952
0.00830907
0.00775362
0.00706104
0.00638729
0.00586726
0.00561625
0.00522128
0.00659222
0.00717411
0.00772
0.00822977
0.0087153
0.00923281
0.00943948
0.00949839
0.00946886
0.0093048
0.00896787
0.00843811
0.00844804
0.00892671
0.009243
0.00937604
0.00936657
0.00917626
0.00876114
0.00785512
0.007047
0.00639177
0.0058075
0.00522503
0.00506748
0.00531869
0.0051039
0.00532348
0.00590726
0.00670837
0.0074827
0.00808157
0.00850355
0.00868584
0.00863584
0.00838618
0.00828969
0.00841094
0.00835255
0.00804783
0.00748295
0.00674151
0.00594272
0.00530914
0.00511753
0.00543375
0.005772
0.00546881
0.00438788
0.00493038
0.00548317
0.00608161
0.00699607
0.00817089
0.00876945
0.00908989
0.00924678
0.00917721
0.00888456
0.00844345
0.00842519
0.00884791
0.00913043
0.00917952
0.0090417
0.00874508
0.00823898
0.00681391
0.00536102
0.004737
0.00439062
0.00395158
0.00554729
0.00590258
0.00547552
0.00520094
0.00563376
0.00618181
0.00681528
0.0073384
0.00777392
0.00808347
0.0081898
0.00816175
0.00802888
0.00802705
0.00796482
0.00774956
0.00748398
0.0072603
0.00681626
0.00636234
0.00584915
0.00640779
0.00670869
0.00628994
0.00466132
0.00494645
0.00537156
0.00565325
0.00709086
0.00851335
0.00892942
0.00908479
0.00922747
0.0091595
0.00884294
0.00840373
0.00838684
0.00890489
0.00930231
0.00943528
0.00952871
0.00961811
0.00969624
0.00854504
0.00665806
0.00620117
0.00526143
0.00481495
0.00660875
0.00702222
0.00681009
0.00653602
0.00745955
0.0078541
0.00800497
0.00803073
0.00806162
0.00805302
0.00797304
0.00791144
0.00779595
0.00822661
0.00884977
0.00873905
0.00863015
0.00846338
0.00809832
0.0076463
0.00714758
0.00782713
0.00839122
0.0081284
0.00595384
0.0063216
0.00713828
0.00732087
0.00884756
0.0100401
0.01039
0.0103967
0.0102908
0.0102715
0.00926803
0.00834991
0.0081996
0.00954387
0.0154809
0.0153167
0.0153485
0.0152774
0.0147027
0.0145296
0.0139647
0.0137059
0.0130109
0.0125595
0.0118828
0.0138937
0.0175886
0.0196497
0.0219907
0.0244619
0.0231116
0.0186683
0.0164662
0.0101058
0.0079706
0.00687351
0.00596162
0.00527203
0.00507182
0.0075119
0.00934856
0.0114918
0.0134298
0.0137624
0.0161821
0.0201127
0.0306302
0.0487101
0.0411454
0.0388565
0.0392685
0.0977175
2.54868
2.73466
2.49442
2.90219
3.34047
0.395543
0.152166
0.284145
0.302972
0.337883
0.314491
0.282619
0.257117
0.262355
0.251627
0.260025
0.24196
0.251541
0.219962
0.227709
0.236867
0.708814
1.05182
1.26589
1.76398
1.76116
1.98519
1.93154
1.94726
1.79684
1.9113
1.66061
1.37673
1.30108
1.2291
1.31916
1.43384
1.24427
1.1283
1.01273
0.922514
0.790886
1.00286
0.761136
0.719721
0.718605
0.751092
1.00109
0.913242
1.05101
0.97234
1.01211
0.609735
0.686121
0.502532
0.419013
0.346822
0.423483
0.571804
0.762187
0.951622
0.725365
0.986146
0.908307
0.89918
0.854733
0.777101
0.737045
0.723796
0.744588
0.757171
0.772513
0.800538
0.82186
0.840797
0.992093
1.05809
1.04986
0.860387
0.76905
0.53235
0.570242
0.604099
0.607352
0.565706
0.548057
0.498167
0.485839
0.441545
0.422423
0.384544
0.365232
0.333187
0.460174
0.786282
0.815798
0.885866
0.938351
0.988713
1.01017
1.02753
1.01015
0.976746
0.905694
0.873885
0.810086
0.918221
1.10302
1.10046
1.01092
0.858754
0.813283
3.79811
4.62104
3.05616
6.59446
10.0312
16.8281
7.63659
2.07071
3.46242
2.37938
2.11216
2.05974
2.17603
3.43197
2.51312
3.28689
2.74827
2.89894
2.30401
2.56628
2.44431
1.87307
1.57695
1.33553
1.21424
0.974313
0.965693
0.779719
0.725099
0.66269
0.551517
0.682662
0.69996
1.7104
2.3242
2.89425
4.53534
4.97357
5.42966
8.55743
6.90786
8.63129
5.12028
5.17365
3.82365
3.5954
3.63407
4.99845
7.1585
4.92795
8.61035
4.79578
15.5794
34.8631
9.19907
19.0239
10.9705
9.9173
9.55667
9.84567
14.0016
9.57073
15.5634
13.2044
17.6092
17.2914
18.3047
14.1934
10.5401
11.5748
12.4721
15.9703
11.3094
13.057
9.88933
9.653
8.98419
7.42564
6.58589
5.05745
5.99548
7.02367
8.00228
12.7138
15.9123
18.2605
22.0037
16.2208
18.4873
11.1204
12.2114
9.42841
8.84649
8.98082
11.8177
20.9623
14.8501
27.172
0.498036
0.226105
0.545896
0.229777
0.487208
0.390779
0.403375
0.404361
0.400129
0.461891
0.220509
0.1853
0.177481
0.175309
0.176813
0.100259
0.124473
0.0804258
0.126911
0.229303
0.504161
0.365607
0.140512
0.0825951
0.0546039
0.0429598
0.0634816
0.0612851
0.0980082
0.0993805
0.105738
0.132356
0.228818
0.434963
31.9114
7.13595
1.13492
0.532926
0.282678
0.173169
0.149397
0.168912
0.181772
0.184734
0.173831
0.148215
0.106942
0.071411
0.0483671
0.040871
0.0298055
0.0277633
0.039317
0.0531212
0.0493209
0.0650456
0.0834523
0.106214
0.130402
0.14964
0.164091
0.168002
0.155946
0.121987
0.0802121
0.0442128
0.0264549
0.0228198
0.0208956
0.0194031
0.0167671
0.014578
0.0131564
0.0112466
0.00991771
0.00895227
0.00864351
0.00876812
0.00957225
0.0121025
0.0145591
0.0188448
0.0179624
0.0134475
0.0125976
0.00780213
0.00721221
0.00736029
0.00761211
0.00842743
0.0131725
0.0134765
0.0133511
0.0133654
0.0131813
0.0131536
0.0129827
0.0128072
0.0125872
0.0121632
0.011873
0.0113517
0.0110737
0.0104282
0.010455
0.0108238
0.0111224
0.0100612
0.00994688
0.00926887
0.0208292
0.0493818
0.0701513
0.0786405
0.0884191
0.0811244
0.0420448
0.0231775
0.0079111
0.00764938
0.00814633
0.00879277
0.00836921
0.00615046
0.00668679
0.00781069
0.0109711
0.010914
0.0109461
0.0127664
0.0133001
0.0146586
0.015203
0.0156056
0.0158383
0.0157985
0.015936
0.0156767
0.0157771
0.015594
0.0156885
0.0152898
0.0271493
0.0255518
0.0262425
0.0262619
0.027415
0.026886
0.0263632
0.0253725
0.0246393
0.0231203
0.0215321
0.0199675
0.0178849
0.0186268
0.0179569
0.0111886
0.010616
0.00760417
0.00768559
0.00739554
0.0102298
0.00927591
0.00779372
0.00916512
0.00670034
0.00687672
0.00718774
0.0102469
0.0107731
0.0171511
0.0171744
0.0152125
0.0161895
0.0172151
0.0185359
0.0197001
0.0211191
0.0221324
0.0232274
0.025116
0.0255552
0.0238573
0.0235314
0.02246
0.0243978
0.0233767
0.0216297
0.0231531
0.0247742
0.0272499
0.026901
0.024738
0.0234146
0.021996
0.0196888
0.0170662
0.0156921
0.0146878
0.0146971
0.0136623
0.0159394
0.0143607
0.0100014
0.0104162
0.00802915
0.00629308
0.00601806
0.0092548
0.0132581
0.028295
0.0177128
0.00952454
0.0106271
0.0170581
0.0355868
0.0212182
0.0345894
0.0145406
0.0159824
0.0124097
0.0123801
0.0136585
0.015928
0.0170136
0.020644
0.0232947
0.0252794
0.0261917
0.0275191
0.0279132
0.0293289
0.0297747
0.0324724
0.0327361
0.032809
0.032352
0.0300181
0.0269901
0.0248333
0.0307045
0.035571
0.0387973
0.0411904
0.0435931
0.0423085
0.0386174
0.0377421
0.0358227
0.0347024
0.0332916
0.0302011
0.0263979
0.0216391
0.0210416
0.0269846
0.032673
0.0487962
0.0527454
0.0524869
0.0547872
0.0552968
0.0570495
0.0574913
0.0601348
0.0607127
0.0618754
0.0622127
0.0674197
0.0683106
0.0693274
0.0696494
0.0693823
0.0703618
0.0703879
0.047829
0.042877
0.0388802
0.0322741
0.0270269
0.0342801
0.0427192
0.0478981
0.0731456
0.073622
0.0772854
0.079883
0.0847584
0.088409
0.0932232
0.0976613
0.101997
0.105366
0.10738
0.107686
0.108129
0.107171
0.105869
0.114594
0.148927
0.165418
0.195928
0.210949
0.223384
0.227357
0.218706
0.222545
0.2145
0.217094
0.210898
0.208988
0.203753
0.197481
0.193919
0.187653
0.183588
0.211543
0.159911
0.122636
0.0814936
0.0654843
0.0587922
0.0553677
0.0578686
0.0447954
0.0383617
0.0573535
0.0529872
0.0426594
0.0289459
0.0189292
0.0322352
0.0478254
0.0646972
0.081864
0.0975462
0.107785
0.110316
0.109201
0.104428
0.0965736
0.0814039
0.0613216
0.0421767
0.0348001
0.0321116
0.0281361
0.0221799
0.0178207
0.0157024
0.0141177
0.0123546
0.0111085
0.0105598
0.0107235
0.0110358
0.0132266
0.0172982
0.0172864
0.0115823
0.0111237
0.00765124
0.00773811
0.0079936
0.0132911
0.0134327
0.0208331
0.0232608
0.0218988
0.0225682
0.0222958
0.0225761
0.0222083
0.021019
0.0201801
0.0192177
0.0183761
0.0176356
0.0168194
0.016035
0.0173445
0.0162968
0.0137358
0.0138443
0.0144542
0.0150983
0.0159837
0.0172323
0.0183082
0.0210005
0.021186
0.0206997
0.0208001
0.0193498
0.0186447
0.0199043
0.0194383
0.0132407
0.0130695
0.0190806
0.0187239
0.0186042
0.0223976
0.0208103
0.0213265
0.0224404
0.0223135
0.0193758
0.018018
0.0164764
0.015297
0.0139254
0.0124219
0.0120516
0.0147761
0.0129762
0.0106646
0.0118594
0.0142447
0.0168397
0.0182963
0.0202734
0.0229736
0.0239434
0.0261675
0.0275834
0.0296733
0.0305129
0.0353201
0.0359957
0.0338844
0.0320484
0.0310663
0.0273177
0.0233944
0.025801
0.0266552
0.0270281
0.027118
0.0269884
0.0234109
0.0229783
0.0214656
0.0209491
0.0193885
0.0188283
0.0176685
0.0169086
0.015891
0.0140727
0.0134024
0.0125873
0.0122265
0.0172819
0.0107624
0.0105282
0.0159178
0.00979222
0.0115273
0.0112762
0.0117857
0.0124557
0.0102949
0.0150709
0.0102674
0.0111706
0.0114213
0.0143809
0.0100165
0.0216982
0.0656829
0.0935974
0.112538
0.20414
0.244013
0.264133
0.28474
0.298794
0.314767
0.33234
0.35002
0.363078
0.364503
0.338812
0.320254
0.255212
0.228467
0.25233
0.282583
0.194826
0.167098
0.169406
0.170272
0.172891
0.174175
0.177875
0.175862
0.181004
0.176656
0.184008
0.178007
0.184557
0.177061
0.161608
0.144931
0.112249
0.101442
0.0654143
0.0506377
0.0396055
0.0287288
0.0209232
0.0187738
0.0177685
0.0164165
0.0165024
0.0126528
0.0130955
0.00838603
0.00615674
0.00984816
0.00967517
0.00719903
0.0098037
0.011198
0.011711
0.0122458
0.0125359
0.0191743
0.0192048
0.0246105
0.0244961
0.0290474
0.0346291
0.0358519
0.0394829
0.0567451
0.0572378
0.0569849
0.0567811
0.056345
0.0491309
0.0488496
0.0477419
0.0471534
0.0442211
0.0436662
0.041596
0.0404621
0.0375409
0.0367208
0.035604
0.0360903
0.0408951
0.0566867
0.100581
0.0297186
0.028418
0.0208226
0.0145207
0.0214102
0.0158288
0.0154008
0.013561
0.0186107
0.0133883
0.0136294
0.0164328
0.0169626
0.0163808
0.0214657
0.026711
0.0234201
0.025996
0.118195
0.0772615
0.0249164
0.0491573
0.0725131
0.158583
0.204285
0.140186
0.160047
0.184155
0.167132
0.140309
0.109969
0.0818827
0.0584377
0.0453399
0.011279
0.0133547
0.0185707
0.0414792
0.0614863
0.101136
0.0833842
0.108931
0.148919
0.173484
0.209531
0.201068
0.1729
0.148699
0.145073
0.159949
0.162984
0.106158
0.103112
0.0776609
0.173619
0.218625
0.184329
0.231592
0.24463
0.145186
0.0320108
0.0182819
0.015034
0.0138355
0.0123512
0.0192916
0.0113713
0.011567
0.0122762
0.0131907
0.0168415
0.0293037
0.0133408
0.0148331
0.0182526
0.0158201
0.0148825
0.0145533
0.0144719
0.0151048
0.0164688
0.0214887
0.0215502
0.0211776
0.0158932
0.0171828
0.0156025
0.0199076
0.0211002
0.0331225
0.0151723
0.0161092
0.0213858
0.477742
0.0245073
0.0177222
0.0231135
0.0217861
0.0299756
0.0438211
0.459251
0.0441306
0.0349765
0.0583004
0.0605033
0.065107
0.0687567
0.0722515
0.07477
0.0787044
0.0813716
0.0825928
0.0838066
0.0994766
0.0995039
0.0984563
0.103031
0.0972268
0.0574287
0.0576525
0.0970793
0.104786
0.0592032
0.0408923
0.0384059
0.0311301
0.0322692
0.041789
0.04384
0.0614494
0.0612733
0.102213
0.0932089
0.0946034
0.0963099
0.0913137
0.0917509
0.093805
0.0937324
0.074986
0.072701
0.0709499
0.0678922
0.0643672
0.0614838
0.0586264
0.0556448
0.0532109
0.0535723
0.0587359
0.0582197
0.0662697
0.074371
0.227877
0.155851
0.110769
0.0814571
0.0656584
0.0590133
0.0583088
0.0613572
0.0645437
0.0662061
0.0670106
0.0703437
0.0920283
0.0945058
0.0973862
0.0948378
0.0986812
0.0967563
0.0942998
0.104169
0.112005
0.0654462
0.0675288
0.04769
0.0445128
0.0324739
0.0330445
0.0235722
0.0195372
0.0195202
0.0195019
0.0197306
0.0226186
0.0316317
0.0317269
0.0463839
0.0462729
0.0516763
0.0752113
0.0722571
0.128898
0.118102
0.10846
0.101117
0.101495
0.103602
0.106174
0.10116
0.0973613
0.0918054
0.0720922
0.0681233
0.0659965
0.0647703
0.063642
0.0674975
0.091839
0.149707
0.229408
0.336213
0.436766
0.446822
0.40368
0.254298
0.292897
0.146319
0.1661
0.188608
0.165096
0.174089
0.321323
0.267273
0.379126
0.483787
0.537732
0.604452
0.642285
0.632203
0.504046
0.328722
0.336488
0.446965
0.772179
0.86567
0.744626
0.7625
0.659348
0.541249
0.522891
0.498264
0.562287
0.613306
0.578805
0.595705
0.539775
0.515365
0.445306
0.496875
0.363005
0.326914
0.307273
0.298398
0.357523
0.289238
0.325746
0.267642
0.273816
0.222423
0.227883
0.190227
0.14561
0.138017
0.127925
0.143194
0.162269
0.148632
0.152915
0.133509
0.114035
0.0908192
0.0980629
0.0732656
0.069393
0.0707282
0.0810248
0.127725
0.37365
0.17418
0.163507
0.167271
0.177506
0.31801
0.281861
0.723168
0.506867
0.70936
0.473788
0.56249
0.470795
0.363216
0.378776
0.418672
0.599069
0.822585
6.65555
0.284797
4.26435
3.16554
3.32394
3.4694
4.44732
7.80788
7.10858
9.39073
6.80396
9.07479
4.97237
4.97445
4.32491
4.47038
4.43876
4.26327
5.20757
6.66286
0.23915
0.0910358
0.0854268
0.0856005
0.087372
0.197673
0.052537
0.20194
0.0539426
0.213408
0.0495
0.246639
0.196888
0.0382344
0.0192578
0.0200877
0.0168069
0.0203728
0.0169225
0.0250448
0.0235418
0.0237009
0.0265984
0.0764101
0.292639
13.8613
1.67892
0.702742
0.802283
1.20036
0.817015
1.21801
1.69005
1.13848
0.569517
0.374333
0.441448
0.533638
0.509235
0.648198
0.931765
0.911291
0.71659
0.720347
0.636436
0.896382
0.904903
1.0709
1.2495
1.14243
0.897222
0.707797
0.600456
1.03032
1.0335
0.966399
0.412041
0.117045
0.0472824
0.0497638
0.035856
0.0378316
0.0347816
0.056031
0.164047
0.224708
0.136119
0.434538
0.418177
0.566535
0.404102
0.41354
0.327163
0.350957
0.535686
0.584906
0.644463
0.675413
0.726345
0.67261
1.29211
2.21603
2.50683
12.8781
17.4324
3.20965
3.10011
13.95
0.315042
0.0839426
0.0233261
0.0174335
0.0162177
0.01613
0.0150012
0.0155385
0.0160003
0.0169641
0.0188301
0.0231975
0.0458353
0.201479
0.203452
0.064351
0.0324343
0.0229728
0.0196179
0.0170474
0.0163878
0.0155323
0.0154598
0.0150086
0.0156585
0.0174657
0.023783
0.0774242
0.270931
11.3201
2.43749
2.25602
8.37949
5.7927
0.206705
0.0437879
0.0200942
0.0169273
0.0158845
0.0167546
0.0162665
0.0182124
0.0184036
0.0230188
0.0250249
0.0317721
0.0570907
0.110209
0.315648
9.59051
8.66264
8.38617
7.82104
0.310298
0.11524
0.0544097
0.0382397
0.0346309
0.033825
0.0226517
0.0236762
0.0189836
0.0216425
0.0182961
0.0226835
0.0483076
0.211882
5.351
1.57163
1.70228
1.20988
0.613573
0.656196
0.669999
0.689669
1.7791
4.0746
5.0054
3.43674
3.3673
4.7183
3.17795
2.48699
1.83309
1.74961
2.54978
1.96525
1.82718
1.35806
1.46765
1.06781
1.46736
0.811181
0.976861
1.07321
1.5321
1.39788
1.41074
0.908485
1.05078
1.47599
1.72528
1.64893
0.844038
1.22737
1.01436
0.655003
0.607849
0.634346
0.604232
0.57919
0.57583
0.580028
0.558935
0.576455
0.556744
0.588667
0.548345
0.533575
0.507734
0.527354
0.544895
0.577466
0.360048
0.422291
0.426839
0.441264
0.453637
0.375024
0.450937
0.442001
0.659167
0.994851
0.837818
1.15992
0.681448
1.00457
2.00876
5.21051
2.36256
0.822648
1.34866
1.58205
1.13906
0.628192
2.55201
3.55727
1.22966
1.78262
10.3744
8.42646
16.5054
10.9743
18.6535
6.0431
4.63537
17.8183
6.68344
6.92218
4.52223
4.52623
2.96205
1.58691
1.63128
1.74543
1.22852
1.302
1.21196
1.13375
1.47598
1.4427
1.89058
2.03892
2.58327
1.81393
1.78038
2.60709
1.06442
1.4033
1.84125
1.8341
1.36288
2.34972
3.16501
2.98236
2.15018
2.34162
3.51097
4.8269
4.59375
3.18165
3.98527
10.1468
13.5454
13.7011
4.22931
19.308
18.3183
2.09088
0.572919
0.329253
0.0909444
0.04465
0.0365065
0.0385141
0.14366
0.0456368
0.0569527
0.0455231
0.0738628
0.0700744
0.0875998
0.220113
0.127289
0.218341
0.156969
0.192849
0.123127
0.196837
0.23071
0.241037
0.192153
0.117981
0.21684
0.311762
0.108157
0.360144
0.396206
0.265157
0.338212
0.40271
0.20036
1.0018
0.186549
0.128832
0.149268
0.398926
1.27266
0.221831
0.465981
4.49918
14.7327
3.70145
0.946527
0.687494
0.0555317
0.030126
0.0320183
0.0278925
0.0193292
0.0848214
0.0997145
0.407447
0.209796
0.277924
0.661217
2.92457
2.39961
1.1351
5.51181
10.2792
15.1589
9.14553
2.24775
9.78247