/*--------------------------------*- C++ -*----------------------------------*\
| =========                 |                                                 |
| \\      /  F ield         | OpenFOAM: The Open Source CFD Toolbox           |
|  \\    /   O peration     | Version:  v2012                                 |
|   \\  /    A nd           | Website:  www.openfoam.com                      |
|    \\/     M anipulation  |                                                 |
\*---------------------------------------------------------------------------*/
FoamFile
{
    version     2.0;
    format      ascii;
    class       volScalarField;
    location    "145";
    object      k;
}
// * * * * * * * * * * * * * * * * * * * * * * * * * * * * * * * * * * * * * //

dimensions      [0 2 -2 0 0 0 0];


internalField   nonuniform List<scalar> 
18258
(
0.0333807
0.0157224
0.0122432
0.010068
0.0109379
0.0139071
0.0166995
0.0210631
0.0254859
0.0314396
0.0385242
0.0474762
0.0534946
0.0606657
0.0636502
0.061933
0.0520559
0.0472895
0.05645
0.080934
0.071037
0.0513745
0.0622805
0.0614663
0.0722859
0.076417
0.0601398
0.05491
0.0494961
0.0438129
0.0372476
0.0230807
0.0240868
0.0288283
0.0320378
0.03574
0.0385945
0.0409255
0.0425848
0.0434045
0.0433109
0.0420121
0.0393197
0.0352838
0.0298379
0.0238779
0.0235616
0.0237627
0.0294582
0.0350777
0.0405384
0.0461494
0.0545909
0.0446822
0.0290599
0.0392325
0.0477186
0.0546132
0.059038
0.0614825
0.0622404
0.0613208
0.0590238
0.055756
0.0517859
0.0474378
0.0434117
0.0394196
0.0341735
0.03091
0.0267987
0.0234572
0.0210199
0.0193097
0.0181919
0.017191
0.0163275
0.0155958
0.0149807
0.0145577
0.0144641
0.0144866
0.0145829
0.0146761
0.0150139
0.0126818
0.0109183
0.01045
0.010198
0.00955296
0.00810603
0.010662
0.0117606
0.0121746
0.0124379
0.0136111
0.014788
0.0143839
0.01367
0.0125773
0.012347
0.0168554
0.0177244
0.0227602
0.0214939
0.0165744
0.0149636
0.0167209
0.0195461
0.0225278
0.0192209
0.0192068
0.0179226
0.0170299
0.0148883
0.014918
0.0143991
0.0140931
0.0149995
0.0177488
0.0171703
0.0172908
0.0184994
0.0188132
0.0200269
0.0210329
0.0203753
0.0201968
0.0163578
0.0162594
0.0172972
0.0171739
0.0176507
0.0201394
0.0201964
0.0205404
0.0207574
0.0235614
0.0235809
0.0235531
0.0236426
0.0244658
0.0235194
0.0231151
0.023137
0.0231701
0.020986
0.0207607
0.0203975
0.0204352
0.0182733
0.017542
0.0182723
0.0192478
0.0212124
0.0249435
0.0313589
0.0402655
0.0503567
0.0606062
0.0683964
0.0727736
0.0771635
0.0766328
0.077362
0.0794803
0.0798623
0.0787273
0.0768734
0.0747087
0.0717599
0.0671341
0.0666854
0.0590446
0.0481458
0.0334168
0.0389184
0.0417501
0.0444954
0.0447837
0.0452518
0.0440312
0.0422685
0.0386965
0.0336035
0.0247246
0.0257841
0.0302245
0.0348802
0.0386617
0.0428205
0.0464427
0.0482839
0.0499855
0.0593291
0.0570842
0.0551829
0.0568955
0.058454
0.0616526
0.0600792
0.056142
0.0502018
0.0518441
0.0449713
0.0336363
0.0314266
0.0293124
0.0270056
0.0378035
0.0495859
0.061157
0.0675265
0.0737065
0.0785767
0.0826422
0.0871928
0.0817365
0.0765782
0.0578105
0.0839505
0.0658187
0.0505069
0.0411811
0.033254
0.031522
0.0342976
0.0343607
0.0325615
0.0280109
0.0220322
0.0229647
0.0358689
0.0456706
0.0536885
0.0552567
0.0599562
0.0624043
0.0571151
0.0576936
0.0468551
0.0480755
0.0514422
0.0460797
0.0437963
0.0352102
0.0275085
0.0336233
0.0500093
0.0686244
0.0845956
0.0997084
0.0661199
0.0501833
0.0410742
0.0342434
0.033087
0.0377098
0.0436602
0.0528563
0.0412
0.0371502
0.0336458
0.0307767
0.0258308
0.0275449
0.0287524
0.0269319
0.0498655
0.057495
0.0612749
0.0839114
0.0927067
0.108719
0.107355
0.0928285
0.0965846
0.0692475
0.0689276
0.0863187
0.0683009
0.0513252
0.0616086
0.0745252
0.0883099
0.101429
0.112698
0.121751
0.123428
0.111908
0.0810817
0.0466609
0.0212443
0.0186127
0.0180639
0.0173569
0.016472
0.0156753
0.0150539
0.0121253
0.00951047
0.00929289
0.00947412
0.00942217
0.00828075
0.00952756
0.0115896
0.0137791
0.0152841
0.0164899
0.0175064
0.0182371
0.0188225
0.0192188
0.0195136
0.01978
0.0200145
0.0201999
0.0203375
0.0204274
0.0204685
0.0204527
0.0203737
0.0202305
0.0200216
0.0197311
0.0192562
0.0177299
0.015882
0.0150552
0.0151133
0.0148637
0.0145619
0.011932
0.0123025
0.0143185
0.0149482
0.0177322
0.0197623
0.0214601
0.0229087
0.0244294
0.025202
0.0260248
0.026286
0.0263342
0.0262299
0.0260757
0.0258476
0.0255421
0.024479
0.0212419
0.0248382
0.0272314
0.0289227
0.0302769
0.031182
0.0312844
0.0285404
0.0360282
0.0384863
0.03939
0.0396561
0.0388419
0.0368448
0.0344086
0.0323618
0.0308554
0.0297385
0.0275969
0.02535
0.0230409
0.0206257
0.0174044
0.0186701
0.0205004
0.0207097
0.0204163
0.0214545
0.0227062
0.0210505
0.0189601
0.016077
0.0150851
0.0145996
0.0144133
0.0148265
0.014479
0.0143731
0.0148651
0.0178658
0.0189588
0.0206565
0.0239083
0.0227787
0.020839
0.0279991
0.0296065
0.0300525
0.0303984
0.0303048
0.0295418
0.0264816
0.0250326
0.0264213
0.024971
0.0243457
0.0244402
0.0240742
0.022219
0.0245195
0.0265212
0.0281133
0.0289613
0.0301871
0.0317398
0.033895
0.0356843
0.0373384
0.0383364
0.0383124
0.0377746
0.0379533
0.038598
0.0382697
0.0365745
0.0344978
0.0324048
0.0294479
0.0292686
0.0312367
0.0327996
0.0344622
0.0362429
0.0355616
0.0336682
0.03204
0.0306202
0.0289158
0.0287983
0.0304693
0.0319115
0.0336523
0.0357786
0.0359584
0.0338089
0.0319882
0.0304857
0.0287881
0.0287582
0.0304537
0.0319647
0.0336911
0.0355878
0.0347213
0.0332412
0.0317161
0.0302492
0.0285892
0.028155
0.0297551
0.0311373
0.0324547
0.033529
0.0318594
0.0312599
0.0301864
0.0287976
0.0270434
0.0257921
0.0263
0.0276842
0.0277953
0.0282763
0.0293969
0.0292508
0.0289721
0.028936
0.0286557
0.0264104
0.026816
0.0268577
0.0275449
0.0308155
0.0303369
0.0330094
0.0354212
0.0331218
0.0316325
0.0280665
0.0335876
0.0336369
0.0346087
0.0334503
0.0236998
0.0218504
0.0228466
0.0243736
0.0260107
0.0253133
0.0225698
0.0225066
0.0231089
0.0225318
0.0209851
0.0180133
0.0135363
0.0135432
0.0135349
0.0142653
0.0170572
0.0186449
0.0187561
0.0186034
0.0183049
0.0178388
0.0171303
0.0160713
0.0156129
0.0245655
0.0444083
0.0563441
0.0557783
0.0424532
0.0354718
0.026036
0.0176865
0.0101958
0.010737
0.0113297
0.0137391
0.0116573
0.0103441
0.0142123
0.0116733
0.0195506
0.0227997
0.0302298
0.0412573
0.0397725
0.0301306
0.0204
0.018435
0.0192885
0.0197946
0.0201776
0.0205553
0.0209371
0.021353
0.0218607
0.0215426
0.0189189
0.016685
0.0168161
0.0173862
0.0198788
0.0212483
0.0220342
0.0217031
0.0219493
0.0236646
0.0224226
0.0212021
0.0209959
0.0202956
0.0231253
0.0234695
0.0228444
0.0228482
0.0231258
0.0230051
0.0231381
0.0239423
0.0197622
0.0218685
0.0224181
0.0227006
0.0234938
0.0190149
0.019203
0.0192651
0.0181139
0.0148672
0.0179735
0.0167331
0.0121393
0.0134502
0.0134217
0.0140354
0.0143621
0.0171111
0.0162796
0.0155537
0.0163077
0.0222657
0.0230776
0.0232578
0.0206201
0.0193757
0.0218599
0.0224455
0.0219839
0.0210987
0.0212659
0.0203254
0.0184262
0.0177083
0.0178452
0.0192532
0.0200486
0.0201147
0.0237124
0.0232136
0.0216576
0.0226426
0.0232314
0.022824
0.0227116
0.0226601
0.0222911
0.0218725
0.0222833
0.0224692
0.0225246
0.02209
0.0223378
0.0249482
0.0214305
0.021237
0.020155
0.0194994
0.0178739
0.0176205
0.0177176
0.0176768
0.017582
0.0167456
0.0185999
0.0178745
0.0200033
0.0216125
0.0227608
0.0239287
0.024077
0.0236476
0.0236069
0.0232244
0.02319
0.0226428
0.0217997
0.0212175
0.0204451
0.0192391
0.0192306
0.0191803
0.019036
0.0204384
0.0203373
0.0218985
0.0230159
0.022731
0.0217686
0.0216605
0.0204867
0.0204646
0.0215035
0.0223896
0.0226379
0.0234926
0.0259972
0.0236831
0.0252304
0.0259331
0.02659
0.0259846
0.0248918
0.0256405
0.0239795
0.0228692
0.0241837
0.0249056
0.0261644
0.0269585
0.0249836
0.0239572
0.022763
0.0219022
0.0209196
0.0184005
0.0190095
0.0197964
0.0210245
0.022837
0.0255495
0.0282816
0.0311913
0.0312489
0.0289578
0.0272642
0.0320603
0.0315288
0.0364875
0.0370938
0.0329745
0.0301729
0.027264
0.0268394
0.0259252
0.0253938
0.024128
0.025373
0.0257934
0.0248531
0.0273169
0.0288908
0.0332149
0.0387764
0.0354469
0.0326251
0.0376768
0.0365917
0.0425398
0.0363231
0.0346741
0.0285449
0.0331411
0.0354999
0.0432283
0.0338247
0.0296494
0.0294316
0.0307593
0.0382386
0.0367798
0.0393637
0.0445216
0.0438592
0.0389924
0.0357575
0.0415008
0.0315509
0.0369873
0.0389986
0.0323915
0.032146
0.0390048
0.0396128
0.0397868
0.033718
0.0329856
0.0249801
0.0335296
0.0399925
0.0399096
0.0331466
0.0259555
0.0358346
0.0314664
0.0312679
0.0312727
0.026875
0.0268046
0.0261061
0.0263579
0.0270582
0.0246461
0.0254427
0.0256974
0.0258562
0.0259843
0.0261742
0.0265175
0.0271626
0.0278991
0.0228406
0.0242733
0.0229306
0.0215959
0.0202484
0.0240206
0.0264937
0.0282977
0.0297483
0.0308784
0.0313578
0.0299481
0.0379357
0.0396355
0.0412675
0.0414254
0.0402048
0.0375762
0.0341675
0.0307335
0.0285717
0.0272497
0.0247567
0.0226292
0.0205565
0.0184049
0.0156001
0.0142727
0.0129651
0.0116111
0.0112913
0.0107679
0.0101818
0.00952376
0.00918325
0.0115433
0.0175823
0.0274614
0.0327036
0.0382043
0.044944
0.0516634
0.0571265
0.0611672
0.0639984
0.0657476
0.0662043
0.063598
0.0527266
0.047663
0.0427336
0.0377522
0.0327286
0.032038
0.0411492
0.0494712
0.0565218
0.0628885
0.0670487
0.0654317
0.0499341
0.046744
0.06231
0.0897977
0.0805203
0.103502
0.119952
0.0795629
0.0648598
0.0641275
0.0795161
0.0820174
0.0753721
0.0663665
0.0564577
0.0454792
0.0505441
0.0553714
0.059985
0.0646275
0.0778761
0.0803333
0.0791244
0.076674
0.0734197
0.0688806
0.0620733
0.0532913
0.044119
0.0363386
0.0292359
0.0187456
0.0126937
0.0135381
0.0130351
0.0141365
0.0140014
0.0100262
0.0103755
0.0105899
0.0105185
0.01026
0.0103146
0.0116941
0.0182573
0.0150128
0.0136569
0.0117584
0.0144869
0.0163631
0.0181997
0.0187891
0.0189602
0.0196465
0.0334727
0.0438034
0.0497222
0.0545637
0.0580907
0.0567333
0.0531767
0.0470532
0.0397737
0.0370849
0.0330676
0.0297086
0.0280111
0.02897
0.0254082
0.0156845
0.0146727
0.0157307
0.0154138
0.0144299
0.0163731
0.0175883
0.0183597
0.0189824
0.0194469
0.0198036
0.0200574
0.0202253
0.0203128
0.0203377
0.0203139
0.0202464
0.0201341
0.0199744
0.0197571
0.0194523
0.0189349
0.017232
0.0153993
0.0146844
0.014767
0.0145356
0.0141721
0.0122983
0.0125243
0.0143804
0.014982
0.0145916
0.0151804
0.0156488
0.0168482
0.0190165
0.0211525
0.0229917
0.0216914
0.0210431
0.0210208
0.0206168
0.0174827
0.0207951
0.023651
0.0241623
0.0244247
0.0252355
0.0268237
0.0277878
0.0268598
0.0263675
0.025839
0.022772
0.0244092
0.027916
0.0283281
0.0289882
0.0295776
0.0301357
0.0314381
0.0308149
0.0299468
0.029356
0.0265474
0.0256744
0.031612
0.0206763
0.0145701
0.0104867
0.0108613
0.0110751
0.0107581
0.0115387
0.0120852
0.0123269
0.0116814
0.0127673
0.0136851
0.0129599
0.0155378
0.0148358
0.0138235
0.0133572
0.0141515
0.0148937
0.0152808
0.0163831
0.0264877
0.0273
0.0228053
0.029338
0.0318998
0.0290018
0.0318967
0.0295612
0.0282346
0.0310223
0.0343898
0.0356115
0.0332722
0.0319021
0.0312392
0.0208218
0.0201362
0.0194154
0.0175629
0.0178396
0.0173742
0.0169118
0.0164983
0.0189988
0.0203866
0.0215245
0.0212191
0.0209181
0.0205132
0.0209611
0.0251682
0.0334452
0.0435916
0.0468957
0.0456559
0.0417357
0.0348436
0.0284596
0.0280493
0.026157
0.0249574
0.0247008
0.0187406
0.0149037
0.0174271
0.0173571
0.0184187
0.0190886
0.0196161
0.0200367
0.0203873
0.02069
0.0209827
0.0212548
0.0214933
0.0216944
0.021867
0.02201
0.0221633
0.0223481
0.0226043
0.0228117
0.0212005
0.0185889
0.0172492
0.0171025
0.0178171
0.0187201
0.0198478
0.0191027
0.0153841
0.0154554
0.021876
0.0223149
0.0209459
0.019526
0.0197253
0.0188871
0.0226774
0.02248
0.0232529
0.0230472
0.0227681
0.0224889
0.0222113
0.0219255
0.0216428
0.021395
0.0211691
0.0209592
0.0207526
0.0205277
0.0202543
0.0198516
0.0191727
0.0183816
0.0169349
0.0180261
0.0192751
0.0209519
0.0227649
0.0236242
0.0227368
0.0215279
0.0210106
0.0212424
0.0215449
0.0218701
0.0222188
0.0226255
0.0230408
0.0234337
0.0233921
0.0220754
0.0227155
0.0174304
0.018284
0.0185817
0.0185395
0.0201984
0.0193442
0.0146413
0.0151528
0.0158719
0.0171524
0.0197349
0.0200927
0.0214343
0.0216604
0.0172849
0.0169802
0.0165561
0.0175617
0.0151995
0.0158344
0.0265448
0.027158
0.0349121
0.0382553
0.0398647
0.0330977
0.0455593
0.0523949
0.0505147
0.0408788
0.0234893
0.0346308
0.0421346
0.0487783
0.0457183
0.0355492
0.0448628
0.0473219
0.0632115
0.0588564
0.0524869
0.0632275
0.0446743
0.0269042
0.0158044
0.0163745
0.0151785
0.0306301
0.0347334
0.0314371
0.032275
0.0399045
0.0409189
0.0361834
0.0344959
0.0362507
0.0357978
0.0397487
0.0370497
0.0336725
0.0232652
0.0189939
0.0198323
0.0212391
0.0230655
0.0254066
0.0253
0.0241569
0.0227937
0.0218193
0.020768
0.0182754
0.0176199
0.0195761
0.0212022
0.0225775
0.0240841
0.0249028
0.0257416
0.0259061
0.0257985
0.0254772
0.025051
0.0244992
0.0238183
0.0224127
0.0236421
0.02432
0.0245244
0.0247976
0.0251054
0.0253774
0.0255156
0.0254003
0.0244564
0.0236505
0.022487
0.0213725
0.0197706
0.0176593
0.0183395
0.0200938
0.0216886
0.0227989
0.0238459
0.023454
0.0239406
0.0245919
0.0246163
0.0244392
0.0242205
0.0240756
0.024173
0.0248084
0.0265193
0.026235
0.0290451
0.0302212
0.0276548
0.0263271
0.0256377
0.025216
0.0249756
0.0247756
0.0245839
0.0240478
0.0235101
0.0240024
0.0242475
0.0245372
0.0248875
0.0253869
0.0260711
0.0271587
0.0285633
0.0284499
0.026241
0.0260981
0.025044
0.0242559
0.0238745
0.0238161
0.0238552
0.0239522
0.0238877
0.0233709
0.0230458
0.0234502
0.022443
0.0225103
0.021542
0.0201875
0.0187511
0.0173039
0.0166444
0.0352743
0.0352467
0.0457476
0.0423971
0.0370783
0.0471408
0.0601026
0.0520964
0.0628036
0.0665942
0.0541383
0.0502966
0.0278568
0.024368
0.017376
0.0188967
0.0202375
0.0214377
0.0212545
0.0221717
0.0220542
0.0230173
0.0224758
0.0216925
0.0211512
0.0201389
0.020194
0.0189268
0.0173866
0.0172545
0.0188978
0.0199389
0.0211129
0.0211066
0.0225591
0.0230649
0.0234657
0.0236236
0.0236239
0.0237222
0.0239013
0.024354
0.0250685
0.0255316
0.0256711
0.0260613
0.0257954
0.025482
0.025035
0.024733
0.0244216
0.024149
0.0238609
0.0235897
0.023165
0.0225134
0.022398
0.0229072
0.0232415
0.0234692
0.0235983
0.0235746
0.023377
0.0230565
0.0227343
0.0223799
0.0224441
0.0237727
0.0240206
0.0241537
0.0239368
0.0237584
0.0237289
0.0235945
0.0234839
0.0232454
0.0228709
0.0223968
0.0213322
0.0214342
0.0223143
0.0227624
0.0230993
0.0233882
0.0234245
0.0233549
0.0229884
0.0226973
0.0223458
0.021776
0.0210305
0.0185622
0.0190304
0.0196577
0.0205087
0.0213645
0.022093
0.0225596
0.0227586
0.0227627
0.0225956
0.0222468
0.0215008
0.0214834
0.0220206
0.0221839
0.0221261
0.021813
0.0211836
0.0202474
0.0190317
0.0178042
0.0168247
0.0163405
0.0155644
0.0181817
0.0192375
0.0202023
0.0210814
0.0218986
0.0227468
0.0230636
0.0231108
0.0229433
0.0226685
0.02225
0.0214786
0.0214867
0.0221904
0.0225854
0.0228104
0.0229113
0.022647
0.0219805
0.0204483
0.019025
0.0178282
0.0167242
0.0155859
0.0152711
0.0157721
0.0153447
0.0157805
0.0169101
0.0183967
0.0197671
0.020765
0.0213729
0.0216696
0.0217069
0.0213817
0.0212008
0.0213218
0.0211145
0.020611
0.0197385
0.0184527
0.0169823
0.0157609
0.0153824
0.0160104
0.0166673
0.0160776
0.0138823
0.0150049
0.0161074
0.0172582
0.0189438
0.0209981
0.0219884
0.0224709
0.0226084
0.0224794
0.022112
0.0214612
0.0214042
0.0220234
0.0223793
0.022483
0.0223832
0.0219429
0.0211098
0.0186071
0.0158599
0.0146063
0.013888
0.012948
0.0162335
0.0169169
0.0160876
0.0155427
0.0163913
0.0174308
0.0185832
0.0194771
0.0201283
0.0206396
0.020924
0.0209602
0.0206854
0.02056
0.0203281
0.0199715
0.0196197
0.0192734
0.0184947
0.0176622
0.0167073
0.0177832
0.0183743
0.0176333
0.01444
0.0149958
0.01581
0.0163318
0.0189858
0.021449
0.0221232
0.0223239
0.0224308
0.022304
0.0219181
0.0213135
0.0211866
0.0218077
0.0222759
0.0225637
0.0228441
0.0230439
0.0231802
0.021283
0.0179956
0.0172384
0.0155569
0.0147333
0.0181967
0.0188587
0.0183498
0.0177756
0.0194402
0.020143
0.0203907
0.0203846
0.0203209
0.0202444
0.0202766
0.0204023
0.0201008
0.0199636
0.0200531
0.0202569
0.0202078
0.0199851
0.0194152
0.0186463
0.0175644
0.0194285
0.0211213
0.0208703
0.0169582
0.0174865
0.0182693
0.0178472
0.0205539
0.0224076
0.0229117
0.0228774
0.0225864
0.0221352
0.0216142
0.0209965
0.0207171
0.0212592
0.0218083
0.0218401
0.0219407
0.0219
0.0213435
0.0211773
0.0206112
0.0203408
0.01959
0.0190146
0.0182789
0.0204057
0.0235569
0.0257309
0.0272897
0.0291562
0.02773
0.0242572
0.0220215
0.0152389
0.0152444
0.0154606
0.0148456
0.0144814
0.0143086
0.0186913
0.0213774
0.0240074
0.0256975
0.0233072
0.0232785
0.0232013
0.0230911
0.0229879
0.0228928
0.0226914
0.0233891
0.0408216
0.282731
0.209173
0.23505
0.224233
0.315307
0.0791751
0.0388101
0.0431953
0.0503818
0.0579621
0.056144
0.0520467
0.0453099
0.0405003
0.0400983
0.0393351
0.0391084
0.0378734
0.0379166
0.0373413
0.0450071
0.0954826
0.12408
0.137625
0.146053
0.154974
0.150394
0.159306
0.151149
0.151562
0.15309
0.157795
0.150402
0.143058
0.139233
0.134929
0.117647
0.117995
0.0995959
0.103393
0.0863287
0.0908398
0.0947161
0.0940602
0.0928691
0.0926665
0.0929651
0.093815
0.0975898
0.0928909
0.0989835
0.0913893
0.0732069
0.0708728
0.0730742
0.0673529
0.058799
0.0671582
0.0827493
0.0989839
0.116103
0.0985026
0.122598
0.115573
0.11577
0.109826
0.103236
0.099378
0.0985726
0.0991473
0.10025
0.102874
0.104799
0.106389
0.109291
0.117844
0.120232
0.118878
0.101445
0.0861607
0.0946129
0.099442
0.103109
0.103375
0.0986402
0.0965502
0.0904601
0.0889114
0.0834297
0.0808258
0.0753957
0.0720671
0.0672643
0.0838063
0.0819465
0.0889374
0.0952189
0.0994351
0.103083
0.104659
0.105932
0.104733
0.102341
0.097319
0.0951751
0.0903481
0.108791
0.127154
0.129845
0.125165
0.111693
0.106076
0.338772
0.411069
0.412311
0.61231
0.654289
0.846296
0.335667
0.179501
0.191893
0.188575
0.180416
0.177259
0.177092
0.188898
0.19807
0.189081
0.200844
0.178693
0.177439
0.170062
0.198136
0.195844
0.176588
0.154671
0.121962
0.0995823
0.0992006
0.0822945
0.0830429
0.0718952
0.0726243
0.07429
0.0916662
0.17084
0.209596
0.236211
0.262544
0.32294
0.292569
0.441942
0.353789
0.439141
0.302935
0.327536
0.313203
0.304382
0.302357
0.31835
0.341106
0.299834
0.373075
0.298795
0.647399
0.784048
0.496026
0.458461
0.406467
0.392349
0.382488
0.376966
0.368972
0.486902
0.451535
0.555324
0.516096
0.648413
0.56816
0.575905
0.54292
0.581957
0.603255
0.616603
0.49255
0.538128
0.418227
0.452627
0.376632
0.412534
0.292525
0.2922
0.334637
0.371653
0.397494
0.45422
0.714065
0.606111
0.817393
0.585211
0.707106
0.490956
0.538033
0.513735
0.496062
0.497697
0.525723
0.62985
0.609097
0.695898
0.514705
0.526979
0.516706
0.534049
0.523489
0.558444
0.563135
0.564317
0.562299
0.523424
0.534027
0.532198
0.531976
0.531994
0.532341
0.509583
0.512765
0.505226
0.511007
0.526914
0.514585
0.514501
0.512368
0.504795
0.502741
0.502256
0.504015
0.503784
0.508918
0.508788
0.509129
0.51219
0.526903
0.514432
1.82675
0.903499
0.430556
0.340229
0.220025
0.134878
0.0557284
0.0602016
0.0631606
0.0641247
0.0621193
0.0567796
0.0486459
0.0386613
0.0308787
0.0300285
0.0267756
0.0266966
0.0345055
0.0421658
0.0385829
0.0463832
0.05408
0.0623899
0.0703636
0.0773064
0.0831741
0.0860867
0.0830352
0.0702963
0.0526226
0.0352378
0.0249927
0.0225941
0.0209517
0.0189595
0.0168581
0.0152132
0.0142136
0.0130495
0.0124234
0.0123402
0.0125653
0.0128072
0.0132498
0.0147597
0.0160548
0.017235
0.0181943
0.0184372
0.0179117
0.01845
0.0190406
0.0194339
0.0197776
0.0195894
0.0195714
0.0198171
0.0197743
0.0199697
0.0198701
0.0198729
0.019733
0.0195643
0.0193388
0.0189061
0.0186273
0.0180649
0.0177183
0.0168908
0.0169264
0.0173335
0.0176582
0.016655
0.0165921
0.0158502
0.0271893
0.048364
0.0611451
0.0661856
0.0714672
0.0674419
0.0571691
0.0392763
0.0192183
0.0187305
0.0192089
0.021739
0.0212896
0.0173372
0.0181112
0.0186773
0.017491
0.0174193
0.0174505
0.0194903
0.0200881
0.0214454
0.0219395
0.0223185
0.022538
0.02249
0.022581
0.0222986
0.0222949
0.0219152
0.0218973
0.0215817
0.021354
0.0216408
0.0223348
0.0224175
0.0230688
0.0227755
0.022485
0.0219243
0.0215177
0.0206677
0.0197466
0.0187301
0.017188
0.0167436
0.0172433
0.0177324
0.0172701
0.0186596
0.0199477
0.0196415
0.0243845
0.0226132
0.0201717
0.0226645
0.0183927
0.0185565
0.0180347
0.0169668
0.0175155
0.0170234
0.0169632
0.0172615
0.0175611
0.01872
0.0196898
0.0203315
0.0211971
0.0218412
0.0225536
0.0237486
0.0240437
0.0230494
0.0228565
0.021676
0.0210032
0.0206805
0.0215963
0.0228799
0.0228078
0.0237102
0.0234657
0.0222246
0.0214137
0.0205594
0.0195763
0.0189101
0.0181205
0.0173738
0.0169524
0.0161278
0.0162194
0.0151287
0.0166951
0.0171611
0.0193806
0.0173632
0.0169284
0.0225538
0.0285339
0.0444506
0.0325041
0.0214946
0.0231408
0.0313367
0.039046
0.0275835
0.0271818
0.0152524
0.0178793
0.0151151
0.0154156
0.0164834
0.016776
0.0179739
0.0190397
0.019281
0.0200305
0.0203773
0.021145
0.0214043
0.0221396
0.0223346
0.0236058
0.0236753
0.0237367
0.0237144
0.0229032
0.0228275
0.0228255
0.0232848
0.023078
0.0237905
0.0238208
0.02391
0.0238393
0.0225
0.0221747
0.021403
0.0208851
0.0199814
0.0194265
0.0187077
0.0183185
0.0176724
0.0179941
0.0187175
0.0189117
0.0198586
0.0198784
0.0206199
0.0208293
0.0212979
0.0214328
0.0220987
0.0222397
0.0225089
0.0225659
0.0237755
0.0238915
0.0239309
0.0238961
0.0239096
0.024134
0.0241299
0.024069
0.024047
0.0239312
0.0237613
0.0235879
0.0246458
0.02533
0.0249043
0.0246768
0.0249433
0.025787
0.026338
0.0274151
0.0282633
0.029321
0.0302025
0.0310109
0.0316736
0.0321378
0.032249
0.0322747
0.0318197
0.031441
0.0331266
0.0395941
0.0428104
0.0480583
0.0504309
0.0523835
0.0530921
0.0519479
0.0526777
0.0514111
0.0516805
0.0505007
0.0500876
0.0492799
0.0482987
0.0475894
0.0461499
0.0454255
0.0500155
0.056586
0.0566729
0.049571
0.0466362
0.0425236
0.0372064
0.0389583
0.0454305
0.0409284
0.0384371
0.035714
0.0308077
0.0237499
0.0179497
0.0257448
0.0334878
0.0407243
0.0474925
0.0534686
0.0573363
0.0594465
0.0609674
0.0626451
0.0605947
0.0531288
0.0415089
0.0316745
0.0278078
0.0262562
0.0238143
0.0203781
0.0184928
0.0174212
0.0162711
0.014929
0.0140768
0.0138389
0.0140916
0.01421
0.0155519
0.016809
0.0167997
0.0179743
0.0177765
0.0182846
0.0188746
0.019276
0.0199283
0.0198958
0.018937
0.0192827
0.0195404
0.0202091
0.0201069
0.0202726
0.0200545
0.0193377
0.0188234
0.0182268
0.0177091
0.0172492
0.0166776
0.015969
0.0159625
0.016151
0.0157005
0.0161062
0.016548
0.0169578
0.0175865
0.0184923
0.0192509
0.0210819
0.0212231
0.0209752
0.0210639
0.0196431
0.0195821
0.0186147
0.0183831
0.0199737
0.019818
0.0181503
0.0195366
0.0195391
0.0213146
0.0213161
0.0206418
0.0208342
0.0207178
0.0188904
0.0179996
0.0169328
0.0161515
0.0155591
0.0151558
0.0146899
0.0153132
0.0140824
0.0135237
0.0139904
0.0139658
0.0140363
0.0144291
0.0148614
0.015605
0.016311
0.0173551
0.017994
0.0188921
0.0192262
0.0211352
0.0210469
0.0209203
0.020952
0.0210928
0.0215426
0.0207516
0.0207136
0.0208495
0.0208641
0.0208856
0.020868
0.0190289
0.0188251
0.01799
0.0176718
0.0167422
0.0163817
0.0157238
0.0154064
0.0150134
0.0148128
0.0231953
0.0253801
0.0255194
0.039623
0.0198867
0.0198795
0.0341757
0.017277
0.0229618
0.0235063
0.0245771
0.025826
0.022455
0.0306024
0.021125
0.0232592
0.0240001
0.0251434
0.0129165
0.0204302
0.0380459
0.0427853
0.0440843
0.0490027
0.0556027
0.0587761
0.0617997
0.0638115
0.0660741
0.0685252
0.0709271
0.0726649
0.0728117
0.0691221
0.066055
0.0565454
0.0527141
0.0564618
0.0608913
0.0473807
0.0425757
0.0431218
0.0435866
0.0441204
0.0443268
0.0450154
0.0448188
0.045817
0.0450807
0.0461861
0.0450369
0.0460613
0.0448183
0.0420792
0.0388473
0.0326339
0.0306496
0.0295375
0.0268159
0.0243058
0.0220498
0.020219
0.019784
0.0182221
0.0168198
0.0165225
0.0152393
0.0155097
0.0167218
0.0198466
0.0168048
0.0176288
0.025946
0.0190981
0.0180022
0.0185486
0.0190665
0.0193043
0.0182011
0.0198227
0.0220975
0.022089
0.0221518
0.0221617
0.0213543
0.0211896
0.0209173
0.0209721
0.0210046
0.0211261
0.0210936
0.0192691
0.0192127
0.0189388
0.0188002
0.0180113
0.0178434
0.0172598
0.0169289
0.0160905
0.0157967
0.0153509
0.0154222
0.0168168
0.0209199
0.030651
0.0175389
0.0183037
0.0158014
0.0139619
0.0266155
0.0246608
0.0285467
0.026697
0.0392718
0.026336
0.0230964
0.0240951
0.0296107
0.0295719
0.03256
0.0422681
0.0329364
0.028263
0.0744774
0.0550053
0.0336377
0.0469366
0.0588167
0.109721
0.12781
0.0561546
0.0566428
0.0623067
0.0632242
0.0631248
0.0536726
0.0494161
0.041791
0.0323933
0.0128183
0.024857
0.0321384
0.0432156
0.0578207
0.0919798
0.0529362
0.0597441
0.0657098
0.0647996
0.0678908
0.0660656
0.0646918
0.0656216
0.102437
0.111263
0.108269
0.0872702
0.0818522
0.0742056
0.123932
0.138701
0.119823
0.129908
0.136066
0.0828688
0.0304653
0.0248504
0.0237363
0.0263023
0.0252253
0.045831
0.0204905
0.0217219
0.0225579
0.0270433
0.0300627
0.0527278
0.0231603
0.0253667
0.0322947
0.0347803
0.0458102
0.0273579
0.0280076
0.0343222
0.036112
0.039426
0.0335388
0.0316438
0.0286212
0.0258329
0.024336
0.0253882
0.0317542
0.0461688
0.0277921
0.0282197
0.0299826
0.133823
0.0306461
0.0265636
0.0276504
0.0266516
0.0335682
0.0349843
0.111538
0.0354945
0.0166752
0.0154096
0.0158694
0.0166733
0.0173097
0.0179276
0.0183731
0.0190137
0.0194086
0.0195617
0.0197297
0.0221074
0.0220089
0.0215443
0.0210012
0.0217945
0.0211
0.0211487
0.0217669
0.0212333
0.0213784
0.0224289
0.0236025
0.0231124
0.023678
0.0250295
0.0238697
0.0221697
0.021963
0.0220857
0.0227923
0.0239288
0.0227369
0.0233881
0.0225691
0.0234861
0.0235965
0.0202988
0.0199317
0.0197282
0.0192236
0.0185505
0.0179287
0.0172658
0.0166364
0.0161756
0.0161643
0.0167601
0.0151762
0.0156473
0.0182252
0.040364
0.0333978
0.0272357
0.0226413
0.0197562
0.0184679
0.018275
0.0186878
0.0193318
0.0198938
0.0201028
0.0206866
0.0245632
0.0245033
0.0257083
0.0245771
0.0259146
0.0248608
0.0235399
0.0226707
0.023879
0.0231828
0.0236743
0.0252905
0.0261347
0.0237697
0.02404
0.0214506
0.0200398
0.0184342
0.0187742
0.0202155
0.0208892
0.023325
0.0234051
0.026843
0.0268225
0.026677
0.0254409
0.0247655
0.0262147
0.0247275
0.0258766
0.0247647
0.0261655
0.0273477
0.0276886
0.0269823
0.0261313
0.0252557
0.0209864
0.0201999
0.0198953
0.0194104
0.0191844
0.0201973
0.024657
0.0341482
0.0465012
0.0587129
0.0680161
0.0673432
0.0605428
0.0413531
0.0421286
0.0392348
0.0425383
0.0608856
0.0876508
0.0617971
0.115099
0.0891879
0.052914
0.0630974
0.0751158
0.0843021
0.090314
0.0915277
0.0781901
0.0577158
0.0506757
0.0530567
0.0850756
0.0837569
0.0825041
0.0780227
0.082541
0.0804139
0.0777396
0.0761716
0.074387
0.0701172
0.0700992
0.067379
0.0673365
0.0601993
0.0613799
0.0616041
0.0590253
0.0562747
0.0539858
0.0517937
0.0494685
0.0455738
0.0442957
0.0418163
0.040076
0.0367184
0.0361784
0.0356932
0.0335212
0.0319705
0.0307182
0.0294582
0.0277577
0.0279187
0.0263299
0.0261737
0.0213231
0.0209446
0.0199304
0.0196018
0.0193744
0.019626
0.0209621
0.0237669
0.0440715
0.0332585
0.0329891
0.0334889
0.0336681
0.0395578
0.0463318
0.0705169
0.0652354
0.0717778
0.061371
0.063814
0.0630324
0.0626564
0.0653793
0.068966
0.0743079
0.0868066
0.333517
0.513801
0.253196
0.237168
0.246787
0.251672
0.259091
0.33907
0.360052
0.355929
0.36054
0.330374
0.318298
0.19659
0.226017
0.238099
0.237011
0.223936
0.202749
0.394503
0.522647
0.518785
0.523657
0.523769
0.518766
0.5226
0.502912
0.514275
0.501758
0.515029
0.502297
0.52167
0.518928
0.504364
0.501137
0.501157
0.500917
0.501379
0.501556
0.504895
0.506056
0.506108
0.505103
0.504124
0.514518
0.438785
0.123762
0.0863051
0.143624
0.199567
0.163597
0.235801
0.270828
0.195321
0.111296
0.0910882
0.102739
0.126557
0.128028
0.15515
0.202747
0.189694
0.15491
0.155826
0.156768
0.20209
0.193466
0.219627
0.262109
0.255051
0.190412
0.15182
0.151519
0.22967
0.244013
0.239185
0.124915
0.0451036
0.021993
0.0229781
0.0327535
0.0166095
0.016834
0.0225371
0.0594504
0.0982257
0.0511718
0.137855
0.13917
0.182491
0.147747
0.178444
0.115908
0.119023
0.0677703
0.0797692
0.0896933
0.095415
0.099762
0.094062
0.217485
0.321677
0.191676
0.562532
0.538533
0.196652
0.217484
0.576084
0.513006
0.503529
0.501786
0.501698
0.501859
0.501816
0.50097
0.500915
0.500728
0.500765
0.500716
0.501163
0.504767
0.520392
0.514605
0.50524
0.501385
0.500824
0.500799
0.500691
0.50073
0.50075
0.500808
0.501018
0.50105
0.501151
0.501671
0.503941
0.512022
0.435259
0.169944
0.182321
0.405922
0.361711
0.511499
0.504622
0.501369
0.500942
0.500856
0.500829
0.500795
0.500969
0.50089
0.501397
0.501231
0.501287
0.502777
0.508257
0.506394
0.443002
0.369327
0.417015
0.329948
0.50667
0.507776
0.503277
0.5029
0.503247
0.503414
0.501514
0.501527
0.500992
0.501061
0.500893
0.501341
0.504755
0.511008
0.345893
0.170893
0.177797
0.257996
0.0879604
0.090896
0.0928216
0.0949242
0.247513
0.442667
0.556632
0.471937
0.475742
0.542941
0.386114
0.364851
0.294464
0.317808
0.402286
0.347405
0.312931
0.250478
0.288732
0.247726
0.303476
0.217877
0.234152
0.221756
0.283107
0.286942
0.28729
0.226704
0.216596
0.271668
0.285867
0.316747
0.21876
0.258989
0.203371
0.192371
0.0872109
0.089394
0.0812865
0.0713593
0.0710886
0.0792091
0.077644
0.0838461
0.0808442
0.0845302
0.0816521
0.0796431
0.0728383
0.074866
0.0686516
0.0713051
0.130305
0.166391
0.150367
0.15179
0.179424
0.131112
0.157402
0.153582
0.197621
0.247993
0.227717
0.293772
0.225739
0.275764
0.4058
0.754338
0.441861
0.245241
0.318202
0.339686
0.288563
0.189547
0.44932
0.538083
0.297806
0.359764
1.19502
1.0428
1.78044
0.992433
1.11983
0.6715
0.597662
1.02906
0.654426
0.667081
0.560385
0.573922
0.500044
0.324773
0.324432
0.306261
0.242276
0.281271
0.271939
0.266851
0.29659
0.261911
0.317135
0.35282
0.397595
0.322843
0.285917
0.367664
0.215845
0.291578
0.347069
0.316335
0.260314
0.339009
0.451213
0.423586
0.364681
0.400098
0.510704
0.564623
0.535116
0.45423
0.516404
1.0091
0.966382
0.932293
0.591711
1.9337
1.7216
0.356301
0.139845
0.0977567
0.0369297
0.0225008
0.018227
0.0178303
0.0488607
0.0194916
0.0235031
0.0211983
0.0303646
0.0274386
0.0317388
0.0560615
0.0378338
0.0534214
0.0395595
0.052972
0.0421531
0.0580101
0.0622904
0.0656862
0.0531413
0.0418709
0.0632613
0.0843965
0.0395267
0.10161
0.107393
0.0695319
0.0844374
0.104241
0.0540242
0.166887
0.0577262
0.0576013
0.0688393
0.129126
0.255271
0.0869837
0.113564
0.590261
1.53349
0.514205
0.203789
0.166357
0.0413428
0.0358432
0.0293761
0.0354664
0.031234
0.0634691
0.0640586
0.156566
0.124862
0.146883
0.208292