/*--------------------------------*- C++ -*----------------------------------*\
| =========                 |                                                 |
| \\      /  F ield         | OpenFOAM: The Open Source CFD Toolbox           |
|  \\    /   O peration     | Version:  v2012                                 |
|   \\  /    A nd           | Website:  www.openfoam.com                      |
|    \\/     M anipulation  |                                                 |
\*---------------------------------------------------------------------------*/
FoamFile
{
    version     2.0;
    format      ascii;
    class       volVectorField;
    location    "240";
    object      U;
}
// * * * * * * * * * * * * * * * * * * * * * * * * * * * * * * * * * * * * * //

dimensions      [0 1 -1 0 0 0 0];


internalField   nonuniform List<vector> 
22960
(
(-0.183222 -0.385373 0.261289)
(-0.0492929 -0.453881 0.273129)
(-0.0980729 -0.465946 0.121783)
(-0.133743 -0.277097 0.0657609)
(0.188221 -0.168731 0.0728279)
(0.0421912 -0.389942 0.105326)
(0.0688435 -0.142576 0.114055)
(0.0823504 -0.217009 0.129244)
(0.202337 -0.167977 0.0699289)
(0.230459 -0.141122 0.0576987)
(0.278522 -0.1139 0.0527826)
(0.242466 -0.10068 0.0973573)
(0.197894 -0.0743619 0.0550643)
(0.15102 -0.074809 0.0492172)
(0.190834 -0.0624496 0.03649)
(0.212866 -0.0415177 0.0681698)
(0.194362 -0.0150465 0.131098)
(0.0946939 0.00191565 0.245129)
(-0.18577 -0.0962326 0.252792)
(-0.299121 -0.226084 0.193256)
(-0.191739 -0.310784 0.210151)
(-0.0679473 0.0604359 0.189179)
(-0.639614 -0.296442 0.182195)
(-0.732386 -0.151938 0.245988)
(-0.820191 0.307967 0.219234)
(-0.704088 0.6054 0.113144)
(-0.763303 0.232038 0.0828673)
(-0.997022 0.12419 0.0414772)
(-1.25145 0.0512788 0.034489)
(-1.39194 0.0141958 0.0151423)
(-1.46942 -0.00971502 0.00429368)
(-1.49959 -0.0283234 0.00136267)
(-1.49527 -0.0481104 0.00185944)
(-1.46304 -0.0761099 0.00585712)
(-1.39157 -0.117104 0.0192694)
(-1.26434 -0.179094 0.0415025)
(-1.04469 -0.260971 0.0676245)
(-0.719549 -0.343006 0.0731511)
(-0.365262 -0.443728 0.00318812)
(-0.249978 -0.822022 -0.0422617)
(-0.185934 -1.21073 -0.0661485)
(-0.136834 -1.42744 -0.0823356)
(-0.100304 -1.56062 -0.0959139)
(-0.0743854 -1.59986 -0.114374)
(-0.050218 -1.5558 -0.138014)
(-0.0246572 -1.43201 -0.165384)
(0.00299148 -1.22065 -0.192808)
(0.0377124 -0.882471 -0.211878)
(0.0461863 -0.548981 -0.161868)
(0.242033 -0.260751 -0.140191)
(0.299496 0.573312 -0.16634)
(0.200265 1.01833 -0.0906727)
(0.143436 1.30544 -0.0574587)
(0.103997 1.47065 -0.0346676)
(0.0650018 1.55837 -0.0218791)
(0.0214426 1.57866 -0.0148793)
(0.0201078 1.53124 -0.0163846)
(0.00827625 1.50238 -0.00241762)
(-0.014558 1.43627 0.00267109)
(-0.040754 1.29334 0.00786354)
(-0.068003 1.06879 0.0185748)
(-0.117887 0.818587 0.0297284)
(-0.0217962 0.300533 0.00577802)
(-0.492898 0.0552298 0.0172276)
(-0.323881 0.327447 0.0662691)
(0.252444 -0.576149 -0.117954)
(-0.189235 0.227746 -0.0228287)
(-0.426103 0.216109 0.0187213)
(-0.707243 0.175272 -0.00493604)
(-0.971348 0.136162 -0.00982137)
(-1.1733 0.15642 0.0288088)
(-1.30722 0.167517 0.0375146)
(-1.42954 0.127327 0.0145166)
(-1.51935 0.0893594 -0.00203574)
(-1.56908 0.057738 -0.00723382)
(-1.5848 0.0336456 -0.00471693)
(-1.56138 0.0133188 0.00223696)
(-1.48857 -0.0114132 0.012714)
(-1.35238 -0.0524561 0.0289172)
(-1.08744 -0.122091 0.0264106)
(-0.846412 -0.253509 0.0587795)
(-0.876517 -0.673045 0.0707421)
(-1.17662 -0.408398 0.0720952)
(-1.00884 -0.169417 0.198622)
(-0.866422 0.0175211 0.174019)
(0.326933 -0.210185 0.0565534)
(-0.230626 0.414286 0.151791)
(-0.162844 0.228918 0.197374)
(-0.107857 0.153406 0.223967)
(0.0484848 0.200296 0.212708)
(-0.093009 0.330288 0.226658)
(-0.236314 0.381846 0.259704)
(-0.402794 0.394572 0.279977)
(-0.541206 0.367234 0.291772)
(-0.609045 0.288795 0.290602)
(-0.638272 0.243205 0.277111)
(-0.610472 0.204826 0.165495)
(-0.566073 0.17268 0.148656)
(-0.48354 0.135798 0.151012)
(-0.338508 0.103354 0.133799)
(-0.204509 0.0613616 0.122245)
(-0.174361 -0.208448 0.101388)
(-0.241566 -0.0419106 0.127117)
(-0.114509 0.0125345 0.134302)
(-0.176021 -0.146971 0.105258)
(-0.118393 -0.137929 0.0997662)
(-0.108429 -0.115733 0.0957927)
(-0.0896003 -0.10989 0.0790551)
(-0.0922561 -0.124081 0.177181)
(-0.140281 -0.0272171 0.205525)
(-0.17617 0.157327 0.226182)
(-0.243905 0.115037 0.243193)
(-0.238132 0.114121 0.25184)
(-0.233179 0.129563 0.254427)
(-0.24436 0.147375 0.242413)
(-0.24996 0.112708 0.239776)
(-0.266788 0.110253 0.235768)
(-0.342932 0.0242173 0.2643)
(-0.352029 -0.0566045 0.302893)
(-0.324031 -0.0633223 0.33079)
(-0.335283 -0.0262851 0.351096)
(-0.377713 -0.0306773 0.331641)
(-0.417701 -0.120642 0.315846)
(-0.361131 -0.23921 0.285336)
(-0.267492 -0.259684 0.291178)
(-0.189984 -0.311056 0.262505)
(-0.165311 -0.388749 0.137464)
(-0.161567 -0.440833 0.125547)
(-0.141403 -0.462154 0.11593)
(-0.13188 -0.465919 0.281468)
(-0.153735 -0.439806 0.271299)
(-0.158213 -0.377282 0.191996)
(-0.182442 -0.298242 0.307479)
(-0.121757 -0.301647 0.527021)
(-0.183642 -0.230044 0.485163)
(-0.232522 -0.180087 0.569195)
(-0.271351 0.0608429 0.566833)
(-0.201276 0.20679 0.575945)
(-0.127563 0.237873 0.602218)
(-0.0930907 0.173681 0.577987)
(-0.110249 0.107048 0.537563)
(-0.115088 0.0932857 0.471622)
(-0.0682625 0.100779 0.40411)
(-0.0460929 0.0432136 0.397541)
(-0.0401786 0.0112916 0.399939)
(-0.0462386 -0.0854228 0.417498)
(-0.0632779 -0.143427 0.392718)
(-0.0840613 -0.12609 0.390405)
(-0.0597557 -0.050191 0.430172)
(-0.0743723 -0.148647 0.349852)
(-0.042604 -0.256997 0.371311)
(-0.10326 -0.185568 0.223804)
(-0.0948002 -0.162244 0.169984)
(-0.102614 -0.147384 0.236642)
(-0.109744 -0.167412 0.245856)
(-0.167053 -0.166059 0.242002)
(-0.0704618 0.00164472 0.259569)
(-0.239176 -0.0571784 0.240535)
(-0.172911 -0.21201 0.255273)
(-0.199113 0.0715565 0.319903)
(-0.177734 0.0591824 0.537815)
(-0.160659 0.0471623 0.71027)
(-0.156572 0.033972 0.857211)
(-0.161749 -0.0223301 0.954694)
(-0.162753 -0.0679959 1.00565)
(-0.131309 -0.0817986 1.01922)
(-0.0889519 -0.0133636 0.958809)
(-0.0538825 -0.0210078 0.884122)
(-0.0315106 -0.0313579 0.778201)
(-0.00600157 -0.0343105 0.631995)
(0.0263452 -0.0314702 0.430867)
(0.0908386 -0.0456869 0.248524)
(0.0627847 -0.313582 0.224848)
(-0.0218763 -0.18288 0.200914)
(0.146857 -0.212728 0.134946)
(0.10481 -0.407572 0.11188)
(0.102884 -0.469287 0.113439)
(0.106176 -0.57634 0.110436)
(0.0975887 -0.642295 0.100058)
(0.0838063 -0.694295 0.152684)
(0.129457 -0.73795 0.183834)
(0.152002 -0.761262 0.214388)
(0.170533 -0.782493 0.2086)
(0.177616 -0.76663 0.193335)
(0.178411 -0.718455 0.167887)
(0.171384 -0.622452 0.128126)
(0.163645 -0.497216 0.0343373)
(0.155595 -0.0673528 -0.0835671)
(0.198224 0.39506 0.0485128)
(0.217552 0.475757 0.197484)
(0.226236 0.554262 0.242012)
(0.228175 0.57244 0.269926)
(0.22102 0.563202 0.291943)
(0.213279 0.522851 0.305713)
(0.198063 0.434774 0.303002)
(0.16879 0.388922 0.237282)
(0.121678 0.35404 0.211042)
(0.129086 0.322604 0.137862)
(0.128133 0.26996 0.158124)
(0.120381 0.186418 0.167825)
(0.11805 0.0714622 0.157071)
(0.0536556 0.0348619 0.0778247)
(0.178891 0.0616799 0.0994934)
(0.14034 0.0345333 0.135934)
(0.147334 0.0530302 0.202016)
(0.277914 0.0658599 0.174801)
(0.433136 0.081603 0.163134)
(0.54683 0.0920675 0.154669)
(0.639818 0.101354 0.147567)
(0.715639 0.107693 0.141402)
(0.779537 0.111736 0.131926)
(0.843814 0.117464 0.107212)
(0.895684 0.101107 0.0825057)
(0.964986 0.0634447 0.0827688)
(1.04119 0.0419057 0.0814387)
(1.1321 0.0244286 0.074773)
(1.24422 0.00633732 0.0558987)
(1.33804 -0.0143701 0.0182483)
(1.38241 -0.0334627 -0.0261056)
(1.37177 -0.0496071 -0.0639832)
(1.32415 -0.0592018 -0.0875116)
(1.26418 -0.0647083 -0.0985485)
(1.20769 -0.0664558 -0.102301)
(1.15849 -0.0668136 -0.102091)
(1.11679 -0.0656236 -0.0992056)
(1.08109 -0.0647632 -0.0951798)
(1.04961 -0.0601234 -0.0895352)
(1.0303 -0.0499453 -0.0883811)
(1.00787 -0.0419321 -0.0907901)
(0.915324 -0.0396554 -0.0677534)
(0.847006 -0.0329842 -0.0457799)
(0.821687 -0.027541 -0.0388093)
(0.794192 -0.0231761 -0.0352168)
(0.761235 -0.0201081 -0.034022)
(0.717803 -0.0151145 -0.0378295)
(0.685438 -0.0147589 -0.0401949)
(0.64517 -0.0138643 -0.0450552)
(0.578405 -0.0067881 -0.0479844)
(0.489397 0.00108727 -0.0475787)
(0.372814 0.0182053 -0.0451948)
(0.227218 0.0292938 -0.0464289)
(0.0971255 0.0370141 -0.0499339)
(0.0575953 0.0596532 -0.0560977)
(0.0375732 0.0835864 -0.0348364)
(0.0442059 0.142066 -0.0270303)
(0.051438 0.167343 -0.0302823)
(0.0617464 0.288002 -0.0334165)
(0.119129 0.272946 -0.0323752)
(0.1856 0.768018 -0.00453479)
(0.756728 0.250265 -0.107825)
(0.972193 -0.14927 -0.137429)
(1.48141 -0.3333 -0.196163)
(2.0335 -0.42084 -0.291717)
(2.47377 -0.41878 -0.376399)
(2.7207 -0.367675 -0.433629)
(2.66272 -0.364415 -0.465302)
(2.4342 -0.339937 -0.449164)
(1.99421 -0.180585 -0.420037)
(1.0478 0.172834 -0.409892)
(-0.464958 1.12941 0.167766)
(-1.7343 1.9411 0.019691)
(-0.696399 2.91558 0.0134613)
(-0.413526 1.35602 -0.0264015)
(-0.278639 1.04385 -0.0574089)
(-0.227916 0.693738 -0.0682473)
(-0.196818 0.474632 -0.0679228)
(-0.14782 0.268236 -0.100351)
(-0.175322 0.178662 -0.146113)
(-0.274148 0.138653 -0.0956282)
(-0.146554 0.180284 -0.120705)
(-0.0656507 0.191341 -0.0817732)
(0.00846242 0.187284 0.035092)
(-0.019491 0.172894 0.177776)
(-0.050109 0.158691 0.27388)
(-0.0637963 0.149261 0.345968)
(-0.0855759 0.143208 0.380036)
(-0.084992 0.139053 0.396346)
(-0.100145 0.136822 0.39644)
(-0.0930199 0.136102 0.388527)
(-0.104393 0.135778 0.37626)
(-0.0912309 0.135465 0.361275)
(-0.0978421 0.134452 0.347404)
(-0.0782766 0.131882 0.338174)
(-0.0849109 0.130728 0.343394)
(-0.0832229 0.122947 0.354199)
(-0.103923 0.150875 0.373253)
(-0.0931447 0.169735 0.383219)
(-0.11957 0.169004 0.378164)
(-0.195866 0.188795 0.371319)
(-0.288797 0.267605 0.333949)
(-0.417946 0.246284 0.282034)
(-0.522442 0.246619 0.316498)
(-0.560733 0.336895 0.316243)
(-0.666176 0.23453 0.20146)
(-0.703624 0.233083 0.173168)
(-0.911008 0.129866 0.0962443)
(-0.865911 0.126132 0.171406)
(-0.770564 0.1601 0.247857)
(-0.694008 0.177968 0.259083)
(-0.591121 0.172904 0.299481)
(-0.447187 0.155481 0.308456)
(-0.382537 0.119121 0.306743)
(-0.266679 0.113734 0.32654)
(-0.189961 0.126672 0.33515)
(-0.181463 0.134078 0.335356)
(-0.151014 0.140679 0.352042)
(-0.157704 0.13829 0.358617)
(-0.261738 0.123455 0.340479)
(-0.30572 0.121458 0.316)
(-0.39863 0.106838 0.315499)
(-0.433972 0.0982196 0.3365)
(-0.235209 0.108685 0.355971)
(-0.253215 0.109946 0.343045)
(-0.241582 0.112243 0.357194)
(-0.285753 0.110761 0.371832)
(-0.255843 0.115191 0.385154)
(-0.286822 0.113484 0.393827)
(-0.248647 0.118538 0.39659)
(-0.2729 0.118217 0.393363)
(-0.227706 0.127464 0.380405)
(-0.242521 0.131203 0.353081)
(-0.188216 0.145215 0.308651)
(-0.189622 0.153201 0.245129)
(-0.168917 0.170961 0.170157)
(-0.190799 0.177656 0.12179)
(-0.248617 0.1835 0.0727496)
(-0.306438 0.183564 0.026514)
(-0.497216 0.167649 -0.00893536)
(-0.709304 0.135195 0.0158999)
(-0.863592 0.091942 0.0178098)
(-0.985914 0.0660852 0.0143065)
(-1.08649 0.0687534 0.0101068)
(-1.14742 0.0838741 0.0110228)
(-1.17713 0.0804151 0.0146098)
(-1.2232 0.0662726 0.00912736)
(-1.24304 0.0715039 -0.0144789)
(-1.25181 0.0668787 -0.0380652)
(-1.32105 0.0421834 -0.031783)
(-1.42702 0.00511109 -0.0274518)
(-1.46691 -0.0044792 -0.0217654)
(-1.53709 -0.010506 -0.0308335)
(-1.57068 0.00475963 -0.0119258)
(-1.61247 0.00748935 -0.00759276)
(-1.657 0.0051633 -0.00233877)
(-1.67338 0.00786296 0.0143446)
(-1.65704 0.0135619 0.0337609)
(-1.61498 0.0214605 0.0522004)
(-1.56191 0.0328901 0.067282)
(-1.51471 0.0437675 0.081069)
(-1.47488 0.0531776 0.0942528)
(-1.43257 0.0650673 0.11149)
(-1.37687 0.0779041 0.128542)
(-1.31168 0.0867461 0.137045)
(-1.25619 0.089257 0.127748)
(-1.21828 0.0890784 0.120916)
(-1.19657 0.0897931 0.118324)
(-1.17099 0.106048 0.116957)
(-1.12741 0.149674 0.114015)
(-1.07262 0.159264 0.137916)
(-0.939408 0.14474 0.17871)
(-0.804729 0.119134 0.241128)
(-0.709045 0.0849608 0.284404)
(-0.471157 0.0343083 0.335269)
(-0.251368 -0.0327827 0.367928)
(-0.267211 -0.21778 0.554223)
(-0.267688 -0.290256 0.698212)
(-0.260985 -0.341864 0.686802)
(-0.245354 -0.384901 0.586258)
(-0.237085 -0.41675 0.399062)
(-0.257836 -0.436988 0.199566)
(-0.092657 -0.807852 0.108821)
(-0.0648052 -0.764047 0.304948)
(-0.0797791 -0.693272 0.495807)
(-0.112693 -0.602912 0.59151)
(-0.1465 -0.499136 0.589396)
(-0.19349 -0.359784 0.431709)
(-0.24844 -0.071544 0.212573)
(-0.26755 -0.265531 0.209483)
(-0.275566 -0.363654 0.258735)
(-0.283083 -0.448733 0.310889)
(-0.292248 -0.461495 0.368021)
(-0.304289 -0.417945 0.423378)
(-0.316964 -0.324725 0.478783)
(-0.307925 -0.188161 0.535102)
(-0.259557 0.0468845 0.522769)
(-0.269651 0.187602 0.362556)
(-0.339228 0.0437599 0.390767)
(-0.356441 0.0684693 0.498187)
(-0.365017 0.152623 0.518424)
(-0.353736 0.245643 0.499454)
(-0.336973 0.326128 0.460741)
(-0.324484 0.397557 0.412174)
(-0.323226 0.41503 0.314045)
(-0.292145 0.349041 0.252716)
(-0.185468 0.235601 0.164292)
(-0.165249 0.176303 0.129752)
(-0.153432 0.157047 0.0993159)
(-0.13934 0.0185206 0.0852704)
(-0.158706 -0.0185941 0.109107)
(-0.0479906 -0.133777 0.132141)
(-0.270621 -0.0511862 0.235959)
(-0.222511 -0.0379777 0.156245)
(-0.225622 -0.113452 0.331721)
(-0.405631 -0.125865 0.299958)
(-0.647694 -0.154988 0.279223)
(-0.836533 -0.17094 0.254138)
(-0.998062 -0.174848 0.212748)
(-1.14874 -0.144646 0.279123)
(-1.29625 -0.136363 0.320679)
(-1.41222 -0.14866 0.312315)
(-1.50934 -0.159223 0.296891)
(-1.57555 -0.164942 0.279422)
(-1.61644 -0.167594 0.261619)
(-1.62963 -0.169895 0.240654)
(-1.62317 -0.176509 0.205312)
(-1.60305 -0.171571 0.181378)
(-1.59113 -0.171907 0.135289)
(-1.56697 -0.182839 0.100906)
(-1.5324 -0.181303 0.0831455)
(-1.43356 -0.138546 0.0795594)
(-1.2884 -0.121203 0.0754471)
(-1.12229 -0.152175 0.0710948)
(-0.920158 -0.204426 0.0593658)
(-0.641636 -0.235962 0.0171411)
(-0.35407 -0.193658 -0.101945)
(-0.172519 -0.238562 -0.149878)
(-0.101064 -0.253266 -0.0672575)
(-0.111305 -0.238347 0.0128845)
(-0.107499 -0.228196 0.0675842)
(-0.119563 -0.208369 0.120805)
(-0.107243 -0.197546 0.146503)
(-0.125038 -0.184915 0.167125)
(-0.112377 -0.177978 0.164216)
(-0.130079 -0.170103 0.162101)
(-0.114815 -0.168211 0.143161)
(-0.130639 -0.164749 0.135008)
(-0.111996 -0.163859 0.113812)
(-0.116809 -0.161126 0.113606)
(-0.0952552 -0.156007 0.107492)
(-0.103355 -0.152661 0.12189)
(-0.0941495 -0.12716 0.129245)
(-0.11573 -0.175884 0.109045)
(-0.114772 -0.191249 0.0569254)
(-0.0898224 -0.175751 0.10149)
(-0.149537 -0.18899 0.176604)
(-0.264674 -0.301994 0.197008)
(-0.427334 -0.268701 0.195683)
(-0.549777 -0.259293 0.268311)
(-0.594659 -0.362243 0.296186)
(-0.72086 -0.250467 0.203918)
(-0.769221 -0.237937 0.170869)
(-0.802218 -0.69153 0.207916)
(-0.783053 -0.691787 0.241419)
(-0.669942 -0.718576 0.380844)
(-0.569846 -0.455239 0.380899)
(-0.580356 -0.868583 0.242706)
(-0.791147 -1.17691 0.585722)
(-0.747573 -0.840122 0.426518)
(-1.10873 -0.548046 0.460637)
(-1.18464 -0.409061 0.370836)
(-1.18618 -0.441071 0.269835)
(-1.00883 -0.191181 0.354356)
(-0.765897 -0.276366 0.385736)
(-0.201506 -0.3497 0.349123)
(-0.398541 -0.680365 0.533545)
(-0.80305 -0.75121 0.503598)
(-1.30425 -0.879406 0.626132)
(-1.14777 -0.767574 0.422745)
(-0.605289 -1.01377 0.284004)
(-0.492217 -0.933473 0.369398)
(-0.345968 -0.776291 0.310636)
(-0.558312 -1.48428 0.209684)
(-1.16276 -1.4072 -0.227793)
(-1.10013 -0.836344 0.212522)
(-0.877675 -0.603827 0.377091)
(-1.19246 -0.773466 0.165565)
(-1.09781 -0.932704 0.361233)
(-1.07024 -0.633703 0.357903)
(-1.16217 -0.639731 0.230151)
(-1.39894 -0.225963 0.409117)
(-1.3139 -0.257826 0.290366)
(-1.21175 -0.441704 0.0699284)
(-1.11816 -0.378579 0.261899)
(-1.18309 -0.347116 0.309238)
(-1.10249 -0.435035 0.220625)
(-0.999341 -0.591566 0.226907)
(-1.11355 -0.649405 0.25434)
(-1.2125 -0.508022 0.328142)
(-1.29544 -0.540177 0.40255)
(-1.1002 -0.873055 0.276557)
(-0.937696 -1.04287 0.287611)
(-1.05218 -0.9976 0.313582)
(-1.35557 -0.880024 0.223216)
(-0.869724 -0.936339 0.238409)
(-0.903238 -0.918873 0.215184)
(-0.94475 -0.904557 0.214287)
(-1.01542 -0.923448 0.241417)
(-1.00654 -0.914395 0.236577)
(-0.966253 -0.935656 0.275555)
(-0.892135 -0.910108 0.327847)
(-0.949018 -0.981846 0.435601)
(-0.992316 -1.02058 0.498524)
(-1.14084 -1.14934 0.570499)
(-1.26845 -1.24498 0.574787)
(-1.56966 -1.41596 0.495614)
(-1.67577 -1.4984 0.379988)
(-1.72876 -1.58085 0.259358)
(-1.73077 -1.65705 0.188295)
(-1.74442 -1.87938 0.0888941)
(-1.77955 -1.90648 0.0452796)
(-1.85449 -2.68302 0.00253206)
(-2.87439 -0.447162 -0.616657)
(-2.269 -0.713578 -0.188972)
(-1.94803 -0.745296 -0.171268)
(-1.47508 -0.571255 -0.0979332)
(-1.35371 -0.222907 -0.140166)
(-0.161733 0.297106 -0.389682)
(1.00987 0.510133 -0.458975)
(1.25457 0.768782 -0.506295)
(1.41512 0.955222 -0.613067)
(1.38643 0.905677 -0.557875)
(1.30957 0.674959 -0.348197)
(1.19948 0.233638 -0.23284)
(0.526128 -0.854759 -0.000824739)
(0.362299 -0.521404 -0.00999851)
(0.168561 -0.335833 -0.0161065)
(0.157647 -0.401697 -0.0580521)
(0.173248 -0.324055 -0.00919893)
(0.338411 -0.208226 0.0136353)
(0.0185881 0.190023 -0.0703)
(0.0647616 0.276535 -0.183559)
(0.323494 0.15819 -0.220391)
(0.246681 -0.0103761 -0.323415)
(0.43284 -0.226465 -0.0679246)
(0.490657 -0.371323 0.076556)
(0.5032 -0.406918 0.14701)
(0.470765 -0.428792 0.165233)
(0.432512 -0.437064 0.162773)
(0.383472 -0.429287 0.130499)
(0.428113 -0.494134 0.108444)
(0.455689 -0.579476 0.0854156)
(0.477945 -0.65865 0.0773327)
(0.503557 -0.713939 0.0629483)
(0.518767 -0.747434 0.0542445)
(0.500882 -0.755224 0.0554499)
(0.452819 -0.76098 0.0703455)
(0.377948 -0.74669 0.094993)
(0.283862 -0.735792 0.104486)
(0.202176 -0.713672 0.123363)
(0.158835 -0.682927 0.0892318)
(0.174477 -0.658837 0.0714156)
(0.165551 -0.600456 0.0685034)
(0.123448 -0.506414 0.0760381)
(0.0651317 -0.431296 0.0962579)
(0.0438256 -0.250327 0.160677)
(0.21752 -0.411997 0.162203)
(0.212978 -0.274777 0.175408)
(0.191782 -0.0999488 0.181993)
(0.263926 -0.128514 0.150794)
(0.318134 -0.14441 0.138015)
(0.376607 -0.150635 0.116027)
(0.342504 -0.185234 0.178077)
(0.279278 -0.192851 0.242898)
(0.329204 -0.201749 0.304512)
(0.391239 -0.202183 0.315589)
(0.456265 -0.196098 0.30181)
(0.494323 -0.185071 0.250523)
(0.507764 -0.136528 0.162323)
(0.587894 -0.0671051 0.0295735)
(0.692415 -0.0677012 0.0235072)
(0.765827 -0.0354024 -0.00971821)
(0.92731 -0.0558236 -0.0106323)
(0.971913 -0.039553 0.00984824)
(0.915241 -0.0290492 0.0102119)
(0.815786 -0.0402741 0.0100134)
(0.689528 -0.0603479 0.0127507)
(0.534066 -0.0900784 0.0104402)
(0.346421 -0.125983 -0.00190862)
(0.163471 -0.121979 -0.0175189)
(0.0925147 -0.175459 -0.0342459)
(0.0682402 -0.255522 -0.0193413)
(0.0773145 -0.370142 -0.0118773)
(0.0853374 -0.504519 -0.0136321)
(0.0813067 -0.663902 -0.0118277)
(0.113056 -0.732674 -0.00651838)
(0.237623 -1.31934 0.0164747)
(1.24246 -0.5674 -0.0233543)
(1.73152 0.0614023 -0.0466336)
(2.43113 0.269636 -0.11405)
(3.08142 0.325926 -0.205548)
(3.50684 0.287277 -0.284161)
(3.64624 0.254097 -0.359332)
(3.35664 0.293015 -0.421183)
(3.07831 0.247544 -0.414179)
(2.25149 0.0103977 -0.343197)
(1.01613 -0.330362 -0.31406)
(-0.63894 -1.43722 0.244425)
(-2.16765 -2.5191 0.0300726)
(-0.910845 -3.67961 0.00375684)
(-0.535479 -1.77925 -0.0409113)
(-0.368204 -1.337 -0.0805185)
(-0.301808 -0.902781 -0.0930447)
(-0.258797 -0.619685 -0.0904832)
(-0.19069 -0.355583 -0.13102)
(-0.223362 -0.237146 -0.179858)
(-0.443189 -0.326593 -0.00297295)
(-0.56428 -0.291322 0.00649347)
(-0.899215 -0.518172 0.0170775)
(-0.886753 -0.579762 0.0416374)
(-1.08557 -0.877995 0.0458)
(-1.18922 -0.988952 0.0515026)
(-1.52235 -1.30242 0.0608879)
(-1.67577 -1.3347 0.0820075)
(-1.91453 -1.64464 0.120838)
(-2.48799 -2.24025 0.0101125)
(-3.18785 -1.52548 -0.156398)
(-3.28428 -1.25381 0.0564964)
(-3.28765 -0.916325 0.0370085)
(-3.16965 -0.571077 -0.0206784)
(-3.07205 -0.273054 -0.108754)
(-2.82401 -0.0826205 -0.183176)
(-2.15016 0.241279 -0.302641)
(-1.38687 0.772113 -0.578881)
(-0.69728 1.18059 -0.915359)
(-0.185542 1.2427 -0.983715)
(0.369052 0.887576 -0.602731)
(0.795829 0.23356 -0.33748)
(0.750006 -0.499985 -0.118806)
(0.291772 -0.270283 -0.0747273)
(-0.471872 0.263152 -0.267406)
(-0.621185 0.0122407 -0.247969)
(-0.497584 -0.133971 -0.115724)
(-0.975902 0.202887 -0.0948835)
(-0.828194 0.258494 -0.0949326)
(-0.666419 0.29471 -0.116967)
(-0.404826 0.215631 -0.247199)
(-0.7084 0.241645 -0.174873)
(-0.425738 0.122172 -0.359802)
(0.220061 -0.248726 -0.289131)
(0.426079 -0.491269 -0.0521435)
(0.530362 -0.549733 0.0461025)
(0.529438 -0.581463 0.0774453)
(0.507558 -0.602225 0.0902253)
(0.464179 -0.610131 0.0830847)
(0.539834 -0.727925 0.0528778)
(0.573555 -0.708826 0.0484654)
(0.583601 -0.683952 0.0321469)
(0.543384 -0.656195 0.00323252)
(0.408653 -0.592014 -0.119115)
(-0.0193283 -0.253058 -0.304092)
(-0.635621 0.171558 -0.251833)
(-1.00509 0.33235 -0.149151)
(-0.868217 0.337081 -0.166277)
(-1.10119 0.412176 -0.0723507)
(-1.00879 0.376557 -0.0980754)
(-1.12755 0.41246 -0.0716458)
(-1.29373 0.456055 -0.0776591)
(-1.39008 0.541533 -0.0726655)
(-1.2526 0.397598 -0.0901333)
(-1.22656 0.532289 -0.144124)
(-1.3092 0.749226 -0.196546)
(-1.47452 1.12337 -0.313205)
(-1.14283 0.976274 -0.441396)
(-0.417092 0.860964 -0.490104)
(-0.733519 1.17366 -0.814139)
(-1.34631 1.37338 -1.17592)
(-2.08756 1.34203 -1.29702)
(-2.99435 1.06647 -1.11726)
(-3.77425 0.692136 -0.928425)
(-4.24842 0.230635 -0.618007)
(-4.3667 -0.110727 -0.335483)
(-4.30834 -0.40874 -0.114746)
(-4.12621 -0.730504 0.0280267)
(-3.85707 -0.986852 0.0783685)
(-3.34402 -1.16443 0.0879316)
(-2.77992 -1.38199 0.067146)
(-3.36953 -1.18657 0.0675308)
(-3.92429 -0.885926 0.0680508)
(-4.29765 -0.555637 0.00129184)
(-4.601 -0.173073 -0.143318)
(-4.71732 0.240101 -0.36359)
(-4.57386 0.670931 -0.610418)
(-4.16116 1.1118 -0.84528)
(-3.50032 1.43054 -1.03153)
(-2.73921 1.52823 -1.09565)
(-2.05894 1.4934 -0.977051)
(-1.49815 1.28601 -0.704423)
(-1.81593 1.41434 -0.485347)
(-2.28542 1.63164 -0.663534)
(-2.85963 1.75092 -0.847086)
(-3.48251 1.7079 -0.799127)
(-4.03473 1.4992 -0.68627)
(-4.4091 1.12171 -0.51266)
(-4.58185 0.673646 -0.295695)
(-4.47633 0.182054 -0.0639428)
(-4.17748 -0.261014 0.124637)
(-3.79784 -0.616664 0.10175)
(-3.32403 -0.884674 0.0934106)
(-2.84898 -0.994864 0.0931937)
(-3.20093 -0.82797 0.085694)
(-3.55463 -0.528082 0.0855842)
(-3.84012 -0.222829 0.0711315)
(-3.962 0.171417 -0.0256554)
(-4.07245 0.615044 -0.195976)
(-3.91531 1.02156 -0.357434)
(-3.76008 1.39995 -0.497318)
(-3.35441 1.53176 -0.533235)
(-2.94173 1.62415 -0.577387)
(-2.50869 1.49743 -0.462812)
(-2.06283 1.36514 -0.346924)
(-1.79628 1.17295 -0.226795)
(-1.9872 1.08335 -0.241295)
(-1.63398 0.87514 -0.149477)
(-1.48556 0.698539 -0.118463)
(-1.62968 0.735156 -0.138156)
(-1.50662 0.618836 -0.0964831)
(-1.57813 0.614907 -0.0994504)
(-1.4459 0.496448 -0.0729549)
(-1.23494 0.450395 -0.0486135)
(-1.34603 0.403733 -0.0388806)
(-1.20467 0.391507 -0.0597981)
(-1.13605 0.429767 -0.0789337)
(-0.9678 0.398316 -0.127446)
(-0.985135 0.420127 -0.0503542)
(-1.16012 0.445235 -0.0792212)
(-1.27381 0.448767 -0.0620203)
(-1.48817 0.426494 -0.105759)
(-1.55493 0.39449 -0.0764857)
(-1.74828 0.380325 -0.0551903)
(-1.67568 0.521182 -0.0596704)
(-1.76513 0.587439 -0.100363)
(-1.7089 0.708345 -0.142761)
(-1.89586 0.76541 -0.175319)
(-1.81824 0.848869 -0.180573)
(-2.13509 0.964597 -0.254753)
(-2.59346 0.973288 -0.314028)
(-2.65275 1.2011 -0.361055)
(-3.31883 1.04102 -0.308933)
(-3.68878 0.603242 -0.188042)
(-3.63652 0.0321195 -0.0224062)
(-3.23491 -0.442218 0.0842812)
(-2.72941 -0.707557 0.112299)
(-2.31675 -0.74879 0.0874023)
(-2.24487 -0.905317 0.0911926)
(-2.07504 -1.10669 0.0801064)
(-1.6172 -1.0774 0.0668952)
(-1.22466 -0.829986 0.0614292)
(-0.955522 -0.472357 0.0645855)
(-1.20253 -0.363972 0.0668095)
(-1.31716 -0.284642 0.0677101)
(-1.41044 -0.185883 0.0723012)
(-1.47569 -0.216857 0.0759292)
(-1.52856 -0.516356 0.0615089)
(-1.53137 -0.716657 0.061646)
(-1.3953 -0.629918 0.0588117)
(-1.21083 -0.649443 0.142962)
(-1.02014 -0.369507 0.13555)
(-0.961902 -0.138049 0.141468)
(-0.938711 -0.141078 0.216587)
(-0.888138 -0.12436 0.271819)
(-0.855712 -0.116269 0.295011)
(-0.831672 -0.105117 0.31077)
(-0.812295 -0.100262 0.305681)
(-0.781329 -0.0955722 0.300744)
(-0.762682 -0.0909285 0.285432)
(-0.743908 -0.0899881 0.269145)
(-0.718252 -0.0979485 0.256111)
(-0.697371 -0.133651 0.247661)
(-0.617787 -0.201374 0.243339)
(-0.733242 -0.198522 0.22586)
(-0.807315 -0.175249 0.236179)
(-0.925058 -0.136226 0.173403)
(-0.990575 -0.130927 0.0980859)
(-1.23452 -0.0507359 0.0819131)
(-1.38367 0.0148277 0.0593237)
(-1.44816 0.0484464 0.0495543)
(-1.4681 0.0755246 0.0529602)
(-1.45421 0.106991 0.0691775)
(-1.39864 0.14426 0.109003)
(-1.30014 0.180289 0.165222)
(-1.15475 0.213969 0.222403)
(-0.988461 0.233169 0.188509)
(-1.01587 0.215856 0.068124)
(-0.838891 0.206074 0.0619084)
(-0.713876 0.23197 0.0727377)
(-0.460786 0.296167 0.0841102)
(-0.0869439 0.265157 0.0177787)
(0.123255 -0.308512 -0.0416274)
(0.0263426 -0.112115 0.138914)
(0.050396 -0.171112 0.315111)
(0.0877526 -0.243386 0.391418)
(-0.00771965 -0.155234 0.481098)
(-0.238312 0.147137 0.655909)
(-0.31894 0.225675 0.819956)
(-0.326364 0.249864 0.831931)
(-0.318691 0.215497 0.836165)
(-0.306931 0.175629 0.764866)
(-0.318817 0.160529 0.677671)
(-0.268707 0.0556949 0.523609)
(-0.450001 0.0542582 0.490149)
(-0.485311 0.0907136 0.667761)
(-0.498866 0.122886 0.770482)
(-0.527228 0.152581 0.842344)
(-0.555427 0.178068 0.853188)
(-0.675747 0.195358 0.830765)
(-0.601714 0.228028 0.722501)
(-0.574858 0.271783 0.568496)
(-0.525592 0.263869 0.473977)
(-0.519161 0.295771 0.352965)
(-0.506119 0.312229 0.20909)
(-0.163053 0.262502 0.17789)
(-0.179722 0.239664 0.339434)
(-0.189765 0.218084 0.448752)
(-0.264357 0.218275 0.537228)
(-0.258022 0.441049 0.526943)
(-0.220487 0.435154 0.484993)
(-0.197713 0.559229 0.477992)
(-0.320187 0.636342 0.502431)
(-0.331771 0.516767 0.49262)
(-0.370271 0.497301 0.521914)
(-0.402429 0.663178 0.548631)
(-0.228673 0.560768 0.541046)
(-0.229575 0.563821 0.63342)
(-0.360084 0.254062 0.797787)
(-0.36671 0.409966 0.816994)
(-0.439774 0.554514 0.834987)
(-0.201909 0.700493 0.794795)
(-0.246426 0.634725 0.823784)
(-0.308208 0.483487 0.679436)
(-0.34423 0.585299 0.652587)
(-0.400259 0.572647 0.667087)
(-0.479349 0.597229 0.74009)
(-0.346263 0.645442 0.69864)
(-0.371234 0.562418 0.778401)
(-0.390848 0.475879 0.695933)
(-0.489341 0.367373 0.689665)
(-0.496286 0.472837 0.608737)
(-0.477719 0.421116 0.672742)
(-0.299381 0.618482 0.633127)
(-0.445444 0.620407 0.605642)
(-0.484572 0.649195 0.597164)
(-0.436951 0.618701 0.609022)
(-0.414641 0.541455 0.610415)
(-0.364876 0.496887 0.618554)
(-0.365953 0.575113 0.605263)
(-0.271982 0.580902 0.593402)
(-0.357616 0.64482 0.573831)
(-0.368465 0.53265 0.569009)
(-0.294278 0.482048 0.585255)
(-0.47872 0.674154 0.555065)
(-0.258456 0.840938 0.505093)
(-0.263876 0.658738 0.449112)
(-0.246163 0.623575 0.627356)
(-0.136914 0.754378 0.824607)
(0.0342583 1.11639 0.689458)
(0.110004 1.24476 0.684327)
(0.170903 1.23433 0.732103)
(0.219493 1.17256 0.76915)
(0.271531 1.05892 0.776184)
(0.316162 0.918043 0.749437)
(0.396565 0.669264 0.661626)
(0.413446 0.426678 0.450325)
(0.487344 -0.199863 0.271837)
(0.453857 -0.694062 0.460768)
(0.349485 -1.02796 0.525419)
(0.283186 -1.20484 0.565104)
(0.222535 -1.29687 0.572586)
(0.171042 -1.31505 0.552561)
(0.120411 -1.27228 0.520298)
(0.0672439 -1.16586 0.489784)
(0.00775309 -1.00136 0.476166)
(-0.0351558 -0.868183 0.583836)
(-0.0846347 -0.713445 0.587394)
(-0.154374 -0.521665 0.425403)
(-0.129829 -0.605244 0.471744)
(-0.109071 -0.669531 0.537551)
(-0.0917518 -0.676785 0.615814)
(-0.0757808 -0.629841 0.69324)
(-0.0591333 -0.534092 0.764832)
(-0.0255703 -0.371582 0.821747)
(0.0565402 -0.108434 0.818648)
(0.0398358 0.21478 0.68643)
(-0.0671629 0.235925 0.72219)
(-0.0977313 0.293739 0.824101)
(-0.110569 0.364599 0.844276)
(-0.107545 0.44643 0.819092)
(-0.104431 0.523393 0.765818)
(-0.10925 0.58457 0.692733)
(-0.130804 0.577816 0.582506)
(-0.148157 0.519665 0.466049)
(-0.109755 0.470344 0.405379)
(-0.110024 0.409127 0.312634)
(-0.124424 0.353454 0.246966)
(-0.122102 0.330474 0.240206)
(-0.12153 0.252056 0.228438)
(-0.149559 0.212046 0.240866)
(-0.107966 0.0241782 0.244156)
(-0.260714 0.0357776 0.324499)
(-0.188113 0.0684214 0.425957)
(-0.100938 0.128846 0.338034)
(-0.13216 0.339468 0.399846)
(-0.104555 0.385114 0.397566)
(-0.0967632 0.431817 0.400226)
(-0.0800131 0.575607 0.570413)
(-0.0787992 0.605665 0.617976)
(-0.0951429 0.625116 0.645861)
(-0.0378405 0.795372 0.774675)
(-0.0199865 0.82911 0.823701)
(0.0105702 0.7976 0.910564)
(0.0296752 0.732531 0.997486)
(0.0392501 0.633962 1.06012)
(0.0447003 0.534232 1.0953)
(0.0656507 0.446326 1.08278)
(0.11758 0.380483 0.949312)
(0.279296 0.249632 0.786762)
(0.287733 -0.243896 0.902123)
(0.166658 -0.56503 0.971549)
(0.0929193 -0.754563 0.953911)
(0.0521794 -0.859719 0.88446)
(0.0194103 -0.907239 0.798458)
(-0.0106981 -0.894484 0.710771)
(-0.0442189 -0.821283 0.635675)
(0.0194144 -1.00855 0.617496)
(0.0635958 -1.09921 0.672881)
(0.104158 -1.12622 0.731145)
(0.153585 -1.09869 0.780828)
(0.218317 -0.998534 0.801391)
(0.298729 -0.802333 0.766656)
(0.399681 -0.505267 0.681757)
(0.475037 0.0557797 0.426087)
(0.290199 0.462936 0.634691)
(0.218473 0.590731 0.921042)
(0.190175 0.714751 0.980857)
(0.168901 0.837227 0.980633)
(0.135192 0.949598 0.947331)
(0.0985571 1.019 0.887248)
(0.0558258 1.0429 0.821058)
(-0.00252912 0.970575 0.770451)
(-0.000586842 0.883134 0.765084)
(-0.0137436 0.796992 0.769132)
(-0.0202725 0.773162 0.720474)
(-0.0424224 0.745718 0.704944)
(-0.0516967 0.696637 0.672487)
(-0.070924 0.608394 0.670918)
(-0.0905786 0.511661 0.554508)
(-0.11432 0.478122 0.550078)
(-0.11335 0.254151 0.443663)
(-0.222333 0.272693 0.533316)
(-0.267052 0.300735 0.659815)
(-0.266177 0.373722 0.581353)
(-0.120348 0.498016 0.698397)
(-0.083079 0.658874 0.785246)
(-0.0774976 0.765663 0.792874)
(-0.023145 0.894059 0.775078)
(-0.041619 0.772382 0.737387)
(-0.0717511 0.685951 0.749107)
(-0.0950427 0.647703 0.715989)