/*--------------------------------*- C++ -*----------------------------------*\
| =========                 |                                                 |
| \\      /  F ield         | OpenFOAM: The Open Source CFD Toolbox           |
|  \\    /   O peration     | Version:  v2012                                 |
|   \\  /    A nd           | Website:  www.openfoam.com                      |
|    \\/     M anipulation  |                                                 |
\*---------------------------------------------------------------------------*/
FoamFile
{
    version     2.0;
    format      ascii;
    class       volScalarField;
    location    "1155";
    object      nut;
}
// * * * * * * * * * * * * * * * * * * * * * * * * * * * * * * * * * * * * * //

dimensions      [0 2 -1 0 0 0 0];


internalField   nonuniform List<scalar> 
18258
(
0.00418032
0.00182245
0.00149377
0.00129452
0.000857365
0.00140256
0.00194798
0.00231863
0.00243252
0.00241179
0.00249723
0.00421436
0.00591459
0.00730966
0.00767877
0.00766698
0.00696074
0.00664832
0.00722865
0.0088793
0.00745491
0.0047781
0.00571737
0.00661723
0.00721641
0.00639644
0.00517401
0.00478858
0.00433541
0.0036146
0.00303474
0.00208537
0.00151547
0.00140377
0.00127361
0.0014523
0.00158215
0.00168765
0.00172487
0.00175192
0.00173998
0.00173008
0.00168326
0.0016532
0.00160204
0.00132142
0.00158038
0.00166482
0.00182021
0.00250398
0.0026845
0.00225529
0.00249344
0.00222412
0.00146591
0.00167835
0.00182187
0.00186095
0.00183693
0.00176063
0.00173489
0.00171311
0.00168551
0.00165276
0.00163281
0.00164918
0.00166627
0.00164816
0.00156717
0.00150156
0.00139539
0.00128894
0.00121003
0.0011489
0.00110281
0.00105164
0.000994143
0.000873233
0.000809301
0.00107154
0.00134521
0.0014373
0.0020372
0.00248384
0.00250082
0.00187217
0.00133429
0.00138484
0.00153952
0.00155491
0.00131762
0.00156616
0.00177396
0.00183857
0.00191589
0.0021415
0.00243788
0.00237632
0.0021163
0.0019501
0.00191096
0.00219131
0.00208319
0.00270131
0.00272092
0.00237143
0.00218925
0.00246355
0.00317734
0.00341828
0.00265682
0.00249562
0.00244647
0.00241491
0.00218436
0.00226118
0.00205375
0.00185053
0.00201618
0.00243618
0.0023107
0.00252364
0.00261528
0.0024536
0.00284301
0.00327802
0.00323059
0.00258513
0.00210811
0.00196507
0.00197989
0.00121089
0.00130759
0.00140876
0.00144326
0.00146746
0.00148802
0.0015864
0.00158281
0.00155949
0.00155605
0.00158328
0.000872604
0.000945387
0.000968931
0.000975725
0.000926936
0.000917388
0.00090026
0.000886345
0.000835907
0.000799845
0.000957028
0.00107463
0.00117052
0.00128267
0.00144988
0.0016544
0.00186929
0.00208638
0.00222994
0.00227085
0.00231216
0.00222845
0.00214411
0.0022206
0.00223357
0.0022193
0.0021896
0.00215208
0.00210135
0.00200823
0.00211596
0.00211
0.0019823
0.00169939
0.00173731
0.00173446
0.00177971
0.00177067
0.00178854
0.00176305
0.00173284
0.001649
0.00153148
0.00127386
0.00125196
0.0012661
0.00162395
0.00197015
0.00304166
0.00370706
0.00429963
0.00459737
0.00491493
0.00398127
0.00443367
0.00342063
0.00306975
0.00389999
0.00509962
0.00291036
0.00159156
0.0030191
0.0026813
0.00194882
0.00173523
0.00178901
0.00178602
0.00204165
0.00235555
0.00261838
0.00274539
0.00285632
0.00294508
0.00304265
0.00316617
0.00320043
0.00309162
0.00261698
0.00315392
0.0025649
0.00300008
0.00271695
0.00184183
0.00188606
0.00201846
0.00185459
0.0018066
0.00172572
0.00156123
0.00194324
0.00250773
0.00290955
0.00332707
0.00443748
0.00410541
0.00393736
0.00304796
0.0029477
0.00152926
0.00218067
0.0022629
0.00255063
0.00169482
0.00154808
0.00147089
0.00193996
0.00224836
0.00265212
0.00294165
0.00349238
0.0027121
0.00310238
0.00281119
0.00196337
0.00188476
0.00269554
0.00290104
0.00238311
0.0021274
0.00267159
0.00253058
0.00179649
0.00142476
0.00219144
0.00226542
0.00163121
0.00407414
0.00435725
0.00413612
0.00503072
0.00629922
0.00718562
0.00670684
0.00594928
0.00662362
0.00525341
0.00510245
0.0054544
0.00458228
0.00320397
0.0032828
0.00339343
0.00348498
0.00374156
0.00397466
0.00425929
0.00453007
0.00411842
0.00342128
0.00259008
0.00178175
0.00175726
0.0017483
0.00156991
0.00232663
0.00352066
0.00349744
0.00198785
0.00115856
0.00130999
0.00147907
0.00146451
0.00106301
0.000799984
0.001378
0.00157557
0.00160101
0.00156125
0.00147405
0.00154036
0.00247375
0.00381106
0.00418755
0.00433718
0.00447879
0.00457883
0.00463454
0.00465226
0.00466219
0.00467439
0.00468517
0.00470153
0.00468724
0.00458769
0.0040355
0.00253742
0.00148323
0.00137775
0.00152057
0.00163418
0.00173336
0.00147498
0.000901934
0.00144043
0.00184456
0.00212008
0.00213821
0.00199549
0.00193574
0.00305244
0.00405863
0.00478412
0.00493121
0.00499686
0.00494229
0.00493554
0.00482826
0.00479532
0.00420558
0.00300703
0.00328716
0.00352932
0.00356943
0.00365167
0.00377538
0.00368805
0.00348519
0.00509056
0.00587595
0.00595159
0.00607822
0.00600639
0.00590305
0.0056355
0.00532962
0.00448697
0.00336494
0.00212328
0.00216767
0.00230768
0.00228558
0.00198967
0.00209603
0.0022749
0.00229768
0.00237287
0.00266115
0.00302246
0.00288315
0.00248124
0.00210742
0.00196214
0.00192058
0.00184234
0.00137957
0.00140054
0.00136177
0.00138444
0.00185988
0.00221366
0.00255291
0.00362086
0.00322978
0.00262658
0.00416543
0.00426887
0.00458739
0.00506806
0.00519355
0.00575513
0.00400308
0.0036072
0.00370558
0.0030272
0.00280198
0.00283184
0.00284252
0.00264924
0.00289974
0.00287417
0.00277018
0.00305835
0.00337006
0.00444372
0.00538432
0.00568079
0.00585211
0.00592252
0.00590103
0.00578724
0.00582446
0.00511689
0.00511436
0.00489765
0.00475711
0.00470751
0.00447493
0.00511969
0.00531469
0.00537949
0.00551343
0.00572228
0.00556614
0.00539367
0.00526234
0.00516721
0.00506762
0.00512082
0.00521583
0.00531715
0.00545936
0.00564921
0.00568006
0.00548335
0.00533461
0.00523283
0.00513713
0.00514066
0.00522597
0.00532535
0.00546633
0.00564633
0.00554615
0.00540618
0.00528149
0.0051792
0.00508908
0.00491087
0.00502937
0.00515964
0.00526694
0.00533647
0.00461096
0.00492868
0.00484389
0.00438549
0.00410452
0.00311701
0.00337336
0.00355735
0.00387464
0.00430093
0.00438467
0.00367957
0.00315328
0.00307269
0.0030479
0.00311986
0.00314568
0.00316097
0.00357172
0.00538281
0.00541989
0.0054358
0.00543855
0.00465014
0.0045179
0.00420817
0.00769837
0.00716781
0.00620959
0.00511784
0.00274186
0.00235026
0.00278384
0.00338546
0.00378531
0.00417745
0.00277336
0.00171811
0.00200262
0.0020765
0.00202576
0.00187241
0.00155978
0.00143988
0.00130685
0.00140639
0.00249067
0.00397408
0.004476
0.00452315
0.00447793
0.00439051
0.00428439
0.00413678
0.00407808
0.00513614
0.00694618
0.00785442
0.00782426
0.00672169
0.00547872
0.00308925
0.00159104
0.0011705
0.00126007
0.00138527
0.00162666
0.00144805
0.0012215
0.00133833
0.00126736
0.00256671
0.00442923
0.00564501
0.00669708
0.00658551
0.005719
0.0046804
0.00443924
0.00454385
0.00461362
0.00467364
0.00473528
0.00477773
0.00475161
0.00432542
0.00267275
0.00159549
0.00141759
0.00152428
0.00178646
0.0018983
0.0019176
0.00189082
0.00163897
0.00271029
0.00430366
0.002737
0.00149353
0.00161388
0.0016022
0.00282623
0.00282167
0.00276048
0.00429465
0.00454069
0.00452959
0.0042563
0.00406327
0.00240583
0.00273055
0.00273971
0.00275417
0.00279932
0.00141415
0.00154157
0.00158972
0.00171165
0.00149766
0.00190037
0.000491753
0.000681854
0.000791981
0.000860997
0.000927519
0.000909781
0.00174048
0.00176607
0.00168581
0.0016422
0.00208383
0.00223582
0.00228498
0.00210442
0.00194178
0.00206721
0.00207187
0.00195273
0.00184959
0.00191761
0.00191882
0.0018386
0.0015638
0.00146533
0.00160884
0.00159166
0.00157907
0.00283559
0.00283039
0.00267848
0.00440059
0.00433026
0.00484957
0.00481802
0.0048122
0.00479283
0.00484386
0.00487063
0.00489107
0.00491492
0.00490509
0.00485822
0.00677252
0.00477726
0.00416908
0.00241129
0.0023228
0.00164048
0.00143765
0.0016929
0.00181063
0.001963
0.00191863
0.0020226
0.00202026
0.00214365
0.00198966
0.00176669
0.00270601
0.00289083
0.00282335
0.00287917
0.00281132
0.00279476
0.00277413
0.0027347
0.00268723
0.00160004
0.00156957
0.001838
0.00192941
0.0020732
0.00209197
0.00213741
0.00202712
0.00178282
0.0017257
0.00198742
0.00196057
0.0019987
0.00188437
0.00187655
0.00167177
0.00171417
0.00345893
0.00639429
0.0032859
0.0036505
0.00330643
0.00376127
0.00329394
0.00284025
0.0029069
0.00256021
0.00267066
0.00280148
0.00285219
0.00299773
0.00353355
0.00340212
0.0029864
0.00289966
0.00284248
0.00267999
0.00241218
0.00252708
0.00254996
0.00260475
0.00289482
0.00332137
0.00372327
0.0045257
0.0043917
0.00384666
0.00351699
0.00368876
0.0037521
0.00472437
0.00441388
0.00438753
0.00462813
0.00458205
0.00434924
0.00412115
0.00397791
0.00341422
0.00347031
0.0039727
0.00384407
0.00396156
0.00389202
0.00404592
0.00411898
0.00395354
0.00367422
0.0038619
0.00385369
0.00428017
0.00416306
0.00386134
0.00353312
0.00377596
0.00372978
0.00430924
0.00405681
0.0037942
0.00349199
0.00334457
0.00379615
0.00372682
0.00422668
0.00434875
0.00435083
0.00379249
0.00370441
0.00440654
0.00424
0.00409499
0.00426559
0.00353198
0.00363269
0.00447617
0.00457003
0.00433548
0.00361894
0.00367421
0.00314996
0.00370531
0.00461281
0.00435662
0.00357052
0.0029623
0.0041455
0.00436178
0.00461515
0.00436097
0.00475096
0.00511866
0.00417078
0.00453805
0.00593276
0.0045229
0.00524897
0.00536572
0.00539786
0.00540128
0.0054229
0.00545079
0.00574362
0.00558907
0.00355073
0.00424762
0.0041232
0.0034473
0.00293083
0.00322822
0.00347673
0.00352682
0.00361625
0.00375429
0.00369057
0.00357102
0.00522347
0.00595672
0.00609103
0.00621219
0.00610811
0.00595293
0.00560122
0.00517147
0.00428854
0.00319851
0.00199526
0.00203473
0.00216962
0.00215007
0.0018669
0.00140923
0.000925269
0.00137204
0.00141514
0.00132995
0.00120948
0.00106323
0.00109143
0.00201054
0.00412011
0.00550091
0.00605796
0.00651973
0.00700894
0.00744922
0.00778059
0.00802619
0.00819888
0.00830945
0.00833311
0.00817739
0.00747862
0.00715614
0.00675369
0.00642269
0.00595293
0.0055634
0.00628769
0.00689854
0.00727142
0.00769225
0.00788471
0.00780013
0.00677094
0.00658403
0.00759102
0.00934454
0.00795189
0.00998453
0.0117261
0.00913592
0.00820417
0.00818765
0.00915052
0.00932603
0.00900087
0.00849372
0.00791283
0.00717574
0.00755218
0.00788914
0.00820925
0.00850495
0.00927404
0.00941262
0.00934086
0.00918551
0.00898761
0.00872728
0.00832902
0.00776997
0.00709729
0.00642811
0.00566397
0.00412085
0.001856
0.00218246
0.00213069
0.00238203
0.0022721
0.00100942
0.00110505
0.00111702
0.00112187
0.00105978
0.00120144
0.00174448
0.00281572
0.00203488
0.00166794
0.00116437
0.00138033
0.00230563
0.00392532
0.00442358
0.00449654
0.00470881
0.00632302
0.00690758
0.00729182
0.00760791
0.00778845
0.00769269
0.00745894
0.0070417
0.00654168
0.00632937
0.00598835
0.00566637
0.00548337
0.00529251
0.00497102
0.00392917
0.00373325
0.00388493
0.00384159
0.00367926
0.00392847
0.00406848
0.00406339
0.00410704
0.00414525
0.00426652
0.00440955
0.00453407
0.00459927
0.00462335
0.00463098
0.00464067
0.00464859
0.00466337
0.00464821
0.00454708
0.00399331
0.0024978
0.00145837
0.00134853
0.00147863
0.00156368
0.00160012
0.001421
0.00091457
0.00142132
0.00183957
0.00188645
0.00206927
0.00213435
0.00226245
0.00252055
0.00291277
0.00300541
0.00266744
0.00252718
0.00247311
0.00240999
0.00205925
0.00256495
0.002833
0.00282801
0.00280143
0.00302735
0.00372506
0.00357828
0.00315541
0.0031199
0.00308805
0.0027883
0.00274404
0.0030033
0.00303679
0.00315115
0.00369565
0.00443218
0.00411106
0.00374362
0.00358711
0.00331158
0.00290977
0.00263043
0.00325447
0.00267579
0.00138561
0.00117409
0.00118254
0.00118339
0.0011368
0.00134362
0.00141057
0.00142737
0.00133
0.00147928
0.00164886
0.00159885
0.00182078
0.00179165
0.00159626
0.00157979
0.00171955
0.00182442
0.00187618
0.00192249
0.0031387
0.00322944
0.00250632
0.00362813
0.0041891
0.00418752
0.00443765
0.00364392
0.00325524
0.00386436
0.00448291
0.00516895
0.00407677
0.00384504
0.00394705
0.00180614
0.000950117
0.00134107
0.00166447
0.00185125
0.00179392
0.00169464
0.00143277
0.00254397
0.0026123
0.00414206
0.00464526
0.00469922
0.0046626
0.00480917
0.00533817
0.006256
0.00684289
0.00701375
0.006907
0.00662216
0.0060954
0.00558255
0.00552906
0.0053326
0.00517577
0.00512258
0.00446483
0.00392139
0.00417423
0.00411275
0.00424941
0.00431216
0.00435707
0.00440297
0.00448077
0.00457484
0.00466004
0.00471814
0.00475685
0.00478979
0.00482391
0.00485854
0.0048962
0.00491681
0.00487095
0.00440328
0.00264308
0.00157643
0.00143837
0.00153478
0.00180384
0.00189921
0.00204133
0.00181325
0.000954941
0.00112322
0.00195163
0.00216287
0.00200076
0.00187251
0.00183928
0.00154071
0.00278943
0.00275277
0.00431727
0.00485365
0.0049199
0.0049048
0.00486551
0.00482167
0.00478131
0.00474852
0.00472292
0.00469593
0.00465701
0.00461038
0.00456474
0.00451791
0.00443937
0.00432365
0.00422092
0.00440563
0.00451315
0.00469342
0.00492033
0.00504728
0.00495892
0.00480641
0.00472159
0.00473767
0.00477806
0.00482164
0.00486142
0.00488164
0.00482987
0.00455436
0.00427605
0.00270961
0.00274491
0.0013518
0.00150178
0.00173284
0.00178956
0.00194421
0.00193573
0.00152242
0.0011856
0.00133706
0.00124971
0.00223247
0.00245433
0.00272104
0.00269389
0.00146389
0.00150114
0.00156014
0.00176039
0.0016366
0.00158167
0.00389713
0.0037334
0.00390933
0.00479922
0.00413454
0.00285608
0.00313285
0.00435755
0.00459478
0.00277955
0.00208324
0.00231295
0.00293051
0.00431151
0.00436478
0.00414604
0.00412416
0.00301464
0.0037045
0.00445335
0.00433156
0.00338196
0.00233105
0.00173339
0.000842907
0.00160353
0.00137159
0.00335835
0.00371617
0.00367203
0.00401543
0.00426636
0.00431018
0.00418807
0.00371491
0.00378875
0.00382602
0.00435865
0.00437787
0.00370686
0.00312831
0.0025412
0.00256375
0.00261329
0.00289609
0.00362605
0.00341639
0.00299446
0.00290395
0.00284146
0.00267315
0.00241237
0.00211668
0.00213111
0.00198342
0.00191942
0.00302568
0.00402759
0.00474937
0.00488608
0.00493578
0.00486027
0.00482608
0.00468819
0.00461691
0.00401116
0.00511924
0.00540944
0.00521982
0.00525852
0.00529143
0.00533187
0.00533288
0.00523303
0.0044975
0.00268616
0.00175473
0.00198082
0.00213823
0.002008
0.00199664
0.00212792
0.00201893
0.0017732
0.00287262
0.00280748
0.00448836
0.00508194
0.0051899
0.00519559
0.00517433
0.00515677
0.00516336
0.00543584
0.00531452
0.00539425
0.00569175
0.00570058
0.00576868
0.00541539
0.00534568
0.00530079
0.00527054
0.00522186
0.00509308
0.00450659
0.00436881
0.00496184
0.00511538
0.00518394
0.00523169
0.00528857
0.00536284
0.00557586
0.00573446
0.00579462
0.00554875
0.00545608
0.005327
0.00514562
0.00510296
0.00509458
0.00509114
0.00506729
0.00493717
0.0043472
0.00279572
0.00286494
0.00170456
0.00171578
0.00197647
0.00207619
0.00203933
0.00188869
0.00184151
0.0031663
0.00360405
0.00383403
0.00412999
0.00394462
0.00392224
0.00448383
0.00433905
0.00387143
0.00402774
0.00361004
0.00344008
0.00332623
0.00334395
0.00176048
0.0018995
0.00198109
0.00194797
0.00186261
0.00166108
0.00152318
0.00277919
0.00275903
0.0027233
0.00161983
0.00158453
0.00186689
0.00181324
0.00165892
0.00141403
0.00154997
0.00239237
0.00267552
0.00414756
0.00429536
0.00459757
0.00491494
0.00503416
0.00506605
0.00508532
0.00510782
0.00515655
0.0052152
0.00523369
0.00523629
0.00528994
0.00528158
0.00528267
0.00525487
0.0052227
0.00518496
0.00514446
0.00507814
0.00494224
0.00461773
0.00429982
0.0048475
0.0048925
0.00498418
0.00507899
0.00511971
0.00512646
0.00510822
0.00507129
0.00502729
0.00497648
0.00497398
0.00510708
0.00513846
0.00516086
0.00514289
0.00512389
0.00511742
0.00509549
0.00506016
0.00496838
0.00487622
0.00483705
0.00475706
0.00488339
0.00493867
0.00494581
0.00499183
0.0050668
0.00508749
0.00508622
0.00504953
0.00501965
0.00498143
0.00491691
0.00483164
0.00454933
0.00461157
0.00468965
0.00479214
0.00489118
0.0049712
0.00501611
0.00501902
0.00497276
0.00494149
0.0049424
0.00490057
0.00492212
0.0049446
0.00491976
0.00491712
0.00492096
0.0048648
0.00476282
0.00462101
0.00447138
0.00434875
0.00428795
0.00418544
0.00450496
0.00463231
0.00474468
0.00484335
0.00493277
0.00502339
0.0050522
0.00504354
0.00498853
0.00495806
0.00495811
0.00491158
0.00490873
0.00495359
0.00495414
0.0049796
0.00502762
0.00501271
0.00494573
0.00477488
0.00460928
0.00446523
0.00432726
0.00417855
0.00415622
0.00422432
0.00416348
0.00421737
0.00436215
0.00454548
0.00470429
0.00480616
0.00483828
0.00486815
0.00491219
0.00490721
0.00488061
0.00486636
0.00480684
0.00475507
0.00469142
0.00455199
0.00437457
0.00421917
0.0041725
0.00425971
0.00434441
0.00426482
0.00394922
0.00410572
0.00425155
0.00439646
0.00460248
0.00484074
0.0049459
0.00498327
0.00496025
0.00494289
0.0049418
0.00489939
0.00488402
0.00492295
0.00492464
0.00494212
0.00497219
0.0049393
0.00485216
0.00455858
0.00421273
0.00404667
0.00394975
0.00381438
0.00428528
0.00437584
0.00426735
0.00419398
0.00430612
0.00443601
0.00457153
0.00466145
0.00469658
0.00474693
0.00481355
0.00484541
0.00479768
0.00474261
0.00467474
0.00464041
0.00464152
0.00461938
0.004532
0.0044295
0.0043097
0.00445518
0.00454164
0.00445899
0.0040212
0.00408622
0.00417886
0.00422839
0.00455216
0.00484278
0.00491455
0.00492096
0.00489363
0.00487657
0.00487939
0.00485554
0.00480827
0.00479754
0.00478991
0.00484201
0.00491042
0.00494415
0.00495932
0.00474073
0.00435935
0.00430831
0.00413521
0.00405374
0.004519
0.00457183
0.00446451
0.00436646
0.0045758
0.00466465
0.00468971
0.0046708
0.00462067
0.00458701
0.00464502
0.00473708
0.0046667
0.00436459
0.00409599
0.00423519
0.00426975
0.00425916
0.00420137
0.00410516
0.00389638
0.00435233
0.00479892
0.00483388
0.00434413
0.00434983
0.00420842
0.00390376
0.00427164
0.00447466
0.00452219
0.00451054
0.00444754
0.00428364
0.00452909
0.00474422
0.00470467
0.00425643
0.00276114
0.00279983
0.002821
0.00282474
0.00278859
0.00277889
0.00273935
0.00271925
0.00265743
0.00259495
0.00253438
0.00270265
0.00284509
0.00303823
0.00305447
0.00313464
0.00300529
0.0028485
0.00266283
0.00207467
0.00263223
0.00314005
0.00333464
0.00358569
0.00363784
0.00418745
0.00440201
0.0045188
0.0044334
0.00355669
0.00301746
0.00241175
0.00156855
0.000977511
0.0011479
0.00119451
0.00126122
0.00154999
0.00282575
0.0014479
0.001999
0.00156234
0.00267785
0.00143638
0.000896252
0.000592698
0.000754592
0.000894344
0.000903011
0.000867037
0.000722716
0.000569022
0.000581536
0.000543635
0.000577644
0.000520854
0.000596578
0.000555679
0.000762462
0.00110622
0.00129473
0.00132807
0.00107559
0.00121732
0.00101738
0.00117595
0.00105158
0.00114712
0.00110112
0.00134679
0.00147616
0.0014128
0.00141608
0.00123918
0.00086666
0.00100481
0.000789461
0.00094828
0.000725519
0.000936363
0.000803017
0.00104346
0.00107549
0.00107218
0.00103208
0.000788211
0.000933618
0.000735374
0.000903965
0.000744418
0.000794067
0.000660527
0.000959177
0.000977055
0.000900891
0.000957355
0.00107337
0.00114826
0.00126042
0.00119324
0.00136055
0.00131503
0.001333
0.00126373
0.00123041
0.00120294
0.00120606
0.00118648
0.00119296
0.00123125
0.00123273
0.00123727
0.00127572
0.00125707
0.00122578
0.00120645
0.00107195
0.000865687
0.00150808
0.00155507
0.00157923
0.00157958
0.0015452
0.00152633
0.00146989
0.00145539
0.00140737
0.00138119
0.00131796
0.00126835
0.00121021
0.00136124
0.000762551
0.000866081
0.000914368
0.000942397
0.000961059
0.000970071
0.000976555
0.000970956
0.000958552
0.000935654
0.000928696
0.000903393
0.00115521
0.00131426
0.00137533
0.0013923
0.00130492
0.00124312
0.00273275
0.00331054
0.00501627
0.00512751
0.00385751
0.00384267
0.00132423
0.00140169
0.000957361
0.00134536
0.0013874
0.00137313
0.0012967
0.000934889
0.00140279
0.000978198
0.00131187
0.000986395
0.00120495
0.00100417
0.00143028
0.00182567
0.00176314
0.00159706
0.00109491
0.000910872
0.000912148
0.000779223
0.000855227
0.000703926
0.000863417
0.000727083
0.00106275
0.00148494
0.00167642
0.00171285
0.0013522
0.00186765
0.00140492
0.00203702
0.0016216
0.00200373
0.00161053
0.00186204
0.00230458
0.00231548
0.00226059
0.00182187
0.00145776
0.00163729
0.00144942
0.00167077
0.00241573
0.00158256
0.00240862
0.00099418
0.00135563
0.0013977
0.00137879
0.00130014
0.000875501
0.00222667
0.00117814
0.00208742
0.00134988
0.00215247
0.00156931
0.00208305
0.00248842
0.00260386
0.00259307
0.00211733
0.00191298
0.00198138
0.00158107
0.00189854
0.00141421
0.00205319
0.00116908
0.00151671
0.00166783
0.00176025
0.00176518
0.00144728
0.0028643
0.00180052
0.00271844
0.00189335
0.00242719
0.00194653
0.00212689
0.00251286
0.00249678
0.00247518
0.00209865
0.00169941
0.00224409
0.00159866
0.0480657
0.110703
0.0442024
0.11193
0.0505932
0.0718545
0.0707798
0.0709015
0.0711702
0.0534664
0.116679
0.137779
0.143657
0.145422
0.144364
0.23327
0.190256
0.285764
0.185213
0.109136
0.0474287
0.0653088
0.168281
0.277685
0.416737
0.528803
0.360392
0.37304
0.238045
0.234692
0.221013
0.178915
0.10995
0.0551887
0.00939636
0.0102569
0.0147163
0.0196241
0.0153881
0.00937892
0.00185653
0.00191509
0.00195736
0.00198308
0.00197446
0.00192981
0.00195669
0.00184336
0.00172783
0.00192734
0.00210205
0.00234644
0.00273841
0.00301731
0.00271679
0.00297502
0.00315195
0.00329642
0.00341626
0.00359483
0.00379587
0.00397184
0.00398129
0.00364835
0.00310972
0.0025297
0.00212622
0.00201442
0.00189171
0.00166828
0.00152623
0.00142915
0.00138227
0.00136289
0.00140059
0.00153063
0.00164337
0.00168289
0.00164975
0.00161944
0.00159302
0.00141848
0.00165849
0.00227496
0.00229288
0.00392839
0.00452661
0.00462074
0.00462719
0.00410236
0.00262088
0.00262673
0.00264027
0.00269096
0.0027016
0.00270892
0.00270616
0.0026969
0.00268123
0.00265212
0.00263758
0.00259513
0.00255926
0.00246965
0.00247372
0.00250675
0.00253218
0.00249099
0.00250186
0.00244812
0.00316406
0.00423638
0.0047917
0.00500776
0.00519413
0.00504198
0.00698123
0.00596473
0.00419852
0.00414448
0.00409119
0.00485596
0.00488831
0.0043993
0.00441396
0.00402557
0.00250903
0.00249496
0.00249623
0.00266443
0.00271506
0.00280827
0.00283351
0.00285751
0.00287117
0.00286849
0.00286726
0.00284519
0.00282701
0.00276557
0.0027449
0.00273654
0.00150893
0.00164621
0.00170627
0.00171681
0.00173976
0.00172903
0.00171825
0.00169761
0.00168336
0.00165549
0.00162263
0.00157575
0.00148333
0.00135233
0.00148949
0.00253139
0.00253251
0.00414074
0.00466313
0.00469878
0.00524865
0.00498267
0.00471979
0.00506991
0.0045613
0.00452171
0.00409043
0.00253801
0.00257175
0.00152471
0.00150898
0.00176286
0.00171224
0.00182849
0.00187696
0.00188241
0.00190783
0.00193339
0.00196417
0.00201258
0.00202749
0.00199812
0.00199333
0.00187954
0.00162509
0.00164504
0.0019381
0.00203066
0.00188452
0.00184958
0.00183508
0.00179149
0.0017575
0.00172446
0.00174768
0.00188247
0.00188252
0.0018511
0.00176355
0.00171992
0.00149368
0.00144616
0.00252214
0.00254133
0.00416588
0.00430907
0.00429663
0.00494524
0.00550657
0.00626379
0.00534229
0.00433169
0.00444087
0.0050687
0.00375145
0.00309962
0.00184139
0.00142104
0.00170898
0.00166603
0.00173243
0.00179483
0.00159299
0.00170836
0.00157819
0.00143366
0.00142533
0.00142322
0.00145868
0.00147334
0.00149995
0.0015034
0.00153859
0.00153505
0.0015398
0.00155868
0.00156844
0.00173304
0.00188494
0.00158563
0.00134419
0.00130841
0.00123546
0.00117595
0.00120464
0.00117668
0.00116969
0.00114839
0.00112913
0.00107748
0.00112325
0.00119216
0.00139498
0.00133686
0.00108037
0.000965043
0.000659878
0.000671959
0.000676611
0.000697513
0.000705033
0.000714312
0.000717708
0.000729332
0.000731539
0.00073515
0.000734824
0.000752144
0.000749512
0.000740885
0.000735272
0.000739134
0.000742706
0.000742176
0.00108652
0.00120994
0.00132259
0.00157122
0.00185044
0.00159208
0.00134883
0.00116228
0.0007473
0.000758744
0.000772625
0.000779824
0.000796415
0.000811591
0.000828534
0.000839342
0.000847501
0.000856139
0.000865154
0.000869067
0.000867132
0.00085082
0.000841119
0.000862957
0.000948578
0.00099831
0.00106185
0.00108595
0.00110716
0.00111815
0.00111236
0.00112363
0.00110994
0.00110793
0.00108832
0.00107983
0.00107149
0.00106128
0.00104877
0.00101855
0.00100834
0.00106118
0.00179437
0.00234607
0.00270464
0.00298076
0.00273909
0.00220605
0.00233817
0.00409658
0.00386595
0.00229794
0.00213748
0.00196283
0.00170124
0.00152922
0.00184975
0.00210721
0.00230309
0.00247657
0.00263531
0.00274325
0.00288191
0.00306261
0.0033815
0.00342157
0.00312105
0.00252922
0.00214096
0.00199944
0.00193166
0.00181379
0.0016851
0.00172743
0.00173998
0.0016883
0.0016241
0.00160592
0.00163249
0.00166635
0.0016464
0.00164574
0.00147028
0.00146977
0.00251147
0.00255881
0.00393613
0.0041473
0.0041876
0.00269215
0.00265543
0.00155109
0.00144063
0.00157164
0.00163162
0.00163509
0.00164184
0.00163365
0.00160512
0.00158433
0.00155991
0.00154028
0.00152292
0.00149295
0.00143572
0.00132633
0.00144555
0.00162058
0.00169205
0.00171038
0.00171917
0.00174611
0.00179079
0.00182632
0.00190881
0.001917
0.00191611
0.00192278
0.00179712
0.00185321
0.00156842
0.00156605
0.0027142
0.00270665
0.00155504
0.00183613
0.00184878
0.00182764
0.00196782
0.00180074
0.00174377
0.00173475
0.00166152
0.00162254
0.00157031
0.0015394
0.00156976
0.00167025
0.00161757
0.00143389
0.00138296
0.00155059
0.001491
0.00123688
0.0010566
0.00102741
0.000983394
0.000956681
0.00100267
0.00103864
0.00105912
0.00108511
0.00109278
0.00114041
0.00110946
0.00116407
0.00123445
0.00129046
0.00153061
0.00165887
0.00149863
0.00146997
0.00145176
0.00145041
0.00145508
0.0013953
0.00139138
0.00136043
0.00134517
0.00130454
0.00128632
0.00126316
0.00126741
0.00128089
0.00140831
0.00362508
0.00462096
0.00481272
0.00822176
0.00332309
0.00339365
0.0066652
0.00275129
0.00413978
0.00443641
0.004636
0.00484095
0.0044325
0.00563097
0.00393041
0.00437489
0.00456426
0.00401316
0.00149341
0.00168258
0.00195207
0.00175129
0.00154717
0.0010546
0.00113738
0.00117473
0.00120505
0.00122481
0.00124666
0.00127008
0.001292
0.00130738
0.00130758
0.00126779
0.0012249
0.00112639
0.00109357
0.00113587
0.00117957
0.00103597
0.000975424
0.000986917
0.00100312
0.0010122
0.0010141
0.001024
0.00102664
0.00104228
0.00103387
0.00104173
0.00102388
0.00103287
0.00101942
0.000984714
0.0009359
0.00085303
0.000832773
0.00119949
0.00127735
0.0013419
0.00152302
0.0017589
0.00187706
0.00168261
0.00155195
0.00148972
0.00165257
0.00165331
0.00300562
0.00577279
0.00258285
0.00289289
0.00843268
0.00335255
0.00260677
0.00264596
0.00267367
0.0026775
0.001556
0.00184271
0.00178647
0.00179405
0.00152172
0.00127772
0.00114608
0.00102473
0.000694995
0.000692727
0.000697953
0.000708714
0.000712072
0.000681664
0.000681588
0.000677717
0.000676212
0.000661864
0.000657871
0.000646201
0.000639127
0.000622291
0.000613196
0.000597207
0.000594316
0.000618839
0.000687397
0.000830681
0.000925784
0.00105168
0.00107117
0.00120799
0.00300255
0.00347661
0.00479348
0.00474772
0.00748593
0.00467785
0.00353329
0.00319492
0.0046747
0.00483158
0.00449238
0.00608204
0.0042084
0.00278634
0.00417356
0.00346432
0.00413892
0.00404992
0.00429311
0.00681227
0.0071645
0.00201883
0.00179963
0.00189312
0.00214794
0.0025505
0.0023482
0.00267522
0.0026712
0.00205982
0.00131648
0.00419425
0.00506978
0.00406034
0.00486612
0.00751212
0.00302107
0.0029464
0.00260672
0.00217566
0.00197743
0.0019509
0.00217536
0.00260334
0.00652121
0.00697715
0.0064173
0.00639338
0.00581106
0.00640365
0.00798225
0.00794313
0.0070145
0.00656
0.0067923
0.00420886
0.00262662
0.00305404
0.00338289
0.00451366
0.00465556
0.00981814
0.00333869
0.00368473
0.003741
0.00500258
0.00484977
0.00855796
0.00363473
0.00391591
0.00516008
0.00688979
0.0126823
0.00464213
0.00488319
0.00701827
0.00712457
0.00651534
0.00471616
0.00427176
0.00464888
0.00350284
0.00342511
0.00292489
0.00431714
0.00580256
0.00459461
0.00446135
0.00379327
0.00338496
0.00345935
0.00358978
0.00298271
0.00294164
0.00339411
0.00252786
0.00243613
0.00258435
0.000716263
0.000367195
0.000375417
0.000385204
0.000393125
0.000401293
0.000407249
0.000414327
0.00041749
0.000417852
0.000418949
0.000442959
0.000438807
0.000424919
0.000385846
0.000440258
0.000698642
0.000699071
0.000439714
0.000387638
0.000695559
0.00110819
0.00130638
0.00154532
0.00156431
0.0013498
0.00117042
0.000720538
0.000709211
0.00042988
0.000502062
0.000545227
0.000483623
0.000539761
0.000500301
0.000529912
0.000535517
0.000495583
0.000492782
0.000494669
0.000490932
0.000482201
0.000471536
0.000458492
0.000448198
0.000442464
0.000437941
0.000428211
0.000356253
0.000331917
0.000398693
0.000635338
0.000634351
0.000594733
0.000561028
0.000532343
0.000519402
0.000515905
0.000513169
0.00052216
0.000539006
0.000543781
0.000548612
0.000591051
0.000572433
0.000611407
0.000573808
0.000613013
0.000575343
0.000529264
0.000444399
0.000458481
0.000739629
0.000747489
0.00120753
0.00138121
0.0015662
0.00157411
0.00175734
0.00185098
0.00156774
0.00162757
0.00186497
0.00173676
0.00154784
0.00155399
0.00139774
0.0013992
0.0012396
0.0007748
0.000764304
0.000480012
0.000466202
0.000555905
0.000546206
0.000607472
0.00065016
0.000650388
0.000648296
0.000632205
0.000626388
0.000550875
0.00054001
0.000540725
0.000524363
0.000520732
0.000542667
0.000591708
0.000694136
0.000839604
0.00091441
0.000946573
0.000908076
0.000813232
0.000599855
0.000542335
0.00093968
0.000975763
0.0017446
0.00414507
0.00192036
0.0036844
0.00265826
0.000661778
0.000738435
0.00094167
0.00105518
0.00113918
0.00118723
0.00108472
0.000904691
0.000681145
0.000562723
0.000841199
0.000727448
0.000821863
0.000717832
0.000928872
0.001074
0.00103898
0.00104677
0.000884611
0.000720618
0.000763175
0.00068515
0.000755225
0.000632296
0.00076077
0.000686777
0.000863011
0.000871108
0.000852973
0.000808494
0.000615587
0.000645896
0.000541818
0.000587782
0.000527778
0.000545522
0.000516958
0.00060281
0.000694643
0.000666693
0.0006641
0.000545669
0.000427618
0.000472329
0.000408532
0.000462405
0.000359458
0.000435434
0.000365097
0.000472649
0.000487186
0.000489581
0.000486183
0.000395381
0.000465048
0.00057013
0.000598921
0.000603962
0.000575168
0.000443556
0.000686261
0.000618969
0.000755737
0.000653519
0.000715514
0.000651511
0.000759373
0.000972545
0.00101539
0.00102211
0.000829275
0.000824178
0.00150384
0.0834522
0.0013528
0.00159903
0.00164895
0.00164304
0.00135843
0.00132514
0.00164142
0.00121405
0.00171953
0.00108269
0.00183427
0.00069927
0.00106311
0.0011414