/*--------------------------------*- C++ -*----------------------------------*\
| =========                 |                                                 |
| \\      /  F ield         | OpenFOAM: The Open Source CFD Toolbox           |
|  \\    /   O peration     | Version:  v2012                                 |
|   \\  /    A nd           | Website:  www.openfoam.com                      |
|    \\/     M anipulation  |                                                 |
\*---------------------------------------------------------------------------*/
FoamFile
{
    version     2.0;
    format      ascii;
    class       volScalarField;
    location    "250";
    object      nut;
}
// * * * * * * * * * * * * * * * * * * * * * * * * * * * * * * * * * * * * * //

dimensions      [0 2 -1 0 0 0 0];


internalField   nonuniform List<scalar> 
18258
(
0.00417992
0.00181982
0.00148944
0.00128926
0.000856254
0.00139976
0.00194459
0.00231537
0.0024298
0.00241014
0.00249638
0.00421394
0.00591491
0.00731111
0.00768039
0.00766738
0.0069611
0.0066477
0.00721699
0.00887288
0.00745823
0.00477822
0.00572356
0.00661397
0.00719508
0.00637096
0.00515188
0.0047711
0.00431921
0.00359958
0.00301798
0.0020609
0.00151519
0.00140498
0.00127308
0.00145086
0.00157991
0.00168428
0.00172248
0.00174983
0.00173801
0.00172808
0.00168121
0.00165241
0.00160318
0.00132608
0.00160551
0.00164741
0.00180212
0.00249138
0.00267747
0.00225257
0.00249281
0.00222382
0.00146606
0.00167808
0.00182164
0.00186081
0.00183679
0.00176049
0.00173476
0.001713
0.00168544
0.00165274
0.00163284
0.0016493
0.00166652
0.00164859
0.00156781
0.00150235
0.00139641
0.00129018
0.00121146
0.00115048
0.00110449
0.00105328
0.000995723
0.000874637
0.000810632
0.00107329
0.00134742
0.00143971
0.00204065
0.00248805
0.00250501
0.00187566
0.00133697
0.00138769
0.00154248
0.0015576
0.00131962
0.00156783
0.00177523
0.00183971
0.00191691
0.00214291
0.00244129
0.00238056
0.00212051
0.00195512
0.00189925
0.00218338
0.00207999
0.00269795
0.00271353
0.00235885
0.00219604
0.00246962
0.00318531
0.00342332
0.00265736
0.00249664
0.00244793
0.00241615
0.00218632
0.00226391
0.00205679
0.00185332
0.00201939
0.00243879
0.00231302
0.00252567
0.00261742
0.00245582
0.00284565
0.00328128
0.00323457
0.0025884
0.00211189
0.00196863
0.00198339
0.00121305
0.00130988
0.00141059
0.00144517
0.00146955
0.00149019
0.00158862
0.00158503
0.00156164
0.00155817
0.0015847
0.000873674
0.000946692
0.000970289
0.000977088
0.000928262
0.000918644
0.000901419
0.000887454
0.000837284
0.000801232
0.00095858
0.00107626
0.00117211
0.00128422
0.00145119
0.00165549
0.00187025
0.00208731
0.00223089
0.00227185
0.00231309
0.00222955
0.00214515
0.00222163
0.00223445
0.00221996
0.00219012
0.00215242
0.00210155
0.00200838
0.00211621
0.00211032
0.00198246
0.00169915
0.00173709
0.00173398
0.00177902
0.00176974
0.00178746
0.00176205
0.00173225
0.00164893
0.0015326
0.00127555
0.00124497
0.0012602
0.001618
0.0019641
0.00303372
0.00370027
0.00429603
0.00459706
0.00491881
0.00397955
0.0044294
0.00341402
0.00306485
0.00389543
0.00509601
0.00290727
0.00158714
0.0030107
0.00267072
0.00193775
0.00172498
0.00177772
0.00178043
0.0020434
0.00235589
0.00261531
0.0027414
0.00285279
0.00294178
0.00303998
0.00316404
0.00319817
0.00308973
0.00261528
0.00315177
0.00255966
0.00298845
0.00269919
0.00182178
0.00192467
0.0020419
0.00186882
0.00181761
0.00173956
0.00156688
0.00193129
0.00249898
0.00290007
0.00331552
0.00442154
0.0040906
0.00392208
0.0030371
0.00293683
0.00152447
0.00217431
0.00225531
0.00253589
0.00168639
0.00153818
0.00145989
0.00193636
0.00224325
0.00264745
0.00293725
0.00348996
0.00270574
0.00308811
0.00279346
0.00194657
0.00187384
0.00268349
0.00289077
0.00237795
0.00212604
0.00266704
0.00252438
0.00179106
0.00143317
0.00220102
0.00227827
0.00163493
0.00404898
0.00432766
0.00415398
0.00507304
0.00635267
0.00723745
0.00673635
0.0059731
0.0066749
0.00530358
0.00513474
0.00547411
0.00459206
0.00320453
0.00328533
0.00339678
0.00348733
0.00374295
0.00397547
0.00426018
0.00453145
0.00411993
0.00342233
0.00259115
0.00178278
0.00175781
0.00174847
0.00157009
0.00232704
0.00352273
0.00350051
0.00199056
0.00115996
0.00131091
0.00147984
0.00146521
0.00106398
0.000800415
0.0013786
0.00157633
0.00160179
0.00156202
0.00147478
0.00154114
0.00247502
0.00381299
0.00418961
0.00433931
0.00448106
0.00458129
0.00463723
0.00465521
0.00466539
0.00467778
0.00468867
0.00470503
0.00469062
0.00459082
0.00403802
0.00253874
0.0014839
0.00137832
0.00152119
0.00163482
0.00173397
0.00147544
0.000902253
0.00144094
0.00184524
0.00212095
0.00213911
0.00199635
0.00193661
0.00305386
0.0040605
0.0047862
0.00493324
0.00499879
0.00494406
0.00493714
0.00482962
0.00479631
0.0042059
0.00300745
0.00328764
0.00352974
0.00356981
0.00365197
0.00377553
0.00368782
0.00348452
0.00509115
0.00587624
0.00595191
0.00607915
0.00600796
0.00590509
0.00563773
0.00533195
0.00448912
0.00336667
0.0021244
0.00216894
0.00230919
0.00228724
0.0019913
0.00209753
0.00227621
0.002299
0.00237425
0.00266232
0.00302368
0.00288458
0.00248282
0.00210826
0.00196301
0.00192129
0.00184301
0.00137987
0.00140088
0.00136221
0.0013849
0.00186092
0.00221502
0.00255433
0.00362229
0.00323122
0.00262784
0.00416559
0.00426872
0.00458602
0.00506688
0.00519263
0.00575299
0.00400374
0.00360861
0.00370694
0.00302835
0.00280328
0.00283327
0.00284398
0.00265102
0.0029015
0.00287579
0.00277169
0.00305999
0.00337141
0.00444534
0.00538591
0.00568224
0.00585332
0.00592315
0.0059007
0.00578591
0.00582253
0.00511382
0.00511043
0.00489463
0.00475474
0.00470579
0.00447388
0.00511974
0.00531407
0.00537834
0.00551177
0.00572015
0.00556476
0.00539267
0.00526179
0.00516715
0.00506816
0.00512167
0.00521615
0.00531703
0.00545892
0.00564861
0.00568023
0.00548347
0.0053349
0.00523345
0.00513822
0.00514195
0.00522686
0.00532599
0.00546688
0.00564703
0.00554718
0.00540705
0.00528242
0.00518032
0.00509054
0.00491245
0.00503066
0.00516079
0.00526806
0.00533772
0.00461228
0.00492995
0.00484517
0.00438679
0.00410597
0.00311816
0.00337457
0.00355847
0.00387586
0.00430229
0.00438601
0.0036808
0.00315442
0.00307398
0.00304922
0.00312133
0.00314711
0.00316225
0.00357301
0.00538178
0.00541929
0.00543505
0.00543743
0.00465032
0.00451851
0.00420887
0.00769329
0.0071633
0.0062065
0.00511744
0.00274294
0.00235122
0.00278499
0.00338684
0.00378683
0.00417944
0.00277441
0.00171883
0.00200338
0.00207763
0.0020274
0.00187427
0.00156142
0.00144133
0.00130819
0.00140772
0.00249253
0.00397694
0.00447952
0.0045271
0.00448235
0.00439552
0.00429032
0.00414408
0.00408244
0.00512824
0.00691362
0.00784718
0.00782117
0.00672081
0.00546884
0.00307475
0.00157019
0.00113564
0.00125955
0.00138183
0.00162779
0.00145542
0.00120093
0.00131393
0.00125439
0.00254625
0.00440935
0.00564299
0.00669046
0.00657024
0.0056965
0.00467911
0.00444526
0.00454971
0.0046183
0.00467793
0.00473924
0.00478139
0.00475492
0.00432809
0.0026743
0.0015966
0.00141872
0.00152571
0.00178807
0.00189968
0.00191864
0.00189163
0.00163966
0.00271128
0.00430597
0.0027382
0.00149415
0.00161459
0.00160305
0.00282763
0.00282308
0.00276186
0.00429711
0.00454326
0.00453156
0.00425788
0.00406502
0.00240659
0.00273082
0.00273983
0.00275435
0.00279956
0.00141411
0.00154138
0.00158931
0.00171075
0.00149791
0.00190156
0.000492035
0.000681883
0.000792025
0.000861097
0.000927635
0.000909952
0.00174051
0.00176572
0.00168552
0.0016414
0.00208344
0.00223593
0.00228535
0.0021051
0.00194256
0.00206785
0.00207229
0.00195275
0.0018498
0.00191816
0.00191955
0.00183939
0.00156449
0.00146597
0.0016095
0.00159218
0.00157938
0.00283642
0.00283144
0.00267956
0.00440271
0.00433186
0.00485187
0.00482045
0.00481512
0.00479597
0.00484729
0.00487383
0.00489387
0.00491765
0.004908
0.00486086
0.00676591
0.0047807
0.00417185
0.00241256
0.00232393
0.00164125
0.00143832
0.00169367
0.00181144
0.00196383
0.00191939
0.0020235
0.00202118
0.00214459
0.00199055
0.00176752
0.00270735
0.00289232
0.00282495
0.00288087
0.0028131
0.00279659
0.00277593
0.00273638
0.00268877
0.00160091
0.00157036
0.0018389
0.00193032
0.00207415
0.00209296
0.00213839
0.00202807
0.00178369
0.00172661
0.00198842
0.0019616
0.0019997
0.00188536
0.00187759
0.00167275
0.00171513
0.00345986
0.00638964
0.00328686
0.00365115
0.00330744
0.0037619
0.0032948
0.00284131
0.00290795
0.00256129
0.00267176
0.00280254
0.00285325
0.00299874
0.00353475
0.00340336
0.00298749
0.0029008
0.00284362
0.00268111
0.00241319
0.00252812
0.00255104
0.0026058
0.00289605
0.00332191
0.00372401
0.00452452
0.00439058
0.00384685
0.00351665
0.00368767
0.00375155
0.00472224
0.00441162
0.0043858
0.00462652
0.00458089
0.0043479
0.00412016
0.00397706
0.00341439
0.00347059
0.00397255
0.00384387
0.00396105
0.00389143
0.00404485
0.00411766
0.00395249
0.00367378
0.00386073
0.00385251
0.00427869
0.00416204
0.00386048
0.00353321
0.00377508
0.00372866
0.00430774
0.00405596
0.00379374
0.00349137
0.00334381
0.00379502
0.00372619
0.00422565
0.00434721
0.00434911
0.00379123
0.00370372
0.00440511
0.00423863
0.00409324
0.00426346
0.00353059
0.00363198
0.00447431
0.00456806
0.00433327
0.00361721
0.00367325
0.00314992
0.00370425
0.00461048
0.00435393
0.00356869
0.00296104
0.00414336
0.00436015
0.00461258
0.00435905
0.00474876
0.00511631
0.00417
0.00453717
0.00592966
0.00452523
0.00525145
0.00536804
0.00539995
0.00540309
0.00542439
0.0054519
0.00574422
0.00558839
0.00355158
0.00424889
0.00412624
0.00344998
0.00293286
0.00323037
0.00347881
0.00352855
0.00361765
0.0037553
0.00369122
0.00357019
0.00522516
0.00596314
0.00609376
0.00621611
0.00611537
0.0059659
0.00561879
0.00519261
0.00430766
0.00321196
0.00200341
0.00204174
0.00217547
0.00215408
0.00186837
0.00141005
0.000926404
0.00137572
0.00142274
0.00134014
0.00122169
0.00107803
0.00111475
0.00203693
0.00403915
0.00546541
0.00601557
0.00646439
0.00694785
0.00742154
0.00778445
0.00804652
0.00822155
0.00832651
0.00834452
0.00817452
0.00742636
0.00709801
0.0066923
0.00636132
0.00590449
0.00554739
0.00626753
0.00688324
0.00726355
0.00769126
0.0078888
0.00780486
0.0067823
0.006582
0.00757173
0.00932476
0.00792165
0.00995422
0.0117101
0.00912638
0.00820278
0.00819427
0.00915469
0.00933316
0.00900048
0.0084817
0.00788696
0.00713732
0.00750544
0.00784039
0.0081635
0.00846025
0.00929288
0.00944741
0.00938199
0.00924258
0.0090529
0.00877439
0.00833253
0.00772515
0.00705349
0.00640107
0.00564349
0.00407316
0.00189022
0.00215913
0.00210784
0.00231819
0.00223636
0.00101385
0.00111804
0.00113267
0.00114094
0.00107879
0.00122705
0.00177745
0.00289795
0.0020835
0.00171132
0.0011823
0.00139226
0.00232807
0.00396111
0.00447448
0.00455617
0.00460523
0.00585453
0.00682741
0.00727121
0.00760691
0.00785224
0.00774851
0.00748967
0.00703261
0.00647413
0.00626114
0.00591864
0.0056132
0.0054497
0.0052788
0.0049577
0.00390424
0.00372352
0.00387938
0.00383426
0.00367178
0.00392297
0.00406496
0.00406172
0.00410703
0.00414677
0.00426965
0.00441431
0.0045404
0.00460693
0.00463211
0.0046406
0.00465094
0.00465927
0.00467424
0.00465903
0.00455749
0.00400205
0.00250204
0.00146013
0.00134966
0.00147985
0.00156488
0.0016012
0.00142172
0.00091504
0.00142204
0.00184072
0.00188798
0.00207179
0.00213772
0.00226756
0.00252666
0.00291995
0.00301302
0.00267349
0.00253199
0.00247749
0.0024146
0.00206136
0.00256952
0.00283838
0.00283351
0.00280742
0.00303469
0.00373495
0.00358728
0.00316277
0.00312661
0.0030945
0.00279484
0.00275221
0.0030107
0.00304438
0.00315919
0.00370531
0.00444456
0.00412228
0.00375383
0.00359726
0.00332117
0.00292101
0.00263995
0.00325659
0.00267513
0.0013974
0.00118423
0.00118575
0.00118802
0.00114434
0.0013563
0.00142703
0.00144692
0.00134852
0.00149667
0.00166606
0.00161417
0.00182615
0.00180069
0.00161024
0.00159373
0.00172918
0.00183011
0.00188019
0.00192538
0.0031553
0.00325356
0.00252279
0.00365571
0.00421443
0.00419697
0.00444975
0.00365541
0.00327397
0.00388756
0.00449856
0.00517132
0.00408227
0.00385771
0.00395203
0.00180987
0.000952259
0.00134372
0.00166851
0.00185962
0.00180468
0.00170573
0.00144303
0.00256534
0.00263393
0.00418554
0.00469489
0.00475466
0.00472207
0.00472381
0.0051462
0.00591894
0.00678856
0.00705191
0.00695067
0.00663811
0.00605759
0.00548323
0.00545159
0.00527096
0.00513623
0.0050996
0.00443846
0.00390202
0.00417259
0.00410806
0.00424725
0.00431249
0.0043599
0.00440829
0.00448885
0.00458614
0.00467509
0.00473631
0.00477755
0.00481236
0.00484775
0.00488312
0.00492115
0.00494197
0.00489572
0.00442488
0.00265213
0.00158027
0.001441
0.00153754
0.00180725
0.00190295
0.00204513
0.00181545
0.000955901
0.00112469
0.00195384
0.00216769
0.00200586
0.00187718
0.00184393
0.00154453
0.0028005
0.00276495
0.00434418
0.00488583
0.00495365
0.004939
0.00489964
0.00485485
0.00481049
0.00477387
0.00474437
0.00471348
0.0046708
0.00461994
0.00457229
0.00452327
0.00444067
0.00432382
0.00419306
0.00436273
0.0045085
0.00470703
0.00492056
0.00502473
0.00493206
0.0047944
0.00473634
0.00477084
0.00481537
0.0048608
0.00490179
0.00492343
0.00486921
0.00458899
0.00430394
0.00272368
0.0027597
0.00135578
0.0015058
0.00173762
0.00179461
0.00194875
0.00193895
0.00152326
0.00118709
0.00133962
0.00125277
0.00223962
0.00246341
0.00273329
0.00270671
0.00146837
0.00150614
0.00156502
0.00176497
0.00164011
0.0015859
0.003935
0.00376473
0.00393679
0.00483261
0.00416256
0.00287216
0.00314802
0.00437971
0.00462014
0.00279243
0.00209322
0.00232312
0.00294322
0.00433175
0.00438672
0.00416909
0.0041456
0.00302567
0.00371818
0.00447522
0.00435408
0.00339297
0.0023383
0.00174067
0.000843875
0.00160519
0.00137239
0.00336738
0.00372738
0.0036852
0.00403083
0.0042815
0.00432524
0.00420392
0.00372579
0.0038003
0.00383831
0.00437536
0.00439631
0.00371837
0.00313716
0.00254566
0.00256908
0.00261953
0.00290345
0.00363562
0.00342529
0.00300188
0.00291039
0.00284702
0.00267741
0.00241564
0.00211865
0.00213352
0.00198591
0.00192199
0.00303015
0.00403394
0.00475716
0.00489378
0.00494304
0.00486677
0.00483184
0.00469311
0.00462113
0.00401426
0.0051255
0.00541748
0.00522855
0.00526813
0.00530186
0.0053431
0.00534469
0.00524473
0.00450612
0.00269055
0.00175722
0.00198347
0.00214078
0.00200995
0.00199884
0.00213073
0.00202202
0.00177613
0.00287776
0.00281292
0.00449836
0.00509502
0.00520342
0.00520873
0.00518703
0.00516889
0.00517493
0.00544681
0.00532379
0.00540068
0.00569127
0.00569904
0.00576845
0.00541602
0.00534698
0.00530265
0.00527282
0.00522446
0.00509587
0.00450924
0.00437169
0.00496486
0.00511808
0.00518614
0.00523323
0.00528924
0.00536245
0.00557421
0.00573132
0.00579271
0.0055568
0.00546767
0.00534007
0.00515966
0.00511722
0.00510931
0.00510572
0.00508176
0.00495074
0.00435775
0.00280173
0.0028709
0.00170776
0.00171877
0.00197963
0.00207905
0.00204175
0.00189069
0.00184333
0.00318105
0.00362055
0.00384837
0.00414972
0.00396455
0.00394219
0.00450531
0.00435952
0.0038851
0.00404402
0.00362647
0.00345222
0.00334634
0.00336632
0.00176244
0.0019019
0.00198399
0.00195126
0.00186579
0.00166427
0.00152615
0.00278551
0.0027652
0.00272977
0.00162264
0.00158699
0.00186972
0.00181564
0.00166083
0.00141567
0.0015521
0.00239772
0.00268188
0.004159
0.00430811
0.00461019
0.00492963
0.0050502
0.00508263
0.00510247
0.00512453
0.00517302
0.00523033
0.00524701
0.00524518
0.00528669
0.00527688
0.00527913
0.00525293
0.00522217
0.00518567
0.00514617
0.00508065
0.0049453
0.00462093
0.00430281
0.00485101
0.00489577
0.0049869
0.00508081
0.00512035
0.00512572
0.00510578
0.00506695
0.00502075
0.00496838
0.00496695
0.00511564
0.00515266
0.00517819
0.0051622
0.00514354
0.00513724
0.00511408
0.00507741
0.0049841
0.00489043
0.00485114
0.00477029
0.0048971
0.00495327
0.00496099
0.00500825
0.00508447
0.00510686
0.00510695
0.00506962
0.0050382
0.00499681
0.00492817
0.0048353
0.00453405
0.00459661
0.00467724
0.00478313
0.00488518
0.00496777
0.00501476
0.00501943
0.00497459
0.00494432
0.00494583
0.00490419
0.00492566
0.00494754
0.00492158
0.0049173
0.00491894
0.00485986
0.0047551
0.00461027
0.00445797
0.0043342
0.00427491
0.00417471
0.00450511
0.00463962
0.00475767
0.00486118
0.00495366
0.00504589
0.00507274
0.00506127
0.00500527
0.00497366
0.00497293
0.00492543
0.00492243
0.00496826
0.0049695
0.00499558
0.00504293
0.00503082
0.00496515
0.00479118
0.0046217
0.0044733
0.00433
0.00417574
0.00415598
0.00422408
0.00415957
0.00420907
0.00435214
0.00453567
0.00469595
0.00480133
0.00483635
0.00486853
0.00491429
0.00491042
0.00488326
0.00486736
0.00480561
0.00475126
0.00468501
0.00454366
0.00436655
0.00421352
0.00417097
0.00425967
0.00434236
0.00426281
0.00394711
0.00410667
0.00425867
0.00440811
0.00461863
0.00486058
0.00496357
0.00500065
0.0049767
0.00495817
0.00495612
0.00491268
0.00489665
0.00493676
0.00493981
0.00495876
0.00498911
0.00496095
0.00487822
0.00458263
0.00422763
0.004056
0.0039536
0.00381932
0.0042835
0.00437385
0.00426728
0.00419484
0.00430684
0.00443412
0.00456653
0.00465542
0.00469198
0.00474451
0.00481346
0.00484739
0.00479899
0.00474167
0.00467174
0.00463611
0.00463748
0.00461809
0.00453424
0.00443233
0.0043092
0.00445343
0.00453763
0.00445563
0.00402777
0.00409434
0.00419987
0.00426163
0.00459547
0.00488207
0.0049449
0.00494432
0.00491269
0.00489231
0.00489274
0.00486729
0.00481898
0.0048105
0.00480673
0.00486441
0.00494023
0.00498815
0.00501433
0.0048012
0.00440317
0.00433213
0.0041431
0.00405863
0.00451543
0.0045663
0.00446078
0.00436413
0.0045783
0.00466786
0.00469051
0.00466887
0.00461736
0.00458405
0.00464356
0.00473783
0.00466704
0.00436289
0.00409341
0.00423267
0.00426853
0.00426006
0.0042038
0.00410717
0.00389349
0.00434897
0.00479252
0.00482735
0.00434939
0.00435646
0.00422703
0.00393927
0.00432597
0.00452612
0.00456741
0.00454463
0.0044712
0.00429944
0.00454085
0.00475363
0.00471239
0.00426591
0.00276849
0.00280629
0.00282579
0.00282791
0.00279103
0.00278058
0.00274014
0.00271906
0.00265625
0.00259223
0.00253139
0.00269862
0.00284127
0.00303469
0.00305067
0.00313081
0.00299738
0.00283812
0.00265152
0.00206739
0.00262324
0.00312956
0.00332628
0.00357852
0.00363067
0.00417996
0.00439239
0.00450451
0.00441419
0.00354272
0.00300515
0.00240181
0.00156219
0.000973562
0.0011428
0.00118872
0.00124743
0.00152522
0.00282094
0.00143707
0.00199076
0.00155692
0.00267788
0.00141658
0.000888124
0.000589723
0.000753255
0.00089526
0.000903515
0.000864883
0.000721266
0.000566099
0.000578635
0.00053905
0.000572711
0.000515881
0.000591185
0.000553212
0.000772068
0.00115792
0.00131615
0.00134561
0.00108772
0.00122687
0.00102508
0.00118222
0.00105572
0.00115036
0.00110335
0.00134921
0.00147847
0.00141529
0.00141903
0.00124163
0.000868318
0.00100655
0.000790641
0.000949318
0.000726252
0.000937621
0.000803841
0.0010444
0.00107656
0.00107342
0.0010335
0.000789572
0.000936597
0.000737407
0.000906442
0.000742899
0.00079234
0.000660015
0.000958076
0.00097621
0.000899071
0.000959405
0.00107872
0.00115832
0.00127622
0.00120491
0.00137207
0.00132263
0.00133823
0.00126714
0.00123131
0.00120323
0.00120574
0.00118599
0.00119256
0.00123109
0.00123306
0.00123802
0.00127732
0.00125891
0.00122885
0.00121079
0.00107588
0.000868362
0.00151299
0.00156026
0.00158352
0.00158325
0.00154776
0.00153046
0.00147764
0.00146363
0.00141774
0.00139086
0.00132918
0.0012786
0.0012208
0.00137282
0.000768197
0.000872208
0.000920727
0.000947975
0.000966879
0.0009755
0.000982433
0.000976809
0.000964558
0.000940655
0.000932468
0.000906455
0.00115945
0.00131857
0.00137813
0.00139385
0.00130625
0.00124379
0.00272059
0.00329326
0.0050092
0.00511959
0.00384339
0.00383264
0.00132717
0.00139954
0.000956368
0.00134379
0.00138543
0.00137121
0.00129532
0.000934376
0.00140287
0.000977563
0.00131912
0.0009909
0.00122874
0.00101564
0.00144821
0.0018464
0.00178252
0.00161413
0.00110619
0.000921163
0.00092357
0.000788756
0.000863593
0.000707775
0.000866567
0.000731431
0.0010838
0.00153597
0.00169987
0.001734
0.00136723
0.00188628
0.00141831
0.00205335
0.00163037
0.00201047
0.00161314
0.00186632
0.00230905
0.00231919
0.00226397
0.00182461
0.00146231
0.00164137
0.00145416
0.00167471
0.00242068
0.00158631
0.00240678
0.000993992
0.00135472
0.00139617
0.00137683
0.00129798
0.000874216
0.00222704
0.00117783
0.00209874
0.00135966
0.00218408
0.00158607
0.00210323
0.00251681
0.00263339
0.00262474
0.00214133
0.0019322
0.00199939
0.00159708
0.00191643
0.0014258
0.00206854
0.00117065
0.00152021
0.00168119
0.00176958
0.00177671
0.00146031
0.00288319
0.00181039
0.00273232
0.00190003
0.00243398
0.00195083
0.00213355
0.00251941
0.00250349
0.00248226
0.00210477
0.00170308
0.00224823
0.00160357
0.0478873
0.110559
0.0440413
0.111761
0.0506435
0.0718709
0.070811
0.0709442
0.0711964
0.0534774
0.116533
0.137677
0.143595
0.145367
0.144306
0.233189
0.190163
0.285699
0.185188
0.108979
0.0472711
0.0651571
0.168145
0.277667
0.416659
0.528635
0.360272
0.372884
0.237946
0.234571
0.22081
0.178589
0.109386
0.0548921
0.00939204
0.0102714
0.014676
0.0195315
0.0154113
0.00945349
0.00186838
0.00192844
0.00197245
0.00200037
0.00199452
0.00195349
0.00198577
0.00187605
0.00176433
0.0019733
0.00215119
0.00231578
0.00272767
0.00301424
0.00271743
0.00297822
0.00315589
0.00330026
0.00341931
0.00359697
0.00379723
0.00397348
0.00398285
0.00364968
0.00311144
0.00253067
0.00212606
0.00201378
0.00189081
0.00166741
0.00152518
0.00142726
0.0013806
0.00136155
0.00139956
0.00152993
0.00164334
0.00168317
0.00165045
0.00162008
0.00159363
0.00141903
0.00165925
0.002276
0.002293
0.0039286
0.00452657
0.00462073
0.00462732
0.00410062
0.00261913
0.00262504
0.00263858
0.00268932
0.00270011
0.00270804
0.00270555
0.00269727
0.0026818
0.00265339
0.00263882
0.00259613
0.00255974
0.00246761
0.00247165
0.00250293
0.00252795
0.00248599
0.00249577
0.00244407
0.00319792
0.0042659
0.00479933
0.00501535
0.00520091
0.00504778
0.00699918
0.00599342
0.00420831
0.00413631
0.0040847
0.00484678
0.00487881
0.00440049
0.00441809
0.00403689
0.00252114
0.00251643
0.00251812
0.00269445
0.00274774
0.0028391
0.00286461
0.00288541
0.00289867
0.00289068
0.00288825
0.00286099
0.00284133
0.00277617
0.0027546
0.00274525
0.00151359
0.00165205
0.00171422
0.00172616
0.00175227
0.00174225
0.00173308
0.00171251
0.00169981
0.00167154
0.00163946
0.00159044
0.00149488
0.00136142
0.00149786
0.00254037
0.00253927
0.00413678
0.00466151
0.00469661
0.00523459
0.00496928
0.00470706
0.00504934
0.00454808
0.00450981
0.00408716
0.00253919
0.00257355
0.00152835
0.00151544
0.00177269
0.00172421
0.00184288
0.00189352
0.00189855
0.00192439
0.00194855
0.00197916
0.00202849
0.00204245
0.00200902
0.00200223
0.00188561
0.00162932
0.00164842
0.00194344
0.00203883
0.00189415
0.00186246
0.00184892
0.00180429
0.00177026
0.00173788
0.0017609
0.00189651
0.00189414
0.00186006
0.00176977
0.00172298
0.00149287
0.00144193
0.00251921
0.00255639
0.00421874
0.00431544
0.00428863
0.00494883
0.00552949
0.00628625
0.00536651
0.00435739
0.00452259
0.00517114
0.00384933
0.00322532
0.0019166
0.00144351
0.00179875
0.00166659
0.00173762
0.00180047
0.00159889
0.00171835
0.00158857
0.0014436
0.00143532
0.00143362
0.00146871
0.00148359
0.00151031
0.00151395
0.00155022
0.0015466
0.00155041
0.0015692
0.00157639
0.0017416
0.00189144
0.00159254
0.00135052
0.00131678
0.00124357
0.00118438
0.00121341
0.00118451
0.00117727
0.00115574
0.00113613
0.00108428
0.00112991
0.00119913
0.00140296
0.00134273
0.00108517
0.000969474
0.000662549
0.000675886
0.000680555
0.000701385
0.000709081
0.000718501
0.000722035
0.000733741
0.000736037
0.000739749
0.000739465
0.000757316
0.000754716
0.000745947
0.000740345
0.000743885
0.000747201
0.000746594
0.00109327
0.00121716
0.00132861
0.00157764
0.00185576
0.00159775
0.0013547
0.00116845
0.000751177
0.000762427
0.000776268
0.000783445
0.000800024
0.000815163
0.000831987
0.000842597
0.000850511
0.000858815
0.000867574
0.000871039
0.000868849
0.000852035
0.000842123
0.00086362
0.000949397
0.000999247
0.0010632
0.0010874
0.00110801
0.0011183
0.0011131
0.00112481
0.00111165
0.00110988
0.00109098
0.00108299
0.0010753
0.00106567
0.00105358
0.00102381
0.00101383
0.00106678
0.00180545
0.00236022
0.00271474
0.00298803
0.00276463
0.00224531
0.00235634
0.00413982
0.00392074
0.00231288
0.0021603
0.00199481
0.00174419
0.00152855
0.00184951
0.00211024
0.00230749
0.00248051
0.00263868
0.002746
0.00288417
0.00306465
0.00338376
0.00342354
0.00312275
0.00252974
0.00213997
0.001997
0.00192866
0.00181103
0.00168266
0.00172511
0.00173776
0.00168627
0.00162236
0.00160453
0.00163138
0.0016662
0.00164646
0.00164575
0.00147033
0.00146973
0.00251149
0.00255715
0.00393374
0.00414494
0.00418554
0.00269001
0.0026535
0.00154985
0.00143961
0.00157054
0.0016306
0.00163418
0.00164114
0.00163328
0.00160491
0.00158431
0.00156009
0.00154042
0.00152278
0.00149231
0.00143388
0.00132451
0.00144286
0.00161761
0.00169009
0.00170926
0.00171857
0.00174569
0.00179034
0.00182578
0.00190843
0.00191612
0.00191511
0.00192166
0.00179576
0.00185165
0.00156701
0.00156448
0.00271184
0.00270398
0.00155338
0.0018342
0.00184707
0.00182646
0.00196672
0.00179964
0.00174278
0.00173428
0.0016609
0.00162192
0.00156955
0.00153834
0.00156803
0.00166752
0.00161388
0.00143036
0.00137714
0.0015457
0.0014881
0.00123463
0.0010549
0.00102606
0.000982286
0.00095573
0.00100186
0.00103799
0.00105859
0.00108466
0.00109234
0.00114012
0.00110902
0.00116328
0.00123363
0.0012897
0.00152958
0.00165784
0.00149768
0.00146905
0.00145087
0.00144994
0.00145471
0.00139476
0.00139083
0.00135983
0.00134452
0.00130375
0.00128539
0.00126203
0.00126606
0.00127919
0.00140624
0.00361514
0.00461045
0.00480181
0.00820769
0.00331621
0.00338513
0.00665129
0.00274552
0.00412987
0.00442433
0.00462384
0.00482792
0.00441856
0.00562853
0.00392304
0.00437253
0.00454841
0.00397317
0.00150078
0.00172893
0.00198318
0.00176131
0.00155505
0.00105895
0.00114047
0.00117712
0.0012071
0.00122627
0.00124797
0.00127104
0.00129278
0.0013079
0.00130792
0.00126783
0.00122475
0.0011259
0.00109299
0.00113515
0.00117869
0.00103484
0.00097432
0.000985664
0.00100165
0.00101055
0.00101228
0.00102196
0.00102445
0.00103982
0.00103135
0.00103896
0.00102101
0.0010297
0.00101657
0.000982183
0.000933531
0.000851183
0.000831188
0.00119732
0.00127517
0.00133951
0.00152083
0.00175682
0.0018751
0.00168101
0.00155074
0.00148858
0.00165131
0.00165319
0.00300904
0.00577491
0.00258411
0.00289197
0.00843449
0.00335442
0.0026049
0.00264375
0.00267124
0.00267516
0.00155444
0.00184071
0.00178438
0.00179251
0.00152059
0.00127696
0.00114534
0.001024
0.000694636
0.000692427
0.000697648
0.000708502
0.000711906
0.000681374
0.000681296
0.000677412
0.000675907
0.000661504
0.000657494
0.000645761
0.00063864
0.000621738
0.000612616
0.000596657
0.000594087
0.00062325
0.000696016
0.000841992
0.000933092
0.00106294
0.00108088
0.00120908
0.00298495
0.00346012
0.00477134
0.00473471
0.00746531
0.00466584
0.00352408
0.00318044
0.00465426
0.00481045
0.00445875
0.00603734
0.00417592
0.00277156
0.004245
0.00354416
0.00411784
0.00406414
0.00432033
0.00686403
0.00721115
0.00202535
0.00180459
0.0018973
0.00215327
0.00255721
0.00235877
0.00268529
0.002691
0.00208415
0.00131286
0.00417812
0.00504859
0.00408506
0.00492797
0.0075394
0.00302583
0.00295025
0.00260998
0.0021783
0.00197927
0.00195349
0.00217885
0.00260736
0.00652169
0.00697999
0.00648676
0.00648567
0.0058792
0.00641303
0.00798601
0.00793885
0.0070234
0.00656888
0.00682388
0.00427818
0.00261596
0.0030408
0.00337475
0.00450387
0.00464518
0.00979705
0.00333513
0.00367859
0.00373564
0.00499107
0.00484124
0.00853424
0.00363211
0.0039114
0.00515356
0.00689173
0.0126654
0.00464716
0.00488205
0.00701437
0.00712296
0.00651233
0.00471299
0.0042631
0.00463762
0.00349522
0.00341769
0.00291463
0.00429939
0.0057803
0.00458347
0.00445026
0.00378054
0.00338378
0.00344821
0.00358248
0.00297728
0.00293432
0.00338102
0.00252574
0.00244574
0.00257287
0.000716274
0.000367028
0.000375107
0.000384877
0.000392816
0.000401029
0.000406989
0.000414118
0.00041726
0.000417656
0.000418809
0.000442811
0.000438584
0.000424708
0.000385644
0.000439979
0.000698196
0.000698573
0.000439386
0.00038732
0.000695093
0.00110739
0.0013055
0.00154397
0.00156277
0.00134869
0.00116949
0.000720075
0.000708708
0.000429524
0.000501672
0.000544788
0.000483268
0.000539428
0.000500023
0.000529535
0.000535304
0.000495411
0.000492531
0.000494387
0.000490665
0.000481883
0.000471228
0.000458246
0.000448189
0.000442997
0.000439372
0.000430848
0.000356468
0.00033293
0.000402445
0.000644069
0.000644825
0.000603322
0.000566904
0.000535469
0.00052064
0.000516111
0.00051296
0.000521892
0.000538703
0.000543492
0.000548416
0.000590847
0.000571964
0.00061089
0.000573425
0.000612556
0.000574841
0.000528823
0.00044402
0.00045809
0.000739094
0.000746973
0.00120652
0.00137979
0.00156432
0.00157204
0.00175512
0.00184893
0.00156631
0.00162619
0.00186307
0.00173463
0.00154561
0.00155188
0.0013957
0.00139745
0.0012384
0.000774176
0.000763707
0.000479574
0.000465788
0.000555397
0.000545743
0.000606922
0.000649624
0.000649819
0.000647734
0.000632005
0.000626222
0.000550667
0.000539716
0.000540452
0.000524215
0.000520992
0.000544256
0.000595958
0.000701311
0.000848836
0.000923318
0.000953664
0.000913737
0.00081742
0.00060569
0.000545568
0.000947524
0.000980934
0.00177297
0.00421473
0.00198356
0.00371849
0.00268194
0.00066479
0.000740665
0.000944368
0.00105808
0.00114277
0.00119272
0.00109184
0.000912119
0.000686706
0.000566899
0.000843562
0.000729326
0.000822417
0.000718059
0.000929243
0.00107421
0.00103898
0.00104657
0.000884272
0.000720124
0.00076267
0.00068444
0.000754388
0.000631661
0.000759969
0.000685979
0.000861952
0.000870022
0.000851886
0.000807435
0.000614756
0.000645027
0.000541111
0.000587073
0.0005272
0.000544949
0.000516385
0.000602146
0.000693891
0.000665995
0.000663424
0.000545139
0.000427246
0.000471966
0.000408365
0.000462245
0.000359388
0.0004353
0.000364911
0.000472501
0.000487308
0.000490387
0.000488174
0.000398089
0.000468243
0.000571967
0.000599685
0.000604214
0.000575061
0.00044352
0.000686079
0.000618379
0.000754941
0.000652563
0.0007147
0.000650665
0.000758362
0.000971326
0.00101424
0.00102097
0.00082844
0.0008234
0.00150338
0.0835002
0.00135238
0.00159858
0.00164859
0.00164275
0.00135808
0.0013246
0.00164116
0.00121347
0.00171913
0.00108249
0.0018344
0.000699258