/*--------------------------------*- C++ -*----------------------------------*\
| =========                 |                                                 |
| \\      /  F ield         | OpenFOAM: The Open Source CFD Toolbox           |
|  \\    /   O peration     | Version:  v2012                                 |
|   \\  /    A nd           | Website:  www.openfoam.com                      |
|    \\/     M anipulation  |                                                 |
\*---------------------------------------------------------------------------*/
FoamFile
{
    version     2.0;
    format      ascii;
    class       surfaceScalarField;
    location    "250";
    object      phi;
}
// * * * * * * * * * * * * * * * * * * * * * * * * * * * * * * * * * * * * * //

dimensions      [1 0 -1 0 0 0 0];
oriented        oriented;


internalField   nonuniform List<scalar> 
50655
(
0.0025811
-0.00360062
-0.00142616
-0.0051376
0.00142859
0.00356478
-0.00338511
0.00395313
0.00442027
-0.00249365
-0.00285007
0.00308691
-0.00370078
-0.00379813
0.00264036
-0.0017551
-0.00486714
0.000780734
0.000241184
-0.00473517
0.00156432
-0.00176688
-0.00717225
0.00234954
-0.0104546
0.00279124
0.000392327
-0.0112795
-0.00342734
0.00414225
-0.0120362
-0.00482238
0.00547667
-0.0128996
-0.00562215
0.00638134
-0.02617
-0.00930107
0.0223776
-0.0486928
-0.028227
0.0501895
-0.048287
-0.0526968
0.0515938
-0.0311048
-0.0711092
0.053149
-0.00461663
-0.0779961
0.0507249
0.00778974
-0.0547284
0.0415106
-0.00175111
-0.0314891
0.040257
-0.0209879
-0.0217614
0.0402315
-0.0169032
-0.0512886
0.0464816
-0.00704429
-0.0552065
0.0447899
-0.0387683
0.0313949
-0.0411881
0.01882
-0.0167015
-0.0158184
-0.0756104
0.049746
0.0202439
-0.0797864
0.0432276
0.0305495
-0.0291523
0.0185397
0.0340501
-0.00383797
0.0364746
0.0178774
-0.0206244
0.0253255
-0.0179314
0.0288046
0.0164052
-0.0094918
0.0182429
0.00341707
-0.00137554
0.0142367
-0.00646065
0.00677769
0.00300477
-0.00541669
0.000146816
-0.00123148
-0.00538719
-0.00123382
0.00118593
-0.00631158
0.000241785
0.000665311
-0.00757791
0.000234034
0.0010157
-0.00872198
0.000113721
0.00101321
-0.00911917
-0.000229118
0.000609954
-0.00938837
-0.000646424
0.000899024
-0.00895168
-0.00107245
0.000619477
-0.0083284
-0.00153872
0.000898762
-0.00710371
-0.00198493
0.000743811
-0.00567893
-0.00244734
0.0010057
-0.00380357
-0.00274744
0.000855904
-0.00197055
-0.00293922
0.00108923
0.000934097
-0.00292224
0.000669096
-0.0025002
0.00273955
-0.00555132
0.00501932
0.00115932
-0.0109868
0.00475803
0.00062092
-0.0131028
0.00517818
-0.00312911
-0.0129746
0.0053935
-0.00558871
-0.00545016
0.00466279
-0.0122437
0.000499372
0.00560795
-0.0115992
0.000598221
0.0035737
-0.00369819
-0.00150649
0.00208712
-0.00295753
0.00214156
-0.000707657
-0.0045189
0.00218839
-0.000643171
-0.00583301
0.00234624
-0.00104851
-0.00709966
0.00230286
-0.00105117
-0.00860154
0.00249501
-0.00100715
-0.0101681
0.00258112
-0.00102793
-0.011464
0.00237312
-0.00109042
-0.0123662
0.00201078
-0.00112153
-0.0128325
0.00159641
-0.00114319
-0.0131483
0.00142961
-0.00112701
-0.0137495
0.00155623
-0.00096928
-0.0139553
0.00111332
-0.000922636
-0.013661
0.000888991
-0.0011987
-0.0136514
0.000776074
-0.000801307
-0.0133782
0.000821061
-0.00111033
-0.0131323
0.000896017
-0.00115789
-0.0129888
0.000839038
-0.000998286
-0.0127139
0.000568984
-0.000859501
-0.0121754
0.000119917
-0.000673864
-0.0112744
-0.00045652
-0.000459756
-0.0101536
-0.000916997
-0.000219139
-0.00883613
-0.00101305
-0.000319147
-0.00738781
-0.000763626
-0.000698539
-0.00758452
-0.000695125
0.000879831
-0.016391
0.000814986
0.00796495
-0.0211698
0.000375668
0.00434257
-0.0226222
0.00112801
0.000259096
-0.0426371
0.0163283
0.00356909
-0.054644
0.0054996
0.00620899
-0.0294983
-0.0164436
-0.00900966
-0.0131343
-0.0150185
-0.00147762
-0.0112809
-0.00401863
0.00208719
-0.0100335
-0.00311614
0.00177866
-0.00811615
-0.00346948
0.00145067
-0.00474163
-0.00332767
-0.000142119
-0.00320656
-0.00162037
-0.00448501
0.00461978
-0.00343622
-0.00271828
0.00674703
-0.00862739
0.000856601
0.0062281
-0.00993517
0.00613822
0.00592199
-0.0113484
0.0148753
0.00884263
-0.0177608
0.0284425
0.013846
-0.0276957
0.0249362
0.0197007
-0.0164758
0.0166585
0.00643454
0.0016585
0.00815492
4.65795e-05
0.00830964
-0.000846423
-0.00382456
0.012691
-0.00437526
-0.00670911
0.0101216
-0.00756192
0.00543875
0.00432237
0.00100944
-0.0102
0.00195379
-0.00811121
0.003657
-0.005255
-0.00415576
0.0074142
-0.0125801
0.00197519
0.00526364
-0.0143621
0.00572399
0.00235566
-0.0383779
0.0271126
0.0232857
-0.00726329
-0.01326
0.0372484
-0.00965857
-0.0394392
-0.00475939
0.00932798
-0.00912042
-0.000500589
0.00899241
-0.00745928
0.00270528
0.00961451
-0.00671469
0.00461583
0.00963269
-0.00490613
0.00715711
-0.001343
0.0113056
-0.00503143
-0.00270371
0.0124843
-0.00195576
-0.00244152
0.00882551
-0.000390461
-0.00422349
-0.00201991
-0.0211223
-0.00221053
0.0295921
-0.0106572
-0.0143572
-0.00175284
-0.00711385
-0.0025777
-0.0073248
0.0159121
0.00122687
-0.0102661
0.0219687
0.00103666
-0.00900231
0.0325543
0.000231565
-0.0132045
0.0833257
-0.00231674
-0.0359818
0.0468601
-0.00190491
0.0455575
-0.0023567
0.00752314
-0.00318523
0.0384776
0.00387433
0.0218309
0.00197384
0.0232436
-0.000311746
0.0113267
0.0139381
0.0062557
-0.00800005
9.2996e-05
0.0068135
0.00522014
-0.0015016
0.00732389
0.00819154
-0.00154091
0.00712557
-0.0150883
0.00798391
-0.00212192
0.0073729
-0.0153201
0.0085084
-0.00128098
0.00743952
-0.0167204
0.00841947
-0.0013241
0.00742337
-0.0160201
0.00861904
-0.000642478
0.0072905
-0.0166081
0.00861542
-0.000269532
0.0070396
-0.0160022
0.00856966
0.000702393
0.00624333
-0.0154717
0.00823789
0.00577235
0.00442558
-0.0169668
0.00745675
0.00149305
-0.00415702
0.0056921
0.00272989
0.000808318
0.00538774
-0.000284412
0.000632084
0.00714816
-0.000739364
0.000787943
0.0080246
-0.00115314
0.000945542
0.00832647
-0.00120654
0.00128307
0.00839064
-0.00131804
0.00150728
0.00856471
-0.00136267
0.00150892
0.00871056
-0.00135227
0.00127119
0.00872176
-0.00137078
0.00094152
0.00883718
-0.00119551
0.00731179
-0.000262296
0.00935938
-0.00201009
-0.000815107
0.0110373
-0.0018552
-0.000851171
0.0123209
-0.00155173
-0.00066472
0.0131059
-0.000314945
-0.000942297
0.0135357
0.000849973
-0.00117556
0.0137121
0.00170758
-0.00133088
0.0137095
0.00223655
-0.00141115
0.0137668
0.00224957
-0.00142746
0.0137205
0.00182506
-0.000974129
0.0137269
0.00134644
-0.000592833
0.0139091
0.00122351
-0.000532315
0.013299
0.00113829
0.000569919
0.0124505
0.00243029
0.000227086
-0.000266812
0.0126935
-0.00041145
0.0024362
-0.000851482
0.0123567
-0.000235851
0.00279999
-0.000644126
0.0114834
-7.24525e-05
0.00311367
-0.000170308
0.0102199
5.11118e-05
0.000294169
0.00327813
0.00862012
0.000720092
0.00331587
0.000131397
0.00687384
0.00103885
0.00304957
0.000139046
0.00586872
0.000962081
0.00224142
8.95131e-05
0.00442453
0.00462243
-0.000848391
0.00286984
0.00427961
-0.000552739
0.00142174
-0.000503273
0.00407652
0.00389779
-0.000405855
0.00560858
-0.000514633
-0.00121229
0.00683392
-0.000409108
-0.000833086
0.00780768
-0.000607277
-0.000382962
0.00817402
-0.000472454
8.93938e-05
0.00823292
-0.000605976
0.000530609
0.00754588
-0.000258305
0.000928757
0.00657165
-0.000294694
0.00125235
0.00475796
0.000291001
0.00150561
0.0020764
0.00112851
0.00153591
-0.00169318
0.00205604
0.0016956
-0.00445267
0.000571785
0.00216972
-0.00597578
-0.00087156
0.0023754
-0.00725557
0.000616404
0.000641446
-0.0136949
0.000498009
0.00589643
-0.0247466
-0.00655937
0.0174953
-0.0309059
-0.0161076
0.0221016
-0.039082
-0.0260063
0.033916
-0.0315827
0.0235852
0.0161852
-0.0383502
0.00916648
0.0258532
-0.0166409
0.00690442
-0.00456841
0.00436132
-0.0321843
0.0260554
0.00151161
-0.0146686
-0.02331
0.00575911
-0.0374451
0.00608923
0.0411083
-0.0573096
-0.000750733
0.0289234
-0.0498715
0.0151257
0.0125678
-0.00998275
0.0169363
-0.0102943
0.0109002
-0.00247416
0.0188742
0.00789485
0.0112438
-0.0125631
0.0135183
0.00526699
-0.0061881
0.00130827
0.0112299
0.00484749
0.00102446
0.00267863
0.00128707
-0.00104158
0.00153897
0.00273145
-0.00489141
0.00382369
0.00206064
-0.00545355
-0.000509372
0.00217907
-0.00958903
0.00198162
0.00242438
-0.00823511
-0.00369398
0.00202527
-0.0118881
0.00195474
0.00142005
-0.0089229
-0.00418774
0.000596775
-0.0112591
0.00215054
-0.000306597
-0.00733304
-0.00321047
-0.00134249
-0.00817085
0.00228758
-0.00187905
-0.00441389
-0.00172214
-0.00256869
0.00129595
-0.00256106
0.00396397
0.0117754
-0.010617
0.0113824
0.0065937
-0.00940183
0.0128101
0.00895866
-0.00506256
0.0097932
0.0105732
-0.00244789
0.00402554
0.00954046
0.000932729
0.0127735
-0.00252716
-0.00214311
0.000882295
0.0151808
-0.00581854
0.00444508
-0.00325645
0.00214722
0.0150962
-0.00743351
-0.00306308
0.00327464
0.00723328
0.0104671
-0.00786714
-0.00267415
0.00330107
0.0117951
0.0017465
-0.00670149
-0.0019799
0.0011736
0.0161434
-0.000987907
-0.00430747
0.00751986
-0.000443106
-0.00524712
0.0110472
-0.00011848
-0.0103431
0.0126082
-0.00899923
-0.01423
-0.0141349
0.00841985
0.00569955
-0.0240946
0.00411655
-0.01852
0.00623353
-0.0164557
-0.0114057
0.00927224
0.00796413
0.00962547
-0.0340919
-0.0237295
0.00756377
0.011194
0.00753628
-0.0100184
-0.03253
-0.00914539
0.00776762
-0.0016207
6.20724e-05
0.00774377
-0.00656907
-0.0104454
0.0114558
-0.00761894
-0.0141324
0.0105822
0.0105005
-0.0008859
-0.00882634
0.0103122
-0.00146212
0.00791203
-0.00789431
0.00403503
0.00104871
0.00449572
-0.00375856
0.0060548
-0.00634732
0.0139803
-0.0121785
-0.00359075
0.0108167
-0.0170613
-0.00263764
0.00570779
-0.0169935
-0.00102087
-0.00115758
0.0020042
-0.0082205
0.0082778
0.0097285
-0.00947725
0.0106974
0.0114051
-0.00494616
0.0112911
0.0120545
-0.00215525
0.010819
0.00412508
-0.0107451
0.0111897
0.00287044
-0.00897822
0.0123358
-0.00213161
-0.00483944
0.0118959
-0.00471324
0.00983836
-0.00604098
0.00211845
0.00394959
0.00105998
0.00778934
0.00779464
-0.0016569
0.0108326
0.00898268
0.000222741
0.00775365
0.00632997
-0.00912399
0.0101864
-8.17624e-05
-0.00709006
0.00363661
0.00322369
0.000206062
0.0016552
-0.00124616
0.00498563
-0.00672309
-0.00151337
-0.00231236
0.0187497
-0.00338107
-0.0195661
0.0169354
-0.00137092
-0.00182155
-0.0163378
-0.0118676
-0.000766927
0.00320871
-0.00871166
-0.0106268
-0.0130541
0.00644834
-0.00595197
-0.00495722
0.000840725
0.00134342
0.000380708
-0.00208953
-0.0042456
-0.000992031
0.00396096
-0.00258981
-0.000415374
0.00179474
-0.00237278
0.00129754
-0.00380463
0.00672299
0.000677709
-0.0110724
0.000646187
-0.00347933
0.0103823
-0.0034621
-0.00447763
-0.0188894
0.0138623
-0.0117831
-0.0193954
-0.0117453
0.00784818
0.00431101
-0.0265952
-0.0153413
0.00257576
0.00931714
0.010537
-0.035575
-0.0164142
0.0130645
0.00182429
0.010403
-0.0422849
-0.0145726
0.00982914
7.36895e-05
0.0112764
-0.0436522
-0.0107321
0.0032282
-0.00154333
0.0103101
-0.0431365
-0.00611757
-0.00151604
-0.00185277
0.00886075
-0.0394698
-0.00330485
-0.00449784
0.00404188
-0.0347285
-0.00114637
-0.00711239
0.00646832
-0.00305898
-0.0321727
0.00138044
-0.00611954
0.00559798
-0.0035166
-0.029132
0.00269758
0.00447072
-0.00400295
-0.00630879
-0.0289378
0.00210371
0.00395778
-0.00357703
-0.00279076
-0.0298494
0.00023947
0.00179756
-0.00123253
-0.027797
-0.0015592
0.00134684
-0.00195364
-0.0230114
-0.00259802
0.00152561
-0.00380949
-0.0302088
0.00168736
0.0226589
-0.0172245
-0.0593675
0.0293394
-0.0128739
0.0123199
0.00608555
-0.019946
-0.00127801
-0.0131741
-0.0252207
-0.00926528
-0.0122674
-0.000460027
-0.00877813
-0.0111733
0.000645345
0.000278706
-0.00944502
-0.000549265
0.000503061
-0.00581614
-0.00373832
0.00144981
-0.00311397
-0.00398506
0.00104238
-0.00453742
-0.000266603
-0.00445894
0.000807915
-0.000933643
-0.00684437
0.0020528
0.000269444
-0.010787
0.00221103
0.00165198
-0.0131002
0.000819642
0.00141494
-0.0133683
-0.000351344
0.00054971
-0.0130785
-0.00174883
0.00140499
-0.0236528
0.00142436
0.00907523
-0.0568612
0.017513
0.0154887
-0.10131
0.00884997
0.0350261
-0.117971
-0.00588526
0.0218524
-0.127327
-0.0116095
0.0201906
-0.133756
-0.0165109
0.0221054
-0.137411
-0.0222068
0.0249767
-0.138736
-0.0272826
0.0276969
-0.138654
-0.0307727
0.0297665
-0.137836
-0.0329279
0.0311855
-0.136375
-0.0341735
0.0317958
-0.134227
-0.034815
0.0317658
-0.130388
-0.0353177
0.0306071
-0.122419
0.0278215
-0.0366243
-0.103274
0.0207898
-0.0406946
-0.053455
0.00330664
-0.053744
-0.0226134
-0.00123141
-0.0298292
-0.012381
-0.00428513
-0.00602451
-0.0121029
0.00198973
-0.00232287
-0.011203
0.0043282
-0.00529894
-0.00876714
0.00384272
-0.006359
-0.00425185
0.00400878
-0.00860843
-0.00478744
0.00347594
-0.00301157
-0.00805432
-6.13796e-05
0.00327744
-0.00781592
0.00235889
-0.00266848
-0.00893101
0.00102729
-0.0138003
0.00698047
-0.00220975
-0.0166329
0.00714832
-0.00442569
-0.0189093
0.00764546
-0.00547172
-0.0237653
0.00700484
-0.00225355
-0.0533036
0.0187367
0.0106052
-0.0979136
-0.00809158
0.0521279
-0.110908
-0.031679
0.0439525
-0.112372
-0.0418285
0.0424817
-0.107678
-0.0476684
0.0421527
-0.0988949
-0.0521325
0.0424922
-0.0862021
-0.0543446
0.0408272
-0.0692275
-0.0558393
0.0380448
-0.0494759
-0.0568133
0.0362958
-0.0237855
-0.0481086
0.0217815
-0.0376138
0.0133896
-0.0534609
0.0233132
-0.00793324
-0.0592822
0.0255573
-0.0202387
-0.0593598
0.0268874
-0.0273361
-0.0503578
0.0266621
-0.0361903
-0.0402939
0.0245367
-0.0351034
-0.0231174
0.016621
-0.0342647
0.00928313
-0.0328392
0.0270712
0.0381746
-0.0565994
0.0508327
0.0495491
-0.0740765
0.0746996
0.0496449
-0.0743316
0.0949021
0.049878
-0.0709049
0.110683
0.0470859
-0.0637235
0.118942
0.0397641
-0.0488456
0.116935
0.0329865
-0.0317896
0.101253
0.030099
-0.0151371
0.0545062
0.0398853
0.0062879
0.0254753
0.0250577
0.00377684
0.0213675
0.00418355
-0.000180435
0.0194577
0.000594332
0.00121289
0.0158813
0.000302033
0.00316451
0.00914129
-0.000246262
0.00688771
-0.000921895
0.00997541
-0.000960703
-0.00972179
0.00966485
0.000731489
-0.0131089
0.0113077
0.00257772
-0.014239
0.0122696
0.00408655
-0.0135709
0.0119265
0.00433852
-0.0191605
0.0187307
0.00786201
-0.0286264
0.0248178
0.00383517
0.0236178
-0.0198747
-0.000188374
0.016897
-0.0130527
-0.000389566
0.00843397
-0.00836844
-0.000550925
0.00774329
-0.00770513
-0.00109325
0.00737087
-0.00693753
0.00631466
-0.0064764
0.00343734
0.00545795
-0.000284282
0.00321238
0.0061935
0.00133028
0.00330482
0.00591756
0.00165555
0.00396637
0.00478525
0.00290894
0.0103161
0.0116069
-0.00116531
0.019405
-0.00901448
-0.000119889
0.00908504
-0.00421017
0.0144895
-0.0230606
-0.0114177
0.0434935
-0.0155268
-0.0057535
-0.00185884
-0.000980044
0.00358431
0.00486744
-0.00944752
0.00605309
-0.00259942
0.00361156
-0.00178357
-0.00826846
0.000433734
-0.0091791
-0.0102533
-0.0126399
0.018443
-0.00485449
-0.0307437
0.00323356
0.00366921
0.00405991
-0.0175988
-0.0496594
0.00589454
0.0101512
0.000824758
-0.0581508
-0.0156929
0.0262006
-0.00424077
-0.0204012
0.00616872
-0.00326243
-0.0202915
0.00560977
-0.0022793
-0.0206531
0.0053064
-0.000904253
-0.0190338
0.0044373
-0.015
0.00403095
-0.0211375
0.00227324
0.0040415
-0.021951
-0.00133845
0.00263208
-0.0178905
8.5152e-05
0.00545223
0.00165005
-0.0465857
0.0354535
0.00831921
0.00804909
-0.115041
0.035099
0.0514845
0.020866
-0.12511
0.0473572
-0.00804431
-0.125925
0.0548393
-0.0219047
-0.118061
0.0645989
-0.0335752
-0.103094
0.073242
-0.0420045
-0.083988
0.0769525
-0.0470486
-0.0614564
0.0747047
-0.0484306
-0.036671
0.0743549
-0.0504051
0.0504959
-0.0329386
0.058917
0.0458577
-0.0303496
0.0684906
0.0517948
-0.0353313
0.0687895
0.0529761
-0.0270126
0.063361
0.0507163
-0.020338
0.0439956
-0.00599745
-0.0882253
0.0718861
0.00270745
-0.0980272
0.0755101
-0.0159005
-0.099527
0.0799462
-0.0264127
-0.0882065
0.0791432
-0.0396111
0.0718255
-0.0407281
0.0880212
0.0943505
-0.0367324
0.0976398
0.101576
-0.0329809
0.0945039
0.10103
-0.018877
0.0819285
0.0960004
-0.0088058
0.090312
0.00682402
-0.0812705
0.103386
0.0129845
-0.0944868
0.110453
-0.00215788
-0.0983861
0.11591
-0.0119418
-0.0905013
0.116773
-0.0240424
0.111301
-0.0314205
0.0870538
0.12416
-0.0276075
0.0947036
0.128198
-0.0200521
0.091273
0.126355
-0.00799106
0.0783395
0.120275
0.0021757
0.112051
0.0166596
-0.0724694
0.116621
0.0193541
-0.0844208
0.125369
0.00591931
-0.0867698
0.131948
-0.00422424
-0.0788644
0.134347
-0.0150335
0.131287
-0.0223296
0.0682596
0.131998
-0.0150677
0.0761446
0.134725
-0.00923997
0.0750434
0.131125
0.000947498
0.0640948
0.12472
0.0106607
0.115433
0.022587
-0.0526028
0.105722
0.0297806
-0.0646494
0.116281
0.0195428
-0.0642173
0.119869
0.00986005
-0.0562835
0.125301
0.000526929
0.126203
-0.00407415
0.0352015
0.0191471
0.0613649
0.0446495
0.0514809
0.0946938
0.0134526
0.0547726
0.0924505
0.0232523
0.0357545
0.0482814
0.045201
0.0408777
0.0444978
0.0365013
0.0514941
-0.0123025
0.0268328
0.0153792
0.014372
-0.018737
0.0276527
0.0150815
-0.0152962
0.0311239
0.0135134
-0.0135549
0.0290426
0.014208
-0.0400124
0.0275608
0.0407753
-0.000818781
0.0248574
-0.0284203
-0.00828873
0.038506
0.00579954
-0.0370357
-0.00681128
0.0299689
0.00548228
-0.0371051
-0.00460062
0.0290911
-0.0365615
0.00508986
0.0258843
0.00346815
0.00382121
0.00514857
0.00493677
0.00715172
0.00682238
0.0076126
0.0090442
0.0089344
0.0083956
-0.00415708
-0.019951
0.0156843
0.00266625
-0.000605757
0.000595783
0.00624795
0.00289942
0.00029941
-0.000536621
0.000356522
0.00409023
-0.00155219
-0.00243871
-0.00132509
0.00411615
-0.00165169
-0.00049125
0.00117413
0.0105974
0.012092
0.0316194
-0.0532224
0.00538702
0.0178047
-0.00424839
-0.00730247
0.056847
0.0012424
-0.0150644
0.00284653
0.00351659
-0.00655173
0.00504832
0.00398915
-0.00620565
-0.0222119
0.00971603
0.017504
-0.00938948
-0.012549
-0.000317044
0.0179454
-0.00257085
0.0239164
-0.00790628
0.046282
-0.0127192
0.021532
0.0766434
-0.0246682
-0.0327294
0.00454857
0.00706158
0.0297789
0.00209348
-0.0175614
0.0080116
0.0136675
-0.00405309
-0.0106568
0.00844642
0.0149736
-0.00404877
-0.0114662
0.0075525
0.0144533
-0.00237284
-0.0112931
0.00611794
0.0128093
-0.0104452
-0.00102815
0.00366954
0.0105463
-0.00880871
0.000623524
0.00874692
-0.00791618
0.00275838
0.00845127
-0.00315125
0.00337618
0.00805026
-0.00279975
0.00314569
0.0152156
-0.00809266
0.000850056
0.0393282
-0.0159646
-0.00836675
0.0729236
-0.038907
0.00469298
0.0830196
-0.0276304
0.016775
0.0845918
-0.0234881
0.0210821
0.0820498
-0.0202402
0.0219096
0.076882
-0.0158338
0.0200988
0.070002
-0.00876309
0.0147247
0.0606828
0.00161721
0.00677399
0.0421983
0.0173248
0.000231841
0.0151001
0.0412392
-0.015059
-0.00510371
0.0551558
-0.0358544
-0.00166891
0.0503284
-0.0546351
0.0122323
0.0392496
-0.0539838
0.0153586
0.026413
-0.0302977
0.00941776
0.0286782
-0.0233547
0.00199566
0.0112094
-0.00400556
0.000293342
0.00372958
-0.00210422
-0.000551296
0.00172992
-0.000939864
-0.0021632
0.00322778
-0.0016854
0.00312967
-0.00228374
0.00330485
0.00518768
-0.00149482
0.000384028
0.0065343
-0.000461122
0.00226128
-0.000168901
0.00653922
-0.000577012
0.00187512
0.00588087
-0.00392616
0.0025966
0.00584309
0.00613021
0.000939942
0.011875
0.0170228
-0.0111286
0.0157721
-0.0106852
0.0237165
0.0243514
-0.0304418
0.0434429
0.0146441
-0.0449281
0.0504969
0.0133827
-0.0632364
0.0461379
0.0263739
-0.0789611
0.0291618
0.026837
-0.0899205
0.00746173
0.0198499
-0.0953783
-0.0087137
0.0148157
-0.0987331
-0.0208976
0.0145231
-0.100908
-0.0294338
0.0148208
-0.101082
-0.0351643
0.014161
-0.0976935
-0.0395081
0.01171
-0.0888093
-0.0438991
0.00647627
-0.0319529
-0.0406301
-0.0447301
-0.0113866
-0.0184582
-0.0104159
-0.0192152
0.00260683
-0.015401
-0.0070957
0.00131843
-0.00577471
0.000259996
-0.00945266
0.000856458
-0.00379037
0.00165624
-0.00747339
0.00098692
-0.00879959
0.0158534
-0.000180005
-0.00794449
0.0158581
-0.00183994
-0.00613895
0.0139435
-0.00216308
-0.00200937
0.0198195
0.00568867
0.0204374
0.107109
-0.0444636
-0.0095752
0.00400146
0.0306938
0.00545641
0.00761294
0.0105275
-0.000247489
0.00842306
0.0143019
0.000667472
0.0151639
0.00192679
-0.0162378
-0.0197889
-0.0126565
0.0308699
-0.0202814
0.046337
-0.0178764
-0.0510458
0.107042
-0.0246268
-0.0520741
0.121993
-0.0150207
-0.104517
-0.0443486
0.125802
-0.0301752
-0.075303
-0.0285739
-0.0173768
-0.0288532
-0.0142738
-0.00282765
-0.0403326
0.0170226
-0.00207621
-0.0241474
-0.00525929
0.0279816
-0.00541183
-0.00853436
0.0163794
-0.00782396
-0.00928889
0.014506
-0.0061655
-0.00944327
-0.0118331
-0.00270847
0.0501945
-0.0212511
-0.0125848
-0.00608256
0.000616634
-0.0119274
-0.00845651
-0.000106383
-0.00874629
-0.00711833
-0.00156694
-0.00498201
-0.00436562
-0.00157456
-0.000102886
-0.000745235
-0.00374535
-0.000454819
-0.00987278
4.71512e-06
0.000442225
0.0012754
-0.0016978
0.0013756
-0.00206631
0.00335211
0.00175181
-0.0026406
0.00437489
0.00206012
-0.00197233
0.00371872
0.00175333
0.00267266
0.000705432
0.00449892
0.00263876
-0.001058
0.00469355
0.00384881
-0.000400483
0.00454695
0.00492546
-0.000485025
0.00482667
-0.000746416
-0.00634651
0.0108787
-0.00418156
-0.00618374
0.0109037
-0.00625264
-0.0053228
0.0100584
-0.00717608
0.00901576
-0.00778224
0.00656016
0.0118761
-0.00566518
0.00798179
0.0136051
-0.005067
0.008163
0.0151268
-0.00451092
0.0149322
-0.00311548
-0.00917585
0.0168743
-0.00132303
-0.00930284
0.0178804
-0.00273267
-0.00964998
0.0177778
-0.00392997
0.0104846
-0.00400678
0.0128685
-0.000415913
0.0102285
-0.001674
0.00748579
0.0233025
-0.00289526
0.00733725
0.0183161
-0.000377326
0.017309
0.000741209
-0.0088154
0.0484941
-0.0252103
-0.00518005
0.0421905
-0.0276543
0.045022
-0.0283028
0.0293273
0.11775
-0.0575415
0.127607
-0.0450467
0.0507101
0.135057
-0.0386223
-0.0205842
0.0553458
0.13499
-0.0149399
0.0519708
0.130247
-0.00599521
0.11543
-0.00136216
-0.0501769
0.119909
0.00516903
-0.0558914
0.135236
-0.000356864
-0.05343
0.140926
-0.00948003
-0.0447923
-0.0146138
0.140013
-0.128314
-0.0233004
0.133723
-0.0293055
-0.0128312
-0.0511424
-0.114472
0.0286187
0.119458
-0.106144
-0.0667729
0.118475
-0.0384269
-0.0495702
-0.0680713
-0.00480621
0.0138616
-0.0135216
-0.0193485
-0.0195725
-0.00998946
-0.0060305
-0.0131315
-0.00290586
-0.0140218
-0.00406211
0.00257501
-0.0143952
-0.00817602
0.00317021
-0.0127541
-0.0106134
0.0025265
-0.00980688
-0.0145029
0.00285692
-0.0107444
0.00114099
-0.0137769
0.0160614
-0.0137355
0.000610422
-0.00948694
-7.80653e-05
-0.0153515
0.0144795
-0.00158069
-0.0167531
0.0116567
-0.00271395
-0.0180355
0.00966231
-0.00145914
0.0149515
-0.0254585
0.0110843
0.0252136
0.0187179
0.0207263
-0.0498426
0.0188585
0.0161659
0.0178236
-0.0277661
0.0305746
0.0160483
0.0191665
-0.0470666
0.0213684
0.0134234
-0.0227364
0.0183907
0.0392788
-0.0422065
0.00893058
0.0152648
0.0200993
0.0463623
-0.0101142
-0.01717
0.0253812
0.0301304
-0.0202529
-0.0152877
-0.0172351
-0.0206121
0.0099116
-0.018266
0.00381644
-0.0127796
-0.0179523
0.0043716
-0.0172408
-0.012289
0.0033041
-0.0161297
-0.0141029
0.0022798
-0.0167745
0.0020964
-0.0176664
-0.0170542
0.0174577
0.000371836
-0.0162669
-0.000773599
-0.0183728
0.015642
-0.00199156
0.0130093
-0.00309185
0.0175489
0.0143302
-0.0027909
0.0174361
-0.00140817
0.0164775
0.0182473
-0.0170274
-0.000366465
0.0183943
0.00133094
-0.015118
0.00285691
-0.0154815
0.00100792
0.0175066
-0.0154135
-0.00120338
0.0144824
-0.00214739
-0.00752945
-0.0160244
0.0235955
0.0168575
-0.00150621
-0.0143864
-0.0171493
-0.0262076
-0.0242709
-0.0025887
-0.10524
0.103868
0.00754771
0.0012123
0.0182387
0.0127065
0.0239102
0.0146906
-0.0202625
0.0176449
-0.00846223
0.0179603
-0.0122458
-0.00477324
0.00235846
-0.000511541
-0.00555038
0.00484831
-0.00582545
-0.00170744
-0.00210626
-0.00217439
-0.00379085
0.0131593
-0.000991018
-0.00316166
-0.0014033
-0.00338254
0.0163763
-0.0200711
-0.011567
0.0154706
0.00688678
-0.0116105
0.017597
0.0091174
-0.013277
0.0202119
0.0089373
-0.0142147
0.0229644
0.00892058
0.0301863
0.0120023
0.0099002
0.0134849
0.0125054
0.00949475
0.0132707
0.00991995
0.00785742
0.0119219
0.00975647
0.0060811
0.0108012
0.00841806
0.00999921
0.00700191
-0.00220866
0.00342495
-0.00262304
0.00416544
-0.00329242
0.00476152
-0.00392952
0.00540668
0.00651619
0.00166198
0.00290441
0.00142716
0.000512814
0.000411113
0.00139483
-0.000146433
0.0019871
-0.0015482
-3.07451e-05
-0.000931507
0.00195305
0.000962125
-0.000329525
0.000790054
-0.000430843
0.00182923
-0.00111609
0.00121589
-0.00053376
0.000312322
-3.71298e-06
0.00202503
-0.00174645
3.04493e-05
0.00379383
-0.000557324
-0.0035947
0.011157
-0.00638798
0.0035899
-0.0180293
0.0033504
0.0170683
0.00389824
-0.0181359
0.020441
0.00714831
0.00294385
0.00677012
-0.0170727
0.0208558
0.000294557
0.00596205
0.0198022
-0.0148436
-0.0136259
0.0141939
0.00503454
0.0109862
-0.00739305
0.017196
-0.0076621
0.0172834
0.01091
-0.000414083
0.0199888
0.00717876
0.00333805
-0.00115186
0.00152962
-0.00351998
0.000373788
-0.00229227
0.0126035
0.00135508
-0.00233716
0.00078792
0.000619499
-0.000777351
0.00151109
-0.000568057
0.00155965
-0.000392774
-0.00124287
0.00106631
-0.00207007
0.000898468
-0.000211141
-0.000225024
-0.0016354
-0.00045496
-0.00209533
0.000247742
-0.00185655
0.0014025
-0.00138118
0.000391319
0.000111994
-0.00188575
0.000170729
-0.00141623
-0.000660238
-0.00126631
-0.00240665
0.00114985
0.0012405
0.000227679
0.000473399
-0.00129841
0.000447519
-0.00168333
-0.000479873
0.000536617
0.00038926
0.000109551
6.84268e-05
-0.000659203
0.00104425
0.000304063
0.00031253
-0.000891742
-0.0016129
0.00281377
-0.000775727
0.000270592
0.000179805
-0.000889513
-0.00113198
0.00380387
0.00137551
-0.00036136
-0.00303087
0.0122818
-0.00264865
-0.00129494
-0.00174859
8.59671e-06
-0.00083031
0.000258321
-0.000725886
0.000329988
-4.22204e-05
-0.00112045
-4.62183e-05
0.0018828
-0.00030768
-0.00162466
-0.00132328
0.00321036
-0.000894693
-0.000173409
-0.00124713
0.00111721
0.00204315
0.000343777
0.000324614
0.000921356
-0.000131333
0.00191557
-0.00142049
-0.000173819
-0.00137131
0.00320087
8.16446e-05
-0.000650261
0.000197124
0.0028625
-0.0040558
0.0133129
-0.00112019
-0.0180545
0.000732896
0.00705212
0.0245603
-0.0164869
0.0219143
0.00640575
-0.0177721
0.0225996
-0.00211029
-0.0149
-0.00439914
-0.0206859
-0.0218613
-0.006325
-0.0218925
-0.0057408
0.0151662
-0.0026086
0.0197892
0.0317877
0.037453
-0.023622
-0.101106
0.0666124
-0.0967355
0.0700865
-0.107815
0.0713032
-0.0171157
-0.110059
0.0687218
-0.0248715
-0.106601
0.0674761
-0.0296726
-0.0981197
0.0663139
-0.033204
-0.0860256
0.0636484
-0.0358094
-0.06861
0.0576942
-0.0379487
-0.0488263
0.0532887
-0.0376768
-0.0387107
0.0426578
-0.0317392
0.00421518
-0.0299477
0.0167331
0.0323163
-0.0455017
0.0144815
0.0446971
-0.043113
-0.00715012
0.0477556
-0.0265353
-0.0342723
0.0266834
-0.0510454
-0.0129022
0.0292082
-0.0597457
-0.0245077
0.0327051
-0.0620811
-0.0310312
0.0328404
-0.0556677
-0.0382561
0.0313164
-0.0476225
-0.0353449
0.0267969
-0.0302176
-0.0336205
0.0157484
0.00331615
-0.0339725
0.0202492
0.0444313
-0.0620011
0.0430817
0.0554723
-0.0790709
0.0683232
0.0547241
-0.0807855
0.0882818
0.0522953
-0.0730785
0.0993211
0.0477211
-0.059617
0.100137
0.0400733
-0.0417118
0.0942822
0.0342018
-0.0291572
0.0823473
0.0309834
-0.0197687
0.0465489
0.0378024
-0.00257758
0.022442
0.0228719
0.00103858
0.0193027
0.00392711
-0.000892561
0.0179353
0.0005165
0.000748122
0.0147669
0.000147717
0.00291034
0.00851206
1.46905e-05
0.00614117
0.00905455
-0.000630109
0.00713092
0.00350883
-0.00165584
0.00452477
0.00388295
-0.0013239
0.00474098
0.00172947
-0.0020085
0.00570555
0.00193424
-0.00297766
0.0054134
0.00311249
-0.00289815
0.00428349
0.00337761
-0.00231726
0.00329177
0.00272241
-0.0017853
0.00540568
0.00165653
-0.00384746
0.0106659
0.00222167
-0.00770044
-0.0226692
0.0327693
-5.21414e-05
-0.0499389
0.0238656
0.00264507
-0.0630949
0.0118725
0.000449678
-0.0670129
0.00107331
0.00197171
-0.0691239
-0.0128626
0.0140692
-0.0732601
-0.0281151
0.0313292
-0.0742979
-0.0435078
0.0436086
-0.0716366
-0.0575322
0.0539259
-0.0617969
-0.0702218
0.05943
-0.0442637
-0.080318
0.0618276
-0.0170422
-0.0868259
0.0586412
0.0166479
-0.0828267
0.0481758
0.0320633
-0.0572551
0.0408784
0.0311739
-0.0441564
0.0441235
0.0235588
-0.0346689
0.0413807
0.00954496
-0.0257827
0.0389694
-0.000850355
-0.0230246
0.0326181
-0.0348848
0.0332852
-0.0502818
-0.0195569
0.0341561
-0.0573966
-0.0343196
0.0406237
-0.0578379
-0.0491348
0.0487015
-0.0493425
-0.0641818
0.0548113
-0.0255064
-0.0817537
0.0570189
0.00453664
-0.0833449
0.0524258
0.00999846
-0.0475708
0.0412437
-0.00739962
-0.0267462
0.0433344
-0.0207762
-0.0283057
0.0408964
-0.0046957
-0.0601755
0.0433569
-0.0520193
0.0429164
-0.0148318
-0.0687555
0.0017135
0.0184406
-0.0547794
-0.0395533
0.0283905
-0.0393981
0.000267184
0.032156
-0.0481797
0.0167739
0.0305567
-0.0782381
0.0313424
0.0411095
-0.126784
0.0319477
0.05427
-0.123483
0.027624
0.0568069
-0.0962223
0.0285723
0.05174
-0.0727193
0.0277457
0.0412176
-0.0518028
0.0271456
-0.0302284
0.0280418
-0.0369661
-0.0467057
0.0267898
-0.0390239
-0.056082
0.0225416
-0.0333455
-0.0670866
0.0162814
-0.00485538
-0.0824295
-0.00431365
0.0354772
-0.117876
-0.00628861
0.0605781
-0.124337
0.0114043
0.0750927
-0.117822
0.0219882
0.0816829
-0.103097
0.0252891
0.0807944
-0.084102
0.0264683
0.0768692
-0.0630835
0.0225186
0.0700463
-0.041152
0.0188881
0.0658805
-0.0194552
0.00980016
0.0603003
0.000734484
0.0049776
0.0478085
0.0162296
0.00720814
0.023856
0.0330572
0.0138447
-0.00828899
0.00173325
0.0462055
0.0159897
0.00838167
-0.00315665
-0.00885953
-0.00480836
0.0151558
-0.00243967
-0.00273772
0.0106915
-0.00198589
0.00648573
-0.000163732
0.0147326
-0.000438348
-0.00636353
0.00265943
-0.00662154
0.0269678
0.00303421
-0.00874853
-0.00767541
-0.000936624
0.0015025
-0.00796208
-0.00322708
0.0014527
-0.00663347
-0.00445407
0.000603444
-0.00493949
-0.00528739
0.000355338
0.0020879
-0.00383329
-0.000525947
0.00474591
-0.00102476
-0.00194419
-0.000321753
-0.00037632
-0.00125005
-0.000727445
-0.000621107
-0.000570209
-0.000568906
0.000409104
-0.00108294
-0.0033634
0.0131249
-0.005455
-0.0118525
0.00298682
0.0228454
-0.00768753
-0.00990488
0.0657261
-0.0313945
-0.0292392
0.0167184
0.0642841
-0.0246132
0.0277925
0.0501733
-0.0194023
0.0330414
0.0141161
-0.0108791
0.0479703
-0.0253624
0.00536667
0.0472254