/*--------------------------------*- C++ -*----------------------------------*\
| =========                 |                                                 |
| \\      /  F ield         | OpenFOAM: The Open Source CFD Toolbox           |
|  \\    /   O peration     | Version:  v2012                                 |
|   \\  /    A nd           | Website:  www.openfoam.com                      |
|    \\/     M anipulation  |                                                 |
\*---------------------------------------------------------------------------*/
FoamFile
{
    version     2.0;
    format      ascii;
    class       volVectorField;
    location    "250";
    object      U;
}
// * * * * * * * * * * * * * * * * * * * * * * * * * * * * * * * * * * * * * //

dimensions      [0 1 -1 0 0 0 0];


internalField   nonuniform List<vector> 
18258
(
(-0.176958 0.118983 0.137061)
(-0.0520087 0.246759 0.156593)
(-0.104929 0.215727 0.0961981)
(-0.0374095 0.0711804 0.083693)
(-0.226195 0.204226 0.0170313)
(-0.158665 0.363528 0.0155124)
(-0.222468 0.0452897 0.0529464)
(-0.340791 -0.0519007 0.0744971)
(-0.447957 -0.105019 0.107748)
(-0.534783 -0.15905 0.145405)
(-0.620666 -0.216704 0.179675)
(-0.687089 -0.271109 0.309273)
(-0.678217 -0.333887 0.357102)
(-0.621829 -0.445199 0.385784)
(-0.487653 -0.542706 0.369491)
(-0.205174 -0.586704 0.340325)
(0.0731992 -0.374079 0.288312)
(0.0783632 -0.165272 0.298298)
(-0.126167 -0.078589 0.235827)
(-0.394925 -0.273985 0.115867)
(-0.135534 -0.523962 0.289246)
(-0.191235 -0.363643 0.406065)
(-0.293492 -0.734475 0.299409)
(-0.351444 -0.775606 0.262411)
(-0.126848 -0.709046 0.13841)
(0.00868283 -0.644735 0.186492)
(-0.0134356 -0.337535 0.421557)
(0.176183 -0.111547 0.801026)
(0.30001 -0.0946399 0.886735)
(0.317602 0.058527 0.903336)
(0.320128 0.188385 0.800688)
(0.164362 0.302581 0.0737792)
(0.08527 0.119743 -0.435709)
(0.0221548 0.0709539 -0.731773)
(-0.0590171 0.072023 -0.903442)
(-0.049712 0.0693114 -1.08385)
(-0.0640912 0.0689457 -1.2265)
(-0.0916789 0.0874813 -1.32338)
(-0.131176 0.0780964 -1.37226)
(-0.176948 0.0834747 -1.35857)
(-0.225874 0.0694232 -1.27452)
(-0.271413 0.0778429 -1.12059)
(-0.309274 0.0723746 -0.909509)
(-0.339758 0.0722218 -0.653815)
(-0.350579 0.0735818 -0.358564)
(-0.335888 0.0692739 -0.158682)
(-0.165858 0.148389 -0.203245)
(0.333226 -0.0935004 -0.140422)
(0.589346 -0.131334 -0.162911)
(0.651681 -0.110679 -0.170963)
(0.771071 -0.135138 -0.178871)
(0.804341 -0.133655 -0.195432)
(0.504727 -0.00798206 -0.257729)
(0.259139 -0.138299 -0.21868)
(0.113405 -0.0426384 -0.158978)
(0.282322 -0.00979908 -0.169109)
(0.537493 -0.00259022 -0.173662)
(0.791886 -0.0299563 -0.177846)
(1.09247 -0.0346031 -0.175599)
(1.42831 -0.0487051 -0.185039)
(1.76301 -0.0644077 -0.183399)
(2.04725 -0.0809338 -0.166462)
(2.24795 -0.0925795 -0.137959)
(2.34806 -0.0986562 -0.102269)
(2.35458 -0.0959433 -0.0675994)
(2.29404 -0.0882337 -0.0408919)
(2.20036 -0.0817189 -0.0242792)
(2.1079 -0.0756164 -0.0175596)
(2.03853 -0.0668277 -0.0185872)
(1.99299 -0.0639503 -0.0232515)
(1.9688 -0.058803 -0.0256608)
(1.95838 -0.0498928 -0.0200927)
(1.94422 -0.0393788 -0.00304953)
(1.90083 -0.024547 0.0245558)
(1.81327 -0.0074893 0.0541549)
(1.69229 0.00992111 0.0775063)
(1.57145 0.0221463 0.0803744)
(1.47884 0.0311584 0.0757225)
(1.40081 0.0382848 0.070998)
(1.33856 0.0512118 0.0635845)
(1.28773 0.0578583 0.0654505)
(1.19415 0.04485 0.0791854)
(1.09721 0.0194825 0.111101)
(1.01451 0.00118016 0.128782)
(0.907582 -0.0204539 0.121772)
(0.763606 0.0170165 0.146867)
(0.642677 0.0818667 0.133907)
(0.519015 0.100738 0.134927)
(0.381995 0.118325 0.119344)
(0.225268 0.127633 0.0973832)
(0.120436 0.19011 0.0927483)
(0.122815 0.00988044 0.19833)
(0.164443 -0.1009 0.144902)
(0.113484 -0.129647 0.0410129)
(0.105094 -0.115361 -0.140732)
(0.217433 -0.210661 -0.369012)
(0.263483 -0.233682 -0.554465)
(0.205045 -0.140926 -0.729288)
(0.10679 -0.083043 -0.71659)
(0.0363881 0.0543219 -0.49608)
(-0.0835258 0.228009 -0.175867)
(-0.214241 0.197458 0.177062)
(-0.234387 0.0657634 0.151016)
(-0.340087 0.0165235 0.167074)
(-0.270546 0.141275 0.175258)
(-0.244285 0.288123 -0.0565083)
(-0.106392 0.160453 -0.406541)
(0.0656845 0.00243659 -0.587191)
(0.33528 -0.0951797 -0.631922)
(0.497436 -0.23076 -0.488449)
(0.352374 -0.211035 -0.278806)
(0.272172 -0.191994 -0.0994226)
(0.283394 -0.186597 0.0409556)
(0.281252 -0.140046 0.16128)
(0.226331 -0.0990201 0.192479)
(0.397698 -0.0811349 0.181755)
(0.536908 -0.0630488 0.177371)
(0.589372 -0.0517835 0.165333)
(0.70147 -0.0785125 0.161654)
(0.733569 -0.133555 0.133628)
(0.601836 -0.134152 0.136286)
(0.455204 -0.151674 0.140749)
(0.462109 -0.185778 0.0367673)
(0.611617 -0.162798 0.052709)
(0.737109 -0.162052 0.0502377)
(0.905651 -0.14168 0.0821688)
(1.0891 -0.109889 0.111651)
(1.19018 -0.0777248 0.149211)
(1.20934 -0.0104993 0.140755)
(1.24647 -0.00886798 0.121113)
(1.33625 -0.0067925 0.140605)
(1.37829 -0.00148906 0.13042)
(1.36982 -0.0123592 0.159361)
(1.32935 -0.0481313 0.194684)
(1.32367 -0.0510771 0.191567)
(1.28652 -0.0620133 0.152712)
(1.27988 -0.060242 0.135876)
(1.25939 -0.0479369 0.10891)
(1.25094 -0.0459045 0.11091)
(1.2028 0.00408919 0.109455)
(1.19571 0.0273992 0.137905)
(1.07914 0.136313 0.270976)
(1.22749 0.0525103 0.253603)
(1.21941 0.0198073 0.158772)
(1.26801 -0.0209184 0.128545)
(1.27999 -0.025098 0.119467)
(1.28993 -0.0382159 0.144845)
(1.30876 -0.0414744 0.184077)
(1.3514 -0.0366638 0.218117)
(1.38722 -0.0366203 0.223092)
(1.42404 -0.0126311 0.184146)
(1.43751 -0.00172657 0.138719)
(1.51361 -0.00635939 0.151838)
(1.61156 -0.0165622 0.159883)
(1.75086 -0.0314901 0.14418)
(1.883 -0.0540858 0.0493704)
(1.96436 -0.0755475 -0.071004)
(1.9836 -0.0904056 -0.164186)
(1.96595 -0.0964353 -0.200503)
(1.94937 -0.0967856 -0.194493)
(1.95927 -0.0911811 -0.174717)
(2.00609 -0.0826807 -0.144279)
(2.08743 -0.0702166 -0.107612)
(2.19858 -0.0599422 -0.0836319)
(2.31293 -0.0595847 -0.11234)
(2.39013 -0.0606708 -0.172621)
(2.39304 -0.0582875 -0.276539)
(2.28728 -0.0500663 -0.391869)
(2.0718 -0.0424629 -0.483318)
(1.7713 -0.0366934 -0.539804)
(1.42737 -0.0315583 -0.548617)
(1.08128 -0.0193065 -0.527484)
(0.792607 -0.0243083 -0.459254)
(0.536819 -0.0157656 -0.415492)
(0.282841 -0.0213381 -0.386945)
(0.108995 -0.0403786 -0.360903)
(0.102093 -0.0422488 -0.63751)
(0.0772658 -0.0373811 -0.873698)
(0.0506195 -0.0393017 -1.05841)
(0.0117843 -0.0405356 -1.17735)
(-0.0232992 -0.0282068 -1.21747)
(-0.0598843 -0.0157398 -1.17036)
(-0.09361 0.00313277 -1.0419)
(-0.119028 0.0262887 -0.826358)
(-0.121447 0.0813157 -0.56416)
(-0.145813 0.133063 -0.0538594)
(-0.191863 0.0270376 0.563817)
(-0.207816 -0.0331541 0.750116)
(-0.226429 -0.00171764 0.919259)
(-0.23163 -0.044335 1.06214)
(-0.317472 -0.103515 1.12476)
(-0.370837 -0.109316 1.1389)
(-0.368976 -0.231586 1.00145)
(-0.296016 -0.250181 0.769655)
(-0.458284 -0.665021 0.686672)
(-0.485321 -0.542109 0.704204)
(-0.41368 -0.410346 0.830995)
(-0.550237 -0.764003 0.853939)
(-0.685648 -0.829934 0.602434)
(-0.475615 -0.752581 0.7985)
(-0.436499 -0.573793 0.740118)
(-0.785073 -0.524037 0.745993)
(-0.904771 -0.40748 0.854742)
(-0.531519 -0.704974 0.818479)
(-0.441163 -0.577041 0.659298)
(-0.320406 -0.317137 0.399276)
(-0.299002 -0.178266 0.392756)
(-0.281944 -0.142608 0.34566)
(-0.23283 0.117031 0.106524)
(-0.162714 0.293969 -0.421509)
(-0.152918 0.183064 -0.640768)
(-0.132295 0.0270919 -0.916394)
(-0.0870862 -0.0578941 -1.08761)
(-0.0289873 -0.0700179 -1.23535)
(0.0378903 -0.102588 -1.26988)
(0.0975126 -0.099078 -1.23471)
(0.17184 -0.109866 -1.12067)
(0.215811 -0.123803 -0.920593)
(0.259948 -0.147092 -0.705984)
(0.248944 -0.139586 -0.398873)
(0.417264 -0.0524404 -0.638253)
(0.76421 -0.11833 -0.459769)
(0.714097 -0.108511 -0.416936)
(0.608844 -0.0728677 -0.411908)
(0.52592 -0.106669 -0.423211)
(0.0992062 -0.109999 -0.538195)
(0.155691 -0.121058 -0.93329)
(0.243295 -0.227005 -1.0849)
(0.33427 -0.28469 -0.969704)
(0.391207 -0.354162 -0.53511)
(0.200649 0.0139322 0.160947)
(0.261397 0.106835 0.172716)
(0.428736 -0.325866 0.333092)
(0.51588 -0.528896 0.503308)
(0.54519 -0.52139 0.552516)
(0.412563 -0.234049 0.675292)
(0.471814 -0.336226 0.566694)
(0.487309 -0.607219 0.552118)
(0.703445 -0.670674 0.320716)
(0.74572 -0.48541 0.458514)
(0.796572 -0.34494 0.599305)
(0.231718 -0.223795 0.572879)
(-0.242001 -0.266865 0.823059)
(-0.18001 -0.191033 0.673209)
(-0.67601 -0.298458 0.815211)
(-0.474706 -0.179018 0.688708)
(-0.324427 -0.00132155 0.536399)
(-0.21897 0.173113 -0.297316)
(-0.193357 -0.0469445 -0.620115)
(-0.0573272 -0.170227 -1.10166)
(0.10356 -0.159455 -1.25073)
(0.274367 -0.0893044 -1.11875)
(0.429598 -0.107333 -0.703743)
(0.495162 -0.0738367 -0.630471)
(0.485408 -0.0423807 -0.622726)
(0.525682 -0.088078 -0.653057)
(0.577449 -0.120843 -0.745616)
(0.389772 -0.0419289 -0.693421)
(0.351694 -0.0786755 -0.672195)
(0.129702 -0.113094 -0.67748)
(-0.112056 -0.0500769 -0.588429)
(0.287414 6.77567e-05 -0.60038)
(0.34343 0.0108919 -0.623419)
(0.629739 -0.101026 -0.659984)
(0.574614 -0.09873 -0.407894)
(0.266242 0.0677697 -0.386506)
(0.278325 0.0515276 -0.282128)
(-0.306466 -0.0437027 0.0872379)
(-0.307598 0.142749 -0.0189765)
(-0.282634 -0.0262449 -0.45565)
(0.0835629 -0.200022 -0.582523)
(0.356424 -0.278448 -0.573408)
(0.719841 -0.343548 -0.409204)
(0.806799 -0.416566 -0.379598)
(0.767269 -0.289744 -0.296992)
(0.809214 -0.363672 -0.220778)
(0.824392 -0.484539 -0.285776)
(0.735514 -0.428532 -0.281372)
(0.711255 -0.302643 -0.335121)
(0.740059 -0.250425 -0.344579)
(0.786344 -0.310088 -0.213855)
(0.798891 -0.365663 -0.162152)
(0.88957 -0.463819 -0.157127)
(1.15697 -0.629404 -0.117828)
(1.6163 -0.724291 -0.0987428)
(1.99395 -0.669852 -0.0379297)
(2.15067 -0.487797 0.0475436)
(2.07056 -0.288774 0.0956535)
(1.90528 -0.160995 0.10308)
(1.8079 -0.0928048 0.0996303)
(1.71125 0.00253191 0.0992016)
(1.57394 0.0911222 0.0913778)
(1.43676 0.109802 0.0484032)
(1.33233 0.0602071 0.0277245)
(1.24262 -0.00178316 0.0221272)
(1.14096 -0.0512427 0.0239498)
(1.05695 -0.0762842 0.0221628)
(0.999216 -0.0603939 0.0178802)
(0.823457 -0.108252 -0.0229507)
(0.71794 0.00457279 0.0110937)
(0.634495 0.0711433 0.00998299)
(0.498676 0.0262798 0.00764003)
(0.360218 -0.0585109 -0.0125652)
(0.139448 -0.145632 -0.0317291)
(0.226017 -0.30766 0.00108372)
(0.353709 -0.0817749 0.0120827)
(-0.00229872 -0.229964 -0.00918562)
(0.0432289 -0.545991 -0.0503967)
(0.0121856 -0.712626 -0.0525129)
(-0.00787175 -0.876694 -0.0531523)
(-0.0258398 -1.00681 -0.0648407)
(-0.0358796 -1.10284 -0.0956338)
(-0.0463497 -1.15731 -0.104912)
(-0.05786 -1.21474 -0.11807)
(-0.0881103 -1.27664 -0.134088)
(-0.113256 -1.32152 -0.149418)
(-0.13727 -1.35542 -0.162347)
(-0.159331 -1.37724 -0.173418)
(-0.178398 -1.38869 -0.183087)
(-0.193829 -1.39036 -0.189805)
(-0.205977 -1.38324 -0.193658)
(-0.215993 -1.36848 -0.193772)
(-0.224532 -1.34655 -0.191847)
(-0.232798 -1.31608 -0.186396)
(-0.240456 -1.27519 -0.178034)
(-0.245907 -1.22091 -0.164985)
(-0.243804 -1.15172 -0.147241)
(-0.190917 -1.07217 -0.126856)
(-0.141208 -0.969439 -0.112485)
(-0.165724 -0.868868 -0.0794212)
(-0.189725 -0.754836 -0.0818232)
(-0.204927 -0.543324 -0.085422)
(-0.27358 -0.450372 -0.0919135)
(0.0226025 0.0530484 -0.116109)
(-0.350776 -0.308392 0.0252177)
(-0.231642 -0.617435 -0.0545221)
(-0.270321 -0.0992571 -0.0110114)
(-0.457918 -0.182479 0.0645942)
(-0.678587 -0.198685 0.0822687)
(-0.842056 -0.209277 0.114067)
(-0.953521 -0.22314 0.144186)
(-1.03432 -0.232548 0.203772)
(-1.11769 -0.244345 0.245299)
(-1.18691 -0.244246 0.302043)
(-1.2006 -0.248479 0.336309)
(-1.17366 -0.250248 0.366208)
(-1.1068 -0.24897 0.39449)
(-0.996121 -0.243315 0.422654)
(-0.841685 -0.230341 0.45406)
(-0.668004 -0.206124 0.4935)
(-0.420966 -0.147084 0.54261)
(-0.138134 -0.118503 0.566547)
(-0.156626 0.0285391 0.822349)
(-0.160243 0.0829764 1.04255)
(-0.160145 0.115191 1.11249)
(-0.161484 0.164256 1.02131)
(-0.164867 0.153252 0.838803)
(-0.151589 0.13117 0.568518)
(-0.122778 0.143476 0.28654)
(-0.22402 0.440228 0.371568)
(-0.505591 0.467955 0.335284)
(-0.69061 0.480851 0.33948)
(-0.915681 0.465842 0.333111)
(-1.09829 0.425332 0.30916)
(-1.22597 0.353941 0.266432)
(-1.28221 0.273926 0.219256)
(-1.26532 0.206598 0.181946)
(-1.23263 0.148303 0.15866)
(-1.18985 0.115562 0.140719)
(-1.10039 0.0928071 0.0904387)
(-0.958696 0.045422 0.07006)
(-0.767399 -0.020489 0.0596004)
(-0.500963 -0.113777 0.0190884)
(-0.253354 -0.207735 -0.018932)
(-0.274357 -0.197529 -0.065995)
(-0.318437 -0.17691 0.00864442)
(-0.314635 -0.17411 0.0599909)
(-0.272805 -0.156615 0.151298)
(-0.380818 -0.233802 0.118947)
(-0.422639 -0.296983 0.118952)
(-0.32673 -0.288083 0.177467)
(-0.26971 -0.215229 0.0455628)
(-0.140621 -0.10088 -0.0259462)
(-0.140827 -0.0768276 -0.00738463)
(-0.138508 -0.0741842 -0.0356844)
(-0.169288 -0.0556832 -0.0681017)
(-0.16786 -0.501476 -0.148803)
(-0.126215 -0.479689 -0.138393)
(-0.110656 -0.447104 -0.0957371)
(-0.100422 -0.424007 -0.145714)
(-0.266554 -0.538156 -0.0313712)
(-0.276427 -0.575657 -0.0255328)
(-0.283992 -0.632077 -0.0836035)
(-0.337449 -0.582891 -0.0196368)
(-0.340251 -0.530063 0.0554934)
(-0.301569 -0.359187 0.0857328)
(-0.444458 -0.317077 0.115106)
(-0.361667 -0.431856 0.0406145)
(-0.347624 -0.522786 0.0142072)
(-0.378058 -0.508471 -0.0234714)
(-0.428595 -0.394535 0.0323609)
(-0.497394 -0.346673 0.0733269)
(-0.528904 -0.254938 0.164202)
(-0.591165 -0.215521 0.241818)
(-0.680138 -0.197611 0.256472)
(-0.576542 -0.206755 0.212076)
(-0.517002 -0.187783 0.181681)
(-0.545358 -0.184909 0.118286)
(-0.539928 -0.171961 0.0922241)
(-0.496648 -0.184087 0.000948731)
(-0.762226 -0.0865228 0.0646958)
(-0.97234 -0.00517156 0.0898094)
(-1.07991 0.052412 0.103714)
(-1.12909 0.07535 0.138382)
(-1.16653 0.0360176 0.238234)
(-1.25105 0.0692314 0.267529)
(-1.31671 0.119694 0.349488)
(-1.33001 0.171239 0.432295)
(-1.27225 0.222361 0.524856)
(-1.14688 0.261286 0.604512)
(-0.973993 0.281346 0.64896)
(-0.774109 0.283271 0.657868)
(-0.622122 0.288394 0.644754)
(-0.341713 0.272226 0.64512)
(-0.435697 0.244435 0.875462)
(-0.467931 0.227014 1.00373)
(-0.46107 0.179286 1.08202)
(-0.441972 0.123233 1.01405)
(-0.440574 0.0583263 0.797993)
(-0.711597 -0.00524896 0.744415)
(-0.722092 0.0712339 0.944915)
(-0.74059 0.117027 1.02376)
(-0.745074 0.164081 0.979707)
(-0.694633 0.198602 0.87257)
(-0.837069 0.186209 0.862438)
(-0.879201 0.145832 0.965163)
(-0.882354 0.0882562 1.00126)
(-0.872903 0.0418648 0.926487)
(-0.866759 -0.0390969 0.706995)
(-1.00975 -0.0603347 0.675854)
(-1.02408 0.0204881 0.901262)
(-1.03681 0.0695482 0.966478)
(-1.04477 0.122044 0.944435)
(-1.01956 0.174018 0.85442)
(-1.16327 0.163125 0.804658)
(-1.16401 0.110679 0.893239)
(-1.14745 0.057188 0.914954)
(-1.13048 0.00646863 0.859655)
(-1.1106 -0.0730861 0.640175)
(-1.17066 -0.0837116 0.595614)
(-1.19606 -0.00618755 0.797142)
(-1.22232 0.0436876 0.840539)
(-1.25162 0.0919628 0.812112)
(-1.26923 0.141574 0.717608)
(-1.3191 0.111062 0.610904)
(-1.29055 0.068977 0.709862)
(-1.25207 0.0250637 0.747728)
(-1.21669 -0.0217055 0.7167)
(-1.18664 -0.0934989 0.539917)
(-1.15343 -0.104732 0.472862)
(-1.18156 -0.0413739 0.621682)
(-1.22044 0.000244283 0.641188)
(-1.27489 0.0392474 0.607021)
(-1.30809 0.0744224 0.509768)
(-1.22528 0.0358266 0.414893)
(-1.18829 0.00293331 0.500639)
(-1.12842 -0.0321628 0.531618)
(-1.08612 -0.0600941 0.520503)
(-1.03982 -0.111805 0.386932)
(-0.918922 -0.120185 0.315315)
(-0.923207 -0.109414 0.358323)
(-0.972626 -0.0804073 0.438535)
(-0.956558 -0.0870586 0.42536)
(-0.927809 -0.102642 0.395128)
(-1.00468 -0.0684193 0.38189)
(-0.996573 -0.0629914 0.307913)
(-1.00139 -0.0391012 0.283264)
(-1.04467 -0.0270616 0.209548)
(-1.03972 -0.00936735 0.202798)
(-0.806819 -0.105073 0.145661)
(-0.81971 -0.125154 0.158275)
(-0.788574 -0.128392 0.216724)
(-0.824354 -0.141462 0.249889)
(-0.610347 -0.281737 0.133361)
(-0.557257 -0.291502 0.115163)
(-0.503733 -0.32691 0.132859)
(-0.42033 -0.399639 0.116443)
(-0.396905 -0.384072 0.149952)
(-0.488086 -0.284272 0.165753)
(-0.606057 -0.239089 0.184164)
(-0.615598 -0.267825 0.0971241)
(-0.513723 -0.377955 0.0443296)
(-0.439711 -0.460221 0.0284516)
(-0.39731 -0.526391 0.058245)
(-0.383864 -0.697943 0.122828)
(-0.387012 -0.663373 0.128548)
(-0.40539 -0.380377 0.107548)
(-0.408474 -0.53651 0.0819596)
(-0.399333 -0.602002 0.0443239)
(-0.215889 -0.78839 -0.158283)
(-0.193517 -0.794239 -0.259246)
(-0.115409 -0.704058 -0.368917)
(-0.0785441 -0.62424 -0.384875)
(-0.0451993 -0.589182 -0.34723)
(-0.0138424 -0.556366 -0.301022)
(0.0313486 -0.502379 -0.231892)
(0.124035 -0.455985 -0.108874)
(0.124597 -0.580793 -0.12185)
(0.11669 -0.637383 -0.120138)
(0.0847156 -0.695418 -0.157538)
(0.0920805 -0.750099 -0.155629)
(0.100192 -0.806643 -0.174743)
(0.117888 -0.835027 -0.166831)
(0.125885 -0.841912 -0.152671)
(0.126101 -0.82829 -0.130178)
(0.117493 -0.792454 -0.0959385)
(0.103873 -0.736289 -0.0427836)
(0.0382338 -0.657227 0.0328428)
(0.00131106 -0.549022 0.151805)
(0.0138914 -0.303813 0.358538)
(-0.144501 0.00650565 0.448768)
(-0.364068 0.0935826 0.351137)
(-0.390703 -0.041021 0.255911)
(-0.218571 -0.172277 0.252752)
(-0.178133 -0.188095 0.268986)
(-0.155411 -0.1768 0.214035)
(-0.0861627 -0.139917 0.20525)
(0.00287686 -0.0221296 0.0679376)
(-0.0387515 0.1132 0.0803624)
(-0.0815871 0.151567 0.0800927)
(-0.0503689 0.215402 0.16943)
(-0.00977158 0.184381 0.189297)
(0.0138685 0.0492253 0.14141)
(-0.0405313 -0.0230444 0.22515)
(0.0254776 0.0977532 0.321244)
(-0.000388905 -0.0609843 0.285388)
(0.0797245 0.145131 0.24588)
(0.0923396 -0.0262653 0.227918)
(-0.018763 -0.259189 0.456288)
(0.0528238 -0.363156 0.54431)
(0.173149 -0.509368 0.512724)
(0.1647 -0.697144 0.349627)
(0.0745188 -0.820237 0.142274)
(0.0589821 -0.891542 -0.00857154)
(0.0651304 -0.925302 -0.119788)
(0.0631417 -0.95129 -0.197718)
(0.0600318 -0.965719 -0.248525)
(0.0519134 -0.963728 -0.279082)
(0.0417815 -0.943685 -0.292353)
(0.0292122 -0.906005 -0.28915)
(0.0235444 -0.831342 -0.249496)
(0.00729459 -0.785541 -0.328634)
(0.043451 -0.704751 -0.225188)
(0.0474547 -0.65452 -0.211324)
(0.0446609 -0.636965 -0.231997)
(0.00457321 -0.702907 -0.324992)
(-0.0225562 -0.742382 -0.382671)
(-0.0573238 -0.777553 -0.410357)
(-0.0732803 -0.844235 -0.401221)
(-0.132128 -0.904684 -0.345433)
(-0.0941075 -0.969248 -0.331184)
(-0.0890651 -0.979992 -0.372557)
(-0.0538134 -0.918504 -0.417624)
(-0.0435719 -0.868599 -0.431539)
(-0.0177392 -0.826584 -0.403954)
(-0.00966097 -0.870042 -0.340837)
(-0.0393974 -0.902167 -0.373718)
(-0.0561189 -0.948746 -0.396057)
(-0.0238398 -0.991948 -0.405376)
(-0.0487361 -1.06034 -0.419927)
(-0.0666241 -1.04301 -0.423719)
(-0.0935716 -0.920761 -0.344489)
(-0.186723 -0.762014 -0.224046)
(-0.198738 -0.613863 -0.040645)
(-0.100218 -0.733657 -0.196515)
(-0.0797831 -0.839807 -0.258978)
(-0.0594447 -0.92916 -0.322848)
(-0.0608224 -0.946577 -0.333582)
(-0.0276564 -0.829708 -0.380218)
(-0.0238263 -0.724789 -0.336485)
(-0.0319724 -0.542449 -0.253047)
(-0.0159655 -0.353403 -0.162173)
(0.0330577 -0.0912386 -0.207339)
(-0.248655 -0.433899 0.0735388)
(-0.329669 -0.461478 0.0264791)
(0.222097 -0.118151 -0.244531)
(-0.172354 -0.247366 0.0434904)
(-0.217971 -0.266499 -0.116525)
(-0.25833 -0.26877 -0.103258)
(-0.208501 -0.281611 -0.0212747)
(0.0811886 0.140659 -0.219048)
(0.102739 0.0594974 -0.231612)
(0.100969 -0.000358204 -0.260331)
(0.0965524 -1.45072e-05 -0.265466)
(-0.0796912 -0.429856 -0.20096)
(-0.132775 -0.450029 -0.222204)
(-0.185961 -0.458397 -0.206317)
(-0.248972 -0.445168 -0.169058)
(-0.168921 -0.547609 -0.184116)
(-0.126758 -0.559492 -0.257012)
(-0.0961571 -0.565819 -0.291107)
(-0.0604421 -0.554073 -0.291297)
(-0.0506027 -0.743066 -0.348634)
(-0.0815545 -0.757669 -0.331738)
(-0.106333 -0.76994 -0.281566)
(-0.147153 -0.760164 -0.194652)
(-0.134483 -0.821949 -0.182257)
(-0.12878 -0.882935 -0.200226)
(-0.0981523 -0.905638 -0.297265)
(-0.0726717 -0.872749 -0.373542)
(-0.0491192 -0.85259 -0.39973)
(-0.0767586 -0.968242 -0.370525)
(-0.112172 -0.989866 -0.3356)
(-0.138127 -1.0101 -0.283464)
(-0.137191 -1.09286 -0.346729)
(-0.0801161 -1.0673 -0.39889)
(-0.0725228 -1.14497 -0.440578)
(-0.0493939 -1.1235 -0.473146)
(-0.0269702 -1.11454 -0.458351)
(-0.00338807 -1.04268 -0.415069)
(0.0120159 -1.0749 -0.406278)
(-0.0127408 -1.1532 -0.469323)
(-0.0398506 -1.18021 -0.493897)
(-0.0685442 -1.20831 -0.462727)
(-0.131537 -1.2288 -0.379007)
(-0.134877 -1.16645 -0.369049)
(-0.283629 -1.04658 -0.225256)
(-0.457298 -1.14606 -0.076905)
(-0.463687 -1.10008 -0.0674399)
(-0.415984 -1.04573 -0.0647296)
(-0.302834 -1.03622 -0.0737799)
(-0.2557 -0.967486 -0.0639889)
(-0.309154 -0.944949 -0.0575819)
(-0.34226 -0.84906 -0.0421576)
(-0.378014 -0.713693 -0.0378236)
(-0.473674 -0.626907 -0.0366472)
(-0.409785 -0.401493 -0.0340129)
(-0.464751 -0.660823 -0.0057902)
(-0.316623 -0.45764 0.0246257)
(-0.638281 -0.398833 0.0054715)
(-0.815163 -0.379471 0.0601511)
(-0.917639 -0.384623 0.0846293)
(-0.96764 -0.397427 0.124366)
(-0.979657 -0.525555 0.0977772)
(-0.940057 -0.6897 0.0653774)
(-0.923779 -0.750508 0.0524996)
(-0.874305 -0.848854 0.0364456)
(-0.858702 -0.896072 0.0304661)
(-0.820849 -0.928366 0.00761617)
(-0.703562 -0.968029 -0.0230072)
(-0.592381 -1.00257 -0.0419832)
(-0.62663 -0.953156 -0.0171997)
(-0.484849 -0.97218 -0.030692)
(-0.502736 -0.893844 -0.0301051)
(-0.530344 -0.797336 -0.023249)
(-0.559167 -0.731059 -0.0194322)
(-0.686257 -0.712678 -0.00978176)
(-0.674814 -0.59832 -0.00775101)
(-0.823949 -0.57744 0.0303542)
(-0.918276 -0.55984 0.050413)
(-0.881201 -0.697338 0.0231515)
(-0.800245 -0.704861 0.0122045)
(-0.777384 -0.790105 0.00228775)
(-0.660771 -0.798564 -0.01076)
(-0.635631 -0.882993 -0.0170279)
(-0.748349 -0.866584 -0.00513055)
(-0.825381 -0.850969 0.00444515)
(-0.862991 -0.773348 0.0135147)
(-0.801488 -0.739224 -0.0117522)
(-0.624087 -0.612354 0.00196575)
(-0.847004 -0.659908 0.0117098)
(-0.867954 -0.518537 0.0520978)
(-0.870355 -0.379893 0.0581809)
(-0.843247 -0.282297 0.121677)
(-0.832203 -0.302312 0.0765821)
(-0.878779 -0.350717 0.0526021)
(-0.875049 -0.203944 0.129112)
(-0.894042 -0.184273 0.174171)
(-0.760617 -0.161551 0.158539)
(-0.766342 -0.129096 0.259296)
(-0.777617 -0.120794 0.302156)
(-0.821284 -0.10868 0.355626)
(-0.828841 -0.119276 0.353047)
(-0.642217 -0.181756 0.251406)
(-0.607244 -0.173691 0.248732)
(-0.567389 -0.18051 0.215788)
(-0.550938 -0.175666 0.189072)
(-0.568661 -0.19122 0.120443)
(-0.338261 -0.1948 0.0769083)
(-0.320079 -0.189306 0.10187)
(-0.329239 -0.192013 0.114495)
(-0.360476 -0.198939 0.124708)
(-0.449162 -0.216924 0.1422)
(-0.405195 -0.253398 0.0601286)
(-0.382138 -0.284933 0.0688277)
(-0.41063 -0.341084 0.0474136)
(-0.315941 -0.426995 0.0363035)
(-0.311773 -0.394392 0.049564)
(-0.283569 -0.416316 0.0160336)
(-0.192921 -0.419554 -0.0200858)
(-0.337102 -0.254137 0.0358007)
(-0.402888 -0.330964 0.0414018)
(-0.248213 -0.457479 -0.00632788)
(-0.291631 -0.459883 0.00065251)
(-0.45172 -0.321264 0.0722451)
(-0.524521 -0.299039 0.131537)
(-0.497921 -0.318704 0.136558)
(-0.470842 -0.336843 0.111568)
(-0.458659 -0.350679 0.0943898)
(-0.493086 -0.373193 0.00864874)
(-0.710567 -0.317861 0.0632111)
(-0.717656 -0.529952 0.0389661)
(-0.548894 -0.554465 -0.00174984)
(-0.509806 -0.607138 -0.00400904)
(-0.46559 -0.649411 -0.0174913)
(-0.436841 -0.652661 -0.0211654)
(-0.412787 -0.530959 -0.0230091)
(-0.410971 -0.540937 -0.0484571)
(-0.409845 -0.541387 -0.0344004)
(-0.335362 -0.550459 -0.0170983)
(-0.267404 -0.595932 -0.00732176)
(-0.319438 -0.580935 -0.00350541)
(-0.403308 -0.513041 0.00712143)
(-0.33191 -0.535415 -0.00418539)
(-0.438614 -0.630437 -0.0119109)
(-0.292871 -0.473257 -0.00513065)
(-0.210303 -0.539734 -0.0182859)
(-0.280989 -0.524694 -0.0162186)
(-0.394316 -0.43614 -0.000695823)
(-0.413739 -0.362803 -0.01038)
(-0.260541 -0.394228 -0.0110324)
(-0.156925 -0.422942 -0.0363036)
(-0.13628 -0.399538 -0.0225497)
(-0.238083 -0.205359 0.0224659)
(-0.382466 -0.342911 -0.00193132)
(-0.25164 -0.47464 -0.019644)
(-0.218958 -0.468058 -0.0235408)
(-0.122035 -0.392894 -0.0298747)
(-0.219156 -0.194515 0.0393709)
(-0.346721 -0.337991 0.0123135)
(-0.366092 -0.363346 0.0543342)
(-0.195779 -0.511192 -0.0106791)
(-0.174044 -0.468144 0.018867)
(-0.109985 -0.420294 0.00216216)
(-0.222269 -0.229098 0.0449236)
(-0.325767 -0.341937 0.0525468)
(-0.33504 -0.33903 0.0572381)
(-0.180604 -0.463324 0.0169487)
(-0.109359 -0.409061 0.000369457)
(-0.231953 -0.220513 0.0624247)
(-0.285939 -0.221504 0.0777966)
(-0.240443 -0.230314 0.0715886)
(-0.350287 -0.33708 0.0788002)
(-0.189697 -0.465412 0.0486987)
(-0.117832 -0.415711 0.0377627)
(-0.140537 -0.449775 -0.00350853)
(-0.19651 -0.497708 0.0260076)
(-0.381662 -0.350752 0.0794211)
(-0.334376 -0.625615 -0.00332177)
(-0.355649 -0.632306 -0.0114817)
(-0.499281 -0.512055 0.0580148)
(-0.651223 -0.444894 0.0984028)
(-0.666657 -0.286883 0.136484)
(-0.798051 -0.27169 0.170629)
(-0.890771 -0.320907 0.166558)
(-1.02069 -0.489073 0.126003)
(-1.10753 -0.495368 0.167762)
(-1.13243 -0.502973 0.19293)
(-1.11248 -0.505308 0.215917)
(-1.04923 -0.501567 0.238786)
(-0.943731 -0.490605 0.260657)
(-0.794952 -0.467254 0.287247)
(-0.640439 -0.432132 0.326794)
(-0.397919 -0.380589 0.395332)
(-0.16392 -0.292275 0.482932)
(0.039416 -0.150392 0.486993)
(0.334929 -0.158508 0.428763)
(0.336692 -0.217195 0.379118)
(0.204876 -0.127666 0.488912)
(0.272187 -0.00279356 0.768408)
(0.28312 0.0466766 1.03415)
(0.268135 0.0816926 1.14366)
(0.250114 0.134265 1.09207)
(0.212656 0.123306 0.953714)
(0.142714 0.121027 0.701548)
(0.0404088 0.185812 0.402538)
(0.174329 0.512198 0.42364)
(0.423682 0.514932 0.37322)
(0.611229 0.537149 0.374288)
(0.854246 0.496054 0.350873)
(1.01138 0.416095 0.317763)
(1.07515 0.322921 0.274772)
(1.0593 0.255082 0.235252)
(1.0079 0.211081 0.200109)
(1.02554 0.159004 0.168199)
(1.04099 0.118798 0.145101)
(0.98195 0.0926629 0.0911414)
(0.877739 0.0422186 0.0682722)
(0.712216 -0.0231101 0.0544725)
(0.46701 -0.110202 0.0209543)
(0.239472 -0.216789 -0.0230747)
(0.100159 -0.620777 -0.111477)
(0.176278 -0.383283 -0.0791778)
(-0.18023 -0.171396 0.00521003)
(-0.100398 -0.392497 -0.0409761)
(-0.109699 -0.315632 -0.0671921)
(-0.111885 -0.343448 -0.0752335)
(-0.109137 -0.305252 -0.0647312)
(-0.0760945 -0.231182 -0.0605544)
(-0.149962 -0.18222 -0.0265719)
(-0.226815 0.206015 0.163495)
(-0.138906 0.464004 0.132178)
(-0.048052 0.594077 0.0763646)
(0.0231452 0.65089 0.0729064)
(0.105925 0.67004 0.154968)
(0.200998 0.709532 0.272418)
(0.297806 0.744159 0.328673)
(0.385358 0.741555 0.364602)
(0.4656 0.682024 0.373327)
(0.532119 0.547264 0.370619)
(0.583124 0.330249 0.335)
(0.563674 0.00674747 0.260002)
(0.384605 -0.329292 0.250899)
(0.285248 -0.328793 0.315238)
(0.22031 -0.282894 0.325052)
(0.153808 -0.191581 0.332265)
(0.145086 0.00666941 0.308953)
(0.289907 0.0105098 0.335899)
(0.449654 -0.156752 0.328416)
(0.59997 -0.254214 0.340854)
(0.638832 -0.343417 0.350491)
(0.619694 -0.435605 0.352659)
(0.47403 -0.540826 0.335134)
(0.106465 -0.567361 0.319387)
(-0.170673 -0.301874 0.304774)
(-0.0429536 -0.130296 0.355605)
(0.225642 -0.148571 0.237771)
(0.281827 -0.397928 0.0729181)
(0.00899996 -0.513766 0.236539)
(-0.139777 -0.742363 -0.137917)
(0.20584 -0.717492 -0.478524)
(0.304096 -0.389974 -0.175855)
(0.33167 -0.377027 0.0942316)
(0.344215 -0.549947 0.186655)
(0.325727 -0.891742 0.122304)
(0.527125 -0.871225 0.0652799)
(0.603467 -0.689993 0.0975909)
(0.568032 -0.535928 0.138201)
(0.498273 -0.393585 0.188558)
(0.331214 -0.2284 0.245645)
(0.352716 -0.343465 0.19516)
(0.414263 -0.374013 0.14232)
(0.494997 -0.361174 0.0807126)
(0.598809 -0.289597 -0.0544927)
(0.84868 0.199194 -0.113099)
(0.897798 0.475533 -0.0178095)
(0.844692 0.67065 0.0544772)
(0.743549 0.765839 0.0964818)
(0.610308 0.787988 0.142434)
(0.459561 0.757946 0.156775)
(0.293054 0.697983 0.159381)
(0.121977 0.638518 0.0928983)
(-0.0456656 0.601165 0.0501999)
(-0.163992 0.547994 0.0653194)
(-0.285703 0.431783 0.131361)
(-0.406391 0.212979 0.172769)
(-0.286678 -0.135438 0.0119688)
(-0.400886 -0.0402765 0.0565838)
(-0.483759 0.0186953 0.0854943)
(-0.537338 0.141975 0.12768)
(-0.535923 0.0988227 0.0982431)
(-0.494715 -0.0399245 0.022007)
(-0.455081 -0.102219 0.012434)
(-0.390093 -0.159132 -0.0109166)
(-0.295071 -0.218814 -0.0255593)
(-0.190845 -0.252258 -0.0394389)
(-0.142076 -0.226251 -0.0318492)
(-0.197551 -0.191244 -0.024616)
(-0.18185 -0.341741 -0.0409354)
(-0.122304 -0.337221 -0.0493661)
(-0.100043 -0.356566 -0.077134)
(-0.0776047 -0.393176 -0.111826)
(-0.0474817 -0.575863 -0.228583)
(-0.0858408 -0.516002 -0.157856)
(-0.100009 -0.63079 -0.125323)
(-0.145509 -0.637065 -0.0861379)
(-0.186248 -0.559059 -0.0736042)
(-0.285121 -0.380852 -0.0374308)
(-0.26903 0.133463 0.105481)
(-0.114169 0.371959 0.269027)
(-0.0149207 0.461415 0.410207)
(0.0614922 0.469426 0.539107)
(0.134155 0.411265 0.614239)
(0.186276 0.305038 0.647576)
(0.23729 0.157649 0.622811)
(0.226546 -0.0131263 0.524297)
(0.0953866 -0.131807 0.421266)
(-0.0185969 -0.0981466 0.434348)
(-0.0376761 0.0231815 0.411951)
(-0.0356617 0.145409 0.415614)
(0.0386 0.250401 0.356374)
(0.201429 0.137933 0.372392)
(0.158305 0.274916 0.4423)
(-0.0611656 0.167045 -0.0822557)
(-0.174924 -0.0684569 -0.636421)
(-0.182127 -0.306249 -0.530154)
(-0.168841 -0.341981 -0.299171)
(-0.145501 -0.300814 -0.0926533)
(-0.0626201 -0.583727 -0.104495)
(-0.0285475 -0.861018 -0.0922936)
(0.00165428 -1.0187 -0.0903233)
(0.0318489 -1.14278 -0.0999708)
(0.0649814 -1.22642 -0.114292)
(0.0954841 -1.27915 -0.128221)
(0.122205 -1.30572 -0.140177)
(0.146325 -1.31434 -0.152213)
(0.16735 -1.31241 -0.164735)
(0.185675 -1.30348 -0.175564)
(0.201287 -1.2891 -0.184081)
(0.215154 -1.26973 -0.189256)
(0.227421 -1.24502 -0.191993)
(0.238628 -1.21361 -0.190845)
(0.248191 -1.17412 -0.185634)
(0.253956 -1.12425 -0.174789)
(0.251114 -1.06138 -0.158112)
(0.194332 -0.997925 -0.138322)
(0.139487 -0.912747 -0.122223)
(0.164027 -0.828542 -0.0865927)
(0.187266 -0.727848 -0.0877967)
(0.20339 -0.559124 -0.0877004)
(0.24604 -0.44198 -0.0840857)
(0.0717762 -0.0303098 -0.094976)
(0.365376 -0.297806 0.0437947)
(0.245207 -0.550193 -0.0566582)
(0.285405 -0.0944612 -0.0265841)
(0.180097 -0.0366805 -0.146668)
(0.201069 -0.112287 -0.123727)
(0.193922 -0.119175 -0.0796763)