/*--------------------------------*- C++ -*----------------------------------*\
| =========                 |                                                 |
| \\      /  F ield         | OpenFOAM: The Open Source CFD Toolbox           |
|  \\    /   O peration     | Version:  v2012                                 |
|   \\  /    A nd           | Website:  www.openfoam.com                      |
|    \\/     M anipulation  |                                                 |
\*---------------------------------------------------------------------------*/
FoamFile
{
    version     2.0;
    format      ascii;
    class       volScalarField;
    location    "525";
    object      epsilon;
}
// * * * * * * * * * * * * * * * * * * * * * * * * * * * * * * * * * * * * * //

dimensions      [0 2 -3 0 0 0 0];


internalField   nonuniform List<scalar> 
18258
(
0.0242854
0.0123788
0.00925719
0.00729715
0.0127346
0.012654
0.013106
0.0174669
0.0243124
0.0371771
0.0537523
0.0482645
0.0436029
0.0453161
0.0474622
0.045022
0.0350385
0.0302913
0.0398722
0.0665934
0.0609193
0.0497767
0.0609589
0.0515185
0.0657926
0.0831895
0.0637321
0.0573238
0.0514661
0.0484308
0.0418641
0.0238322
0.0345082
0.0531949
0.0727206
0.0795293
0.0852794
0.0901171
0.0953098
0.0974399
0.0976778
0.0924185
0.0831834
0.0680099
0.0499666
0.0384274
0.0300793
0.0313473
0.0440395
0.0447118
0.0553296
0.0850851
0.107525
0.0807097
0.0517323
0.0824365
0.11237
0.144105
0.170604
0.193041
0.200754
0.197335
0.185815
0.169097
0.147665
0.122693
0.101711
0.0847941
0.0670188
0.0572209
0.0462704
0.0383585
0.0327906
0.0291287
0.026925
0.0252068
0.024047
0.0249728
0.0248569
0.0177284
0.0139431
0.0130939
0.00936445
0.00778135
0.00809303
0.00769772
0.0079949
0.00705649
0.00604612
0.00525272
0.0044585
0.00649972
0.00699765
0.00723976
0.00725943
0.00777721
0.0080158
0.00774911
0.00784116
0.0071638
0.0075984
0.0120666
0.0137843
0.0174839
0.0156846
0.0109801
0.00899854
0.0100451
0.010652
0.0132694
0.0125429
0.0133102
0.0118042
0.0107916
0.00910489
0.00882849
0.00905269
0.00962242
0.0100153
0.0116286
0.0114664
0.0106453
0.0117646
0.012974
0.0126971
0.0121529
0.0115676
0.0141992
0.0113971
0.0120779
0.0135702
0.0218666
0.0213961
0.0258942
0.025417
0.0258467
0.0260248
0.0313994
0.0315209
0.0319053
0.0322235
0.0339939
0.0568915
0.0506723
0.0495535
0.0493572
0.0426878
0.0422325
0.0415571
0.0423723
0.0358778
0.0345327
0.0313248
0.030971
0.0345639
0.0436535
0.0610993
0.0883105
0.122213
0.158522
0.188786
0.209772
0.231515
0.236919
0.250831
0.255576
0.25652
0.250892
0.242511
0.233083
0.220267
0.201737
0.188938
0.148552
0.105163
0.059092
0.078455
0.0904856
0.100206
0.10206
0.103183
0.0990913
0.0928597
0.0817147
0.0662353
0.0431087
0.048502
0.0658052
0.0681847
0.0689626
0.0547355
0.05272
0.0489944
0.0490038
0.0644424
0.0738965
0.0620881
0.0858018
0.100847
0.0882067
0.0640014
0.0980053
0.143946
0.0808931
0.0687453
0.0531444
0.0521175
0.0440104
0.0370733
0.062818
0.0938187
0.128786
0.149889
0.171657
0.18924
0.202538
0.216642
0.188292
0.171047
0.115087
0.201614
0.152873
0.0772113
0.0570673
0.0556152
0.0445263
0.0505841
0.0559116
0.0517772
0.0398615
0.0276341
0.0249344
0.0467215
0.0652054
0.0788138
0.0626333
0.0796949
0.0900319
0.0973649
0.102742
0.130484
0.0962333
0.106485
0.0762861
0.103483
0.07344
0.0472677
0.0525401
0.100398
0.160368
0.219909
0.257034
0.146068
0.0738498
0.0548071
0.0549182
0.0529685
0.047903
0.0595487
0.106043
0.0717538
0.0465522
0.0403844
0.0476926
0.041248
0.0306468
0.0321872
0.039707
0.0551587
0.0690848
0.0819401
0.125267
0.121362
0.146598
0.153902
0.129677
0.125361
0.0808997
0.08303
0.122504
0.0913109
0.0737948
0.10371
0.146765
0.200776
0.246874
0.287069
0.312789
0.302502
0.273775
0.173207
0.0758266
0.0228474
0.0177847
0.0168413
0.0173132
0.0105184
0.00628811
0.00583376
0.00663926
0.00699581
0.00590954
0.00544244
0.00543439
0.005773
0.0101767
0.00874789
0.0108192
0.0131048
0.015647
0.0186842
0.0194074
0.0128756
0.0087145
0.00817728
0.00811232
0.00804254
0.00801204
0.00802224
0.0080609
0.00807506
0.00804127
0.00796168
0.00782436
0.00768908
0.0076321
0.00826678
0.0111506
0.0153096
0.0148125
0.0135263
0.0121749
0.0110188
0.0086953
0.0151176
0.0128224
0.0109147
0.0133624
0.0164571
0.0207948
0.0244286
0.017617
0.0141025
0.0127613
0.0126334
0.0125163
0.0125576
0.012431
0.0124898
0.0122847
0.0128702
0.0135433
0.016944
0.0189722
0.0211618
0.0226702
0.0232644
0.0239829
0.0211249
0.0229773
0.0227178
0.0234959
0.02331
0.0226171
0.0206928
0.018895
0.017668
0.0190755
0.0236261
0.0322437
0.0266465
0.0206746
0.0167244
0.0136754
0.0149487
0.0166214
0.0167955
0.0158089
0.0155821
0.0153745
0.0138512
0.0130534
0.0110631
0.0104557
0.0100043
0.0101613
0.0143566
0.0134914
0.0136762
0.0143967
0.0154699
0.0146314
0.0150643
0.0142359
0.0144832
0.0149026
0.016977
0.0185258
0.0177708
0.0164664
0.0159677
0.0136995
0.0157998
0.0156592
0.0169797
0.0185598
0.0190479
0.0189837
0.0183481
0.0167505
0.0186394
0.0220014
0.025648
0.0246536
0.0243377
0.0204079
0.0192163
0.0201925
0.0214677
0.0223738
0.0224399
0.0222534
0.0223228
0.0262914
0.0258917
0.024704
0.0226298
0.020178
0.0175243
0.015122
0.0165981
0.0180786
0.0194688
0.0207373
0.0205195
0.0189884
0.017629
0.0163979
0.014905
0.0146253
0.0160788
0.017302
0.0187361
0.0204576
0.0205428
0.0188221
0.0173229
0.0160384
0.0145639
0.0145195
0.0160208
0.0173218
0.018743
0.0202332
0.0196016
0.018443
0.017189
0.0159441
0.0144907
0.0145598
0.0158823
0.016953
0.0180386
0.0189907
0.0198379
0.0178786
0.0169672
0.0170557
0.0160669
0.0192415
0.0184872
0.0194292
0.0179812
0.0167624
0.0177684
0.0209528
0.0239787
0.0245285
0.0242482
0.020121
0.0205764
0.0205536
0.0191403
0.0159255
0.0153272
0.0180836
0.0208051
0.0212637
0.0199663
0.0168835
0.0132539
0.0142675
0.0174117
0.0197141
0.0184643
0.0183071
0.0168998
0.0158202
0.0161144
0.0138331
0.0165695
0.0265865
0.0240525
0.0220262
0.0195464
0.0155606
0.0105422
0.0114358
0.0125829
0.0129966
0.0105099
0.00787387
0.00707119
0.00687915
0.00672143
0.00650266
0.00613337
0.00557518
0.00538483
0.0107509
0.0264023
0.036639
0.0359274
0.0241835
0.0209398
0.0204022
0.0193581
0.00983077
0.00827302
0.00851178
0.0104247
0.00817884
0.00888772
0.01538
0.0103988
0.0141651
0.0109055
0.0146449
0.0230648
0.0219843
0.0146972
0.00805095
0.00685413
0.00733708
0.00762693
0.00783027
0.00802598
0.00825809
0.00864167
0.00995543
0.0156437
0.0201912
0.0176597
0.0166665
0.0152049
0.0187312
0.0212143
0.0231557
0.0259174
0.0160372
0.0117319
0.016568
0.0271443
0.0246296
0.0231674
0.0170629
0.0176045
0.0170466
0.0109585
0.0106174
0.0105398
0.0113504
0.0127275
0.0146483
0.0158196
0.0165709
0.0168987
0.0178048
0.023081
0.0216037
0.0210988
0.0173401
0.0133322
0.0153169
0.0513254
0.0195007
0.0206142
0.0188641
0.0191412
0.0204246
0.0151553
0.0135252
0.012937
0.0146226
0.021483
0.0214869
0.0213407
0.0182005
0.0174132
0.0208317
0.0219273
0.0223375
0.021713
0.0212595
0.0193974
0.0166306
0.0180571
0.0195701
0.020755
0.0227593
0.023107
0.0178858
0.0171636
0.0157802
0.0104994
0.011242
0.00968351
0.00965264
0.00961569
0.00934047
0.00889375
0.00918276
0.00930153
0.00930031
0.00895714
0.00925202
0.00831018
0.0086463
0.00973366
0.0151673
0.0147383
0.0175328
0.0194432
0.016696
0.0155403
0.0141822
0.0131631
0.0154054
0.0142432
0.0168152
0.0211507
0.0264193
0.0190656
0.0180692
0.017843
0.0174358
0.017277
0.0173262
0.0166388
0.0156444
0.0150823
0.0235176
0.0212299
0.018116
0.0171704
0.0157416
0.0179848
0.0174303
0.0213118
0.0267709
0.0269712
0.0214765
0.0215516
0.0189102
0.0200108
0.0221867
0.0270011
0.0269271
0.0143873
0.0095612
0.0153876
0.0157279
0.0183337
0.0169562
0.0184788
0.0196544
0.0203796
0.0202406
0.0176484
0.0188193
0.0196058
0.020591
0.0185444
0.0165413
0.017327
0.0161076
0.015211
0.014715
0.0126477
0.0128881
0.013853
0.0152993
0.0162397
0.0177267
0.0193728
0.0194061
0.0200696
0.0196634
0.0190745
0.025154
0.0239153
0.0254553
0.0281567
0.0223809
0.017764
0.0146508
0.0149587
0.0147236
0.0146301
0.015376
0.0167313
0.0151099
0.0144947
0.0169942
0.0193425
0.024598
0.0329132
0.028643
0.0261089
0.0331365
0.0313274
0.0381323
0.0285939
0.0280828
0.0207922
0.0262334
0.030465
0.0391076
0.0254446
0.0208997
0.0223698
0.0255035
0.034724
0.032717
0.0330572
0.0411033
0.0398812
0.0361534
0.0311363
0.0352648
0.0211872
0.0301388
0.0321641
0.0267831
0.0256483
0.0306639
0.0310033
0.0329517
0.0283403
0.0267191
0.0178659
0.0273629
0.0312914
0.0329906
0.0277501
0.0205041
0.027953
0.020495
0.0191324
0.0202438
0.0137306
0.0126823
0.0147524
0.013827
0.0111608
0.0121036
0.0111219
0.0111048
0.011181
0.0112902
0.0114155
0.0116622
0.0116168
0.0125967
0.0132636
0.0125307
0.011494
0.012184
0.0125963
0.0160999
0.0181911
0.0204655
0.0220661
0.0229099
0.0240433
0.0226838
0.0248057
0.023688
0.0251786
0.0248752
0.0237938
0.0212514
0.018608
0.0162565
0.0169416
0.0206787
0.0273802
0.0224714
0.017426
0.0141283
0.0117263
0.0130115
0.0163115
0.00878466
0.00800058
0.00770458
0.00754189
0.00745225
0.00667193
0.00582645
0.00654785
0.0123304
0.0161298
0.0207312
0.0266615
0.0325668
0.0376319
0.0415715
0.0445261
0.0464672
0.0470674
0.0444599
0.0341908
0.0293456
0.0251103
0.0206692
0.0167132
0.0168406
0.0245813
0.0322452
0.039754
0.0463429
0.0512438
0.0492888
0.032944
0.0299596
0.0465232
0.0783232
0.0742772
0.0975612
0.111044
0.06283
0.0463021
0.0451301
0.0620822
0.0647716
0.0568527
0.0469454
0.0367157
0.0264824
0.0311231
0.0357108
0.0401332
0.0448227
0.0582824
0.0608767
0.0594148
0.0564315
0.0527013
0.0480124
0.0414647
0.0334523
0.0251449
0.0185411
0.013412
0.00733554
0.00757238
0.00775465
0.00733925
0.00794523
0.00809251
0.0089161
0.00860568
0.00880371
0.00858167
0.00861372
0.0076331
0.00681025
0.0102483
0.00964854
0.00965787
0.0103567
0.0134185
0.0102114
0.00742117
0.00695734
0.00696535
0.0088799
0.019687
0.0258599
0.0307164
0.0351303
0.0379473
0.0367679
0.033636
0.0283457
0.0225386
0.0202869
0.0171289
0.0145192
0.0132207
0.0144832
0.0118961
0.00587272
0.00522196
0.00574869
0.00559793
0.00511981
0.00616702
0.00686555
0.00748405
0.00790954
0.00821969
0.00827634
0.00820941
0.00811348
0.00806364
0.00803781
0.00800338
0.00793236
0.00783089
0.00768327
0.00754242
0.0074752
0.00806642
0.0106865
0.0146257
0.0143995
0.0132842
0.0121741
0.0113133
0.00959518
0.0154587
0.0131212
0.0110016
0.0101722
0.0100258
0.0103195
0.0112632
0.0128762
0.0137867
0.0157795
0.015823
0.0157227
0.01603
0.0158187
0.0133459
0.0151256
0.0177075
0.0185116
0.0190972
0.0188623
0.0173232
0.019344
0.0204954
0.0199709
0.0193789
0.0166583
0.0194119
0.0232342
0.0236601
0.0238931
0.0212151
0.0183739
0.0215408
0.0227201
0.0223656
0.0232756
0.0215961
0.0223605
0.0278472
0.0144946
0.0134831
0.00825869
0.00897934
0.0093092
0.00909619
0.00877788
0.00911189
0.00931472
0.00895297
0.00964076
0.0099543
0.00922938
0.0118456
0.0109251
0.0105687
0.00999423
0.0103672
0.0108885
0.011178
0.0125315
0.0199715
0.0205249
0.0184729
0.0211302
0.0217229
0.0181039
0.0206235
0.0215358
0.0218806
0.0222576
0.0236758
0.0221347
0.0244496
0.0237624
0.0222543
0.0215083
0.0382128
0.0251912
0.0165881
0.0153002
0.0149262
0.0149626
0.0168235
0.0125131
0.0140544
0.00982999
0.00851858
0.008157
0.00789908
0.00873947
0.0119061
0.0190549
0.0255058
0.0277098
0.0266053
0.023494
0.0182868
0.013883
0.0134483
0.0120434
0.0111632
0.0109571
0.00730178
0.0051685
0.00654511
0.00662153
0.00720879
0.00762133
0.00795571
0.00820494
0.008338
0.00840083
0.00847101
0.00857759
0.00869406
0.00879304
0.00886893
0.00892146
0.00897778
0.00909039
0.00938782
0.0105768
0.0152364
0.019664
0.0185765
0.0171155
0.0158028
0.0165626
0.0173202
0.0180742
0.0222799
0.0191321
0.0220412
0.020661
0.0196665
0.0182633
0.0189893
0.0207814
0.0165116
0.0164269
0.0111804
0.00976383
0.00939543
0.00919042
0.00903243
0.00887854
0.00873612
0.00860769
0.00848506
0.00837808
0.00829479
0.00821547
0.00808196
0.0078459
0.00745395
0.00703018
0.00621904
0.00683012
0.00742269
0.00835777
0.00952335
0.0101605
0.00961267
0.00881182
0.00840514
0.00847304
0.00862951
0.00880981
0.00901796
0.00930863
0.00976989
0.0107302
0.0114061
0.0160736
0.0167946
0.0201617
0.0199782
0.0178839
0.0172371
0.0188509
0.0173964
0.0126981
0.0174225
0.0169244
0.02112
0.0156258
0.014726
0.015104
0.015574
0.0183027
0.0172073
0.0157403
0.0157246
0.0126694
0.014211
0.0162107
0.017729
0.0279732
0.0273726
0.0345364
0.034511
0.0596508
0.056693
0.0499319
0.0541273
0.0237999
0.0465953
0.0545397
0.0496444
0.0430387
0.0273954
0.0438836
0.0669315
0.0970212
0.0698687
0.0571218
0.106359
0.0771102
0.03749
0.0266617
0.015054
0.0151435
0.0251405
0.0292128
0.0241958
0.023333
0.0335794
0.0349537
0.0281104
0.0288186
0.0312103
0.0301547
0.03262
0.0282079
0.0275475
0.015564
0.012766
0.0137843
0.0154986
0.0164878
0.0159739
0.0168182
0.0174984
0.0160738
0.015062
0.0145158
0.0124608
0.013215
0.0161952
0.0204081
0.0239106
0.0172557
0.0138567
0.0125544
0.0123604
0.0121355
0.0120197
0.0117039
0.0115234
0.0110604
0.011274
0.00981868
0.00982826
0.0103582
0.0105145
0.0107122
0.0108638
0.0109805
0.0110889
0.0119661
0.0187427
0.0259455
0.0207633
0.0164622
0.0139903
0.0151716
0.017084
0.0209731
0.0263849
0.0178141
0.0176308
0.0114864
0.0106992
0.0104957
0.0103312
0.0101842
0.0100921
0.0101571
0.0101629
0.0118877
0.0114911
0.0134169
0.0145109
0.0119993
0.0115774
0.0111151
0.0108364
0.010685
0.0106058
0.0106992
0.0115619
0.0113938
0.010464
0.0103666
0.0104832
0.0106941
0.011016
0.0114651
0.0119747
0.0128879
0.012644
0.0111621
0.0112005
0.0105515
0.0102423
0.0100098
0.00998327
0.0100317
0.0101684
0.0103854
0.0112968
0.017088
0.0172687
0.0265896
0.026579
0.0211331
0.0176726
0.0155264
0.0142773
0.0135489
0.0352014
0.0309241
0.0490372
0.0390716
0.0312601
0.0507657
0.0723013
0.0561352
0.0915531
0.0989092
0.0727999
0.0660129
0.0209446
0.015955
0.015443
0.0169266
0.0186101
0.0212325
0.0218256
0.0266265
0.0287266
0.0171433
0.0164654
0.015533
0.0248501
0.0230333
0.0196605
0.0177845
0.0164054
0.0189517
0.0207365
0.0149336
0.0149742
0.00964434
0.0106397
0.0103932
0.0100566
0.00994178
0.00986774
0.00990033
0.00999914
0.0102803
0.0107756
0.0111521
0.0112977
0.0116148
0.0114106
0.0111273
0.0107888
0.0105866
0.0103887
0.0102297
0.0101089
0.0101433
0.0104611
0.0106085
0.00930975
0.00965288
0.00976177
0.00977781
0.00981677
0.00979321
0.00967307
0.00948775
0.00931516
0.00912505
0.00917174
0.0099236
0.0100398
0.0100887
0.00993409
0.00982485
0.00982203
0.00976888
0.00976211
0.00975341
0.0096289
0.00931107
0.00858904
0.00844582
0.00904976
0.00939854
0.0095805
0.00966437
0.00963459
0.00956135
0.00932174
0.0091438
0.00894393
0.00862537
0.00822154
0.00689241
0.00714822
0.00749029
0.00796256
0.00845073
0.00887844
0.00916272
0.00930789
0.00938699
0.00929913
0.00900647
0.00848155
0.00842945
0.00882113
0.00900665
0.00897652
0.00873135
0.00834551
0.00780186
0.00711981
0.00645358
0.00593432
0.00567325
0.00526769
0.00660546
0.00715812
0.00768015
0.00817093
0.00864751
0.00916824
0.00939343
0.00947403
0.00945242
0.00929469
0.00896034
0.00843095
0.00844192
0.008921
0.00923547
0.00936393
0.00935384
0.00914293
0.0087126
0.00780685
0.00700739
0.00636936
0.0058051
0.00523951
0.00505709
0.00530893
0.00511878
0.00536065
0.00595587
0.00676155
0.00753343
0.00811677
0.0085237
0.00869233
0.00863166
0.00837548
0.00828144
0.00841264
0.00836795
0.00807805
0.00752556
0.00679037
0.00598575
0.00533815
0.00512668
0.00543297
0.00576794
0.00546033
0.00439779
0.0049361
0.00547108
0.00604849
0.00695216
0.0081266
0.00874246
0.00907016
0.00923529
0.00917245
0.00888164
0.00843918
0.00842375
0.00884915
0.00913034
0.00917383
0.0090343
0.00871678
0.00819128
0.00676405
0.00533045
0.00472666
0.00439612
0.00395393
0.00553523
0.00589607
0.00547386
0.00520401
0.00564617
0.00620912
0.0068577
0.0073846
0.00781093
0.00810668
0.008198
0.00815709
0.00802834
0.00804141
0.00799433
0.0077906
0.00752941
0.00729645
0.00683639
0.00637619
0.0058651
0.00641963
0.00671241
0.00628583
0.00466307
0.0049524
0.00535605
0.00559599
0.00700647
0.00844395
0.00888916
0.00907458
0.00922483
0.00916416
0.00884903
0.00840593
0.00839319
0.00891616
0.00931073
0.00943278
0.00951029
0.00954607
0.00959092
0.00842328
0.00659033
0.00619546
0.0052691
0.00481725
0.0066002
0.00703427
0.00684071
0.00657272
0.00748729
0.00787977
0.00804005
0.00807535
0.00810631
0.00808754
0.00799289
0.007915
0.00780287
0.00825164
0.00889065
0.00878667
0.00867604
0.00850068
0.00812895
0.00767851
0.00719002
0.00785525
0.00840811
0.00813477
0.00596316
0.00633632
0.0071477
0.00726256
0.00873028
0.00993067
0.0102987
0.0103521
0.010284
0.0102841
0.00928521
0.00836057
0.00821426
0.00956803
0.0155356
0.0153868
0.0154405
0.0153866
0.0148069
0.0146408
0.0140699
0.0138172
0.0131119
0.0126648
0.0119717
0.0140315
0.0177977
0.0198957
0.0222777
0.0247876
0.0234573
0.0189471
0.0167118
0.0101623
0.00802099
0.00692582
0.00599496
0.00529474
0.00509222
0.0075659
0.00944429
0.0116531
0.0136608
0.0139633
0.0164192
0.0204002
0.0310532
0.0493503
0.0416949
0.0393822
0.0402589
0.101109
2.55805
2.77199
2.51357
2.92232
3.34736
0.406148
0.155727
0.290663
0.31197
0.349603
0.327321
0.294376
0.267203
0.27254
0.261312
0.269423
0.250474
0.257534
0.224632
0.229573
0.23221
0.661265
1.02487
1.23942
1.73204
1.73859
1.96077
1.91443
1.93452
1.78827
1.90461
1.65525
1.37266
1.29642
1.22367
1.31343
1.42761
1.23927
1.12419
1.00983
0.919957
0.78813
1.00002
0.759155
0.717676
0.716348
0.748399
0.996849
0.907152
1.04525
0.977313
1.03076
0.630338
0.71032
0.523746
0.437075
0.36164
0.441323
0.596259
0.791412
0.976372
0.739138
0.995412
0.911094
0.892498
0.850049
0.775332
0.736159
0.723747
0.744807
0.757301
0.772372
0.799792
0.820634
0.838448
0.988978
1.05267
1.04238
0.854485
0.76496
0.52969
0.567223
0.601684
0.60545
0.564922
0.546208
0.494353
0.481783
0.436717
0.418121
0.379692
0.360917
0.328876
0.454159
0.777483
0.806975
0.876219
0.929612
0.978927
1.00069
1.01681
0.999337
0.965691
0.896965
0.867565
0.805277
0.911834
1.09578
1.09569
1.00828
0.856589
0.811966
3.76853
4.58067
3.03357
6.53246
9.90618
16.5952
7.60133
2.07633
3.46936
2.38448
2.1176
2.0649
2.18007
3.43542
2.51322
3.29398
2.72927
2.90719
2.26318
2.61398
2.51649
1.93637
1.6342
1.38497
1.28739
1.03843
1.04402
0.842201
0.784195
0.702077
0.575165
0.696358
0.688233
1.62703
2.27271
2.83516
4.4492
4.88796
5.34066
8.43948
6.8437
8.58155
5.10522
5.14949
3.80788
3.58278
3.62197
4.98185
7.11246
4.90173
8.55279
4.77155
15.5115
34.6967
9.21399
19.0386
10.9901
9.94411
9.5897
9.88507
14.0527
9.56915
15.5846
13.073
17.4202
16.8665
18.1445
14.2461
10.5637
11.6425
12.5523
16.0735
11.4965
13.4484
10.2339
10.0082
9.22927
7.59157
6.64253
5.0591
5.92734
6.96339
7.91459
12.5194
15.7226
18.0804
21.7986
16.116
18.3895
11.0717
12.1334
9.37667
8.79528
8.92506
11.7423
20.8628
14.7897
26.9975
0.496647
0.225902
0.544461
0.229562
0.487546
0.390876
0.403519
0.404521
0.400176
0.462042
0.220342
0.185223
0.177453
0.175293
0.176791
0.100246
0.124438
0.0804163
0.126892
0.229056
0.502874
0.364959
0.140413
0.0825847
0.0545976
0.0429537
0.0634736
0.0612752
0.0979938
0.099359
0.105686
0.132212
0.228115
0.433511
31.7637
7.13564
1.12914
0.528139
0.282818
0.173176
0.147965
0.167018
0.179383
0.181861
0.170596
0.144882
0.104094
0.0691974
0.0465734
0.0390972
0.0284842
0.0283285
0.0393655
0.0529718
0.0490099
0.0646716
0.083058
0.105787
0.129924
0.149139
0.163597
0.167616
0.155685
0.121865
0.0801559
0.0442319
0.0265085
0.0228831
0.020964
0.0194705
0.0168321
0.0146515
0.0132172
0.0112894
0.00994614
0.00896787
0.00864457
0.00876334
0.00955782
0.0120883
0.0145457
0.0188305
0.0179463
0.0134368
0.0126105
0.00781123
0.00722243
0.00737013
0.00762082
0.00845466
0.0132336
0.0135392
0.0134161
0.0134379
0.0132527
0.0132237
0.0130498
0.0128652
0.0126429
0.0122117
0.0119217
0.0114024
0.0111271
0.0104937
0.0105206
0.010901
0.0112057
0.0101518
0.0100525
0.00934447
0.0199665
0.0479976
0.0697164
0.0782014
0.0880233
0.080809
0.0416398
0.0227321
0.00784007
0.00770993
0.00820094
0.008836
0.00839006
0.00617233
0.00671291
0.00784537
0.0109676
0.0108333
0.0108626
0.0126276
0.013138
0.0145118
0.0150498
0.0154759
0.0157095
0.0157228
0.0158718
0.015658
0.0157712
0.0156097
0.0157094
0.0153184
0.0271965
0.0255911
0.0262575
0.0262397
0.0273124
0.0267661
0.0261987
0.0252155
0.0244509
0.0229492
0.0213426
0.0198264
0.0177847
0.0185481
0.017937
0.0112174
0.0106617
0.00770075
0.00773942
0.00743789
0.0102659
0.00934229
0.00785618
0.00924203
0.00677781
0.00696638
0.00727383
0.0103447
0.0108688
0.0172635
0.0172067
0.0152144
0.0161394
0.0171554
0.0184436
0.0196095
0.0210142
0.0220491
0.0231404
0.0250099
0.0254663
0.0238553
0.023574
0.0225188
0.0244615
0.0234611
0.0217126
0.023224
0.0247844
0.0271701
0.0268028
0.0246668
0.0233519
0.0219241
0.0196364
0.0170279
0.0156945
0.0147303
0.0147689
0.013782
0.0161458
0.0146225
0.0101376
0.0103927
0.00787663
0.00631393
0.00604031
0.00918242
0.0130268
0.0278897
0.0173762
0.00930806
0.0102788
0.0164745
0.0339938
0.0195885
0.0318776
0.0141187
0.0143033
0.0125617
0.0124717
0.0137508
0.0160201
0.0170317
0.0206354
0.0232628
0.0252389
0.0261299
0.0274696
0.0278535
0.0292608
0.0296964
0.0323563
0.032616
0.0327171
0.0322684
0.0300344
0.0270146
0.0249417
0.0307862
0.0356226
0.0387178
0.0410907
0.0434499
0.0421743
0.0385363
0.0376815
0.0357803
0.034684
0.0332746
0.0302161
0.0264203
0.0216689
0.0211328
0.0270874
0.0327789
0.0490001
0.052756
0.0524959
0.0548205
0.0553033
0.0570308
0.0574493
0.060078
0.0606372
0.0617777
0.0621053
0.0672437
0.0681175
0.0691257
0.0694401
0.0692092
0.0702196
0.0702617
0.0477335
0.0428215
0.0389738
0.0323922
0.0271926
0.0344628
0.0428689
0.0479122
0.0731295
0.0736304
0.0773585
0.0799623
0.0849218
0.088611
0.0935329
0.09805
0.102508
0.105984
0.108105
0.108517
0.109041
0.108171
0.106918
0.115749
0.150303
0.166845
0.197425
0.212463
0.225187
0.229361
0.220473
0.224136
0.215896
0.21836
0.211913
0.209758
0.204302
0.197745
0.194039
0.187489
0.18335
0.211334
0.159604
0.122485
0.0818048
0.065904
0.0582506
0.0537909
0.0574378
0.0442786
0.0375729
0.0569739
0.0521506
0.041468
0.0276404
0.0187081
0.0318595
0.0473001
0.0640948
0.0813199
0.0970723
0.10736
0.109907
0.10878
0.104084
0.0963138
0.0812363
0.0612889
0.0422466
0.034924
0.0322528
0.0282656
0.0222888
0.01791
0.0157808
0.0141857
0.0124092
0.0111503
0.0105907
0.0107313
0.0110381
0.0132346
0.0173121
0.0173054
0.011597
0.0111675
0.00768109
0.00776701
0.00802151
0.0133523
0.0134937
0.0209313
0.0233694
0.0220063
0.022684
0.0224108
0.0226939
0.0223178
0.0211245
0.0202803
0.0193118
0.0184709
0.0177381
0.0169291
0.0161607
0.0174751
0.0164446
0.0138705
0.0139671
0.0145658
0.0151984
0.0160799
0.0173307
0.0184091
0.0210989
0.0212924
0.020799
0.0208982
0.0194448
0.0187372
0.0199999
0.0195332
0.0133014
0.0131315
0.0191737
0.0188204
0.0186972
0.0224964
0.0209029
0.021429
0.0225551
0.0224204
0.0194857
0.0181274
0.0165865
0.0154135
0.0140516
0.0125529
0.0121983
0.0149441
0.013213
0.0108307
0.0119965
0.0144072
0.0170197
0.0184713
0.020451
0.0231622
0.0241218
0.0263447
0.0277569
0.0298443
0.0306818
0.0354819
0.0361669
0.0340555
0.0322071
0.0312012
0.0274387
0.0235037
0.0259223
0.0267906
0.0271654
0.0272472
0.0271146
0.0235424
0.0231102
0.0215979
0.0210835
0.0195232
0.0189681
0.0178132
0.0170591
0.016047
0.0142199
0.0134537
0.0126472
0.0123013
0.0173697
0.0108337
0.0106038
0.0159991
0.00986338
0.0116073
0.0113567
0.0118643
0.0125012
0.0103606
0.015163
0.0103437
0.0112242
0.0114327
0.0142915
0.00984406
0.0193266
0.0613179
0.0913967
0.110184
0.200633
0.241274
0.26188
0.28269
0.297161
0.313173
0.330877
0.348628
0.36181
0.363376
0.337965
0.319614
0.254959
0.228334
0.252195
0.282455
0.194987
0.167322
0.169678
0.170616
0.173297
0.174644
0.178428
0.176461
0.181705
0.177374
0.18484
0.178871
0.185555
0.177953
0.162387
0.145646
0.112771
0.101883
0.0656926
0.0508602
0.0397991
0.0288645
0.0210199
0.0188567
0.0178435
0.0164824
0.0165668
0.0126981
0.0131079
0.00839422
0.00615295
0.00986057
0.00971233
0.00720819
0.00984289
0.011244
0.0117618
0.0123009
0.0125917
0.0192625
0.0193017
0.0247294
0.0246046
0.0291724
0.0347673
0.0360178
0.0396772
0.0570166
0.0575111
0.0572565
0.0570424
0.0565995
0.0494014
0.0491201
0.0480162
0.047428
0.0444993
0.0439471
0.0418807
0.0407519
0.0378255
0.0370068
0.0358757
0.0362827
0.0397995
0.0539319
0.0951681
0.0288337
0.0272389
0.0200867
0.0144903
0.0211434
0.015882
0.0153696
0.0135858
0.0186846
0.0134347
0.0136942
0.0164916
0.0169962
0.0163704
0.0212239
0.0264887
0.0232587
0.0255282
0.113605
0.0711635
0.0235349
0.0464608
0.0701967
0.155512
0.202861
0.13838
0.158256
0.182496
0.165521
0.138863
0.10793
0.0806347
0.0566977
0.0432251
0.0114259
0.0133108
0.0183627
0.0398087
0.0592247
0.101107
0.0828784
0.108405
0.14822
0.17262
0.208593
0.199928
0.171825
0.147849
0.145001
0.160671
0.161472
0.103491
0.100419
0.0767898
0.173014
0.21867
0.183772
0.230637
0.242783
0.140169
0.0312719
0.0183342
0.0151007
0.0138994
0.0124262
0.0194049
0.0114328
0.0116345
0.0123409
0.0132683
0.0169149
0.0293865
0.0134048
0.0149037
0.0183326
0.0158969
0.014963
0.0146225
0.0145468
0.0151852
0.0165619
0.0215818
0.0216321
0.0212569
0.0159671
0.0172488
0.0156668
0.0199518
0.0211555
0.0332793
0.0152267
0.0161641
0.0214186
0.474791
0.0245462
0.0177917
0.0231485
0.0218191
0.0300121
0.0441405
0.455818
0.0436956
0.0350165
0.0585932
0.060911
0.065565
0.069226
0.0727146
0.075235
0.0791559
0.0818322
0.0830395
0.084253
0.0999136
0.0999772
0.0989133
0.103522
0.097686
0.0577068
0.0579347
0.0975357
0.105299
0.0594737
0.0410694
0.0385505
0.0312622
0.0324057
0.041944
0.0440152
0.0617045
0.061543
0.102687
0.0936268
0.0950369
0.0967604
0.0917179
0.0921644
0.0942659
0.0941382
0.0753704
0.0730872
0.0713423
0.0682785
0.0647583
0.0618569
0.0589435
0.0558174
0.0530917
0.0529851
0.0573876
0.0582449
0.0656157
0.0716756
0.215329
0.146111
0.104731
0.0782653
0.0642775
0.058604
0.0583891
0.0616526
0.0648921
0.0665613
0.0673576
0.0706921
0.0924075
0.0949753
0.0978603
0.0952465
0.0990988
0.0971923
0.0947131
0.104636
0.112476
0.065709
0.0677854
0.0478664
0.0446836
0.0326205
0.0331958
0.0236884
0.0196324
0.0196044
0.0195823
0.0198194
0.0227267
0.0317812
0.0318747
0.0465841
0.0464604
0.0518635
0.0754819
0.0725256
0.129398
0.118586
0.108901
0.101537
0.101933
0.104035
0.106662
0.101642
0.0977352
0.092163
0.0724388
0.0684667
0.0663268
0.0650425
0.0636823
0.0668371
0.0893025
0.14361
0.219329
0.32284
0.422929
0.435335
0.39508
0.244235
0.285683
0.141321
0.162477
0.183923
0.157844
0.167002
0.316617
0.263317
0.371936
0.477698
0.531356
0.59756
0.633839
0.620206
0.490604
0.317874
0.325429
0.433679
0.763349
0.856546
0.742233
0.760736
0.65739
0.539855
0.521701
0.4973
0.561423
0.612876
0.578366
0.596016
0.540252
0.51588
0.445845
0.497612
0.363639
0.327563
0.307949
0.299121
0.358472
0.290085
0.326702
0.268459
0.274645
0.223163
0.228732
0.190944
0.146175
0.138567
0.128448
0.14379
0.16296
0.149242
0.153474
0.133989
0.114484
0.0911986
0.0985116
0.0735575
0.0694992
0.0703974
0.0798069
0.124357
0.363946
0.172268
0.163064
0.167449
0.177991
0.31898
0.282723
0.725904
0.508888
0.712742
0.47574
0.564872
0.472637
0.364501
0.379957
0.419893
0.600621
0.824493
6.65955
0.284918
4.2673
3.1677
3.32586
3.47119
4.45023
7.81774
7.11334
9.40523
6.80988
9.08404
4.97348
4.97621
4.32583
4.47089
4.43798
4.26013
5.17486
6.59901
0.237882
0.0909006
0.0854202
0.0856098
0.0873841
0.1977
0.052557
0.20204
0.0539719
0.213529
0.0495301
0.246774
0.196971
0.0382406
0.0192577
0.0200896
0.0168072
0.0203748
0.0169226
0.0250459
0.0235415
0.0236966
0.0265686
0.0760187
0.291039
13.7062
1.6316
0.678618
0.777033
1.1642
0.789645
1.18732
1.65155
1.10926
0.552104
0.360238
0.424867
0.513436
0.490633
0.628098
0.906124
0.887314
0.697366
0.701797
0.616677
0.873015
0.882297
1.04812
1.22542
1.12291
0.877482
0.690285
0.581511
1.00763
1.01558
0.94967
0.398555
0.11132
0.0461647
0.0481039
0.0352989
0.0373076
0.0346481
0.0535423
0.156102
0.215524
0.129196
0.423199
0.409827
0.56164
0.401
0.411292
0.324029
0.348825
0.531214
0.580674
0.640608
0.672148
0.722127
0.664487
1.27652
2.18191
2.46684
12.7882
17.3754
3.18153
3.08582
13.9317
0.314631
0.0837664
0.0232978
0.0174269
0.016216
0.0161296
0.0150009
0.0155384
0.0160002
0.0169642
0.0188306
0.023199
0.0458444
0.201561
0.203532
0.0643682
0.0324402
0.0229743
0.0196181
0.0170474
0.0163877
0.0155321
0.0154597
0.0150081
0.0156572
0.0174619
0.0237739
0.0774038
0.271098
11.3354
2.43427
2.25306
8.3798
5.79221
0.206734
0.0437933
0.0200946
0.0169272
0.0158843
0.0167547
0.0162664
0.0182122
0.0184035
0.0230186
0.0250255
0.0317762
0.0571076
0.110248
0.315847
9.60335
8.67299
8.39773
7.82837
0.31047
0.115291
0.0544216
0.0382414
0.0346305
0.0338231
0.022651
0.0236757
0.0189837
0.0216438
0.018297
0.0226863
0.0483148
0.211903
5.34996
1.5693
1.69975
1.20926
0.611869
0.654059
0.667576
0.687009
1.76762
4.03777
4.97046
3.41487
3.35167
4.69279
3.16201
2.47438
1.82277
1.74247
2.53934
1.95928
1.82255
1.35332
1.4625
1.06607
1.4657
0.809937
0.975976
1.07176
1.52949
1.39631
1.40947
0.907612
1.04943
1.47366
1.72479
1.64954
0.843017
1.22665
1.01296
0.653878
0.60562
0.63168
0.601241
0.575683
0.573059
0.577701
0.55691
0.574499
0.554983
0.587207
0.547215
0.532115
0.506042
0.525497
0.542707
0.575022
0.358995
0.421219
0.42579
0.440131
0.452462
0.373444
0.449544
0.440015
0.657021
0.992444
0.827566
1.1383
0.674187
1.00035
2.00367
5.20852
2.32278
0.813422
1.34467
1.58343
1.13776
0.626881
2.55107
3.56094
1.22966
1.78526
10.3979
8.44158
16.5341
10.952
18.5887
6.01409
4.62564
17.7811
6.65534
6.88561
4.49844
4.50861
2.94945
1.57857
1.62074
1.73213
1.22127
1.29286
1.20371
1.13057
1.46866
1.43253
1.87614
2.02577
2.56563
1.80502
1.76648
2.58284
1.05924
1.39148
1.82792
1.81917
1.35256
2.32764
3.14052
2.94424
2.12002
2.32441
3.48965
4.79876
4.54762
3.14605
3.93478
10.1009
13.4784
13.6599
4.20785
19.3386
18.2979
2.05683
0.555847
0.316818
0.0872965
0.0440917
0.0366092
0.0386778
0.142894
0.0458082
0.0569158
0.0452789
0.0717931
0.0692195
0.0864259
0.215029
0.125145
0.212698
0.153444
0.185828
0.118605
0.189696
0.222313
0.231731
0.184387
0.113111
0.208722
0.300782
0.103619
0.347427
0.381918
0.254472
0.325535
0.387765
0.192172
0.984804
0.182949
0.124534
0.143089
0.384645
1.2408
0.213357
0.454412
4.44931
14.7066
3.65212
0.925115
0.668724
0.0551197
0.0299531
0.0313332
0.0276963
0.0193815
0.0824147
0.0966879
0.399286
0.20547
0.277423
0.660887
2.93285
2.39706
1.11175