/*--------------------------------*- C++ -*----------------------------------*\
| =========                 |                                                 |
| \\      /  F ield         | OpenFOAM: The Open Source CFD Toolbox           |
|  \\    /   O peration     | Version:  v2012                                 |
|   \\  /    A nd           | Website:  www.openfoam.com                      |
|    \\/     M anipulation  |                                                 |
\*---------------------------------------------------------------------------*/
FoamFile
{
    version     2.0;
    format      ascii;
    class       surfaceScalarField;
    location    "975";
    object      phi;
}
// * * * * * * * * * * * * * * * * * * * * * * * * * * * * * * * * * * * * * //

dimensions      [1 0 -1 0 0 0 0];
oriented        oriented;


internalField   nonuniform List<scalar> 
50655
(
0.00256986
-0.00359734
-0.00140631
-0.00511611
0.00136614
0.00359421
-0.00339521
0.00391279
0.00446053
-0.00249471
-0.00282547
0.00303814
-0.00368671
-0.00378249
0.00266652
-0.00177229
-0.00484192
0.000813363
0.000198979
-0.004707
0.0015949
-0.00180041
-0.0071781
0.00238357
-0.01046
0.00281729
0.000365877
-0.0112826
-0.00344384
0.00415642
-0.012038
-0.00483049
0.0054835
-0.0129001
-0.00562646
0.00638434
-0.0261703
-0.00930593
0.0223823
-0.0486942
-0.0282351
0.0501986
-0.0483046
-0.052692
0.0516053
-0.0311289
-0.0711095
0.0531559
-0.00461486
-0.0780654
0.0507684
0.00777421
-0.0547997
0.0415993
-0.00188472
-0.0314117
0.0402977
-0.0213721
-0.0216592
0.0403799
-0.0174534
-0.0512915
0.0466504
-0.00749252
-0.0556438
0.0451252
-0.03923
0.0314084
-0.0420787
0.0187777
-0.0162302
-0.0167498
-0.0757014
0.0498778
0.0197935
-0.0798479
0.0428081
0.0305336
-0.0295989
0.0185517
0.0342934
-0.00409712
0.0367551
0.0177056
-0.0204899
0.0257125
-0.0179944
0.0287611
0.0168222
-0.00949249
0.0182137
0.00400336
-0.00141388
0.0141057
-0.00623668
0.00701926
0.0031255
-0.00536815
0.000465263
-0.00137449
-0.00535533
-0.00108784
0.00105662
-0.00627981
0.000109589
0.000797601
-0.00753892
9.85125e-05
0.00114399
-0.00864652
-1.32229e-05
0.0011037
-0.00902891
-0.000342204
0.000708229
-0.0092856
-0.000763791
0.00100389
-0.00885345
-0.00119366
0.000745224
-0.00822337
-0.00167127
0.00102452
-0.00700114
-0.00212602
0.000887357
-0.00556542
-0.00259694
0.00114435
-0.00370502
-0.00289236
0.00101579
-0.00189748
-0.00307414
0.00124964
0.00111885
-0.00303392
0.000860609
-0.00231993
0.00255253
-0.00605321
0.00488215
0.00198991
-0.0116854
0.00459805
0.00097767
-0.0135715
0.00503349
-0.00321439
-0.0132624
0.0053017
-0.00567777
-0.00557972
0.00460962
-0.0123488
0.000464612
0.00558006
-0.0116661
0.000591561
0.0035656
-0.00371818
-0.00150975
0.00208372
-0.00296386
0.00214027
-0.000703296
-0.00452741
0.00218808
-0.00064068
-0.00584152
0.00234736
-0.00104963
-0.00710814
0.00230477
-0.00105311
-0.00860983
0.00249733
-0.00100965
-0.0101762
0.00258354
-0.0010306
-0.0114715
0.00237548
-0.00109325
-0.0123736
0.00201339
-0.00112432
-0.0128402
0.00159951
-0.00114593
-0.0131572
0.00143335
-0.00112963
-0.0137599
0.00156041
-0.000971921
-0.0139661
0.00111661
-0.000925467
-0.0136707
0.000891152
-0.00120199
-0.0136602
0.000777379
-0.000803609
-0.0133851
0.000822088
-0.00111327
-0.0131372
0.000897059
-0.00116089
-0.0129921
0.000840386
-0.00100124
-0.0127159
0.000570649
-0.000862451
-0.0121762
0.000121703
-0.000676803
-0.0112744
-0.00045438
-0.000462728
-0.0101527
-0.000914615
-0.000222339
-0.00883448
-0.00101049
-0.000322532
-0.00738558
-0.000760897
-0.000701856
-0.00758233
-0.000692846
0.000877595
-0.0163866
0.000818863
0.0079589
-0.0211596
0.000386976
0.00432539
-0.0226068
0.00113724
0.000244742
-0.0425997
0.0163322
0.00354325
-0.0545883
0.0055402
0.00615004
-0.0294678
-0.0163771
-0.00905094
-0.0131184
-0.0149836
-0.00149793
-0.0112638
-0.00400496
0.00207241
-0.0100139
-0.00309972
0.00175972
-0.00809718
-0.00345147
0.00143328
-0.00472962
-0.0033116
-0.000151229
-0.00319259
-0.00162234
-0.00446473
0.00460385
-0.00342659
-0.00269244
0.00673674
-0.00862267
0.000889219
0.00621542
-0.00992927
0.00618057
0.00590469
-0.0113409
0.0149424
0.0088085
-0.0177514
0.0285052
0.013794
-0.0276394
0.024919
0.0196735
-0.0163688
0.0165687
0.00639593
0.00176968
0.00790973
6.91046e-05
0.0084425
-0.00103684
-0.0039328
0.0127444
-0.00443153
-0.00677567
0.010054
-0.00756283
0.00541742
0.00436584
0.000995805
-0.0102047
0.0020474
-0.00818723
0.00361632
-0.0051508
-0.00424302
0.00738263
-0.0125264
0.00200934
0.00530255
-0.0143572
0.0057023
0.00238756
-0.0384615
0.0270098
0.0232838
-0.00709722
-0.0132937
0.0371523
-0.00972643
-0.0393771
-0.00479373
0.00929779
-0.00912373
-0.000530978
0.00897268
-0.0074608
0.00267999
0.00959616
-0.00671412
0.00459632
0.00961555
-0.00490507
0.00713793
-0.00134319
0.0112829
-0.00500423
-0.00270941
0.0124607
-0.00193401
-0.00244593
0.00881787
-0.00039275
-0.00419256
-0.00202359
-0.0210939
-0.00217858
0.029564
-0.0106586
-0.014336
-0.00172161
-0.0071161
-0.00254361
-0.00732757
0.0158902
0.00126682
-0.0102685
0.0219413
0.00107369
-0.00900263
0.0325088
0.000279037
-0.0132019
0.0832547
-0.00224672
-0.035988
0.0468234
-0.00193147
0.0455311
-0.00229744
0.00749027
-0.00315962
0.038458
0.00386455
0.0218098
0.00196601
0.0232347
-0.000314755
0.0113214
0.0139361
0.0062437
-0.00797848
9.62536e-05
0.00681128
0.00521775
-0.00149514
0.00732178
0.00818851
-0.00153611
0.00712295
-0.0150808
0.00798074
-0.00211502
0.00737021
-0.0153162
0.00850505
-0.00127659
0.00743644
-0.0167116
0.00841627
-0.00131897
0.00742003
-0.0160139
0.00861545
-0.000640504
0.00728466
-0.0165935
0.0086098
-0.000268465
0.00703329
-0.0159884
0.00856306
0.000700378
0.00623526
-0.0154524
0.00822969
0.00575762
0.00442109
-0.0169443
0.00745144
0.00149484
-0.00416503
0.00567635
0.00273713
0.0008109
0.00537982
-0.000281774
0.000632718
0.00713887
-0.000736195
0.000787359
0.00801715
-0.00115079
0.000943642
0.0083199
-0.0012045
0.00128049
0.00838703
-0.0013171
0.00150408
0.0085617
-0.00136213
0.00150554
0.00870786
-0.00135208
0.00126771
0.00871932
-0.00137085
0.000938739
0.00883488
-0.00119602
0.00730986
-0.000263088
0.00935809
-0.00200632
-0.000816784
0.0110368
-0.00185179
-0.000852827
0.0123212
-0.00154868
-0.000666224
0.0131073
-0.000312427
-0.000943702
0.0135381
0.0008522
-0.00117699
0.0137158
0.00170936
-0.00133232
0.0137149
0.00223751
-0.00141249
0.0137746
0.0022495
-0.00142869
0.0137305
0.0018246
-0.000974929
0.0137385
0.00134657
-0.000593175
0.0139217
0.00122573
-0.000533395
0.0133104
0.00114288
0.000569798
0.0124595
0.00243466
0.000229649
-0.000267212
0.0127017
-0.000412325
0.00244005
-0.000849821
0.0123645
-0.000237197
0.00280328
-0.000642598
0.0114913
-7.40262e-05
0.00311663
-0.000169181
0.0102284
4.88657e-05
0.0002951
0.00328116
0.00862879
0.000720999
0.00331909
0.000129509
0.00688224
0.00103979
0.00305275
0.000137517
0.00587733
0.000962632
0.00224351
8.85651e-05
0.00443341
0.00462488
-0.000849985
0.00287713
0.00427966
-0.000551515
0.00142622
-0.000500226
0.004075
0.00389467
-0.000401657
0.00560458
-0.0005088
-0.00121726
0.00682926
-0.000404456
-0.000837068
0.00779948
-0.000601292
-0.000385423
0.008162
-0.000468017
8.87801e-05
0.00821383
-0.000599629
0.000531339
0.0075192
-0.000252497
0.000930532
0.00653265
-0.000283822
0.00125381
0.00469718
0.000311806
0.00150658
0.00195487
0.00119742
0.00152777
-0.00183469
0.00206899
0.00170262
-0.00454983
0.000498767
0.00219838
-0.00606576
-0.000908185
0.00240485
-0.00734981
0.000609782
0.000652325
-0.013851
0.000485021
0.00597131
-0.0250175
-0.0065799
0.0176306
-0.0311742
-0.0162377
0.0222291
-0.0392089
-0.0263071
0.0340754
-0.0319047
0.0237938
0.0162185
-0.0386306
0.00904932
0.0260486
-0.0166926
0.00679401
-0.00458278
0.00427024
-0.032348
0.0263061
0.00141038
-0.0147906
-0.0232384
0.0056457
-0.037442
0.0059124
0.0412643
-0.0575034
-0.000664461
0.0291206
-0.0501141
0.0152273
0.0126198
-0.00990871
0.0169653
-0.0102089
0.0109883
-0.00257507
0.0190899
0.0078287
0.0114793
-0.0125564
0.0134713
0.00542719
-0.00626983
0.00140058
0.0112815
0.00499435
0.00103117
0.00277605
0.00129989
-0.000982231
0.00146127
0.0027742
-0.00485047
0.00387162
0.00204408
-0.00541877
-0.000405246
0.00215
-0.00955842
0.00201798
0.002413
-0.00821519
-0.00366653
0.00201939
-0.0118677
0.0019646
0.00141558
-0.0089121
-0.00416492
0.000589832
-0.0112486
0.00216365
-0.000314868
-0.00732789
-0.00318729
-0.00135443
-0.00816289
0.00230335
-0.00189297
-0.00440951
-0.00169671
-0.00258471
0.00131091
-0.00257555
0.00407075
0.0117412
-0.010677
0.0116588
0.00647148
-0.00950245
0.0132974
0.00876539
-0.00517202
0.0104799
0.0103534
-0.00257207
0.00437416
0.0093619
0.00128937
0.0125203
-0.001711
-0.00225412
0.000641731
0.0146934
-0.00615362
0.00534956
-0.00336585
0.00192148
0.0145858
-0.00765964
-0.00316441
0.00305597
0.00780233
0.0100019
-0.00795702
-0.00276318
0.00312003
0.01211
0.00171754
-0.00674089
-0.00206532
0.00095878
0.0160467
-0.00051711
-0.00469122
0.00742428
-0.000145066
-0.00525791
0.0114352
0.000216763
-0.0103842
0.0125891
-0.0089882
-0.014239
-0.0141683
0.0084205
0.00572301
-0.0241314
0.00412089
-0.0185735
0.00624746
-0.0165861
-0.0113484
0.00929195
0.00789023
0.0096337
-0.0341567
-0.0238443
0.00756795
0.0111635
0.00743671
-0.0100787
-0.0324544
-0.00921458
0.00783218
-0.00168003
-5.19871e-05
0.00786917
-0.00663657
-0.0104584
0.0116019
-0.00768674
-0.0142393
0.0104433
0.010641
-0.000682573
-0.00888527
0.0103894
-0.00158328
0.00803479
-0.00760962
0.00362299
0.00104748
0.00487074
-0.00347966
0.00552485
-0.0062978
0.0139921
-0.0121312
-0.00344785
0.0108165
-0.0170323
-0.00260311
0.00572888
-0.0169749
-0.000950845
-0.00118125
0.00209943
-0.00829252
0.00855569
0.00957791
-0.00963155
0.0110986
0.011156
-0.00501366
0.0118532
0.0117499
-0.00223142
0.0105192
0.0044734
-0.0111636
0.0108505
0.0031022
-0.00930564
0.0119795
-0.00217095
-0.00505857
0.0115992
-0.00477387
0.00964495
-0.00614726
0.00228177
0.00354269
0.00114468
0.00813611
0.00714164
-0.00148409
0.0111303
0.00845169
0.000446523
0.00726358
0.00668862
-0.00916449
0.0101758
-0.000560125
-0.00696828
0.00402951
0.00213752
0.000231364
0.00175923
-0.00190671
0.00512194
-0.00629655
-0.0014214
-0.00226406
0.0187463
-0.00380817
-0.0191739
0.0170155
-0.00144856
-0.00170488
-0.0160841
-0.0118525
-0.000973166
0.00343212
-0.00857031
-0.0107015
-0.0132809
0.00670783
-0.0059729
-0.00494941
0.000931343
0.00140728
0.000391722
-0.0020902
-0.00427687
-0.0009916
0.0039957
-0.00261397
-0.00042528
0.00182473
-0.00239243
0.00131349
-0.00383116
0.00682047
0.000715705
-0.0111841
0.000644707
-0.00348875
0.0105813
-0.00346561
-0.00442258
-0.0190678
0.0141099
-0.0119023
-0.0194912
-0.0118016
0.0078433
0.00428959
-0.0266536
-0.0154091
0.0025844
0.00934023
0.0105357
-0.0356215
-0.0164889
0.0130799
0.00184162
0.010433
-0.0423226
-0.0146467
0.00984548
9.17352e-05
0.0113071
-0.0436873
-0.0108052
0.00324947
-0.00152418
0.0103402
-0.0431808
-0.00618682
-0.00148404
-0.00183551
0.00889002
-0.0394948
-0.00336013
-0.00449657
0.00407659
-0.0347443
-0.00119504
-0.00710814
0.00649035
-0.00304581
-0.0321797
0.00133387
-0.00611125
0.00561407
-0.00350322
-0.0291315
0.00264987
0.00448527
-0.00398797
-0.00629807
-0.0289335
0.00205316
0.00397284
-0.00355862
-0.00277752
-0.0298386
0.000189407
0.00182953
-0.00122089
-0.0277816
-0.00161078
0.00138009
-0.00193996
-0.0229813
-0.00264866
0.001548
-0.0037959
-0.030167
0.00170872
0.0226401
-0.0172387
-0.0592977
0.0293261
-0.0129276
0.0123597
0.00602574
-0.0199124
-0.00134329
-0.0132104
-0.0251957
-0.0091937
-0.0122543
-0.000481737
-0.00875625
-0.0111573
0.000619406
0.000286953
-0.00942986
-0.000582444
0.00051813
-0.00580504
-0.00376151
0.00145968
-0.00310459
-0.0039961
0.00104604
-0.00453606
-0.000260544
-0.0044575
0.000803745
-0.000929548
-0.00684371
0.00204924
0.000273781
-0.0107845
0.00220564
0.00165547
-0.0130967
0.000815682
0.00141799
-0.0133646
-0.000354191
0.000552288
-0.0130747
-0.0017502
0.0014063
-0.0236463
0.00142213
0.00907471
-0.0568474
0.0175037
0.0154907
-0.101284
0.00883221
0.0350311
-0.117938
-0.0058992
0.0218604
-0.12729
-0.011621
0.0201976
-0.133716
-0.0165194
0.0221106
-0.137369
-0.0222117
0.0249802
-0.138696
-0.0272827
0.0276995
-0.138619
-0.0307705
0.0297695
-0.137809
-0.0329258
0.0311901
-0.136354
-0.0341736
0.0318025
-0.134212
-0.034818
0.0317743
-0.130378
-0.0353225
0.0306167
-0.122414
0.0278317
-0.0366294
-0.103274
0.0207999
-0.040699
-0.0534586
0.00331514
-0.0537491
-0.0226156
-0.00122946
-0.0298324
-0.0123823
-0.00428539
-0.00602519
-0.0121043
0.00199014
-0.00232321
-0.0112045
0.00432918
-0.00529974
-0.00876871
0.00384368
-0.00635997
-0.00425323
0.00401035
-0.00861018
-0.00478926
0.00347647
-0.00301166
-0.00805757
-6.17464e-05
0.00327924
-0.00781947
0.00235786
-0.00266714
-0.0089334
0.00102612
-0.0138049
0.00698279
-0.00220983
-0.0166396
0.00714947
-0.00442479
-0.0189173
0.00764603
-0.00547089
-0.0237756
0.00700482
-0.00225128
-0.0533276
0.0187383
0.0106173
-0.0979606
-0.00807243
0.0521318
-0.110963
-0.0316667
0.0439486
-0.112427
-0.0418197
0.0424728
-0.107725
-0.0476636
0.0421394
-0.0989241
-0.0521323
0.0424744
-0.0862036
-0.0543491
0.0408039
-0.0691912
-0.0558474
0.0380151
-0.0493989
-0.056819
0.0362606
-0.023692
-0.0481292
0.0217857
-0.0376764
0.0135457
-0.0535149
0.0231448
-0.00777336
-0.0592885
0.0253298
-0.020059
-0.0593297
0.0266502
-0.0271352
-0.0502928
0.0264336
-0.0359968
-0.0402066
0.0243621
-0.0349512
-0.0230364
0.0165565
-0.0341938
0.00942628
-0.0329013
0.0272707
0.0380696
-0.0565507
0.0510376
0.0494601
-0.073993
0.0749157
0.0495603
-0.0742582
0.095098
0.0497868
-0.0707935
0.110839
0.0469955
-0.0635935
0.11905
0.0396841
-0.0487173
0.117003
0.0329234
-0.0316865
0.101294
0.0300552
-0.0150664
0.0545198
0.0398556
0.00634511
0.0254796
0.0250488
0.00379498
0.0213688
0.00417843
-0.00017235
0.0194554
0.000589089
0.00122172
0.0158759
0.000297382
0.00317228
0.0091354
-0.00025011
0.00689203
-0.000926346
0.00997397
-0.000971744
-0.00971394
0.0096636
0.000717163
-0.0131073
0.0113094
0.00256053
-0.0142377
0.0122712
0.00406651
-0.0135702
0.0119287
0.00431409
-0.0191684
0.018743
0.00783799
-0.0286421
0.0248331
0.00382162
0.0236306
-0.0198979
-0.000195075
0.0169058
-0.0130683
-0.000390215
0.00844119
-0.00838171
-0.000549615
0.00774995
-0.00771375
-0.00109126
0.00737646
-0.0069438
0.00631858
-0.0064795
0.0034361
0.00546067
-0.000282872
0.00321189
0.0061973
0.00133133
0.00330656
0.00592163
0.00165591
0.00397202
0.00478914
0.00290835
0.0103305
0.0116123
-0.0011706
0.0194176
-0.00901287
-0.000119727
0.0090995
-0.00421143
0.0144889
-0.0230634
-0.011426
0.043519
-0.0155441
-0.00576138
-0.0018364
-0.000982975
0.00358354
0.00487249
-0.00945473
0.00605682
-0.00260376
0.00361808
-0.00178761
-0.00826963
0.000433183
-0.00918311
-0.0102632
-0.0126567
0.0184443
-0.00483305
-0.0307554
0.00323278
0.00366621
0.00405835
-0.0175686
-0.0497028
0.00587687
0.0101471
0.000841724
-0.0581886
-0.0156777
0.0262206
-0.00422772
-0.0204095
0.00617297
-0.00324955
-0.0202938
0.00561289
-0.00226901
-0.020652
0.00530912
-0.000897118
-0.0190318
0.00444017
-0.0149913
0.00403338
-0.0211319
0.00226474
0.00404838
-0.0219486
-0.00134756
0.00263921
-0.0178949
8.68385e-05
0.00543476
0.00165433
-0.0466058
0.0354595
0.0083037
0.0080612
-0.115114
0.0350559
0.0514972
0.0209197
-0.125218
0.0472988
-0.00799458
-0.126075
0.0547637
-0.0218496
-0.11826
0.0645122
-0.03352
-0.103333
0.0731576
-0.0419712
-0.08422
0.0768842
-0.0470781
-0.0616016
0.0746579
-0.0485552
-0.0366966
0.0743047
-0.0505634
0.0503991
-0.033037
0.0588456
0.0458188
-0.0305107
0.0684379
0.0517121
-0.0354957
0.0687431
0.0528609
-0.0271409
0.0633425
0.0505908
-0.0204679
0.0438987
-0.00610819
-0.0881932
0.0718636
0.00259525
-0.0979831
0.0754982
-0.0160262
-0.0994899
0.0799592
-0.0265339
-0.0881703
0.0791983
-0.039748
0.0719226
-0.0408781
0.0879966
0.0945312
-0.0368381
0.0976194
0.101714
-0.0330675
0.0944834
0.101121
-0.0189557
0.0819169
0.0960551
-0.00888118
0.0903387
0.00675516
-0.0812588
0.103444
0.0129363
-0.0944645
0.110546
-0.00220635
-0.0983539
0.116042
-0.0119918
-0.090457
0.116945
-0.0240894
0.111507
-0.0314695
0.0869892
0.124351
-0.0276117
0.0946554
0.128371
-0.0200687
0.0912426
0.126498
-0.0080206
0.0783247
0.120386
0.00214113
0.112128
0.0166264
-0.0724493
0.116705
0.0193322
-0.0843829
0.125483
0.00589976
-0.0867122
0.132086
-0.00423778
-0.0787911
0.134501
-0.0150308
0.131444
-0.0223098
0.0681903
0.132121
-0.01504
0.0760869
0.134853
-0.00922581
0.075003
0.131248
0.000945102
0.0640708
0.124826
0.0106521
0.115514
0.0225748
-0.0525767
0.105793
0.029777
-0.0646113
0.116375
0.0195428
-0.0641638
0.119972
0.00986496
-0.0562228
0.125402
0.000546683
0.126296
-0.00404217
0.0351486
0.0191913
0.0613926
0.0446809
0.0514342
0.0947647
0.0134772
0.0547453
0.0925215
0.0232641
0.0357317
0.0483122
0.0452449
0.0408921
0.0445234
0.036531
0.0515059
-0.0122968
0.0268515
0.0153834
0.014369
-0.0187271
0.0276736
0.0150861
-0.0152875
0.0311502
0.0135191
-0.0135329
0.0290686
0.0142126
-0.0399688
0.0275554
0.0407868
-0.000791084
0.0248868
-0.0284007
-0.00827196
0.0385238
0.00581026
-0.0370532
-0.00679485
0.0299776
0.00548928
-0.0371205
-0.00458657
0.029094
-0.0365695
0.00509727
0.0258858
0.00347763
0.00380837
0.00515634
0.00492108
0.00715858
0.00680656
0.00761915
0.00905309
0.00893089
0.00839888
-0.00414919
-0.0199603
0.0156948
0.0026678
-0.00061043
0.000591831
0.00625152
0.0029012
0.000298258
-0.000535693
0.000355165
0.00409265
-0.00155148
-0.00244029
-0.0013243
0.00411557
-0.00165558
-0.000490091
0.00117671
0.010604
0.0120943
0.0316343
-0.0532451
0.00539573
0.0178024
-0.00424559
-0.00730145
0.0568732
0.00124248
-0.0150796
0.00284444
0.00352775
-0.00655558
0.00505222
0.00398582
-0.00620831
-0.0222194
0.00970788
0.0175235
-0.00940475
-0.0125396
-0.000318641
0.0179465
-0.002572
0.0239395
-0.00790581
0.0463012
-0.0127234
0.0215644
0.0766657
-0.0247347
-0.0327255
0.00457576
0.00707428
0.02979
0.00210751
-0.0175669
0.00802557
0.0136729
-0.00405481
-0.0106617
0.00846078
0.0149773
-0.00405072
-0.0114684
0.0075655
0.0144547
-0.00237175
-0.0112942
0.00612676
0.0128089
-0.0104449
-0.00102389
0.00367382
0.0105452
-0.00880806
0.000628527
0.00874356
-0.00791376
0.0027636
0.00844734
-0.00315573
0.00338124
0.00804569
-0.00280235
0.00314894
0.0152088
-0.00809548
0.000855082
0.0393144
-0.0159743
-0.00835014
0.0729006
-0.0389356
0.00473082
0.0829849
-0.0276586
0.0168149
0.0845407
-0.0235139
0.0211242
0.0819744
-0.0202604
0.0219542
0.076774
-0.0158425
0.0201401
0.0698144
-0.00875548
0.0147967
0.0604418
0.00166784
0.00677675
0.041955
0.0174631
9.57627e-05
0.0146854
0.0413914
-0.0150398
-0.00541673
0.0552327
-0.0360329
-0.00178189
0.0502994
-0.0548061
0.0122011
0.0392684
-0.0540845
0.0154512
0.0263296
-0.0303381
0.00958292
0.028753
-0.0235021
0.00212328
0.0112752
-0.00403382
0.000409602
0.00381277
-0.00217606
-0.000417663
0.00177296
-0.00100028
-0.00209605
0.00325713
-0.00164827
0.00314281
-0.00227849
0.00322245
0.00521762
-0.00146955
0.00020147
0.00660048
-0.000397795
0.00213109
-0.000178227
0.00651972
-0.0006045
0.00171137
0.00593969
-0.0037981
0.00255398
0.00561214
0.00619045
0.0010127
0.0116888
0.0170249
-0.0108405
0.015512
-0.0105763
0.0235565
0.0241329
-0.0301613
0.043394
0.0145404
-0.0445562
0.0505464
0.0132127
-0.0628951
0.0462834
0.0263358
-0.0787564
0.0293149
0.0269726
-0.0897404
0.00758914
0.0198855
-0.0952471
-0.00865846
0.0148601
-0.0986593
-0.020891
0.0145814
-0.100862
-0.0294494
0.0148554
-0.101057
-0.0351959
0.0141937
-0.0976832
-0.0395486
0.0117395
-0.0888071
-0.0439451
0.00650213
-0.0319486
-0.0406378
-0.0447771
-0.0113626
-0.0184563
-0.0104273
-0.0192111
0.00261586
-0.0154003
-0.00710621
0.0013211
-0.00577004
0.000261534
-0.00945163
0.000857505
-0.00379948
0.00166079
-0.00748647
0.000991254
-0.00881326
0.0158545
-0.000179096
-0.00795752
0.0158617
-0.00184041
-0.00615012
0.0139484
-0.00216441
-0.00203193
0.0198271
0.00570361
0.0204677
0.10713
-0.0445259
-0.00956467
0.00400873
0.0307121
0.00546856
0.00762304
0.0105298
-0.000247771
0.00843403
0.014304
0.000667999
0.0151646
0.00192767
-0.0162561
-0.0197889
-0.0126695
0.0308698
-0.0202844
0.0463491
-0.0178809
-0.0511043
0.107056
-0.0246168
-0.052128
0.122006
-0.0150166
-0.104533
-0.0443862
0.125813
-0.0301863
-0.0753237
-0.028596
-0.0173974
-0.0288688
-0.0142953
-0.00284457
-0.040356
0.0170301
-0.00208588
-0.0241626
-0.00526348
0.027989
-0.00542101
-0.0085419
0.0163815
-0.00783256
-0.00929709
0.0145011
-0.00617136
-0.00945093
-0.0118357
-0.002714
0.0502025
-0.0212559
-0.0125871
-0.00608824
0.000616222
-0.0119297
-0.00846431
-0.000107168
-0.00874829
-0.00712648
-0.00156836
-0.0049789
-0.00437704
-0.00157791
-8.95998e-05
-0.000747003
-0.00375284
-0.00045574
-0.00987719
6.6394e-06
0.000443213
0.00127534
-0.00169829
0.00137531
-0.00206687
0.00335603
0.00175185
-0.00264093
0.00437756
0.0020613
-0.00197239
0.00372065
0.00175494
0.00267393
0.00070644
0.00449954
0.00263956
-0.00105761
0.00469506
0.00385008
-0.000400722
0.00454938
0.00492719
-0.000485
0.00482871
-0.000749599
-0.00635305
0.0108821
-0.0041878
-0.00618778
0.0109067
-0.00625649
-0.00532522
0.010061
-0.00717894
0.00901768
-0.00778421
0.00656208
0.0118782
-0.00566623
0.00798517
0.0136078
-0.00506866
0.00816829
0.0151303
-0.0045132
0.0149362
-0.00311888
-0.0091808
0.0168778
-0.00132545
-0.00930615
0.0178837
-0.00273417
-0.00965222
0.0177806
-0.00393116
0.0104861
-0.00400754
0.0128706
-0.000416013
0.0102306
-0.0016743
0.00748827
0.0233057
-0.002896
0.00734095
0.0183189
-0.00037801
0.0173119
0.000739877
-0.00882164
0.0485031
-0.0252157
-0.00518303
0.0421947
-0.027659
0.0450281
-0.0283068
0.0293476
0.117757
-0.0575499
0.127618
-0.0450584
0.0507462
0.13506
-0.0386444
-0.0205903
0.0553946
0.134993
-0.0149439
0.0520247
0.130249
-0.00598952
0.115433
-0.00134376
-0.0502239
0.119897
0.00519094
-0.0559344
0.135225
-0.000348355
-0.0534623
0.14092
-0.00948197
-0.0448133
-0.0146185
0.14001
-0.128315
-0.0233059
0.133718
-0.0293109
-0.0128421
-0.0511489
-0.114477
0.0286356
0.119459
-0.106137
-0.0667809
0.118461
-0.0384282
-0.0495715
-0.0680787
-0.00479478
0.0138636
-0.0135233
-0.0193497
-0.0195729
-0.00999032
-0.00603089
-0.0131328
-0.0029061
-0.0140233
-0.00406285
0.00257564
-0.0143974
-0.0081774
0.0031714
-0.0127565
-0.0106152
0.00252769
-0.00980976
-0.0145059
0.00285853
-0.010746
0.0011414
-0.0137815
0.0160657
-0.0137376
0.000611205
-0.00948804
-7.79041e-05
-0.0153558
0.0144822
-0.00157907
-0.0167587
0.0116575
-0.00271291
-0.0180417
0.00966243
-0.00145861
0.0149522
-0.0254696
0.0110901
0.0252133
0.0187236
0.0207341
-0.0498552
0.0188577
0.0161698
0.0178291
-0.0277749
0.0305728
0.0160517
0.0191715
-0.0470741
0.0213671
0.0134259
-0.0227432
0.0183946
0.0392789
-0.0422122
0.00893206
0.0152676
0.0201009
0.0463579
-0.0101132
-0.017168
0.0253841
0.0301274
-0.0202518
-0.0152871
-0.0172354
-0.0206119
0.00991295
-0.0182667
0.0038172
-0.0127812
-0.0179538
0.00437252
-0.0172431
-0.0122909
0.00330538
-0.0161326
-0.0141053
0.00228103
-0.0167776
0.00209796
-0.0176694
-0.0170579
0.0174597
0.000373397
-0.0162708
-0.000772034
-0.0183782
0.0156432
-0.00199049
0.0130095
-0.00309169
0.017553
0.0143301
-0.00279081
0.017437
-0.0014074
0.0164806
0.0182478
-0.0170309
-0.000365627
0.0183957
0.00133214
-0.0151204
0.00285804
-0.0154841
0.0010087
0.0175065
-0.0154132
-0.00120316
0.0144818
-0.00214723
-0.00752799
-0.0160248
0.0235955
0.0168616
-0.00150786
-0.0143887
-0.0171505
-0.0262121
-0.0242755
-0.00257081
-0.105269
0.103875
0.00754681
0.0012109
0.0182433
0.0127106
0.0239172
0.0146968
-0.0202638
0.0176498
-0.00846289
0.0179669
-0.0122451
-0.00477364
0.00236002
-0.000511682
-0.00555207
0.00484991
-0.00582439
-0.00170875
-0.00210802
-0.00217565
-0.0037925
0.0131653
-0.000990821
-0.00316273
-0.00140344
-0.00338385
0.0163862
-0.0200788
-0.0115665
0.0154796
0.00688802
-0.0116063
0.0176104
0.00911902
-0.0132706
0.0202287
0.00893917
-0.014206
0.0229864
0.00892271
0.0302146
0.0120032
0.00989232
0.0135017
0.0125072
0.00948909
0.0132884
0.00992199
0.00785342
0.0119346
0.00975899
0.00607861
0.0108108
0.00842031
0.0100047
0.00700383
-0.00220814
0.00342672
-0.00262147
0.00416774
-0.00328936
0.00476404
-0.00392409
0.00540873
0.00651861
0.0016636
0.00290674
0.00142667
0.000511769
0.000410681
0.00139584
-0.00014538
0.00198836
-0.00155108
-2.95635e-05
-0.000931118
0.00195201
0.000964036
-0.000329683
0.000791608
-0.000433454
0.00182872
-0.00111695
0.00121557
-0.000535184
0.000311811
-4.55911e-06
0.00202636
-0.00174707
2.92197e-05
0.00379674
-0.000559225
-0.00359698
0.0111606
-0.0063948
0.00358223
-0.0180429
0.0033607
0.0170742
0.00389187
-0.0181495
0.0204485
0.00715512
0.00293911
0.00677471
-0.0170834
0.0208628
0.00029041
0.00596529
0.0198088
-0.0148517
-0.0136314
0.014198
0.00503529
0.0109878
-0.00739173
0.0172015
-0.00766063
0.0172856
0.0109125
-0.000409944
0.0199935
0.00718077
0.0033393
-0.0011526
0.00152957
-0.00352081
0.000373556
-0.00229332
0.0126077
0.00135508
-0.00233832
0.000789507
0.000619652
-0.000777708
0.00151129
-0.000568329
0.00155984
-0.000392931
-0.00124309
0.00106642
-0.00207065
0.000898532
-0.000211001
-0.000224991
-0.00163615
-0.000455045
-0.00209627
0.000247657
-0.00185729
0.00140304
-0.00138177
0.000391371
0.000112216
-0.00188662
0.000171013
-0.00141721
-0.00066042
-0.00126678
-0.00240735
0.00114965
0.00124101
0.000227408
0.00047302
-0.00129893
0.000448003
-0.00168377
-0.000480044
0.000537076
0.000389454
0.000109744
6.86021e-05
-0.000659741
0.00104456
0.00030446
0.000312831
-0.000892413
-0.00161348
0.00281532
-0.000776085
0.000270475
0.000179961
-0.000889851
-0.00113201
0.00380561
0.00137688
-0.000361268
-0.00303181
0.0122875
-0.00265012
-0.00129561
-0.00174945
9.18162e-06
-0.000830817
0.000258685
-0.000726414
0.000330098
-4.18515e-05
-0.00112143
-4.55942e-05
0.00188372
-0.000307731
-0.00162491
-0.00132395
0.00321253
-0.000895232
-0.000173169
-0.00124735
0.00111843
0.00204456
0.000343449
0.000324601
0.000921992
-0.000130732
0.00191662
-0.00142244
-0.000172929
-0.00137189
0.00320141
8.27349e-05
-0.000650874
0.000197798
0.00286389
-0.00405785
0.0133191
-0.00112407
-0.0180624
0.000738581
0.00705482
0.0245698
-0.0164931
0.0219222
0.00640744
-0.0177795
0.0226062
-0.002105
-0.0149023
-0.00439557
-0.0206953
-0.021873
-0.00632074
-0.0219045
-0.00573722
0.0151681
-0.00262564
0.0198028
0.0318026
0.0374673
-0.0236048
-0.101149
0.0666129
-0.0967679
0.0700822
-0.107849
0.0712942
-0.0171092
-0.110089
0.0687064
-0.0248688
-0.10662
0.0674531
-0.0296735
-0.0981202
0.0662815
-0.0332083
-0.0859969
0.0636023
-0.0358158
-0.0685406
0.0576264
-0.0379512
-0.0487069
0.0531965
-0.0376698
-0.0385674
0.0425993
-0.0317004
0.00457399
-0.0300071
0.0173054
0.0321237
-0.0455225
0.0148788
0.0448076
-0.0430485
-0.0070006
0.0479185
-0.0264504
-0.0341463
0.026707
-0.0509042
-0.0129874
0.0292782
-0.0596604
-0.0245501
0.0328035
-0.0620736
-0.0310395
0.0329264
-0.0557695
-0.0382153
0.0313849
-0.0478042
-0.0352911
0.026823
-0.0304133
-0.0335881
0.0157301
0.00326296
-0.034115
0.020134
0.0446372
-0.0621451
0.0427925
0.0556533
-0.0790778
0.0680886
0.0549286
-0.0810445
0.0881354
0.0523892
-0.0732605
0.0991326
0.0477241
-0.059578
0.0997163
0.0400125
-0.0414184
0.0934845
0.0341711
-0.0287498
0.0813462
0.0310897
-0.0196717
0.0460895
0.0378247
-0.00314148
0.0222625
0.0228006
0.000830101
0.0191869
0.0039378
-0.000966944
0.0178509
0.000532162
0.000701002
0.0146956
0.000155676
0.00288933
0.00846297
2.14561e-05
0.00611226
0.00902062
-0.000645251
0.00707998
0.00352894
-0.00165893
0.00448355
0.00386366
-0.00131433
0.00466769
0.00174095
-0.00198789
0.00555031
0.00194751
-0.00290896
0.00517558
0.00312164
-0.0028247
0.00399102
0.00337097
-0.00225596
0.00295353
0.00268756
-0.00170467
0.00475441
0.00166822
-0.0035461
0.00863108
0.00297504
-0.0070702
-0.0269646
0.0334503
0.00152753
-0.052702
0.0226619
0.00231636
-0.0644974
0.0107861
0.000175544
-0.0670828
-0.000252568
0.00196494
-0.0697557
-0.0146435
0.016412
-0.074341
-0.0300154
0.0336785
-0.0755245
-0.0451144
0.0453609
-0.072795
-0.0587987
0.0551241
-0.0626228
-0.0711783
0.0600542
-0.0447258
-0.0811702
0.062316
-0.0169031
-0.0878468
0.0590608
0.0173502
-0.0840119
0.0487979
0.0328541
-0.058881
0.0424157
0.0320325
-0.04533
0.0452293
0.0244459
-0.0357577
0.0424409
0.0105879
-0.0266883
0.039719
-0.000160597
-0.0235222
0.0334688
-0.0349973
0.0340874
-0.0506694
-0.019836
0.0347102
-0.0578926
-0.0345994
0.0410118
-0.0583352
-0.0494031
0.048971
-0.0498025
-0.0644001
0.0549922
-0.0258634
-0.081886
0.0570481
0.00431925
-0.0831936
0.0521349
0.00968504
-0.0472109
0.0409797
-0.00784314
-0.0266742
0.0433925
-0.0209218
-0.028858
0.0411508
-0.00454425
-0.0607451
0.0436295
-0.0525669
0.0433563
-0.0153241
-0.0693505
0.00180674
0.0183871
-0.0553295
-0.0400117
0.0286397
-0.0401323
0.000146334
0.0323647
-0.0481276
0.0168343
0.0309085
-0.077778
0.0310991
0.0416486
-0.126629
0.0317568
0.0550536
-0.123733
0.0274968
0.0577047
-0.0966473
0.028665
0.052708
-0.0732136
0.0279015
0.0420846
-0.0522834
0.0274474
-0.0306802
0.0285839
-0.037497
-0.0479251
0.0271826
-0.0395434
-0.0576423
0.0230017
-0.0339075
-0.0687166
0.0167803
-0.005663
-0.0847357
-0.00338781
0.0349824
-0.119657
-0.00600605
0.0608867
-0.125502
0.0107453
0.0759454
-0.118822
0.0215914
0.0830089
-0.104415
0.0251769
0.0820595
-0.0859694
0.0271302
0.0778649
-0.0652777
0.0233755
0.0706039
-0.0435289
0.0198027
0.0658876
-0.0217503
0.0108649
0.0613585
-0.000894296
0.00422934
0.0503459
0.0147992
0.00607284
0.0280255
0.0314183
0.0126479
-0.00681655
0.00498129
0.0455069
0.0168186
0.00851639
-0.00259402
-0.00894676
-0.00394602
0.0155951
-0.00136534
-0.000868612
0.0109554
-0.000983769
0.00380914
0.00168615
0.0160422
0.000358812
-0.00966531
0.0041184
-0.00657292
0.0269729
0.00419611
-0.00865452
-0.00771362
-0.000109867
0.00155975
-0.00790015
-0.002366
0.00149361
-0.00641383
-0.00366433
0.000730343
-0.00481692
-0.00474232
0.000469982
0.00174836
-0.00346586
-0.000466097
0.00431408
-0.000920782
-0.00170986
-0.000332731
-0.000248134
-0.00113292
-0.000684526
-0.000571029
-0.00057678
-0.000527715
0.000417404
-0.000953911
-0.00319764
0.0128247
-0.00534439
-0.0115831
0.003036
0.0224974
-0.00746064
-0.00945375
0.0638667
-0.0309353
-0.0283859
0.0184971
0.0612024
-0.0244886
0.0285616
0.0453801
-0.0192771
0.0343536
0.00634862