/*--------------------------------*- C++ -*----------------------------------*\
| =========                 |                                                 |
| \\      /  F ield         | OpenFOAM: The Open Source CFD Toolbox           |
|  \\    /   O peration     | Version:  v2012                                 |
|   \\  /    A nd           | Website:  www.openfoam.com                      |
|    \\/     M anipulation  |                                                 |
\*---------------------------------------------------------------------------*/
FoamFile
{
    version     2.0;
    format      ascii;
    class       surfaceScalarField;
    location    "185";
    object      phi;
}
// * * * * * * * * * * * * * * * * * * * * * * * * * * * * * * * * * * * * * //

dimensions      [1 0 -1 0 0 0 0];
oriented        oriented;


internalField   nonuniform List<scalar> 
63799
(
0.0032674
-0.00546407
0.00430136
-0.00835796
-0.0058042
0.00882627
-0.00502316
-0.00842038
0.0104955
0.00612852
0.00622388
-0.00779906
-0.00352727
0.00379862
0.00325718
-0.000895064
0.00431335
0.00173029
-0.00229237
0.00548156
0.0029426
-0.00418172
0.00149609
0.00389761
0.00294722
-0.00642529
0.00487513
0.00447681
-0.00591261
0.00427284
0.00535798
-0.00449248
0.0035088
0.00643085
-0.00307117
0.00189409
0.0122022
-0.00515213
-0.000812381
0.0141598
-0.0116115
0.00909769
0.0151595
-0.0132335
0.0115402
0.0182984
-0.0123967
0.00848215
0.0180181
-0.00986214
0.00936131
0.0127656
-0.00758297
0.0120248
-0.00440984
-0.0073364
0.0237353
-0.0196382
-0.0161148
0.0305809
-0.0172632
-0.0300365
0.0269693
-0.00669699
-0.0335503
0.0224315
-0.0147067
0.00765309
-0.0486623
0.0312819
0.00233286
-0.0539389
-0.0222514
0.0269764
-0.0627845
-0.012417
0.0207105
-0.0442579
-0.0332648
0.0143957
-0.0556653
0.0110487
-0.0893598
0.00721138
0.025927
-0.109241
0.0145519
0.00463097
-0.122879
0.008299
0.00456919
-0.128995
0.00276691
0.0025469
-0.130494
-0.00118428
0.00183053
-0.129143
-0.00498106
0.00277334
-0.125543
-0.00972779
0.00525122
-0.118699
-0.0164988
0.00880084
-0.105716
-0.0268763
0.0130376
-0.0836514
-0.0393246
0.0164646
-0.0512145
-0.0508759
0.0176505
-0.0618118
0.00984986
-0.103228
0.0033234
0.0372902
-0.131687
-0.000608724
0.0282383
-0.150029
-0.00290153
0.0203353
-0.158579
-0.00462891
0.0122511
-0.158278
-0.0073549
0.00608744
-0.149818
-0.0111833
0.00175751
-0.132811
-0.0159953
-0.00197983
-0.106922
-0.0210099
-0.00584107
-0.0703423
-0.0253854
-0.0121509
-0.0414067
-0.0179903
-0.011895
0.015318
-0.0145681
-0.0430981
0.0818841
-0.0182032
-0.0492894
0.119377
-0.00363259
-0.034769
0.141638
0.00313111
-0.0262692
0.151186
0.00842432
-0.0188111
0.140861
0.0161577
-0.00659501
0.0817136
0.0368067
0.0217186
0.0343775
0.0174863
0.0296298
0.0193184
0.0114455
0.003536
0.0198485
0.000757255
-0.00134268
0.0196675
-0.00104453
0.00115442
0.0167279
0.000215666
0.00264304
0.0109752
0.000910558
0.0047574
0.00641743
0.000782085
0.00370412
0.00557715
0.000407294
0.000381935
-0.00254508
0.00629331
0.00175744
-0.000672707
-0.00196054
0.00658715
0.000106218
-0.0074651
0.012515
0.0025237
-0.00856201
0.017657
0.00213438
-0.0073794
0.0240372
-0.000881806
-0.00560348
0.0573375
-0.0171434
-0.0163541
0.111889
-0.0115069
-0.0436192
0.134207
0.00285545
-0.0258928
0.143542
0.00446834
-0.0146097
0.145912
0.00403013
-0.00721294
0.143203
0.00426811
-0.00239865
0.13545
0.00513431
0.00182251
0.120187
0.00683993
0.0076443
0.0983475
0.00612439
0.0150102
0.0613821
0.00748098
0.0289239
0.0500363
0.0109859
0.0801716
0.0141797
-0.0446578
0.0758858
0.00890578
-0.00517165
0.0518725
0.0162802
0.00718117
-0.00142468
0.0533524
-0.000398124
-0.00596633
0.00418174
0.0111434
0.0174271
-0.0350973
0.0107938
0.0283585
-0.028714
0.0017663
0.0319536
-0.0237038
0.00157984
0.0309336
-0.0315438
0.014734
0.0343348
-0.0483276
0.0299151
0.039741
-0.0557345
0.0429317
0.042276
-0.0560985
0.0457266
0.0437511
-0.047265
0.0247559
0.0467537
-0.026357
0.0126213
0.0210608
-0.00912305
0.0122835
0.00611007
-0.00587727
0.0122004
0.00565592
-0.00567582
0.0109084
0.00631076
-0.0051291
0.0071048
0.00539068
-0.00168601
0.00195817
0.0050585
0.00307662
0.00347616
-0.00466606
0.00269884
0.00277269
-0.00244592
0.00182344
0.00411659
-0.00331268
0.00261206
0.00469471
-0.005568
0.00216995
0.00430922
-0.00394787
0.00181596
0.00397144
-0.00368847
0.00211755
0.00198852
-0.00234541
0.00328851
0.00186516
-0.00311368
-0.00184964
0.0105727
-0.0056543
-0.0123135
0.0343398
-0.0244969
-0.012023
0.0328539
-0.0339066
-0.0123451
0.0346927
-0.0352075
-0.0143868
0.0372027
-0.0360368
-0.0132844
0.0365469
-0.0385555
-0.0110061
0.0369215
-0.0401217
-0.0069757
0.0374268
-0.0423889
0.00179538
0.0430388
-0.0527419
0.00631292
0.0486234
-0.0540633
0.00489011
0.0516115
-0.0510953
0.00327872
0.0525855
-0.0518503
0.00896884
0.0484025
-0.0549298
0.0190501
0.0457406
-0.0565842
0.0164752
0.0479575
-0.0460034
0.00550739
0.0186929
-0.00794454
0.00370798
0.00646158
-0.00473957
0.00556069
0.00257857
-0.00448617
0.00732504
0.0039418
-0.00577608
0.0045408
-0.00509306
-0.00808777
0.00949494
-0.00537233
-0.0056208
0.00763921
-0.00624026
-0.00118692
-0.00187699
0.00736839
-0.00212254
-0.00589878
0.0121849
0.00697724
-0.00600843
-0.00541914
0.0162495
0.00179153
-0.000632655
0.0748112
0.0148983
-0.0475249
0.0175618
0.0713642
-0.0447292
0.0260646
0.0711528
-0.0321775
0.0225636
0.0736259
-0.0184793
0.0151761
0.0697218
-0.0116796
0.0105341
0.0634777
-0.0111812
0.0102914
0.0533093
-0.0110035
0.00732534
0.041384
-0.0019666
0.00253471
0.0406958
4.7919e-05
-0.00469048
0.0441341
-0.00131817
-0.0141399
0.0477569
-0.00204417
-0.0172262
0.045092
-0.00823699
-0.015353
0.0467234
-0.0166536
-0.0098199
0.0527775
-0.00497721
-0.0199802
-0.00600668
0.0106682
-0.00408113
-0.00754041
0.00901808
-0.00515917
-0.0024389
-0.00454923
-0.00115501
-0.00167795
-0.000904592
-0.00266267
0.00860738
-0.003728
-0.00305311
0.00859817
-0.00398618
-0.00173706
0.00890327
-0.00561618
-0.0026331
0.00695231
-0.00200886
-0.00264183
0.0047469
-0.0020118
-0.00218888
0.00649064
-0.00353019
0.0101607
-0.00738716
0.0147617
-0.00776651
0.00305615
0.0190991
-0.00788296
0.00342191
0.0238938
-0.00831551
0.00338477
0.0341179
-0.0124443
0.00204174
0.0462852
-0.0189858
0.00653248
0.0342591
-0.000111572
0.0118531
0.0248826
-0.000833191
0.01003
0.0208927
-0.0018994
0.00575322
0.0172731
-0.00101969
0.00451567
0.0130412
0.000340772
0.00378174
0.00771985
0.00183623
0.00338907
0.00361118
0.00402056
0.00287028
0.00616047
-0.00549099
0.00277513
0.00394029
-0.00389614
0.00558758
0.00167972
-0.00456364
0.00753145
0.00237862
-0.00440712
0.00873224
0.00288483
-0.00416634
0.00852934
0.00337908
-0.00324712
0.00814268
0.00301243
-0.00268101
0.0150898
0.000943677
-0.00796829
0.0391743
-0.00675051
-0.0175531
0.0691217
0.013119
-0.0436835
0.0766129
0.0246275
-0.0328744
0.0746782
0.0291546
-0.0280465
0.0666236
0.0308322
-0.0236336
0.0532537
0.0304345
-0.0179329
0.0259381
0.0285033
-0.0020496
-0.0150338
0.0254538
0.0146614
-0.0398043
0.0320198
-0.00810645
-0.0497591
0.0370725
-0.0279797
-0.0554975
0.0392825
-0.0344112
-0.056952
0.0387171
-0.0381153
-0.0527422
0.0361085
-0.0411398
-0.0420924
0.0324905
-0.0438911
-0.0208305
0.0265739
-0.0484511
-0.00718015
0.00278361
-0.016653
-0.00347391
0.00279528
-0.00657906
-0.00403624
0.00360093
-0.00309392
-0.0037456
0.00472404
-0.00508541
-0.00222158
0.00444444
-0.00604769
-0.000531289
0.00436219
-0.00613261
0.000616944
0.00190795
-0.00311978
0.000633379
0.00275143
-0.00281557
-0.00063093
0.00539891
-0.00420506
0.00560879
-0.0063264
0.00955487
0.00212182
-0.00616714
0.0122082
0.00385506
-0.00661619
0.0145085
0.00373613
-0.00614294
0.0162107
0.00398257
-0.00578798
0.0172621
0.00420584
-0.00535749
0.0169904
0.00454353
-0.00436595
0.0119503
0.00626562
-0.00130256
0.00554231
-0.000126047
0.00650377
0.0053945
-0.000773332
0.000907646
0.00645448
-0.000854449
-0.000220193
0.00748359
-0.000932724
-0.000111908
0.00831581
-0.000655386
-0.00019258
0.0088219
-2.78318e-05
-0.000493708
0.00891675
0.000615992
-0.000726261
0.00873337
0.00106373
-0.000895698
0.00840858
0.00126322
-0.000953817
0.00806055
0.00128587
-0.000953263
0.00771524
0.00122863
-0.000898769
0.00738423
0.00115248
-0.000836994
0.00703868
0.00109032
-0.00076024
0.00668774
0.00104692
-0.000711573
0.00615654
0.000963243
-0.000447241
0.00542801
0.000736792
-2.24801e-05
0.00579553
0.000610788
-0.0009911
0.0123637
-0.00082211
-0.00577423
0.0175334
-0.00319311
-0.00204536
0.018387
-0.000902112
-3.39409e-05
0.0177509
-0.000199628
0.000753317
0.0156124
0.000380698
0.00167501
0.00957739
0.00212761
0.00383836
0.00390655
0.00389015
0.0017526
0.00322312
0.000282571
0.000388224
0.0030006
-0.000330881
0.000539751
0.00234779
4.89092e-05
0.000590346
0.000994885
0.000416412
0.000925343
0.00036335
0.000429203
0.00019687
0.000144704
0.00021554
9.46042e-05
0.000126738
-7.83346e-05
7.43279e-05
6.32538e-05
-4.36948e-05
0.00012502
2.49335e-05
-7.62728e-05
0.000212007
2.94112e-05
-0.000117304
0.000325876
3.5935e-05
-0.000150986
0.000542927
4.68666e-05
-0.000265183
0.000500978
-1.10185e-05
5.1936e-05
0.000738733
-0.000358499
0.000119981
0.00121881
-0.000734466
0.000253202
0.0018823
-0.000934809
0.000270081
0.00254026
-0.00104561
0.000386396
0.00298243
-0.000958316
0.000514899
0.00308897
-0.000754886
0.000647092
0.00301472
-0.000631404
0.000704394
0.00260334
-0.000288062
0.0006982
0.00166871
0.000233546
0.00069983
0.000146504
0.000795929
0.000725045
-0.00144479
0.00139017
0.000199936
-0.00223372
0.000625958
0.00016221
-0.00215924
1.40614e-05
-8.9563e-05
-0.00133968
-0.000796664
-2.41496e-05
-0.000812966
-0.000548188
2.03052e-05
-0.000445063
-0.000404725
3.59246e-05
-0.000249223
-0.000262508
6.60269e-05
-0.000303879
-0.000147344
0.00020129
-0.000470063
-0.000128965
0.000293476
0.000365612
-0.000838739
0.000245158
-0.00061327
0.000730186
2.81265e-05
-0.000400273
0.000614197
-0.000280184
-0.000241316
0.000546509
-0.000552703
-0.000257561
0.000527094
-0.000719082
-0.000347863
0.000511251
-0.000861269
-0.00034381
0.000483109
-0.000878906
-0.000460191
0.000474996
-0.00092359
-0.000411879
0.000453795
-0.000875108
-0.000506649
0.000455448
-0.000878912
-0.000441195
0.000442302
-0.000807679
-0.000521001
0.000447133
-0.000797515
-0.000443727
0.000430904
-0.00071982
-0.000503805
0.000423579
-0.000700356
-0.00040938
0.000387311
-0.000614638
-0.000459269
0.000371203
-0.000530233
-0.000420996
0.000334076
-0.000547217
-0.000489849
0.000504462
-0.00130693
-0.000299953
0.00105442
-0.00147568
-0.000586014
0.000748259
-0.00266564
-0.000353241
0.00153049
-0.00482187
-0.00410142
0.00622216
-0.0107319
-0.0174619
0.0232468
-0.015735
-0.0220204
0.0268532
-0.0174566
-0.0349822
0.0363887
-0.0152493
-0.0461486
0.0435985
-0.0504894
0.0459158
0.0156483
-0.0812088
0.0217545
0.0247823
-0.0820246
0.0261801
0.0217536
-0.0748677
0.00548523
0.0367622
0.0125917
-0.0233015
0.0102842
0.00490416
-0.0249231
0.0123443
0.00262684
0.00240938
0.00325337
-0.00488782
0.00280591
0.0016639
-0.003692
0.00161264
0.00193198
0.000515888
0.00107915
0.000263871
0.000737062
-4.09947e-05
0.000381153
0.000348523
8.73495e-05
-0.000174617
3.24821e-05
-0.0011575
0.000819152
0.000162124
-0.00170162
0.000500885
0.00219268
-0.00403105
0.0017863
0.000963163
0.0013532
-0.00436675
0.00207556
0.00215049
0.000816872
0.000540492
0.00115122
0.000555701
0.000968258
-0.00080311
0.000572869
0.00135148
-0.00145401
0.000563204
0.00108455
-0.000777632
0.000597029
0.00145137
-0.00147229
0.000580641
0.00112492
-0.000735398
0.00061681
0.00144974
-0.00144082
0.000605455
0.00106155
-0.000685491
0.000657862
0.00126284
-0.00133171
0.000666228
0.000815198
-0.000635268
0.00073505
0.000799314
-0.00110056
0.00076448
0.000442596
-0.000746497
0.000841529
0.000352057
-0.00102038
0.000865478
9.57195e-05
-0.00106969
0.000921545
-0.000241771
-0.00124983
0.000969309
-0.00201276
0.000926911
-0.00435092
0.000586979
0.00174043
-0.00517305
-0.00018207
0.000991559
-0.00518579
-0.000235305
0.000235232
-0.00591293
-0.000270958
0.000987352
-0.0136468
0.000887803
0.00682126
-0.020364
0.00588098
0.000784497
-0.0245206
0.00235108
0.00174403
-0.0475049
0.0066296
0.0162594
-0.0492401
0.00437661
-0.00284578
-0.0274205
-0.00404516
-0.0178683
-0.0243853
-0.00139889
-0.00169625
-0.0185058
-0.00494559
-0.000984445
-0.00852538
-0.00124766
-0.00875741
-0.00794381
0.000381334
-0.000973699
-0.00904415
0.000209173
0.000878083
-0.00943901
8.534e-05
0.000296045
-0.00900769
-0.000551727
0.000106888
-0.00872588
-0.000483387
0.000188899
-0.00862906
-0.000333583
0.000223965
-0.00882936
-0.00012411
0.000311173
-0.00938931
7.24242e-05
0.000473074
-0.00969466
-0.000359666
0.000649726
-0.00958048
-0.000906597
0.000776619
-0.00910943
-0.00137406
0.000887144
-0.00841043
-0.00168234
0.000967572
-0.0077792
-0.00164041
0.000993362
-0.00702276
-0.00153574
0.000763937
-0.00604957
-0.00130735
0.000319429
-0.00617089
-0.0011997
0.0013077
-0.0134486
-0.000693927
0.00794069
-0.0184421
0.00810524
-0.00318766
-0.0208255
0.00540169
-0.0031054
-0.0418815
0.0127273
0.00815661
-0.0543345
0.0250116
-0.0130065
-0.0357225
0.00929841
-0.0284642
-0.0331736
-0.00311823
-0.0513774
-0.0254723
0.042994
-0.0592368
-0.0391044
0.0462076
-0.0571899
-0.0501933
0.0473235
-0.0453361
-0.0578754
0.0451848
-0.0278646
-0.0613194
0.043042
-0.0624486
0.0436428
0.0193913
-0.10427
0.0249307
0.038349
-0.103332
0.022196
0.0521105
-0.0969052
0.0243803
0.0547379
-0.0838087
0.030108
0.0461043
-0.065384
0.0340863
0.0261578
-0.0430286
0.0367542
-0.0144294
0.0367922
-0.0290942
-0.0292088
0.0431136
-0.0401897
-0.0373891
0.0476119
-0.0455624
-0.045934
0.0503978
-0.0439497
-0.0551747
0.052609
-0.0365581
-0.0630139
0.0546705
-0.0244586
-0.0696896
0.0566442
-0.00660873
-0.0745866
0.0558152
0.0111563
-0.0718596
0.053201
0.0100841
-0.0547414
0.0549414
0.0046303
-0.0578003
0.0623893
0.00975899
-0.0687644
0.06277
0.0182919
-0.0708645
0.061461
0.027758
-0.0678168
0.0574937
0.0347178
-0.061381
0.0535938
0.0347077
-0.0514083
0.0506622
0.014777
-0.0343721
0.0536858
0.00614814
-0.010638
0.0190478
0.00327044
-0.001197
0.00399741
0.00276161
-0.00300875
0.00346276
0.00157074
-0.00417278
0.00529382
0.000100706
-0.0038685
0.0052604
-0.001003
-0.00466219
0.00568671
0.000538168
-0.00405755
0.0024533
0.00140663
-0.00460385
0.00368807
-0.00119177
-0.00520794
0.00773538
0.00838147
-0.00966126
0.0139183
-0.00963666
0.00400043
0.0170145
-0.00994296
0.00673613
0.0191683
-0.00819818
0.00594135
0.0224973
-0.00883477
0.00540105
0.0507326
-0.0306735
0.00224337
0.107523
-0.0008463
-0.0565065
0.133238
0.0162343
-0.0426396
0.14593
0.0235991
-0.0370576
0.152101
0.0262956
-0.0332106
0.151408
0.0288363
-0.028897
0.136409
0.0338193
-0.0194837
0.0791669
0.0490055
0.00770993
0.036395
0.0190905
0.0235047
0.0293045
0.00630351
0.00069633
0.0188038
0.0103063
0.000122525
0.00784641
0.010306
0.000621863
0.00690712
0.00164652
-0.00071962
0.00687644
0.00063406
-0.000617035
0.00572097
0.00160184
-0.000459601
0.00259335
0.00248328
0.000633401
0.00106904
0.00126323
0.000255706
0.000432523
0.00063345
0.000257383
-0.000759106
0.000930698
3.17072e-05
-0.000593145
0.000815703
-0.000121123
-0.000649223
0.000798926
-0.000266276
-0.000614441
0.000756599
-0.00032434
-0.000656739
0.000711804
-0.000398251
-0.000579941
0.000650957
-0.000381261
-0.000641126
0.000621296
-0.00039896
-0.000563872
0.000578795
-0.000340756
-0.000628778
0.000567849
-0.000333747
-0.000554757
0.000545043
-0.000272197
-0.000612062
0.000547869
-0.000267111
-0.000539008
0.000531252
-0.000234289
-0.000561704
0.000526339
-0.000242356
-0.000489686
0.000495128
-0.000190537
-0.000519286
0.000465095
-6.11736e-05
-0.000477818
0.000345951
-2.3624e-06
-0.000436051
0.000374911
-0.000396725
-0.000692326
0.0010814
-0.000648548
0.00087233
-0.000627099
-0.00133895
0.00136572
-0.000688067
-0.00253895
0.00553389
-0.00436969
-0.00915596
0.0249171
-0.0184271
-0.0161463
0.0303138
-0.0234993
-0.0205696
0.0407263
-0.0366234
-0.0164814
0.04479
-0.0492217
0.0493241
-0.0551961
0.0192054
0.0712456
-0.0272582
0.0260516
0.0636265
-0.0259494
-0.0184459
0.0498208
-0.00540622
0.0269914
-0.00477703
0.0338815
-0.00206709
-0.00488028
0.000150853
0.0451275
-0.0114377
0.0649274
-0.0150227
-0.0121168
0.0512226
-0.00103508
-0.0283046
0.054599
-0.0293419
0.0698544
0.0104921
0.0638975
-0.0135594
0.0162971
0.0360669
0.0273421
0.00932397
0.0085284
0.0677936
-0.00579922
-0.00587782
-0.0123566
0.0840202
-0.0179318
0.00154992
-0.00245167
0.0129377
-0.0257444
-0.00337823
0.010059
-0.0102336
0.00120088
-0.0307262
-0.00895605
0.0227977
0.00658012
0.00432079
-0.0069311
0.00623622
0.0145145
0.022124
-0.0137596
0.00863656
0.00349171
-0.00593765
2.0824e-05
0.016149
0.00385895
0.00312136
0.0115132
0.001351
0.00327777
0.0106451
-2.59133e-05
0.000883351
-0.00928451
-0.000376762
0.0202928
-0.0192629
0.00100588
0.00419998
0.00354204
0.00543621
-0.00478453
0.00725617
-0.000440035
0.00465993
0.0025662
-0.00468029
0.00895926
0.00175675
0.0107664
0.00361433
-0.0118424
-0.000806796
-0.00564527
-0.00243823
-0.00295465
0.0307464
-0.0101867
-0.00250612
0.000926278
0.00971865
0.00426067
0.00267505
-0.0337714
0.00348683
-0.00230622
0.000569691
-0.00111397
0.00308469
-0.00443459
0.00292697
-0.00451125
0.00314989
-0.0115152
-0.0133282
0.00633173
0.0108276
0.00341238
-0.00818954
-0.0108834
0.00708864
0.0116997
-0.00293479
0.00224613
-0.0125306
0.0190589
-0.00256172
-0.0028225
-0.00278274
0.00571317
0.000645116
-0.00260817
-0.00208554
0.00182161
-0.00071052
0.000410073
0.00298427
-0.00247023
-0.00211414
0.00183236
0.000530264
0.00254216
0.00189744
-0.00251478
-0.00204778
0.000437311
-0.00255101
-0.00206869
0.00215905
0.00255064
0.000671612
-0.00262879
-0.00203627
0.00199475
0.00243314
0.000665135
-0.00229968
-0.0020408
0.00182414
0.00252003
0.00104399
-0.00256009
-0.00191821
0.00162599
0.00247073
0.000975745
-0.00232413
-0.00198621
0.00176409
0.00261188
0.00142189
-0.00287631
0.00265823
0.00179167
-0.00202226
0.0013355
-0.00269499
0.00202661
0.003078
-0.00232583
0.00162046
-0.00268124
-0.00354415
0.0034738
0.0024639
0.00121936
-0.00365186
0.00324548
-0.00319062
0.00399522
0.00103902
-0.0045115
-0.0034668
0.00379573
0.00435985
0.000436264
-0.00438082
0.00513703
0.00364246
-0.00379886
5.18328e-05
0.00416702
-0.00483598
0.00556303
-0.00451281
6.94771e-05
-0.00190029
0.00242668
0.00179044
-0.00233577
0.00179956
-0.00110309
0.00122456
-0.0018523
0.002263
0.00213391
0.000341121
-0.0029394
0.00208132
-0.000878873
0.000643981
0.000415608
0.00213323
-0.0016448
0.00135
0.000241723
0.00174417
-0.00109051
0.0011982
0.000280255
0.00134837
-0.000655086
0.00076962
0.000280188
0.000647359
-3.86175e-05
0.00032562
0.000412959
-0.00035185
0.00050825
-8.52693e-05
0.000575165
-0.00104485
0.000560201
-0.000483917
0.000615653
-0.00125127
0.00075247
-0.00107686
0.000529753
-0.00124849
0.000965288
-0.00150352
0.000534378
-0.0011324
0.00100524
-0.00154846
0.00042602
-0.000924609
0.000927445
-0.00136591
0.000229507
-0.000784289
0.000377542
-0.000487399
-3.1425e-05
-0.000428622
0.000577126
0.000110176
-0.00104389
-0.000155436
0.000272056
-0.000577603
3.16173e-05
-0.000570849
0.000663708
-0.000561333
0.00031155
-0.00121171
0.00156195
0.00134882
6.40501e-05
-0.0023519
-0.00264275
0.00265971
-0.00217468
0.000923824
-0.00363137
0.000125165
0.00217499
0.000428902
-0.00261759
0.000766338
-0.00177929
-0.000571198
-0.00520563
0.00382255
-0.00253425
0.00197564
-0.0051049
0.0038059
-0.00688998
-0.00089935
-0.0040073
0.00914611
-0.0260217
-0.00992323
-0.0185833
-0.00692708
0.0537431
-0.0428429
-0.0203587
0.0253467
0.0110372
-0.0494999
-0.0292748
0.0463135
-0.0112024
-0.0494693
-0.0310374
0.0512696
-0.021092
-0.0464798
-0.032067
0.0535407
-0.025296
-0.041517
-0.0299893
0.0526222
-0.028413
-0.0121182
-0.0231255
0.0472718
-0.0164659
-0.03793
0.0164728
-0.00726677
-0.00961818
-0.0118413
0.0136366
0.0260136
-0.0101695
-0.0131384
0.0217241
0.0166102
-0.0141066
-0.0107255
0.0123117
0.0345422
-0.0112848
-0.0139719
0.00530004
0.0277169
-0.00811207
-0.0126924
-0.006572
0.0394175
-0.0104851
-0.0171603
-0.0125399
0.0402237
-0.0144785
-0.0199045
-0.0075951
0.0292745
-0.0138223
-0.0205328
-0.00888308
0.0333235
-0.0132283
-0.018961
-0.0106488
-0.00503711
-0.00739578
-0.00233276
-0.0092663
0.00588722
-0.0010589
-0.00991128
0.00641673
-0.00247315
-0.00867998
0.00449583
-0.00292917
-0.00626746
0.00288086
-0.0030054
0.00198996
-0.00270004
-0.00913127
0.00586916
0.0101307
-0.00497504
-0.00431739
0.00658031
-0.00533409
0.00614325
-0.00653897
0.00682472
-0.00665453
0.00586287
0.0072776
-0.00589749
0.00534193
0.00724599
-0.0047662
0.00469324
0.0121843
-0.0126768
0.00754387
0.0224499
-0.0339532
0.0319127
-0.040142
0.0398852
-0.0408054
0.0460392
-0.0379345
0.0470632
-0.0310526
0.0452297
-0.0191882
0.0312651
0.00351495
0.0162874
0.0139018
0.0155311
0.00264131
0.0121187
0.00276936
0.00502811
0.00591986
0.00114122
0.00440886
0.000794202
-0.000187328
0.00422728
0.000272264
-0.000104327
0.00338193
0.000872693
-4.0571e-05
0.0014503
0.000605234
0.00131547
0.000540119
0.000241035
0.000663779
0.000445129
9.19243e-05
0.000307199
4.40419e-05
9.22119e-05
0.000224307
-4.79017e-05
0.000130084
0.000343854
-0.000128478
8.28803e-06
0.000571086
-0.000183456
-4.46736e-05
0.000793934
-0.000180283
-4.37363e-05
0.00106343
-4.44069e-05
-0.00022635
0.000887776
-6.01702e-05
0.000234807
0.00130837
-4.38139e-05
0.00218013
5.44979e-05
0.0030774
0.000106738
0.00376853
0.000272907
0.00406125
0.000458509
0.00398739
0.000632808
0.00377243
0.000721952
0.00302727
0.000705301
0.00173684
0.000634092
1.96817e-05
0.000625425
-0.00181632
0.000190016
-0.00290102
0.000205069
-0.0027522
-9.39964e-05
-5.58476e-05
-0.0017216
-1.70212e-05
-0.00101484
-0.00105027
3.97722e-05
-0.000712272
-0.000579349
5.58876e-05
-0.000527711
-0.000327505
8.89832e-05
-0.000341469
-0.000403655
0.000263805
-0.000188366
-0.000146208
0.000374326
-0.000646405
0.000458476
4.12711e-05
-0.000241331
0.000301014
0.000555424
0.000454552
-0.00212085
0.000611527
0.000812197
0.00113041
-0.00273801
0.000949699
0.00111077
0.00115827
-0.00247499
0.00123622
0.00120909
0.00206477
-0.00383132
0.00134393
0.00157896
0.00195598
-0.00286191
0.00142005
0.00154882
0.00430054
-0.00534943
0.00290095
0.00504941
0.00412393
0.00297107
-0.00206147
0.003975
0.00178767
-0.000996199
0.00480565
0.00162705
-0.0011096
0.0048579
0.00235242
-0.00120819
0.00460678
0.00201478
-0.000995696
0.00411073
0.00102915
-0.000209021
0.00330305
0.000247207
0.000473642
0.00243497
-0.00037826
0.000760859
0.00163503
-0.00160556
0.0013271
0.000936046
-0.00276403
0.00195782
0.000119559
-0.00289713
0.00216345
-0.000851236
-0.00245453
0.00205752
-0.00103276
-0.00068597
0.000378662
-0.000641608
0.00066381
-0.000479178
0.000655067
-0.000362328
0.00407919
-0.00245634
-0.00326978
-0.00124009
0.00418944
0.00449289
-0.00146272
0.00259157
0.00626713
-0.000723713
0.00158572
0.0198003
-0.00528259
-0.012056
0.00382734
0.0156821
-0.00725213
0.00605348
0.0114703
-0.00670409
0.00572363
-0.00984025
-0.00141135
0.0253546
-0.00847027
-0.0168012
-0.0100502
0.0160433
-0.0180682
-0.0395191
0.059064
-0.0291646
0.0269902
0.0426483
-0.0500987
0.0588798
0.00745078
-0.0576006
0.0666865
-0.00883632
-0.0590324
0.0702428
-0.0162007
-0.056569
0.0704276
-0.0212045
0.0644048
-0.03201
0.0694612
0.0835875
-0.0274441
0.0687847
0.0841276
-0.0140503
0.0640132
0.081308
-0.0073052
0.0509337
0.0775675
0.00119848
0.0174229
0.0711445
0.020247
-0.0379635
0.0321462
0.0492182
-0.0367131
-0.046605
-0.0222453
0.048496
0.0139764
-0.019271
-0.0116696
-0.0198702
-0.0186466
-0.0154955
0.00746531
-0.0243859
-0.00739635
0.00559025
-0.0224662
0.0063424
-0.0272501
-0.00840326
0.00583065
-0.0119573
-0.0151848
-0.00713954
0.00164909
0.00401019
-0.0116224
-0.0042347
-0.000133508
-0.00995833
0.00116536
-0.00982456
-0.00395461
0.00233824
-0.00369862
-0.00687149
-0.00418556
0.00245693
0.00320439
-0.00473901
-0.00315211
0.000984286
0.00211401
-0.00372818
0.00154522
-0.00146318
0.00164808
-0.00338864
-0.00347986
0.0029471
-0.0051608
-0.00318015
0.0020523
-0.00728235
-0.00311585
0.00247033
-0.00908459
-0.00227242
0.00246615
-0.0100749
-0.00181214
0.00242118
-0.0115916
-0.00107266
0.00283361
-0.0118034
-0.000545432
0.00178342
-0.0111669
0.000924102
0.000451129
-0.0102747
0.00183847
-0.000381117
-0.0092241
0.00297199
-0.00239925
-0.00896339
0.00275329
-0.0012294
0.0101854
0.00622249
-0.0161403
-0.00122692
0.00945607
0.00324793
0.000231141
0.0111931
0.002662
-0.00143057
0.0123907
0.000801411
-0.000163583
0.012487
-0.000310126
0.00113477
0.0114705
-0.00115663
0.00162471
0.0106065
-0.00195506
0.00174355
0.0096672
-0.00271558
0.00183997
0.00871325
-0.00323812
0.0019167
0.00712178
-0.00343962
0.00191209
0.00574228
-0.00339759
0.00159391
-0.00381233
0.00234299
-0.00673082
-0.00379076
0.00196657
-0.00779138
-0.00473997
0.00239943
-0.00875345
-0.0043162
0.00183546
-0.00974035
-0.0040901
0.00183586
-0.0107602
-0.00351323
0.00181457
-0.0114245
-0.00288927
0.00159546
-0.0120111
-0.00162114
0.00104809
-0.0124523
-0.000170083
0.000298058
-0.0117498
0.00138795
-0.00129259
-0.00970781
0.00143473
-0.000818389
-0.00931416
0.00217792
0.000672534
0.0118408
0.00311616
-0.0188145
0.000748064
0.00904012
0.00461468
0.000359981
0.0129346
-0.00166246
-0.000801163
0.011619
0.00357315
-0.000873653
0.0158454
-0.00353694
-0.000863638
0.0122941
0.00159437
0.000331625
0.0151133
-0.0056279
-8.47231e-05
0.0110386
-0.000648431
0.00120576
0.0128574
-0.00673755
0.000824492
0.00852982
-0.00196302
0.0019703
0.00842359
-0.00645116
0.00181337
0.00527357
-0.00218105
0.0015364
-0.00534998
0.000596016
0.0113805
-0.00735153
-0.0139216
0.00234455
0.0118027
-0.00599531
0.00137085
-0.00504522
0.00125128
0.0125936
-0.00510984
-0.0130123
0.000463925
-0.00565801
-0.00119068
0.0137974
-0.00436159
-0.0133758
-0.00174081
0.0295976
-0.00475889
-0.0189292
0.000647605
-0.00772731
0.00443697
0.0249255
-0.00660648
-0.0301117
0.00397646
-0.00670806
0.00489557
0.0122783
-0.00311975
-0.0185248
0.00261238
-0.0298417
-0.0162494
-0.0228689
-0.0185483
0.00836131
0.00484063
-0.0397359
0.00256276
0.0093459
-0.0231953
0.00283526
0.0062937
-0.00580627
-0.0277736
0.00401263
-0.0315303
0.00286519
0.00804312
-0.000170612
-0.0324092
-0.00636696
-0.000722635
-0.0134526
-0.00181775
0.00468817
-0.0185627
0.000229264
-0.0141214
0.000303991
0.00558602
-0.0156163
-0.00513233
0.00102211
-0.0143503
0.000910371
-0.0167859
-0.00634564
0.00141181
0.00773162
-0.020053
-0.00632806
0.00184581
-0.0181191
0.00349906
-0.021507
-0.00642633
0.00241252
-0.0224214
-0.0036202
0.000485321
-0.0208843
-0.000464418
-0.00105236
-0.019274
0.00229638
-0.000971528
-0.0187515
0.00375161
-0.00117464
-0.00504318
0.00436037
-0.0173199
-0.00076839
-0.00641636
-0.016596
-0.000865305
-0.00744027
-0.0150259
-0.000109996
-0.00580433
-0.0115876
0.00172234
-0.0039048
-0.00925922
0.00103801
-0.00688626
0.000591429
-0.00930331
0.0043378
-0.000336004
-0.00668276
-0.00133221
-0.000669572
-0.00471586
-0.000324405
0.00560534
-2.33749e-05
0.0151052
0.00978609
-0.0309398
0.0108171
-0.000606316
-0.00457182
0.0070263
0.00104092
0.000274769
-0.00431563
0.0046858
-0.0079169
0.00902638
-0.00122349
-0.00171563
0.00637872
-0.00136814
-0.00796488
-0.00117738
0.00530014
-0.00631292
-0.00191147
0.00565118
0.00189644
-0.00683014
-0.00234401
0.00559068
-0.00699003
0.00181432
-0.00253146
0.00547828
-0.00701764
0.00170886
-0.00250762
0.0053574
-0.00695511
0.0015558
-0.00238028
0.00526765
-0.00689062
0.00147758
-0.00229467
0.00514787
-0.00670546
0.00145394
-0.00225401
0.00507556
-0.00656171
0.00142751
-0.00212604
0.0047337
-0.00619277
0.00131382
-0.0020073
0.00407619
-0.00493556
0.000725152
-0.00177606
0.00524888
-0.00773717
0.00223342
-0.0116627
0.00366559
-0.0260635
0.0136767
-0.022021
-0.0248446
0.0115399
-0.0275236
0.00507395
-0.078044
0.0411643
-0.0178278
-0.0877615
0.0282702
-0.0890883
0.0230093
-0.117082
0.0201813
0.0131565
-0.130524
0.01568
0.00378834
-0.137716
0.014592
-0.00310599
-0.140044
0.0146195
-0.00888584
-0.13748
0.0160195
-0.0154177
-0.129153
0.0196728
-0.0243917
-0.114191
0.0236765
-0.0366345
-0.0458053
-0.0400594
0.0253018
-0.0660271
-0.00664539
0.00980247
-0.0283509
-0.0208284
-0.0176489
-0.00620492
-0.0161312
-0.00243763
-0.0131729
0.0086071
-0.00954565
-0.00433564
0.00493278
-0.0113718
0.000482332
0.00168542
-0.00649438
0.0014004
-0.00297481
0.00593701
0.00183784
-0.00648391
0.00980806
0.00197539
-0.00597017
0.0127507
0.00168108
-0.00475998
0.0201622
0.00359698
-0.0111886
0.034728
0.0152669
-0.0301178
0.0300435
0.0322528
-0.0278572
0.0250621
0.0213551
-0.0165599
0.0227967
0.0155714
-0.0134547
0.019581
0.0135136
-0.0104339
0.0157755
0.0120962
-0.0084079
0.00952496
-0.00350879
-0.0147133
0.0142959
0.000207588
-0.0183113
-0.00254322
0.0181228
-0.020753
0.0196855
-0.00385723
-0.0215378
0.0213723
-0.00515067
-0.0159382
0.0218058
-0.00618918
-0.0553314
0.03821
0.0567533
-0.0239134
-0.021809
-0.020149
-0.0451876
0.0464843
-0.0191572
-0.00724762
0.0256687
-0.0212638
-0.0155461
-0.0075926
0.0196637
-0.0158621
-0.0100323
-0.00723173
0.0183151
-0.0167687
-0.00617157
0.0161994
-0.0152821
0.00585927
-0.00862063
0.00992621
-0.00944849
0.0125784
-0.00869697
-0.0113596
-0.0036706
-0.00282789
-0.00271839
-0.00215263
-0.00110596
-0.00140364
-0.00116348
-0.0019967
0.00211591
-0.0012283
0.00247338
-0.00253872
-0.0019358
0.00278004
-0.00171361
-0.00446541
0.000582774
0.00382329
0.00317826
0.00532904
-0.0155254
0.00294066
-0.000376163
-0.00780152
0.00508726
-0.00563995
-0.00078456
-0.00717821
0.000144641
0.027114
-0.00882104
-0.0132504
-0.00593619
0.00671033
0.0139718
0.00639042
0.0377667
0.00673293
-0.0378591
0.0090726
-0.00160388
0.0302196
-0.0186786
-0.00242348
0.000334165
-0.0067591
0.00799869
-0.000916253
0.00283411
-0.00321784
0.015991
-0.00645261
0.00414154
0.0102208
0.00970094
-0.0106734
-0.0105876
-0.00679394
-0.0075122
0.00817523
-0.0101016
-0.00217238
-0.00660519
-0.0314253
-0.0189665
0.0413793
0.00641812
-0.000159136
-0.00250135
-0.0686942
0.0333306
-0.00785271
-0.0214165
0.0065283
-0.020131
0.00394705
0.0031732
-0.000596871
0.00322154
-0.00145095
-0.00260504
-0.000971096
-0.000352374
-0.00219925
0.00146789
0.00252946
0.00165831
-0.0290478
0.0151771
-0.0109654
-0.010946
-0.0102584
0.0793529
0.047026
0.0338365
-0.015881
-0.0150256
-0.0141697
0.0226914
0.0270802
-0.0156092
-0.0105233