/*--------------------------------*- C++ -*----------------------------------*\
| =========                 |                                                 |
| \\      /  F ield         | OpenFOAM: The Open Source CFD Toolbox           |
|  \\    /   O peration     | Version:  v2012                                 |
|   \\  /    A nd           | Website:  www.openfoam.com                      |
|    \\/     M anipulation  |                                                 |
\*---------------------------------------------------------------------------*/
FoamFile
{
    version     2.0;
    format      ascii;
    class       volVectorField;
    location    "185";
    object      U;
}
// * * * * * * * * * * * * * * * * * * * * * * * * * * * * * * * * * * * * * //

dimensions      [0 1 -1 0 0 0 0];


internalField   nonuniform List<vector> 
22960
(
(-0.183274 -0.385422 0.261332)
(-0.0493181 -0.453986 0.273182)
(-0.0981065 -0.466068 0.121808)
(-0.133782 -0.277192 0.0657838)
(0.188272 -0.168792 0.07286)
(0.0422104 -0.390051 0.105352)
(0.0688871 -0.142639 0.114087)
(0.0823801 -0.217043 0.129282)
(0.202357 -0.168018 0.0699737)
(0.23043 -0.141169 0.0577455)
(0.278441 -0.113934 0.0528364)
(0.242272 -0.100698 0.0974217)
(0.197666 -0.0743465 0.0551647)
(0.150536 -0.0748247 0.0493986)
(0.190311 -0.0624374 0.0367542)
(0.211711 -0.0415487 0.0685173)
(0.193366 -0.0147232 0.131871)
(0.0909777 0.00100888 0.245831)
(-0.187179 -0.0973943 0.252034)
(-0.299968 -0.226498 0.19306)
(-0.191956 -0.311033 0.210119)
(-0.0681729 0.0597121 0.189584)
(-0.638934 -0.297018 0.181901)
(-0.731704 -0.15285 0.245607)
(-0.818788 0.307518 0.219648)
(-0.703335 0.605383 0.113095)
(-0.762989 0.232015 0.0828052)
(-0.996697 0.12416 0.0415596)
(-1.25109 0.0511785 0.034618)
(-1.39158 0.0140748 0.0153147)
(-1.46903 -0.00985154 0.00450881)
(-1.49916 -0.0284692 0.00160805)
(-1.49492 -0.0482634 0.00211206)
(-1.46279 -0.076257 0.00609019)
(-1.39144 -0.117241 0.0194691)
(-1.2643 -0.179222 0.0416711)
(-1.04469 -0.261111 0.0677715)
(-0.71954 -0.343144 0.0732861)
(-0.365235 -0.443838 0.00333287)
(-0.249971 -0.822142 -0.0422187)
(-0.185937 -1.21085 -0.0661278)
(-0.136844 -1.42755 -0.0823265)
(-0.100329 -1.56073 -0.0959136)
(-0.0744222 -1.59999 -0.114374)
(-0.0502608 -1.55595 -0.138007)
(-0.024704 -1.43219 -0.165367)
(0.00295108 -1.22086 -0.192771)
(0.0376868 -0.882768 -0.211806)
(0.0462473 -0.549318 -0.161763)
(0.242144 -0.26098 -0.140206)
(0.299588 0.573348 -0.166339)
(0.200332 1.01839 -0.0906377)
(0.143493 1.30556 -0.0574155)
(0.104042 1.47078 -0.0346277)
(0.0650359 1.55849 -0.0218468)
(0.0214653 1.57877 -0.0148524)
(0.0201153 1.53134 -0.016364)
(0.00828003 1.50247 -0.00240126)
(-0.0145559 1.43635 0.00268387)
(-0.0407557 1.29339 0.00787449)
(-0.0680076 1.06882 0.0185855)
(-0.117889 0.818589 0.0297372)
(-0.0218071 0.30052 0.00577058)
(-0.492938 0.0551959 0.0171811)
(-0.323841 0.327299 0.0662374)
(0.252389 -0.576141 -0.118041)
(-0.189251 0.227594 -0.0229136)
(-0.426124 0.215964 0.0186421)
(-0.707268 0.175127 -0.00501438)
(-0.971368 0.136033 -0.00988382)
(-1.17335 0.156329 0.0287263)
(-1.30729 0.167415 0.0374337)
(-1.42959 0.127219 0.0144292)
(-1.51938 0.0892644 -0.00211245)
(-1.5691 0.0576521 -0.00730096)
(-1.58484 0.0335622 -0.00478106)
(-1.56141 0.0132359 0.00217095)
(-1.4886 -0.011496 0.0126453)
(-1.3524 -0.0525325 0.0288507)
(-1.08746 -0.122139 0.0263597)
(-0.846414 -0.253496 0.0587822)
(-0.876636 -0.673009 0.0707773)
(-1.1768 -0.408418 0.0720512)
(-1.00894 -0.169551 0.198554)
(-0.866328 0.0173382 0.173939)
(0.326824 -0.210322 0.056267)
(-0.230711 0.414081 0.151672)
(-0.162787 0.228768 0.197384)
(-0.107657 0.153168 0.223947)
(0.0489477 0.200095 0.212557)
(-0.092746 0.330164 0.226435)
(-0.236036 0.381684 0.259519)
(-0.402567 0.394426 0.27981)
(-0.541005 0.367104 0.291631)
(-0.608845 0.288683 0.290486)
(-0.638064 0.243116 0.277015)
(-0.610274 0.204755 0.165438)
(-0.565886 0.172619 0.148607)
(-0.483366 0.13575 0.150964)
(-0.338363 0.103341 0.133774)
(-0.204398 0.0614485 0.122245)
(-0.174338 -0.208252 0.101396)
(-0.241528 -0.0418197 0.1271)
(-0.114529 0.0125553 0.134277)
(-0.176028 -0.146924 0.105249)
(-0.118421 -0.137954 0.0997636)
(-0.10846 -0.1158 0.0957981)
(-0.0896198 -0.109989 0.0790663)
(-0.0922587 -0.124167 0.177187)
(-0.140308 -0.0272907 0.205557)
(-0.176219 0.157259 0.22625)
(-0.243965 0.114987 0.24328)
(-0.238177 0.114143 0.251916)
(-0.23322 0.129626 0.254477)
(-0.244412 0.147462 0.242452)
(-0.250033 0.112759 0.239803)
(-0.266815 0.110263 0.235773)
(-0.342883 0.024195 0.264293)
(-0.35194 -0.0565435 0.302889)
(-0.323954 -0.0631747 0.330812)
(-0.335259 -0.0260576 0.351114)
(-0.377755 -0.0304668 0.331641)
(-0.41778 -0.120506 0.315854)
(-0.361198 -0.239135 0.285353)
(-0.267537 -0.259646 0.291205)
(-0.190013 -0.311058 0.262532)
(-0.165341 -0.388783 0.137478)
(-0.161606 -0.440904 0.125565)
(-0.141441 -0.462253 0.115949)
(-0.131915 -0.466007 0.281513)
(-0.153771 -0.439871 0.271337)
(-0.158243 -0.377325 0.192017)
(-0.182473 -0.298258 0.307513)
(-0.121787 -0.301691 0.527091)
(-0.183674 -0.230041 0.485225)
(-0.232584 -0.180083 0.569266)
(-0.271444 0.0609468 0.566875)
(-0.201346 0.206975 0.575961)
(-0.127581 0.238124 0.602224)
(-0.0930291 0.173911 0.577996)
(-0.110157 0.107189 0.537557)
(-0.115 0.0933349 0.471589)
(-0.0682484 0.100797 0.404104)
(-0.0461121 0.0432358 0.397591)
(-0.0401952 0.0113506 0.400008)
(-0.0462496 -0.0853879 0.417596)
(-0.0632821 -0.143436 0.392859)
(-0.0840568 -0.1262 0.390546)
(-0.0597746 -0.0503311 0.430253)
(-0.0744046 -0.148737 0.349919)
(-0.0426169 -0.257079 0.371347)
(-0.103272 -0.185649 0.223824)
(-0.0948204 -0.162315 0.170011)
(-0.102644 -0.147426 0.236667)
(-0.10977 -0.16741 0.245866)
(-0.167058 -0.165999 0.241999)
(-0.0705013 0.00166134 0.259547)
(-0.239144 -0.0570796 0.24053)
(-0.17288 -0.211796 0.255272)
(-0.198979 0.0716595 0.319901)
(-0.177594 0.0592952 0.537797)
(-0.160517 0.0472833 0.710248)
(-0.15642 0.0340959 0.857183)
(-0.161581 -0.0222115 0.95467)
(-0.162555 -0.0678782 1.00562)
(-0.131112 -0.0816672 1.0192)
(-0.0887621 -0.0132215 0.958785)
(-0.0537295 -0.0208783 0.88409)
(-0.0313889 -0.0312246 0.778154)
(-0.00590487 -0.0341797 0.631931)
(0.0264216 -0.0313485 0.430808)
(0.0908848 -0.0455794 0.248478)
(0.0627805 -0.313471 0.224823)
(-0.0218434 -0.182806 0.200877)
(0.146821 -0.212675 0.134939)
(0.104786 -0.40751 0.111901)
(0.102867 -0.469282 0.113462)
(0.106167 -0.576352 0.110457)
(0.0975861 -0.642321 0.100068)
(0.0838077 -0.694326 0.152695)
(0.129456 -0.737963 0.18384)
(0.152 -0.761293 0.214406)
(0.170531 -0.782566 0.208632)
(0.177619 -0.766761 0.193384)
(0.178421 -0.718644 0.167964)
(0.17142 -0.622795 0.128252)
(0.16369 -0.497511 0.0346388)
(0.155564 -0.0685468 -0.083571)
(0.198225 0.394792 0.0482405)
(0.217567 0.475458 0.197405)
(0.226259 0.554152 0.241977)
(0.228205 0.572358 0.269927)
(0.221051 0.563169 0.291968)
(0.213313 0.522836 0.305755)
(0.198101 0.434745 0.303061)
(0.168827 0.388872 0.237334)
(0.121697 0.353963 0.211075)
(0.129114 0.322517 0.137893)
(0.128159 0.269869 0.158151)
(0.120408 0.18634 0.167863)
(0.118092 0.071347 0.157103)
(0.0536175 0.0348126 0.0777972)
(0.178982 0.0616788 0.0994835)
(0.140407 0.0345487 0.135942)
(0.147372 0.0531264 0.202121)
(0.277985 0.0659426 0.174898)
(0.433241 0.0816684 0.163207)
(0.546957 0.0921131 0.154724)
(0.639964 0.101384 0.147609)
(0.715802 0.107711 0.141434)
(0.779715 0.111746 0.131949)
(0.844008 0.117469 0.107224)
(0.895888 0.101112 0.0825128)
(0.965193 0.0634505 0.0827736)
(1.04138 0.0419119 0.0814366)
(1.13227 0.0244328 0.0747673)
(1.24437 0.00633963 0.0558917)
(1.33818 -0.0143694 0.0182427)
(1.38254 -0.0334632 -0.0261108)
(1.37188 -0.0496084 -0.0639879)
(1.32426 -0.0592038 -0.0875159)
(1.26428 -0.0647113 -0.0985525)
(1.20778 -0.0664602 -0.102305)
(1.15859 -0.0668198 -0.102096)
(1.11688 -0.065632 -0.0992128)
(1.08118 -0.064774 -0.0951902)
(1.0497 -0.0601358 -0.0895492)
(1.03038 -0.0499565 -0.0884006)
(1.00794 -0.0419463 -0.0908141)
(0.915381 -0.0396975 -0.0677917)
(0.847042 -0.0330546 -0.0458453)
(0.821702 -0.0276284 -0.0388876)
(0.794182 -0.0232684 -0.0352902)
(0.761211 -0.0202111 -0.0340951)
(0.717759 -0.0152262 -0.0379062)
(0.685373 -0.0148575 -0.0402601)
(0.645083 -0.0139323 -0.0451171)
(0.578282 -0.00684395 -0.0480512)
(0.489236 0.00102492 -0.0476458)
(0.372641 0.0181206 -0.0452504)
(0.227101 0.0291972 -0.0464712)
(0.0971195 0.0369525 -0.0499354)
(0.057569 0.0596018 -0.0560577)
(0.0375172 0.0834979 -0.0348181)
(0.0440981 0.141843 -0.0270135)
(0.0512991 0.166937 -0.0302615)
(0.0615833 0.287361 -0.0334027)
(0.118878 0.272111 -0.0324004)
(0.185232 0.766006 -0.00454142)
(0.756097 0.248803 -0.107815)
(0.972583 -0.149864 -0.137448)
(1.48169 -0.333413 -0.196154)
(2.0335 -0.420656 -0.291665)
(2.47335 -0.418459 -0.376289)
(2.71987 -0.367505 -0.433511)
(2.66148 -0.364421 -0.465127)
(2.43307 -0.339792 -0.449094)
(1.99289 -0.1803 -0.419998)
(1.04622 0.173121 -0.409792)
(-0.46627 1.12974 0.168005)
(-1.73441 1.94102 0.0197429)
(-0.696441 2.91562 0.013452)
(-0.413554 1.35588 -0.0263962)
(-0.278637 1.04373 -0.0574091)
(-0.227902 0.693617 -0.0682431)
(-0.196799 0.474535 -0.0679181)
(-0.147803 0.268147 -0.100342)
(-0.175323 0.178602 -0.146112)
(-0.274146 0.138612 -0.095635)
(-0.146593 0.180237 -0.120795)
(-0.065799 0.191268 -0.081917)
(0.00852905 0.187243 0.0346882)
(-0.0193066 0.172864 0.177608)
(-0.0499917 0.158665 0.273762)
(-0.0637201 0.149231 0.345908)
(-0.0855113 0.143182 0.38)
(-0.0849352 0.139028 0.396328)
(-0.100088 0.136802 0.39643)
(-0.0929645 0.136085 0.388529)
(-0.104333 0.135766 0.376269)
(-0.0911663 0.135457 0.361303)
(-0.0977682 0.134452 0.347449)
(-0.0782013 0.131885 0.338258)
(-0.0848365 0.130738 0.343524)
(-0.0831723 0.122956 0.354397)
(-0.103918 0.150879 0.373534)
(-0.0931659 0.169755 0.383525)
(-0.119619 0.169046 0.37844)
(-0.195941 0.188848 0.371582)
(-0.288898 0.26766 0.334149)
(-0.418084 0.246339 0.282198)
(-0.522641 0.246683 0.316619)
(-0.560968 0.33697 0.316262)
(-0.666418 0.234593 0.20137)
(-0.703737 0.233137 0.172995)
(-0.911174 0.129854 0.0963249)
(-0.866195 0.126145 0.171512)
(-0.770829 0.160128 0.24796)
(-0.694217 0.178001 0.259193)
(-0.591257 0.172942 0.29957)
(-0.447277 0.155518 0.308578)
(-0.382587 0.119152 0.30684)
(-0.266711 0.113756 0.326694)
(-0.189982 0.126685 0.33531)
(-0.181466 0.13409 0.335503)
(-0.151012 0.140686 0.352228)
(-0.157673 0.138302 0.35879)
(-0.261706 0.12348 0.340536)
(-0.305683 0.121489 0.316031)
(-0.398608 0.106871 0.315512)
(-0.433925 0.0982489 0.336477)
(-0.235144 0.108704 0.356015)
(-0.253147 0.109966 0.343057)
(-0.241515 0.112258 0.357194)
(-0.285694 0.110775 0.371815)
(-0.255786 0.115199 0.385135)
(-0.286764 0.11349 0.393791)
(-0.248588 0.118538 0.396551)
(-0.272833 0.118216 0.393306)
(-0.227631 0.127459 0.380342)
(-0.242429 0.131198 0.352998)
(-0.188102 0.145206 0.308557)
(-0.189473 0.153194 0.245006)
(-0.168774 0.170948 0.170058)
(-0.190706 0.177637 0.121738)
(-0.24866 0.183458 0.0727006)
(-0.306474 0.183526 0.0264579)
(-0.497216 0.167599 -0.00894728)
(-0.70928 0.135159 0.015885)
(-0.863537 0.091913 0.0177953)
(-0.985835 0.0660632 0.0142926)
(-1.08638 0.0687248 0.010096)
(-1.1473 0.0838295 0.0110097)
(-1.177 0.0803694 0.0145909)
(-1.22307 0.066231 0.0091037)
(-1.2429 0.0714636 -0.0145074)
(-1.25167 0.0668429 -0.0380939)
(-1.32089 0.0421552 -0.0318079)
(-1.42686 0.00509303 -0.0274664)
(-1.46676 -0.00449364 -0.0217811)
(-1.53694 -0.0105135 -0.0308457)
(-1.57053 0.00475103 -0.0119441)
(-1.61234 0.00747927 -0.00761196)
(-1.65688 0.00515126 -0.0023557)
(-1.67327 0.00785099 0.0143277)
(-1.65695 0.0135496 0.033743)
(-1.61491 0.0214487 0.0521825)
(-1.56186 0.032879 0.0672643)
(-1.51466 0.0437571 0.0810517)
(-1.47485 0.0531682 0.0942334)
(-1.43255 0.0650576 0.111468)
(-1.37686 0.0778938 0.128517)
(-1.3117 0.0867352 0.137018)
(-1.25623 0.089246 0.127722)
(-1.21835 0.0890675 0.120891)
(-1.19665 0.089782 0.118299)
(-1.17108 0.10603 0.116933)
(-1.1275 0.149642 0.11399)
(-1.07272 0.159232 0.137887)
(-0.939504 0.144704 0.178677)
(-0.804819 0.11909 0.241079)
(-0.709111 0.0849169 0.28434)
(-0.471205 0.034265 0.335197)
(-0.2514 -0.03284 0.367841)
(-0.267243 -0.217812 0.554155)
(-0.267718 -0.290281 0.69814)
(-0.261017 -0.341876 0.686751)
(-0.245384 -0.384897 0.586246)
(-0.237109 -0.416725 0.399113)
(-0.257871 -0.436956 0.199684)
(-0.0927045 -0.807827 0.108799)
(-0.0648233 -0.764034 0.304921)
(-0.0797976 -0.693285 0.49575)
(-0.112709 -0.602944 0.591434)
(-0.146511 -0.499186 0.589318)
(-0.193497 -0.359845 0.431643)
(-0.248458 -0.0717247 0.212524)
(-0.267539 -0.265733 0.20948)
(-0.27555 -0.363876 0.258737)
(-0.283058 -0.448936 0.310896)
(-0.292217 -0.461659 0.368035)
(-0.304261 -0.418042 0.423403)
(-0.316952 -0.324745 0.478833)
(-0.307925 -0.188127 0.5352)
(-0.259579 0.0471269 0.522959)
(-0.269677 0.188034 0.36286)
(-0.33927 0.0444688 0.390826)
(-0.356455 0.068888 0.498005)
(-0.365015 0.152949 0.518333)
(-0.353753 0.245888 0.499423)
(-0.336999 0.326319 0.460738)
(-0.324516 0.397705 0.41218)
(-0.323249 0.41514 0.314063)
(-0.292163 0.349152 0.252732)
(-0.185484 0.235687 0.164295)
(-0.165269 0.176369 0.129749)
(-0.153446 0.157073 0.0993078)
(-0.139351 0.0185143 0.0852608)
(-0.158714 -0.0186354 0.109123)
(-0.0480088 -0.133795 0.132187)
(-0.270636 -0.0511829 0.236001)
(-0.222515 -0.0379124 0.156254)
(-0.225649 -0.113408 0.3317)
(-0.405668 -0.125823 0.299932)
(-0.647742 -0.154955 0.279207)
(-0.836583 -0.170916 0.254128)
(-0.998117 -0.174824 0.212741)
(-1.1488 -0.144629 0.279107)
(-1.29629 -0.136361 0.320659)
(-1.41223 -0.148664 0.312295)
(-1.50931 -0.159229 0.296874)
(-1.5755 -0.16495 0.279408)
(-1.61636 -0.167602 0.26161)
(-1.62953 -0.169902 0.240649)
(-1.62306 -0.176517 0.20531)
(-1.60293 -0.171578 0.181376)
(-1.59101 -0.171911 0.135285)
(-1.56684 -0.182843 0.100903)
(-1.53226 -0.181306 0.0831445)
(-1.43343 -0.138543 0.0795579)
(-1.28828 -0.121197 0.0754471)
(-1.12218 -0.152169 0.0710947)
(-0.92006 -0.204421 0.0593647)
(-0.641548 -0.235958 0.0171454)
(-0.353999 -0.193652 -0.101917)
(-0.17247 -0.238556 -0.149816)
(-0.101031 -0.25326 -0.0671583)
(-0.111333 -0.238334 0.0129974)
(-0.107535 -0.228182 0.0676592)
(-0.119593 -0.208358 0.120867)
(-0.107272 -0.197537 0.146546)
(-0.125064 -0.184907 0.167155)
(-0.112404 -0.177971 0.164236)
(-0.130106 -0.170096 0.162112)
(-0.114843 -0.168205 0.143164)
(-0.130669 -0.164741 0.135002)
(-0.112031 -0.163851 0.113794)
(-0.116852 -0.161114 0.113572)
(-0.0953046 -0.155993 0.107432)
(-0.103406 -0.152642 0.121799)
(-0.0942051 -0.127119 0.129125)
(-0.115727 -0.175888 0.108815)
(-0.114834 -0.191198 0.0565625)
(-0.0897552 -0.175676 0.101096)
(-0.149433 -0.188931 0.176303)
(-0.264546 -0.301961 0.196784)
(-0.427202 -0.268655 0.195509)
(-0.549612 -0.25924 0.268202)
(-0.594483 -0.362183 0.296166)
(-0.7207 -0.250416 0.20396)
(-0.769138 -0.237891 0.170915)
(-0.802204 -0.691446 0.208012)
(-0.782936 -0.691679 0.241491)
(-0.669796 -0.71844 0.380864)
(-0.569672 -0.455156 0.380892)
(-0.580184 -0.868424 0.242711)
(-0.790938 -1.17671 0.585674)
(-0.747397 -0.839967 0.426521)
(-1.10843 -0.547999 0.460436)
(-1.1845 -0.409004 0.370722)
(-1.18619 -0.441024 0.269774)
(-1.00883 -0.191202 0.354263)
(-0.765761 -0.276349 0.385577)
(-0.200965 -0.349664 0.34897)
(-0.398024 -0.680198 0.533365)
(-0.802683 -0.751143 0.503438)
(-1.30389 -0.879267 0.626045)
(-1.14744 -0.767444 0.422595)
(-0.605125 -1.01359 0.2839)
(-0.492097 -0.9333 0.369263)
(-0.345843 -0.776111 0.310441)
(-0.558177 -1.48402 0.20954)
(-1.16251 -1.40695 -0.227846)
(-1.09986 -0.836171 0.212461)
(-0.877442 -0.603701 0.376974)
(-1.19221 -0.773325 0.165435)
(-1.0976 -0.932532 0.36107)
(-1.07003 -0.633582 0.357873)
(-1.16196 -0.639609 0.230121)
(-1.39868 -0.225926 0.409087)
(-1.31362 -0.257785 0.290365)
(-1.21151 -0.441625 0.0699313)
(-1.11793 -0.378523 0.261941)
(-1.18284 -0.347063 0.309296)
(-1.10228 -0.434953 0.220733)
(-0.99917 -0.591456 0.227002)
(-1.11337 -0.649285 0.254433)
(-1.21228 -0.507927 0.328227)
(-1.29524 -0.540064 0.402577)
(-1.10006 -0.872875 0.276608)
(-0.937598 -1.04269 0.287625)
(-1.0521 -0.997468 0.313628)
(-1.35551 -0.8799 0.223264)
(-0.869757 -0.936211 0.23844)
(-0.903241 -0.918767 0.215198)
(-0.944731 -0.904462 0.214297)
(-1.01539 -0.923369 0.241428)
(-1.00651 -0.914321 0.23659)
(-0.966228 -0.935589 0.275567)
(-0.892112 -0.910045 0.327859)
(-0.948995 -0.981786 0.435606)
(-0.992292 -1.02052 0.498526)
(-1.14082 -1.14928 0.570497)
(-1.26842 -1.24492 0.574782)
(-1.56961 -1.4159 0.495605)
(-1.67571 -1.49834 0.379978)
(-1.72869 -1.58078 0.259347)
(-1.73069 -1.65698 0.188288)
(-1.74432 -1.87932 0.088891)
(-1.77945 -1.90641 0.0452767)
(-1.85437 -2.68291 0.00253441)
(-2.87422 -0.447195 -0.616614)
(-2.2688 -0.713642 -0.188932)
(-1.94787 -0.745312 -0.171244)
(-1.47491 -0.571227 -0.097908)
(-1.3537 -0.22286 -0.140138)
(-0.161332 0.297181 -0.389674)
(1.00998 0.510137 -0.458968)
(1.25472 0.768814 -0.506304)
(1.41525 0.955245 -0.613044)
(1.38651 0.905691 -0.557827)
(1.3096 0.674984 -0.348141)
(1.19953 0.233735 -0.232836)
(0.526516 -0.85445 -0.000887695)
(0.362783 -0.521308 -0.0100244)
(0.169253 -0.335864 -0.0162537)
(0.158364 -0.40152 -0.0580168)
(0.174535 -0.323722 -0.00942302)
(0.339174 -0.20747 0.0128924)
(0.0228164 0.188975 -0.0708307)
(0.0677681 0.275325 -0.183101)
(0.32569 0.157245 -0.219795)
(0.247787 -0.0106043 -0.322995)
(0.433122 -0.226397 -0.0676771)
(0.490882 -0.371246 0.0766387)
(0.50329 -0.406833 0.14703)
(0.470832 -0.42871 0.16523)
(0.43256 -0.436987 0.162771)
(0.383509 -0.429217 0.130516)
(0.428116 -0.494067 0.108456)
(0.455662 -0.579407 0.0854294)
(0.477893 -0.658585 0.0773436)
(0.503489 -0.713877 0.0629554)
(0.518687 -0.74739 0.0542452)
(0.500806 -0.755183 0.0554467)
(0.452764 -0.760944 0.0703372)
(0.37792 -0.746659 0.0949801)
(0.283871 -0.735782 0.104483)
(0.202193 -0.713683 0.12337)
(0.158853 -0.682947 0.0892403)
(0.174497 -0.658857 0.0714244)
(0.165572 -0.600455 0.0685187)
(0.123466 -0.506397 0.0760516)
(0.0651534 -0.431242 0.0962678)
(0.0438195 -0.250287 0.160668)
(0.217475 -0.411859 0.162193)
(0.212959 -0.274641 0.175387)
(0.19184 -0.099828 0.18192)
(0.264018 -0.128435 0.150756)
(0.318246 -0.144358 0.13799)
(0.37672 -0.150589 0.116004)
(0.342637 -0.185193 0.178055)
(0.279425 -0.192809 0.242872)
(0.329336 -0.201706 0.304439)
(0.391353 -0.202137 0.315526)
(0.456375 -0.196054 0.301768)
(0.494481 -0.185023 0.25054)
(0.507982 -0.136571 0.162472)
(0.588255 -0.0670886 0.029932)
(0.692789 -0.0676518 0.0237842)
(0.766582 -0.0358762 -0.00937719)
(0.927283 -0.0562794 -0.0103293)
(0.971622 -0.0399264 0.0100313)
(0.915039 -0.0292407 0.0103989)
(0.815755 -0.0403562 0.0101865)
(0.689707 -0.0604386 0.0128947)
(0.534452 -0.0901443 0.0105566)
(0.346939 -0.125971 -0.00182889)
(0.164028 -0.121945 -0.0178463)
(0.0928698 -0.175364 -0.0348279)
(0.0685989 -0.255435 -0.0199092)
(0.0777461 -0.370076 -0.01228)
(0.0857858 -0.504352 -0.0139967)
(0.0817215 -0.663713 -0.0121568)
(0.113474 -0.732461 -0.00677045)
(0.23795 -1.31932 0.0161859)
(1.24262 -0.56723 -0.0236641)
(1.73148 0.0615233 -0.0468119)
(2.43102 0.269732 -0.114164)
(3.0813 0.326009 -0.205625)
(3.50673 0.287345 -0.284223)
(3.64617 0.254133 -0.359377)
(3.35657 0.293058 -0.421218)
(3.07834 0.247608 -0.414216)
(2.25162 0.0104634 -0.343236)
(1.01626 -0.330296 -0.314076)
(-0.638738 -1.4371 0.244383)
(-2.1675 -2.51897 0.030073)
(-0.910774 -3.67943 0.00376392)
(-0.535435 -1.77915 -0.0409006)
(-0.368168 -1.33693 -0.0805034)
(-0.301775 -0.902736 -0.0930292)
(-0.258765 -0.619654 -0.090464)
(-0.190659 -0.355567 -0.13099)
(-0.223312 -0.237137 -0.179823)
(-0.443129 -0.326579 -0.00296322)
(-0.564207 -0.291308 0.0065002)
(-0.899124 -0.518152 0.0170755)
(-0.886664 -0.579739 0.0416356)
(-1.08548 -0.877958 0.0457982)
(-1.18914 -0.988912 0.0515011)
(-1.52227 -1.30237 0.060886)
(-1.67568 -1.33465 0.0820046)
(-1.91443 -1.64459 0.120833)
(-2.48785 -2.24017 0.0101129)
(-3.18767 -1.52543 -0.156397)
(-3.28408 -1.25379 0.056483)
(-3.28747 -0.9163 0.0369946)
(-3.16945 -0.57102 -0.0206939)
(-3.07183 -0.273003 -0.108768)
(-2.82373 -0.0826078 -0.18318)
(-2.14985 0.241335 -0.302669)
(-1.38652 0.7722 -0.578937)
(-0.696906 1.18065 -0.915391)
(-0.1852 1.24272 -0.983681)
(0.369282 0.887562 -0.602608)
(0.795924 0.23368 -0.337436)
(0.750375 -0.499706 -0.118904)
(0.292324 -0.270334 -0.0747764)
(-0.471473 0.263031 -0.267391)
(-0.620653 0.0119866 -0.247883)
(-0.49687 -0.133992 -0.115542)
(-0.975386 0.202444 -0.0946868)
(-0.82745 0.257836 -0.0950447)
(-0.665686 0.294195 -0.117082)
(-0.404288 0.215266 -0.247433)
(-0.708072 0.241057 -0.174882)
(-0.425418 0.121758 -0.359951)
(0.220505 -0.248735 -0.288993)
(0.426212 -0.491163 -0.0520727)
(0.530441 -0.549609 0.0461181)
(0.529466 -0.581356 0.0774494)
(0.507554 -0.602133 0.0902444)
(0.464152 -0.610051 0.0831077)
(0.539758 -0.727859 0.0529009)
(0.573499 -0.708742 0.0484924)
(0.583579 -0.683842 0.0321912)
(0.543415 -0.656075 0.00326494)
(0.408645 -0.591827 -0.119098)
(-0.019185 -0.253189 -0.304167)
(-0.635633 0.171188 -0.251969)
(-1.00499 0.331979 -0.149154)
(-0.867949 0.336673 -0.166328)
(-1.10092 0.411787 -0.0723652)
(-1.0085 0.376053 -0.0980763)
(-1.12721 0.412025 -0.0716281)
(-1.29335 0.455765 -0.0775648)
(-1.38972 0.541272 -0.0725847)
(-1.2522 0.397357 -0.0899753)
(-1.22616 0.532068 -0.144082)
(-1.30884 0.749044 -0.196506)
(-1.47418 1.12321 -0.313172)
(-1.14246 0.976146 -0.441323)
(-0.416698 0.860854 -0.489945)
(-0.733098 1.17361 -0.814042)
(-1.34589 1.37336 -1.17586)
(-2.08715 1.34204 -1.297)
(-2.99399 1.06649 -1.11727)
(-3.77395 0.692156 -0.928447)
(-4.24817 0.230645 -0.618024)
(-4.36648 -0.110712 -0.335488)
(-4.30815 -0.408727 -0.114749)
(-4.12605 -0.730514 0.028026)
(-3.85691 -0.986877 0.078368)
(-3.34388 -1.16442 0.0879258)
(-2.7798 -1.38196 0.0671441)
(-3.36939 -1.18655 0.0675278)
(-3.92414 -0.885928 0.0680472)
(-4.29749 -0.555639 0.00128733)
(-4.60082 -0.173071 -0.143324)
(-4.71711 0.240103 -0.3636)
(-4.57362 0.67093 -0.610435)
(-4.16089 1.11179 -0.845302)
(-3.50002 1.43053 -1.03155)
(-2.73887 1.52819 -1.09564)
(-2.05858 1.49334 -0.977031)
(-1.49778 1.28592 -0.704381)
(-1.81561 1.4142 -0.485326)
(-2.28511 1.63153 -0.66352)
(-2.85933 1.75084 -0.84709)
(-3.48223 1.70785 -0.799139)
(-4.03448 1.49917 -0.686287)
(-4.40888 1.1217 -0.512677)
(-4.58166 0.673638 -0.295708)
(-4.47616 0.18205 -0.0639541)
(-4.17733 -0.261017 0.124628)
(-3.7977 -0.616664 0.101744)
(-3.3239 -0.884662 0.0934074)
(-2.84887 -0.994844 0.0931919)
(-3.20082 -0.827955 0.0856918)
(-3.5545 -0.528076 0.0855803)
(-3.83998 -0.222827 0.0711257)
(-3.96184 0.171417 -0.0256632)
(-4.07227 0.615037 -0.195984)
(-3.91511 1.02154 -0.357446)
(-3.75986 1.39991 -0.49733)
(-3.35417 1.5317 -0.533242)
(-2.94147 1.62406 -0.577387)
(-2.50842 1.49731 -0.462805)
(-2.06253 1.36499 -0.346913)
(-1.79597 1.17279 -0.226782)
(-1.98692 1.08321 -0.241289)
(-1.63366 0.874954 -0.149472)
(-1.48521 0.698309 -0.118438)
(-1.62938 0.734968 -0.138147)
(-1.50629 0.618615 -0.0964572)
(-1.57785 0.614706 -0.0994346)
(-1.44562 0.496181 -0.0729372)
(-1.23467 0.450048 -0.0486118)
(-1.34588 0.403433 -0.038878)
(-1.20456 0.391153 -0.059802)
(-1.13608 0.429429 -0.0789375)
(-0.967868 0.397998 -0.127479)
(-0.985291 0.419838 -0.0503799)
(-1.1602 0.444957 -0.0791656)
(-1.27382 0.448447 -0.0620084)
(-1.48813 0.426242 -0.105729)
(-1.55475 0.394278 -0.0764698)
(-1.74807 0.380188 -0.05517)
(-1.67543 0.521033 -0.05966)
(-1.76489 0.587299 -0.100357)
(-1.70864 0.708174 -0.142749)
(-1.89562 0.76528 -0.175313)
(-1.81797 0.84872 -0.18057)
(-2.13484 0.964481 -0.254751)
(-2.59325 0.973203 -0.31403)
(-2.6525 1.201 -0.36105)
(-3.31862 1.04096 -0.308932)
(-3.6886 0.603211 -0.188044)
(-3.63637 0.0321098 -0.0224116)
(-3.2348 -0.442216 0.0842789)
(-2.72932 -0.707549 0.112299)
(-2.31667 -0.74878 0.0874046)
(-2.24479 -0.905296 0.0911923)
(-2.07495 -1.10666 0.0801056)
(-1.61712 -1.07737 0.0668933)
(-1.22458 -0.829953 0.0614274)
(-0.955428 -0.472336 0.0645832)
(-1.20243 -0.363953 0.0668072)
(-1.31705 -0.284625 0.0677079)
(-1.41031 -0.185875 0.0722993)
(-1.47556 -0.216855 0.0759276)
(-1.52848 -0.516341 0.0615107)
(-1.53129 -0.716634 0.061646)
(-1.39522 -0.629893 0.0588114)
(-1.21077 -0.649407 0.142962)
(-1.02006 -0.369482 0.135547)
(-0.961823 -0.138039 0.141468)
(-0.938651 -0.141066 0.216591)
(-0.888096 -0.124345 0.271829)
(-0.855678 -0.116251 0.295021)
(-0.831643 -0.105098 0.310777)
(-0.812268 -0.100242 0.305682)
(-0.781306 -0.0955484 0.300737)
(-0.762659 -0.0909038 0.285415)
(-0.743878 -0.0899604 0.269114)
(-0.718193 -0.0979194 0.25605)
(-0.697268 -0.133621 0.247586)
(-0.61765 -0.201347 0.243239)
(-0.733054 -0.198496 0.225773)
(-0.807094 -0.175224 0.236115)
(-0.924857 -0.13621 0.173341)
(-0.990477 -0.13093 0.0980184)
(-1.23442 -0.0507548 0.0818043)
(-1.38358 0.0148062 0.0591959)
(-1.44808 0.0484279 0.0494211)
(-1.46802 0.075504 0.0528237)
(-1.45415 0.106964 0.0690282)
(-1.39861 0.144224 0.108832)
(-1.30014 0.180249 0.165029)
(-1.1548 0.213933 0.222207)
(-0.988519 0.233157 0.188345)
(-1.01592 0.21581 0.0679825)
(-0.838928 0.20603 0.0617783)
(-0.713928 0.231926 0.0725987)
(-0.460852 0.296138 0.0839626)
(-0.0869674 0.265155 0.0176251)
(0.123223 -0.308496 -0.041786)
(0.0262312 -0.111909 0.13882)
(0.0503318 -0.171008 0.315018)
(0.0877177 -0.243332 0.391317)
(-0.00777108 -0.15517 0.480996)
(-0.238392 0.147227 0.655809)
(-0.319023 0.225769 0.819887)
(-0.326435 0.249946 0.831864)
(-0.318746 0.215562 0.836112)
(-0.306971 0.175685 0.764819)
(-0.31885 0.160586 0.677635)
(-0.268736 0.0557502 0.523584)
(-0.450052 0.0543157 0.490113)
(-0.485368 0.0907623 0.667711)
(-0.498934 0.122932 0.770421)
(-0.527313 0.152629 0.842281)
(-0.555524 0.178121 0.853116)
(-0.675887 0.195397 0.830675)
(-0.601828 0.228053 0.722387)
(-0.574937 0.271794 0.568356)
(-0.525669 0.263879 0.47383)
(-0.519248 0.295781 0.352819)
(-0.506205 0.312246 0.208932)
(-0.163112 0.26251 0.177759)
(-0.179773 0.239666 0.339316)
(-0.189809 0.218089 0.448624)
(-0.26441 0.218282 0.537104)
(-0.258037 0.441098 0.526835)
(-0.220494 0.435207 0.484879)
(-0.197721 0.559293 0.477883)
(-0.320209 0.63641 0.502336)
(-0.331783 0.516824 0.492515)
(-0.370289 0.49735 0.521811)
(-0.402458 0.663242 0.548542)
(-0.228687 0.560822 0.540941)
(-0.229578 0.563858 0.633335)
(-0.360089 0.254097 0.797743)
(-0.366727 0.410027 0.816954)
(-0.439799 0.554596 0.83493)
(-0.201901 0.700603 0.794756)
(-0.246432 0.634851 0.823743)
(-0.308223 0.483592 0.679361)
(-0.34427 0.585386 0.652533)
(-0.400288 0.572728 0.667015)
(-0.479378 0.597308 0.740024)
(-0.346258 0.645535 0.698561)
(-0.371239 0.56251 0.778323)
(-0.390862 0.475967 0.695858)
(-0.489349 0.367416 0.689583)
(-0.4963 0.472875 0.608647)
(-0.477715 0.421144 0.672663)
(-0.29937 0.618537 0.633055)
(-0.445461 0.620453 0.60556)
(-0.484602 0.649254 0.597085)
(-0.436981 0.618759 0.608942)
(-0.414666 0.541509 0.610331)
(-0.364897 0.496937 0.618468)
(-0.365977 0.575168 0.605178)
(-0.271997 0.580956 0.593308)
(-0.357637 0.644881 0.573743)
(-0.368484 0.532706 0.568918)
(-0.294292 0.482097 0.585158)
(-0.478749 0.674215 0.554986)
(-0.258471 0.840991 0.505012)
(-0.26389 0.658799 0.44907)
(-0.246163 0.623644 0.627324)
(-0.136913 0.754474 0.824586)
(0.0342614 1.11649 0.689456)
(0.110002 1.24489 0.684336)
(0.170899 1.23449 0.732118)
(0.21949 1.17275 0.769161)
(0.271525 1.05914 0.77618)
(0.316159 0.918269 0.749384)
(0.396551 0.669471 0.661494)
(0.413435 0.426858 0.450098)
(0.487423 -0.199829 0.271767)
(0.453899 -0.69414 0.460746)
(0.349502 -1.02804 0.525373)
(0.283196 -1.2049 0.565032)
(0.222543 -1.29692 0.572488)
(0.171049 -1.31508 0.552449)
(0.120414 -1.27232 0.520188)
(0.0672421 -1.16589 0.489685)
(0.00774496 -1.00138 0.476085)
(-0.0351592 -0.868229 0.583748)
(-0.0846318 -0.713514 0.587321)
(-0.154366 -0.521756 0.425356)
(-0.129812 -0.605355 0.471707)
(-0.109045 -0.669637 0.537527)
(-0.0917174 -0.676862 0.615808)
(-0.0757466 -0.629864 0.693259)
(-0.0591099 -0.534071 0.764897)
(-0.0255261 -0.371542 0.821867)
(0.0565372 -0.108215 0.818812)
(0.0398295 0.215054 0.686621)
(-0.067116 0.236293 0.722232)
(-0.0977321 0.294137 0.823988)
(-0.110563 0.364991 0.84419)
(-0.107564 0.446757 0.819055)
(-0.104457 0.523642 0.765808)
(-0.109283 0.584759 0.692742)
(-0.130826 0.57795 0.58252)
(-0.148171 0.519786 0.466063)
(-0.10977 0.470434 0.40539)
(-0.110033 0.409214 0.312639)
(-0.124432 0.353536 0.24697)
(-0.122114 0.330538 0.240204)
(-0.121541 0.252111 0.228435)
(-0.149568 0.212082 0.240877)
(-0.10797 0.0241896 0.244197)
(-0.26071 0.0357854 0.324535)
(-0.188105 0.068432 0.425992)
(-0.100937 0.128864 0.338064)
(-0.132169 0.339515 0.399858)
(-0.104564 0.385174 0.397568)
(-0.0967758 0.431886 0.40023)
(-0.0800231 0.575687 0.570421)
(-0.0788124 0.605762 0.617984)
(-0.0951642 0.625229 0.645865)
(-0.0378588 0.795491 0.774698)
(-0.0200067 0.829235 0.823726)
(0.0105402 0.797778 0.910591)
(0.0296437 0.732766 0.997496)
(0.0392246 0.634298 1.06012)
(0.044715 0.534648 1.09524)
(0.0656799 0.446756 1.08263)
(0.117681 0.380762 0.949151)
(0.279398 0.249805 0.786868)
(0.287824 -0.243756 0.902245)
(0.166711 -0.565018 0.971658)
(0.0929536 -0.754551 0.953952)
(0.0522158 -0.85973 0.884444)
(0.0194432 -0.907293 0.798415)
(-0.0106758 -0.894562 0.710711)
(-0.0442069 -0.821363 0.635606)
(0.0194184 -1.0086 0.6174)
(0.0636068 -1.09926 0.672782)
(0.104178 -1.12627 0.731053)
(0.15361 -1.09873 0.780765)
(0.21835 -0.998566 0.80137)
(0.298781 -0.802365 0.766676)
(0.399774 -0.505294 0.681762)
(0.475208 0.055901 0.426014)
(0.290326 0.4632 0.634446)
(0.218494 0.591081 0.920871)
(0.190167 0.715097 0.980797)
(0.16888 0.837502 0.980638)
(0.135171 0.949808 0.947356)
(0.0985386 1.01916 0.887285)
(0.0558137 1.04303 0.821087)
(-0.00253283 0.970678 0.770468)
(-0.000590799 0.88323 0.765101)
(-0.0137638 0.797112 0.769158)
(-0.0202817 0.773268 0.720493)
(-0.0424337 0.745824 0.704964)
(-0.0517042 0.696727 0.6725)
(-0.0709266 0.60847 0.670922)
(-0.0905844 0.51173 0.554513)
(-0.114326 0.478184 0.550087)
(-0.113347 0.254178 0.443674)
(-0.222338 0.272723 0.53333)
(-0.26707 0.300777 0.659822)
(-0.266203 0.373783 0.581349)
(-0.120361 0.498096 0.698395)
(-0.0830831 0.658963 0.785241)
(-0.0774978 0.76576 0.792874)
(-0.0231477 0.894157 0.775094)
(-0.0416238 0.772473 0.7374)
(-0.0717521 0.686036 0.749108)
(-0.095043 0.647786 0.715989)