/*--------------------------------*- C++ -*----------------------------------*\
| =========                 |                                                 |
| \\      /  F ield         | OpenFOAM: The Open Source CFD Toolbox           |
|  \\    /   O peration     | Version:  v2012                                 |
|   \\  /    A nd           | Website:  www.openfoam.com                      |
|    \\/     M anipulation  |                                                 |
\*---------------------------------------------------------------------------*/
FoamFile
{
    version     2.0;
    format      ascii;
    class       volScalarField;
    location    "925";
    object      alphat;
}
// * * * * * * * * * * * * * * * * * * * * * * * * * * * * * * * * * * * * * //

dimensions      [1 -1 -1 0 0 0 0];


internalField   nonuniform List<scalar> 
18258
(
0.00483227
0.00210407
0.00172233
0.00149131
0.000990209
0.00161891
0.00224892
0.00267787
0.00281023
0.00278771
0.00288775
0.00487475
0.00684267
0.00845878
0.00888718
0.00887377
0.00805819
0.00769561
0.0083581
0.0102751
0.00863579
0.0055317
0.00662545
0.00765883
0.00833482
0.00738064
0.00596909
0.00552681
0.00500307
0.00417019
0.00349827
0.00239529
0.00175093
0.00162309
0.0014715
0.00167754
0.0018272
0.00194834
0.00199231
0.00202392
0.00201033
0.00199893
0.00194481
0.00191112
0.00185349
0.00153162
0.00184739
0.00191482
0.00209286
0.00288908
0.00310297
0.00260952
0.00288725
0.00257497
0.00169657
0.00194206
0.00210812
0.00215352
0.00212575
0.00203744
0.00200765
0.00198243
0.00195048
0.00191256
0.00188946
0.00190843
0.00192829
0.00190745
0.00181386
0.00173809
0.00161545
0.00149247
0.00140135
0.00133078
0.00127758
0.00121834
0.00115176
0.0010117
0.000937669
0.00124149
0.00155862
0.00166547
0.00236074
0.00287842
0.00289828
0.00216971
0.00154632
0.00160494
0.00178392
0.00180134
0.00152586
0.00181329
0.00205341
0.00212814
0.0022176
0.00247909
0.00282402
0.00275341
0.00245251
0.00226103
0.00219821
0.00252634
0.00240586
0.00312071
0.00313935
0.00272939
0.00253974
0.00285654
0.00368467
0.0039609
0.00307502
0.00288901
0.00283239
0.00279531
0.00252914
0.00261901
0.00237942
0.002144
0.00233643
0.00282217
0.00267637
0.00292226
0.00302875
0.00284193
0.00329337
0.00379776
0.00374348
0.00299554
0.0024435
0.00227771
0.00229484
0.00140349
0.00151559
0.00163238
0.00167239
0.00170061
0.0017245
0.0018383
0.00183414
0.00180701
0.001803
0.00183363
0.0010109
0.00109538
0.00112273
0.00113062
0.00107418
0.00106307
0.00104313
0.00102697
0.000968783
0.000927012
0.00110907
0.00124527
0.00135626
0.00148613
0.00167953
0.00191616
0.00216491
0.00241634
0.00258264
0.00263003
0.00267784
0.00258084
0.00248298
0.00257143
0.00258624
0.00256944
0.00253486
0.00249122
0.00243232
0.00232437
0.00244896
0.00244182
0.00229378
0.00196622
0.00200994
0.00200638
0.0020586
0.00204825
0.0020691
0.00203994
0.00200553
0.00190888
0.00177368
0.00147568
0.00144358
0.00146091
0.00187517
0.00227598
0.0035151
0.00428666
0.00497512
0.00532233
0.00569399
0.00460888
0.00513076
0.00395613
0.00355109
0.00451276
0.00590223
0.00336776
0.00183934
0.00348959
0.00309625
0.00224767
0.00200099
0.0020625
0.00206351
0.00236548
0.00272809
0.00302948
0.00317515
0.00330339
0.00340579
0.00351868
0.00366192
0.00370153
0.00357626
0.00302753
0.00364894
0.00296437
0.00346384
0.00313149
0.00211653
0.00221513
0.00235523
0.00215793
0.00209972
0.00200764
0.00181082
0.00223996
0.00289442
0.00335776
0.00383843
0.00511977
0.0047365
0.00454033
0.00351598
0.00339986
0.00176448
0.00251587
0.00261391
0.00294069
0.00195537
0.00178412
0.00169381
0.00224349
0.00259906
0.00306603
0.00340054
0.00403946
0.00313251
0.00357943
0.00324051
0.00225997
0.00217365
0.00311132
0.0033502
0.00275396
0.00246254
0.00308959
0.00292493
0.00207566
0.0016554
0.002544
0.00263179
0.00189202
0.00468147
0.00499966
0.00477891
0.00583207
0.00731101
0.0083413
0.00776815
0.00689232
0.00769252
0.00610438
0.00591336
0.00631086
0.00530023
0.00371071
0.00380393
0.00393382
0.00404095
0.00433907
0.00460976
0.00493995
0.00525338
0.00477457
0.00396418
0.00300002
0.00206323
0.00203412
0.00202333
0.00181691
0.00269284
0.0040763
0.00405067
0.00230281
0.00134155
0.00151606
0.00171148
0.00169455
0.00123025
0.000925609
0.00159435
0.00182336
0.00185302
0.00180716
0.00170636
0.00178318
0.00286371
0.00441181
0.00484774
0.00502102
0.00518504
0.00530095
0.00536557
0.00538623
0.00539784
0.00541202
0.00542446
0.00544324
0.00542645
0.0053109
0.0046713
0.00293681
0.00171639
0.00159409
0.00175926
0.00189063
0.0020052
0.00170602
0.00104339
0.00166635
0.00213388
0.00245312
0.00247425
0.00230932
0.00224036
0.00353293
0.0046976
0.00553754
0.00570803
0.00578427
0.00572137
0.00571384
0.00558996
0.00555214
0.00486958
0.00347985
0.00380423
0.00408445
0.00413071
0.00422571
0.00436855
0.00426727
0.00403234
0.00588941
0.00679821
0.0068855
0.00703176
0.0069486
0.00682918
0.00651984
0.00616611
0.00519122
0.00389316
0.00245668
0.00250806
0.00267003
0.00264451
0.00230204
0.0024252
0.00263206
0.00265848
0.00274565
0.00307909
0.00349739
0.00333671
0.00287227
0.00243883
0.00227072
0.00222228
0.0021316
0.00159573
0.00162018
0.00157561
0.00160199
0.0021529
0.00256239
0.00295506
0.00419024
0.00373781
0.00303972
0.00481923
0.00493913
0.00530676
0.00586329
0.0060086
0.0066574
0.0046318
0.00417439
0.00428786
0.00350253
0.00324205
0.00327653
0.00328885
0.0030654
0.00335501
0.00332541
0.0032051
0.00353849
0.00389911
0.00514128
0.00622945
0.00657243
0.00677063
0.0068521
0.00682736
0.00669609
0.00673972
0.00592102
0.00591913
0.00566883
0.0055068
0.00545007
0.00518195
0.00592741
0.00615243
0.00622689
0.00638135
0.00662242
0.00644118
0.00624236
0.00609094
0.00598135
0.00586665
0.00592789
0.0060373
0.006154
0.00631794
0.00653683
0.00657225
0.00634537
0.00617388
0.00605665
0.00594647
0.00595028
0.00604844
0.00616289
0.00632543
0.00653306
0.00641708
0.00625567
0.00611194
0.00599409
0.00589034
0.00568388
0.00582052
0.00597079
0.00609447
0.00617444
0.00533505
0.00570304
0.00560531
0.00507525
0.00475048
0.00360749
0.00390407
0.0041168
0.00448391
0.00497695
0.00507352
0.00425729
0.00364836
0.00355503
0.00352636
0.00360956
0.00363945
0.00365721
0.00413246
0.00622631
0.00626995
0.00628854
0.00629171
0.00538053
0.00522761
0.00486882
0.00890339
0.00829
0.0071824
0.00592171
0.00317269
0.00271941
0.00322129
0.00391767
0.00438032
0.00483481
0.00320921
0.00198823
0.00231735
0.00240305
0.00234477
0.00216735
0.00180501
0.00166619
0.00151237
0.00162766
0.00288238
0.0045991
0.00518031
0.00523532
0.00518357
0.00508314
0.00496137
0.00479188
0.00472033
0.00592898
0.007995
0.00907506
0.00904488
0.00777144
0.00632453
0.00355763
0.00181956
0.00131923
0.00145534
0.00159761
0.00188122
0.00168007
0.00139139
0.00152353
0.00145237
0.00294769
0.00510098
0.0065262
0.00773751
0.00759859
0.00658808
0.00541106
0.00514137
0.00526261
0.00534203
0.00541102
0.00548193
0.00553065
0.00550003
0.00500635
0.00309334
0.00184649
0.00164058
0.00176423
0.0020676
0.00219697
0.00221914
0.00218808
0.00189665
0.00313619
0.00498126
0.00316744
0.00172831
0.00186761
0.00185414
0.00327101
0.00326588
0.00319495
0.00497098
0.0052559
0.00524266
0.00492584
0.00470271
0.00278408
0.00315901
0.00316944
0.00318628
0.00323871
0.00163555
0.0017827
0.00183806
0.00197826
0.00173278
0.00220001
0.000569289
0.000788634
0.00091617
0.000995911
0.00107286
0.00105246
0.00201257
0.00204146
0.00194882
0.00189806
0.00240967
0.00258611
0.00264345
0.00243507
0.00224707
0.00239204
0.00239706
0.00225868
0.00213964
0.00221882
0.00222047
0.00212767
0.00180969
0.00169577
0.00186183
0.00184175
0.00182688
0.00328162
0.00327589
0.00310009
0.00509392
0.00501183
0.00561356
0.00557699
0.0055705
0.00554804
0.00560742
0.00563847
0.00566201
0.0056897
0.00567855
0.00562401
0.00783135
0.00553136
0.00482678
0.00279116
0.00268849
0.00189854
0.00166376
0.00195907
0.00209527
0.00227151
0.00222007
0.00234065
0.00233795
0.00248071
0.00230272
0.00204484
0.0031322
0.00334633
0.00326845
0.00333326
0.00325488
0.00323586
0.0032119
0.00316605
0.00311088
0.00185205
0.00181658
0.00212717
0.00223288
0.00239923
0.00242109
0.00247358
0.00234616
0.00206359
0.00199757
0.00230033
0.00226936
0.00231327
0.00218105
0.00217222
0.00193535
0.00198435
0.00400377
0.00739682
0.00380336
0.00422501
0.0038268
0.00435286
0.00381214
0.00328725
0.0033643
0.00296305
0.00309075
0.00324216
0.00330077
0.00346907
0.00408904
0.00393692
0.00345587
0.00335558
0.00328946
0.0031014
0.00279152
0.00292457
0.00295111
0.00301447
0.00335016
0.00384343
0.00430893
0.00523622
0.00508131
0.00445147
0.00406951
0.00426788
0.00434123
0.0054654
0.00510629
0.00507609
0.00535412
0.00530082
0.00503155
0.00476792
0.00460232
0.00395066
0.00401578
0.00459715
0.00444806
0.00458388
0.00450356
0.00468107
0.00476557
0.00457464
0.00425172
0.00446737
0.00445749
0.00495121
0.00481637
0.00446707
0.00408878
0.00436808
0.00431384
0.00498465
0.00469352
0.00438989
0.00403955
0.00386837
0.00439067
0.00431114
0.00488969
0.00503013
0.00503227
0.00438617
0.00428508
0.00509745
0.00490501
0.00473608
0.00493313
0.00408435
0.00420223
0.00517766
0.00528635
0.00501418
0.00418476
0.00425011
0.00364441
0.00428641
0.00533575
0.00503883
0.00412953
0.00342541
0.0047947
0.0050458
0.00533855
0.00504473
0.0054962
0.00592192
0.00482586
0.00525105
0.00686415
0.00523562
0.00607653
0.00621199
0.00624951
0.0062538
0.00627922
0.006312
0.00665183
0.00647448
0.0041117
0.00492022
0.00477734
0.00399323
0.00339238
0.00373751
0.00402512
0.00408271
0.00418572
0.00434482
0.00427087
0.00413272
0.00604815
0.0069007
0.00705273
0.00719376
0.00707609
0.00690127
0.0064977
0.00600218
0.00497525
0.00370919
0.00231247
0.00235653
0.0025108
0.00248592
0.002156
0.00162748
0.00106894
0.00158776
0.00164187
0.00154623
0.00140916
0.00124254
0.00128397
0.00235133
0.00470576
0.00633166
0.00696237
0.00747822
0.00803667
0.00858288
0.00900043
0.00930123
0.00950178
0.00962189
0.00964161
0.00944335
0.00858377
0.00820737
0.00774302
0.00736539
0.0068412
0.00642377
0.0072568
0.00796747
0.00840643
0.00890076
0.00912935
0.00903363
0.0078535
0.00762642
0.00877053
0.0107973
0.00917686
0.0115279
0.0135622
0.0105698
0.00950284
0.00949342
0.0105972
0.0108005
0.0104141
0.00981384
0.00912704
0.0082629
0.00868459
0.00906736
0.00943593
0.00977537
0.0107331
0.0109146
0.010841
0.0106817
0.0104654
0.0101472
0.00963893
0.00893748
0.00816106
0.00740985
0.00653963
0.00474224
0.00217691
0.00250957
0.00244934
0.00272597
0.00260724
0.00116627
0.00128546
0.00130281
0.00131257
0.00124222
0.00141263
0.00204842
0.00334568
0.0024022
0.00197093
0.00136399
0.00160812
0.00268998
0.00457914
0.00517249
0.00526424
0.00531831
0.00679179
0.00790079
0.00841148
0.00880006
0.00907721
0.00895323
0.00865277
0.00812566
0.00748833
0.00724374
0.00685394
0.00650267
0.00631538
0.00611533
0.00574688
0.004542
0.00430561
0.00448553
0.00443507
0.00424706
0.0045366
0.00470073
0.00469716
0.00474973
0.00479581
0.00493797
0.00510528
0.00525109
0.00532801
0.00535712
0.00536695
0.00537893
0.00538861
0.00540599
0.00538845
0.00527104
0.00462859
0.0028935
0.00168832
0.00156055
0.00171107
0.00180941
0.00185139
0.00164364
0.00105787
0.00164425
0.00212823
0.00218312
0.00239559
0.0024718
0.0026219
0.00292184
0.00337683
0.00348452
0.0030915
0.00292771
0.00286428
0.00279143
0.00238109
0.00296805
0.00328106
0.00327579
0.00324619
0.00350927
0.00431983
0.00414833
0.00365698
0.00361445
0.00357695
0.00322806
0.00317843
0.00348
0.00351924
0.00365293
0.00428503
0.00514115
0.00476762
0.00434084
0.0041583
0.00383859
0.00337334
0.00304855
0.00376926
0.00310149
0.00160886
0.00136367
0.001369
0.00136999
0.00131771
0.00156139
0.00164258
0.00166582
0.00155401
0.0017248
0.00191986
0.00185971
0.00210599
0.00207613
0.00185547
0.00183576
0.00199448
0.00211355
0.00217268
0.0022217
0.00363676
0.00374555
0.00290838
0.004217
0.00485989
0.00485336
0.00514541
0.00422528
0.00378084
0.00448875
0.00520003
0.00598719
0.00472385
0.00446032
0.00457344
0.00209204
0.00110067
0.00155329
0.00192864
0.00214898
0.00208528
0.00197113
0.00166763
0.00296601
0.00304528
0.00483951
0.00542837
0.00549678
0.00545777
0.00546199
0.00595954
0.00686487
0.00786427
0.0081538
0.00803276
0.00767113
0.00700468
0.00634979
0.00631232
0.00610663
0.00595111
0.00591018
0.00515181
0.00451741
0.00482176
0.00475041
0.00491115
0.00498667
0.00504158
0.00509759
0.00519069
0.00530306
0.00540576
0.00547653
0.00552433
0.00556478
0.00560597
0.00564717
0.00569149
0.00571589
0.00566272
0.00511833
0.00306739
0.00182734
0.00166623
0.00177779
0.00208967
0.00220027
0.00236448
0.00209838
0.00110507
0.00129978
0.00225851
0.00250646
0.00231943
0.00217061
0.00213239
0.0017861
0.00323927
0.0031982
0.00502511
0.00565125
0.00572922
0.00571175
0.00566572
0.00561342
0.00556184
0.00551932
0.00548516
0.0054495
0.00540028
0.00534178
0.0052864
0.00522907
0.00513356
0.00499759
0.0048469
0.00504718
0.00520588
0.00543845
0.00568997
0.00581415
0.00570766
0.00554628
0.00547629
0.00551508
0.00556695
0.00562005
0.00566808
0.0056938
0.00563174
0.0053082
0.00497867
0.00315056
0.00319236
0.0015678
0.00174131
0.00200948
0.0020754
0.00225373
0.00224249
0.00176151
0.00137258
0.00154886
0.00144852
0.00258981
0.00284888
0.00316147
0.00313081
0.00169799
0.00174155
0.00180949
0.00204093
0.00189607
0.00183346
0.00455609
0.00435719
0.00455435
0.00559291
0.0048163
0.00332234
0.00364212
0.00506786
0.00534641
0.00323083
0.00242127
0.00268815
0.00340551
0.00501279
0.00507698
0.00482546
0.00479722
0.00349994
0.00430011
0.00517647
0.00503744
0.00392483
0.00270463
0.00201389
0.000975775
0.00185614
0.00158707
0.0038941
0.00431036
0.00426166
0.00466294
0.00495193
0.00500261
0.00486328
0.00430908
0.00439487
0.00443898
0.00506084
0.00508615
0.0043005
0.00362865
0.00294384
0.00297092
0.00302937
0.00335799
0.00420516
0.00396172
0.00347181
0.00336588
0.00329252
0.00309635
0.00279355
0.00244989
0.00246723
0.00229674
0.002223
0.00350489
0.00466624
0.00550329
0.00566161
0.00571874
0.00563052
0.00558998
0.00542927
0.00534566
0.00464325
0.00592798
0.00626646
0.00604865
0.00609495
0.00613436
0.00618232
0.00618426
0.00606842
0.00521296
0.00311228
0.00203257
0.00229412
0.00247585
0.00232441
0.00231169
0.00246436
0.00233884
0.00205455
0.00332905
0.00325416
0.00520439
0.00589548
0.006021
0.00602692
0.00600148
0.00598002
0.00598655
0.00630075
0.0061589
0.00625284
0.00659422
0.0066016
0.00668017
0.006271
0.00619014
0.006138
0.00610276
0.00604616
0.00589678
0.0052174
0.00505845
0.00574536
0.00592323
0.00600261
0.00605775
0.00612325
0.0062086
0.00645429
0.00663732
0.00670923
0.0064316
0.00632469
0.00617672
0.00596837
0.00591971
0.00591114
0.00590736
0.00587991
0.00572836
0.0050418
0.00324137
0.00332139
0.00197558
0.00198824
0.00228985
0.00240462
0.00236134
0.00218648
0.00213164
0.00367674
0.00418653
0.00444941
0.004799
0.00458477
0.00455729
0.00520958
0.0050416
0.00449267
0.00467552
0.00419079
0.00399015
0.0038704
0.00389447
0.00203817
0.00219963
0.00229475
0.0022571
0.00215825
0.00192528
0.0017655
0.00322267
0.0031991
0.00315804
0.00187699
0.00183561
0.00216261
0.00209988
0.00192066
0.00163716
0.00179509
0.00277348
0.0031025
0.00481106
0.00498425
0.00533399
0.00570374
0.00584313
0.0058803
0.00590284
0.00592769
0.00598333
0.00604916
0.00606875
0.0060679
0.00611962
0.00610842
0.00611097
0.00608079
0.00604504
0.00600247
0.00595631
0.00587998
0.00572285
0.00534702
0.00497866
0.0056131
0.00566521
0.00577105
0.00588005
0.00592612
0.0059325
0.0059094
0.00586417
0.00581009
0.00574904
0.00574612
0.00591592
0.00595958
0.00598903
0.00597077
0.00594945
0.00594269
0.0059163
0.0058742
0.00576645
0.00565801
0.00561231
0.0055182
0.00566482
0.00573029
0.00573945
0.00579414
0.00588205
0.00590769
0.00590751
0.00586387
0.00582737
0.00577922
0.00569943
0.00558998
0.00524198
0.00531702
0.0054107
0.00553403
0.00565282
0.00574881
0.00580335
0.00580872
0.00575677
0.0057215
0.00572295
0.00567439
0.00569938
0.00572507
0.00569527
0.00569043
0.00569216
0.0056232
0.00550159
0.00533363
0.00515725
0.005015
0.00494894
0.00483397
0.00520929
0.00536635
0.00550304
0.00562276
0.00572982
0.00583692
0.00586817
0.00585499
0.00579051
0.00575394
0.00575287
0.00569749
0.0056939
0.00574733
0.005749
0.00577921
0.00583368
0.00581985
0.00574397
0.00554222
0.00534616
0.00517462
0.00500884
0.00482962
0.0048195
0.00489814
0.00481876
0.00487195
0.00503599
0.00524781
0.00543323
0.0055559
0.00559672
0.00563395
0.00568674
0.0056819
0.00565066
0.00563259
0.00556129
0.0054984
0.00542161
0.0052579
0.00505345
0.00487792
0.004832
0.00493757
0.00503419
0.00494216
0.00456751
0.00475178
0.00492752
0.00509971
0.00534313
0.0056234
0.00574234
0.00578525
0.00575753
0.00573589
0.0057332
0.00568253
0.00566391
0.00571074
0.00571462
0.00573684
0.00577188
0.00574
0.00564509
0.00530305
0.00489247
0.00469387
0.00457532
0.00442069
0.00496616
0.00507086
0.00494628
0.00486114
0.00498962
0.00513492
0.0052866
0.00538857
0.0054303
0.00549085
0.00557043
0.00560934
0.00555354
0.00548759
0.00540697
0.00536625
0.00536914
0.00534775
0.00525214
0.00513563
0.00499292
0.00516076
0.00525967
0.00516472
0.00466247
0.00473906
0.00486323
0.00493455
0.00531985
0.00565096
0.00572251
0.00572096
0.00568385
0.00565973
0.00565979
0.00562991
0.00557401
0.0055646
0.00556068
0.0056281
0.00571645
0.00577349
0.00580528
0.00555962
0.00510186
0.00501946
0.00479609
0.00469863
0.00523413
0.00529245
0.00516791
0.00505521
0.00530328
0.00540617
0.00543164
0.00540603
0.00534539
0.00530587
0.0053743
0.00548295
0.00540119
0.00504961
0.00473806
0.00489976
0.00494172
0.00493223
0.00486765
0.00475663
0.00450939
0.00503826
0.00555466
0.00559484
0.00503574
0.0050438
0.00489921
0.00456579
0.00501102
0.0052408
0.00528717
0.00525927
0.00517325
0.00497378
0.00525261
0.00549839
0.00545066
0.00493442
0.00320208
0.00324546
0.0032674
0.00326948
0.00322676
0.00321435
0.00316751
0.00314283
0.00307043
0.00299639
0.00292655
0.00311787
0.00328088
0.00350353
0.00352187
0.00361423
0.00346163
0.00328005
0.00306607
0.00239375
0.00303694
0.00362204
0.00384946
0.00414098
0.00420068
0.00483257
0.005077
0.00520625
0.00510257
0.0040982
0.00347712
0.0027797
0.00180815
0.0011269
0.0013228
0.00137594
0.00144339
0.00176381
0.00328543
0.00167167
0.0023218
0.0018135
0.00312974
0.00163632
0.00102615
0.00067931
0.000863395
0.00102302
0.0010315
0.00099032
0.000826829
0.000651563
0.000666056
0.000622895
0.000662099
0.0005986
0.000686155
0.000642063
0.000891696
0.00132561
0.00151622
0.00155179
0.0012552
0.00141706
0.00118404
0.00136645
0.00122057
0.00133055
0.00127628
0.00156109
0.0017108
0.00163775
0.00164211
0.0014369
0.0010049
0.00116487
0.000915055
0.00109872
0.000840527
0.00108494
0.000930302
0.00120872
0.00124592
0.00124224
0.00119602
0.000913704
0.00108335
0.000852835
0.00104387
0.000854905
0.000907936
0.000755557
0.00109446
0.00111478
0.00102822
0.00109277
0.00122513
0.00131306
0.00144793
0.00137405
0.00156943
0.00152032
0.00154748
0.00146577
0.00142523
0.00139274
0.00139569
0.00137286
0.00138047
0.00142503
0.00142723
0.00143284
0.00147819
0.00145683
0.00142183
0.00140068
0.0012444
0.00100435
0.00174997
0.00180456
0.00183147
0.00183126
0.00179006
0.00176978
0.00170756
0.00169122
0.00163729
0.00160625
0.00153436
0.00147603
0.00140902
0.00158488
0.000887067
0.00100735
0.00106352
0.00109533
0.00111725
0.00112743
0.00113546
0.00112906
0.00111493
0.0010875
0.00107828
0.00104833
0.00134108
0.00152549
0.00159477
0.00161321
0.00151187
0.00143969
0.00315315
0.00381827
0.00580105
0.00593241
0.00445675
0.00444358
0.00153599
0.00162071
0.00110743
0.0015561
0.00160438
0.00158789
0.00149991
0.00108187
0.00162391
0.0011314
0.00152375
0.00114121
0.00141044
0.00115827
0.00164324
0.00209415
0.00202045
0.00182963
0.00124426
0.00103337
0.00102951
0.000881256
0.00096698
0.000802093
0.000988605
0.000838582
0.00124327
0.00176275
0.00196012
0.00200097
0.00157861
0.00217853
0.00163809
0.00237268
0.00188475
0.00232547
0.00186676
0.00216015
0.00267283
0.00268473
0.0026208
0.00211208
0.00169206
0.00189936
0.0016826
0.00193806
0.00280294
0.00183671
0.00278789
0.00115122
0.00156909
0.0016173
0.00159509
0.00150398
0.00101326
0.00258173
0.00136532
0.00243155
0.00157326
0.00252535
0.00182959
0.00241775
0.00288993
0.0030184
0.00300383
0.00245199
0.00220504
0.00227199
0.00181177
0.00217433
0.00162659
0.00236537
0.00135043
0.00175693
0.00194239
0.00204639
0.00205423
0.00168769
0.00333408
0.00209395
0.00316089
0.0021986
0.00281743
0.00225825
0.00246995
0.00291707
0.00289883
0.00287433
0.0024373
0.00197234
0.00260356
0.00185675
0.0554741
0.128097
0.0510247
0.129546
0.0586602
0.0832914
0.0820842
0.0822663
0.0825874
0.0620545
0.135289
0.159751
0.166554
0.168553
0.167278
0.270289
0.220373
0.33105
0.214526
0.126261
0.0547511
0.0754698
0.19477
0.321641
0.482776
0.612678
0.417567
0.4323
0.27588
0.272055
0.256189
0.207291
0.127063
0.0637493
0.0109055
0.01191
0.0170506
0.0226961
0.017822
0.0109022
0.00215908
0.00222856
0.00227946
0.0023116
0.00230439
0.00225583
0.00229102
0.00216141
0.00202963
0.0022692
0.0024747
0.0026903
0.00316191
0.00349157
0.00314641
0.00344743
0.00365298
0.00382089
0.00396032
0.00416766
0.00440079
0.00460462
0.00461496
0.00422792
0.00360328
0.00292981
0.00246079
0.00233073
0.00218837
0.00192977
0.00176507
0.00165166
0.00159763
0.00157551
0.00161942
0.00177016
0.00190127
0.00194728
0.00190931
0.00187435
0.00184388
0.00164193
0.00191985
0.00263352
0.00265366
0.00454649
0.00523872
0.00534772
0.00535531
0.0047461
0.00303154
0.00303847
0.00305419
0.00311314
0.00312566
0.00313503
0.00313218
0.00312273
0.00310488
0.00307223
0.00305547
0.00300643
0.00296434
0.0028578
0.0028625
0.00289928
0.00292853
0.00287991
0.00289141
0.0028309
0.00370057
0.00493685
0.0055553
0.00580499
0.00602072
0.00584342
0.00810103
0.00693673
0.00487301
0.00479246
0.0047325
0.00561737
0.00565471
0.00509585
0.00511573
0.00468022
0.0029223
0.00291655
0.00291845
0.00312141
0.00318283
0.00328769
0.00331701
0.00334041
0.00335558
0.00334558
0.00334255
0.00331047
0.00328754
0.0032118
0.00318673
0.0031758
0.001751
0.00191122
0.00198321
0.00199724
0.00202778
0.00201644
0.00200638
0.00198275
0.00196841
0.00193585
0.00189918
0.00184268
0.00173253
0.00157786
0.00173619
0.00294497
0.0029438
0.00479704
0.00539777
0.0054387
0.00606714
0.00575894
0.0054548
0.00585354
0.00526911
0.00522431
0.00473924
0.00294449
0.00298406
0.00177205
0.00175673
0.00205491
0.0019985
0.00213553
0.0021938
0.00219907
0.00222872
0.00225629
0.00229147
0.0023476
0.00236338
0.00232416
0.00231594
0.00218117
0.00188477
0.00190674
0.00224782
0.00235791
0.0021912
0.00215512
0.00213981
0.00208903
0.00204991
0.00201277
0.00203978
0.00219741
0.00219528
0.00215598
0.00205194
0.001998
0.00173149
0.00167288
0.00292224
0.00296398
0.00488239
0.00499733
0.00496793
0.00573158
0.00640053
0.00727553
0.00620992
0.00503803
0.00522008
0.00596705
0.00443603
0.00371688
0.00220425
0.00166965
0.00207053
0.00193319
0.0020148
0.00208729
0.00185314
0.00199117
0.00184026
0.00167222
0.00166242
0.00166039
0.00170079
0.00171795
0.00174867
0.00175283
0.00179412
0.00178987
0.00179401
0.00181571
0.00182353
0.00201456
0.00218715
0.0018417
0.00156208
0.00152356
0.00143894
0.00137065
0.00140431
0.00137138
0.00136307
0.0013383
0.00131568
0.00125579
0.00130875
0.0013891
0.00162544
0.00155578
0.00125717
0.00112299
0.000767419
0.000782797
0.000788204
0.000812245
0.000821137
0.000831998
0.000836081
0.00084955
0.000852196
0.000856455
0.000856119
0.000876491
0.000873461
0.000863272
0.000856783
0.000860869
0.000864657
0.000863903
0.001265
0.00140819
0.00153642
0.00182416
0.00214532
0.00184693
0.00156618
0.0013516
0.000869038
0.000882058
0.000897906
0.000906188
0.000925138
0.000942556
0.000961783
0.000973932
0.000982889
0.000992364
0.00100233
0.00100622
0.00100358
0.000984069
0.000972526
0.000997391
0.00109642
0.00115403
0.00122788
0.00125585
0.00127959
0.00129154
0.00128536
0.00129888
0.0012835
0.00128148
0.00125945
0.0012502
0.00124114
0.00123
0.00121592
0.00118157
0.00116995
0.00123104
0.002083
0.00272288
0.00313227
0.003448
0.00318812
0.00258725
0.00271862
0.00477612
0.00452294
0.00267025
0.00249357
0.00230093
0.00200846
0.00176811
0.00214136
0.00244274
0.00267068
0.00287096
0.00305426
0.00317903
0.00333976
0.00354937
0.00391895
0.00396498
0.00361616
0.00292881
0.00247699
0.00231127
0.00223213
0.00209599
0.0019474
0.00199649
0.00201114
0.00195153
0.00187752
0.00185682
0.0018878
0.00192795
0.00190504
0.00190438
0.00170151
0.00170086
0.00290656
0.00295964
0.00455288
0.00479735
0.00484438
0.00311341
0.00307121
0.00179373
0.00166622
0.00181783
0.00188745
0.00189165
0.00189975
0.0018908
0.00185793
0.00183418
0.00180616
0.0017835
0.00176321
0.00172801
0.0016604
0.00153386
0.001671
0.00187308
0.00195691
0.00197897
0.00198966
0.00202094
0.00207272
0.00211365
0.00220932
0.00221802
0.00221678
0.00222431
0.00207844
0.00214304
0.00181352
0.00181054
0.00313858
0.00312942
0.00179771
0.00212279
0.00213769
0.00211398
0.00227645
0.002083
0.00201725
0.00200762
0.00192272
0.00187768
0.00181698
0.00178096
0.00181544
0.0019308
0.00186881
0.00165654
0.00159498
0.00178994
0.00172308
0.00142946
0.00122127
0.00118785
0.00113714
0.00110637
0.00115975
0.00120162
0.00122546
0.00125562
0.00126448
0.00131977
0.00128367
0.00134636
0.0014278
0.00149268
0.00177027
0.00191881
0.00173343
0.00170034
0.00167931
0.00167838
0.00168397
0.0016146
0.00161008
0.00157423
0.00155651
0.00150926
0.00148803
0.00146104
0.00146572
0.00148098
0.00162813
0.00418836
0.00534161
0.00556193
0.00950855
0.00384152
0.00392049
0.00771047
0.00317877
0.00478483
0.00512603
0.0053575
0.00559555
0.00511997
0.00652402
0.00454535
0.00506535
0.00527116
0.004609
0.00173673
0.00199819
0.0022937
0.00203774
0.00179907
0.00122509
0.00131939
0.00136181
0.00139652
0.00141877
0.0014439
0.00147063
0.00149579
0.00151333
0.00151335
0.00146697
0.00141713
0.00130274
0.0012647
0.00131347
0.00136385
0.00119741
0.0011274
0.00114051
0.00115899
0.00116926
0.00117123
0.00118238
0.00118524
0.00120297
0.00119316
0.00120191
0.00118112
0.0011911
0.00117594
0.00113618
0.00107991
0.000984714
0.000961634
0.00138526
0.00147542
0.00154995
0.00175991
0.00203321
0.00217018
0.00194556
0.00179476
0.00172279
0.00191102
0.00191305
0.00348358
0.00668738
0.00299104
0.0033474
0.00976948
0.00388345
0.00301493
0.00305988
0.00309169
0.00309618
0.001799
0.00213032
0.00206496
0.0020745
0.00175978
0.00147788
0.00132557
0.00118512
0.000803976
0.000801459
0.000807502
0.000820116
0.000824082
0.00078874
0.000788651
0.000784166
0.000782434
0.000765766
0.000761128
0.000747541
0.000739296
0.000719704
0.000709141
0.000690672
0.000687689
0.000721306
0.00080554
0.000974331
0.00108003
0.00123054
0.00125156
0.00139956
0.00346083
0.00400987
0.00553291
0.0054871
0.00864945
0.00540663
0.00408259
0.00368507
0.00539463
0.00557707
0.00517223
0.00700387
0.00484308
0.00321403
0.00492184
0.00411026
0.00478137
0.00471798
0.00501384
0.0079566
0.00834352
0.00234313
0.00208764
0.00219491
0.00249116
0.00295875
0.00272888
0.00310701
0.00311345
0.00241114
0.00152023
0.00484309
0.00585719
0.00473911
0.00571493
0.00873018
0.00350158
0.00341405
0.00301985
0.00252027
0.00229005
0.0022601
0.00252085
0.00301685
0.00754723
0.00807773
0.00750649
0.00751627
0.00681701
0.00744488
0.00925276
0.00919033
0.00812641
0.00759935
0.00789438
0.00495814
0.00303392
0.00352379
0.0039105
0.00521919
0.0053822
0.0113383
0.00386435
0.00426011
0.0043258
0.00578006
0.00561011
0.00987549
0.00420893
0.00452966
0.00596978
0.00798117
0.0146502
0.00538472
0.00565209
0.00811883
0.0082456
0.00753992
0.00546114
0.00494061
0.005372
0.00404916
0.00396027
0.00337762
0.00498282
0.00669194
0.00531181
0.00515712
0.0043779
0.00392457
0.00399363
0.00414978
0.00344948
0.00339988
0.00391646
0.00293208
0.00283356
0.00298274
0.000829256
0.000424797
0.00043416
0.000445494
0.000454689
0.000464207
0.000471099
0.000479358
0.000482972
0.000483444
0.000484807
0.000512555
0.000507627
0.000491557
0.000446334
0.00050919
0.000808062
0.000808486
0.00050849
0.000448226
0.000804451
0.00128158
0.00151082
0.00178675
0.00180841
0.0015607
0.00135339
0.000833357
0.000820191
0.000497056
0.000580554
0.000630435
0.000559265
0.000624278
0.000578702
0.000612849
0.000619595
0.000573461
0.000570087
0.000572221
0.00056794
0.000557766
0.000545429
0.000530377
0.000518706
0.00051265
0.000508418
0.000498523
0.000412558
0.000385305
0.000465659
0.000745072
0.000745939
0.000697869
0.000655778
0.000619505
0.000602445
0.000597292
0.000593698
0.000604059
0.00062349
0.000629041
0.000634785
0.000683885
0.000661915
0.000706935
0.000663596
0.000708844
0.000665186
0.000611952
0.000513819
0.000530097
0.000855335
0.000864453
0.00139618
0.00159659
0.00181015
0.00181901
0.0020311
0.00213984
0.0018128
0.00188212
0.00215625
0.00200745
0.00178846
0.00179573
0.00161488
0.00161694
0.00143298
0.000895879
0.000883778
0.000554938
0.000538993
0.000642667
0.000631518
0.000702287
0.000751705
0.000751939
0.000749542
0.000731493
0.000724835
0.000637373
0.000624649
0.000625493
0.000606708
0.000602908
0.000629703
0.000689359
0.000811139
0.000981757
0.00106793
0.00110307
0.00105696
0.000945574
0.000700672
0.000631098
0.00109623
0.00113482
0.00205191
0.00488715
0.00229767
0.00430269
0.00310273
0.000769032
0.000856805
0.0010924
0.00122387
0.00132175
0.00137951
0.0012628
0.0010549
0.000794055
0.000655564
0.00097558
0.000843464
0.000951174
0.000830446
0.00107481
0.0012425
0.0012018
0.00121063
0.00102292
0.000833012
0.000882187
0.000791671
0.000872516
0.000730602
0.00087895
0.000793468
0.000997007
0.00100635
0.000985382
0.000933976
0.000711114
0.000746139
0.000625909
0.000679106
0.000609829
0.00063042
0.000597348
0.000696635
0.000802786
0.000770531
0.000767577
0.000630744
0.000494358
0.000546103
0.00047259
0.000534936
0.000415952
0.000503774
0.0004223
0.000546799
0.000563899
0.000567359
0.000564689
0.000460438
0.00054176
0.000661829
0.000694016
0.000699318
0.000665485
0.000513392
0.000794014
0.000715435
0.000873377
0.000754867
0.000826855
0.00075276
0.000877385
0.00112378
0.00117345
0.00118122
0.0009585
0.000952546
0.00174
0.096618
0.00156524
0.00185014
0.00190807
0.00190135
0.00157194
0.00153322
0.00189984
0.00140466
0.00199003
0.00125319
0.00212353
0.000809271
0.00123022
0.00132082
0.00131805
0.00122503
0.000822548
0.00243362
0.118874
0.307843
0.33428
0.333735
0.320747
0.14378
0.501171