/*--------------------------------*- C++ -*----------------------------------*\
| =========                 |                                                 |
| \\      /  F ield         | OpenFOAM: The Open Source CFD Toolbox           |
|  \\    /   O peration     | Version:  v2012                                 |
|   \\  /    A nd           | Website:  www.openfoam.com                      |
|    \\/     M anipulation  |                                                 |
\*---------------------------------------------------------------------------*/
FoamFile
{
    version     2.0;
    format      ascii;
    class       volVectorField;
    location    "925";
    object      U;
}
// * * * * * * * * * * * * * * * * * * * * * * * * * * * * * * * * * * * * * //

dimensions      [0 1 -1 0 0 0 0];


internalField   nonuniform List<vector> 
18258
(
(-0.176744 0.118793 0.136975)
(-0.0518908 0.246678 0.156583)
(-0.104793 0.215619 0.0961394)
(-0.037544 0.0710547 0.0837168)
(-0.226125 0.20407 0.0171493)
(-0.158651 0.363273 0.0155717)
(-0.222403 0.0452846 0.0529624)
(-0.340662 -0.0518958 0.0744761)
(-0.447764 -0.104973 0.107696)
(-0.534569 -0.158996 0.145369)
(-0.620466 -0.216649 0.179642)
(-0.686919 -0.271042 0.309228)
(-0.678105 -0.333817 0.357073)
(-0.621775 -0.44512 0.385755)
(-0.487728 -0.542636 0.369487)
(-0.205336 -0.586714 0.340317)
(0.0730319 -0.374179 0.288346)
(0.0784356 -0.164951 0.29801)
(-0.126465 -0.0785029 0.236078)
(-0.39658 -0.273756 0.116122)
(-0.136532 -0.524419 0.290153)
(-0.193517 -0.364276 0.406281)
(-0.296097 -0.735298 0.299928)
(-0.354604 -0.776718 0.262434)
(-0.128289 -0.708708 0.137251)
(0.0077291 -0.644478 0.186031)
(-0.0143822 -0.337922 0.421735)
(0.17528 -0.111832 0.8017)
(0.299387 -0.0949228 0.888269)
(0.317106 0.0581593 0.906128)
(0.31903 0.185994 0.804095)
(0.166055 0.30257 0.0881793)
(0.082969 0.123939 -0.432657)
(0.0191422 0.073907 -0.727551)
(-0.0610596 0.0735048 -0.90063)
(-0.05153 0.0701218 -1.08151)
(-0.0655672 0.069512 -1.22337)
(-0.0931872 0.0879958 -1.31957)
(-0.133052 0.0787378 -1.36821)
(-0.17916 0.084315 -1.35458)
(-0.228467 0.070321 -1.27074)
(-0.274266 0.0788808 -1.11702)
(-0.312425 0.0733813 -0.906093)
(-0.343065 0.0734989 -0.650807)
(-0.353761 0.0751394 -0.356207)
(-0.338431 0.0704847 -0.157062)
(-0.16194 0.156683 -0.201218)
(0.342277 -0.0982993 -0.138951)
(0.598643 -0.132414 -0.161147)
(0.656336 -0.111739 -0.169903)
(0.77383 -0.135556 -0.178242)
(0.805715 -0.133862 -0.195103)
(0.505037 -0.00781593 -0.257767)
(0.259226 -0.138351 -0.218615)
(0.113291 -0.0427349 -0.158896)
(0.282006 -0.00979651 -0.16903)
(0.537037 -0.00251681 -0.173591)
(0.791359 -0.029892 -0.177802)
(1.0919 -0.0345069 -0.175563)
(1.42774 -0.0486083 -0.185009)
(1.76247 -0.0643291 -0.183384)
(2.04676 -0.0808903 -0.166476)
(2.2476 -0.0925738 -0.138023)
(2.34799 -0.0986866 -0.102393)
(2.35492 -0.0960053 -0.0677795)
(2.29481 -0.0883266 -0.0410829)
(2.20143 -0.0818239 -0.0244003)
(2.10908 -0.0757051 -0.0176138)
(2.03971 -0.0669009 -0.0185794)
(1.99409 -0.064016 -0.023206)
(1.96976 -0.0588582 -0.0255982)
(1.95919 -0.0499366 -0.0200252)
(1.9449 -0.0394103 -0.002975)
(1.90139 -0.024564 0.0246383)
(1.8137 -0.00749312 0.0542403)
(1.69258 0.00993122 0.077599)
(1.5716 0.0221677 0.0804669)
(1.47889 0.0311906 0.0758086)
(1.40076 0.0383293 0.0710716)
(1.33845 0.0512758 0.0636457)
(1.28758 0.0579282 0.065515)
(1.19396 0.0449102 0.0792627)
(1.097 0.0195353 0.111222)
(1.0143 0.00122932 0.12893)
(0.907394 -0.0204145 0.121918)
(0.763409 0.017042 0.147003)
(0.642471 0.0818678 0.133997)
(0.518838 0.100722 0.135036)
(0.381857 0.118313 0.119452)
(0.225169 0.127698 0.0975071)
(0.120318 0.190251 0.0928331)
(0.122754 0.00988961 0.198356)
(0.164329 -0.100843 0.144939)
(0.113374 -0.129567 0.0410161)
(0.104961 -0.115304 -0.140742)
(0.217293 -0.210617 -0.369171)
(0.263382 -0.2336 -0.554687)
(0.204951 -0.140809 -0.72948)
(0.106679 -0.082918 -0.716625)
(0.0364057 0.0544752 -0.495991)
(-0.0838135 0.228128 -0.174959)
(-0.214409 0.197264 0.177116)
(-0.234317 0.0657319 0.151028)
(-0.339972 0.0164967 0.166988)
(-0.270609 0.1412 0.17522)
(-0.244181 0.287965 -0.0567879)
(-0.106235 0.160408 -0.406738)
(0.0655591 0.00246082 -0.587277)
(0.335125 -0.0951853 -0.63212)
(0.497303 -0.23077 -0.488623)
(0.352248 -0.21108 -0.278937)
(0.272057 -0.192048 -0.099444)
(0.283279 -0.186608 0.0409812)
(0.281146 -0.140051 0.161314)
(0.226273 -0.0990202 0.192522)
(0.397613 -0.0811424 0.181847)
(0.536768 -0.0630313 0.177494)
(0.589208 -0.0517601 0.165445)
(0.701306 -0.078504 0.1618)
(0.733385 -0.133556 0.13378)
(0.60167 -0.13415 0.136406)
(0.455077 -0.15169 0.140829)
(0.461978 -0.18579 0.0368326)
(0.611458 -0.162799 0.0528077)
(0.736921 -0.162063 0.0503598)
(0.905459 -0.141716 0.0823003)
(1.0889 -0.109934 0.11178)
(1.18999 -0.0777612 0.149369)
(1.20917 -0.0105025 0.140909)
(1.24631 -0.00887094 0.121242)
(1.33613 -0.00679873 0.140757)
(1.3782 -0.00148849 0.130558)
(1.36972 -0.0123711 0.15952)
(1.32925 -0.0481575 0.194869)
(1.32355 -0.0511034 0.191755)
(1.28637 -0.0620364 0.152905)
(1.27971 -0.0602637 0.136077)
(1.25914 -0.0479498 0.109084)
(1.25067 -0.045912 0.111076)
(1.2024 0.0041083 0.109604)
(1.19533 0.0274527 0.138047)
(1.07855 0.136439 0.271225)
(1.22709 0.0525803 0.253878)
(1.21899 0.0198471 0.159038)
(1.26771 -0.0209036 0.128791)
(1.27972 -0.0250927 0.119725)
(1.28977 -0.0382222 0.145102)
(1.30863 -0.0414857 0.184313)
(1.35132 -0.0366845 0.21834)
(1.38717 -0.0366433 0.223303)
(1.42399 -0.012647 0.18432)
(1.43748 -0.00172999 0.13886)
(1.51366 -0.00637018 0.151991)
(1.61172 -0.0165836 0.160038)
(1.75115 -0.0315189 0.144321)
(1.88342 -0.0541255 0.0494564)
(1.96489 -0.0755987 -0.0709736)
(1.98425 -0.0904702 -0.164198)
(1.96673 -0.0965063 -0.200532)
(1.9503 -0.0968584 -0.194554)
(1.96039 -0.0912496 -0.174852)
(2.00733 -0.0827555 -0.144512)
(2.08871 -0.0703344 -0.107996)
(2.19975 -0.0601243 -0.0842352)
(2.31375 -0.0597699 -0.113084)
(2.39042 -0.0608414 -0.173381)
(2.39287 -0.0584354 -0.277137)
(2.28682 -0.0501758 -0.392243)
(2.07124 -0.0425122 -0.483538)
(1.77072 -0.0367081 -0.539928)
(1.4268 -0.0315593 -0.548677)
(1.08072 -0.0193072 -0.527496)
(0.792133 -0.0243238 -0.45922)
(0.53645 -0.0157613 -0.415384)
(0.282581 -0.0213419 -0.386783)
(0.108885 -0.0404427 -0.36073)
(0.101991 -0.0422676 -0.637192)
(0.077134 -0.0373685 -0.873173)
(0.0504485 -0.0392767 -1.05756)
(0.0115984 -0.0405496 -1.17611)
(-0.0235062 -0.0282443 -1.21584)
(-0.0600993 -0.0157964 -1.16837)
(-0.0938054 0.00313694 -1.03959)
(-0.119186 0.0265632 -0.823195)
(-0.121313 0.0824407 -0.561506)
(-0.146246 0.132358 -0.0456252)
(-0.192641 0.0259531 0.567149)
(-0.208642 -0.0336326 0.753074)
(-0.227158 -0.00210267 0.921688)
(-0.232293 -0.044927 1.06416)
(-0.318087 -0.104469 1.12673)
(-0.371269 -0.11069 1.14027)
(-0.369509 -0.232502 1.00207)
(-0.297136 -0.251167 0.769864)
(-0.458804 -0.666291 0.686646)
(-0.485126 -0.543529 0.704035)
(-0.413494 -0.411644 0.830844)
(-0.549415 -0.765332 0.854831)
(-0.684364 -0.830857 0.603125)
(-0.474593 -0.7534 0.798392)
(-0.435507 -0.574177 0.740541)
(-0.783836 -0.524472 0.746777)
(-0.903656 -0.40796 0.855846)
(-0.530884 -0.705881 0.8202)
(-0.44066 -0.577564 0.661493)
(-0.320192 -0.318819 0.401554)
(-0.299167 -0.180377 0.395052)
(-0.282358 -0.144546 0.348712)
(-0.233569 0.114058 0.109942)
(-0.162665 0.295278 -0.419277)
(-0.152602 0.185413 -0.638831)
(-0.132303 0.0276887 -0.913987)
(-0.0871917 -0.0575212 -1.08556)
(-0.0290512 -0.0698205 -1.23347)
(0.0377992 -0.102331 -1.26829)
(0.097398 -0.0988773 -1.23347)
(0.171714 -0.109577 -1.11978)
(0.215761 -0.12368 -0.92008)
(0.259966 -0.147014 -0.705682)
(0.248998 -0.139598 -0.398717)
(0.417347 -0.0520451 -0.637971)
(0.765399 -0.1184 -0.458989)
(0.716632 -0.108843 -0.415625)
(0.613004 -0.0739497 -0.409885)
(0.535515 -0.107378 -0.419733)
(0.108207 -0.110208 -0.532886)
(0.162262 -0.121953 -0.925322)
(0.247904 -0.22789 -1.07658)
(0.33725 -0.285249 -0.961863)
(0.390771 -0.354357 -0.524056)
(0.200228 0.023834 0.155716)
(0.262985 0.108551 0.176083)
(0.428642 -0.327386 0.334015)
(0.516047 -0.52945 0.504247)
(0.545457 -0.521565 0.55286)
(0.412493 -0.234231 0.67649)
(0.471856 -0.336369 0.566627)
(0.487656 -0.607443 0.551219)
(0.704044 -0.67087 0.320261)
(0.74649 -0.485646 0.457403)
(0.797609 -0.345212 0.598819)
(0.232854 -0.224345 0.573288)
(-0.240481 -0.26726 0.824534)
(-0.178532 -0.191006 0.67515)
(-0.675115 -0.298752 0.816176)
(-0.47336 -0.1804 0.690498)
(-0.323442 -0.00288609 0.538319)
(-0.219056 0.173113 -0.294284)
(-0.193303 -0.0453519 -0.61802)
(-0.057798 -0.169545 -1.09952)
(0.10342 -0.158807 -1.2493)
(0.274165 -0.088607 -1.11796)
(0.430015 -0.107332 -0.702194)
(0.49663 -0.0737542 -0.628246)
(0.487986 -0.0430402 -0.619593)
(0.53197 -0.0889351 -0.648527)
(0.581441 -0.12166 -0.740528)
(0.391389 -0.0425463 -0.689301)
(0.35257 -0.0787192 -0.668549)
(0.129689 -0.113022 -0.674964)
(-0.114063 -0.0495912 -0.585716)
(0.288471 0.00199399 -0.597333)
(0.345148 0.0120831 -0.618904)
(0.632166 -0.100237 -0.655247)
(0.573026 -0.0985886 -0.395497)
(0.265148 0.0695737 -0.377624)
(0.274395 0.0531632 -0.266944)
(-0.30576 -0.0419719 0.0953732)
(-0.308326 0.143668 -0.0168859)
(-0.283571 -0.0256185 -0.45405)
(0.0834385 -0.199963 -0.580589)
(0.356421 -0.278453 -0.572188)
(0.720438 -0.343982 -0.408293)
(0.806791 -0.416996 -0.379177)
(0.76737 -0.289907 -0.296604)
(0.809269 -0.363995 -0.220457)
(0.824351 -0.485067 -0.285319)
(0.735954 -0.429371 -0.28049)
(0.712365 -0.30334 -0.334108)
(0.740733 -0.250666 -0.343836)
(0.787051 -0.310442 -0.213364)
(0.799771 -0.366193 -0.161805)
(0.889718 -0.46436 -0.157098)
(1.15674 -0.630197 -0.117985)
(1.61619 -0.725395 -0.0991423)
(1.99408 -0.671297 -0.0383196)
(2.15109 -0.489534 0.04726)
(2.07154 -0.290487 0.0954583)
(1.90636 -0.162258 0.103193)
(1.80872 -0.0936556 0.0997031)
(1.71185 0.00205903 0.0992543)
(1.57434 0.0909136 0.0914241)
(1.43699 0.10978 0.0484459)
(1.33244 0.0602868 0.0277725)
(1.24265 -0.00165648 0.0221827)
(1.14094 -0.0510834 0.0240134)
(1.05689 -0.0761245 0.0222288)
(0.999111 -0.0602516 0.0179617)
(0.823376 -0.108094 -0.0228689)
(0.717775 0.00480253 0.0112222)
(0.634324 0.0714314 0.0100892)
(0.498536 0.0266295 0.00774536)
(0.360114 -0.0582347 -0.0125083)
(0.139453 -0.145437 -0.0316938)
(0.225957 -0.30742 0.00102797)
(0.353579 -0.0816722 0.0121133)
(-0.00225598 -0.229805 -0.00918575)
(0.0432564 -0.545754 -0.050374)
(0.0122313 -0.712394 -0.0524865)
(-0.00781316 -0.876473 -0.0531209)
(-0.0257714 -1.00661 -0.0647951)
(-0.0358018 -1.10266 -0.09555)
(-0.0462458 -1.15717 -0.104816)
(-0.0577388 -1.21464 -0.117971)
(-0.087978 -1.27661 -0.133989)
(-0.113123 -1.32156 -0.149323)
(-0.137147 -1.35555 -0.162261)
(-0.159226 -1.37746 -0.173349)
(-0.178321 -1.389 -0.18304)
(-0.19378 -1.39074 -0.189785)
(-0.205952 -1.38365 -0.193661)
(-0.215979 -1.36892 -0.19379)
(-0.224515 -1.34702 -0.19187)
(-0.232771 -1.3166 -0.186417)
(-0.240418 -1.27576 -0.178047)
(-0.245861 -1.22153 -0.16499)
(-0.243762 -1.15236 -0.147237)
(-0.190895 -1.07282 -0.126834)
(-0.141199 -0.970025 -0.112438)
(-0.165694 -0.86939 -0.0793714)
(-0.189685 -0.755287 -0.0817713)
(-0.204873 -0.543691 -0.0853696)
(-0.273457 -0.450724 -0.0918686)
(0.0228322 0.0528225 -0.116034)
(-0.350837 -0.308713 0.0253182)
(-0.23161 -0.617861 -0.0543964)
(-0.270296 -0.0993934 -0.0108852)
(-0.457953 -0.182621 0.0646506)
(-0.678748 -0.19878 0.0822666)
(-0.842351 -0.209341 0.114059)
(-0.953933 -0.223183 0.144178)
(-1.03486 -0.232575 0.203764)
(-1.11833 -0.244369 0.245283)
(-1.18763 -0.244237 0.302044)
(-1.20133 -0.248436 0.336328)
(-1.17435 -0.250167 0.366249)
(-1.10736 -0.248849 0.394556)
(-0.996474 -0.243146 0.422748)
(-0.841728 -0.230117 0.454193)
(-0.667605 -0.205828 0.493694)
(-0.420476 -0.14676 0.543131)
(-0.136509 -0.118973 0.567484)
(-0.154139 0.0284312 0.822973)
(-0.15745 0.0828996 1.04263)
(-0.157401 0.115042 1.11214)
(-0.158895 0.164015 1.02062)
(-0.162924 0.153185 0.837788)
(-0.150778 0.13124 0.567427)
(-0.124129 0.143394 0.285476)
(-0.225124 0.439232 0.370839)
(-0.506837 0.467326 0.335058)
(-0.692144 0.480436 0.339137)
(-0.917332 0.465405 0.332748)
(-1.09995 0.424906 0.308832)
(-1.22752 0.353533 0.266147)
(-1.28359 0.273607 0.219035)
(-1.2666 0.206356 0.181793)
(-1.23371 0.148091 0.15853)
(-1.1908 0.115368 0.140613)
(-1.10129 0.0926299 0.0903718)
(-0.959424 0.045252 0.0700043)
(-0.767932 -0.0206436 0.0595709)
(-0.501292 -0.113942 0.0190599)
(-0.253497 -0.207856 -0.0189304)
(-0.274413 -0.197623 -0.0661228)
(-0.318628 -0.177027 0.00844967)
(-0.314835 -0.174227 0.0598446)
(-0.27299 -0.156735 0.151186)
(-0.381213 -0.234033 0.11886)
(-0.423179 -0.297273 0.118963)
(-0.327311 -0.288377 0.177658)
(-0.270262 -0.215544 0.0458906)
(-0.140899 -0.10114 -0.0255036)
(-0.141076 -0.0770383 -0.00680641)
(-0.138587 -0.0744133 -0.0352048)
(-0.169296 -0.0558528 -0.0677463)
(-0.167904 -0.501844 -0.148429)
(-0.126214 -0.480184 -0.137758)
(-0.110762 -0.44758 -0.0949998)
(-0.100568 -0.424498 -0.145194)
(-0.267022 -0.538769 -0.0310985)
(-0.276991 -0.57638 -0.0252838)
(-0.284621 -0.632877 -0.0832995)
(-0.33801 -0.583478 -0.0193534)
(-0.340791 -0.53062 0.0556912)
(-0.302122 -0.359581 0.0859809)
(-0.445107 -0.317378 0.115231)
(-0.362225 -0.432285 0.0407373)
(-0.348232 -0.52332 0.014399)
(-0.378623 -0.508915 -0.0232947)
(-0.429178 -0.394891 0.0324719)
(-0.497972 -0.346964 0.0734207)
(-0.529606 -0.255155 0.164266)
(-0.591932 -0.215699 0.241866)
(-0.680899 -0.197792 0.25651)
(-0.577108 -0.206948 0.212105)
(-0.517413 -0.187959 0.181648)
(-0.545736 -0.185074 0.118208)
(-0.540287 -0.172137 0.0921434)
(-0.496842 -0.18428 0.000876779)
(-0.762642 -0.0866935 0.0646692)
(-0.972959 -0.00531497 0.0897697)
(-1.08069 0.0522472 0.10365)
(-1.12992 0.075176 0.138286)
(-1.16749 0.0358987 0.23814)
(-1.2522 0.0690951 0.267402)
(-1.31812 0.119558 0.349314)
(-1.33157 0.171091 0.432021)
(-1.27399 0.222219 0.524485)
(-1.14874 0.261207 0.604081)
(-0.975836 0.281414 0.648475)
(-0.775566 0.283594 0.657332)
(-0.622824 0.28879 0.644232)
(-0.341731 0.272459 0.644102)
(-0.435326 0.245121 0.874714)
(-0.467387 0.227865 1.00317)
(-0.460429 0.180183 1.08144)
(-0.44123 0.124157 1.01336)
(-0.439861 0.0590574 0.79777)
(-0.711364 -0.00480548 0.744171)
(-0.721916 0.0717629 0.944482)
(-0.740501 0.117519 1.0235)
(-0.745191 0.164617 0.979499)
(-0.695021 0.199069 0.872363)
(-0.838142 0.186585 0.862276)
(-0.879946 0.146236 0.965051)
(-0.882839 0.0885894 1.00118)
(-0.873231 0.0422125 0.926306)
(-0.866987 -0.0387959 0.706911)
(-1.01035 -0.0601103 0.675818)
(-1.02485 0.0207304 0.901159)
(-1.0378 0.0697747 0.966401)
(-1.04603 0.12229 0.944281)
(-1.02111 0.174206 0.854183)
(-1.16496 0.163177 0.804368)
(-1.1655 0.110807 0.89304)
(-1.14871 0.0573283 0.914845)
(-1.13153 0.00662907 0.859597)
(-1.11143 -0.0729265 0.640157)
(-1.17163 -0.0836097 0.595592)
(-1.19725 -0.00609404 0.797083)
(-1.2237 0.0437536 0.840407)
(-1.25318 0.091999 0.811902)
(-1.27091 0.14154 0.717324)
(-1.32067 0.11099 0.610674)
(-1.29206 0.0689562 0.709681)
(-1.25346 0.0250728 0.747604)
(-1.21792 -0.0216674 0.71664)
(-1.18766 -0.0934489 0.539886)
(-1.15442 -0.104726 0.472824)
(-1.18275 -0.0413799 0.621627)
(-1.22177 0.000216382 0.641084)
(-1.2763 0.0391932 0.606876)
(-1.30954 0.0743296 0.509616)
(-1.22652 0.03572 0.41478)
(-1.18955 0.00285438 0.500536)
(-1.12963 -0.0322201 0.531543)
(-1.08721 -0.0601325 0.520459)
(-1.0407 -0.111833 0.386892)
(-0.919676 -0.120228 0.315294)
(-0.924027 -0.109463 0.35828)
(-0.973615 -0.080454 0.438512)
(-0.957595 -0.0871106 0.425345)
(-0.928841 -0.102728 0.395093)
(-1.00574 -0.0685196 0.38186)
(-0.997519 -0.0631027 0.307878)
(-1.00228 -0.0392035 0.28322)
(-1.04549 -0.0271628 0.209469)
(-1.04051 -0.00948618 0.202725)
(-0.807395 -0.10523 0.145608)
(-0.820315 -0.125298 0.158216)
(-0.78924 -0.12854 0.216704)
(-0.825152 -0.141613 0.249892)
(-0.610986 -0.282012 0.133469)
(-0.55783 -0.291805 0.115284)
(-0.504266 -0.327258 0.132995)
(-0.420788 -0.400051 0.116584)
(-0.397352 -0.384451 0.150087)
(-0.488633 -0.284559 0.165868)
(-0.606735 -0.23932 0.184246)
(-0.616263 -0.268103 0.0972504)
(-0.514282 -0.378328 0.0444758)
(-0.440177 -0.460694 0.0285757)
(-0.397754 -0.526901 0.0583592)
(-0.384289 -0.698586 0.122914)
(-0.387445 -0.66398 0.128578)
(-0.405899 -0.380758 0.107611)
(-0.40899 -0.537036 0.0820852)
(-0.399815 -0.602563 0.0444474)
(-0.216187 -0.789119 -0.158077)
(-0.193749 -0.794981 -0.259229)
(-0.115536 -0.704704 -0.369073)
(-0.0786253 -0.624824 -0.385041)
(-0.0452641 -0.589772 -0.347356)
(-0.0139066 -0.55696 -0.301164)
(0.0313375 -0.502936 -0.232068)
(0.124139 -0.456495 -0.108975)
(0.124702 -0.581417 -0.121955)
(0.116786 -0.638094 -0.120256)
(0.0847724 -0.696205 -0.157674)
(0.092123 -0.750953 -0.155732)
(0.100243 -0.807488 -0.17482)
(0.117947 -0.835837 -0.166895)
(0.125953 -0.842664 -0.152736)
(0.126186 -0.82897 -0.130256)
(0.117606 -0.793016 -0.0960466)
(0.103991 -0.736713 -0.0429057)
(0.0385423 -0.657579 0.032671)
(0.00145431 -0.549337 0.151498)
(0.0138934 -0.304354 0.35821)
(-0.144145 0.00585457 0.448675)
(-0.363769 0.0933293 0.351144)
(-0.390548 -0.0411259 0.255926)
(-0.218513 -0.172152 0.25259)
(-0.178277 -0.18808 0.26879)
(-0.155667 -0.17702 0.213875)
(-0.0871893 -0.140666 0.20519)
(0.00224276 -0.0249598 0.0687467)
(-0.0379453 0.112963 0.0803847)
(-0.0813915 0.150977 0.0800332)
(-0.0501391 0.21483 0.169378)
(-0.00883077 0.183775 0.189625)
(0.014245 0.0461697 0.141641)
(-0.0414444 -0.0245292 0.225448)
(0.0252399 0.0962286 0.321384)
(-0.000776112 -0.0617568 0.285234)
(0.0793536 0.14475 0.245594)
(0.0920393 -0.0267742 0.227712)
(-0.0187114 -0.259435 0.456185)
(0.0529908 -0.363542 0.54411)
(0.173212 -0.509892 0.512389)
(0.164551 -0.697629 0.349233)
(0.0744803 -0.820684 0.141957)
(0.0590427 -0.892024 -0.00877222)
(0.0651507 -0.925835 -0.119931)
(0.0631744 -0.95194 -0.197835)
(0.0600478 -0.966453 -0.2486)
(0.051918 -0.964521 -0.279131)
(0.0417773 -0.944523 -0.29239)
(0.0291983 -0.906864 -0.2892)
(0.023512 -0.832212 -0.249608)
(0.00727165 -0.786346 -0.328823)
(0.0434617 -0.705522 -0.225351)
(0.0474649 -0.655246 -0.211498)
(0.0446671 -0.637648 -0.232168)
(0.00455257 -0.703638 -0.325155)
(-0.0225912 -0.743117 -0.382823)
(-0.0573895 -0.778286 -0.410516)
(-0.0733755 -0.845017 -0.401355)
(-0.132324 -0.905515 -0.345446)
(-0.0942818 -0.970117 -0.330989)
(-0.0892246 -0.980891 -0.372507)
(-0.0538959 -0.919349 -0.41774)
(-0.0436334 -0.869416 -0.431707)
(-0.017776 -0.827394 -0.404132)
(-0.00970877 -0.870906 -0.340912)
(-0.0394728 -0.903023 -0.373764)
(-0.0562227 -0.949604 -0.396059)
(-0.0239041 -0.992818 -0.405368)
(-0.048825 -1.06124 -0.419797)
(-0.0666828 -1.04388 -0.423573)
(-0.0937518 -0.921622 -0.344315)
(-0.187057 -0.762763 -0.223935)
(-0.199273 -0.614293 -0.0402811)
(-0.100509 -0.734418 -0.196069)
(-0.0799676 -0.840644 -0.258508)
(-0.059534 -0.930027 -0.322425)
(-0.0608293 -0.947378 -0.333176)
(-0.027617 -0.830391 -0.379611)
(-0.0237716 -0.725454 -0.335801)
(-0.0319312 -0.543101 -0.252172)
(-0.015852 -0.353689 -0.16095)
(0.0321675 -0.0919591 -0.205794)
(-0.249484 -0.434527 0.0739249)
(-0.330595 -0.462131 0.0266921)
(0.223532 -0.117822 -0.244907)
(-0.172357 -0.247641 0.0441927)
(-0.21814 -0.266809 -0.115777)
(-0.258514 -0.269081 -0.102767)
(-0.208698 -0.281872 -0.020931)
(0.0813408 0.140508 -0.218791)
(0.102905 0.0592636 -0.23116)
(0.101145 -0.000519344 -0.259693)
(0.0968671 9.72615e-05 -0.265041)
(-0.0794534 -0.430309 -0.200336)
(-0.132606 -0.450423 -0.221822)
(-0.185799 -0.458798 -0.206019)
(-0.248851 -0.445523 -0.168907)
(-0.168886 -0.548015 -0.183985)
(-0.126708 -0.559965 -0.256785)
(-0.0960827 -0.566329 -0.290788)
(-0.0603024 -0.554589 -0.290858)
(-0.0504878 -0.743677 -0.348273)
(-0.0815077 -0.758259 -0.331467)
(-0.106311 -0.770493 -0.281381)
(-0.147132 -0.760656 -0.194534)
(-0.13447 -0.82247 -0.182159)
(-0.128773 -0.883501 -0.200128)
(-0.0981556 -0.906254 -0.297118)
(-0.07266 -0.873386 -0.373311)
(-0.0490542 -0.853272 -0.399393)
(-0.0767015 -0.969023 -0.370273)
(-0.112151 -0.990587 -0.335427)
(-0.138118 -1.01079 -0.283312)
(-0.137148 -1.09359 -0.346671)
(-0.0800826 -1.06812 -0.398704)
(-0.0724722 -1.14576 -0.440479)
(-0.0493972 -1.12436 -0.473052)
(-0.0270082 -1.11543 -0.458265)
(-0.00342281 -1.04353 -0.415062)
(0.012 -1.07571 -0.406295)
(-0.0127492 -1.15404 -0.469281)
(-0.0398252 -1.18102 -0.493857)
(-0.0684879 -1.20906 -0.462695)
(-0.131482 -1.22948 -0.379022)
(-0.134818 -1.16717 -0.369037)
(-0.283548 -1.04724 -0.225332)
(-0.457243 -1.14655 -0.0769536)
(-0.463635 -1.10062 -0.0674721)
(-0.415948 -1.04634 -0.064734)
(-0.302789 -1.03685 -0.0737657)
(-0.255684 -0.968108 -0.0639587)
(-0.309108 -0.945547 -0.0575508)
(-0.342216 -0.849612 -0.0421286)
(-0.377992 -0.714177 -0.0377918)
(-0.473659 -0.627342 -0.0366237)
(-0.409717 -0.40175 -0.033958)
(-0.464616 -0.661259 -0.00577059)
(-0.316484 -0.457954 0.0246681)
(-0.638303 -0.399042 0.00545364)
(-0.815318 -0.379616 0.0601397)
(-0.917901 -0.384727 0.0846144)
(-0.968004 -0.397512 0.12435)
(-0.979979 -0.525688 0.0977706)
(-0.940275 -0.689911 0.0653717)
(-0.923963 -0.750745 0.052493)
(-0.874422 -0.849134 0.0364292)
(-0.858796 -0.89636 0.0304448)
(-0.820905 -0.928709 0.00759638)
(-0.703565 -0.968468 -0.0230351)
(-0.592347 -1.00309 -0.042004)
(-0.626602 -0.953659 -0.017208)
(-0.484787 -0.972758 -0.0306889)
(-0.502667 -0.894406 -0.0301051)
(-0.530279 -0.797863 -0.0232427)
(-0.559097 -0.731559 -0.019423)
(-0.686264 -0.713086 -0.00980256)
(-0.674823 -0.598648 -0.00777454)
(-0.82407 -0.577689 0.0303389)
(-0.918501 -0.560023 0.0503974)
(-0.881357 -0.697601 0.0231332)
(-0.800325 -0.705191 0.0121878)
(-0.777441 -0.790485 0.00227257)
(-0.660763 -0.799018 -0.0107762)
(-0.635606 -0.883481 -0.0170414)
(-0.748376 -0.866997 -0.00514579)
(-0.825461 -0.851309 0.00442606)
(-0.863116 -0.773652 0.0134979)
(-0.801619 -0.739548 -0.0117857)
(-0.624284 -0.612745 0.00191402)
(-0.847178 -0.660177 0.0116848)
(-0.868231 -0.518742 0.0520794)
(-0.870648 -0.380024 0.0581732)
(-0.843644 -0.282423 0.121667)
(-0.832545 -0.30244 0.0765788)
(-0.879069 -0.35084 0.0525888)
(-0.875501 -0.204028 0.129092)
(-0.894562 -0.184333 0.174147)
(-0.761062 -0.161626 0.158521)
(-0.766977 -0.129163 0.259274)
(-0.77835 -0.120861 0.302122)
(-0.822174 -0.108744 0.355607)
(-0.829785 -0.119357 0.353012)
(-0.643045 -0.181883 0.251407)
(-0.607978 -0.173811 0.24876)
(-0.56798 -0.180634 0.21581)
(-0.551405 -0.175799 0.189092)
(-0.568964 -0.191346 0.120457)
(-0.33842 -0.195002 0.0770593)
(-0.320363 -0.189512 0.102024)
(-0.329658 -0.192196 0.114671)
(-0.360997 -0.199119 0.124843)
(-0.449814 -0.217099 0.142268)
(-0.405759 -0.253616 0.0601717)
(-0.382662 -0.285181 0.068881)
(-0.41119 -0.341402 0.0474359)
(-0.316388 -0.427404 0.0363675)
(-0.312212 -0.394753 0.049677)
(-0.28396 -0.416722 0.0161663)
(-0.193216 -0.419952 -0.0199824)
(-0.337577 -0.254378 0.035841)
(-0.403427 -0.331286 0.0414145)
(-0.248579 -0.457917 -0.00627613)
(-0.292041 -0.460334 0.00071143)
(-0.452316 -0.321552 0.072261)
(-0.525149 -0.299278 0.131534)
(-0.498431 -0.318949 0.136565)
(-0.471217 -0.33709 0.111573)
(-0.458915 -0.35094 0.094383)
(-0.493208 -0.373443 0.00864001)
(-0.710848 -0.318032 0.0631943)
(-0.717862 -0.530234 0.0389481)
(-0.548977 -0.554832 -0.00176137)
(-0.509838 -0.607585 -0.00400204)
(-0.465567 -0.649918 -0.0174621)
(-0.436824 -0.653175 -0.0210941)
(-0.412772 -0.531287 -0.0229128)
(-0.410891 -0.541226 -0.0484355)
(-0.40975 -0.541707 -0.0343472)
(-0.335323 -0.550833 -0.0169535)
(-0.267292 -0.596373 -0.00714606)
(-0.319329 -0.581391 -0.00336396)
(-0.403301 -0.513415 0.00720149)
(-0.331859 -0.535809 -0.00405395)
(-0.438531 -0.630908 -0.0118538)
(-0.292813 -0.47361 -0.00498717)
(-0.210172 -0.540141 -0.0180841)
(-0.280857 -0.52511 -0.0160734)
(-0.394315 -0.436466 -0.000627585)
(-0.413761 -0.36307 -0.0103496)
(-0.260457 -0.39453 -0.0108882)
(-0.156824 -0.423332 -0.0360694)
(-0.13617 -0.399938 -0.0222949)
(-0.238091 -0.205592 0.0226776)
(-0.382452 -0.343166 -0.00184131)
(-0.251501 -0.475024 -0.0194855)
(-0.218856 -0.468457 -0.0233725)
(-0.121968 -0.393301 -0.0296114)
(-0.219257 -0.194745 0.0395949)
(-0.346773 -0.338261 0.0124111)
(-0.366263 -0.36364 0.0543727)
(-0.195777 -0.511644 -0.0105124)
(-0.174068 -0.468568 0.0190428)
(-0.110015 -0.420724 0.00245291)
(-0.222434 -0.229349 0.0451024)
(-0.325923 -0.342235 0.0526224)
(-0.335275 -0.339327 0.0573197)
(-0.180678 -0.463745 0.0171216)
(-0.109423 -0.409474 0.000642366)
(-0.232179 -0.220746 0.0626133)
(-0.286256 -0.221719 0.0779773)
(-0.240695 -0.230553 0.071768)
(-0.350577 -0.337382 0.0788939)
(-0.189829 -0.465825 0.0488872)
(-0.117921 -0.416105 0.0380672)
(-0.140638 -0.450208 -0.00315771)
(-0.196616 -0.498148 0.0261864)
(-0.381969 -0.351037 0.0794703)
(-0.334564 -0.626142 -0.00322848)
(-0.355736 -0.632831 -0.0114082)
(-0.499504 -0.512426 0.0580071)
(-0.651556 -0.44516 0.0983774)
(-0.667077 -0.287051 0.136456)
(-0.798562 -0.27182 0.170617)
(-0.891312 -0.321039 0.166553)
(-1.02108 -0.489175 0.126004)
(-1.10801 -0.495434 0.167787)
(-1.13292 -0.50299 0.19298)
(-1.11292 -0.505264 0.215992)
(-1.04957 -0.50145 0.23888)
(-0.943874 -0.490395 0.260761)
(-0.794799 -0.46693 0.287349)
(-0.639866 -0.431681 0.326948)
(-0.397061 -0.380443 0.395872)
(-0.16169 -0.293143 0.484339)
(0.0450397 -0.150778 0.487614)
(0.339123 -0.158583 0.428327)
(0.339734 -0.215836 0.377857)
(0.205243 -0.128356 0.487548)
(0.273119 -0.0037537 0.767284)
(0.284006 0.0455008 1.03369)
(0.268679 0.0804839 1.144)
(0.250252 0.133155 1.09327)
(0.21227 0.122475 0.955697)
(0.141883 0.120811 0.703896)
(0.039584 0.186836 0.404559)
(0.17353 0.513131 0.424476)
(0.422146 0.515233 0.373911)
(0.60915 0.538065 0.375115)
(0.852724 0.497005 0.351583)
(1.00993 0.416733 0.318394)
(1.0734 0.323115 0.275332)
(1.05647 0.254857 0.235879)
(1.00346 0.211133 0.201133)
(1.02003 0.159295 0.169021)
(1.03723 0.118975 0.145807)
(0.97854 0.0926135 0.0915293)
(0.875248 0.0423913 0.0685144)
(0.710098 -0.0230817 0.054576)
(0.465126 -0.110229 0.0211772)
(0.237899 -0.216675 -0.0235531)
(0.098675 -0.618821 -0.111896)
(0.174612 -0.381893 -0.0789418)
(-0.180667 -0.170283 0.00466551)
(-0.100433 -0.38987 -0.0411569)
(-0.109794 -0.311942 -0.0671798)
(-0.111967 -0.339006 -0.0751541)
(-0.109207 -0.299558 -0.0642278)
(-0.0759693 -0.224107 -0.059804)
(-0.152375 -0.174572 -0.0242205)
(-0.226922 0.22153 0.164686)
(-0.13698 0.471567 0.130554)
(-0.0469984 0.599774 0.0754031)
(0.0238919 0.653017 0.0721179)
(0.106682 0.670477 0.154793)
(0.201765 0.709722 0.272908)
(0.298432 0.744402 0.328675)
(0.385899 0.74184 0.364819)
(0.466196 0.682283 0.373484)
(0.532744 0.547253 0.370815)
(0.583845 0.330041 0.335179)
(0.564195 0.00559214 0.260218)
(0.385671 -0.330165 0.251387)
(0.286047 -0.330296 0.315353)
(0.221051 -0.284591 0.325092)
(0.154603 -0.193535 0.331701)
(0.145506 0.00449487 0.308841)
(0.290626 0.0103145 0.335989)
(0.450803 -0.157646 0.328268)
(0.601432 -0.255209 0.34061)
(0.640384 -0.344348 0.350381)
(0.62131 -0.43637 0.352723)
(0.475273 -0.541181 0.335191)
(0.108086 -0.567431 0.319289)
(-0.169752 -0.301773 0.304448)
(-0.0421433 -0.13078 0.355405)
(0.224923 -0.149592 0.238034)
(0.280513 -0.398239 0.0733382)
(0.00863196 -0.514447 0.237058)
(-0.140054 -0.743156 -0.137984)
(0.20405 -0.718944 -0.478366)
(0.303778 -0.393347 -0.17609)
(0.3319 -0.378419 0.0937612)
(0.345073 -0.550824 0.186173)
(0.327241 -0.892258 0.122164)
(0.528555 -0.872195 0.065222)
(0.605242 -0.691351 0.0971883)
(0.569777 -0.537418 0.137289)
(0.499867 -0.395282 0.187576)
(0.33256 -0.230109 0.24492)
(0.353872 -0.345414 0.194214)
(0.415395 -0.375834 0.141685)
(0.496201 -0.362729 0.0801195)
(0.600327 -0.290601 -0.0546171)
(0.849468 0.198078 -0.113427)
(0.898624 0.475336 -0.0181791)
(0.84552 0.670754 0.0542242)
(0.744418 0.766131 0.0962679)
(0.611281 0.788105 0.142202)
(0.460485 0.757677 0.156447)
(0.294014 0.697528 0.159435)
(0.122895 0.63838 0.0924609)
(-0.0450427 0.602676 0.0488242)
(-0.162912 0.553019 0.0637523)
(-0.283347 0.439391 0.129007)
(-0.405898 0.226796 0.17199)
(-0.287299 -0.127301 0.0137263)
(-0.402988 -0.0170765 0.0632829)
(-0.48601 0.0384039 0.0911202)
(-0.533829 0.163508 0.132261)
(-0.535838 0.116644 0.101401)
(-0.494827 -0.0238301 0.0226708)
(-0.454114 -0.0886373 0.0130352)
(-0.388217 -0.147663 -0.010039)
(-0.293333 -0.210784 -0.0245698)
(-0.19135 -0.245593 -0.0387763)
(-0.141484 -0.219073 -0.0312406)
(-0.198178 -0.183361 -0.023772)
(-0.181944 -0.336282 -0.039393)
(-0.122305 -0.331622 -0.0485287)
(-0.100238 -0.351614 -0.0763705)
(-0.0779694 -0.388843 -0.110968)
(-0.0477263 -0.572711 -0.228089)
(-0.0865549 -0.51288 -0.156773)
(-0.101503 -0.627128 -0.123724)
(-0.146576 -0.635568 -0.0875071)
(-0.187326 -0.557241 -0.076682)
(-0.286807 -0.379526 -0.0407875)
(-0.267997 0.138732 0.105708)
(-0.112643 0.372832 0.270081)
(-0.0137896 0.462169 0.411744)
(0.0625006 0.469306 0.540439)
(0.13501 0.411277 0.615266)
(0.187074 0.304665 0.648316)
(0.238326 0.157105 0.623256)
(0.227187 -0.0145819 0.524631)
(0.0966844 -0.133177 0.423027)
(-0.0178371 -0.099745 0.435349)
(-0.0374535 0.0210882 0.413492)
(-0.0359632 0.143737 0.417492)
(0.0385676 0.249197 0.360211)
(0.20187 0.137839 0.37735)
(0.160141 0.2722 0.443704)
(-0.0569426 0.174279 -0.0625337)
(-0.173513 -0.0727403 -0.636378)
(-0.182909 -0.310339 -0.530141)
(-0.168714 -0.34228 -0.298578)
(-0.145506 -0.300889 -0.0925553)
(-0.0629377 -0.582869 -0.104329)
(-0.0286036 -0.86007 -0.0920823)
(0.00158669 -1.01818 -0.0901375)
(0.0317624 -1.14254 -0.0997255)
(0.0648386 -1.22633 -0.114111)
(0.0952924 -1.27905 -0.128005)
(0.121992 -1.3055 -0.139925)
(0.146116 -1.31394 -0.151934)
(0.16716 -1.31179 -0.164462)
(0.185516 -1.30265 -0.175315)
(0.201162 -1.28809 -0.18387)
(0.215058 -1.26859 -0.189086)
(0.227348 -1.24381 -0.191864)
(0.238575 -1.21239 -0.190761)
(0.248156 -1.17293 -0.185588)
(0.253941 -1.12312 -0.174774)
(0.251125 -1.0603 -0.158109)
(0.194346 -0.996885 -0.138359)
(0.139502 -0.911785 -0.122293)
(0.164076 -0.827683 -0.0866721)
(0.187325 -0.727117 -0.087888)
(0.203457 -0.558521 -0.0877958)
(0.246171 -0.441541 -0.0841713)
(0.071873 -0.0300182 -0.0951028)
(0.365316 -0.297514 0.0436478)
(0.245214 -0.549823 -0.0567889)
(0.285388 -0.0943531 -0.0266913)
(0.180085 -0.0365896 -0.146846)
(0.200898 -0.112111 -0.123942)
(0.193659 -0.119036 -0.0798517)
(0.214625 -0.131484 -0.0219626)