/*--------------------------------*- C++ -*----------------------------------*\
| =========                 |                                                 |
| \\      /  F ield         | OpenFOAM: The Open Source CFD Toolbox           |
|  \\    /   O peration     | Version:  v2012                                 |
|   \\  /    A nd           | Website:  www.openfoam.com                      |
|    \\/     M anipulation  |                                                 |
\*---------------------------------------------------------------------------*/
FoamFile
{
    version     2.0;
    format      ascii;
    class       surfaceScalarField;
    location    "305";
    object      phi;
}
// * * * * * * * * * * * * * * * * * * * * * * * * * * * * * * * * * * * * * //

dimensions      [1 0 -1 0 0 0 0];
oriented        oriented;


internalField   nonuniform List<scalar> 
63799
(
0.00326585
-0.00546225
0.00429919
-0.00835445
-0.0058024
0.00882363
-0.00502146
-0.00841335
0.0104917
0.00612205
0.00621697
-0.00779221
-0.0035255
0.00379372
0.0032562
-0.000896096
0.00430871
0.0017308
-0.00229314
0.00547752
0.00294256
-0.00418227
0.00149209
0.00389757
0.00294212
-0.00642271
0.00487366
0.00447182
-0.00591059
0.00427071
0.00535371
-0.00449155
0.00350714
0.00642757
-0.00307127
0.00189321
0.0122002
-0.00515437
-0.000811387
0.0141766
-0.0116217
0.00908905
0.0152087
-0.013244
0.0115183
0.0184001
-0.0124073
0.00844028
0.0181739
-0.00985507
0.00930029
0.0131101
-0.00760776
0.0118608
-0.0040285
-0.00720313
0.0235653
-0.0194777
-0.0159409
0.0306279
-0.0171982
-0.0299528
0.0269812
-0.00667317
-0.0334899
0.0224124
-0.0146251
0.00759525
-0.0486754
0.0313903
0.00231928
-0.0540674
-0.0221202
0.0269607
-0.0629044
-0.0123441
0.0206291
-0.0442812
-0.0333763
0.0144105
-0.055699
0.0110592
-0.089404
0.00720593
0.0259429
-0.109286
0.0145701
0.00461461
-0.122927
0.00832472
0.00454558
-0.129046
0.00280184
0.00251498
-0.130543
-0.00114791
0.00179286
-0.129184
-0.00495177
0.00273537
-0.125572
-0.00970767
0.00521912
-0.118714
-0.0164896
0.00877809
-0.105716
-0.0268759
0.0130222
-0.083645
-0.0393182
0.0164515
-0.0512076
-0.0508618
0.017636
-0.0617884
0.00983345
-0.103203
0.00332066
0.0372912
-0.131666
-0.000610463
0.028244
-0.150015
-0.00290409
0.020345
-0.15857
-0.00463203
0.0122599
-0.158271
-0.00735774
0.00609189
-0.14981
-0.0111862
0.00175926
-0.132799
-0.0159984
-0.00198059
-0.1069
-0.0210149
-0.00584549
-0.07031
-0.0253922
-0.0121549
-0.0413733
-0.0180033
-0.011883
0.0153312
-0.0145678
-0.0430783
0.0818814
-0.0182037
-0.049273
0.119369
-0.00363813
-0.0347583
0.141628
0.00312639
-0.0262629
0.151178
0.00842142
-0.0188088
0.140854
0.0161564
-0.00659599
0.0817121
0.0368047
0.0217158
0.0343772
0.0174857
0.0296291
0.0193185
0.0114452
0.00353591
0.0198488
0.000757039
-0.0013428
0.0196683
-0.00104489
0.00115432
0.0167292
0.000215322
0.00264298
0.0109764
0.000910397
0.00475759
0.00641826
0.000782546
0.00370404
0.00557883
0.000408462
0.00037992
-0.0025439
0.00629353
0.00175773
-0.000673537
-0.00195853
0.00658765
0.000108833
-0.00746904
0.0125163
0.00252743
-0.00856647
0.0176589
0.00213768
-0.00738338
0.0240395
-0.00087933
-0.00560634
0.0573409
-0.0171414
-0.0163571
0.111889
-0.0114985
-0.0436239
0.134205
0.00286537
-0.0259008
0.143537
0.00447845
-0.0146172
0.145905
0.00404017
-0.00722094
0.143195
0.00427855
-0.00240791
0.135443
0.00514525
0.0018106
0.120182
0.00685149
0.00763118
0.0983445
0.00613564
0.0149965
0.0613806
0.00748776
0.0289156
0.050035
0.0109857
0.080157
0.0141764
-0.0446412
0.0758704
0.00891643
-0.00518155
0.0518897
0.0162971
0.00713182
-0.00140356
0.0533385
-0.000388173
-0.00597993
0.00421648
0.0111372
0.0174515
-0.0351291
0.010809
0.0283688
-0.0287456
0.00180291
0.0319712
-0.0237428
0.00162068
0.0309681
-0.0315825
0.0147639
0.0343779
-0.0483597
0.0299447
0.0397735
-0.0557667
0.0429587
0.0423053
-0.0561252
0.0457495
0.0437761
-0.0472859
0.0247685
0.0467774
-0.0263702
0.0126279
0.0210709
-0.00912719
0.0122897
0.00611277
-0.00587961
0.0122069
0.00565799
-0.00567817
0.0109149
0.00631283
-0.00513109
0.00710946
0.00539165
-0.00168519
0.00196274
0.00505859
0.00307948
0.00347629
-0.00466446
0.00270057
0.00277298
-0.00244509
0.00182432
0.00411734
-0.00331257
0.00261199
0.00469528
-0.00556761
0.00216838
0.00430937
-0.00394653
0.00181355
0.0039712
-0.00368738
0.00211526
0.00198826
-0.00234527
0.0032846
0.00186643
-0.00311333
-0.00185841
0.0105727
-0.00564942
-0.0123279
0.0343363
-0.0244876
-0.0120368
0.0328443
-0.0338976
-0.0123533
0.0346815
-0.0352019
-0.01439
0.0371941
-0.0360332
-0.0132853
0.0365402
-0.038551
-0.0110089
0.0369179
-0.0401161
-0.00697781
0.0374259
-0.0423888
0.00180323
0.0430381
-0.0527511
0.00633918
0.0486196
-0.0540778
0.00493395
0.0516024
-0.0511038
0.00332519
0.0525784
-0.0518458
0.00900176
0.0483968
-0.0549106
0.0190628
0.0457321
-0.0565555
0.0164728
0.047945
-0.0459759
0.0055047
0.0186863
-0.00793764
0.00370562
0.00645912
-0.00473743
0.00555704
0.00257768
-0.00448398
0.00731943
0.00394068
-0.005773
0.00453946
-0.00509047
-0.00808172
0.009492
-0.00536975
-0.0056171
0.00763743
-0.00623724
-0.00118501
-0.0018761
0.00736692
-0.00212162
-0.0058935
0.0121808
0.00697099
-0.00600479
-0.00541375
0.0162437
0.00179068
-0.000634861
0.0747838
0.0148881
-0.047492
0.0175365
0.071342
-0.0446924
0.0260184
0.0711358
-0.0321453
0.0225086
0.0736114
-0.0184631
0.0151317
0.0697089
-0.0116864
0.0105101
0.06347
-0.0111978
0.0102848
0.0533089
-0.0110211
0.00732858
0.0413867
-0.00197991
0.00254269
0.040692
4.33456e-05
-0.00467914
0.044124
-0.0013181
-0.0141255
0.0477444
-0.00204329
-0.0172064
0.0450757
-0.00823729
-0.0153292
0.0467094
-0.0166532
-0.00981222
0.0527734
-0.00497109
-0.0199696
-0.00600284
0.0106672
-0.0040763
-0.00753949
0.00901768
-0.00515689
-0.00243784
-0.00454718
-0.00115488
-0.00167626
-0.000904485
-0.00266176
0.00860677
-0.00372686
-0.00305364
0.00859826
-0.00398467
-0.00173806
0.00890395
-0.0056158
-0.00263471
0.00695323
-0.00200841
-0.00264453
0.00474757
-0.00201109
-0.00219413
0.00649184
-0.00352872
0.0101611
-0.00739276
0.0147625
-0.00777353
0.00306279
0.0191002
-0.00789092
0.00342964
0.0238952
-0.00832437
0.00339327
0.0341188
-0.0124554
0.00205329
0.0462867
-0.019004
0.00655008
0.0342603
-0.000127618
0.0118694
0.0248823
-0.000844945
0.0100432
0.0208933
-0.00190843
0.00576138
0.0172743
-0.00102715
0.00452252
0.013043
0.000334634
0.00378733
0.00772139
0.00183237
0.00339318
0.00361445
0.00401884
0.00287212
0.00616245
-0.00549153
0.00277677
0.00394158
-0.00389722
0.00558914
0.00168029
-0.00456414
0.00753206
0.00237873
-0.00440628
0.0087321
0.00288481
-0.00416556
0.00852883
0.00337882
-0.00324648
0.00814225
0.00301216
-0.00268082
0.0150893
0.000943368
-0.00796791
0.0391743
-0.00675123
-0.017553
0.0691183
0.0131193
-0.0436803
0.076603
0.0246279
-0.0328682
0.0746609
0.0291534
-0.0280379
0.066598
0.0308287
-0.0236217
0.0532197
0.0304249
-0.0179151
0.0258689
0.0284888
-0.00199983
-0.0151008
0.0254444
0.0146686
-0.0398347
0.0320105
-0.00813383
-0.049779
0.0370624
-0.02798
-0.0555095
0.0392705
-0.0344072
-0.0569605
0.0387039
-0.0381055
-0.0527521
0.0360956
-0.0411255
-0.0421052
0.0324771
-0.0438747
-0.0208418
0.026556
-0.0484347
-0.0071864
0.00277485
-0.0166493
-0.00347782
0.00279343
-0.00657957
-0.00404029
0.00359951
-0.00309234
-0.00374983
0.00472157
-0.00508277
-0.00222585
0.00444196
-0.00604516
-0.000534717
0.00435857
-0.00612983
0.000614521
0.00190716
-0.00311999
0.000630265
0.00275065
-0.00281409
-0.000631751
0.00539519
-0.00420364
0.00560444
-0.00632287
0.00954812
0.00212073
-0.00616365
0.0122006
0.00385315
-0.00661346
0.0145
0.003735
-0.00614088
0.0162015
0.00398184
-0.00578653
0.0172525
0.00420537
-0.0053566
0.0169811
0.00454309
-0.0043658
0.0119439
0.00626424
-0.0013041
0.00553954
-0.00012678
0.00650088
0.00539208
-0.000773342
0.000907313
0.00645202
-0.000854539
-0.00022006
0.0074812
-0.000932795
-0.000111908
0.00831352
-0.000655462
-0.000192603
0.00881965
-2.78761e-05
-0.000493702
0.00891451
0.000615945
-0.000726232
0.00873115
0.00106367
-0.000895647
0.00840638
0.00126313
-0.000953741
0.00805835
0.00128576
-0.000953157
0.00771303
0.00122849
-0.00089863
0.007382
0.00115231
-0.000836815
0.00703645
0.00109011
-0.000760016
0.00668552
0.00104662
-0.000711292
0.00615443
0.000962875
-0.00044698
0.00542622
0.000736394
-2.23937e-05
0.00579363
0.000610396
-0.000990603
0.0123595
-0.000822625
-0.00577143
0.0175272
-0.00318876
-0.00204769
0.0183799
-0.000897756
-3.74111e-05
0.0177434
-0.000195194
0.000749386
0.0156045
0.000384917
0.0016712
0.00957144
0.00213012
0.00383382
0.0039041
0.00388852
0.00175073
0.00322112
0.000282683
0.000387662
0.00299888
-0.000330476
0.000539066
0.00234652
4.90921e-05
0.00058972
0.000994319
0.000416354
0.000924697
0.000363079
0.000428897
0.000196883
0.000144635
0.000215338
9.45787e-05
0.000126654
-7.82935e-05
7.43244e-05
6.32242e-05
-4.3687e-05
0.000125019
2.49139e-05
-7.62561e-05
0.000212042
2.93768e-05
-0.000117305
0.000325938
3.58733e-05
-0.00015095
0.00054313
4.67876e-05
-0.000265245
0.000501394
-1.11441e-05
5.18486e-05
0.000739766
-0.000358951
0.000119817
0.00122042
-0.000734831
0.000252985
0.00188433
-0.000934914
0.000269772
0.0025427
-0.00104571
0.000386089
0.00298523
-0.000958467
0.000514692
0.00309178
-0.000754814
0.000647005
0.00301741
-0.000631352
0.000704462
0.00260572
-0.000287694
0.000698132
0.00167053
0.000234294
0.000699648
0.000147561
0.000796722
0.000725014
-0.00144468
0.00139107
0.000199982
-0.00223435
0.000626682
0.000162234
-0.00215995
1.42251e-05
-8.96501e-05
-0.00134024
-0.000796708
-2.42582e-05
-0.00081335
-0.000548261
2.02041e-05
-0.000445293
-0.000404801
3.58477e-05
-0.000249384
-0.000262575
6.60242e-05
-0.000304124
-0.000147363
0.000201393
-0.000470343
-0.000128804
0.000293349
0.00036528
-0.000838687
0.000244302
-0.000612959
0.0007304
2.62905e-05
-0.000399464
0.000614369
-0.000281907
-0.00024177
0.00054685
-0.000553945
-0.000258572
0.000527623
-0.000719875
-0.000348705
0.000511645
-0.000861867
-0.000344345
0.000483449
-0.000879379
-0.00046062
0.000475298
-0.000924008
-0.00041221
0.000454071
-0.000875466
-0.00050696
0.0004557
-0.000879243
-0.000441455
0.000442535
-0.000807957
-0.000521268
0.000447347
-0.000797747
-0.000443971
0.000431102
-0.000719959
-0.000504076
0.000423758
-0.000700371
-0.000409665
0.000387473
-0.000614462
-0.000459596
0.000371339
-0.000529862
-0.000421259
0.000334145
-0.000546738
-0.000489852
0.000504357
-0.00130618
-0.000300052
0.00105425
-0.00147485
-0.000585945
0.000748112
-0.00266422
-0.000353312
0.00152997
-0.00481949
-0.00410021
0.00621998
-0.0107281
-0.0174556
0.0232392
-0.015732
-0.0220105
0.026844
-0.0174596
-0.0349639
0.0363764
-0.0152597
-0.0461289
0.0435863
-0.0504812
0.0459077
0.0156423
-0.0811974
0.0217518
0.0247751
-0.0819974
0.0261738
0.021747
-0.0748423
0.00548692
0.0367528
0.0125895
-0.0232934
0.0102816
0.00490381
-0.024917
0.0123417
0.00262781
0.00240927
0.00325323
-0.00488671
0.00280559
0.00166439
-0.00369173
0.0016121
0.00193169
0.000515788
0.00107897
0.00026383
0.000736977
-4.10434e-05
0.000381107
0.000348373
8.73168e-05
-0.00017475
3.24623e-05
-0.0011578
0.000819357
0.00016209
-0.00170197
0.000500881
0.00219366
-0.00403141
0.00178583
0.00096349
0.0013537
-0.00436742
0.0020768
0.00215007
0.000817166
0.000540467
0.00115176
0.000555636
0.000968715
-0.000803286
0.000572837
0.00135217
-0.00145448
0.000563166
0.00108512
-0.000777783
0.000597048
0.00145222
-0.00147285
0.00058066
0.00112563
-0.000735596
0.000616889
0.00145076
-0.00144153
0.000605532
0.00106243
-0.000685813
0.000658002
0.00126412
-0.00133268
0.000666367
0.000816308
-0.00063585
0.000735265
0.000800781
-0.00110198
0.000764696
0.000443317
-0.000747064
0.000841832
0.000352766
-0.00102113
0.000865782
9.64046e-05
-0.00106923
0.000921917
-0.000241231
-0.00124969
0.000969629
-0.00201264
0.000927376
-0.00435116
0.000586438
0.00174135
-0.00517356
-0.000182612
0.000992375
-0.00518635
-0.00023584
0.000235807
-0.00591358
-0.00027138
0.000987871
-0.0136483
0.00088698
0.00682292
-0.0203667
0.00588424
0.000782499
-0.0245241
0.00235339
0.00174246
-0.0475117
0.00663373
0.0162587
-0.0492467
0.0043828
-0.00285219
-0.0274242
-0.00404383
-0.0178726
-0.0243884
-0.00139825
-0.00169743
-0.0185079
-0.0049453
-0.000985764
-0.00852629
-0.00124817
-0.00875808
-0.00794454
0.000381169
-0.000973712
-0.00904484
0.000208933
0.000878272
-0.00943964
8.5104e-05
0.00029623
-0.00900821
-0.000552002
0.00010705
-0.00872629
-0.000483645
0.000189054
-0.00862937
-0.000333827
0.000224115
-0.00882961
-0.000124338
0.000311327
-0.00938947
7.21736e-05
0.000473245
-0.00969474
-0.000359933
0.00064991
-0.00958045
-0.000906926
0.000776837
-0.00910925
-0.00137447
0.000887399
-0.00841006
-0.00168281
0.000967859
-0.00777868
-0.00164087
0.00099366
-0.00702214
-0.00153615
0.00076425
-0.00604885
-0.00130775
0.000319734
-0.00617002
-0.00120001
0.00130787
-0.0134467
-0.000694789
0.00794052
-0.0184396
0.00810696
-0.0031899
-0.0208231
0.00540362
-0.00310724
-0.0418779
0.0127307
0.00815201
-0.0543303
0.0250199
-0.0130154
-0.0357191
0.00930791
-0.0284729
-0.0331824
-0.00310595
-0.0513871
-0.0254685
0.042991
-0.0592461
-0.0391015
0.0462044
-0.0571964
-0.0501918
0.0473192
-0.0453373
-0.0578752
0.0451794
-0.0278583
-0.0613209
0.0430362
-0.0624516
0.0436357
0.0193924
-0.104274
0.0249272
0.0383539
-0.103333
0.0221923
0.0521188
-0.0969048
0.0243767
0.0547474
-0.0838065
0.0301061
0.0461131
-0.0653797
0.0340858
0.0261637
-0.0430225
0.0367548
-0.0144088
0.0367897
-0.0290735
-0.0292108
0.0431156
-0.040171
-0.037391
0.047616
-0.0455487
-0.0459355
0.0504042
-0.0439429
-0.0551753
0.0526165
-0.0365592
-0.0630127
0.0546773
-0.0244667
-0.069685
0.0566465
-0.00662968
-0.074576
0.0558176
0.0111158
-0.0718425
0.0532033
0.0100227
-0.0547164
0.0549375
0.00457267
-0.0578007
0.0623858
0.00972347
-0.0687893
0.0627727
0.0182665
-0.070879
0.0614655
0.0277399
-0.0678234
0.0574929
0.0347056
-0.0613848
0.0535918
0.0347007
-0.0514107
0.0506594
0.0147742
-0.0343738
0.0536833
0.00614757
-0.0106389
0.0190466
0.00327046
-0.00119747
0.00399729
0.00276225
-0.00300918
0.00346256
0.00157238
-0.0041735
0.00529355
0.000102855
-0.0038689
0.00526031
-0.00100156
-0.00466148
0.00568671
0.000538652
-0.00405644
0.00245314
0.0014067
-0.00460318
0.00368781
-0.00119313
-0.00520752
0.00773641
0.00838131
-0.00966246
0.0139183
-0.0096382
0.00400191
0.0170144
-0.00994436
0.00673756
0.0191682
-0.00819912
0.00594227
0.0224971
-0.00883532
0.00540178
0.0507322
-0.0306739
0.00224388
0.107525
-0.000847436
-0.0565074
0.133242
0.0162326
-0.0426403
0.145936
0.0235972
-0.0370577
0.15211
0.0262934
-0.0332103
0.151417
0.0288342
-0.028896
0.136418
0.0338174
-0.0194818
0.0791731
0.0490045
0.00771389
0.0363982
0.0190902
0.0235079
0.0293073
0.00630312
0.000697081
0.0188059
0.0103061
0.00012341
0.00784733
0.0103067
0.000622287
0.00690793
0.00164657
-0.000719564
0.00687723
0.000633985
-0.000616931
0.00572168
0.0016018
-0.000459489
0.00259381
0.00248331
0.000633625
0.00106928
0.00126327
0.000255892
0.000432741
0.000633472
0.000257743
-0.000759305
0.000930756
3.21828e-05
-0.000593287
0.00081573
-0.000120686
-0.000649141
0.000798883
-0.000265891
-0.000614338
0.000756547
-0.000324019
-0.000656615
0.000711745
-0.000397968
-0.000579838
0.000650892
-0.000381015
-0.000641023
0.00062123
-0.000398734
-0.000563779
0.000578723
-0.00034056
-0.000628674
0.000567775
-0.000333572
-0.000554656
0.000544964
-0.000272062
-0.000611944
0.000547791
-0.000267021
-0.000538879
0.000531169
-0.000234288
-0.00056153
0.000526253
-0.000242456
-0.000489492
0.000495036
-0.000190755
-0.000519089
0.000465016
-6.16036e-05
-0.000477597
0.000345942
-2.88657e-06
-0.000436098
0.000375052
-0.000398211
-0.000691765
0.0010818
-0.000650232
0.000872588
-0.000627159
-0.00134175
0.00136641
-0.000687646
-0.00254429
0.00553739
-0.00437063
-0.00916336
0.0249237
-0.0184316
-0.0161539
0.0303211
-0.0235064
-0.0205738
0.0407362
-0.0366367
-0.0164819
0.0447991
-0.0492346
0.0493306
-0.0552032
0.019204
0.0712479
-0.0272558
0.0260554
0.0636367
-0.0259557
-0.0184512
0.0498322
-0.00540858
0.0269983
-0.00477928
0.0338893
-0.0020656
-0.00488264
0.000150801
0.0451392
-0.0114415
0.0649438
-0.0150277
-0.0121334
0.0512671
-0.00102549
-0.0283086
0.0545819
-0.0293552
0.0698685
0.0104849
0.0638975
-0.0135598
0.0163123
0.0360721
0.0273386
0.00933897
0.00853344
0.0678029
-0.00579954
-0.00586438
-0.0123384
0.0840485
-0.017948
0.00155165
-0.00244129
0.0129415
-0.0257545
-0.00337622
0.0100604
-0.0102343
0.00119922
-0.0307338
-0.00895617
0.0228057
0.00657923
0.00432482
-0.00693402
0.00623962
0.0145191
0.0221289
-0.0137618
0.00863845
0.00349397
-0.0059393
2.1726e-05
0.0161523
0.00386075
0.00312276
0.0115162
0.00135049
0.00327855
0.0106475
-2.58368e-05
0.000883815
-0.00928734
-0.000376818
0.0202981
-0.0192662
0.00100622
0.00420109
0.00354249
0.0054374
-0.00478507
0.00725745
-0.000440081
0.00466102
0.00256646
-0.0046811
0.0089611
0.00175748
0.0107679
0.00361435
-0.0118453
-0.000804804
-0.00564623
-0.00243911
-0.0029555
0.0307524
-0.0101886
-0.00250704
0.000925916
0.00972086
0.00426079
0.00267457
-0.0337763
0.00348734
-0.00230682
0.000568975
-0.0011143
0.0030843
-0.00443507
0.00292654
-0.00451285
0.00314949
-0.011518
-0.0133291
0.00633326
0.0108286
0.00341158
-0.00819116
-0.0108839
0.00709037
0.0117005
-0.00293523
0.00224544
-0.012531
0.0190599
-0.00256217
-0.00282307
-0.00278318
0.0057144
0.000645008
-0.00260826
-0.00208587
0.00182166
-0.000710479
0.00040997
0.00298463
-0.00247033
-0.00211444
0.00183239
0.000530109
0.00254251
0.00189748
-0.00251485
-0.00204805
0.000437173
-0.00255117
-0.0020689
0.00215914
0.0025509
0.000671447
-0.00262888
-0.00203647
0.00199482
0.00243339
0.000665007
-0.00229981
-0.00204097
0.00182419
0.00252023
0.00104386
-0.00256015
-0.00191835
0.00162601
0.00247092
0.000975653
-0.00232424
-0.00198633
0.00176412
0.00261205
0.00142179
-0.00287638
0.00265839
0.00179171
-0.00202238
0.00133544
-0.0026951
0.00202665
0.00307815
-0.00232594
0.0016204
-0.00268137
-0.00354423
0.00347396
0.00246394
0.00121934
-0.00365201
0.00324556
-0.00319074
0.00399536
0.00103901
-0.00451166
-0.00346692
0.00379586
0.00435998
0.000436259
-0.00438104
0.00513713
0.00364266
-0.00379894
5.1804e-05
0.00416728
-0.00483623
0.00556313
-0.0045129
6.94888e-05
-0.00190042
0.00242667
0.00179055
-0.00233578
0.00179968
-0.00110317
0.00122455
-0.00185231
0.00226316
0.0021339
0.000341131
-0.00293944
0.0020815
-0.000878712
0.000643787
0.000415618
0.0021335
-0.0016446
0.00134973
0.00024171
0.00174446
-0.00109048
0.00119815
0.000280255
0.00134869
-0.000655182
0.000769673
0.000280204
0.000647841
-3.88457e-05
0.00032567
0.00041297
-0.000351272
0.000508024
-8.52063e-05
0.00057523
-0.00104441
0.000560177
-0.000483779
0.000615675
-0.00125088
0.000752309
-0.00107665
0.000529767
-0.00124819
0.000965109
-0.00150334
0.00053445
-0.00113218
0.00100506
-0.00154831
0.000426128
-0.000924442
0.000927218
-0.00136577
0.000229647
-0.000783826
0.000376964
-0.000487097
-3.14465e-05
-0.000427876
0.000577893
0.000110191
-0.00104496
-0.000154659
0.000272257
-0.000577918
3.16999e-05
-0.000566961
0.000662209
-0.00056145
0.000310055
-0.00120026
0.00156226
0.00134677
6.06713e-05
-0.00235433
-0.0026257
0.00266408
-0.00217918
0.00091835
-0.00353647
0.000127781
0.00216259
0.000422469
-0.00261403
0.000701148
-0.00166063
-0.000525264
-0.00524929
0.00379653
-0.0024422
0.00201094
-0.00513681
0.00382912
-0.00678121
-0.000847234
-0.00404357
0.00911353
-0.0258995
-0.00989228
-0.0186293
-0.0069796
0.0537974
-0.042791
-0.0203658
0.0253813
0.0110799
-0.0494717
-0.0292874
0.0463389
-0.0111915
-0.049452
-0.0310476
0.0512875
-0.0210889
-0.0464665
-0.0320776
0.0535563
-0.0252971
-0.041507
-0.0299998
0.0526366
-0.0284135
-0.0121154
-0.0231366
0.0472835
-0.0164638
-0.0379256
0.0164765
-0.00726915
-0.00961811
-0.0118399
0.0136388
0.0260159
-0.0101703
-0.0131384
0.0217275
0.0166117
-0.0141078
-0.0107269
0.0123131
0.0345477
-0.0112865
-0.0139737
0.00529967
0.027722
-0.00811323
-0.0126946
-0.00657327
0.0394216
-0.010486
-0.0171626
-0.0125414
0.0402278
-0.0144797
-0.0199072
-0.00759519
0.0292768
-0.0138233
-0.0205357
-0.00888203
0.0333246
-0.0132288
-0.0189627
-0.0106483
-0.00503726
-0.00739556
-0.00233281
-0.00926609
0.00588676
-0.0010587
-0.00991158
0.00641637
-0.00247252
-0.00868085
0.00449578
-0.00292857
-0.00626887
0.00288081
-0.00300469
0.00199062
-0.00270025
-0.00913688
0.0058707
0.010135
-0.00497458
-0.00432158
0.00658143
-0.00533464
0.00614072
-0.00654235
0.00682098
-0.0066566
0.00586614
0.00727341
-0.00589927
0.00534417
0.00724075
-0.00476698
0.00469508
0.0121722
-0.0126738
0.00754768
0.0224265
-0.0339531
0.03189
-0.0401531
0.0398633
-0.0408167
0.0460157
-0.0379431
0.0470286
-0.0310541
0.0451724
-0.0191725
0.0312005
0.00355333
0.016256
0.0139206
0.0155164
0.00266
0.0121269
0.00279237
0.00503066
0.0059186
0.0011481
0.00440997
0.000793275
-0.000184965
0.00422563
0.00027269
-0.000101985
0.00337862
0.000872501
-3.87211e-05
0.00144678
0.000605912
0.001315
0.000537573
0.000240889
0.000662948
0.000445423
8.90846e-05
0.000307657
4.5988e-05
9.01015e-05
0.000224567
-4.6958e-05
0.000129338
0.000344179
-0.000127694
7.43985e-06
0.000571512
-0.000182251
-4.59787e-05
0.000794411
-0.000179038
-4.5033e-05
0.0010636
-4.54669e-05
-0.00022498
0.00088761
-6.1035e-05
0.000236003
0.00130817
-4.43532e-05
0.00218011
5.40899e-05
0.0030774
0.00010654
0.00376845
0.000272811
0.00406107
0.000458447
0.00398723
0.000632764
0.00377208
0.000721916
0.00302674
0.000705252
0.00173629
0.000634017
1.91413e-05
0.000625441
-0.00181662
0.000189971
-0.00290116
0.000205068
-0.00275228
-9.3975e-05
-5.59304e-05
-0.00172163
-1.69764e-05
-0.00101493
-0.00105029
3.98228e-05
-0.000712341
-0.00057935
5.59338e-05
-0.000527768
-0.000327501
8.90118e-05
-0.000341504
-0.000403645
0.000263832
-0.000188398
-0.000146297
0.000374448
-0.000646516
0.000458498
4.12694e-05
-0.000241449
0.000301014
0.000555466
0.000454522
-0.00212115
0.000611598
0.000812335
0.0011304
-0.00273829
0.000949806
0.00111093
0.00115826
-0.00247527
0.00123634
0.00120924
0.00206476
-0.00383158
0.00134404
0.00157911
0.00195599
-0.00286219
0.00142016
0.00154896
0.00430065
-0.00534974
0.0029011
0.00504935
0.00412419
0.00297094
-0.00206147
0.00397529
0.00178744
-0.000996199
0.00480592
0.00162652
-0.00110931
0.00485826
0.00235219
-0.0012081
0.00460724
0.00201477
-0.000995742
0.00411124
0.00102918
-0.000209049
0.00330359
0.000247168
0.000473709
0.00243575
-0.000378043
0.000760538
0.00163593
-0.00160522
0.00132684
0.000936953
-0.00276376
0.00195774
0.000120391
-0.0028969
0.00216344
-0.000850775
-0.00245402
0.00205752
-0.00103212
-0.00068552
0.000378338
-0.000640809
0.000665144
-0.000479906
0.000654749
-0.000362507
0.00408426
-0.00245719
-0.00327124
-0.00124169
0.0041893
0.00450004
-0.00146506
0.00259214
0.00627782
-0.000725353
0.00158818
0.019821
-0.00529526
-0.0120629
0.00383949
0.0157001
-0.00727667
0.00603713
0.0114834
-0.00672265
0.00571515
-0.00986996
-0.00145079
0.0253511
-0.00849082
-0.0168022
-0.0100548
0.016085
-0.0181275
-0.0395299
0.0590364
-0.0291282
0.0270425
0.042636
-0.0500833
0.0589292
0.00744766
-0.0575898
0.0667108
-0.00883808
-0.0590266
0.0702628
-0.0161999
-0.0565684
0.0704438
-0.021201
0.0644171
-0.0320061
0.0694697
0.0835982
-0.0274403
0.068789
0.0841417
-0.014044
0.0640167
0.0813249
-0.00730123
0.0509501
0.0775844
0.00119308
0.0174771
0.0711887
0.0202145
-0.0378938
0.0322474
0.0491538
-0.0366889
-0.0465744
-0.0222696
0.0484759
0.0140001
-0.0192655
-0.0116793
-0.0198655
-0.018648
-0.0155018
0.00747956
-0.0243883
-0.00740833
0.00558906
-0.0224691
0.00634003
-0.0272571
-0.00841917
0.005826
-0.0119603
-0.0151895
-0.00715005
0.00164772
0.00401526
-0.0116256
-0.00423823
-0.000134804
-0.00996292
0.00116646
-0.00982855
-0.00395755
0.00233823
-0.00369979
-0.0068731
-0.00418744
0.00245675
0.00320493
-0.00474011
-0.00315273
0.000984283
0.00211415
-0.00372944
0.00154542
-0.00146476
0.00164864
-0.00339034
-0.00347997
0.00294786
-0.00516244
-0.00318013
0.00205245
-0.00728385
-0.00311574
0.00247037
-0.00908578
-0.00227225
0.00246602
-0.0100757
-0.00181208
0.00242092
-0.0115923
-0.00107271
0.00283354
-0.011804
-0.000545539
0.00178344
-0.0111673
0.000923941
0.000451119
-0.0102751
0.00183819
-0.000381133
-0.00922452
0.00297156
-0.00239927
-0.00896379
0.00275305
-0.0012294
0.0101857
0.00622208
-0.016141
-0.00122671
0.00945638
0.00324764
0.000231171
0.0111933
0.00266169
-0.00143066
0.012391
0.000801141
-0.000163643
0.0124874
-0.000310349
0.00113477
0.0114709
-0.00115678
0.0016247
0.0106071
-0.00195516
0.00174352
0.00966791
-0.00271563
0.00183988
0.00871425
-0.00323816
0.00191662
0.00712299
-0.00343971
0.00191208
0.00574357
-0.00339776
0.00159401
-0.00381275
0.00234333
-0.00673195
-0.00379129
0.00196671
-0.00779237
-0.00474045
0.00239961
-0.00875425
-0.00431651
0.0018355
-0.00974098
-0.00409032
0.00183586
-0.0107607
-0.00351339
0.00181453
-0.0114248
-0.00288943
0.0015954
-0.0120113
-0.00162129
0.00104801
-0.0124526
-0.000170273
0.000297989
-0.01175
0.00138774
-0.00129266
-0.00970806
0.00143448
-0.000818425
-0.00931452
0.0021777
0.000672571
0.0118411
0.0031156
-0.0188152
0.000748212
0.00904034
0.00461446
0.000360038
0.0129349
-0.0016628
-0.000801149
0.0116192
0.00357296
-0.000873663
0.0158458
-0.00353726
-0.00086368
0.0122945
0.00159426
0.000331593
0.015114
-0.00562825
-8.47857e-05
0.0110392
-0.000648519
0.00120572
0.0128584
-0.00673805
0.000824408
0.0085307
-0.00196321
0.00197032
0.00842471
-0.00645192
0.00181341
0.00527453
-0.00218145
0.00153644
-0.00535113
0.00059589
0.0113826
-0.00735317
-0.0139233
0.00234425
0.0118055
-0.0059974
0.00137031
-0.00504801
0.00125075
0.0125964
-0.00511251
-0.0130146
0.000463238
-0.00566237
-0.00119177
0.0137987
-0.00436441
-0.013378
-0.00174152
0.029602
-0.00476838
-0.0189324
0.000646689
-0.00774047
0.00443608
0.0249223
-0.00661842
-0.030111
0.00397772
-0.00671769
0.00489554
0.012271
-0.00312738
-0.0185184
0.00261137
-0.0298382
-0.0162393
-0.0228587
-0.018574
0.00837264
0.00485164
-0.03972
0.00253105
0.00936087
-0.02319
0.00283533
0.00630366
-0.00581555
-0.0277709
0.00401462
-0.0315309
0.00286697
0.00804699
-0.000168182
-0.0324116
-0.00637525
-0.000718877
-0.0134546
-0.00181788
0.00469068
-0.0185646
0.00022913
-0.0141233
0.000303566
0.00558806
-0.015618
-0.00513432
0.00102186
-0.0143522
0.000909973
-0.0167876
-0.00634734
0.00141162
0.00773287
-0.0200544
-0.00632942
0.00184566
-0.0181206
0.00349908
-0.0215081
-0.00642725
0.00241248
-0.0224221
-0.00362095
0.000485264
-0.0208848
-0.000465085
-0.00105234
-0.0192745
0.00229569
-0.000971419
-0.0187521
0.00375094
-0.00117451
-0.00504264
0.0043597
-0.0173205
-0.000768209
-0.00641596
-0.0165966
-0.000865165
-0.00744004
-0.0150265
-0.00010982
-0.00580426
-0.0115882
0.00172256
-0.0039048
-0.00925991
0.00103822
-0.00688706
0.000591679
-0.00930427
0.00433779
-0.000335863
-0.00668344
-0.00133265
-0.000669485
-0.00471651
-0.000324388
0.00560531
-2.3254e-05
0.0151059
0.00978683
-0.0309418
0.0108164
-0.000605506
-0.00457167
0.00702594
0.00104117
0.000274961
-0.00431581
0.00468588
-0.00791739
0.00902701
-0.00122334
-0.00171569
0.0063794
-0.00136803
-0.00796565
-0.00117722
0.00530073
-0.00631361
-0.00191119
0.00565154
0.00189655
-0.00683073
-0.00234365
0.00559084
-0.00699046
0.00181452
-0.0025311
0.0054784
-0.00701803
0.00170911
-0.00250729
0.00535746
-0.00695543
0.00155609
-0.00238003
0.00526764
-0.00689088
0.00147793
-0.00229455
0.00514773
-0.00670561
0.00145436
-0.00225404
0.00507541
-0.00656187
0.00142797
-0.00212625
0.00473359
-0.00619299
0.00131432
-0.00200779
0.00407647
-0.00493593
0.000725524
-0.00177695
0.00524974
-0.00773826
0.00223405
-0.0116683
0.00366791
-0.0260691
0.0136801
-0.0220299
-0.0248509
0.0115425
-0.0275348
0.00507598
-0.0780658
0.041173
-0.0178367
-0.0877821
0.0282757
-0.0890986
0.0230103
-0.11709
0.0201957
0.0131507
-0.13053
0.0156941
0.00378371
-0.137721
0.0146053
-0.00310886
-0.14005
0.0146321
-0.0088878
-0.137486
0.0160316
-0.0154191
-0.129159
0.0196852
-0.0243936
-0.114198
0.0236894
-0.0366372
-0.0458096
-0.0400607
0.0253134
-0.0660313
-0.00665213
0.00980746
-0.0283524
-0.0208294
-0.0176527
-0.00620593
-0.0161318
-0.00243821
-0.0131733
0.00861233
-0.00954783
-0.00433551
0.00493833
-0.0113741
0.000482908
0.00168878
-0.00649556
0.00140284
-0.00297465
0.00593872
0.00183677
-0.00648211
0.00980938
0.00197495
-0.00596934
0.0127518
0.00168089
-0.00475963
0.020164
0.00359618
-0.0111884
0.0347307
0.0152637
-0.0301156
0.0300456
0.0322495
-0.0278533
0.0250639
0.0213534
-0.0165579
0.0227985
0.0155701
-0.0134534
0.0195828
0.0135129
-0.0104331
0.015777
0.0120958
-0.00840725
0.00952464
-0.00350812
-0.0147152
0.0142953
0.000208162
-0.0183134
-0.00254257
0.0181219
-0.0207551
0.0196841
-0.00385654
-0.0215399
0.0213704
-0.00514999
-0.0159411
0.0218038
-0.00618812
-0.0553374
0.0382122
0.0567469
-0.0239094
-0.0218135
-0.0201508
-0.0451863
0.0464804
-0.0191613
-0.00724654
0.0256676
-0.0212643
-0.0155506
-0.00759178
0.0196632
-0.015862
-0.0100372
-0.007231
0.0183149
-0.0167688
-0.00617079
0.0161995
-0.0152824
0.00586186
-0.00862015
0.00992859
-0.00944798
0.0125806
-0.00869612
-0.011359
-0.00367074
-0.00282763
-0.00271835
-0.00215217
-0.00110592
-0.00140345
-0.00116384
-0.00199654
0.00211622
-0.00122873
0.00247334
-0.00253799
-0.00193634
0.00278062
-0.00171405
-0.0044654
0.000583042
0.00382385
0.00317801
0.00532936
-0.0155247
0.00294036
-0.00037574
-0.00780188
0.00508907
-0.00564152
-0.000784326
-0.00717887
0.000144708
0.0271146
-0.00881961
-0.0132516
-0.00593683
0.00671171
0.0139708
0.00639057
0.0377657
0.00673302
-0.0378567
0.00907041
-0.00160392
0.0302208
-0.0186792
-0.00242291
0.000334472
-0.00675868
0.00799905
-0.000916734
0.00283517
-0.00321832
0.0159911
-0.0064516
0.00414059
0.0102218
0.00970093
-0.010674
-0.0105867
-0.00679436
-0.00751089
0.00817678
-0.0101016
-0.00217271
-0.00660698
-0.0314263
-0.0189684
0.0413841
0.00641877
-0.000160159
-0.00250257
-0.0686931
0.0333318
-0.00785315
-0.021419
0.00652807
-0.0201329
0.0039471
0.00317333
-0.000597281
0.00322163
-0.00145133
-0.00260504
-0.00097143
-0.000352732
-0.00219917
0.00146788
0.00252945
0.00165819
-0.0290474
0.0151777
-0.0109654
-0.0109482
-0.0102586
0.0793649
0.0470278
0.0338369
-0.015881
-0.0150257
-0.0141701
0.0226906
0.0270798