/*--------------------------------*- C++ -*----------------------------------*\
| =========                 |                                                 |
| \\      /  F ield         | OpenFOAM: The Open Source CFD Toolbox           |
|  \\    /   O peration     | Version:  v2012                                 |
|   \\  /    A nd           | Website:  www.openfoam.com                      |
|    \\/     M anipulation  |                                                 |
\*---------------------------------------------------------------------------*/
FoamFile
{
    version     2.0;
    format      ascii;
    class       volVectorField;
    location    "305";
    object      U;
}
// * * * * * * * * * * * * * * * * * * * * * * * * * * * * * * * * * * * * * //

dimensions      [0 1 -1 0 0 0 0];


internalField   nonuniform List<vector> 
22960
(
(-0.183226 -0.38525 0.261257)
(-0.0492689 -0.4536 0.273104)
(-0.0980283 -0.46565 0.121768)
(-0.133692 -0.276852 0.0657855)
(0.188017 -0.168639 0.0728818)
(0.0420366 -0.389775 0.105356)
(0.0687258 -0.142565 0.114079)
(0.0822245 -0.216989 0.129229)
(0.202117 -0.167949 0.0699235)
(0.230218 -0.1411 0.0577034)
(0.278267 -0.113879 0.0527943)
(0.242234 -0.100674 0.0973864)
(0.197738 -0.074396 0.0550721)
(0.151033 -0.0748666 0.0491622)
(0.190959 -0.0625452 0.0363298)
(0.213522 -0.0415664 0.0679158)
(0.194948 -0.0153411 0.130513)
(0.0973461 0.00251994 0.244556)
(-0.184713 -0.0953939 0.253309)
(-0.298449 -0.225765 0.193377)
(-0.191598 -0.31061 0.210101)
(-0.0675626 0.0611537 0.188786)
(-0.64014 -0.295796 0.182425)
(-0.732899 -0.150978 0.246283)
(-0.821368 0.308491 0.218811)
(-0.704662 0.605452 0.113072)
(-0.763541 0.232064 0.0828636)
(-0.997239 0.124136 0.0414471)
(-1.25168 0.0512549 0.0344564)
(-1.39217 0.0141668 0.015101)
(-1.46964 -0.00973312 0.00423941)
(-1.49982 -0.0283347 0.00130079)
(-1.49549 -0.0481207 0.00180469)
(-1.46323 -0.0761309 0.00582699)
(-1.39171 -0.117143 0.0192712)
(-1.2644 -0.17916 0.0415233)
(-1.04467 -0.261015 0.0676331)
(-0.719479 -0.342993 0.0731304)
(-0.365187 -0.443618 0.00315412)
(-0.24996 -0.821915 -0.042271)
(-0.185935 -1.21064 -0.0661761)
(-0.136844 -1.42741 -0.0823864)
(-0.100318 -1.56066 -0.0959829)
(-0.0744 -1.59994 -0.114447)
(-0.0502311 -1.55591 -0.138083)
(-0.0246693 -1.43211 -0.165444)
(0.00299089 -1.22072 -0.192851)
(0.0377154 -0.882504 -0.211913)
(0.0461828 -0.548961 -0.161909)
(0.241983 -0.260689 -0.140225)
(0.29945 0.573333 -0.166352)
(0.200231 1.01836 -0.0906882)
(0.14341 1.30548 -0.057467)
(0.103979 1.4707 -0.0346675)
(0.064987 1.55844 -0.0218736)
(0.0214307 1.57875 -0.0148766)
(0.0201061 1.53134 -0.0163839)
(0.00827764 1.50248 -0.00241958)
(-0.0145582 1.43638 0.00266661)
(-0.040757 1.29346 0.00785799)
(-0.0680101 1.06891 0.0185682)
(-0.117903 0.81869 0.0297229)
(-0.0217978 0.300577 0.00577243)
(-0.492974 0.0552475 0.0172426)
(-0.323939 0.327495 0.066275)
(0.252487 -0.576253 -0.117988)
(-0.189298 0.227795 -0.0228362)
(-0.426197 0.216148 0.0187244)
(-0.707374 0.175296 -0.00493401)
(-0.971495 0.136173 -0.00982289)
(-1.17345 0.156411 0.0287963)
(-1.30732 0.167475 0.0374961)
(-1.42959 0.127287 0.0145018)
(-1.51937 0.0893285 -0.00204127)
(-1.56908 0.0577192 -0.00723226)
(-1.58478 0.0336377 -0.00471168)
(-1.56136 0.0133207 0.00224538)
(-1.48856 -0.0114034 0.0127273)
(-1.35238 -0.0524395 0.0289347)
(-1.08745 -0.122079 0.0264301)
(-0.846423 -0.253504 0.0587956)
(-0.876485 -0.673037 0.0707676)
(-1.17653 -0.408316 0.0721759)
(-1.00883 -0.169263 0.198702)
(-0.866566 0.0176823 0.174114)
(0.327013 -0.21013 0.0567455)
(-0.230595 0.414437 0.151886)
(-0.162881 0.229019 0.197384)
(-0.107953 0.153509 0.224003)
(0.0483659 0.200376 0.212797)
(-0.0930561 0.330356 0.226752)
(-0.236387 0.381927 0.259774)
(-0.402878 0.394641 0.280036)
(-0.541301 0.367293 0.291824)
(-0.609156 0.288847 0.290649)
(-0.638392 0.243246 0.277152)
(-0.61059 0.204859 0.165522)
(-0.566182 0.172708 0.14868)
(-0.483638 0.135821 0.151037)
(-0.338586 0.103362 0.133814)
(-0.204567 0.0613201 0.12225)
(-0.174376 -0.208544 0.101388)
(-0.24159 -0.0419512 0.127132)
(-0.114504 0.0125303 0.134322)
(-0.176027 -0.146984 0.105271)
(-0.118386 -0.137903 0.0997762)
(-0.108421 -0.115673 0.0958018)
(-0.0895957 -0.109802 0.079058)
(-0.0922615 -0.123991 0.177206)
(-0.140277 -0.0271062 0.205547)
(-0.176174 0.157419 0.226193)
(-0.243894 0.115157 0.243203)
(-0.238136 0.114248 0.251837)
(-0.233193 0.129681 0.254419)
(-0.244379 0.147467 0.242408)
(-0.249994 0.112782 0.239771)
(-0.266817 0.110294 0.23576)
(-0.342974 0.0242046 0.264283)
(-0.352087 -0.0567065 0.302868)
(-0.324068 -0.0635262 0.330734)
(-0.335253 -0.0265572 0.351049)
(-0.377611 -0.0309097 0.331614)
(-0.417562 -0.120769 0.315813)
(-0.361008 -0.239252 0.285298)
(-0.267408 -0.259627 0.291131)
(-0.189931 -0.310907 0.262465)
(-0.165257 -0.388557 0.137435)
(-0.161516 -0.440604 0.125521)
(-0.141361 -0.46189 0.115911)
(-0.131849 -0.465652 0.281436)
(-0.153696 -0.439567 0.271259)
(-0.15817 -0.377072 0.191954)
(-0.182403 -0.298055 0.307435)
(-0.121704 -0.301421 0.526915)
(-0.183567 -0.229909 0.485058)
(-0.232416 -0.180011 0.569091)
(-0.271207 0.0608046 0.566733)
(-0.201149 0.206626 0.575867)
(-0.127497 0.237603 0.602154)
(-0.0931094 0.173393 0.577912)
(-0.110313 0.106853 0.537509)
(-0.11515 0.0932141 0.471586)
(-0.0683123 0.100791 0.404101)
(-0.0461402 0.0433026 0.397559)
(-0.0401957 0.0114429 0.39993)
(-0.0462369 -0.085267 0.417495)
(-0.0632653 -0.143295 0.392724)
(-0.0840417 -0.125983 0.390416)
(-0.0597394 -0.0501116 0.43018)
(-0.0743532 -0.148556 0.349856)
(-0.0426 -0.256932 0.37134)
(-0.103264 -0.185493 0.22382)
(-0.0947958 -0.162176 0.169986)
(-0.102607 -0.147342 0.236661)
(-0.109736 -0.167403 0.245874)
(-0.167058 -0.16608 0.242023)
(-0.0704444 0.00164183 0.259594)
(-0.239193 -0.0572253 0.240551)
(-0.172927 -0.212116 0.255283)
(-0.199181 0.0715064 0.319913)
(-0.177803 0.0591251 0.537835)
(-0.16073 0.0470989 0.710288)
(-0.15665 0.0339055 0.857227)
(-0.161838 -0.0223957 0.954702)
(-0.162863 -0.0680637 1.00566)
(-0.131418 -0.0818738 1.01922)
(-0.0890575 -0.0134443 0.958808)
(-0.0539677 -0.0210796 0.884123)
(-0.0315787 -0.0314305 0.778212)
(-0.00605569 -0.0343801 0.632019)
(0.0263033 -0.0315327 0.430893)
(0.0908161 -0.0457372 0.248546)
(0.0627872 -0.313637 0.224864)
(-0.0218911 -0.182917 0.200932)
(0.14688 -0.212755 0.134959)
(0.104825 -0.407609 0.111877)
(0.102895 -0.469299 0.113434)
(0.106182 -0.576348 0.110431)
(0.097592 -0.642298 0.100057)
(0.0838058 -0.694301 0.152683)
(0.129455 -0.73797 0.183835)
(0.152002 -0.761281 0.214383)
(0.170533 -0.782501 0.20859)
(0.177615 -0.766625 0.193323)
(0.178404 -0.718446 0.167872)
(0.171366 -0.622443 0.128093)
(0.163612 -0.49723 0.0342628)
(0.155536 -0.0673084 -0.0836333)
(0.198157 0.395101 0.0484706)
(0.217501 0.475784 0.197427)
(0.226192 0.554287 0.241951)
(0.228134 0.572474 0.269855)
(0.220985 0.563265 0.29186)
(0.213242 0.522945 0.305624)
(0.19801 0.434936 0.302908)
(0.168732 0.389121 0.237229)
(0.12165 0.354247 0.211011)
(0.129038 0.322792 0.137821)
(0.128087 0.270155 0.158088)
(0.120341 0.18656 0.167788)
(0.117984 0.071632 0.157017)
(0.0537052 0.0349342 0.0778076)
(0.178722 0.0617268 0.0994664)
(0.140233 0.0347373 0.135928)
(0.147258 0.052978 0.201998)
(0.277798 0.0658311 0.174789)
(0.432979 0.0815839 0.163131)
(0.546651 0.0920603 0.154666)
(0.639622 0.101353 0.147566)
(0.715431 0.107695 0.141403)
(0.779321 0.11174 0.131928)
(0.843596 0.117468 0.107217)
(0.895468 0.101109 0.08251)
(0.964777 0.0634429 0.0827718)
(1.04099 0.0419018 0.0814433)
(1.13192 0.0244251 0.0747772)
(1.24406 0.00633469 0.0559009)
(1.33789 -0.0143722 0.0182473)
(1.38226 -0.0334644 -0.0261088)
(1.37161 -0.0496088 -0.0639874)
(1.32399 -0.0592034 -0.0875159)
(1.26402 -0.0647092 -0.0985521)
(1.20752 -0.0664555 -0.102303)
(1.15832 -0.0668115 -0.102091)
(1.11661 -0.0656195 -0.0992042)
(1.0809 -0.0647567 -0.0951756)
(1.04942 -0.0601153 -0.0895287)
(1.03011 -0.0499378 -0.0883716)
(1.00768 -0.0419205 -0.0907786)
(0.91512 -0.0396238 -0.0677368)
(0.846792 -0.0329379 -0.0457561)
(0.821456 -0.0274874 -0.0387847)
(0.793934 -0.0231197 -0.0351992)
(0.760935 -0.0200498 -0.0340114)
(0.717459 -0.0150646 -0.0378292)
(0.685048 -0.0147315 -0.040199)
(0.64475 -0.0138621 -0.0450567)
(0.577978 -0.00680212 -0.0479882)
(0.488999 0.00105128 -0.0475851)
(0.372477 0.018135 -0.0452047)
(0.226996 0.0292122 -0.0464311)
(0.0970382 0.0369509 -0.0498907)
(0.0575358 0.0595818 -0.0560278)
(0.0375084 0.0834836 -0.0347916)
(0.0440931 0.141859 -0.0269941)
(0.0513137 0.166956 -0.0302402)
(0.0615847 0.287482 -0.0333751)
(0.118922 0.272143 -0.0323628)
(0.185433 0.766504 -0.00448923)
(0.75716 0.248972 -0.107744)
(0.974099 -0.149829 -0.137334)
(1.48341 -0.333358 -0.19599)
(2.03555 -0.420619 -0.291491)
(2.47578 -0.418453 -0.376156)
(2.72251 -0.367388 -0.433417)
(2.66415 -0.364258 -0.465143)
(2.4356 -0.339721 -0.449078)
(1.99491 -0.180251 -0.419909)
(1.04785 0.173131 -0.409749)
(-0.465349 1.12987 0.16794)
(-1.73482 1.94183 0.0197508)
(-0.696636 2.91658 0.0134905)
(-0.413625 1.35658 -0.0263782)
(-0.278714 1.04424 -0.0573946)
(-0.227982 0.694015 -0.0682492)
(-0.196879 0.474821 -0.0679312)
(-0.147863 0.268374 -0.100369)
(-0.175334 0.178752 -0.146126)
(-0.274173 0.138721 -0.0956218)
(-0.146497 0.180358 -0.120576)
(-0.0654055 0.191447 -0.0815489)
(0.00842267 0.18734 0.0357347)
(-0.0197037 0.172936 0.178129)
(-0.0502419 0.158727 0.274187)
(-0.0638734 0.149299 0.346204)
(-0.0856331 0.143242 0.380244)
(-0.085039 0.139082 0.396533)
(-0.100187 0.136848 0.396617)
(-0.0930571 0.136125 0.388693)
(-0.104429 0.135797 0.376422)
(-0.0912648 0.135481 0.361431)
(-0.0978784 0.134465 0.347556)
(-0.0783183 0.131893 0.338315)
(-0.0849574 0.130736 0.343514)
(-0.0832563 0.122958 0.35429)
(-0.103936 0.150885 0.373317)
(-0.0931463 0.169742 0.383278)
(-0.119571 0.169006 0.378223)
(-0.195861 0.188798 0.371375)
(-0.288779 0.2676 0.334028)
(-0.417913 0.246285 0.282126)
(-0.52239 0.246613 0.316584)
(-0.560688 0.336881 0.316339)
(-0.666142 0.234514 0.201566)
(-0.703656 0.233062 0.17325)
(-0.911029 0.129845 0.0962685)
(-0.865881 0.126126 0.171457)
(-0.770531 0.160098 0.247934)
(-0.693969 0.177969 0.259172)
(-0.591105 0.172903 0.299594)
(-0.447184 0.15548 0.308562)
(-0.382548 0.11912 0.306856)
(-0.266689 0.113732 0.326632)
(-0.189972 0.126669 0.335242)
(-0.181464 0.134074 0.335453)
(-0.151017 0.140676 0.352123)
(-0.157714 0.138294 0.35871)
(-0.261783 0.123455 0.340622)
(-0.305756 0.121455 0.316143)
(-0.398667 0.106834 0.315653)
(-0.434027 0.0982146 0.336679)
(-0.235262 0.10869 0.35613)
(-0.253275 0.109946 0.343215)
(-0.241623 0.112246 0.357367)
(-0.285797 0.110763 0.372013)
(-0.255885 0.115197 0.385341)
(-0.286879 0.113489 0.394026)
(-0.248704 0.118547 0.396799)
(-0.272976 0.118227 0.393586)
(-0.227788 0.127478 0.380641)
(-0.242631 0.131218 0.353336)
(-0.188354 0.145235 0.308924)
(-0.189814 0.153221 0.24543)
(-0.169066 0.170992 0.170419)
(-0.190884 0.177699 0.121964)
(-0.248507 0.183577 0.0728972)
(-0.30637 0.183638 0.0266427)
(-0.497229 0.167742 -0.00889897)
(-0.709328 0.135265 0.0159487)
(-0.863637 0.0919966 0.0178559)
(-0.985979 0.0661258 0.0143436)
(-1.08657 0.0688011 0.0101354)
(-1.14752 0.0839388 0.0110482)
(-1.17722 0.080479 0.0146389)
(-1.22329 0.066328 0.00916229)
(-1.24311 0.0715538 -0.0144399)
(-1.25188 0.0669221 -0.038028)
(-1.32113 0.0422176 -0.0317577)
(-1.4271 0.00513376 -0.0274368)
(-1.46698 -0.00446134 -0.0217499)
(-1.53716 -0.0104963 -0.0308232)
(-1.57075 0.00476662 -0.0119134)
(-1.61253 0.00749671 -0.00758044)
(-1.65706 0.00517194 -0.00232796)
(-1.67344 0.00787159 0.0143553)
(-1.6571 0.0135709 0.0337727)
(-1.61503 0.0214698 0.0522133)
(-1.56195 0.0329 0.0672958)
(-1.51474 0.0437782 0.0810838)
(-1.47491 0.0531887 0.0942707)
(-1.43259 0.06508 0.111512)
(-1.37688 0.0779187 0.128567)
(-1.31168 0.0867622 0.137072)
(-1.25618 0.0892737 0.127773)
(-1.21827 0.0890951 0.120939)
(-1.19655 0.0898095 0.118347)
(-1.17097 0.106071 0.116979)
(-1.12739 0.149709 0.114038)
(-1.07261 0.159301 0.137942)
(-0.939394 0.144777 0.178739)
(-0.80472 0.119172 0.241165)
(-0.709047 0.0849915 0.284449)
(-0.471159 0.0343324 0.335316)
(-0.251371 -0.0327604 0.367977)
(-0.267219 -0.217783 0.554269)
(-0.267697 -0.290261 0.698266)
(-0.26099 -0.341869 0.686853)
(-0.245352 -0.384901 0.586302)
(-0.237072 -0.416744 0.399089)
(-0.257808 -0.436985 0.199541)
(-0.0926699 -0.807864 0.108798)
(-0.0648038 -0.764049 0.304951)
(-0.0797824 -0.693282 0.495826)
(-0.1127 -0.602926 0.591537)
(-0.146509 -0.49915 0.589426)
(-0.193503 -0.359792 0.431732)
(-0.248452 -0.0714892 0.212583)
(-0.267574 -0.26551 0.209476)
(-0.275588 -0.363661 0.258735)
(-0.283103 -0.448771 0.310895)
(-0.292265 -0.461553 0.368032)
(-0.304303 -0.418016 0.423391)
(-0.316975 -0.324805 0.478801)
(-0.307935 -0.188223 0.535114)
(-0.259571 0.0467833 0.52278)
(-0.269658 0.18751 0.362557)
(-0.33923 0.0436422 0.390813)
(-0.356454 0.0684433 0.498275)
(-0.365041 0.152643 0.51847)
(-0.35375 0.245671 0.499478)
(-0.336985 0.326169 0.460764)
(-0.324499 0.397604 0.412193)
(-0.323236 0.415073 0.314062)
(-0.292154 0.349096 0.252736)
(-0.185479 0.23566 0.16431)
(-0.165262 0.176385 0.129775)
(-0.153442 0.157145 0.099343)
(-0.139356 0.0186521 0.0852809)
(-0.158723 -0.0184987 0.109089)
(-0.0479865 -0.133752 0.132137)
(-0.270678 -0.0511742 0.235949)
(-0.222541 -0.0379623 0.156241)
(-0.22564 -0.113485 0.331756)
(-0.405663 -0.125891 0.299989)
(-0.647742 -0.15501 0.279246)
(-0.836592 -0.170956 0.254154)
(-0.998129 -0.17486 0.212761)
(-1.1488 -0.144647 0.279127)
(-1.29632 -0.13636 0.320668)
(-1.41228 -0.148655 0.3123)
(-1.50939 -0.159218 0.296874)
(-1.57559 -0.164936 0.279404)
(-1.61647 -0.167588 0.2616)
(-1.62965 -0.169885 0.240634)
(-1.6232 -0.176495 0.205295)
(-1.60308 -0.171556 0.181364)
(-1.59117 -0.171892 0.135281)
(-1.56701 -0.182821 0.100901)
(-1.53244 -0.181286 0.0831401)
(-1.43362 -0.138536 0.0795538)
(-1.28845 -0.121198 0.0754406)
(-1.12234 -0.152168 0.0710877)
(-0.920209 -0.204418 0.0593595)
(-0.64168 -0.235953 0.0171333)
(-0.3541 -0.193653 -0.101961)
(-0.172547 -0.238558 -0.149919)
(-0.101097 -0.25326 -0.0673371)
(-0.111296 -0.238348 0.0127767)
(-0.107481 -0.228199 0.067494)
(-0.119544 -0.20837 0.120715)
(-0.107227 -0.197548 0.146421)
(-0.125024 -0.184916 0.167047)
(-0.112364 -0.177978 0.164138)
(-0.130066 -0.170103 0.162025)
(-0.114801 -0.168211 0.143085)
(-0.130623 -0.164749 0.134937)
(-0.111979 -0.163859 0.113742)
(-0.116781 -0.161128 0.11355)
(-0.0952268 -0.15601 0.107452)
(-0.103323 -0.152667 0.121872)
(-0.0941185 -0.127168 0.129247)
(-0.115718 -0.175883 0.109091)
(-0.114752 -0.191262 0.0570202)
(-0.0898414 -0.175776 0.101608)
(-0.149565 -0.189007 0.176705)
(-0.264709 -0.302 0.197091)
(-0.427365 -0.268718 0.195771)
(-0.549818 -0.259308 0.268389)
(-0.594708 -0.362252 0.296235)
(-0.720904 -0.250478 0.203954)
(-0.76926 -0.237945 0.170898)
(-0.802228 -0.691548 0.207952)
(-0.783078 -0.691807 0.241464)
(-0.66998 -0.71861 0.380893)
(-0.56989 -0.455256 0.380948)
(-0.580396 -0.868605 0.242756)
(-0.791186 -1.17694 0.585778)
(-0.747609 -0.840153 0.426572)
(-1.1088 -0.548034 0.460744)
(-1.18467 -0.409049 0.37095)
(-1.18617 -0.44106 0.269915)
(-1.00887 -0.19114 0.354437)
(-0.766005 -0.276354 0.385859)
(-0.201732 -0.349736 0.349249)
(-0.398677 -0.680398 0.533647)
(-0.803127 -0.751225 0.503686)
(-1.30431 -0.879434 0.626194)
(-1.14782 -0.767605 0.422833)
(-0.605322 -1.01381 0.284083)
(-0.492228 -0.933512 0.369454)
(-0.345989 -0.776334 0.310698)
(-0.558322 -1.48432 0.20974)
(-1.16278 -1.40725 -0.227749)
(-1.10014 -0.836379 0.212557)
(-0.877674 -0.603853 0.377138)
(-1.19247 -0.773495 0.165622)
(-1.09782 -0.93274 0.361298)
(-1.07023 -0.633737 0.357916)
(-1.16217 -0.639767 0.230161)
(-1.39894 -0.225983 0.409127)
(-1.31389 -0.257844 0.290369)
(-1.21173 -0.44173 0.069937)
(-1.11814 -0.378595 0.261882)
(-1.18307 -0.34714 0.309224)
(-1.10246 -0.435066 0.220594)
(-0.999314 -0.591592 0.22688)
(-1.11352 -0.649448 0.254312)
(-1.21248 -0.508061 0.328119)
(-1.29542 -0.54021 0.402544)
(-1.10017 -0.873109 0.276537)
(-0.937663 -1.04292 0.287594)
(-1.05215 -0.997651 0.313561)
(-1.35555 -0.880056 0.223192)
(-0.869777 -0.936355 0.238397)
(-0.903256 -0.918893 0.215143)
(-0.944752 -0.90458 0.214238)
(-1.01543 -0.92346 0.241368)
(-1.00655 -0.914408 0.236528)
(-0.966261 -0.935664 0.275506)
(-0.892138 -0.910113 0.327798)
(-0.949023 -0.98185 0.435557)
(-0.992318 -1.02058 0.498481)
(-1.14084 -1.14934 0.57046)
(-1.26845 -1.24498 0.574751)
(-1.56967 -1.41595 0.495586)
(-1.67578 -1.49839 0.379968)
(-1.72879 -1.58083 0.259347)
(-1.73081 -1.65703 0.188285)
(-1.74446 -1.87936 0.0888888)
(-1.7796 -1.90647 0.0452773)
(-1.85455 -2.68303 0.00252805)
(-2.87449 -0.447033 -0.616694)
(-2.26921 -0.71344 -0.18901)
(-1.94824 -0.745229 -0.171302)
(-1.47533 -0.571244 -0.0979654)
(-1.35381 -0.222934 -0.140172)
(-0.162342 0.297007 -0.389674)
(1.00966 0.510122 -0.458989)
(1.25433 0.768733 -0.506273)
(1.41491 0.955182 -0.61307)
(1.38627 0.905655 -0.5579)
(1.30941 0.674951 -0.348232)
(1.1993 0.233588 -0.232852)
(0.525721 -0.855021 -0.000780193)
(0.361846 -0.521492 -0.00998534)
(0.167963 -0.335813 -0.0159953)
(0.157042 -0.401847 -0.0580905)
(0.172231 -0.324291 -0.00899508)
(0.337909 -0.208756 0.0143548)
(0.0145988 0.19118 -0.0698336)
(0.0623957 0.277578 -0.184014)
(0.321677 0.158875 -0.220841)
(0.245836 -0.0103468 -0.323673)
(0.43258 -0.226696 -0.0679937)
(0.490491 -0.371427 0.0765629)
(0.503102 -0.406971 0.14702)
(0.470672 -0.428836 0.165243)
(0.432427 -0.437105 0.162775)
(0.3834 -0.429324 0.130483)
(0.428077 -0.494174 0.108433)
(0.455671 -0.579518 0.0854033)
(0.477941 -0.658694 0.0773219)
(0.503564 -0.713983 0.0629408)
(0.518783 -0.747473 0.0542409)
(0.500898 -0.755262 0.0554496)
(0.452831 -0.761019 0.0703485)
(0.377952 -0.74673 0.0949977)
(0.283854 -0.735821 0.104488)
(0.202167 -0.713686 0.123359)
(0.158829 -0.682934 0.0892291)
(0.17447 -0.658843 0.0714133)
(0.165543 -0.600471 0.0684987)
(0.123442 -0.506433 0.0760351)
(0.0651253 -0.43133 0.0962564)
(0.0438369 -0.250347 0.160684)
(0.217546 -0.412069 0.162207)
(0.212988 -0.274845 0.175418)
(0.19175 -0.100008 0.182025)
(0.263869 -0.128554 0.150808)
(0.318056 -0.144438 0.138023)
(0.376522 -0.150662 0.116039)
(0.342398 -0.185258 0.178084)
(0.279147 -0.192874 0.242899)
(0.32907 -0.201772 0.30455)
(0.391116 -0.202205 0.315628)
(0.456156 -0.196114 0.301842)
(0.494196 -0.185099 0.250535)
(0.507568 -0.136543 0.162252)
(0.587476 -0.0671571 0.0293155)
(0.691917 -0.0677565 0.0233008)
(0.76493 -0.0349237 -0.0100318)
(0.927176 -0.0553608 -0.010915)
(0.972098 -0.0391617 0.0096877)
(0.91538 -0.028839 0.010042)
(0.815796 -0.0401654 0.00985285)
(0.689359 -0.0602414 0.0126151)
(0.533708 -0.0900071 0.0103319)
(0.345944 -0.125993 -0.00197899)
(0.162963 -0.122015 -0.017213)
(0.0921934 -0.175569 -0.0337079)
(0.0679159 -0.255635 -0.0188192)
(0.0769163 -0.370234 -0.011507)
(0.0849186 -0.504692 -0.0132974)
(0.0809213 -0.664088 -0.0115263)
(0.112666 -0.732875 -0.00629321)
(0.237299 -1.3193 0.0167323)
(1.24219 -0.567486 -0.023122)
(1.7314 0.0613575 -0.0465033)
(2.43106 0.269588 -0.11397)
(3.08134 0.325877 -0.205493)
(3.50673 0.287234 -0.284115)
(3.64611 0.254092 -0.359304)
(3.35649 0.293006 -0.421162)
(3.0781 0.2475 -0.414156)
(2.2512 0.0103367 -0.343174)
(1.01585 -0.330435 -0.314067)
(-0.639287 -1.43733 0.244507)
(-2.16775 -2.51911 0.0300823)
(-0.91088 -3.67966 0.0037537)
(-0.5355 -1.77925 -0.0409178)
(-0.368218 -1.337 -0.0805273)
(-0.30182 -0.902778 -0.0930526)
(-0.258808 -0.619682 -0.0904928)
(-0.190701 -0.355577 -0.131034)
(-0.223383 -0.237143 -0.179876)
(-0.443216 -0.326589 -0.00298485)
(-0.564315 -0.29132 0.00648312)
(-0.899264 -0.518162 0.017073)
(-0.8868 -0.579752 0.0416327)
(-1.08561 -0.877981 0.0457959)
(-1.18926 -0.988933 0.0514983)
(-1.5224 -1.3024 0.0608845)
(-1.67581 -1.33466 0.0820052)
(-1.91458 -1.64461 0.120836)
(-2.48806 -2.24022 0.010109)
(-3.18793 -1.52546 -0.156382)
(-3.28441 -1.25377 0.0565189)
(-3.28778 -0.916293 0.037023)
(-3.1698 -0.571077 -0.0206712)
(-3.07223 -0.273042 -0.108759)
(-2.82422 -0.0825902 -0.183208)
(-2.15041 0.241237 -0.302649)
(-1.38716 0.77202 -0.578846)
(-0.69759 1.18051 -0.915323)
(-0.185819 1.24267 -0.983721)
(0.368821 0.887609 -0.602804)
(0.795643 0.233515 -0.337497)
(0.749604 -0.500241 -0.11874)
(0.29127 -0.27025 -0.0746948)
(-0.472059 0.263168 -0.267422)
(-0.621512 0.0123747 -0.248036)
(-0.498077 -0.133964 -0.11589)
(-0.97625 0.203439 -0.0950736)
(-0.828603 0.259203 -0.094811)
(-0.666742 0.295194 -0.116849)
(-0.405055 0.215912 -0.247005)
(-0.70836 0.242115 -0.174853)
(-0.425772 0.122433 -0.359731)
(0.219984 -0.249144 -0.288954)
(0.426072 -0.491528 -0.0520689)
(0.530312 -0.549813 0.0461391)
(0.529378 -0.581524 0.0774537)
(0.507509 -0.602281 0.0902189)
(0.464146 -0.610182 0.0830681)
(0.539836 -0.727976 0.0528658)
(0.573545 -0.708884 0.0484606)
(0.58359 -0.684014 0.0321701)
(0.54348 -0.656274 0.00330102)
(0.408863 -0.592334 -0.118902)
(-0.0183878 -0.25372 -0.303774)
(-0.635189 0.171711 -0.251809)
(-1.00476 0.332655 -0.14916)
(-0.868128 0.337419 -0.166244)
(-1.10109 0.412514 -0.0723403)
(-1.0087 0.376989 -0.0980724)
(-1.12754 0.412875 -0.0716685)
(-1.29379 0.456368 -0.0777584)
(-1.39017 0.541778 -0.0727456)
(-1.25277 0.397832 -0.0903162)
(-1.22674 0.532455 -0.144187)
(-1.30933 0.749329 -0.196595)
(-1.47462 1.12345 -0.313235)
(-1.14297 0.976315 -0.441437)
(-0.417277 0.86101 -0.490184)
(-0.733745 1.17366 -0.814184)
(-1.34656 1.37337 -1.17595)
(-2.0878 1.342 -1.29703)
(-2.99454 1.06643 -1.11726)
(-3.77438 0.692115 -0.928418)
(-4.24853 0.23065 -0.61801)
(-4.36679 -0.110693 -0.335496)
(-4.30841 -0.408688 -0.114758)
(-4.12627 -0.730415 0.0280173)
(-3.85713 -0.986732 0.0783612)
(-3.34407 -1.16434 0.0879347)
(-2.77996 -1.38193 0.0671406)
(-3.36957 -1.1865 0.067527)
(-3.92432 -0.885838 0.0680445)
(-4.29767 -0.55556 0.00128571)
(-4.60103 -0.17301 -0.143329)
(-4.71734 0.240149 -0.3636)
(-4.57389 0.670961 -0.610422)
(-4.16121 1.11181 -0.845278)
(-3.5004 1.43054 -1.03153)
(-2.73933 1.52823 -1.09566)
(-2.05907 1.49341 -0.97707)
(-1.49829 1.28604 -0.704452)
(-1.81602 1.41439 -0.485368)
(-2.28551 1.63168 -0.663553)
(-2.8597 1.75095 -0.847097)
(-3.48256 1.70792 -0.799132)
(-4.03475 1.49922 -0.686271)
(-4.40911 1.12175 -0.51266)
(-4.58185 0.673697 -0.295697)
(-4.47633 0.18212 -0.0639473)
(-4.17749 -0.260932 0.124634)
(-3.79785 -0.616577 0.101747)
(-3.32404 -0.884594 0.0934078)
(-2.849 -0.994794 0.09319)
(-3.20095 -0.827896 0.0856905)
(-3.55464 -0.528005 0.0855791)
(-3.84012 -0.222757 0.071125)
(-3.962 0.17148 -0.025661)
(-4.07245 0.615098 -0.195981)
(-3.91532 1.02161 -0.357436)
(-3.7601 1.39999 -0.49732)
(-3.35445 1.53181 -0.533238)
(-2.94178 1.62421 -0.577394)
(-2.50875 1.4975 -0.462824)
(-2.0629 1.36522 -0.346937)
(-1.79635 1.17305 -0.226815)
(-1.98726 1.08346 -0.241304)
(-1.63405 0.875269 -0.149488)
(-1.48564 0.698717 -0.118492)
(-1.62973 0.735329 -0.138166)
(-1.50668 0.619056 -0.0965102)
(-1.57815 0.615111 -0.0994636)
(-1.44587 0.496713 -0.072977)
(-1.23489 0.450719 -0.0486204)
(-1.34584 0.404019 -0.0389016)
(-1.2044 0.391818 -0.0598163)
(-1.13563 0.430046 -0.0789522)
(-0.967288 0.398539 -0.127416)
(-0.984562 0.420304 -0.0503002)
(-1.15967 0.445462 -0.0792846)
(-1.27345 0.449058 -0.0620504)
(-1.4879 0.426741 -0.105801)
(-1.55479 0.394712 -0.0765066)
(-1.74821 0.380496 -0.0552151)
(-1.67567 0.521344 -0.0596855)
(-1.76513 0.587588 -0.100362)
(-1.70892 0.708511 -0.142761)
(-1.89587 0.76555 -0.175315)
(-1.81828 0.849008 -0.180583)
(-2.13512 0.964715 -0.25476)
(-2.59348 0.973389 -0.314028)
(-2.65279 1.20119 -0.361062)
(-3.31886 1.04109 -0.308935)
(-3.68878 0.603314 -0.188044)
(-3.63652 0.0321983 -0.0224122)
(-3.23492 -0.442138 0.0842755)
(-2.72942 -0.707478 0.112294)
(-2.31677 -0.748717 0.0873974)
(-2.24489 -0.905258 0.0911886)
(-2.07507 -1.10664 0.0801022)
(-1.61724 -1.07737 0.0668921)
(-1.2247 -0.829966 0.0614248)
(-0.955573 -0.472348 0.0645803)
(-1.20259 -0.363964 0.0668042)
(-1.31722 -0.284635 0.0677059)
(-1.41049 -0.185872 0.0722969)
(-1.47574 -0.216839 0.0759248)
(-1.52858 -0.516324 0.0615044)
(-1.53139 -0.716624 0.0616425)
(-1.39534 -0.629894 0.0588074)
(-1.21086 -0.649431 0.14295)
(-1.02018 -0.369504 0.135539)
(-0.961943 -0.138046 0.141455)
(-0.938739 -0.141077 0.216563)
(-0.88815 -0.124363 0.271784)
(-0.855721 -0.116273 0.294972)
(-0.831675 -0.105123 0.31073)
(-0.812291 -0.100269 0.305641)
(-0.78131 -0.0955813 0.300711)
(-0.762663 -0.0909375 0.285408)
(-0.743889 -0.0899979 0.269131)
(-0.718243 -0.0979579 0.256115)
(-0.697374 -0.133659 0.247676)
(-0.617804 -0.201382 0.243376)
(-0.733274 -0.198522 0.225906)
(-0.807354 -0.175243 0.236218)
(-0.925092 -0.136217 0.173439)
(-0.99061 -0.130914 0.0981225)
(-1.23454 -0.0507175 0.081943)
(-1.38366 0.0148402 0.0593427)
(-1.44814 0.0484517 0.0495604)
(-1.46808 0.0755193 0.0529559)
(-1.45421 0.106973 0.0691579)
(-1.39867 0.144234 0.108968)
(-1.30021 0.180263 0.165173)
(-1.15486 0.21395 0.222354)
(-0.988591 0.233166 0.188488)
(-1.01602 0.215856 0.0681115)
(-0.839026 0.206088 0.0619056)
(-0.714 0.231989 0.0727366)
(-0.460872 0.296198 0.084115)
(-0.0869709 0.265182 0.0177642)
(0.123268 -0.308577 -0.0416698)
(0.0262899 -0.112089 0.138885)
(0.0503488 -0.171114 0.315076)
(0.0877177 -0.243409 0.391354)
(-0.00776486 -0.155219 0.481041)
(-0.238359 0.147181 0.655888)
(-0.318974 0.225713 0.81996)
(-0.326392 0.249894 0.831947)
(-0.318716 0.215517 0.836193)
(-0.306954 0.175644 0.764899)
(-0.318842 0.160538 0.67771)
(-0.268728 0.0556917 0.523649)
(-0.450028 0.0542596 0.490186)
(-0.48534 0.0907172 0.667798)
(-0.498896 0.122894 0.770511)
(-0.52726 0.152592 0.842368)
(-0.555463 0.178085 0.853202)
(-0.675792 0.195371 0.830761)
(-0.601766 0.228037 0.722486)
(-0.574917 0.271793 0.568475)
(-0.525653 0.263877 0.473957)
(-0.519235 0.295779 0.352954)
(-0.506198 0.312243 0.209086)
(-0.163084 0.26249 0.177872)
(-0.179749 0.239641 0.339413)
(-0.189783 0.21806 0.448714)
(-0.264381 0.218258 0.537186)
(-0.258051 0.441065 0.526937)
(-0.220507 0.435165 0.484987)
(-0.197728 0.559261 0.477986)
(-0.320221 0.636384 0.502429)
(-0.33181 0.516792 0.492617)
(-0.370317 0.497322 0.52191)
(-0.402473 0.663222 0.548632)
(-0.228695 0.5608 0.541047)
(-0.229616 0.563882 0.633435)
(-0.36015 0.254113 0.79783)
(-0.366736 0.410024 0.817025)
(-0.43981 0.554587 0.835011)
(-0.201913 0.700561 0.794792)
(-0.246436 0.634793 0.823781)
(-0.308238 0.483557 0.679439)
(-0.344279 0.585381 0.652607)
(-0.4003 0.572703 0.667099)
(-0.479393 0.597289 0.740107)
(-0.346283 0.645502 0.698636)
(-0.371259 0.562473 0.7784)
(-0.390882 0.475931 0.69594)
(-0.489387 0.367393 0.689665)
(-0.496346 0.472865 0.608733)
(-0.477762 0.421136 0.672741)
(-0.299401 0.618526 0.633131)
(-0.445492 0.620447 0.605643)
(-0.484622 0.649237 0.597168)
(-0.436998 0.618738 0.609027)
(-0.414688 0.541484 0.610418)
(-0.364915 0.49691 0.618556)
(-0.365991 0.575146 0.605266)
(-0.27201 0.580934 0.593404)
(-0.357654 0.644861 0.573833)
(-0.368509 0.532678 0.569009)
(-0.29431 0.482068 0.585253)
(-0.478767 0.674201 0.555069)
(-0.258477 0.840995 0.505095)
(-0.263894 0.658798 0.449106)
(-0.246172 0.623634 0.627354)
(-0.136918 0.754441 0.82461)
(0.0342652 1.11647 0.68947)
(0.110013 1.24484 0.684345)
(0.170915 1.2344 0.732124)
(0.219511 1.17263 0.769166)
(0.271556 1.05898 0.776188)
(0.316198 0.918078 0.749423)
(0.396623 0.669242 0.661608)
(0.413512 0.42661 0.450336)
(0.487338 -0.199996 0.271839)
(0.453856 -0.694132 0.46075)
(0.349494 -1.02805 0.525389)
(0.283194 -1.20492 0.565062)
(0.222543 -1.29696 0.572538)
(0.171049 -1.31513 0.552511)
(0.120415 -1.27235 0.520252)
(0.0672442 -1.1659 0.489752)
(0.00775065 -1.00138 0.476156)
(-0.0351607 -0.868213 0.583842)
(-0.0846425 -0.713473 0.587408)
(-0.154388 -0.521684 0.425412)
(-0.129841 -0.605279 0.471751)
(-0.109079 -0.669584 0.53756)
(-0.091755 -0.67685 0.615827)
(-0.0757812 -0.629912 0.693253)
(-0.0591302 -0.534164 0.764846)
(-0.0255718 -0.371637 0.821762)
(0.0565384 -0.108533 0.818676)
(0.0398474 0.214702 0.686465)
(-0.0671526 0.235836 0.722249)
(-0.09772 0.293661 0.824194)
(-0.110565 0.364583 0.844341)
(-0.107537 0.446451 0.819135)
(-0.104426 0.523435 0.765859)
(-0.109253 0.584624 0.69277)
(-0.130803 0.577873 0.582537)
(-0.148156 0.519731 0.466083)
(-0.109757 0.470416 0.405412)
(-0.110024 0.4092 0.312666)
(-0.124424 0.353531 0.246997)
(-0.122104 0.330547 0.240232)
(-0.121535 0.252119 0.228449)
(-0.149569 0.2121 0.240859)
(-0.107974 0.0242089 0.24415)
(-0.26075 0.0357927 0.324485)
(-0.188128 0.0684353 0.425942)
(-0.100945 0.12888 0.338019)
(-0.132169 0.339516 0.399843)
(-0.10456 0.385171 0.39758)
(-0.0967663 0.431885 0.400253)
(-0.0800151 0.575674 0.570442)
(-0.0787999 0.605734 0.618012)
(-0.095142 0.625181 0.645897)
(-0.0378375 0.795445 0.774716)
(-0.0199822 0.82918 0.823742)
(0.0105734 0.79767 0.910613)
(0.0296856 0.732592 0.997536)
(0.039268 0.634003 1.06017)
(0.0447231 0.534212 1.09535)
(0.0656901 0.446207 1.08285)
(0.117604 0.38038 0.949408)
(0.279308 0.249547 0.786807)
(0.287723 -0.243985 0.90216)
(0.166663 -0.56508 0.971553)
(0.0929299 -0.754627 0.953915)
(0.0521882 -0.859787 0.884466)
(0.0194155 -0.907307 0.798464)
(-0.0106981 -0.894544 0.710776)
(-0.0442233 -0.821328 0.635682)
(0.0194136 -1.00859 0.617487)
(0.0635996 -1.09928 0.672863)
(0.104167 -1.1263 0.731121)
(0.153599 -1.09877 0.780802)
(0.218335 -0.998603 0.801364)
(0.298737 -0.8024 0.766637)
(0.399675 -0.50533 0.681767)
(0.475037 0.0556463 0.426128)
(0.290228 0.462834 0.634735)
(0.218533 0.59066 0.921052)
(0.190222 0.714773 0.98086)
(0.168932 0.837293 0.980661)
(0.135211 0.949674 0.947366)
(0.0985677 1.01907 0.887287)
(0.0558337 1.04298 0.821091)
(-0.00252536 0.970651 0.770474)
(-0.000582248 0.883205 0.765107)
(-0.0137403 0.797065 0.76917)
(-0.0202701 0.773232 0.720503)
(-0.0424213 0.745791 0.70498)
(-0.0516973 0.696706 0.672515)
(-0.0709267 0.608456 0.670936)
(-0.0905827 0.511721 0.554524)
(-0.114327 0.478177 0.550083)
(-0.113356 0.254187 0.443653)
(-0.222357 0.272731 0.533315)
(-0.26708 0.300769 0.659821)
(-0.266203 0.373759 0.581351)
(-0.120362 0.498059 0.6984)
(-0.0830842 0.658925 0.785253)
(-0.077499 0.765726 0.792888)
(-0.0231429 0.89413 0.775102)
(-0.041619 0.772449 0.737412)
(-0.0717534 0.686014 0.749124)
(-0.0950468 0.647762 0.716)
(-0.0917048 0.593538 0.667251)