/*--------------------------------*- C++ -*----------------------------------*\
| =========                 |                                                 |
| \\      /  F ield         | OpenFOAM: The Open Source CFD Toolbox           |
|  \\    /   O peration     | Version:  v2012                                 |
|   \\  /    A nd           | Website:  www.openfoam.com                      |
|    \\/     M anipulation  |                                                 |
\*---------------------------------------------------------------------------*/
FoamFile
{
    version     2.0;
    format      ascii;
    class       volScalarField;
    location    "785";
    object      epsilon;
}
// * * * * * * * * * * * * * * * * * * * * * * * * * * * * * * * * * * * * * //

dimensions      [0 2 -3 0 0 0 0];


internalField   nonuniform List<scalar> 
18258
(
0.0241442
0.012299
0.00918472
0.00723478
0.0126899
0.0125874
0.0130424
0.0173861
0.0242063
0.0370455
0.0536067
0.0481665
0.0435342
0.0452681
0.0474333
0.045011
0.0350749
0.0303471
0.040069
0.0667224
0.0607549
0.049686
0.0607085
0.0514517
0.0659693
0.0835074
0.0640681
0.0575323
0.0516206
0.0485813
0.0421099
0.0243583
0.0343345
0.052823
0.0723751
0.0792103
0.084984
0.0898732
0.0949997
0.0971382
0.0974091
0.0922007
0.0830046
0.0677699
0.0496474
0.0379364
0.0290416
0.0321061
0.0449816
0.0452891
0.0558167
0.0856083
0.107936
0.0809553
0.0518437
0.0826084
0.112574
0.144331
0.170852
0.193303
0.201013
0.197577
0.186032
0.169285
0.147822
0.12282
0.101815
0.0848834
0.0670904
0.0572904
0.0463372
0.0384238
0.0328564
0.0291962
0.0269951
0.0252718
0.0241088
0.0250374
0.0249231
0.017775
0.0139823
0.013135
0.00939703
0.00781071
0.00812786
0.00773309
0.00803216
0.00709132
0.00607392
0.00527331
0.00447097
0.00651128
0.00700639
0.00724741
0.00726606
0.00778773
0.00803415
0.00776525
0.00785774
0.00718475
0.00749116
0.0119749
0.0137241
0.0174094
0.0155808
0.0108401
0.00903803
0.0100833
0.010701
0.0133201
0.01256
0.0133384
0.0118308
0.0108047
0.0091214
0.0088548
0.00908704
0.00965871
0.0100603
0.0116691
0.0115018
0.0106707
0.0118009
0.0130181
0.0127431
0.012194
0.0116065
0.0142431
0.0114436
0.0121261
0.0136203
0.0219454
0.0214735
0.0259638
0.0254862
0.0259239
0.0261053
0.0314789
0.0315999
0.0319747
0.0322938
0.0340289
0.0569909
0.0507729
0.0496662
0.0494725
0.0428097
0.0423481
0.0416626
0.0424779
0.0359975
0.0346496
0.0314229
0.0310642
0.0346669
0.0437932
0.0612767
0.088538
0.122495
0.158853
0.189145
0.21015
0.231919
0.237301
0.251204
0.255939
0.256892
0.251278
0.242888
0.23346
0.22064
0.202085
0.189189
0.148699
0.105263
0.059216
0.0785885
0.0906593
0.100418
0.102316
0.103467
0.0993679
0.0930771
0.0818587
0.0662283
0.0429767
0.0490495
0.0663409
0.068561
0.0692377
0.0548907
0.0527805
0.0489586
0.0488959
0.0641485
0.0737314
0.0620317
0.0858603
0.100821
0.0881128
0.0638271
0.097811
0.144085
0.0810743
0.0690508
0.0536109
0.0526378
0.0445218
0.037336
0.0628098
0.0939386
0.129296
0.150526
0.17227
0.189832
0.203072
0.217118
0.188766
0.171484
0.11545
0.202225
0.153748
0.077967
0.0579115
0.0568833
0.0431797
0.0496933
0.0552297
0.0512483
0.0392394
0.0274655
0.0252448
0.0466691
0.0650877
0.0787383
0.0626611
0.0797417
0.090006
0.0972743
0.102669
0.13002
0.0957146
0.106653
0.0766969
0.103969
0.073959
0.047753
0.0528995
0.101099
0.161068
0.220645
0.257584
0.146822
0.0746043
0.0555812
0.0559506
0.0537008
0.0484285
0.0600562
0.106574
0.0720185
0.0468039
0.040676
0.0481021
0.0408463
0.0304201
0.0318488
0.0395735
0.055186
0.0698537
0.0826375
0.125847
0.121654
0.146834
0.154416
0.130035
0.12557
0.081091
0.0833849
0.123064
0.0916831
0.0741159
0.104025
0.147152
0.201469
0.247879
0.288311
0.314094
0.303493
0.27452
0.17365
0.076017
0.0228787
0.0177869
0.0168342
0.0173084
0.0105177
0.00629549
0.00584819
0.00666255
0.00700994
0.00591102
0.00544127
0.00543229
0.00577761
0.0101765
0.0087454
0.0108199
0.0131083
0.0156539
0.0186947
0.0194208
0.0128855
0.00872172
0.00818454
0.00811992
0.0080505
0.00802037
0.00803104
0.00807033
0.00808525
0.0080523
0.00797349
0.00783683
0.00770211
0.00764576
0.00828227
0.0111719
0.0153328
0.0148272
0.013539
0.0121852
0.0110259
0.00869917
0.0151337
0.0128322
0.0109252
0.0133812
0.0164838
0.0208324
0.024477
0.0176554
0.014135
0.0127934
0.0126682
0.0125546
0.0126005
0.012479
0.0125448
0.0123474
0.0129451
0.01357
0.0169692
0.0189957
0.0211749
0.0226732
0.0232547
0.02397
0.0211326
0.0229617
0.0227223
0.0235025
0.0233161
0.0226252
0.0207056
0.0189143
0.0176929
0.019106
0.0236677
0.032311
0.0267085
0.0207264
0.0167688
0.013713
0.0149821
0.0166583
0.0168334
0.0158462
0.0156183
0.01541
0.0138879
0.0130974
0.0110961
0.0104852
0.0100237
0.0101735
0.0143567
0.0135048
0.0137053
0.0144369
0.0155251
0.0146834
0.0151178
0.0142781
0.0145243
0.0149432
0.0170113
0.018568
0.0178101
0.0164965
0.0159978
0.0137275
0.0158333
0.0156945
0.0170155
0.0185998
0.0190894
0.0190241
0.018387
0.0167885
0.0186804
0.0220477
0.025698
0.0246989
0.0243801
0.0204396
0.0192412
0.0202141
0.0214873
0.0223954
0.0224689
0.0222977
0.0223829
0.0263842
0.0260306
0.024832
0.0227554
0.0203002
0.0176484
0.0152
0.016677
0.0181585
0.0195491
0.0208167
0.0205811
0.0190549
0.0176962
0.0164648
0.0149697
0.0146803
0.0161353
0.0173581
0.0187893
0.0205028
0.0205773
0.0188652
0.0173702
0.0160873
0.0146121
0.0145622
0.0160637
0.0173625
0.0187793
0.020262
0.0196286
0.0184755
0.0172253
0.0159826
0.0145292
0.0145953
0.0159179
0.0169869
0.0180698
0.0190184
0.0198703
0.0179107
0.0170008
0.0170925
0.0161036
0.0192846
0.0185284
0.0194717
0.0180203
0.0167968
0.0178025
0.0209922
0.0240241
0.0245738
0.0242937
0.0201614
0.0206174
0.0205954
0.0191787
0.0159567
0.0153588
0.0181282
0.0208644
0.0213256
0.0200182
0.0169179
0.0132801
0.0142996
0.0174594
0.0197702
0.0185154
0.0183543
0.0169403
0.015862
0.0161607
0.0138801
0.0166189
0.0266867
0.024154
0.0221328
0.0196567
0.0156501
0.0105942
0.0114935
0.0126496
0.0130668
0.0105652
0.00791004
0.00710135
0.00690665
0.00674697
0.00652686
0.00615698
0.00559808
0.00536597
0.0106269
0.025917
0.0364904
0.0358375
0.0241229
0.0208217
0.0202094
0.018978
0.00943063
0.00820735
0.00844785
0.0103853
0.00815874
0.00863397
0.0149633
0.0102207
0.0139752
0.0108094
0.0146517
0.0229893
0.0218019
0.0144758
0.00801637
0.00687532
0.00736476
0.00765179
0.00785672
0.00805462
0.00828958
0.00867728
0.0100004
0.0157263
0.0202953
0.0177532
0.0167603
0.0152887
0.0188305
0.0213152
0.0232539
0.0260129
0.0160836
0.0117729
0.0166195
0.0272411
0.0247308
0.0232739
0.0171446
0.0176829
0.0171104
0.0110001
0.010654
0.0105741
0.0113871
0.0127717
0.014696
0.0158614
0.0166122
0.0169419
0.0178526
0.0231269
0.0216449
0.0211364
0.017363
0.0133986
0.0153807
0.0515286
0.0195574
0.0206743
0.0188962
0.0191644
0.0204468
0.015154
0.0135154
0.0129413
0.0146482
0.0215269
0.0215277
0.021384
0.0182409
0.0174546
0.0208862
0.0219817
0.0223901
0.0217657
0.0213157
0.0194486
0.0166679
0.0180967
0.0196129
0.0208079
0.0228183
0.0231655
0.0179446
0.0172188
0.015825
0.0105334
0.0112785
0.00971463
0.00968374
0.00964786
0.0093744
0.00892419
0.00921241
0.00933076
0.00932909
0.00898254
0.00928039
0.00832676
0.00866405
0.00975482
0.0151976
0.0147658
0.0175606
0.0194697
0.0167187
0.0155613
0.014201
0.0131798
0.0154291
0.0142671
0.0168422
0.021189
0.0264724
0.0191093
0.0181134
0.0178877
0.0174813
0.0173215
0.0173723
0.01668
0.0156802
0.0151147
0.0235583
0.0212625
0.0181434
0.017196
0.0157651
0.0180145
0.0174588
0.0213524
0.0268287
0.0270303
0.021518
0.0215939
0.0189422
0.020045
0.0222302
0.0270617
0.026988
0.0144179
0.00958187
0.0154199
0.0157611
0.0183695
0.0169883
0.0185142
0.0196922
0.0204215
0.0202826
0.0176843
0.0188609
0.0196496
0.020637
0.0185845
0.016579
0.0173676
0.0161448
0.0152449
0.014744
0.0126711
0.0129172
0.0138881
0.0153391
0.0162802
0.017773
0.0194268
0.0194571
0.0201253
0.0197195
0.0191249
0.0252242
0.0239803
0.0255212
0.0282358
0.0224404
0.0178048
0.0146816
0.0149928
0.0147576
0.0146644
0.0154055
0.0167635
0.01514
0.0145225
0.0170348
0.019395
0.0246652
0.0330295
0.0287616
0.0261939
0.0332107
0.0313776
0.0382248
0.0286607
0.0281358
0.0208419
0.0262813
0.0305027
0.039197
0.0255044
0.0209465
0.0224074
0.025532
0.0347784
0.0327848
0.0331469
0.0411887
0.03996
0.0362012
0.031177
0.0353522
0.0212407
0.030192
0.0322236
0.0268169
0.0257027
0.0307389
0.0310727
0.0330144
0.0283757
0.0267718
0.0179094
0.0274418
0.0313791
0.0330815
0.0278227
0.0205291
0.0280155
0.0205441
0.0191804
0.0202918
0.0137639
0.0127111
0.0147857
0.0138575
0.0111849
0.0121354
0.0111571
0.0111453
0.0112277
0.0113442
0.0114782
0.0117358
0.0117028
0.0127184
0.0133288
0.0126173
0.0115429
0.0122004
0.0125674
0.0160778
0.018165
0.0204309
0.0220246
0.0228704
0.02402
0.022732
0.024811
0.0236754
0.0251932
0.0248866
0.0237864
0.0212263
0.0185642
0.0161565
0.0166801
0.0203267
0.0267759
0.0219688
0.017042
0.0138142
0.0114749
0.0127694
0.0159714
0.00861852
0.00781098
0.00747662
0.00725882
0.00705166
0.00612704
0.00556035
0.00871219
0.0131537
0.0166041
0.0208832
0.0266309
0.0324525
0.0374507
0.041324
0.0442232
0.0461223
0.0466844
0.0440319
0.0340261
0.0292929
0.0251704
0.0208109
0.0168882
0.0169263
0.0246629
0.0322797
0.03974
0.0462886
0.0511687
0.0492331
0.0329352
0.0300678
0.046691
0.0784467
0.0745272
0.0977115
0.11116
0.0629228
0.0463658
0.0451678
0.0620146
0.0646395
0.0567178
0.0468575
0.0367051
0.0265615
0.0311399
0.0356252
0.0398975
0.0444373
0.0576194
0.0603095
0.0589307
0.0560249
0.0523947
0.0478252
0.0413717
0.0334401
0.0253997
0.0191863
0.0143924
0.00929504
0.00697737
0.00804617
0.00735664
0.010383
0.00924925
0.00833672
0.0079129
0.00808656
0.00787416
0.00797834
0.00700175
0.00631308
0.0102674
0.00943087
0.00931163
0.00983281
0.0131611
0.010085
0.00745876
0.00697815
0.00689152
0.00815768
0.019596
0.025805
0.0306456
0.0350337
0.0377528
0.0365136
0.0333899
0.0281264
0.0225571
0.0203445
0.0172972
0.0146724
0.0133634
0.0145944
0.0120476
0.00607722
0.00520176
0.00571848
0.00558387
0.00511439
0.0061519
0.00684448
0.00745757
0.00787813
0.00818417
0.00823802
0.00816947
0.00807275
0.00802271
0.00799731
0.00796411
0.00789525
0.00779672
0.00765257
0.0075151
0.00745064
0.008042
0.0106536
0.0145772
0.0143542
0.0132432
0.0121367
0.0112788
0.00956235
0.0153975
0.0130721
0.0109579
0.0101315
0.00998198
0.010273
0.0112232
0.0128495
0.0137614
0.0157466
0.0157921
0.0156968
0.0159882
0.0157712
0.0131919
0.014931
0.0176231
0.018442
0.0190449
0.0188103
0.0172786
0.0192815
0.0204203
0.0198747
0.0192695
0.0164249
0.0190996
0.0230685
0.0235094
0.023783
0.0211376
0.0183221
0.0214566
0.0226094
0.022201
0.023072
0.0212363
0.0219716
0.0278094
0.0141534
0.0127584
0.00766054
0.00869709
0.00890412
0.00855402
0.00820775
0.00849112
0.00867905
0.0084457
0.00915029
0.00948619
0.00885404
0.0114899
0.0105173
0.0100399
0.00943994
0.0100288
0.0107445
0.0110898
0.012253
0.0196176
0.0200707
0.0182229
0.0206679
0.0213104
0.0179824
0.0203883
0.0212808
0.0215256
0.0218701
0.0233852
0.0219862
0.0243317
0.0235373
0.0221916
0.0214268
0.0380451
0.0251189
0.0165327
0.0151716
0.0147666
0.0148089
0.0166588
0.0124893
0.0140032
0.00984044
0.00851966
0.0081375
0.00784065
0.00867435
0.0119814
0.019438
0.0255516
0.0276301
0.0264856
0.0234192
0.0182953
0.0140251
0.013578
0.0122051
0.0113014
0.0110939
0.00747908
0.00518298
0.00649074
0.00659566
0.00717709
0.00758484
0.00791426
0.00815913
0.00828843
0.00834792
0.00841488
0.00852039
0.00863721
0.0087379
0.00881651
0.0088726
0.008933
0.00905029
0.0093527
0.0105454
0.0151945
0.0196003
0.0185155
0.0170593
0.0157528
0.0165108
0.0172662
0.0180169
0.0222005
0.0190741
0.0219675
0.0205994
0.0196073
0.0182063
0.0189317
0.0207146
0.0164716
0.0163882
0.0111527
0.00973161
0.00935669
0.00914478
0.00898034
0.00882054
0.00867429
0.00854387
0.0084212
0.00831581
0.00823527
0.00816325
0.00802971
0.00779201
0.00740659
0.00697847
0.00621305
0.00688449
0.0073625
0.00829328
0.00952852
0.0102184
0.00965999
0.00880929
0.0083524
0.00840053
0.00856229
0.00875162
0.0089704
0.00927228
0.00974129
0.010709
0.0113909
0.0160395
0.016764
0.02009
0.0199096
0.0178236
0.017176
0.0187965
0.0173462
0.0126548
0.0173459
0.0168452
0.0210513
0.015594
0.0146909
0.0150697
0.0155378
0.0182353
0.0171386
0.0156768
0.0156587
0.0126039
0.0141558
0.0161553
0.0176571
0.0278737
0.0272959
0.0343935
0.0343428
0.0593362
0.0564241
0.0497126
0.0538385
0.023709
0.0463835
0.0542687
0.0494364
0.0428778
0.0272871
0.0436613
0.0665557
0.09636
0.0694109
0.0567384
0.10557
0.0766615
0.0373272
0.026556
0.0149951
0.0150924
0.0250414
0.0290872
0.0240926
0.0232321
0.0334182
0.0347867
0.0279917
0.0286856
0.0310665
0.0300062
0.0324547
0.028071
0.0274015
0.0155029
0.0127172
0.0137368
0.0154529
0.0164511
0.0159386
0.0167771
0.0174503
0.0160259
0.0150116
0.0144649
0.0124133
0.0131631
0.0161335
0.020333
0.0238262
0.0172006
0.013817
0.0125211
0.0123286
0.0121046
0.0119884
0.0116715
0.0114885
0.0110235
0.0112338
0.00977447
0.00978015
0.0103112
0.0104713
0.0106724
0.0108277
0.0109493
0.011062
0.0119324
0.0186831
0.025858
0.020694
0.0164063
0.0139401
0.0151219
0.0170313
0.0209106
0.0263049
0.0177605
0.0175787
0.011455
0.010672
0.0104618
0.0102906
0.0101398
0.0100446
0.0101079
0.0101177
0.0118575
0.011536
0.0135506
0.0146321
0.0120879
0.0116555
0.0111825
0.0108943
0.0107349
0.0106485
0.010736
0.0115946
0.0114265
0.0105005
0.0104089
0.0105319
0.010749
0.0110766
0.0115296
0.0120415
0.0129641
0.0127353
0.011182
0.0111669
0.0105025
0.0101888
0.0099565
0.00993257
0.00998419
0.0101264
0.0103517
0.0112627
0.0170373
0.0172193
0.0265123
0.0264992
0.0210712
0.0176187
0.0154775
0.0142326
0.0135057
0.0350375
0.0307791
0.0487611
0.0388779
0.0311195
0.0505031
0.0718597
0.0558148
0.0909319
0.0982541
0.0724078
0.065619
0.0208479
0.0158874
0.015395
0.0168746
0.0185545
0.0211716
0.0217612
0.0265475
0.0286388
0.0170912
0.0164169
0.0154935
0.024775
0.022964
0.0196018
0.0177305
0.0163546
0.0188926
0.0206734
0.0148947
0.0149375
0.00961881
0.0106112
0.0103614
0.010017
0.00989306
0.00981478
0.00984628
0.0099449
0.0102298
0.0107322
0.0111235
0.0112924
0.0116444
0.0114323
0.0111538
0.010824
0.0106269
0.0104307
0.0102704
0.0101463
0.0101766
0.0104903
0.0106347
0.00933107
0.00967737
0.00978893
0.00980549
0.00984314
0.00981497
0.00968636
0.00948942
0.00930171
0.00910127
0.00914287
0.00989522
0.0100178
0.0100617
0.0098969
0.00977731
0.00976697
0.00971008
0.00970448
0.0097046
0.00958986
0.00927917
0.00856183
0.00841436
0.00901172
0.00935135
0.00952252
0.0095978
0.00957148
0.00950795
0.0092805
0.00911342
0.00891891
0.00859579
0.00817005
0.00682198
0.00709425
0.00744433
0.00793171
0.00843493
0.00887577
0.00916992
0.00932152
0.00940522
0.00931834
0.00902468
0.00849767
0.00844383
0.00883565
0.00901925
0.00898425
0.0087301
0.00833022
0.00777525
0.0070828
0.00641066
0.00589636
0.00565339
0.00525881
0.00655944
0.00712844
0.00765603
0.00814406
0.00861228
0.00912046
0.00933214
0.00940491
0.00938977
0.00924118
0.0089166
0.00839502
0.00840198
0.00887275
0.00917755
0.00929758
0.00928037
0.00908066
0.00866796
0.00777695
0.0069871
0.00635032
0.00578158
0.00520724
0.00511886
0.00537335
0.00514514
0.00535184
0.00593133
0.00673205
0.00750597
0.00810339
0.00852136
0.00869778
0.00864185
0.00838776
0.00829139
0.00841861
0.00836761
0.00807007
0.00751021
0.00677073
0.00597185
0.00534011
0.00515725
0.00548541
0.00582155
0.00550961
0.00437868
0.00491832
0.00545801
0.00603613
0.00693189
0.00808933
0.00868436
0.00900433
0.00916967
0.00911264
0.00883066
0.00839629
0.00837905
0.00879678
0.00906967
0.00910703
0.0089632
0.00865867
0.00815467
0.00674622
0.00532258
0.00471426
0.00437959
0.00394054
0.00558424
0.00595054
0.00552459
0.00524921
0.00568648
0.0062332
0.00686548
0.00738156
0.00780503
0.00810418
0.00820098
0.00816493
0.00803461
0.00804302
0.00799281
0.00779152
0.00754434
0.00732832
0.00688405
0.00643102
0.00590677
0.00646391
0.00676218
0.00633112
0.0046459
0.00492808
0.00533509
0.00557853
0.00697685
0.00839595
0.00882385
0.00899637
0.00915395
0.00910149
0.00879569
0.00836036
0.00834742
0.00886161
0.00924456
0.00935487
0.00941887
0.00946561
0.00952062
0.00837218
0.00656948
0.00617877
0.00524474
0.00480307
0.0066504
0.00708347
0.00687556
0.00660419
0.00753507
0.00792789
0.00808014
0.00810226
0.00811785
0.00808932
0.00799446
0.00792031
0.00780744
0.00825272
0.00889271
0.00879678
0.00869735
0.00853195
0.00816525
0.00771478
0.00721067
0.00789024
0.00846393
0.00818395
0.00594242
0.00630728
0.00713658
0.00724724
0.00867716
0.00985377
0.0102099
0.0102549
0.0101963
0.0102098
0.00922861
0.00831556
0.00817194
0.0095133
0.0154274
0.0152795
0.015331
0.0152785
0.0147144
0.0145536
0.0139956
0.0137496
0.0130584
0.0126244
0.0119401
0.0139813
0.0176988
0.0197693
0.0221413
0.0246362
0.0233736
0.0189106
0.0167032
0.0101992
0.00804402
0.00694084
0.00600135
0.00529661
0.00509147
0.00752163
0.00936622
0.0115359
0.0135138
0.0138254
0.0162592
0.0202119
0.0307778
0.0489376
0.0413628
0.0390889
0.0400163
0.100718
2.55692
2.78035
2.51569
2.91948
3.33733
0.403502
0.154915
0.286285
0.302589
0.335062
0.312379
0.283348
0.257823
0.265431
0.254446
0.265482
0.247126
0.258333
0.22571
0.231404
0.22877
0.618098
0.999705
1.21603
1.70515
1.72114
1.94193
1.90254
1.92607
1.78303
1.90084
1.65282
1.37102
1.29447
1.22129
1.31076
1.4239
1.23637
1.12094
1.00732
0.916667
0.784166
0.994994
0.755195
0.713614
0.711948
0.743383
0.989497
0.898878
1.03585
0.958116
1.01258
0.608626
0.682189
0.500338
0.417206
0.346878
0.418131
0.559321
0.736778
0.909767
0.698851
0.955282
0.886783
0.882528
0.842045
0.769663
0.731381
0.719706
0.74108
0.753782
0.769001
0.796365
0.817264
0.83512
0.985746
1.04876
1.03772
0.85058
0.762013
0.527708
0.565096
0.599914
0.603937
0.563783
0.544313
0.490598
0.477819
0.431753
0.413452
0.374351
0.355919
0.323804
0.448423
0.768789
0.798857
0.86806
0.922616
0.971747
0.994194
1.00987
0.992619
0.958917
0.891522
0.863561
0.80201
0.90787
1.09156
1.09254
1.00574
0.853709
0.809104
3.74342
4.54783
3.01516
6.48279
9.81006
16.4225
7.57202
2.07541
3.46215
2.37908
2.11246
2.0589
2.17206
3.41961
2.4997
3.27715
2.69079
2.85105
2.16608
2.47146
2.34544
1.80415
1.52052
1.2876
1.17071
0.934141
0.919763
0.742173
0.693858
0.64544
0.541899
0.670003
0.6608
1.54565
2.22692
2.78849
4.38821
4.82758
5.27928
8.35477
6.79906
8.54632
5.10078
5.14457
3.80596
3.58152
3.62002
4.97654
7.08524
4.88709
8.51401
4.75532
15.4716
34.5679
9.21227
19.0029
10.97
9.92657
9.57232
9.86579
14.0136
9.53564
15.5286
12.9497
17.1923
16.4996
17.7035
13.7646
10.1683
11.168
11.9844
15.3671
10.9287
12.6468
9.54684
9.33146
8.72993
7.23812
6.55175
5.02136
5.85419
6.91197
7.84839
12.3839
15.6028
17.97
21.6752
16.0567
18.3405
11.0548
12.1076
9.36296
8.78155
8.90877
11.7188
20.8223
14.7634
26.899
0.495946
0.225752
0.543437
0.229273
0.487266
0.390477
0.403065
0.40402
0.399572
0.461066
0.219896
0.184967
0.177265
0.17513
0.176641
0.100171
0.124351
0.0803786
0.126871
0.228957
0.502486
0.36484
0.140394
0.0825792
0.0545783
0.0429299
0.0634311
0.0612248
0.0979075
0.0992559
0.10554
0.13195
0.227301
0.431761
31.6166
7.09364
1.11774
0.52249
0.281635
0.172314
0.14606
0.164851
0.177015
0.17935
0.167986
0.142216
0.101647
0.0670674
0.0447637
0.0374573
0.0273369
0.0290461
0.0398418
0.0533446
0.0493007
0.0648965
0.0832585
0.106028
0.130303
0.149672
0.164245
0.168156
0.156131
0.122186
0.0803763
0.0443021
0.0264929
0.0228526
0.0209275
0.0194355
0.016794
0.014591
0.013167
0.0112531
0.00991958
0.00894879
0.0086346
0.00875717
0.00955728
0.0120893
0.0145491
0.0188377
0.0179574
0.0134457
0.0126114
0.00781303
0.0072245
0.00737304
0.00762466
0.00845435
0.0132319
0.0135408
0.0134193
0.0134496
0.0132669
0.01325
0.0130788
0.0129054
0.0126847
0.0122588
0.011969
0.0114496
0.0111708
0.0105192
0.010547
0.0109318
0.01124
0.0101768
0.0100768
0.00936766
0.0202216
0.0484135
0.0698835
0.0783186
0.0881261
0.0808916
0.0417463
0.0228636
0.00788786
0.00774089
0.00823278
0.00889361
0.00844176
0.00615553
0.00668338
0.00784266
0.0109575
0.0108111
0.0108387
0.0125586
0.0130568
0.0144033
0.0149325
0.0153456
0.0155746
0.01558
0.0157252
0.0155248
0.01564
0.0154957
0.0155989
0.0152143
0.0270204
0.025409
0.0260418
0.0260164
0.0270636
0.0265312
0.0259903
0.0250214
0.0242721
0.0227943
0.0212246
0.0197399
0.0177525
0.0185234
0.0179198
0.0112121
0.0106627
0.00771223
0.00770448
0.00741596
0.0103302
0.00939414
0.00789688
0.00930374
0.00677858
0.00694812
0.00728217
0.0103609
0.0108807
0.0172785
0.0172016
0.0152043
0.0161165
0.017098
0.0183566
0.0194912
0.0208704
0.0218935
0.0229699
0.0247861
0.0252267
0.0236418
0.0233704
0.0223569
0.0243133
0.0233257
0.0215556
0.023017
0.0245701
0.0269257
0.026573
0.0244935
0.0231967
0.021786
0.0195328
0.0169608
0.0156609
0.0147127
0.0147806
0.0138099
0.0161998
0.0147105
0.0101672
0.0103731
0.00778031
0.00628406
0.00606368
0.00924098
0.0131013
0.0279899
0.0174426
0.0092991
0.00999363
0.0160059
0.0328487
0.0188188
0.0304357
0.0139716
0.0136714
0.0126086
0.0124776
0.0137528
0.0160008
0.0169826
0.0205404
0.0231473
0.0250952
0.0259724
0.0272971
0.0276745
0.0290634
0.029492
0.0320851
0.0323379
0.032429
0.0319828
0.0297749
0.02678
0.0247143
0.0305024
0.0353088
0.0383834
0.0407418
0.0430911
0.0418334
0.0382819
0.037441
0.0355648
0.0344841
0.0330951
0.0300683
0.0263091
0.0215907
0.021075
0.0270002
0.032651
0.0488142
0.0524863
0.0522277
0.0545296
0.0550006
0.056707
0.0571164
0.0597132
0.0602632
0.0613861
0.061708
0.0667239
0.0675831
0.0685735
0.0688802
0.0686741
0.0696813
0.0697105
0.0473417
0.0424583
0.0386113
0.0320825
0.0269362
0.0341197
0.0424485
0.0475046
0.0725568
0.0730767
0.0767499
0.0793426
0.0842194
0.0878758
0.0927228
0.0972075
0.101614
0.105085
0.107193
0.107652
0.108188
0.107396
0.106173
0.115051
0.149495
0.166
0.196437
0.211451
0.224344
0.228771
0.219786
0.223361
0.215021
0.21746
0.21085
0.208628
0.203023
0.196416
0.192605
0.186021
0.18182
0.209676
0.157868
0.120977
0.0807752
0.065051
0.0570738
0.0522743
0.0563677
0.0433114
0.0366171
0.0559767
0.0510088
0.0402726
0.026478
0.0188114
0.0321614
0.0475728
0.0643224
0.0815224
0.0972548
0.10756
0.110157
0.109068
0.104319
0.0965111
0.0813874
0.0613282
0.0421725
0.0347785
0.0320884
0.0281264
0.022186
0.0178337
0.0157182
0.0141338
0.0123693
0.011121
0.0105662
0.0107201
0.0110297
0.0132271
0.0173081
0.0173002
0.0115974
0.0111529
0.00767308
0.00776096
0.00801852
0.0133372
0.0134841
0.020912
0.0233608
0.0220018
0.0226909
0.0224246
0.0227184
0.022361
0.0211694
0.0203334
0.0193626
0.018525
0.0177872
0.016972
0.016181
0.0175053
0.0164627
0.0138725
0.0139814
0.0145868
0.0152269
0.0161071
0.0173675
0.0184419
0.021134
0.0213041
0.0208046
0.0208981
0.0194313
0.0187139
0.0199699
0.019493
0.0132789
0.0131018
0.019127
0.0187734
0.0186641
0.0224761
0.0208983
0.021421
0.0225526
0.0224475
0.0195134
0.0181568
0.0166048
0.0154313
0.0140613
0.012556
0.0121873
0.0149492
0.0131914
0.0108143
0.0119944
0.0144034
0.0170147
0.0184718
0.0204544
0.0231672
0.0241299
0.0263701
0.0277896
0.0298832
0.0307186
0.0355219
0.0361796
0.0340255
0.0321796
0.0311794
0.0274078
0.0234894
0.0259052
0.0267769
0.0271535
0.0272693
0.0271476
0.0235733
0.0231426
0.0216283
0.0211118
0.019538
0.0189823
0.0178255
0.0170686
0.0160511
0.0142243
0.0134655
0.0126553
0.0123061
0.0173619
0.0108569
0.0106131
0.0160157
0.0098777
0.0116221
0.0113619
0.0118745
0.0125195
0.0103707
0.015173
0.0103602
0.0112441
0.0114507
0.0143314
0.00989895
0.0198601
0.0624979
0.0920954
0.110915
0.201631
0.24195
0.262333
0.283042
0.297371
0.313347
0.330953
0.348615
0.361698
0.363162
0.337592
0.319137
0.254359
0.227738
0.25148
0.281582
0.194191
0.166609
0.168889
0.169728
0.17231
0.173561
0.177205
0.175177
0.180245
0.175908
0.183183
0.177187
0.183655
0.176267
0.16096
0.144382
0.111931
0.10121
0.0652774
0.0505592
0.0395606
0.0287278
0.0209423
0.0187982
0.0177959
0.0164507
0.016535
0.0126705
0.0130989
0.00839343
0.00616411
0.00985777
0.00969951
0.00721755
0.00982879
0.0112268
0.0117386
0.0122744
0.012567
0.0192167
0.0192477
0.024646
0.0245551
0.0291253
0.0347323
0.0359807
0.0396299
0.057004
0.0575217
0.0572658
0.0570924
0.0566686
0.0494533
0.0491723
0.0480693
0.0474851
0.0445437
0.0439913
0.041912
0.0407774
0.0378278
0.0370071
0.0358769
0.0363043
0.0401669
0.0548127
0.0968989
0.0291402
0.0276386
0.0203384
0.0145086
0.0212538
0.015906
0.0154115
0.013602
0.0187025
0.013449
0.0137066
0.016516
0.0170271
0.0164061
0.0213176
0.0266161
0.0233706
0.0257376
0.115176
0.0728569
0.023876
0.0472569
0.0710948
0.156803
0.203271
0.138916
0.158709
0.182811
0.165938
0.139303
0.108561
0.0810187
0.0571792
0.04379
0.0114202
0.0133547
0.0184562
0.0402603
0.0598696
0.101232
0.083041
0.108565
0.148341
0.172728
0.208664
0.200081
0.172042
0.148081
0.145128
0.160636
0.162073
0.104336
0.101339
0.077366
0.173617
0.218888
0.184028
0.230855
0.243251
0.141927
0.0315934
0.0183772
0.015126
0.0139221
0.0124468
0.0193924
0.0114677
0.0116549
0.0123674
0.0132824
0.0169615
0.029349
0.0134533
0.0149295
0.0183429
0.0158942
0.0149157
0.0146449
0.0145546
0.0151741
0.0165338
0.0215657
0.0216516
0.0213093
0.0159871
0.0172787
0.0156956
0.0200009
0.0212069
0.0333236
0.0152559
0.0161985
0.0214953
0.478529
0.0246283
0.017821
0.0232038
0.0218775
0.030114
0.0437913
0.457089
0.04397
0.0350787
0.0585948
0.0608889
0.0655687
0.0692403
0.0727582
0.075273
0.079225
0.081868
0.0831085
0.0843552
0.100003
0.0999693
0.0988952
0.103495
0.0976045
0.0576593
0.0578663
0.0973951
0.105118
0.0594055
0.0410062
0.0384889
0.0311892
0.0323112
0.0418438
0.0439251
0.061627
0.0614544
0.102494
0.0934676
0.0948687
0.0966296
0.0916362
0.0921157
0.0941737
0.0942039
0.0754572
0.0731316
0.0713629
0.0683254
0.0647811
0.0618781
0.0589514
0.0558424
0.0531667
0.0531798
0.0577948
0.0583119
0.0658863
0.0724967
0.219022
0.148643
0.106292
0.079084
0.0646407
0.0587405
0.0584397
0.0616771
0.0649303
0.0665758
0.0673839
0.070765
0.0924965
0.0948301
0.0976856
0.0951321
0.0989403
0.096985
0.0945216
0.104419
0.112229
0.0655957
0.0676702
0.0477479
0.044536
0.0324979
0.0330535
0.0235978
0.0195724
0.0195601
0.0195395
0.0197618
0.0226406
0.0316288
0.0317338
0.0463527
0.0462652
0.0516992
0.0753015
0.0723657
0.129055
0.118296
0.108625
0.101315
0.101691
0.103828
0.106433
0.101434
0.0978209
0.0922828
0.0725014
0.0684782
0.0663384
0.0650778
0.0637274
0.0670007
0.0898876
0.145162
0.222121
0.326757
0.427164
0.438548
0.397481
0.2473
0.287791
0.142858
0.163574
0.185306
0.16056
0.169266
0.318116
0.264403
0.373901
0.479116
0.532776
0.598945
0.63554
0.623235
0.494066
0.320519
0.327801
0.4369
0.765118
0.858403
0.741982
0.760045
0.656807
0.539221
0.520927
0.496381
0.560151
0.611074
0.576689
0.593716
0.538055
0.513965
0.444127
0.495512
0.362031
0.326103
0.306556
0.297739
0.356779
0.288738
0.325235
0.267349
0.273632
0.22241
0.227943
0.190292
0.145693
0.138137
0.128072
0.143401
0.162594
0.148974
0.153485
0.134028
0.114622
0.0912648
0.0984929
0.0735681
0.0695326
0.0704693
0.0800389
0.125093
0.366664
0.172804
0.163376
0.167692
0.177892
0.319481
0.282864
0.723557
0.507045
0.708877
0.473898
0.562344
0.470547
0.362982
0.378503
0.418275
0.598512
0.821784
6.65126
0.284698
4.26229
3.16447
3.32333
3.46921
4.44703
7.80641
7.10994
9.38846
6.80483
9.07992
4.9762
4.97511
4.32582
4.47111
4.4384
4.26075
5.18663
6.61847
0.238255
0.0909363
0.0854198
0.085608
0.0873841
0.197752
0.0525589
0.201968
0.0539512
0.213403
0.0495038
0.246594
0.196852
0.0382325
0.0192573
0.020089
0.016807
0.0203747
0.0169227
0.025047
0.0235418
0.0236977
0.0265777
0.076144
0.291532
13.7576
1.64542
0.684916
0.784701
1.17576
0.79844
1.19722
1.66409
1.11815
0.557013
0.364515
0.430104
0.520065
0.496675
0.634524
0.914297
0.894642
0.703156
0.70729
0.622914
0.880422
0.889144
1.05512
1.2332
1.12936
0.883382
0.695376
0.587487
1.01499
1.02154
0.954966
0.402988
0.113129
0.0465713
0.0486663
0.0355894
0.0375233
0.0347497
0.0543501
0.158635
0.219038
0.131385
0.427049
0.412537
0.562918
0.401784
0.411948
0.324761
0.349101
0.53197
0.581238
0.640789
0.67221
0.722491
0.666104
1.28038
2.19145
2.47773
12.8151
17.39
3.18808
3.08766
13.9322
0.314687
0.0838135
0.0233064
0.0174288
0.0162164
0.0161297
0.0150007
0.0155381
0.0159995
0.0169633
0.0188282
0.0231943
0.0458278
0.201439
0.203402
0.0643331
0.0324251
0.0229688
0.0196155
0.0170461
0.0163868
0.0155315
0.0154591
0.0150079
0.0156572
0.0174626
0.0237752
0.0773934
0.270945
11.324
2.43214
2.25089
8.37549
5.78931
0.20666
0.0437811
0.0200926
0.0169263
0.0158836
0.0167536
0.0162655
0.0182107
0.0184018
0.0230152
0.02502
0.0317621
0.0570666
0.110162
0.315443
9.5789
8.65034
8.37254
7.80929
0.310072
0.115173
0.0543844
0.0382276
0.034622
0.0338163
0.0226482
0.0236724
0.0189818
0.0216399
0.0182949
0.0226813
0.0482976
0.211822
5.34726
1.56758
1.69811
1.2078
0.611215
0.653563
0.667213
0.68678
1.7697
4.04689
4.97911
3.41984
3.35508
4.69908
3.1649
2.47694
1.82504
1.74381
2.54127
1.95986
1.82237
1.35352
1.46313
1.06559
1.46492
0.809496
0.975114
1.07085
1.52863
1.39533
1.40834
0.906796
1.04845
1.47268
1.72274
1.64752
0.842335
1.22537
1.01198
0.65342
0.605199
0.631419
0.601327
0.576078
0.573241
0.577582
0.55672
0.573968
0.554367
0.586394
0.546219
0.531372
0.505727
0.52527
0.542752
0.575109
0.358952
0.421335
0.425663
0.439991
0.45256
0.373527
0.449541
0.440278
0.657108
0.992511
0.830679
1.14602
0.676566
1.001
2.00441
5.20547
2.33584
0.816671
1.34489
1.58137
1.13712
0.626615
2.55001
3.55757
1.2286
1.78271
10.383
8.43056
16.5196
10.9575
18.6077
6.02219
4.62768
17.7944
6.66257
6.89453
4.50376
4.51263
2.95294
1.5805
1.62337
1.73494
1.22258
1.29537
1.20599
1.13102
1.47016
1.43445
1.87911
2.02858
2.56961
1.80693
1.7695
2.58852
1.05987
1.39499
1.83144
1.82263
1.35501
2.33297
3.14724
2.95551
2.12919
2.32907
3.4957
4.80682
4.56149
3.15686
3.95172
10.1151
13.4994
13.6735
4.2147
19.3249
18.2948
2.06831
0.561945
0.320721
0.0884682
0.0443439
0.0366603
0.0387327
0.143575
0.0458181
0.0570123
0.0454551
0.0724804
0.0695671
0.0868927
0.216674
0.125914
0.214469
0.154454
0.187913
0.119891
0.191812
0.224898
0.23459
0.18658
0.114486
0.211155
0.304359
0.104867
0.351653
0.386693
0.257594
0.329512
0.392742
0.19442
0.990812
0.184474
0.126145
0.145327
0.390015
1.25165
0.216517
0.458593
4.46323
14.7052
3.66682
0.932423
0.67615
0.0554294
0.0301011
0.0316355
0.0278565
0.0194294
0.0834429
0.0980482
0.403074
0.20736
0.277412
0.660606
2.92842
2.39709
1.12184
5.47798
10.2722
15.1498
9.12986