/*--------------------------------*- C++ -*----------------------------------*\
| =========                 |                                                 |
| \\      /  F ield         | OpenFOAM: The Open Source CFD Toolbox           |
|  \\    /   O peration     | Version:  v2012                                 |
|   \\  /    A nd           | Website:  www.openfoam.com                      |
|    \\/     M anipulation  |                                                 |
\*---------------------------------------------------------------------------*/
FoamFile
{
    version     2.0;
    format      ascii;
    class       volScalarField;
    location    "195";
    object      alphat;
}
// * * * * * * * * * * * * * * * * * * * * * * * * * * * * * * * * * * * * * //

dimensions      [1 -1 -1 0 0 0 0];


internalField   nonuniform List<scalar> 
18258
(
0.00484764
0.00210728
0.00172573
0.00149443
0.000991015
0.00162117
0.00225199
0.00268151
0.00281393
0.00279075
0.00289015
0.00487769
0.00684579
0.00846132
0.00888851
0.00887374
0.00805471
0.00769226
0.00835067
0.0102717
0.00864246
0.00553453
0.00663344
0.00766247
0.00832955
0.00737419
0.00596202
0.00552298
0.00500052
0.00416769
0.00349308
0.00237837
0.00175414
0.00162722
0.00147388
0.00167953
0.00182864
0.00194895
0.001993
0.00202439
0.00201049
0.00199898
0.00194493
0.00191216
0.00185612
0.00153675
0.00186711
0.00189963
0.00207997
0.00287911
0.00309585
0.00260506
0.00288365
0.00257285
0.00169599
0.00194119
0.00210715
0.00215262
0.00212505
0.00203695
0.00200731
0.00198222
0.00195038
0.00191256
0.00188952
0.00190851
0.00192832
0.00190742
0.00181375
0.0017379
0.00161512
0.00149202
0.00140077
0.00133008
0.00127679
0.00121764
0.00115114
0.00101119
0.000937211
0.00124095
0.00155787
0.00166452
0.00235917
0.00287625
0.0028956
0.00216729
0.00154448
0.0016028
0.00178174
0.00179957
0.00152511
0.00181311
0.00205354
0.0021284
0.002218
0.00247905
0.00282316
0.0027527
0.00245175
0.0022597
0.00220691
0.00253163
0.00240876
0.00312455
0.00314543
0.00274038
0.00253744
0.00285454
0.00368158
0.00395885
0.00307536
0.00288892
0.00283204
0.00279576
0.00252878
0.00261768
0.00237754
0.00214235
0.00233403
0.00282089
0.00267539
0.0029218
0.00302795
0.00284109
0.00329236
0.00379674
0.00374189
0.00299443
0.00244126
0.00227563
0.00229293
0.00140233
0.00151435
0.00163187
0.00167185
0.00169991
0.00172373
0.00183808
0.00183394
0.0018069
0.0018029
0.00183367
0.00101086
0.00109532
0.00112262
0.00113049
0.00107376
0.00106268
0.00104282
0.00102669
0.000968079
0.000926288
0.0011083
0.00124443
0.0013553
0.00148487
0.00167819
0.00191479
0.00216352
0.00241492
0.00258124
0.00262864
0.00267654
0.00257935
0.00248169
0.00257013
0.00258499
0.00256825
0.00253368
0.00249007
0.00243115
0.00232314
0.00244756
0.00244054
0.00229278
0.00196535
0.00200904
0.00200545
0.00205775
0.00204753
0.00206854
0.00203962
0.00200562
0.00190929
0.00177481
0.00147756
0.00143899
0.00145743
0.00187201
0.00227303
0.0035116
0.00428456
0.00497563
0.00532524
0.00570106
0.00461129
0.0051316
0.00395453
0.00355051
0.00451308
0.00590483
0.00336869
0.00183849
0.0034866
0.00309157
0.00224131
0.00199471
0.0020551
0.0020596
0.00236749
0.00272947
0.00302831
0.00317285
0.00330066
0.00340251
0.00351487
0.00365765
0.00369688
0.00357171
0.00302389
0.00364338
0.00295838
0.00345487
0.00311959
0.00210318
0.00223519
0.00236829
0.0021664
0.00210677
0.00201832
0.00181541
0.00223303
0.00289571
0.00336098
0.00384186
0.00512198
0.00473849
0.00454403
0.00351929
0.00340288
0.00176715
0.002521
0.00261224
0.00293583
0.00195248
0.00178003
0.0016883
0.00224016
0.00259571
0.00306322
0.00339636
0.00403386
0.00312644
0.00357031
0.00322942
0.00224864
0.00216603
0.00310391
0.00334443
0.00275089
0.00246189
0.00308754
0.002921
0.00207148
0.00166147
0.00255155
0.00264315
0.00189498
0.00470323
0.00500422
0.00477658
0.00581791
0.00729512
0.00831552
0.00774287
0.00686983
0.00767015
0.00609457
0.00590339
0.00629444
0.00528596
0.00370561
0.00379933
0.00392953
0.0040366
0.00433453
0.00460521
0.00493551
0.00524917
0.00477112
0.00396176
0.00299843
0.00206317
0.00203502
0.00202474
0.00181815
0.00269454
0.00407714
0.00404965
0.00230104
0.00134121
0.00151675
0.00171251
0.00169566
0.00123052
0.000925998
0.0015951
0.00182388
0.00185333
0.0018073
0.00170637
0.00178307
0.00286341
0.0044112
0.00484688
0.00501994
0.00518371
0.00529938
0.00536373
0.00538412
0.00539545
0.00540934
0.0054215
0.00544002
0.00542302
0.00530734
0.00466798
0.00293452
0.00171522
0.0015933
0.00175844
0.00188983
0.00200451
0.00170553
0.0010428
0.00166567
0.00213284
0.00245156
0.00247253
0.0023076
0.0022386
0.00352999
0.00469354
0.00553241
0.0057023
0.00577789
0.00571436
0.00570591
0.00558103
0.00554163
0.00485868
0.00347705
0.0038018
0.004082
0.00412888
0.00422428
0.00436751
0.004266
0.00402977
0.00589073
0.00679717
0.00688407
0.00703042
0.00694715
0.00682714
0.00651683
0.0061623
0.00518761
0.00389021
0.00245449
0.00250561
0.00266727
0.00264167
0.00229954
0.00242293
0.00262954
0.00265591
0.00274287
0.00307589
0.0034937
0.00333266
0.0028678
0.00243544
0.0022678
0.0022203
0.00213035
0.00159574
0.00161949
0.00157416
0.00159999
0.00214934
0.00255821
0.00295034
0.00418496
0.00373321
0.00303592
0.00481432
0.0049328
0.00529953
0.0058547
0.0059999
0.00664778
0.00462716
0.00417024
0.00428381
0.00349914
0.00323894
0.00327349
0.00328581
0.00306249
0.00335191
0.00332243
0.00320242
0.00353569
0.00389604
0.00513761
0.00622563
0.00656907
0.00676767
0.00684895
0.00682323
0.0066901
0.00673184
0.0059121
0.00590566
0.00565638
0.00549418
0.00543687
0.00516751
0.00591582
0.00614111
0.00621588
0.0063705
0.00661175
0.00643305
0.0062335
0.00608181
0.00597206
0.00585719
0.00591966
0.00602925
0.00614619
0.00631067
0.00653068
0.00656746
0.0063394
0.00616722
0.00604959
0.00593919
0.00594374
0.00604216
0.00615707
0.00632029
0.00652893
0.00641304
0.0062509
0.00610662
0.00598839
0.00588442
0.00567856
0.00581527
0.00596577
0.00608981
0.00617026
0.00533103
0.00569848
0.00560057
0.00507076
0.00474622
0.00360428
0.00390059
0.00411308
0.00447987
0.00497254
0.00506918
0.00425366
0.00364523
0.00355208
0.0035234
0.00360636
0.00363624
0.00365389
0.00412873
0.00621992
0.00626249
0.00628012
0.00628248
0.00537262
0.00522071
0.00486406
0.00889216
0.00827837
0.0071715
0.0059118
0.00316884
0.00271628
0.0032178
0.00391317
0.00437497
0.00482841
0.00320536
0.00198524
0.00231348
0.00239861
0.00233993
0.00216297
0.00180197
0.00166338
0.00150971
0.00162473
0.00287728
0.00459225
0.00517336
0.00522888
0.00517758
0.00507741
0.00495564
0.00478611
0.00471941
0.00594329
0.0080343
0.00908621
0.0090521
0.00777687
0.00633416
0.00356647
0.00182918
0.00133344
0.00145849
0.00160076
0.00188294
0.00168134
0.00139989
0.00153435
0.00145822
0.00295775
0.00511232
0.00652485
0.0077445
0.00761541
0.00661359
0.00541586
0.00513686
0.00525704
0.00533699
0.00540546
0.0054758
0.00552388
0.00549255
0.00499863
0.00308751
0.0018431
0.00163757
0.00176083
0.00206365
0.00219277
0.00221518
0.00218449
0.0018939
0.00313256
0.00497481
0.00316367
0.00172591
0.00186467
0.00185096
0.00326524
0.00326045
0.00319043
0.00496434
0.00524952
0.00523681
0.00492002
0.00469641
0.00278009
0.00315569
0.00316647
0.0031834
0.00323576
0.00163451
0.00178169
0.00183717
0.00197778
0.00172856
0.00219587
0.000568233
0.000787663
0.000915105
0.00099526
0.00107235
0.00105197
0.00201268
0.00204246
0.00194905
0.00189757
0.00240829
0.00258444
0.00264146
0.00243283
0.00224488
0.00238964
0.0023949
0.00225695
0.00213788
0.00221665
0.00221819
0.00212571
0.00180805
0.00169424
0.00185998
0.00183997
0.00182524
0.00327771
0.0032721
0.0030968
0.00508844
0.0050064
0.00560772
0.00557109
0.00556419
0.0055412
0.00560111
0.00563252
0.00565636
0.00568416
0.00567344
0.00561844
0.00781563
0.00552745
0.00482315
0.0027891
0.00268654
0.00189724
0.00166276
0.0019579
0.00209403
0.00227019
0.00221881
0.00233913
0.00233624
0.00247907
0.00230106
0.00204327
0.00312957
0.00334343
0.00326564
0.00333035
0.00325211
0.00323307
0.00320927
0.0031636
0.00310855
0.00185083
0.00181545
0.00212586
0.00223151
0.00239774
0.00241952
0.00247198
0.00234447
0.00206196
0.00199601
0.00229868
0.00226774
0.00231176
0.00217963
0.00217068
0.00193385
0.00198279
0.00399847
0.0073801
0.0037987
0.00421942
0.0038228
0.00434773
0.00380819
0.00328436
0.00336127
0.0029606
0.00308818
0.00323925
0.00329776
0.00346584
0.0040853
0.00393306
0.00345244
0.00335234
0.00328642
0.00309884
0.00278925
0.00292171
0.00294786
0.00301102
0.00334645
0.00383839
0.00430253
0.00522732
0.0050725
0.0044443
0.00406311
0.00426063
0.00433487
0.00545625
0.00509711
0.00506729
0.00534583
0.00529352
0.00502394
0.0047607
0.00459542
0.0039459
0.00401094
0.00459045
0.00444175
0.00457725
0.00449694
0.00467488
0.00475921
0.00456792
0.00424554
0.00446336
0.00445444
0.00494635
0.00481052
0.00446265
0.00408281
0.00436416
0.00431171
0.00498016
0.00468775
0.00438451
0.00403632
0.00386671
0.00438829
0.00430791
0.00488435
0.00502609
0.00502847
0.00438417
0.00428196
0.00509189
0.00489848
0.00473254
0.00492927
0.00408289
0.00419847
0.00517157
0.00527952
0.00500944
0.0041829
0.00424603
0.00364047
0.00428109
0.00532819
0.00503228
0.00412505
0.00342387
0.00478924
0.00503851
0.00533
0.00503782
0.00548633
0.00591084
0.00481834
0.00524239
0.00684962
0.00523083
0.00607009
0.00620451
0.00624089
0.00624386
0.00626761
0.00629829
0.00663429
0.00645102
0.00410412
0.00490768
0.00476764
0.00398882
0.00339324
0.00373697
0.00402448
0.00408246
0.00418596
0.00434527
0.00427045
0.00412748
0.00604448
0.00689856
0.00704729
0.00718727
0.00707034
0.00689748
0.0064966
0.00600663
0.0049899
0.00372175
0.00232346
0.00236818
0.00252325
0.00249871
0.00216706
0.00163472
0.00107447
0.00159449
0.00164953
0.0015545
0.00141796
0.0012534
0.00129925
0.00236479
0.00454518
0.00628021
0.00693522
0.00746828
0.00803702
0.00858752
0.00900777
0.00931217
0.00951616
0.00963922
0.00966189
0.00946909
0.00859825
0.00821485
0.00774107
0.00735369
0.00682064
0.00640984
0.00724551
0.00796041
0.00840256
0.00889952
0.00913039
0.00903585
0.00785193
0.00761236
0.00875637
0.010788
0.00916957
0.0115219
0.0135514
0.0105484
0.00948857
0.00948564
0.0106002
0.0108033
0.0104165
0.00981445
0.00912407
0.00825321
0.00868306
0.00907473
0.00945374
0.00980246
0.0107676
0.010941
0.0108626
0.0106989
0.010477
0.0101528
0.00964118
0.00893704
0.00814891
0.00737741
0.00648127
0.00460916
0.00220321
0.0024731
0.00243604
0.00257868
0.00253085
0.00118286
0.00130626
0.00132331
0.00133234
0.00125759
0.0014312
0.00207027
0.00337323
0.00242626
0.00199596
0.00137353
0.00161274
0.00269447
0.00457568
0.00516984
0.00527098
0.00534441
0.00682587
0.00790233
0.00841194
0.00879997
0.00908272
0.00896497
0.00866776
0.00814427
0.00748958
0.00724285
0.00683989
0.00648514
0.00629307
0.00609603
0.00571938
0.00448454
0.00431163
0.00449327
0.00443879
0.00424937
0.00454055
0.00470478
0.00470105
0.00475354
0.00479955
0.00494169
0.00510897
0.00525466
0.00533133
0.00536007
0.00536944
0.00538089
0.00539
0.00540683
0.00538881
0.00527106
0.00462859
0.00289426
0.00168919
0.00156122
0.00171169
0.00181
0.00185194
0.00164444
0.00105858
0.00164497
0.00212921
0.00218411
0.00239692
0.00247321
0.00262261
0.00292124
0.00337568
0.00348358
0.00309118
0.00292759
0.00286509
0.0027923
0.00238707
0.0029761
0.00328369
0.00327757
0.00324674
0.00350942
0.00431889
0.00414882
0.00365823
0.0036172
0.0035805
0.00323744
0.00318905
0.00348436
0.00352291
0.00365469
0.00428571
0.00513975
0.00476828
0.00434276
0.00416324
0.00384451
0.00338455
0.00305938
0.00376439
0.00308889
0.00162877
0.00138347
0.00137639
0.001382
0.00133396
0.0015822
0.00166514
0.00168754
0.00156952
0.001742
0.00193918
0.00187729
0.00212169
0.002094
0.00187487
0.00185731
0.00200883
0.00211963
0.00217521
0.0022338
0.00366315
0.00378368
0.00292978
0.0042414
0.00488509
0.00484665
0.00514267
0.0042293
0.00379275
0.00450355
0.00520482
0.00597051
0.00471639
0.0044615
0.00456555
0.00209355
0.00110171
0.0015542
0.00192988
0.00215259
0.00208933
0.0019743
0.00166988
0.00296581
0.00304577
0.00483523
0.00542378
0.00549413
0.00545892
0.00547608
0.00596309
0.00684498
0.00784834
0.0081527
0.00803774
0.00767698
0.007007
0.00633804
0.00630218
0.00608871
0.00593137
0.00588566
0.00511144
0.00451364
0.0048351
0.00475615
0.00491685
0.00499207
0.0050468
0.00510262
0.00519558
0.00530779
0.00541018
0.0054802
0.00552701
0.00556637
0.00560645
0.0056466
0.00568996
0.00571349
0.00565963
0.00511522
0.00306727
0.00182804
0.00166707
0.00177871
0.00209064
0.0022014
0.00236598
0.00210046
0.00110609
0.00130061
0.00226069
0.00250761
0.00232029
0.00217142
0.00213281
0.00178658
0.00323826
0.00319691
0.00502064
0.0056466
0.00572533
0.00570905
0.00566444
0.0056138
0.00556391
0.00552279
0.00548967
0.00545473
0.00540591
0.00534703
0.00529249
0.00523685
0.00514246
0.00500867
0.00485765
0.00504885
0.00522473
0.00544974
0.00568865
0.00580464
0.00569885
0.00554402
0.00547979
0.0055186
0.00556855
0.00561953
0.00566547
0.00568911
0.00562597
0.00530204
0.00497335
0.00314851
0.00318996
0.00156813
0.00174174
0.00200986
0.0020759
0.00225404
0.00224286
0.00176233
0.00137368
0.00155007
0.00144894
0.00258949
0.00284843
0.00316013
0.00312932
0.00169841
0.00174223
0.00181038
0.00204198
0.00189798
0.00183445
0.00454478
0.00435207
0.00455227
0.0055838
0.0048108
0.00332094
0.00363707
0.00506137
0.00533867
0.00322644
0.00242042
0.00268355
0.00339906
0.00500478
0.00506745
0.00481419
0.00478696
0.00349263
0.00429331
0.00516866
0.00502798
0.00391708
0.00269866
0.00201129
0.00097649
0.00185727
0.00158769
0.00389481
0.00431105
0.00426144
0.00466
0.00495107
0.00500172
0.00486012
0.00430885
0.00439537
0.00443898
0.00505913
0.00508189
0.00430002
0.00362766
0.00294467
0.00297136
0.00302923
0.00335699
0.00420359
0.0039604
0.00347108
0.00336557
0.0032927
0.00309683
0.00279445
0.00245083
0.00246795
0.00229719
0.0022232
0.00350465
0.00466526
0.00550156
0.00565974
0.00571702
0.00562932
0.00558958
0.00542994
0.00534758
0.00464607
0.00593393
0.00627109
0.0060508
0.00609519
0.00613307
0.00617978
0.00618073
0.00606452
0.005211
0.00311182
0.00203258
0.00229429
0.00247627
0.00232514
0.00231215
0.00246449
0.00233866
0.00205423
0.00332818
0.00325308
0.00520166
0.00589108
0.00601722
0.00602446
0.00600036
0.00598047
0.00598845
0.00630364
0.00615991
0.00624022
0.00657007
0.00658215
0.00666341
0.00625701
0.00617802
0.00612762
0.00609386
0.00603857
0.00589038
0.00521255
0.00505383
0.00573922
0.00591592
0.00599414
0.00604822
0.0061128
0.00619767
0.00644301
0.00662476
0.00669276
0.00642365
0.00632607
0.00617969
0.00597078
0.00592107
0.00591099
0.00590596
0.00587729
0.00572484
0.00503922
0.00324008
0.00332001
0.00197506
0.00198786
0.0022896
0.00240469
0.00236167
0.00218699
0.00213226
0.00367607
0.00418436
0.00444948
0.00479519
0.00458069
0.00455437
0.00520515
0.0050371
0.00448857
0.00467162
0.00419026
0.00399128
0.0038635
0.00388649
0.00203864
0.00219988
0.00229473
0.00225676
0.00215798
0.0019248
0.00176509
0.00322129
0.00319785
0.00315672
0.0018768
0.00183564
0.0021626
0.00210012
0.00192114
0.00163764
0.00179535
0.00277307
0.00310141
0.00480936
0.00498133
0.00533111
0.0057011
0.0058415
0.00587978
0.00590328
0.00592935
0.00598543
0.00605134
0.00606957
0.00606681
0.00611631
0.00610669
0.00610789
0.00607551
0.00603849
0.00599538
0.00594933
0.00587353
0.00571717
0.00534235
0.0049747
0.00560895
0.00566077
0.00576631
0.00587538
0.00592187
0.00592937
0.00590828
0.00586593
0.00581578
0.00575762
0.00575619
0.00592066
0.00595982
0.00598877
0.00597091
0.00595013
0.00594329
0.00591664
0.00587391
0.00576511
0.00565605
0.00561006
0.00551665
0.00566384
0.00572895
0.00573851
0.00579398
0.00588308
0.00590876
0.00590813
0.00586415
0.00582732
0.00577983
0.0057028
0.00560215
0.00526639
0.0053356
0.00542607
0.00554438
0.00565868
0.00575113
0.00580316
0.0058069
0.00575368
0.00571791
0.00571921
0.00567068
0.00569603
0.00572206
0.00569299
0.00568953
0.0056937
0.00562875
0.0055105
0.00534601
0.00517213
0.00502855
0.00495566
0.00483607
0.00522078
0.00537067
0.00550429
0.00562296
0.00572975
0.00583705
0.00586932
0.00585687
0.00579125
0.0057539
0.00575239
0.00569719
0.00569432
0.00574763
0.00574977
0.00578083
0.00583684
0.00582162
0.00574404
0.00554226
0.00534662
0.00517621
0.00501312
0.0048391
0.00479805
0.00487698
0.00481028
0.00487633
0.00504535
0.00525818
0.0054425
0.00556058
0.00559816
0.00563326
0.00568467
0.00567906
0.0056484
0.00563153
0.005562
0.00550134
0.005427
0.00526514
0.00505928
0.00487835
0.0048218
0.00492051
0.00501801
0.00492684
0.00457212
0.00475406
0.00492683
0.00509871
0.00534164
0.00562224
0.00574369
0.00578714
0.00575909
0.00573705
0.00573408
0.00568358
0.00566552
0.00571207
0.00571609
0.00573865
0.00577466
0.00573999
0.00564106
0.0052974
0.00488745
0.0046911
0.00457531
0.00442022
0.00495145
0.00505503
0.00493052
0.00484624
0.00497642
0.00512781
0.00528525
0.00539047
0.00543278
0.00549219
0.00557016
0.00560765
0.00555234
0.00548777
0.00540818
0.005367
0.00536589
0.00533957
0.00523857
0.00511918
0.0049808
0.00514888
0.005247
0.00515252
0.00466223
0.00473853
0.00485411
0.00492268
0.00530862
0.00564328
0.00572007
0.00572139
0.00568506
0.0056612
0.0056614
0.00563196
0.00557639
0.00556641
0.0055622
0.00562911
0.00571686
0.00576855
0.00579462
0.00554434
0.00508173
0.00500315
0.0047947
0.0046981
0.00522195
0.00528127
0.00515976
0.00504724
0.00529071
0.005394
0.00542206
0.00539989
0.00534345
0.00530637
0.00537464
0.00548213
0.0054007
0.00505022
0.00473867
0.00489882
0.00493823
0.00492637
0.00485997
0.0047482
0.00450543
0.00503165
0.00554402
0.00558526
0.00503614
0.00504309
0.00488193
0.00454554
0.00499383
0.00522969
0.00528103
0.00525787
0.00517379
0.00497517
0.00525448
0.00550102
0.00545349
0.00493636
0.0032041
0.00324809
0.00327108
0.00327384
0.00323086
0.00321881
0.00317178
0.00314746
0.00307453
0.00300031
0.00292982
0.00312438
0.00329152
0.00351652
0.00353531
0.00362843
0.003473
0.00328806
0.00307099
0.00239265
0.00303594
0.00362157
0.00384915
0.00414081
0.00420129
0.00484331
0.00509348
0.00522737
0.00512505
0.00411225
0.00348823
0.00278752
0.0018129
0.00112967
0.00132602
0.0013792
0.0014484
0.00177149
0.0032871
0.00167362
0.00232379
0.00181559
0.00313085
0.00164653
0.00102826
0.00068078
0.00086571
0.00102559
0.00103522
0.00099496
0.000830915
0.00065636
0.00067107
0.00062757
0.000667082
0.000600786
0.000688197
0.000642053
0.000895651
0.00134291
0.00152488
0.00155872
0.00125989
0.00142084
0.00118705
0.00136915
0.00122255
0.00133259
0.00127825
0.00156352
0.00171359
0.00164075
0.00164549
0.00144007
0.00100733
0.00116756
0.000917322
0.00110136
0.000842767
0.00108846
0.000933392
0.00121285
0.00125031
0.00124674
0.00120046
0.000917165
0.00108758
0.000856241
0.00105034
0.000860591
0.000914852
0.000760659
0.00110146
0.00112105
0.00103329
0.00109698
0.00123109
0.00132156
0.00145882
0.00138425
0.00158087
0.0015298
0.00155365
0.00147163
0.00143068
0.001398
0.00140081
0.00137774
0.00138525
0.00142985
0.00143198
0.00143755
0.00148296
0.00146121
0.00142597
0.00140473
0.00124778
0.00100663
0.00175359
0.00180838
0.00183504
0.00183448
0.00179277
0.00177269
0.00171143
0.00169515
0.00164193
0.0016107
0.00153943
0.00148086
0.00141411
0.00158966
0.000889483
0.00100991
0.00106617
0.00109778
0.00111986
0.00113
0.00113825
0.00113191
0.0011179
0.00109028
0.00108087
0.00105077
0.00134468
0.00152971
0.00159913
0.00161774
0.00151643
0.00144401
0.00315879
0.00382267
0.00581479
0.00594304
0.00446078
0.00444762
0.00153907
0.00162353
0.0011103
0.0015603
0.00160888
0.0015926
0.00150464
0.0010854
0.00162907
0.00113482
0.00152811
0.00114462
0.00141337
0.00116342
0.00165049
0.00210205
0.00202636
0.00183424
0.00125125
0.00104409
0.00104415
0.000896289
0.000983795
0.000812563
0.0009978
0.000842956
0.00125147
0.00177954
0.00196928
0.00200888
0.00158408
0.00218559
0.00164315
0.002379
0.00188832
0.00232875
0.0018687
0.00216331
0.00267679
0.00268885
0.00262517
0.00211597
0.00169608
0.00190354
0.00168656
0.00194217
0.00280711
0.00183982
0.00279041
0.00115325
0.00157193
0.00162021
0.00159802
0.00150683
0.00101539
0.00258593
0.00136738
0.00243426
0.00157482
0.00252647
0.0018306
0.00242074
0.0028931
0.00302089
0.0030054
0.0024535
0.00221113
0.00228185
0.00182395
0.00218969
0.0016369
0.00237731
0.00135263
0.00175893
0.00194694
0.00204983
0.00205825
0.00169202
0.00334115
0.0020976
0.00316629
0.00220129
0.00282052
0.00226055
0.00247353
0.00292109
0.00290307
0.0028789
0.00244138
0.00197543
0.00260726
0.00186023
0.0553206
0.127921
0.0508787
0.129298
0.0585407
0.0831072
0.0818989
0.0820791
0.0823933
0.0618776
0.135015
0.159493
0.166316
0.168322
0.167051
0.269956
0.22009
0.330692
0.214351
0.126081
0.0546127
0.0753371
0.194569
0.321397
0.482309
0.612067
0.417081
0.431762
0.275524
0.271681
0.255789
0.206937
0.126876
0.0636196
0.0109158
0.0119444
0.0170925
0.0227523
0.0179172
0.0109773
0.00216766
0.00223767
0.00228903
0.0023217
0.00231519
0.00226782
0.00230564
0.0021798
0.00205223
0.002297
0.00250382
0.00267115
0.00315198
0.00348509
0.00314149
0.00344367
0.00364958
0.00381753
0.00395679
0.00416406
0.00439736
0.00460174
0.00461257
0.00422621
0.00360174
0.00292992
0.00246285
0.00233322
0.00219097
0.00193202
0.00176736
0.00165496
0.00160056
0.00157795
0.00162154
0.00177209
0.00190265
0.00194837
0.00190992
0.00187479
0.00184415
0.00164205
0.00191978
0.00263337
0.00265414
0.00454701
0.00523916
0.00534786
0.00535512
0.00474709
0.0030324
0.00303901
0.00305462
0.0031129
0.00312518
0.00313342
0.00313027
0.00311971
0.00310162
0.00306815
0.00305121
0.00300182
0.0029601
0.00285574
0.00286037
0.00289703
0.00292604
0.00287798
0.00288958
0.00282886
0.00368124
0.004922
0.00555354
0.00580407
0.00601965
0.00584224
0.00809544
0.00692339
0.00486225
0.00478704
0.0047273
0.00560729
0.00564547
0.00509536
0.00511468
0.00466332
0.00291116
0.00290385
0.0029058
0.00311038
0.00317223
0.00328002
0.00331009
0.00333588
0.00335168
0.00334398
0.0033416
0.00331048
0.00328787
0.00321253
0.00318756
0.00317681
0.00175145
0.00191178
0.00198382
0.00199753
0.00202753
0.00201553
0.00200398
0.00197976
0.00196425
0.00193105
0.00189298
0.001836
0.00172524
0.00157139
0.0017293
0.00293401
0.00293282
0.00478015
0.0053983
0.00543969
0.0060586
0.00575147
0.00544738
0.00584486
0.00526557
0.00522168
0.00472296
0.00293282
0.0029729
0.00176475
0.00174973
0.00204616
0.00199011
0.00212749
0.00218641
0.00219318
0.00222376
0.00225251
0.00228855
0.00234698
0.00236368
0.00232523
0.00231751
0.00218223
0.00188538
0.00190756
0.00224937
0.00236024
0.00219231
0.00215537
0.00213917
0.00208632
0.00204633
0.00200817
0.00203404
0.00218983
0.00218655
0.00214717
0.00204275
0.00198861
0.00172352
0.00166434
0.00290942
0.00295442
0.00488378
0.00499566
0.00496055
0.00572141
0.0063885
0.00726791
0.00620313
0.00503943
0.00525026
0.00600616
0.00447382
0.00374805
0.0022291
0.0016709
0.00209003
0.00192331
0.00200593
0.00207825
0.00184598
0.00198405
0.00183486
0.00166755
0.00165844
0.00165663
0.00169766
0.00171499
0.00174632
0.00175063
0.00179354
0.00178947
0.00179423
0.00181604
0.00182458
0.00201585
0.00218996
0.00184373
0.00156333
0.00152396
0.00143914
0.00137039
0.00140385
0.00136972
0.00136121
0.00133601
0.00131319
0.00125295
0.00130549
0.00138512
0.00162025
0.00155063
0.00125342
0.00112006
0.000765519
0.00078104
0.000786446
0.000810674
0.000819605
0.000830575
0.000834678
0.000848374
0.000851056
0.000855424
0.000855109
0.000876155
0.000873178
0.000863103
0.000856625
0.000860719
0.000864625
0.000863991
0.00126524
0.00140876
0.00153825
0.00182673
0.00214907
0.00185037
0.00156877
0.00135257
0.000869427
0.000882446
0.000898579
0.0009069
0.000926226
0.000943795
0.000963386
0.000975706
0.000984939
0.000994561
0.00100473
0.00100871
0.00100617
0.000986628
0.000975127
0.000999896
0.00109911
0.00115677
0.00123079
0.00125874
0.0012824
0.00129408
0.00128811
0.00130172
0.00128655
0.00128451
0.00126275
0.00125356
0.00124479
0.0012337
0.00121983
0.00118542
0.00117396
0.00123514
0.00209174
0.00273563
0.00314822
0.00346628
0.00320907
0.00260801
0.00273544
0.00480919
0.00455577
0.0026859
0.00250925
0.0023179
0.00202867
0.00176751
0.00213627
0.00243908
0.00266802
0.00286873
0.00305238
0.0031773
0.00333804
0.00354784
0.00391774
0.00396432
0.00361601
0.00293008
0.0024803
0.00231654
0.00223807
0.00210137
0.00195196
0.00200073
0.0020151
0.00195507
0.00188046
0.00185921
0.00188995
0.00192921
0.00190609
0.00190526
0.00170205
0.00170143
0.00290712
0.00296183
0.00455583
0.00479995
0.00484616
0.00311576
0.00307294
0.00179487
0.00166688
0.00181847
0.00188779
0.00189173
0.00189947
0.00188982
0.00185688
0.00183273
0.00180465
0.00178174
0.00176149
0.00172652
0.00165997
0.00153325
0.00167072
0.00187338
0.00195638
0.00197805
0.00198848
0.00201995
0.00207141
0.00211266
0.00220836
0.00221812
0.00221723
0.00222505
0.00207962
0.00214476
0.00181511
0.00181256
0.00314173
0.00313329
0.00179997
0.00212551
0.00213987
0.00211544
0.00227738
0.00208398
0.00201787
0.00200711
0.00192205
0.0018768
0.00181645
0.00178035
0.00181506
0.00193069
0.00186933
0.00165674
0.00159655
0.001791
0.00172314
0.00142959
0.00122142
0.00118786
0.00113712
0.00110636
0.00115969
0.00120129
0.00122503
0.00125517
0.00126411
0.00131946
0.00128379
0.00134719
0.00142868
0.00149361
0.00177171
0.00191993
0.00173446
0.00170115
0.00168005
0.00167823
0.00168353
0.00161408
0.00160948
0.00157359
0.0015559
0.00150898
0.00148775
0.00146077
0.00146551
0.0014809
0.00162798
0.00419576
0.00534988
0.00557087
0.00951787
0.00384228
0.00392467
0.00769752
0.00318288
0.00478582
0.0051295
0.0053626
0.00560098
0.00512598
0.00651264
0.00454509
0.00506261
0.00527882
0.00462059
0.00173158
0.00197642
0.00227745
0.00203213
0.00179483
0.00122312
0.00131867
0.0013617
0.00139674
0.00141938
0.00144467
0.0014717
0.0014971
0.00151493
0.00151518
0.00146908
0.0014194
0.00130522
0.00126721
0.00131628
0.00136701
0.00120051
0.00113031
0.00114364
0.00116246
0.001173
0.00117524
0.00118672
0.00118981
0.00120796
0.00119823
0.00120736
0.0011867
0.00119715
0.00118151
0.00114118
0.0010846
0.000988407
0.000964887
0.0013898
0.00147993
0.00155463
0.00176416
0.00203705
0.00217378
0.0019483
0.00179657
0.0017245
0.0019131
0.00191401
0.00347874
0.00667965
0.00298948
0.00335002
0.00977089
0.00388268
0.00301748
0.00306313
0.00309526
0.00309953
0.00180123
0.00213341
0.00206861
0.00207701
0.0017616
0.00147903
0.0013265
0.00118599
0.000804235
0.000801587
0.000807637
0.000820004
0.00082385
0.000788553
0.000788458
0.000783945
0.000782178
0.000765554
0.000760913
0.0007474
0.000739192
0.00071975
0.0007092
0.000690703
0.000687502
0.000717996
0.000799063
0.000966042
0.00107435
0.00122182
0.00124396
0.00139895
0.00346517
0.00401921
0.00553916
0.00549569
0.00867106
0.00541591
0.0040901
0.00369486
0.00540776
0.00558701
0.00518076
0.007019
0.0048567
0.00321675
0.00485922
0.00404639
0.00476688
0.00468366
0.00497345
0.00790655
0.00832162
0.00234075
0.00208653
0.00219476
0.00249002
0.00295654
0.00272408
0.00310256
0.0031034
0.00239819
0.00152071
0.00484463
0.00584274
0.00470085
0.00565691
0.00872513
0.00350057
0.00341381
0.00302067
0.00252132
0.00229157
0.00226101
0.0025211
0.00301669
0.0075587
0.00808279
0.00746686
0.00745023
0.00675713
0.007412
0.00924732
0.00920111
0.00813404
0.00761303
0.00788694
0.00489736
0.00303226
0.00353116
0.00391457
0.00522403
0.00538601
0.0113857
0.0038596
0.00426402
0.00433002
0.00579264
0.005608
0.00991874
0.00420096
0.0045303
0.00597001
0.00798224
0.0147265
0.00537035
0.00565641
0.00813819
0.00826192
0.00755038
0.00545337
0.00493899
0.00538211
0.00405422
0.0039638
0.00338252
0.00499417
0.0067257
0.00531859
0.00516386
0.00439177
0.00391045
0.00400405
0.00415575
0.00345166
0.0034034
0.00392776
0.00291694
0.00282342
0.00298448
0.000829047
0.000424804
0.000434258
0.000445532
0.000454704
0.00046415
0.000471064
0.000479259
0.000482963
0.000483368
0.000484602
0.000512498
0.000507753
0.000491707
0.000446483
0.000509482
0.000808524
0.00080907
0.000508911
0.000448645
0.000805025
0.0012828
0.00151243
0.00178919
0.00181137
0.00156295
0.00135504
0.000834006
0.000820901
0.000497557
0.000581097
0.000631039
0.000559703
0.000624648
0.00057896
0.000613224
0.000619578
0.000573237
0.000570042
0.000572239
0.000567859
0.000557753
0.000545409
0.000530379
0.000518591
0.000512235
0.0005074
0.000496671
0.000412318
0.000384502
0.000462985
0.000738911
0.000737946
0.000691519
0.000651549
0.000617294
0.000601538
0.000597004
0.000593634
0.000603984
0.000623519
0.000629039
0.000634573
0.000683783
0.000662454
0.000707561
0.000664075
0.00070948
0.000665924
0.000612606
0.000514379
0.000530714
0.00085621
0.00086533
0.00139821
0.00159956
0.00181377
0.0018231
0.00203505
0.00214323
0.00181496
0.00188438
0.00215963
0.00201132
0.00179287
0.00179986
0.00161908
0.0016206
0.00143555
0.000897106
0.000884909
0.000555721
0.000539683
0.000643512
0.000632247
0.000703145
0.000752509
0.000752714
0.00075027
0.000731393
0.00072462
0.000637208
0.000624694
0.00062552
0.00060661
0.000602672
0.000628759
0.000686813
0.000806637
0.000975841
0.00106239
0.00109914
0.0010538
0.000943411
0.000696719
0.000629225
0.00109115
0.00113199
0.002031
0.00481903
0.00224763
0.0042797
0.00308838
0.000767593
0.000856172
0.00109176
0.00122327
0.00132081
0.00137699
0.0012589
0.00105066
0.000791097
0.000653217
0.000974893
0.000842957
0.000951865
0.000831316
0.00107598
0.0012441
0.00120355
0.00121261
0.00102479
0.00083476
0.00088401
0.000793586
0.000874671
0.000732212
0.000880913
0.00079538
0.000999488
0.00100883
0.000987813
0.000936293
0.000712893
0.000747948
0.000627371
0.000680567
0.000610997
0.000631501
0.00059837
0.000697828
0.000804111
0.000771721
0.000768694
0.000631591
0.000494897
0.0005466
0.000472669
0.000534968
0.000415783
0.00050367
0.00042238
0.000546806
0.000563766
0.000566958
0.000563647
0.000458881
0.000539602
0.000660617
0.000693305
0.00069885
0.000665653
0.000513106
0.000793956
0.000716554
0.000874888
0.000756748
0.000828366
0.000754372
0.000879305
0.00112617
0.00117581
0.00118366
0.000960349
0.000954215
0.00174125
0.0965115
0.00156631
0.00185122
0.00190892
0.00190202
0.00157255
0.00153429
0.0019003
0.00140579
0.00199073
0.00125351
0.00212309
0.000809356
0.00123023
0.0013208
0.00131798
0.00122491
0.000821615
0.0024302
0.119149
0.308038
0.334291
0.333733
0.320741
0.143826
0.501113
0.136327