/*--------------------------------*- C++ -*----------------------------------*\
| =========                 |                                                 |
| \\      /  F ield         | OpenFOAM: The Open Source CFD Toolbox           |
|  \\    /   O peration     | Version:  v2012                                 |
|   \\  /    A nd           | Website:  www.openfoam.com                      |
|    \\/     M anipulation  |                                                 |
\*---------------------------------------------------------------------------*/
FoamFile
{
    version     2.0;
    format      ascii;
    class       volVectorField;
    location    "195";
    object      U;
}
// * * * * * * * * * * * * * * * * * * * * * * * * * * * * * * * * * * * * * //

dimensions      [0 1 -1 0 0 0 0];


internalField   nonuniform List<vector> 
18258
(
(-0.176735 0.116495 0.138184)
(-0.0518857 0.245854 0.157974)
(-0.104978 0.213939 0.0963806)
(-0.0389561 0.069925 0.0841902)
(-0.226262 0.202473 0.0181458)
(-0.159209 0.361096 0.0165662)
(-0.222936 0.0447163 0.05381)
(-0.341402 -0.0529119 0.0751841)
(-0.448742 -0.105686 0.108184)
(-0.535728 -0.159565 0.145722)
(-0.621505 -0.217132 0.179915)
(-0.687788 -0.271554 0.30957)
(-0.678617 -0.334303 0.357265)
(-0.622036 -0.445552 0.385857)
(-0.487551 -0.542945 0.369374)
(-0.204519 -0.586739 0.340021)
(0.0740385 -0.37362 0.287808)
(0.0793688 -0.165295 0.298404)
(-0.125642 -0.0785128 0.235702)
(-0.393111 -0.274461 0.115275)
(-0.133934 -0.523381 0.288148)
(-0.188752 -0.362824 0.405863)
(-0.290464 -0.733537 0.298748)
(-0.34753 -0.774196 0.262268)
(-0.125313 -0.709205 0.13968)
(0.00952546 -0.645134 0.187031)
(-0.0126398 -0.337216 0.421313)
(0.176924 -0.111528 0.800589)
(0.300498 -0.0947108 0.886276)
(0.317982 0.0583689 0.902501)
(0.320717 0.189241 0.799266)
(0.163803 0.302042 0.0668413)
(0.0869271 0.117153 -0.436664)
(0.0241511 0.068978 -0.733307)
(-0.0574407 0.0709201 -0.904236)
(-0.0483344 0.0686467 -1.0846)
(-0.0629493 0.0684508 -1.22791)
(-0.0905272 0.0870593 -1.32538)
(-0.129768 0.0776113 -1.37458)
(-0.175301 0.0828724 -1.36099)
(-0.22389 0.068785 -1.27691)
(-0.269229 0.0771188 -1.12289)
(-0.306843 0.0716888 -0.911728)
(-0.337157 0.0713788 -0.655763)
(-0.347979 0.0726242 -0.360151)
(-0.33369 0.0688026 -0.159742)
(-0.169114 0.141742 -0.204403)
(0.324929 -0.0881041 -0.141479)
(0.580982 -0.129833 -0.163967)
(0.646855 -0.109716 -0.171412)
(0.767165 -0.135268 -0.17904)
(0.800756 -0.134865 -0.195465)
(0.502894 -0.0105912 -0.25773)
(0.258601 -0.138638 -0.218841)
(0.113225 -0.0434196 -0.159029)
(0.281253 -0.0104232 -0.169108)
(0.535593 -0.00302632 -0.173692)
(0.789449 -0.0302409 -0.177921)
(1.08963 -0.0347714 -0.175691)
(1.42521 -0.0488474 -0.185169)
(1.75975 -0.0645703 -0.183588)
(2.04397 -0.0811705 -0.166752)
(2.24488 -0.0929189 -0.138408)
(2.3455 -0.0991042 -0.102906)
(2.35281 -0.0964845 -0.0684335)
(2.29314 -0.0888353 -0.0418434)
(2.20012 -0.0823206 -0.025146)
(2.108 -0.0761692 -0.0183622)
(2.03879 -0.0673463 -0.0193288)
(1.99328 -0.0644799 -0.0239333)
(1.969 -0.0593181 -0.0263077)
(1.95846 -0.0504012 -0.0207381)
(1.94417 -0.0398846 -0.00371805)
(1.90068 -0.0250544 0.023863)
(1.81309 -0.00800178 0.0534523)
(1.69218 0.00937695 0.0767314)
(1.57137 0.0215718 0.0795733)
(1.47868 0.0305421 0.0749342)
(1.4006 0.0375821 0.0702797)
(1.33846 0.0502806 0.0629174)
(1.28765 0.0569291 0.0646753)
(1.19405 0.0440723 0.078166)
(1.09694 0.018777 0.109634)
(1.014 0.000482929 0.127036)
(0.906699 -0.0211093 0.119933)
(0.762713 0.0165812 0.145234)
(0.64192 0.0816234 0.132784)
(0.518181 0.100598 0.133586)
(0.381061 0.118029 0.117965)
(0.224511 0.126862 0.0958405)
(0.12024 0.189699 0.0914479)
(0.121997 0.0106422 0.19713)
(0.164313 -0.100841 0.143189)
(0.11332 -0.129863 0.0390247)
(0.104755 -0.115141 -0.142908)
(0.216915 -0.21034 -0.371396)
(0.262964 -0.232502 -0.556569)
(0.204487 -0.139481 -0.730021)
(0.106057 -0.081401 -0.714762)
(0.0362293 0.0571011 -0.491875)
(-0.0887386 0.230871 -0.161153)
(-0.215786 0.195081 0.179654)
(-0.234523 0.0651134 0.154104)
(-0.340391 0.0153726 0.169472)
(-0.272608 0.138822 0.178165)
(-0.246801 0.286769 -0.047655)
(-0.106682 0.162901 -0.403461)
(0.0641779 0.00409432 -0.585174)
(0.333913 -0.0941742 -0.632499)
(0.496137 -0.230002 -0.490319)
(0.351791 -0.210795 -0.281013)
(0.271977 -0.191944 -0.101557)
(0.283162 -0.186713 0.0386495)
(0.28089 -0.140083 0.159571)
(0.225337 -0.0989527 0.191107)
(0.396656 -0.0813398 0.18009)
(0.535891 -0.0633584 0.175607)
(0.588417 -0.0521329 0.163763)
(0.70037 -0.0787865 0.15982)
(0.732766 -0.133766 0.131434)
(0.60119 -0.134308 0.134253)
(0.454646 -0.15177 0.138843)
(0.461688 -0.185913 0.0343854)
(0.611078 -0.162874 0.0502568)
(0.736557 -0.162068 0.0477159)
(0.905066 -0.1417 0.080009)
(1.08868 -0.109816 0.109611)
(1.19 -0.0776918 0.147146)
(1.209 -0.0107321 0.138976)
(1.24618 -0.00911892 0.119599)
(1.33622 -0.00700339 0.139091)
(1.37817 -0.0017863 0.129101)
(1.3698 -0.0125442 0.157798)
(1.32922 -0.0481618 0.192882)
(1.32355 -0.0510819 0.189808)
(1.28642 -0.0619629 0.150931)
(1.27972 -0.0601463 0.134055)
(1.25879 -0.0477281 0.107556)
(1.2503 -0.0457137 0.109621)
(1.2024 0.00448879 0.108381)
(1.19533 0.0278585 0.136973)
(1.07837 0.136828 0.270334)
(1.22708 0.0528236 0.253028)
(1.21889 0.0201028 0.157797)
(1.26738 -0.0207892 0.12736)
(1.27946 -0.0249661 0.118134)
(1.28983 -0.0381577 0.143174)
(1.30871 -0.041458 0.182457)
(1.35128 -0.0366744 0.21643)
(1.38711 -0.036664 0.221348)
(1.42401 -0.012798 0.182571)
(1.43737 -0.00197709 0.137439)
(1.51356 -0.00657691 0.150568)
(1.61156 -0.0167604 0.15869)
(1.75082 -0.0316707 0.143099)
(1.88295 -0.054259 0.0485058)
(1.96437 -0.0757377 -0.0717299)
(1.98371 -0.0906146 -0.164848)
(1.96624 -0.0966602 -0.201141)
(1.94985 -0.0970313 -0.195139)
(1.95991 -0.0914462 -0.175436)
(2.00674 -0.0829727 -0.145175)
(2.08794 -0.0706119 -0.108785)
(2.19876 -0.0604714 -0.085232)
(2.3123 -0.0601573 -0.114201)
(2.38843 -0.0612064 -0.174526)
(2.39044 -0.0587214 -0.278106)
(2.2841 -0.050363 -0.392905)
(2.06849 -0.0425898 -0.483954)
(1.76811 -0.0367396 -0.540176)
(1.42439 -0.0315842 -0.548817)
(1.0786 -0.0193456 -0.527573)
(0.790343 -0.0244505 -0.459261)
(0.53504 -0.0160475 -0.415381)
(0.28177 -0.0217367 -0.386741)
(0.108716 -0.0408756 -0.360679)
(0.101771 -0.0426617 -0.63705)
(0.0769373 -0.0376617 -0.872904)
(0.0503176 -0.039535 -1.05729)
(0.0115587 -0.0407846 -1.17599)
(-0.023474 -0.0284904 -1.21605)
(-0.0600099 -0.0160594 -1.16909)
(-0.0936983 0.00269661 -1.04094)
(-0.119071 0.0255005 -0.826418)
(-0.121621 0.0798839 -0.564409)
(-0.145469 0.133174 -0.0596543)
(-0.191005 0.0282925 0.561339)
(-0.207056 -0.0324246 0.748334)
(-0.225785 -0.00115295 0.917886)
(-0.231006 -0.0434811 1.06127)
(-0.316915 -0.10246 1.12348)
(-0.370541 -0.107807 1.13771)
(-0.368654 -0.230353 1.00079)
(-0.295091 -0.248854 0.769553)
(-0.458177 -0.663527 0.686916)
(-0.486006 -0.54047 0.704242)
(-0.414154 -0.40886 0.83074)
(-0.551212 -0.76316 0.85244)
(-0.687222 -0.829566 0.600972)
(-0.476899 -0.752174 0.798091)
(-0.437456 -0.573931 0.739027)
(-0.786459 -0.524255 0.744658)
(-0.905849 -0.407543 0.853443)
(-0.532267 -0.704603 0.816562)
(-0.441651 -0.576972 0.657446)
(-0.320192 -0.316126 0.397518)
(-0.298631 -0.176448 0.391246)
(-0.281436 -0.140873 0.343635)
(-0.231898 0.119558 0.10525)
(-0.162942 0.29266 -0.421661)
(-0.153281 0.180393 -0.639754)
(-0.132386 0.0260736 -0.915407)
(-0.087133 -0.0586024 -1.0861)
(-0.0291968 -0.070508 -1.2338)
(0.0375433 -0.103124 -1.26826)
(0.0969483 -0.0993558 -1.2332)
(0.1711 -0.110196 -1.11939)
(0.214964 -0.123978 -0.919669)
(0.259085 -0.147355 -0.705349)
(0.248164 -0.1398 -0.398672)
(0.415741 -0.0543722 -0.637648)
(0.760756 -0.119152 -0.459722)
(0.710451 -0.108599 -0.417377)
(0.604604 -0.0720522 -0.412888)
(0.517689 -0.105721 -0.425282)
(0.0915504 -0.108737 -0.542025)
(0.150242 -0.11943 -0.938862)
(0.239626 -0.225562 -1.09039)
(0.331869 -0.283637 -0.974661)
(0.390975 -0.353493 -0.541712)
(0.201212 0.00830151 0.16328)
(0.260882 0.105106 0.171689)
(0.428797 -0.324871 0.334179)
(0.515752 -0.528793 0.504893)
(0.544737 -0.522128 0.554229)
(0.412367 -0.234489 0.675591)
(0.471478 -0.336866 0.567956)
(0.486802 -0.607956 0.554392)
(0.702532 -0.671281 0.323104)
(0.744869 -0.485741 0.461389)
(0.795962 -0.344892 0.601957)
(0.231404 -0.223515 0.574814)
(-0.242732 -0.266876 0.821662)
(-0.180662 -0.191351 0.671581)
(-0.676718 -0.298543 0.814121)
(-0.475839 -0.178149 0.68686)
(-0.325179 -0.000870587 0.533684)
(-0.219285 0.171338 -0.294668)
(-0.193798 -0.0492394 -0.618296)
(-0.0573236 -0.171054 -1.10006)
(0.103084 -0.160585 -1.24903)
(0.273184 -0.0905577 -1.1177)
(0.427036 -0.107906 -0.703829)
(0.492632 -0.0741855 -0.631175)
(0.482552 -0.0418336 -0.624179)
(0.52016 -0.0870698 -0.655487)
(0.574063 -0.119953 -0.748222)
(0.388123 -0.0415349 -0.695468)
(0.350346 -0.0791077 -0.673956)
(0.128136 -0.113629 -0.678626)
(-0.111953 -0.0506567 -0.589543)
(0.286091 -0.00183586 -0.601674)
(0.341784 0.0101316 -0.625685)
(0.627554 -0.101259 -0.662209)
(0.575022 -0.0985677 -0.414806)
(0.267027 0.0666731 -0.391977)
(0.281508 0.0501144 -0.292744)
(-0.307074 -0.0457298 0.0797212)
(-0.307578 0.140188 -0.0236148)
(-0.282428 -0.027521 -0.456607)
(0.0827411 -0.20028 -0.583857)
(0.354309 -0.27866 -0.574154)
(0.716802 -0.344287 -0.409759)
(0.803987 -0.41765 -0.379874)
(0.764047 -0.29048 -0.296736)
(0.805915 -0.364358 -0.220582)
(0.821481 -0.48564 -0.286061)
(0.732147 -0.429054 -0.281901)
(0.707693 -0.302726 -0.33558)
(0.736569 -0.25071 -0.344609)
(0.782808 -0.310255 -0.213809)
(0.795235 -0.365858 -0.162383)
(0.886283 -0.465096 -0.157464)
(1.15406 -0.631003 -0.118251)
(1.61373 -0.72629 -0.0993565)
(1.99178 -0.672438 -0.0385716)
(2.1491 -0.490976 0.0470235)
(2.06998 -0.292112 0.0951732)
(1.90514 -0.163933 0.102895)
(1.80776 -0.0954469 0.099364)
(1.71108 -0.000117889 0.0988878)
(1.57357 0.0883443 0.0910263)
(1.43618 0.106699 0.0480047)
(1.33164 0.0569716 0.0272466)
(1.24181 -0.00506371 0.0215316)
(1.14004 -0.054508 0.0232243)
(1.05611 -0.0791876 0.0213681)
(0.998324 -0.0628005 0.0168758)
(0.822093 -0.110485 -0.0239235)
(0.717151 0.00192668 0.00964579)
(0.633805 0.0679917 0.00877876)
(0.498093 0.022575 0.00642907)
(0.359787 -0.0613223 -0.0132932)
(0.139161 -0.14725 -0.0322745)
(0.225742 -0.308786 0.00132025)
(0.353626 -0.0821619 0.0119373)
(-0.0025634 -0.230581 -0.00922771)
(0.0429971 -0.546633 -0.0505184)
(0.0119569 -0.713262 -0.0526499)
(-0.00809952 -0.877272 -0.0532781)
(-0.0260672 -1.00736 -0.0650029)
(-0.0361156 -1.10331 -0.0959073)
(-0.0466588 -1.15769 -0.105207)
(-0.0582054 -1.21499 -0.118347)
(-0.0884515 -1.27671 -0.134336)
(-0.113567 -1.3214 -0.149636)
(-0.137547 -1.35508 -0.16254)
(-0.159571 -1.37668 -0.173581)
(-0.178589 -1.38795 -0.183224)
(-0.193982 -1.38952 -0.189916)
(-0.206115 -1.38235 -0.193755)
(-0.216144 -1.36756 -0.193869)
(-0.224717 -1.34559 -0.191955)
(-0.233018 -1.31506 -0.186517)
(-0.240703 -1.27409 -0.178172)
(-0.246166 -1.21977 -0.165132)
(-0.244053 -1.15057 -0.147388)
(-0.191095 -1.07107 -0.127015)
(-0.141321 -0.968471 -0.112693)
(-0.165903 -0.868029 -0.079604)
(-0.189939 -0.754135 -0.0820128)
(-0.205178 -0.542724 -0.0856109)
(-0.27404 -0.449825 -0.0921)
(0.0221077 0.0535941 -0.116348)
(-0.350846 -0.307923 0.0249993)
(-0.231825 -0.616933 -0.054798)
(-0.270543 -0.0990629 -0.0112786)
(-0.458135 -0.182266 0.0644742)
(-0.678707 -0.198547 0.0822538)
(-0.842031 -0.209176 0.114073)
(-0.953362 -0.223066 0.144195)
(-1.03398 -0.232494 0.203775)
(-1.1172 -0.244302 0.245311)
(-1.18632 -0.244247 0.302026)
(-1.20002 -0.248529 0.336273)
(-1.17318 -0.250346 0.366156)
(-1.10649 -0.249115 0.394424)
(-0.996047 -0.243505 0.422567)
(-0.841927 -0.230579 0.453924)
(-0.668707 -0.206417 0.493259)
(-0.421694 -0.147394 0.541954)
(-0.140133 -0.117904 0.56542)
(-0.159553 0.0287764 0.821493)
(-0.163406 0.083173 1.04226)
(-0.163174 0.115467 1.11265)
(-0.164308 0.164638 1.02179)
(-0.167106 0.153506 0.839587)
(-0.152851 0.131267 0.569312)
(-0.122279 0.143583 0.287315)
(-0.223495 0.440849 0.372123)
(-0.504912 0.468429 0.335569)
(-0.689692 0.481226 0.339819)
(-0.914611 0.466048 0.333361)
(-1.09689 0.425342 0.309309)
(-1.22426 0.353919 0.26652)
(-1.28032 0.27389 0.219282)
(-1.26334 0.206564 0.18191)
(-1.23073 0.148296 0.158596)
(-1.18802 0.115563 0.140647)
(-1.09865 0.0928189 0.0903862)
(-0.957147 0.0454343 0.0700135)
(-0.766108 -0.0204699 0.0595324)
(-0.500032 -0.113696 0.019072)
(-0.252764 -0.207557 -0.0190223)
(-0.273939 -0.197372 -0.0661037)
(-0.317963 -0.176761 0.00841686)
(-0.314161 -0.173965 0.0596046)
(-0.272329 -0.156411 0.150744)
(-0.380218 -0.233418 0.118316)
(-0.421849 -0.296561 0.118219)
(-0.325796 -0.287626 0.176566)
(-0.268794 -0.214641 0.0443292)
(-0.140337 -0.1004 -0.0270911)
(-0.140501 -0.0765206 -0.00874107)
(-0.138542 -0.0738347 -0.0367232)
(-0.16942 -0.055432 -0.0688791)
(-0.167881 -0.501068 -0.149634)
(-0.126341 -0.479033 -0.139804)
(-0.110559 -0.446482 -0.0974687)
(-0.100286 -0.423341 -0.147155)
(-0.265785 -0.537225 -0.0323374)
(-0.275359 -0.574442 -0.0266226)
(-0.282618 -0.630651 -0.0850094)
(-0.336393 -0.582049 -0.0210197)
(-0.339339 -0.529216 0.0544239)
(-0.300664 -0.358591 0.0844993)
(-0.443467 -0.316655 0.114337)
(-0.360659 -0.43124 0.0398521)
(-0.346365 -0.521968 0.0132697)
(-0.377042 -0.507911 -0.024464)
(-0.427673 -0.394057 0.0316158)
(-0.496482 -0.346272 0.0727653)
(-0.527872 -0.254641 0.163628)
(-0.590083 -0.215283 0.241295)
(-0.679035 -0.197366 0.255918)
(-0.575707 -0.206496 0.211511)
(-0.516241 -0.187585 0.181209)
(-0.544584 -0.184731 0.117927)
(-0.539167 -0.171784 0.0919786)
(-0.495924 -0.18392 0.00085015)
(-0.76109 -0.0864079 0.0645435)
(-0.970887 -0.00515307 0.0896821)
(-1.07829 0.0524191 0.103613)
(-1.12739 0.0753432 0.13827)
(-1.16484 0.0360363 0.238028)
(-1.24922 0.0692518 0.267361)
(-1.31477 0.119681 0.349357)
(-1.32813 0.171192 0.432245)
(-1.27054 0.222276 0.524889)
(-1.14544 0.261198 0.604647)
(-0.972778 0.281309 0.64928)
(-0.773167 0.283117 0.65841)
(-0.621814 0.288068 0.645324)
(-0.342019 0.27193 0.645932)
(-0.436405 0.243786 0.876115)
(-0.468804 0.226223 1.00421)
(-0.462003 0.178424 1.08253)
(-0.44302 0.122303 1.01467)
(-0.441609 0.0575925 0.798116)
(-0.712189 -0.0057029 0.744663)
(-0.722626 0.0706859 0.945382)
(-0.741055 0.116538 1.02404)
(-0.745391 0.163527 0.980003)
(-0.694677 0.198132 0.872972)
(-0.836415 0.185889 0.862837)
(-0.878837 0.145406 0.965413)
(-0.882217 0.0879126 1.00141)
(-0.872898 0.0414946 0.926727)
(-0.866853 -0.0394132 0.707111)
(-1.00945 -0.06058 0.675908)
(-1.0236 0.0202192 0.901389)
(-1.03615 0.0693032 0.966559)
(-1.04387 0.121781 0.944617)
(-1.01846 0.173864 0.854691)
(-1.16187 0.163012 0.804771)
(-1.16276 0.110495 0.893325)
(-1.14642 0.0570112 0.914978)
(-1.12965 0.00627296 0.859669)
(-1.11 -0.0732704 0.640174)
(-1.16984 -0.083835 0.595586)
(-1.19497 -0.00631758 0.797106)
(-1.22102 0.043578 0.840521)
(-1.2501 0.0918584 0.812113)
(-1.26758 0.14151 0.717604)
(-1.3173 0.111036 0.610824)
(-1.28888 0.0689296 0.709798)
(-1.2506 0.025016 0.747656)
(-1.21545 -0.0217734 0.716632)
(-1.18569 -0.0935629 0.539881)
(-1.15244 -0.10474 0.472826)
(-1.18026 -0.0413829 0.621589)
(-1.21892 0.00024573 0.641071)
(-1.27317 0.0392562 0.606895)
(-1.30623 0.0744424 0.509602)
(-1.22353 0.0358839 0.414668)
(-1.18664 0.00299249 0.50045)
(-1.12694 -0.0321141 0.531452)
(-1.08488 -0.0600565 0.520377)
(-1.03892 -0.111763 0.38689)
(-0.918175 -0.120118 0.315269)
(-0.922343 -0.109344 0.358257)
(-0.971485 -0.0803495 0.438387)
(-0.955338 -0.0869952 0.425177)
(-0.926457 -0.102545 0.394854)
(-1.00321 -0.0683101 0.381567)
(-0.995139 -0.0629071 0.307559)
(-0.999957 -0.0390239 0.282933)
(-1.04318 -0.027018 0.209297)
(-1.03824 -0.00932753 0.202573)
(-0.805667 -0.104935 0.145422)
(-0.818534 -0.125002 0.157968)
(-0.787425 -0.128217 0.216328)
(-0.823121 -0.141285 0.249443)
(-0.609295 -0.281354 0.132886)
(-0.556309 -0.291063 0.114625)
(-0.502858 -0.326415 0.132233)
(-0.419566 -0.399041 0.115769)
(-0.396235 -0.383505 0.149226)
(-0.487327 -0.283822 0.165064)
(-0.605059 -0.238762 0.183526)
(-0.614478 -0.267475 0.0966533)
(-0.512759 -0.377424 0.0437171)
(-0.438952 -0.459503 0.0278164)
(-0.396677 -0.525635 0.0574746)
(-0.383297 -0.697008 0.121887)
(-0.386411 -0.662461 0.127742)
(-0.404628 -0.379797 0.106617)
(-0.40761 -0.535786 0.0810268)
(-0.398575 -0.601158 0.0433326)
(-0.215353 -0.787244 -0.159331)
(-0.193095 -0.792999 -0.259863)
(-0.115182 -0.703028 -0.369174)
(-0.07843 -0.623169 -0.38514)
(-0.0450546 -0.587977 -0.347481)
(-0.0136103 -0.555052 -0.301121)
(0.0314937 -0.501103 -0.231706)
(0.123905 -0.454717 -0.108719)
(0.124473 -0.579232 -0.121692)
(0.116591 -0.635534 -0.119945)
(0.0847022 -0.693351 -0.157358)
(0.0921263 -0.747851 -0.155551)
(0.100267 -0.804358 -0.174727)
(0.117992 -0.832637 -0.166809)
(0.125984 -0.83939 -0.152597)
(0.126147 -0.825578 -0.129998)
(0.117395 -0.78963 -0.0955601)
(0.103802 -0.733048 -0.0422338)
(0.0362714 -0.652918 0.0338774)
(0.00149488 -0.544287 0.154429)
(0.0160495 -0.297821 0.361206)
(-0.149006 0.0163454 0.448854)
(-0.367485 0.096216 0.349946)
(-0.392693 -0.0388787 0.256725)
(-0.219832 -0.172798 0.252268)
(-0.180349 -0.18934 0.268845)
(-0.157497 -0.178642 0.214875)
(-0.0906879 -0.143821 0.206318)
(-0.000179527 -0.0340047 0.0715194)
(-0.036796 0.109433 0.0812171)
(-0.0811307 0.147658 0.0806846)
(-0.0496975 0.21234 0.171087)
(-0.00699434 0.180075 0.192404)
(0.0143525 0.0366201 0.143153)
(-0.0447479 -0.0294618 0.227911)
(0.0244239 0.0915443 0.324389)
(-0.00246882 -0.0648939 0.287284)
(0.0772401 0.142684 0.248705)
(0.0909323 -0.0246982 0.227306)
(-0.0210638 -0.254443 0.45591)
(0.0501318 -0.357659 0.545044)
(0.172389 -0.501536 0.515432)
(0.167619 -0.692267 0.352696)
(0.0756367 -0.816288 0.144916)
(0.0586458 -0.888086 -0.00712637)
(0.0652957 -0.922616 -0.119086)
(0.0632348 -0.948852 -0.197305)
(0.0601821 -0.9634 -0.248403)
(0.0520822 -0.961558 -0.279131)
(0.0419458 -0.941635 -0.292501)
(0.0293661 -0.904071 -0.289327)
(0.0237312 -0.829324 -0.249516)
(0.00740297 -0.783711 -0.328571)
(0.04353 -0.702917 -0.225069)
(0.0475581 -0.652793 -0.211115)
(0.0447663 -0.635397 -0.231828)
(0.00467911 -0.701291 -0.325045)
(-0.0224827 -0.74088 -0.382863)
(-0.0572095 -0.776209 -0.410593)
(-0.0731002 -0.842925 -0.401512)
(-0.13172 -0.903297 -0.345993)
(-0.0937267 -0.967729 -0.332159)
(-0.0887124 -0.978388 -0.373213)
(-0.053647 -0.917026 -0.41794)
(-0.043451 -0.867067 -0.431722)
(-0.017656 -0.824903 -0.404059)
(-0.00948681 -0.868236 -0.341072)
(-0.039171 -0.900535 -0.374087)
(-0.0558566 -0.94722 -0.39659)
(-0.0235984 -0.99027 -0.405797)
(-0.0484892 -1.05866 -0.420685)
(-0.066449 -1.04144 -0.424468)
(-0.0931379 -0.919281 -0.345318)
(-0.186058 -0.76081 -0.224723)
(-0.19734 -0.613727 -0.0416323)
(-0.099431 -0.732449 -0.197891)
(-0.0792845 -0.83841 -0.260492)
(-0.0592043 -0.92764 -0.324307)
(-0.060823 -0.945187 -0.334998)
(-0.0278128 -0.82853 -0.382251)
(-0.0240244 -0.723604 -0.338679)
(-0.0321652 -0.541121 -0.255692)
(-0.0164122 -0.352923 -0.1657)
(0.0355299 -0.0890888 -0.211554)
(-0.246211 -0.432754 0.0726303)
(-0.327309 -0.460315 0.025939)
(0.218195 -0.119223 -0.243492)
(-0.17266 -0.246951 0.0420144)
(-0.217794 -0.26606 -0.118351)
(-0.258119 -0.268327 -0.10439)
(-0.208232 -0.281234 -0.022075)
(0.0809002 0.141124 -0.21978)
(0.102456 0.0600864 -0.232814)
(0.100628 1.80787e-05 -0.262097)
(0.0958116 -0.000323854 -0.266716)
(-0.080414 -0.429104 -0.202825)
(-0.133337 -0.449447 -0.223428)
(-0.186504 -0.457791 -0.207231)
(-0.249442 -0.444637 -0.169563)
(-0.169119 -0.546946 -0.184567)
(-0.12698 -0.558699 -0.257769)
(-0.0964396 -0.564952 -0.292179)
(-0.0608752 -0.553162 -0.292706)
(-0.0509687 -0.742041 -0.349886)
(-0.081748 -0.756704 -0.332719)
(-0.106467 -0.769051 -0.282239)
(-0.147301 -0.759399 -0.195083)
(-0.134606 -0.821135 -0.182627)
(-0.128882 -0.882027 -0.200626)
(-0.0982161 -0.904625 -0.297876)
(-0.0727662 -0.871689 -0.374453)
(-0.0493555 -0.851408 -0.400969)
(-0.0769701 -0.96686 -0.371495)
(-0.112291 -0.988637 -0.336319)
(-0.138233 -1.00894 -0.28409)
(-0.137353 -1.09158 -0.347173)
(-0.0802113 -1.06581 -0.399739)
(-0.0726488 -1.14348 -0.441217)
(-0.0493376 -1.12185 -0.473768)
(-0.0268162 -1.11277 -0.458961)
(-0.00319793 -1.0409 -0.415442)
(0.0121894 -1.07298 -0.406511)
(-0.0126428 -1.15139 -0.469775)
(-0.0398623 -1.17855 -0.494357)
(-0.0686855 -1.20684 -0.463177)
(-0.131731 -1.22751 -0.379269)
(-0.135076 -1.16513 -0.36939)
(-0.283858 -1.04544 -0.225236)
(-0.457642 -1.14516 -0.0768736)
(-0.464037 -1.09912 -0.0674256)
(-0.416291 -1.04468 -0.0647707)
(-0.303113 -1.03516 -0.073878)
(-0.255881 -0.966431 -0.0641137)
(-0.309438 -0.943949 -0.0577009)
(-0.342559 -0.848161 -0.0422654)
(-0.378278 -0.712918 -0.0379344)
(-0.473984 -0.62626 -0.0367442)
(-0.410155 -0.401138 -0.0341773)
(-0.465276 -0.66021 -0.005853)
(-0.317059 -0.457213 0.0245317)
(-0.638599 -0.398533 0.00547016)
(-0.815333 -0.379249 0.0601658)
(-0.917671 -0.384452 0.0846492)
(-0.96752 -0.397279 0.124384)
(-0.979576 -0.525317 0.0977929)
(-0.940101 -0.689358 0.0653959)
(-0.923857 -0.750113 0.0525212)
(-0.874461 -0.848398 0.0364836)
(-0.858873 -0.895585 0.0305102)
(-0.821083 -0.927789 0.00765383)
(-0.703878 -0.967284 -0.0229647)
(-0.592751 -1.00169 -0.0419687)
(-0.627007 -0.952311 -0.0171929)
(-0.485255 -0.971207 -0.0307199)
(-0.503175 -0.892917 -0.030129)
(-0.530786 -0.796485 -0.0232862)
(-0.559636 -0.730291 -0.0194779)
(-0.686628 -0.712043 -0.00975841)
(-0.675179 -0.597835 -0.00773398)
(-0.824173 -0.57705 0.0303759)
(-0.918346 -0.559532 0.0504417)
(-0.881349 -0.696915 0.0231869)
(-0.800513 -0.704337 0.0122316)
(-0.777672 -0.789487 0.00231397)
(-0.661146 -0.797829 -0.0107396)
(-0.636015 -0.88219 -0.0170123)
(-0.748662 -0.865906 -0.00510442)
(-0.825603 -0.850412 0.00448411)
(-0.86317 -0.772847 0.0135503)
(-0.801633 -0.738707 -0.0117049)
(-0.623989 -0.611749 0.00201452)
(-0.847112 -0.659487 0.0117434)
(-0.867908 -0.518214 0.0521122)
(-0.870299 -0.379695 0.0581725)
(-0.843004 -0.282115 0.121649)
(-0.832076 -0.302123 0.0765557)
(-0.878753 -0.350537 0.0526034)
(-0.874783 -0.203823 0.129096)
(-0.893666 -0.184182 0.174152)
(-0.760291 -0.161436 0.1585)
(-0.765717 -0.128993 0.259238)
(-0.776818 -0.120693 0.302046)
(-0.82023 -0.108587 0.355443)
(-0.82765 -0.119171 0.352817)
(-0.641153 -0.18157 0.251095)
(-0.606364 -0.173504 0.248442)
(-0.566718 -0.180329 0.215555)
(-0.550493 -0.175463 0.188923)
(-0.568486 -0.191043 0.120337)
(-0.338201 -0.194481 0.0765503)
(-0.319832 -0.188983 0.101475)
(-0.328732 -0.191735 0.113959)
(-0.359841 -0.19864 0.124184)
(-0.448249 -0.216675 0.141663)
(-0.404424 -0.253088 0.0595967)
(-0.381362 -0.284584 0.0682438)
(-0.409843 -0.340608 0.0469685)
(-0.315296 -0.42636 0.0357379)
(-0.311101 -0.393845 0.0488656)
(-0.283026 -0.415677 0.0152895)
(-0.192498 -0.41893 -0.0207613)
(-0.336426 -0.253766 0.0352733)
(-0.402154 -0.330453 0.0410228)
(-0.247709 -0.456792 -0.00684066)
(-0.291059 -0.459175 0.00010905)
(-0.450908 -0.320829 0.0718936)
(-0.523669 -0.298685 0.131272)
(-0.497282 -0.318339 0.136323)
(-0.470433 -0.336485 0.111373)
(-0.45847 -0.3503 0.094287)
(-0.493153 -0.372839 0.00855984)
(-0.710478 -0.317607 0.0631804)
(-0.717688 -0.529526 0.0389563)
(-0.549059 -0.553917 -0.00180921)
(-0.510041 -0.606476 -0.00410542)
(-0.465908 -0.648669 -0.0176342)
(-0.437126 -0.651919 -0.0214195)
(-0.413035 -0.530542 -0.0233023)
(-0.411361 -0.540606 -0.0485864)
(-0.41026 -0.54101 -0.0345673)
(-0.335611 -0.549988 -0.0174565)
(-0.267766 -0.595345 -0.00774072)
(-0.319848 -0.580301 -0.00388801)
(-0.403545 -0.512529 0.00687878)
(-0.33217 -0.534891 -0.00450926)
(-0.439019 -0.629782 -0.0120815)
(-0.293118 -0.472785 -0.00548187)
(-0.210674 -0.539193 -0.0187624)
(-0.281423 -0.524115 -0.0166164)
(-0.39454 -0.435687 -0.000927255)
(-0.413936 -0.362434 -0.0105471)
(-0.26082 -0.393836 -0.0113865)
(-0.15721 -0.422385 -0.0368466)
(-0.136591 -0.398945 -0.0231578)
(-0.238226 -0.205008 0.0219453)
(-0.382727 -0.342574 -0.00222705)
(-0.252075 -0.474103 -0.0200765)
(-0.219319 -0.467495 -0.0240099)
(-0.122261 -0.392283 -0.0305196)
(-0.219123 -0.19416 0.038803)
(-0.34686 -0.337623 0.0119817)
(-0.366034 -0.362928 0.0541237)
(-0.195932 -0.510549 -0.0111731)
(-0.17414 -0.467533 0.0183388)
(-0.110017 -0.419655 0.00140037)
(-0.222137 -0.228722 0.0444028)
(-0.325723 -0.341522 0.05224)
(-0.334817 -0.338609 0.0568728)
(-0.180588 -0.462722 0.016394)
(-0.10931 -0.408446 -0.000393201)
(-0.231679 -0.220161 0.0618398)
(-0.28556 -0.221188 0.0772095)
(-0.240147 -0.229954 0.0709697)
(-0.34998 -0.33665 0.0783737)
(-0.189579 -0.464829 0.0480521)
(-0.117764 -0.415152 0.0368764)
(-0.140452 -0.449175 -0.00446074)
(-0.196439 -0.497088 0.0254094)
(-0.381343 -0.350349 0.0791132)
(-0.334201 -0.624866 -0.00370839)
(-0.355704 -0.63156 -0.0117737)
(-0.499153 -0.511504 0.0579366)
(-0.650979 -0.444487 0.0983908)
(-0.666296 -0.286631 0.136451)
(-0.797587 -0.271492 0.1706)
(-0.890244 -0.320701 0.166527)
(-1.02049 -0.488882 0.126009)
(-1.10719 -0.495245 0.167732)
(-1.13207 -0.502932 0.192868)
(-1.11219 -0.505357 0.215828)
(-1.04909 -0.501711 0.238679)
(-0.943804 -0.490847 0.260543)
(-0.795329 -0.467594 0.287126)
(-0.641244 -0.432552 0.326586)
(-0.398986 -0.380548 0.39465)
(-0.166602 -0.291032 0.481288)
(0.0331701 -0.14951 0.486316)
(0.33078 -0.158206 0.42914)
(0.333553 -0.218539 0.380403)
(0.204519 -0.126853 0.490334)
(0.271211 -0.001711 0.769377)
(0.282177 0.0479297 1.03434)
(0.267535 0.0829141 1.14307)
(0.24987 0.13532 1.09083)
(0.21282 0.124093 0.951957)
(0.143148 0.121262 0.699635)
(0.0406484 0.185024 0.400947)
(0.175051 0.511445 0.422896)
(0.424519 0.514389 0.372665)
(0.612241 0.536435 0.373757)
(0.854939 0.495597 0.350481)
(1.01246 0.4161 0.317372)
(1.07732 0.323372 0.274263)
(1.06368 0.256135 0.234445)
(1.0156 0.21132 0.198416)
(1.03515 0.158666 0.166875)
(1.04716 0.119101 0.143993)
(0.987486 0.0931735 0.0904997)
(0.881846 0.0423772 0.0678039)
(0.715876 -0.0227906 0.0543029)
(0.470467 -0.109906 0.0206244)
(0.242511 -0.216945 -0.0220969)
(0.10293 -0.624147 -0.110585)
(0.179181 -0.385699 -0.0795875)
(-0.179363 -0.173205 0.00623334)
(-0.100221 -0.396821 -0.0405248)
(-0.109385 -0.32194 -0.0671719)
(-0.111579 -0.351592 -0.0755044)
(-0.108734 -0.316088 -0.0662102)
(-0.0772846 -0.24738 -0.0626448)
(-0.141467 -0.200943 -0.0386127)
(-0.223643 0.140955 0.147159)
(-0.145935 0.441713 0.138535)
(-0.0495637 0.574605 0.0795493)
(0.0235459 0.642478 0.0770894)
(0.107464 0.667745 0.160598)
(0.202648 0.711817 0.277038)
(0.298699 0.747059 0.329673)
(0.38583 0.744053 0.364921)
(0.465797 0.6841 0.373227)
(0.532193 0.549023 0.370478)
(0.583196 0.331504 0.3349)
(0.56385 0.00836884 0.26004)
(0.384069 -0.328436 0.251176)
(0.284802 -0.327011 0.315761)
(0.2198 -0.280817 0.325551)
(0.153243 -0.189231 0.333236)
(0.145006 0.00909104 0.309282)
(0.289455 0.0107247 0.336065)
(0.44891 -0.155931 0.328793)
(0.59906 -0.253408 0.341373)
(0.637927 -0.342697 0.350929)
(0.618811 -0.43509 0.352998)
(0.473571 -0.540854 0.335454)
(0.105316 -0.567967 0.31983)
(-0.17177 -0.302632 0.305078)
(-0.0448082 -0.129792 0.355826)
(0.226324 -0.147375 0.237694)
(0.28255 -0.397758 0.0726817)
(0.00950737 -0.513227 0.236192)
(-0.139593 -0.741758 -0.137596)
(0.206206 -0.716501 -0.478453)
(0.304614 -0.38754 -0.175553)
(0.331738 -0.375941 0.0948762)
(0.343023 -0.550063 0.187322)
(0.324042 -0.892247 0.122432)
(0.5261 -0.870904 0.0654413)
(0.602289 -0.689047 0.0982104)
(0.566934 -0.534812 0.139278)
(0.497293 -0.392162 0.189711)
(0.330331 -0.226798 0.246556)
(0.352091 -0.341547 0.19636)
(0.413758 -0.371989 0.143251)
(0.494582 -0.359136 0.0815678)
(0.5989 -0.288566 -0.0543678)
(0.849338 0.200417 -0.113135)
(0.897913 0.476344 -0.0179501)
(0.844761 0.672083 0.0543343)
(0.743909 0.767825 0.0963099)
(0.611169 0.790566 0.142493)
(0.461102 0.760939 0.157393)
(0.295788 0.700671 0.1625)
(0.125108 0.636972 0.0985413)
(-0.0446199 0.592795 0.0543579)
(-0.16576 0.530944 0.0681376)
(-0.295128 0.411873 0.136192)
(-0.407867 0.172164 0.16737)
(-0.284666 -0.153599 0.00601441)
(-0.396362 -0.087413 0.0406888)
(-0.477001 -0.0231024 0.0699943)
(-0.541619 0.0954686 0.11456)
(-0.53297 0.0615494 0.0905739)
(-0.494542 -0.0719701 0.021431)
(-0.456774 -0.129016 0.0109565)
(-0.392811 -0.181244 -0.0119214)
(-0.297936 -0.235066 -0.0274537)
(-0.189746 -0.265382 -0.041042)
(-0.144067 -0.241766 -0.03394)
(-0.196434 -0.210371 -0.0284012)
(-0.182229 -0.353885 -0.0463808)
(-0.122724 -0.348543 -0.0521025)
(-0.0998408 -0.366294 -0.0798393)
(-0.0768057 -0.402022 -0.114955)
(-0.0471078 -0.581173 -0.230893)
(-0.0847101 -0.521074 -0.163883)
(-0.0985863 -0.625577 -0.129254)
(-0.145678 -0.62266 -0.0782126)
(-0.186899 -0.542558 -0.0619313)
(-0.286683 -0.356792 -0.0249728)
(-0.260926 0.159104 0.116224)
(-0.10973 0.378885 0.272383)
(-0.013888 0.467992 0.41137)
(0.0618635 0.473044 0.539374)
(0.134113 0.414428 0.614131)
(0.186125 0.307673 0.647332)
(0.237074 0.159712 0.622775)
(0.226233 -0.0106097 0.524824)
(0.0940613 -0.129721 0.420546)
(-0.0196029 -0.0952428 0.434129)
(-0.0378932 0.0263862 0.410769)
(-0.0351694 0.147766 0.413938)
(0.0388447 0.251961 0.352721)
(0.201197 0.138177 0.367574)
(0.15633 0.278125 0.441013)
(-0.0656375 0.15902 -0.103219)
(-0.176389 -0.06587 -0.636482)
(-0.181773 -0.303831 -0.527894)
(-0.169256 -0.341447 -0.296362)
(-0.146175 -0.299852 -0.0916146)
(-0.0624326 -0.583274 -0.104406)
(-0.0283903 -0.860462 -0.0926391)
(0.0019443 -1.01815 -0.0908269)
(0.0322258 -1.14257 -0.10063)
(0.0654815 -1.22651 -0.114978)
(0.0960698 -1.27955 -0.128989)
(0.122819 -1.30642 -0.140987)
(0.146928 -1.31532 -0.15305)
(0.167922 -1.31369 -0.165549)
(0.186209 -1.30505 -0.176323)
(0.201788 -1.29091 -0.184769)
(0.215629 -1.27166 -0.189858)
(0.227873 -1.24696 -0.192498)
(0.239056 -1.21545 -0.191252)
(0.248586 -1.17581 -0.185965)
(0.254307 -1.1258 -0.175059)
(0.251392 -1.0628 -0.158355)
(0.194488 -0.999393 -0.138471)
(0.139568 -0.914154 -0.122269)
(0.164084 -0.829812 -0.0865858)
(0.187333 -0.728946 -0.0877876)
(0.203462 -0.560011 -0.087689)
(0.246086 -0.442671 -0.0840802)
(0.0717263 -0.0305714 -0.0949691)
(0.365712 -0.298397 0.043969)
(0.245431 -0.551011 -0.0566412)
(0.285747 -0.0947002 -0.0265685)
(0.180378 -0.0368736 -0.146739)
(0.201552 -0.112563 -0.123911)
(0.194545 -0.119373 -0.0801222)