/*--------------------------------*- C++ -*----------------------------------*\
| =========                 |                                                 |
| \\      /  F ield         | OpenFOAM: The Open Source CFD Toolbox           |
|  \\    /   O peration     | Version:  v2012                                 |
|   \\  /    A nd           | Website:  www.openfoam.com                      |
|    \\/     M anipulation  |                                                 |
\*---------------------------------------------------------------------------*/
FoamFile
{
    version     2.0;
    format      ascii;
    class       volScalarField;
    location    "780";
    object      alphat;
}
// * * * * * * * * * * * * * * * * * * * * * * * * * * * * * * * * * * * * * //

dimensions      [1 -1 -1 0 0 0 0];


internalField   nonuniform List<scalar> 
18258
(
0.00484512
0.00211059
0.00173059
0.00149983
0.00099226
0.00162387
0.00225506
0.00268433
0.00281612
0.00279186
0.00289051
0.00487746
0.00684468
0.00845897
0.00888639
0.00887377
0.00805611
0.00769298
0.00836111
0.0102757
0.00863597
0.005534
0.00662361
0.00766465
0.00835425
0.00740455
0.00598731
0.00554262
0.00501914
0.00418528
0.003513
0.0024091
0.00175332
0.00162412
0.00147317
0.00167978
0.00183004
0.00195235
0.00199588
0.00202753
0.00201401
0.00200277
0.00194871
0.00191425
0.00185546
0.00153122
0.0018358
0.00192114
0.00210069
0.0028922
0.00310232
0.00260756
0.002885
0.0025732
0.00169559
0.00194166
0.00210791
0.00215339
0.00212561
0.00203723
0.00200732
0.00198198
0.00194991
0.00191188
0.00188864
0.00190742
0.00192704
0.00190594
0.00181206
0.00173606
0.00161308
0.00148983
0.00139845
0.00132768
0.00127433
0.00121519
0.00114876
0.00100904
0.000935141
0.00123816
0.00155433
0.00166071
0.00235378
0.00286979
0.00288946
0.00216283
0.00154123
0.00159952
0.00177841
0.00179657
0.00152268
0.00181088
0.00205158
0.00212648
0.00221603
0.00247674
0.00281838
0.00274684
0.00244623
0.00225381
0.00221602
0.00253853
0.00241169
0.00312747
0.00315151
0.00274932
0.00252947
0.00284661
0.00367091
0.00395091
0.00307319
0.00288627
0.00282922
0.00279326
0.00252602
0.00261405
0.00237365
0.00213868
0.00232986
0.00281619
0.00267142
0.00291821
0.00302379
0.00283654
0.00328651
0.00378935
0.00373402
0.00298796
0.00243561
0.00227034
0.00228759
0.00139908
0.00151085
0.00162831
0.00166819
0.00169603
0.00171976
0.00183368
0.00182955
0.00180271
0.00179873
0.00183066
0.00100877
0.00109287
0.00112002
0.00112786
0.00107134
0.00106033
0.0010406
0.00102453
0.000965922
0.000924202
0.0011059
0.00124185
0.00135274
0.00148244
0.00167603
0.00191291
0.00216186
0.00241345
0.00257994
0.00262749
0.00267553
0.00257865
0.0024811
0.0025697
0.00258471
0.00256815
0.00253372
0.0024903
0.00243167
0.002324
0.00244921
0.0024423
0.00229415
0.00196571
0.0020097
0.00200621
0.00205837
0.00204773
0.00206831
0.00203885
0.0020041
0.00190745
0.00177207
0.00147462
0.00144776
0.00146488
0.00187957
0.00228078
0.00352183
0.00429318
0.00498005
0.00532546
0.00569531
0.00461289
0.00513639
0.00396283
0.00355671
0.00451887
0.00590937
0.00337236
0.00184382
0.0034971
0.00310504
0.00225576
0.0020081
0.00206985
0.00206653
0.00236284
0.00272526
0.00302839
0.00317528
0.00330394
0.00340716
0.00352057
0.00366433
0.00370386
0.00357816
0.0030281
0.00365066
0.00296623
0.00346653
0.00313758
0.00212557
0.00218973
0.00234028
0.00214876
0.00209249
0.00199966
0.00180675
0.00224806
0.00290665
0.00337191
0.003855
0.00514017
0.00475536
0.00456175
0.00353165
0.00341538
0.00177264
0.00252851
0.00262161
0.00295449
0.00196298
0.00179286
0.0017026
0.00224461
0.00260032
0.00306772
0.00340378
0.0040433
0.00313633
0.00358431
0.00324665
0.00226676
0.00217735
0.0031145
0.00335247
0.00275515
0.00246048
0.00308924
0.00292577
0.0020768
0.00165024
0.00253795
0.00262473
0.00188947
0.00471675
0.00502204
0.00478322
0.00583967
0.00730938
0.00834791
0.00778515
0.00690306
0.00769366
0.00609081
0.00590905
0.00632254
0.00530656
0.00370496
0.0037983
0.00392819
0.00403491
0.00433222
0.0046021
0.00493149
0.00524578
0.00476806
0.00395882
0.00299546
0.00206046
0.00203277
0.00202269
0.00181628
0.00269163
0.00407159
0.00404397
0.00229756
0.00133934
0.00151508
0.00171097
0.00169427
0.00122918
0.00092526
0.00159392
0.00182258
0.00185205
0.00180609
0.00170526
0.00178192
0.00286161
0.00440851
0.00484411
0.00501718
0.00518089
0.00529645
0.00536064
0.00538081
0.0053919
0.00540558
0.00541764
0.00543617
0.00541932
0.00530397
0.00466538
0.00293345
0.00171472
0.00159278
0.00175785
0.00188918
0.00200382
0.00170501
0.00104257
0.00166514
0.00213218
0.00245079
0.00247172
0.00230681
0.00223776
0.00352854
0.00469161
0.00553026
0.00570021
0.00577593
0.00571265
0.0057046
0.00558038
0.0055421
0.00486061
0.00347685
0.00380141
0.00408186
0.0041289
0.00422458
0.00436824
0.00426753
0.00403214
0.00588927
0.00679663
0.00688379
0.00702961
0.00694568
0.00682529
0.0065151
0.00616076
0.00518626
0.00388918
0.00245395
0.002505
0.00266646
0.00264066
0.00229835
0.00242181
0.00262876
0.00265514
0.00274206
0.00307549
0.00349333
0.00333214
0.00286732
0.00243551
0.00226765
0.00221997
0.00212979
0.00159516
0.00161916
0.00157403
0.00160007
0.00214924
0.00255793
0.00295016
0.00418474
0.00373279
0.00303552
0.00481551
0.00493516
0.00530331
0.00585837
0.00600334
0.00665249
0.00462755
0.00416966
0.00428335
0.00349884
0.0032384
0.0032728
0.00328509
0.00306132
0.00335088
0.00332157
0.00320158
0.00353473
0.0038955
0.00513692
0.00622496
0.00656836
0.00676706
0.00684902
0.00682453
0.00669292
0.00673585
0.00591778
0.0059139
0.00566328
0.00550022
0.00544212
0.00517224
0.00591778
0.00614389
0.00621948
0.00637488
0.00661681
0.0064364
0.00623638
0.006084
0.00597345
0.00585777
0.00591949
0.00602984
0.0061475
0.00631249
0.00653266
0.00656831
0.00634033
0.00616783
0.00604966
0.00593855
0.00594279
0.00604184
0.00615717
0.00632059
0.00652906
0.00641285
0.00625085
0.00610639
0.00598779
0.00588326
0.00567726
0.0058145
0.00596533
0.00608955
0.00616995
0.00533068
0.00569812
0.00560003
0.00506999
0.00474505
0.00360339
0.00389969
0.00411244
0.00447919
0.00497194
0.00506876
0.00425334
0.0036449
0.00355158
0.00352286
0.0036057
0.00363563
0.00365346
0.00412837
0.0062242
0.00626676
0.00628527
0.0062887
0.00537636
0.00522314
0.00486485
0.00890156
0.00828795
0.00718067
0.0059173
0.00316881
0.00271611
0.00321746
0.00391286
0.00437483
0.00482771
0.00320511
0.00198536
0.00231396
0.00239888
0.0023397
0.00216216
0.00180076
0.0016623
0.00150872
0.00162382
0.00287625
0.00458985
0.00516978
0.00522447
0.00517248
0.0050716
0.00494884
0.0047778
0.00471695
0.00595337
0.0080656
0.00909179
0.00905342
0.00777799
0.00634488
0.00358205
0.00185071
0.00137084
0.00145949
0.0016048
0.00188251
0.00167415
0.00142582
0.00156029
0.00147353
0.00298034
0.00513573
0.00652948
0.00775215
0.00763208
0.00663804
0.00541753
0.00512968
0.00525008
0.00533129
0.00540047
0.0054714
0.00552014
0.00548966
0.00499704
0.00308742
0.00184278
0.00163703
0.00176009
0.00206288
0.00219246
0.00221527
0.00218472
0.00189392
0.00313226
0.00497347
0.00316306
0.00172585
0.00186472
0.00185094
0.00326537
0.00326041
0.00318999
0.0049627
0.00524755
0.00523531
0.0049193
0.00469584
0.00278044
0.00315628
0.00316708
0.00318382
0.00323607
0.00163478
0.00178215
0.00183789
0.001979
0.00173016
0.00219579
0.00056827
0.000788047
0.000915437
0.000995323
0.00107234
0.00105191
0.00201249
0.00204234
0.00194923
0.00189877
0.00240913
0.00258474
0.00264156
0.0024327
0.0022446
0.0023896
0.00239501
0.00225739
0.00213809
0.0022166
0.00221799
0.00212533
0.0018077
0.00169391
0.00185971
0.00183982
0.0018253
0.00327774
0.00327175
0.0030963
0.00508661
0.00500532
0.00560561
0.00556882
0.00556152
0.00553847
0.00559766
0.00562928
0.00565344
0.00568132
0.00567028
0.00561576
0.00781934
0.00552346
0.00481999
0.00278778
0.00268548
0.00189661
0.00166214
0.00195717
0.00209326
0.0022694
0.00221811
0.00233829
0.00233549
0.00247816
0.00230017
0.0020424
0.00312811
0.00334174
0.00326375
0.00332828
0.00324992
0.00323077
0.00320706
0.00316161
0.0031068
0.00184989
0.00181464
0.00212493
0.00223058
0.00239679
0.00241847
0.00247097
0.00234346
0.00206099
0.00199498
0.00229759
0.00226658
0.00231068
0.00217855
0.00216949
0.00193269
0.00198167
0.00399696
0.00738201
0.00379753
0.00421853
0.0038216
0.0043468
0.00380727
0.00328329
0.00336041
0.00295965
0.00308729
0.00323849
0.00329708
0.00346531
0.00408469
0.00393252
0.00345194
0.0033517
0.00328569
0.00309798
0.00278855
0.00292117
0.00294744
0.00301071
0.003346
0.00383928
0.00430381
0.00523145
0.00507679
0.00444663
0.00406566
0.00426449
0.00433768
0.00546162
0.00510295
0.00507214
0.00534982
0.00529612
0.00502673
0.00476285
0.00459731
0.00394627
0.00401094
0.00459063
0.00444232
0.00457857
0.00449878
0.00467733
0.00476281
0.00457143
0.00424789
0.00446573
0.0044563
0.00494928
0.00481309
0.00446462
0.00408406
0.00436595
0.00431308
0.00498296
0.00469006
0.0043861
0.00403757
0.00386752
0.00438978
0.00430918
0.00488676
0.00502874
0.00503107
0.00438554
0.00428315
0.00509472
0.0049012
0.00473467
0.00493211
0.00408392
0.00419997
0.00517499
0.00528331
0.00501276
0.0041846
0.004248
0.00364144
0.00428394
0.00533295
0.00503735
0.00412839
0.00342504
0.00479279
0.00504182
0.00533428
0.00504076
0.00548969
0.00591333
0.00481958
0.00524319
0.00685208
0.00522816
0.00606714
0.00620174
0.00623848
0.00624199
0.00626651
0.00629831
0.00663628
0.00645713
0.00410437
0.00490821
0.00476724
0.00398781
0.00339165
0.00373606
0.00402404
0.00408236
0.00418594
0.00434525
0.00427069
0.00413068
0.00604491
0.00689215
0.00704658
0.00718577
0.00706517
0.00688493
0.00647781
0.00598306
0.00497059
0.00370914
0.00231647
0.00236303
0.00252012
0.00249807
0.0021691
0.0016364
0.00107447
0.00159181
0.0016425
0.00154502
0.00140703
0.00124073
0.0012808
0.0023416
0.00449448
0.00627382
0.00697455
0.00755473
0.00812995
0.0086325
0.00901161
0.00929437
0.00949491
0.00962443
0.00965361
0.00947703
0.00866289
0.00828579
0.00781521
0.00742742
0.00688013
0.00643309
0.00727441
0.00798383
0.00841694
0.00890486
0.00912797
0.00902948
0.007837
0.00761736
0.00878351
0.0108176
0.00920574
0.0115637
0.0135817
0.0105795
0.00949542
0.00947616
0.0105935
0.010798
0.010422
0.0098345
0.00916033
0.00830346
0.00874219
0.00913603
0.00951145
0.00985848
0.0107503
0.0109052
0.0108189
0.010635
0.0104021
0.0101004
0.00964527
0.00901087
0.00821594
0.00738647
0.00644391
0.00452618
0.00217574
0.00247472
0.00242057
0.00260138
0.00254369
0.00118053
0.00130017
0.00131329
0.0013184
0.001242
0.00141012
0.00204344
0.0032866
0.00236625
0.00194311
0.00135718
0.00159966
0.00266725
0.00452319
0.00508932
0.00518862
0.00576547
0.00737668
0.00801317
0.00844583
0.00880838
0.00901244
0.00890531
0.00863721
0.00815857
0.00757076
0.00732285
0.00692108
0.00654756
0.00633557
0.00611786
0.00574234
0.0045307
0.00432274
0.00450047
0.00444677
0.00425698
0.00454673
0.00470973
0.00470472
0.00475605
0.00480089
0.00494174
0.00510766
0.00525197
0.00532737
0.00535498
0.00536335
0.00537394
0.00538237
0.00539868
0.00538037
0.00526263
0.00462118
0.0028903
0.0016875
0.0015604
0.0017109
0.00180931
0.00185146
0.00164419
0.00105835
0.0016449
0.00212893
0.00218339
0.002395
0.0024702
0.00261765
0.00291559
0.00336929
0.00347665
0.00308538
0.00292306
0.00286108
0.00278829
0.00238754
0.00297428
0.00327893
0.00327236
0.00324096
0.00350232
0.00430991
0.00414006
0.00365103
0.00361065
0.00357448
0.00323346
0.00318294
0.00347729
0.00351549
0.00364688
0.00427635
0.00512855
0.00475745
0.00433285
0.00415317
0.00383522
0.00337463
0.0030514
0.00375933
0.00308234
0.00161946
0.00137708
0.00137716
0.0013825
0.00133329
0.00157651
0.00165478
0.00167257
0.0015534
0.00172591
0.00192224
0.00186098
0.00211806
0.00208703
0.00186382
0.00184775
0.0020012
0.00211493
0.0021731
0.00223343
0.00363849
0.00374942
0.00290589
0.00419213
0.00484688
0.00482631
0.00511034
0.00420612
0.0037596
0.00445873
0.00516399
0.00594123
0.00469692
0.00443228
0.00454522
0.0020893
0.00109919
0.00155105
0.00192496
0.00214208
0.00207625
0.00196116
0.00165776
0.00293824
0.00301891
0.00478039
0.00536212
0.00542608
0.00539401
0.0055871
0.0061978
0.00725277
0.00791968
0.00811324
0.00799093
0.00766154
0.00705208
0.006452
0.00638935
0.00615762
0.00597701
0.0059162
0.00514894
0.00453427
0.00483817
0.00476187
0.00492072
0.00499401
0.00504667
0.00510037
0.00519089
0.00530012
0.00539894
0.00546598
0.00551034
0.00554783
0.00558655
0.00562572
0.00566822
0.0056908
0.00563631
0.00509379
0.00305729
0.00182364
0.00166409
0.0017756
0.00208675
0.00219697
0.00236125
0.00209721
0.00110482
0.00129867
0.00225723
0.00250162
0.00231418
0.00216596
0.00212759
0.00178233
0.00322621
0.00318345
0.0049923
0.00561387
0.00569198
0.0056761
0.00563214
0.00558287
0.00553758
0.0055007
0.00547177
0.00544087
0.00539583
0.00534091
0.00528817
0.00523469
0.00514375
0.00501094
0.00487823
0.00508876
0.00522749
0.00543346
0.00568657
0.00583014
0.00573177
0.00556221
0.00546911
0.00548798
0.00553273
0.00558081
0.0056243
0.00564517
0.00558397
0.00526436
0.00494237
0.00313285
0.00317349
0.00156372
0.0017373
0.00200454
0.00207014
0.00224896
0.00223938
0.00176169
0.00137207
0.00154719
0.00144564
0.0025816
0.00283812
0.00314627
0.00311488
0.00169336
0.00173636
0.00180457
0.00203659
0.0018937
0.0018295
0.00449575
0.00431052
0.00451443
0.00554145
0.00477393
0.00329858
0.00361789
0.00503303
0.00530673
0.00321043
0.00240716
0.00267166
0.00338417
0.00498019
0.00504155
0.00478851
0.00476238
0.00348093
0.00427751
0.00514221
0.00500203
0.00390545
0.00269144
0.00200298
0.000975435
0.00185574
0.00158736
0.00388237
0.00429529
0.0042438
0.00464073
0.00493041
0.00498118
0.00484023
0.00429471
0.00437926
0.00442208
0.00503676
0.00505907
0.00428531
0.00361788
0.00294093
0.00296662
0.00302356
0.00335045
0.00419522
0.00395266
0.00346462
0.00336011
0.00328814
0.00309362
0.00279205
0.00244978
0.00246648
0.00229564
0.00222165
0.00350197
0.00466146
0.00549691
0.00565526
0.00571289
0.00562567
0.00558633
0.00542703
0.00534475
0.00464347
0.00592679
0.00626413
0.0060446
0.00608911
0.00612683
0.00617313
0.00617355
0.00605713
0.00520567
0.00310917
0.00203108
0.0022926
0.00247467
0.002324
0.00231076
0.00246262
0.00233657
0.00205233
0.00332501
0.00324968
0.00519533
0.00588274
0.00600887
0.00601637
0.00599212
0.00597194
0.00597941
0.00629415
0.00615119
0.00623763
0.00657561
0.00658705
0.00666533
0.00625709
0.00617676
0.00612531
0.00609084
0.0060351
0.00588674
0.00520927
0.00505016
0.00573515
0.00591212
0.00599094
0.0060459
0.00611161
0.0061978
0.00644464
0.00662855
0.00669702
0.00641766
0.00631507
0.00616767
0.00595867
0.00590983
0.00590025
0.00589622
0.00586805
0.00571616
0.00503247
0.00323625
0.00331625
0.00197293
0.00198591
0.00228744
0.00240275
0.00236008
0.00218563
0.00213105
0.00365745
0.00416346
0.00442997
0.00477014
0.00455587
0.00452932
0.00517779
0.00501126
0.00447164
0.0046511
0.00416876
0.0039743
0.0038407
0.00386042
0.00203725
0.00219823
0.00229272
0.00225449
0.00215578
0.00192267
0.00176311
0.00321725
0.00319371
0.00315178
0.00187484
0.00183386
0.0021606
0.00209839
0.00191971
0.00163636
0.00179374
0.00276829
0.00309616
0.00479987
0.00497176
0.00532262
0.0056914
0.00583057
0.00586765
0.00588951
0.00591502
0.00597044
0.00603714
0.0060571
0.0060579
0.00611834
0.00610926
0.00610959
0.00607609
0.00603786
0.00599357
0.00594647
0.00586984
0.005713
0.00533822
0.00497098
0.00560461
0.0056565
0.00576246
0.00587228
0.00591988
0.00592859
0.00590882
0.00586776
0.00581888
0.00576151
0.00575896
0.00591156
0.00594733
0.00597308
0.00595313
0.00593253
0.00592642
0.00590228
0.00586196
0.00575482
0.00564666
0.00559999
0.00550631
0.00565366
0.00571905
0.00572889
0.00578371
0.00587131
0.00589392
0.00589043
0.00584624
0.00581061
0.00576653
0.00569338
0.00559762
0.00527548
0.00534544
0.00543412
0.00555006
0.00566216
0.00575259
0.00580291
0.00580509
0.00575075
0.00571413
0.00571497
0.00566646
0.00569193
0.00571839
0.00569033
0.00568832
0.0056943
0.0056315
0.00551565
0.00535381
0.00518229
0.00504015
0.004967
0.00484679
0.00522181
0.0053663
0.00549409
0.00560723
0.00571083
0.00581687
0.00585286
0.00584509
0.0057809
0.00574444
0.00574288
0.00568741
0.00568516
0.00573881
0.00574102
0.0057715
0.00582771
0.00580769
0.00572716
0.00552868
0.00533724
0.00517168
0.00501413
0.00484407
0.00480159
0.00487977
0.00481456
0.00488295
0.00505322
0.00526567
0.00544842
0.00556394
0.00559913
0.00563215
0.00568196
0.00567534
0.00564531
0.00563003
0.0055626
0.00550431
0.00543221
0.0052719
0.00506583
0.00488305
0.00482394
0.00492196
0.00502116
0.00492994
0.00457724
0.00475764
0.00492412
0.00509062
0.00532852
0.00560486
0.00573003
0.00577515
0.00574912
0.00572859
0.00572598
0.00567521
0.00565805
0.00570463
0.00570766
0.00572809
0.00576233
0.00572067
0.00561555
0.00527462
0.00487664
0.00468665
0.00457646
0.00441908
0.00495394
0.00505765
0.00493089
0.00484612
0.00497743
0.00513098
0.00529069
0.00539623
0.00543681
0.00549408
0.00556982
0.00560529
0.00555067
0.0054883
0.0054107
0.00537101
0.00537075
0.00534251
0.00523859
0.00511852
0.00498134
0.00515046
0.00525141
0.0051566
0.00465894
0.00473494
0.0048394
0.00489386
0.00526494
0.00560311
0.0056906
0.0057028
0.0056719
0.00565204
0.00565441
0.00562546
0.00557091
0.00555966
0.0055516
0.00561194
0.00568981
0.00572365
0.00573765
0.00548277
0.0050448
0.00498831
0.00479162
0.0046963
0.00522595
0.00528666
0.0051628
0.00504911
0.00528922
0.00539212
0.00542259
0.00540288
0.00534691
0.00530884
0.0053756
0.00548097
0.00539982
0.00505121
0.00474044
0.00490061
0.004939
0.00492518
0.00485745
0.00474647
0.00450712
0.00503372
0.00554996
0.00559223
0.00503305
0.00504034
0.00487261
0.00451768
0.00494122
0.00517873
0.005236
0.00522596
0.00515469
0.00496481
0.00524851
0.00549672
0.00545068
0.00493217
0.00320031
0.00324522
0.00327
0.00327453
0.00323191
0.0032204
0.00317393
0.00315032
0.00307796
0.00300495
0.00293421
0.00312981
0.00329637
0.00352091
0.00353968
0.00363273
0.00348092
0.00329806
0.00308245
0.00239811
0.00304338
0.00363153
0.00385738
0.00414819
0.00420864
0.00484989
0.00510174
0.00524041
0.00514293
0.00412544
0.00350006
0.00279724
0.00181914
0.00113352
0.00133094
0.00138477
0.00146136
0.00179484
0.00329194
0.00168386
0.00233184
0.00182116
0.00313351
0.00166311
0.00103717
0.00068585
0.000872521
0.00103181
0.00103896
0.000995346
0.000828748
0.000648707
0.000662826
0.000618436
0.000656939
0.000594879
0.000681916
0.000638671
0.000879114
0.00128554
0.00150161
0.00153987
0.00124695
0.00141077
0.00117893
0.00136232
0.00121785
0.00132837
0.0012748
0.00155942
0.00170913
0.00163577
0.0016396
0.00143469
0.00100331
0.00116316
0.000913881
0.00109762
0.00083998
0.00108425
0.000929914
0.00120838
0.00124563
0.00124196
0.00119569
0.000913346
0.00108249
0.000852496
0.00104593
0.000859978
0.000913326
0.000759273
0.00110233
0.00112286
0.00103485
0.00110246
0.00123664
0.00132367
0.00145576
0.0013775
0.00157427
0.00152265
0.00154605
0.00146514
0.00142559
0.0013934
0.00139664
0.00137376
0.00138114
0.00142536
0.00142705
0.00143227
0.00147677
0.00145521
0.00141931
0.00139734
0.00124177
0.00100286
0.00174741
0.00180194
0.00182991
0.00183028
0.00179035
0.0017688
0.00170408
0.00168735
0.001632
0.00160143
0.00152828
0.0014705
0.00140301
0.00157801
0.000883892
0.00100397
0.00106003
0.00109243
0.00111414
0.00112452
0.0011321
0.00112556
0.00111118
0.00108441
0.00107608
0.0010466
0.00133822
0.00152214
0.00159233
0.00161167
0.00151055
0.00143906
0.00315859
0.00382606
0.00580058
0.00593011
0.00445992
0.00444358
0.00153315
0.00162232
0.00110826
0.00155745
0.00160622
0.00158986
0.00150161
0.00108286
0.00162504
0.00113302
0.00152126
0.00114288
0.00139853
0.00115977
0.0016494
0.00210422
0.00203158
0.00183974
0.00125531
0.00103901
0.00103694
0.000882314
0.000967387
0.000798496
0.000983496
0.000833559
0.00122638
0.00172419
0.00194366
0.00198573
0.00156757
0.00216481
0.00162823
0.00236036
0.00187815
0.0023204
0.00186454
0.00215638
0.00266875
0.00268118
0.00261748
0.00210937
0.00168811
0.00189554
0.00167836
0.00193421
0.00279812
0.00183337
0.00278921
0.00115148
0.00157013
0.00161903
0.00159735
0.00150653
0.00101501
0.00258273
0.00136671
0.002425
0.00156865
0.00250389
0.00182241
0.00241425
0.00288254
0.00301407
0.00300196
0.00244931
0.0022076
0.00228247
0.0018176
0.00218183
0.00162571
0.00236341
0.00135023
0.00175461
0.00193244
0.00203955
0.00204549
0.00167754
0.00331937
0.00208624
0.00314992
0.00219327
0.00281187
0.00225452
0.00246413
0.00291108
0.00289256
0.00286763
0.00243138
0.0019687
0.0025994
0.00185219
0.0556465
0.128238
0.0511752
0.129667
0.0586141
0.0832484
0.0820172
0.0821793
0.0825028
0.0619756
0.135281
0.159737
0.166528
0.168534
0.167276
0.270284
0.220416
0.331073
0.214569
0.126417
0.0549096
0.0756199
0.194921
0.321698
0.482823
0.612708
0.417572
0.432291
0.275865
0.272033
0.256199
0.207376
0.127354
0.0638917
0.0108977
0.0119112
0.0170639
0.0227293
0.0178137
0.0108646
0.00215195
0.00221996
0.00226916
0.00229933
0.00229002
0.0022394
0.00227224
0.00214227
0.00200929
0.00224201
0.00244437
0.00270576
0.00316226
0.00348688
0.00313928
0.00343966
0.00364592
0.00381442
0.00395373
0.00416053
0.00439309
0.00459697
0.00460764
0.00422128
0.0035967
0.00292595
0.00246032
0.00233147
0.00218975
0.00193125
0.00176705
0.00165534
0.00160094
0.00157831
0.00162176
0.00177201
0.00190198
0.00194743
0.00190867
0.00187366
0.00184309
0.00164112
0.00191863
0.00263182
0.00265337
0.00454581
0.00523817
0.00534699
0.00535429
0.00474791
0.00303339
0.00304008
0.00305565
0.0031139
0.00312602
0.00313376
0.00313038
0.00311891
0.00310068
0.0030666
0.0030498
0.00300081
0.00295959
0.00285701
0.00286169
0.00289995
0.00292951
0.00288227
0.00289512
0.00283291
0.00364913
0.00489028
0.00553925
0.00579063
0.00600869
0.00583314
0.00807031
0.00688966
0.00485211
0.00479456
0.00473272
0.00561632
0.00565536
0.00509693
0.00511492
0.00466062
0.00290468
0.00288762
0.00288913
0.00308299
0.00314143
0.0032506
0.00328005
0.00330895
0.00332496
0.00332345
0.00332239
0.00329756
0.00327665
0.0032054
0.00318138
0.00317162
0.00174875
0.00190797
0.00197767
0.0019897
0.00201584
0.00200302
0.00198985
0.00196578
0.00194886
0.00191636
0.00187775
0.00182353
0.00171682
0.00156529
0.00172406
0.00293078
0.00293215
0.00479389
0.00540421
0.00544453
0.00607182
0.00576424
0.00545972
0.00586507
0.00528324
0.00524031
0.00473683
0.00293835
0.00297748
0.00176471
0.00174664
0.00204021
0.00198167
0.00211606
0.00217221
0.00217905
0.00220885
0.00223868
0.00227456
0.00233116
0.00234912
0.00231578
0.00231046
0.00217845
0.00188327
0.00190635
0.0022464
0.00235392
0.00218415
0.00214305
0.00212564
0.00207466
0.00203511
0.00199666
0.00202318
0.00217878
0.00217862
0.00214231
0.00204078
0.0019902
0.00172846
0.00167306
0.00291982
0.00294332
0.00483096
0.00499427
0.0049714
0.00571587
0.00636168
0.00723853
0.00617296
0.00500897
0.00516009
0.00589008
0.00436106
0.0036039
0.00214169
0.00164655
0.00198652
0.00192759
0.00200499
0.00207711
0.00184375
0.00197735
0.00182696
0.00165969
0.00165026
0.00164789
0.00168903
0.00170603
0.00173696
0.00174098
0.00178206
0.00177808
0.00178405
0.00180601
0.00181778
0.0020086
0.00218521
0.00183798
0.00155794
0.00151603
0.0014314
0.00136213
0.00139523
0.0013626
0.00135447
0.00132974
0.00130742
0.00124756
0.00130047
0.00138009
0.00161478
0.00154747
0.00125064
0.00111724
0.000763965
0.000778027
0.00078342
0.000807646
0.000816364
0.00082712
0.000831058
0.000844551
0.000847119
0.000851319
0.000850949
0.00087113
0.000868106
0.000858195
0.000851697
0.00085618
0.000860385
0.000859841
0.00125883
0.00140196
0.00153297
0.0018214
0.00214544
0.0018458
0.00156349
0.0013468
0.000865855
0.000879108
0.000895234
0.000903554
0.000922859
0.000940458
0.00096018
0.000972733
0.000982261
0.00099229
0.00100279
0.00100731
0.00100509
0.00098612
0.000974868
0.00100008
0.00109926
0.00115685
0.00123047
0.00125836
0.0012828
0.00129537
0.00128867
0.00130177
0.00128595
0.00128361
0.00126099
0.00125118
0.00124163
0.00122983
0.00121542
0.0011804
0.00116863
0.00122985
0.00208085
0.0027215
0.00313807
0.00345835
0.00317929
0.00256225
0.00271367
0.00475815
0.00449176
0.00266669
0.00248175
0.00228073
0.00197977
0.00176574
0.00213543
0.00243448
0.00266213
0.00286382
0.00304842
0.00317391
0.00333451
0.00354333
0.00391247
0.00395878
0.00361059
0.00292627
0.00247817
0.0023156
0.00223759
0.00210104
0.00195195
0.00200087
0.00201535
0.00195539
0.0018809
0.0018596
0.00189015
0.00192866
0.00190537
0.00190462
0.00170151
0.00170097
0.0029064
0.00296232
0.00455652
0.00480066
0.0048469
0.0031164
0.00307366
0.00179534
0.00166738
0.00181896
0.00188818
0.00189204
0.0018996
0.00188985
0.00185662
0.00183243
0.00180411
0.00178138
0.00176145
0.00172698
0.00166127
0.00153455
0.0016728
0.00187563
0.00195794
0.00197884
0.00198874
0.00201987
0.00207149
0.00211271
0.00220833
0.0022182
0.00221734
0.00222521
0.00208005
0.00214514
0.00181557
0.001813
0.00314224
0.00313384
0.00180042
0.00212587
0.00214022
0.00211536
0.0022774
0.00208401
0.00201795
0.00200708
0.00192222
0.00187707
0.00181679
0.0017811
0.00181653
0.00193316
0.00187265
0.00165969
0.00160162
0.00179563
0.00172599
0.00143175
0.00122298
0.00118907
0.00113805
0.00110709
0.00116025
0.00120175
0.00122538
0.0012554
0.00126428
0.00131945
0.00128376
0.00134722
0.00142869
0.00149349
0.00177154
0.00191987
0.00173442
0.00170119
0.00168009
0.00167818
0.0016835
0.00161426
0.00160971
0.00157391
0.00155629
0.00150942
0.00148837
0.00146164
0.00146664
0.00148239
0.00162993
0.00419909
0.005351
0.00557169
0.00950979
0.00384643
0.00392757
0.00770295
0.00318531
0.0047903
0.00513309
0.00536683
0.0056053
0.0051296
0.00650936
0.00454787
0.00506185
0.00528582
0.00465705
0.0017259
0.0019315
0.00224687
0.00202165
0.00178643
0.00121816
0.00131433
0.00135785
0.00139307
0.00141619
0.00144154
0.00146881
0.00149426
0.00151219
0.00151251
0.00146665
0.00141716
0.00130346
0.00126559
0.00131456
0.00136517
0.00119932
0.00112935
0.00114274
0.00116161
0.00117222
0.00117452
0.0011861
0.00118923
0.00120748
0.00119778
0.001207
0.0011864
0.00119695
0.00118122
0.00114089
0.00108434
0.000988193
0.000964626
0.00138937
0.00147955
0.00155443
0.00176399
0.00203703
0.00217372
0.00194843
0.00179687
0.00172481
0.00191343
0.00191348
0.00347476
0.00667319
0.00298796
0.00334797
0.00974925
0.00387741
0.003018
0.00306363
0.0030958
0.00310004
0.00180159
0.00213367
0.00206856
0.00207684
0.00176134
0.00147879
0.00132644
0.00118602
0.000804238
0.000801573
0.000807625
0.000820005
0.000823861
0.000788667
0.000788578
0.000784096
0.000782351
0.000765782
0.000761168
0.000747706
0.000739542
0.000720123
0.000709608
0.000691103
0.000687658
0.000714511
0.000792597
0.000957365
0.00106874
0.00121315
0.00123624
0.00139722
0.00348254
0.00402987
0.00555565
0.00549955
0.00867194
0.00541847
0.00409274
0.00370342
0.00541914
0.00560055
0.00521447
0.00706346
0.00488582
0.003232
0.00480474
0.00398846
0.00480563
0.00469068
0.00496099
0.00785804
0.00826825
0.00233237
0.00207947
0.00218816
0.00248241
0.00294735
0.00271167
0.00309038
0.00308304
0.00237489
0.00152423
0.00485818
0.00587174
0.00469231
0.00561132
0.00867234
0.00349249
0.00340657
0.00301403
0.00251573
0.00228672
0.00225562
0.00251488
0.00300954
0.00754051
0.00806508
0.00739531
0.00736465
0.00669863
0.00741179
0.00922638
0.00918701
0.00810697
0.00758114
0.00784213
0.00484665
0.00304661
0.00354015
0.00391858
0.00522773
0.00539042
0.0113674
0.00386293
0.00426493
0.00433035
0.00579385
0.00561361
0.00991124
0.00420461
0.00453132
0.0059714
0.00797058
0.0146782
0.00536781
0.00565097
0.00812356
0.00824522
0.00754023
0.00545615
0.00494579
0.00538578
0.00405804
0.00396746
0.00338985
0.00500547
0.00672972
0.00532285
0.00516889
0.0043973
0.00391783
0.00400944
0.00415877
0.00345555
0.00340878
0.00393585
0.00292403
0.002817
0.0029977
0.000828967
0.000424862
0.00043443
0.000445744
0.000454899
0.00046432
0.000471209
0.000479373
0.00048305
0.000483452
0.000484687
0.000512522
0.000507769
0.000491706
0.000446485
0.000509491
0.00080854
0.000809091
0.000508923
0.000448664
0.000805023
0.00128267
0.00151207
0.00178886
0.00181098
0.00156249
0.00135479
0.000833957
0.000820863
0.000497565
0.0005811
0.000631047
0.000559716
0.000624651
0.000578962
0.000613258
0.000619628
0.000573347
0.00057015
0.000572348
0.000568008
0.000557934
0.000545596
0.000530502
0.000518523
0.000511724
0.000506198
0.000494554
0.000412075
0.000383658
0.000460053
0.00073232
0.000731117
0.000685763
0.000647486
0.000615042
0.000600576
0.000596793
0.000593729
0.000604131
0.000623638
0.000629156
0.000634693
0.000683854
0.0006625
0.000707607
0.000664073
0.000709473
0.00066593
0.000612604
0.000514383
0.000530693
0.000856107
0.000865205
0.00139782
0.00159907
0.00181346
0.00182277
0.00203508
0.0021434
0.00181522
0.0018845
0.0021596
0.00201133
0.00179262
0.00179959
0.00161866
0.00162012
0.00143508
0.000896899
0.000884723
0.000555653
0.00053965
0.000643476
0.000632224
0.000703135
0.000752498
0.000752745
0.00075031
0.000731463
0.000724708
0.000637326
0.000624803
0.000625616
0.000606652
0.000602368
0.000627412
0.000683429
0.000801029
0.000968552
0.00105497
0.00109251
0.00104853
0.000939218
0.000691966
0.000626153
0.00108422
0.00112666
0.00200946
0.00477702
0.002204
0.00425058
0.00306681
0.000764394
0.000853318
0.00108822
0.00121946
0.00131644
0.00137146
0.00125257
0.00104444
0.000786392
0.000649699
0.000972109
0.000840671
0.000950265
0.000830079
0.00107422
0.00124215
0.00120177
0.00121091
0.00102344
0.000833811
0.000883012
0.000792889
0.00087397
0.000731727
0.000880383
0.000794892
0.000998904
0.0010083
0.000987345
0.000935896
0.000712624
0.000747721
0.000627195
0.000680394
0.000610869
0.000631427
0.000598345
0.000697785
0.000804074
0.000771705
0.000768691
0.000631596
0.000494914
0.000546616
0.00047269
0.000534987
0.000415834
0.000503733
0.000422426
0.000546816
0.000563565
0.000566177
0.00056194
0.000456689
0.000537269
0.000659186
0.000692715
0.000698639
0.000665472
0.000513128
0.000793996
0.000716493
0.000874756
0.000756628
0.000828254
0.00075427
0.000879211
0.00112596
0.00117549
0.00118325
0.000959972
0.000953951
0.00174089
0.0965284
0.00156599
0.00185094
0.0019087
0.00190186
0.00157257
0.00153425
0.00190028
0.0014058
0.00199075
0.00125354
0.00212314
0.000809291
0.00123022
0.00132077
0.0013179
0.00122471
0.000820758
0.00242633
0.119472
0.30828
0.334315
0.333726