/*--------------------------------*- C++ -*----------------------------------*\
| =========                 |                                                 |
| \\      /  F ield         | OpenFOAM: The Open Source CFD Toolbox           |
|  \\    /   O peration     | Version:  v2012                                 |
|   \\  /    A nd           | Website:  www.openfoam.com                      |
|    \\/     M anipulation  |                                                 |
\*---------------------------------------------------------------------------*/
FoamFile
{
    version     2.0;
    format      ascii;
    class       volScalarField;
    location    "780";
    object      k;
}
// * * * * * * * * * * * * * * * * * * * * * * * * * * * * * * * * * * * * * //

dimensions      [0 2 -2 0 0 0 0];


internalField   nonuniform List<scalar> 
18258
(
0.0335941
0.0158254
0.0123913
0.0102392
0.0110114
0.014035
0.0168331
0.0212011
0.0256199
0.0315475
0.038603
0.0475242
0.0535157
0.060654
0.0636275
0.0619325
0.052074
0.0473217
0.0566525
0.0810815
0.0710028
0.0514008
0.0621702
0.0615435
0.0726837
0.0769769
0.0606223
0.0552861
0.0498464
0.0441648
0.0376626
0.0236831
0.024053
0.0287221
0.032012
0.0357575
0.0386557
0.0410605
0.0426901
0.0435125
0.0434307
0.0421379
0.0394403
0.0353304
0.0297852
0.023675
0.0227528
0.0242306
0.0299923
0.0353518
0.0406689
0.0461923
0.0545794
0.0446553
0.0290254
0.039206
0.0476936
0.0545909
0.0590177
0.0614619
0.0622172
0.0612952
0.0589968
0.0557292
0.0517608
0.0474157
0.0433924
0.0394018
0.0341548
0.0308907
0.026776
0.0234297
0.0209881
0.0192749
0.0181559
0.017154
0.0162898
0.0155579
0.0149423
0.01452
0.0144281
0.0144531
0.0145525
0.0146488
0.014993
0.0126517
0.0108845
0.0104185
0.0101689
0.00952605
0.00807833
0.0106349
0.0117446
0.0121615
0.0124314
0.0136042
0.0147336
0.0142996
0.0135749
0.0124576
0.0126715
0.0171242
0.0178533
0.022896
0.0217557
0.0169707
0.0147946
0.0165789
0.0193896
0.0224505
0.0192456
0.0192153
0.0179154
0.0170177
0.0148661
0.0148939
0.0143728
0.014065
0.0149788
0.0177417
0.0171586
0.0172786
0.0184917
0.018808
0.0200274
0.0210362
0.0203714
0.0201878
0.0163332
0.016233
0.0172703
0.0171444
0.0176233
0.0201231
0.0201794
0.0205191
0.0207337
0.0235148
0.0235336
0.0235013
0.0235922
0.0244409
0.0234745
0.0230602
0.0230863
0.0231212
0.0209582
0.0207381
0.0203788
0.0204183
0.0182463
0.0175102
0.0182423
0.0192218
0.0211945
0.0249383
0.0313721
0.0402939
0.0503903
0.0606339
0.0684088
0.0727685
0.0771401
0.0766026
0.0773106
0.0794154
0.0797941
0.0786639
0.0768198
0.074667
0.0717293
0.0671096
0.0666639
0.0590151
0.0481165
0.0333972
0.0389016
0.0417403
0.04449
0.0447874
0.0452615
0.0440409
0.0422656
0.0386804
0.0335525
0.0246709
0.0260676
0.0305109
0.0351494
0.0389211
0.0430729
0.0466447
0.0483969
0.0500241
0.0592702
0.0571704
0.055325
0.0571619
0.0586889
0.0618486
0.0602136
0.0563024
0.0505091
0.0521696
0.045356
0.0340411
0.0318171
0.0296987
0.0271807
0.0377118
0.0494957
0.0611703
0.0675763
0.0737543
0.0786318
0.0826901
0.0872461
0.0817969
0.0766345
0.0578438
0.0840365
0.06601
0.0507852
0.0416167
0.0339159
0.0302471
0.0334841
0.0337935
0.0321109
0.0274866
0.0218308
0.0233251
0.036116
0.0459188
0.0539791
0.0555924
0.0603116
0.0627634
0.0574206
0.0580128
0.0470716
0.0482597
0.0518156
0.0466321
0.0442544
0.0356691
0.0279153
0.0336943
0.0501046
0.0687008
0.0847201
0.0998168
0.0663199
0.0505013
0.0414724
0.0347532
0.0333942
0.0379351
0.0438329
0.0529504
0.0411558
0.0371736
0.0337225
0.0308945
0.0254468
0.0272272
0.0283451
0.0267947
0.049975
0.057848
0.0614243
0.0838096
0.0922288
0.108301
0.107221
0.0926677
0.0961482
0.0687364
0.0686331
0.0862431
0.0682089
0.0512483
0.0614967
0.0744027
0.0882222
0.101377
0.112664
0.121716
0.123436
0.111951
0.0811571
0.0467179
0.0212652
0.0186312
0.0180833
0.0173745
0.0164861
0.0156806
0.0150571
0.0121096
0.00948876
0.00927284
0.00945633
0.00940316
0.00825717
0.00951041
0.0115722
0.0137617
0.0152679
0.0164751
0.0174935
0.0182257
0.0188129
0.0192108
0.0195071
0.0197738
0.0200076
0.0201915
0.0203268
0.0204144
0.0204537
0.0204373
0.0203591
0.020218
0.0200121
0.0197253
0.0192548
0.0177344
0.0158872
0.0150594
0.0151179
0.0148686
0.0145672
0.0119371
0.0123101
0.0143252
0.0149566
0.017743
0.0197751
0.0214745
0.0229241
0.0244461
0.0252208
0.0260483
0.0263134
0.0263658
0.0262659
0.0261171
0.0258957
0.0255995
0.0245458
0.021275
0.0248768
0.027276
0.0289689
0.0303267
0.0312377
0.0313512
0.0286111
0.0360366
0.0385081
0.0394157
0.0396744
0.0388486
0.0368402
0.0343997
0.0323514
0.0308444
0.0297274
0.027589
0.0253419
0.0230315
0.0206147
0.0173913
0.0186608
0.020501
0.0207114
0.0204202
0.0214704
0.0227284
0.0210707
0.0189781
0.0161018
0.0151039
0.0146145
0.0144232
0.0148319
0.0144905
0.0143892
0.0148879
0.0178888
0.0189794
0.0206819
0.0239419
0.0228062
0.0208611
0.0280372
0.0296526
0.0301054
0.0304552
0.0303587
0.0296011
0.0265148
0.0250582
0.0264467
0.024992
0.024358
0.0244458
0.0240782
0.0222093
0.0245118
0.0265138
0.0281038
0.0289506
0.0301952
0.0317496
0.0339117
0.035705
0.0373649
0.0383753
0.0383667
0.0378446
0.0380326
0.0387001
0.0384143
0.0367121
0.0346278
0.0325265
0.029559
0.0293504
0.0313294
0.0328972
0.034563
0.0363423
0.0356453
0.0337541
0.0321236
0.0306987
0.0289838
0.0288572
0.0305375
0.0319851
0.0337269
0.0358483
0.0360155
0.0338738
0.0320534
0.0305461
0.0288402
0.0288045
0.0305075
0.0320221
0.0337474
0.0356342
0.0347607
0.0332904
0.0317663
0.0302968
0.0286302
0.0281908
0.0297968
0.0311811
0.0324966
0.0335622
0.0318867
0.0312964
0.0302247
0.0288338
0.0270736
0.0258192
0.0263282
0.0277177
0.0278286
0.0283084
0.0294282
0.0292753
0.0289921
0.0289453
0.0286632
0.0264164
0.0268241
0.0268746
0.0275677
0.0308735
0.0303914
0.0330649
0.0354803
0.0331661
0.0316738
0.0281032
0.0336799
0.0337204
0.0346798
0.0335001
0.0237273
0.0218723
0.0228697
0.024403
0.026045
0.0253507
0.0226043
0.0225427
0.0231523
0.0225628
0.0209956
0.0180076
0.0135234
0.0135326
0.013524
0.0142589
0.0170638
0.0186523
0.0187567
0.0185958
0.0182884
0.0178113
0.0170876
0.0160078
0.0156056
0.0247398
0.045067
0.0565264
0.0558712
0.042494
0.0356995
0.0264679
0.0185142
0.0113385
0.0107548
0.0114436
0.0137213
0.0114552
0.0110136
0.0151424
0.0121179
0.0201138
0.0231793
0.0303284
0.041431
0.0400979
0.0305372
0.020453
0.018387
0.0192481
0.019774
0.0201665
0.0205521
0.0209418
0.0213661
0.0218838
0.0215704
0.0189329
0.0166886
0.0168128
0.017385
0.0198924
0.0212769
0.0220719
0.0217372
0.021983
0.0236948
0.0224537
0.0212345
0.0210289
0.0203225
0.0231647
0.0235091
0.0228772
0.0228762
0.0231521
0.0230392
0.0231777
0.0239822
0.019799
0.0219179
0.0224697
0.0227504
0.0235436
0.0190519
0.0192455
0.0193155
0.0181711
0.0149129
0.0179959
0.0167573
0.0121674
0.0134793
0.013439
0.0140495
0.0143731
0.0171211
0.0162918
0.0155714
0.0163502
0.0223169
0.0231139
0.0232871
0.0206387
0.0193911
0.0218853
0.0224783
0.0220271
0.0211344
0.0212932
0.0203455
0.0184388
0.0177193
0.0178563
0.0192696
0.020071
0.0201445
0.0237516
0.0232443
0.02168
0.0226652
0.0232663
0.0228498
0.0227383
0.0226807
0.0223091
0.021883
0.0222973
0.0224885
0.0225421
0.0220991
0.0223535
0.0249887
0.0214242
0.0212359
0.020161
0.0195063
0.0178798
0.0176252
0.017723
0.0176832
0.0175891
0.0167531
0.0186084
0.0178834
0.0200141
0.0216254
0.0227747
0.0239444
0.0240932
0.0236605
0.0236188
0.0232321
0.0231964
0.0226476
0.0218043
0.0212228
0.0204489
0.0192431
0.0192358
0.019187
0.0190437
0.0204472
0.020347
0.0219109
0.0230301
0.0227426
0.0217788
0.0216688
0.0204939
0.0204701
0.0215095
0.0223965
0.0226479
0.0235096
0.0260454
0.0236994
0.0252537
0.0259509
0.0266162
0.0260049
0.0249052
0.0256591
0.0239986
0.0228879
0.024208
0.0249316
0.0261946
0.0269888
0.0250117
0.0239842
0.0227862
0.021923
0.020936
0.0184145
0.0190279
0.0198175
0.0210493
0.0228613
0.0255863
0.0283221
0.0312506
0.0313086
0.0290036
0.0273135
0.032128
0.0315936
0.0365727
0.0371839
0.0330473
0.0302314
0.0273137
0.026889
0.0259672
0.0254309
0.0241525
0.025399
0.0258214
0.024879
0.0273546
0.0289321
0.0332701
0.0388485
0.035511
0.0326727
0.0377297
0.0366384
0.0426114
0.0363845
0.0347239
0.0285792
0.0331873
0.0355411
0.0432977
0.0338803
0.0296917
0.029469
0.0307915
0.0382857
0.0368255
0.0394254
0.0445894
0.0439308
0.0390445
0.0358074
0.0415757
0.0316042
0.0370437
0.0390597
0.0324283
0.0321891
0.039071
0.0396939
0.0398583
0.0337665
0.0330404
0.0250154
0.0335867
0.0400713
0.0399898
0.0332021
0.0259819
0.0358982
0.0315246
0.0313302
0.0313274
0.0269212
0.0268503
0.0261451
0.0263992
0.0271118
0.0246651
0.025472
0.025735
0.025902
0.0260387
0.0262384
0.0265934
0.0272538
0.0280176
0.0228889
0.0243386
0.0229604
0.0216051
0.0202425
0.0240252
0.0265051
0.028315
0.0297699
0.0309052
0.0313927
0.0300208
0.0379516
0.039583
0.0412861
0.0414447
0.040188
0.0374804
0.0340044
0.0305109
0.0283297
0.0270351
0.02456
0.0224799
0.0204525
0.0183395
0.0155764
0.0142592
0.0129242
0.0115445
0.0111719
0.0106146
0.0100006
0.0092953
0.00887183
0.0113077
0.0179045
0.0276385
0.033148
0.0390204
0.0457798
0.0520185
0.0570554
0.0608469
0.063617
0.0654154
0.0659236
0.0634656
0.0532991
0.0483359
0.0434801
0.0385106
0.0333641
0.0323239
0.0415055
0.0497604
0.056696
0.0629381
0.0669917
0.0653448
0.0497782
0.0468581
0.0627002
0.0902268
0.0810901
0.104094
0.120379
0.079938
0.0649892
0.0640848
0.0794369
0.081907
0.0753905
0.0665695
0.056856
0.046028
0.0511621
0.0559748
0.0604847
0.0650311
0.0773429
0.0796428
0.0783901
0.0757553
0.0724337
0.0681957
0.0620264
0.0539871
0.0448134
0.0365751
0.0292088
0.0187635
0.0123169
0.0134913
0.0128016
0.0149225
0.0144021
0.00990014
0.0101844
0.0103401
0.0102205
0.0099506
0.00995365
0.0113451
0.018
0.0147423
0.0133097
0.0114606
0.0142766
0.0160951
0.0179275
0.018364
0.0185069
0.0228355
0.0376624
0.0447441
0.0499677
0.0545333
0.0572206
0.0559583
0.0527114
0.047049
0.0405232
0.0378338
0.0338677
0.0303322
0.028472
0.0292565
0.0257295
0.0161901
0.0147102
0.0157462
0.0154502
0.0144609
0.0163945
0.0176039
0.0183697
0.0189872
0.0194466
0.0197971
0.0200443
0.0202057
0.0202873
0.0203072
0.0202797
0.0202101
0.0200972
0.0199383
0.0197227
0.0194201
0.0189054
0.0172096
0.0153845
0.0146819
0.014767
0.014538
0.0141778
0.012304
0.0125272
0.0143901
0.0149896
0.0145952
0.0151724
0.0156306
0.0168113
0.0189785
0.0211146
0.0229472
0.0216495
0.0210094
0.0209848
0.0205782
0.0174663
0.0207445
0.0236011
0.0241109
0.0243752
0.0251801
0.0267681
0.0277216
0.0267954
0.0262986
0.0257723
0.0226904
0.024285
0.0278208
0.0282324
0.0289067
0.0295015
0.0300705
0.0313511
0.0307209
0.0298246
0.0292284
0.0263614
0.0255063
0.0317532
0.0206369
0.0143121
0.0102781
0.0108404
0.0110349
0.0106761
0.011381
0.0118599
0.0120388
0.0113969
0.0124858
0.0134018
0.0127097
0.0154255
0.0146798
0.0136002
0.0131601
0.0140201
0.0148374
0.015262
0.0163273
0.0263194
0.0270518
0.0226452
0.029007
0.0316672
0.0289254
0.031721
0.0294154
0.027995
0.030738
0.0341574
0.0354646
0.0331743
0.0317331
0.0311489
0.0207587
0.020065
0.0193612
0.0174985
0.0176975
0.0171956
0.0167338
0.0163124
0.0187542
0.0201431
0.0212079
0.0209052
0.0205624
0.0201739
0.0217025
0.0268243
0.0368877
0.044132
0.0464246
0.0451128
0.0415318
0.0352138
0.0294475
0.0288294
0.0268058
0.0254161
0.0250555
0.0191526
0.0150116
0.0174054
0.0173799
0.0184323
0.0190923
0.0196087
0.0200186
0.0203575
0.0206461
0.0209221
0.0211823
0.0214116
0.0216068
0.0217766
0.0219191
0.0220728
0.0222567
0.0225114
0.0227182
0.0211273
0.0185388
0.0172143
0.0170685
0.0177802
0.0186763
0.0197996
0.0190639
0.0153621
0.0154381
0.0218409
0.0222582
0.0208851
0.0194713
0.0196803
0.0188428
0.0225937
0.0223856
0.0231213
0.0229081
0.0226238
0.0223411
0.0220594
0.0217724
0.0215094
0.0212803
0.0210741
0.0208835
0.0206954
0.0204943
0.0202256
0.0198271
0.0191633
0.0183658
0.017045
0.0183116
0.0192651
0.0208307
0.0227868
0.0238707
0.0230301
0.0217002
0.0209806
0.021081
0.0213608
0.0216787
0.0220219
0.0224196
0.0228493
0.0232571
0.0232415
0.0219667
0.0225995
0.0173837
0.0182401
0.0185378
0.0184938
0.020162
0.0193313
0.0146514
0.0151371
0.0158392
0.0171077
0.0196685
0.0200157
0.0213409
0.0215609
0.0172347
0.0169187
0.016496
0.0175177
0.0151588
0.0157836
0.0264316
0.0270657
0.0347939
0.0381361
0.0397483
0.0330292
0.0454623
0.0522777
0.0503773
0.0407945
0.0234374
0.0345285
0.0420411
0.0486657
0.0455925
0.0354469
0.0447234
0.04722
0.0629834
0.058597
0.0522493
0.0629918
0.044557
0.0268175
0.0157897
0.0163672
0.0151871
0.0305898
0.0346784
0.031368
0.0322095
0.0398236
0.0408403
0.0361061
0.0344362
0.0361892
0.035744
0.03967
0.0369707
0.0336274
0.0232341
0.0189724
0.0198017
0.0212
0.0230232
0.0253599
0.0252557
0.024116
0.0227608
0.0217935
0.0207523
0.018265
0.0176209
0.0195725
0.0211961
0.0225701
0.0240747
0.0248924
0.0257306
0.0258961
0.0257893
0.0254682
0.0250417
0.0244887
0.0238062
0.0223996
0.0236028
0.0242804
0.0244912
0.0247706
0.0250837
0.0253594
0.0254995
0.0253848
0.0244439
0.0236407
0.0224802
0.0213666
0.0197671
0.0176592
0.0183378
0.0200887
0.0216802
0.0227892
0.0238347
0.0234411
0.0239242
0.0245711
0.024592
0.0244088
0.0241814
0.0240267
0.0241156
0.0247486
0.026469
0.0262543
0.0291768
0.0303548
0.0277565
0.0264106
0.0257064
0.0252717
0.0250203
0.0248102
0.0246089
0.0240628
0.0235188
0.0240207
0.024277
0.0245779
0.0249401
0.0254523
0.0261498
0.027252
0.028677
0.0285616
0.0262279
0.0260272
0.0249575
0.0241679
0.0237963
0.0237498
0.0238038
0.0239134
0.0238577
0.0233482
0.0230284
0.0234354
0.0224297
0.0224992
0.0215324
0.0201815
0.0187481
0.0173014
0.0166426
0.0351076
0.0351116
0.0456013
0.0422392
0.036927
0.0469044
0.0598302
0.0518727
0.06256
0.0663202
0.0538913
0.0501112
0.0277547
0.0242926
0.017372
0.0188918
0.0202296
0.0214266
0.021242
0.0221568
0.0220377
0.0229969
0.022455
0.0216669
0.0211369
0.0201265
0.0201841
0.0189193
0.0173805
0.0172463
0.0188873
0.0199097
0.0210849
0.0210673
0.0225211
0.0230304
0.0234212
0.0235638
0.0235448
0.0236236
0.0237894
0.0242345
0.0249532
0.025436
0.0256173
0.0261318
0.0258773
0.0255579
0.0251025
0.0247908
0.024469
0.024185
0.0238853
0.0236025
0.0231685
0.0225138
0.0223934
0.022908
0.023252
0.0234916
0.0236326
0.0236192
0.02343
0.0231171
0.0228008
0.0224483
0.0224965
0.023704
0.0239185
0.0240235
0.0237923
0.0236158
0.0235994
0.0234897
0.0234062
0.0231878
0.0228266
0.0223558
0.0212917
0.0213918
0.0222697
0.0227113
0.0230346
0.0233032
0.0233085
0.023213
0.0228374
0.022555
0.0222271
0.0216882
0.0209819
0.0186369
0.0191194
0.0197397
0.0205793
0.0214236
0.0221414
0.0225966
0.0227825
0.0227746
0.0225966
0.0222402
0.021491
0.021472
0.0220153
0.0221896
0.022146
0.0218482
0.0212333
0.020311
0.0191088
0.0178929
0.0169217
0.0164352
0.0156514
0.0181671
0.0191834
0.0201064
0.0209466
0.0217409
0.0225876
0.0229331
0.0230188
0.0228716
0.0226131
0.0222029
0.0214346
0.0214426
0.0221444
0.0225325
0.0227442
0.0228368
0.0225371
0.0218502
0.020329
0.0189313
0.0177693
0.0167027
0.0155898
0.0153169
0.015819
0.0154001
0.0158462
0.0169839
0.0184724
0.0198366
0.0208176
0.0214066
0.0216848
0.0217066
0.021371
0.0211935
0.0213299
0.0211426
0.0206604
0.0198061
0.01853
0.0170551
0.0158205
0.0154291
0.0160587
0.0167133
0.0161134
0.0138898
0.0150047
0.0160725
0.017182
0.0188381
0.0208773
0.0218903
0.0223867
0.0225428
0.02243
0.0220696
0.0214192
0.0213664
0.0219871
0.0223362
0.022424
0.0223113
0.0218327
0.0209707
0.0184771
0.0157864
0.0145714
0.0138845
0.0129392
0.0162619
0.0169585
0.0161306
0.0155898
0.0164546
0.0175084
0.0186736
0.0195632
0.020193
0.0206811
0.0209423
0.0209584
0.0206902
0.0205886
0.0203816
0.0200482
0.0197186
0.0193698
0.0185759
0.0177385
0.016774
0.0178445
0.0184304
0.0176737
0.0144258
0.0149823
0.0157525
0.0161888
0.018766
0.0212502
0.0219772
0.0222372
0.0223714
0.022266
0.021889
0.0212818
0.021162
0.0217858
0.0222399
0.0224959
0.0227259
0.0228253
0.022901
0.0209806
0.0178361
0.0172075
0.0155473
0.0147241
0.0182337
0.0189279
0.0184343
0.0178684
0.0195286
0.0202273
0.0204856
0.0204871
0.020411
0.0203079
0.0203145
0.0204138
0.0201176
0.0200075
0.0201192
0.0203401
0.0202951
0.0200647
0.0194885
0.0187257
0.0176491
0.0195031
0.0212023
0.0209335
0.0169557
0.0174859
0.0182761
0.0177276
0.0202822
0.0221445
0.0226788
0.0227241
0.022509
0.0221023
0.0216007
0.02098
0.0207092
0.0212576
0.0218132
0.0218604
0.0219826
0.0219614
0.0214051
0.0212471
0.0206795
0.0204176
0.0196622
0.0190967
0.0183483
0.0205136
0.023703
0.0258989
0.0274817
0.0293688
0.0279801
0.0244841
0.0222395
0.0153055
0.0153172
0.0155468
0.0149036
0.0145217
0.0143424
0.0187405
0.0214666
0.0241633
0.0259161
0.0234737
0.0234475
0.0233678
0.0232517
0.0231398
0.0230486
0.022851
0.0237348
0.0416798
0.283348
0.21124
0.236266
0.225073
0.315192
0.0801288
0.039278
0.0434374
0.0503649
0.0575304
0.0556091
0.0517486
0.045005
0.040212
0.0397914
0.0391905
0.0389608
0.0380157
0.0380678
0.0374596
0.0438624
0.0879543
0.1204
0.134385
0.143145
0.152878
0.148444
0.157875
0.150164
0.150851
0.152569
0.157323
0.15
0.142598
0.13868
0.134389
0.117139
0.117528
0.0992004
0.103056
0.0860137
0.0904021
0.0942958
0.0936487
0.0924339
0.0921969
0.0924463
0.0932276
0.0967871
0.092191
0.0981722
0.0913793
0.0728687
0.0702952
0.0724993
0.0667908
0.0584211
0.0663244
0.0813129
0.0966805
0.11292
0.0962325
0.120383
0.114032
0.114603
0.108947
0.102692
0.0989571
0.098263
0.0988831
0.0999903
0.102596
0.10447
0.106026
0.108837
0.117376
0.11959
0.118064
0.100781
0.0857261
0.094173
0.0989575
0.102732
0.103078
0.0984897
0.0962136
0.0897135
0.0881087
0.0824027
0.0798696
0.0742686
0.0710256
0.0661819
0.0825617
0.0808951
0.087877
0.0941242
0.0984896
0.102081
0.103726
0.104903
0.103705
0.101283
0.0964594
0.0945425
0.0898451
0.10808
0.126364
0.129266
0.124757
0.111286
0.105747
0.337124
0.409003
0.409933
0.607902
0.64879
0.83802
0.333933
0.179717
0.191827
0.188513
0.180393
0.177183
0.17687
0.188452
0.197418
0.188686
0.198457
0.177007
0.171197
0.165886
0.192372
0.190383
0.171634
0.150268
0.117976
0.0956392
0.0946616
0.0782765
0.079199
0.0694689
0.0708213
0.0728123
0.0882102
0.160812
0.204314
0.230999
0.257389
0.317197
0.287657
0.435574
0.350391
0.436462
0.302153
0.326288
0.312196
0.303541
0.301518
0.31737
0.338913
0.298253
0.3705
0.297226
0.644633
0.780029
0.496383
0.458086
0.406413
0.392546
0.382855
0.37743
0.369181
0.485872
0.450957
0.549322
0.509348
0.631368
0.557102
0.563978
0.529453
0.567155
0.586795
0.600105
0.479999
0.52443
0.406512
0.440239
0.36758
0.403902
0.290947
0.290671
0.329859
0.368103
0.392878
0.447076
0.705605
0.600235
0.809932
0.581574
0.703606
0.489109
0.535129
0.511431
0.493735
0.495163
0.522935
0.627178
0.606841
0.691613
0.514664
0.526973
0.516661
0.534014
0.523437
0.558407
0.563081
0.564236
0.562182
0.523391
0.533958
0.532156
0.531955
0.53198
0.532322
0.509562
0.512735
0.505208
0.510988
0.526917
0.514565
0.514492
0.512354
0.504781
0.502729
0.502247
0.504002
0.503774
0.508901
0.508772
0.509107
0.512154
0.526859
0.514412
1.81764
0.899926
0.42805
0.337942
0.219426
0.134098
0.055052
0.0594024
0.0622352
0.0630671
0.0609319
0.0554753
0.0472879
0.0373378
0.0295739
0.0285856
0.0254887
0.027329
0.0346689
0.0421583
0.0384626
0.0462176
0.0539162
0.0622472
0.0702539
0.0772301
0.0831238
0.0860442
0.0830145
0.0703005
0.052633
0.035261
0.0250225
0.0226295
0.0209903
0.018998
0.0168955
0.0152506
0.0142458
0.0130741
0.0124406
0.0123491
0.0125632
0.0128005
0.0132361
0.0147484
0.0160459
0.0172278
0.018186
0.0184303
0.0179249
0.0184663
0.0190613
0.0194547
0.019797
0.0196337
0.0196328
0.0198815
0.0198417
0.0200486
0.0199491
0.0199549
0.0198133
0.0196392
0.0194126
0.0189753
0.018698
0.0181404
0.0177961
0.016974
0.0170101
0.0174328
0.0177664
0.016772
0.0167281
0.0159547
0.0264967
0.0475301
0.0608922
0.0659254
0.0712537
0.0672625
0.0567966
0.0387962
0.0191287
0.0188592
0.0193225
0.0218653
0.0213805
0.0173652
0.0181333
0.0187345
0.0174834
0.0173122
0.0173392
0.0192789
0.0198431
0.0212133
0.0216997
0.0221046
0.0223247
0.0223356
0.0224385
0.0222146
0.0222265
0.0218793
0.0218685
0.0215635
0.0213379
0.0216157
0.0222824
0.0223382
0.022929
0.022625
0.0223106
0.021755
0.0213283
0.0204914
0.019564
0.0185915
0.0171066
0.0166856
0.0172236
0.0177645
0.0173278
0.0188394
0.020014
0.0197016
0.0245045
0.0227735
0.0203221
0.0228571
0.0185455
0.0187153
0.0182025
0.0170963
0.0176369
0.0171081
0.0169846
0.0172571
0.0175111
0.0186396
0.0195706
0.0202059
0.0210568
0.0217153
0.0224239
0.023589
0.0238977
0.0229748
0.0228175
0.0216665
0.0210038
0.0206981
0.0216054
0.0228589
0.0227469
0.0235825
0.023324
0.0221155
0.0213127
0.0204555
0.0194913
0.018842
0.0181007
0.0173973
0.0170145
0.0162398
0.0163896
0.0153604
0.0168802
0.0171319
0.0190403
0.0173798
0.0169937
0.0224709
0.0282202
0.0440242
0.0320841
0.0211179
0.0223595
0.0302356
0.0373008
0.0256785
0.0251945
0.0148867
0.0162563
0.0152688
0.0154998
0.0165611
0.0168343
0.0179619
0.0189936
0.0192187
0.0199584
0.0202909
0.0210618
0.021314
0.0220417
0.02223
0.0234652
0.0235329
0.0236131
0.0235952
0.0228447
0.0227744
0.0228255
0.0232547
0.0230325
0.0236834
0.0237073
0.0237772
0.0237075
0.022406
0.0220914
0.0213314
0.020827
0.0199292
0.0193926
0.0186835
0.0183056
0.0177042
0.0180169
0.0187294
0.0189377
0.0198196
0.0198392
0.0205838
0.0207843
0.0212433
0.0213709
0.0220295
0.0221649
0.0224267
0.0224808
0.0236576
0.023769
0.0238082
0.0237712
0.0237985
0.0240335
0.0240333
0.0239655
0.0239541
0.0238941
0.0237444
0.0236153
0.024654
0.0253045
0.024836
0.0246074
0.0248832
0.0257355
0.026287
0.0273743
0.0282282
0.0293027
0.0301995
0.0310303
0.0317172
0.0322046
0.0323453
0.0323906
0.031963
0.0315981
0.0333112
0.0398079
0.043031
0.0482772
0.0506506
0.0526687
0.0534349
0.0522431
0.0529353
0.0516265
0.0518709
0.0506334
0.0501715
0.0493127
0.0482744
0.0475292
0.0460321
0.0452858
0.04989
0.0563521
0.0564326
0.0495078
0.0466272
0.0419019
0.0360354
0.0384609
0.0446708
0.039924
0.0379831
0.0350007
0.0298455
0.0225971
0.0178091
0.025596
0.0332697
0.0404777
0.0472842
0.0533018
0.0572077
0.0593433
0.0608671
0.0625561
0.0605275
0.0530842
0.0415029
0.0316975
0.0278458
0.0262997
0.0238582
0.0204229
0.0185365
0.0174638
0.0163104
0.0149629
0.0141045
0.0138591
0.0140951
0.0142094
0.0155561
0.0168172
0.0168113
0.0179904
0.0178187
0.0183291
0.0189194
0.0193208
0.0199834
0.0199529
0.0189912
0.0193413
0.0196036
0.0202805
0.0201797
0.0203483
0.0201318
0.019412
0.0188984
0.0182977
0.0177836
0.0173296
0.0167632
0.0160591
0.0160516
0.0162564
0.0158059
0.0162083
0.0166406
0.0170415
0.0176639
0.0185739
0.0193309
0.0211593
0.0212973
0.0210441
0.0211308
0.0197032
0.0196391
0.0186656
0.0184314
0.020025
0.0198674
0.0181969
0.0195891
0.0195936
0.0213715
0.0213789
0.0207047
0.0209034
0.0207919
0.0189693
0.0180812
0.0170131
0.0162397
0.0156587
0.0152677
0.0148092
0.0154353
0.0142542
0.0136657
0.0141039
0.0140766
0.0141393
0.0145247
0.0149515
0.0156933
0.0163948
0.01744
0.0180769
0.0189728
0.0193044
0.0212084
0.0211151
0.0209835
0.0210143
0.0211488
0.0215974
0.0208114
0.0207733
0.0209155
0.0209306
0.0209569
0.0209418
0.0191076
0.0189053
0.018072
0.0177553
0.0168236
0.0164673
0.0158144
0.0155027
0.0151159
0.0149219
0.0232979
0.0254984
0.0256573
0.0398291
0.020013
0.0200016
0.0344133
0.0173741
0.0231161
0.0236649
0.0247345
0.0259516
0.0226
0.0307959
0.0212654
0.0233698
0.0240989
0.0252892
0.0127842
0.0189919
0.0364858
0.0421746
0.0435224
0.0484793
0.055191
0.0584302
0.0614839
0.063555
0.0658253
0.0682957
0.0707045
0.0724577
0.0726176
0.0689563
0.0659123
0.0564519
0.0526406
0.0563764
0.0607924
0.0473402
0.0425574
0.0431045
0.0435721
0.0441067
0.0443142
0.0450023
0.0448062
0.0458022
0.0450671
0.0461702
0.0450238
0.0460469
0.044806
0.0420729
0.0388479
0.0326474
0.0306674
0.0295567
0.0268416
0.0243382
0.0220883
0.0202624
0.0198278
0.0182628
0.0168578
0.0165583
0.0152685
0.0155171
0.0167342
0.0198603
0.0168186
0.0176659
0.0259786
0.0191379
0.018046
0.0185939
0.0191137
0.019352
0.0182465
0.0198739
0.0221441
0.0221396
0.0222022
0.022213
0.0214123
0.0212496
0.020981
0.0210388
0.0210712
0.0211973
0.0211669
0.019346
0.0192899
0.0190179
0.0188808
0.018093
0.0179264
0.0173436
0.0170143
0.016173
0.0158797
0.0154303
0.0154805
0.0165551
0.0203344
0.0297033
0.0172415
0.0178727
0.0154864
0.0139445
0.026615
0.0248033
0.0286528
0.0267946
0.0394644
0.0264492
0.0232069
0.0242303
0.0297578
0.0296883
0.0326208
0.0424238
0.0330697
0.0281974
0.0725731
0.0523866
0.0329979
0.0458457
0.0579537
0.108471
0.126894
0.0556915
0.056223
0.0619186
0.0628201
0.0627061
0.0530524
0.0489419
0.0410177
0.0314574
0.0129346
0.0249344
0.0321935
0.0423966
0.0565527
0.091755
0.0527205
0.0595441
0.0654804
0.0645603
0.0676605
0.0657904
0.0644068
0.06536
0.102443
0.111509
0.107113
0.0856248
0.080466
0.074039
0.123865
0.138865
0.119587
0.12953
0.135186
0.0809515
0.0303153
0.0249848
0.0238502
0.0264278
0.0253726
0.0460287
0.0206059
0.021835
0.0226615
0.0271771
0.0302171
0.0528651
0.0232833
0.0254723
0.0324236
0.0348783
0.045891
0.0274621
0.0280972
0.0344108
0.036197
0.0395221
0.0336711
0.0317929
0.0287476
0.0259394
0.0244447
0.0255042
0.0319146
0.0464077
0.0279154
0.0283444
0.0301102
0.13402
0.0307769
0.0266684
0.0277344
0.0267464
0.0337187
0.0351047
0.111091
0.0355214
0.016702
0.0154598
0.0159381
0.0167521
0.0173898
0.018008
0.0184518
0.0190916
0.0194828
0.0196369
0.0198069
0.0221801
0.0220766
0.0216081
0.0210643
0.021855
0.0211609
0.0212081
0.0218231
0.0212887
0.021435
0.0224813
0.0236482
0.0231582
0.0237197
0.0250694
0.0239157
0.022222
0.0220164
0.0221383
0.0228459
0.0239845
0.0227948
0.0234482
0.0226314
0.0235523
0.0236717
0.0203755
0.0200054
0.0198009
0.0193005
0.0186273
0.0180031
0.0173279
0.0166711
0.016154
0.0160571
0.0165293
0.015183
0.0155592
0.0178353
0.0390738
0.0321571
0.0263481
0.0221071
0.0195043
0.0183905
0.0182944
0.0187492
0.0194045
0.0199645
0.0201735
0.0207616
0.0246414
0.0245674
0.0257706
0.0246355
0.0259709
0.024914
0.0235906
0.0227209
0.0239266
0.023231
0.0237208
0.0253302
0.0261697
0.0238096
0.0240773
0.0214961
0.0200888
0.0184787
0.0188175
0.0202619
0.0209337
0.023362
0.0234433
0.0268725
0.0268538
0.0267108
0.0254807
0.0248077
0.0262566
0.0247726
0.0259219
0.0248128
0.026216
0.0274019
0.027747
0.0270426
0.0262089
0.0253367
0.0210593
0.0202671
0.0199607
0.0194669
0.0191933
0.0200733
0.024238
0.0333142
0.0453007
0.0573559
0.0667674
0.0663079
0.0597604
0.0404023
0.0415062
0.0384457
0.0419748
0.0596476
0.0853876
0.059612
0.113752
0.0881
0.0522961
0.0625804
0.0745298
0.0836634
0.0895413
0.0904668
0.0769392
0.0565661
0.0496455
0.0520993
0.0844438
0.0831818
0.0822749
0.0778458
0.0823188
0.0802137
0.0775566
0.076001
0.0742288
0.0699904
0.0699718
0.067292
0.0672624
0.0601479
0.0613332
0.0615577
0.0589866
0.0562467
0.0539658
0.0517809
0.0494623
0.045579
0.044304
0.041834
0.0401002
0.0367527
0.0362207
0.0357362
0.0335654
0.0320171
0.0307666
0.0295081
0.0278102
0.0279739
0.026395
0.0262395
0.0213885
0.0210077
0.0199872
0.0196522
0.0193936
0.0195634
0.0207582
0.0233756
0.0434161
0.033045
0.0329496
0.0335279
0.0337117
0.03966
0.0464347
0.0705923
0.0652957
0.0718224
0.061429
0.0638665
0.0630791
0.0626943
0.0654086
0.0689853
0.0743218
0.086818
0.333459
0.513801
0.253172
0.237161
0.246794
0.251693
0.259134
0.339146
0.36014
0.356022
0.360637
0.330553
0.318433
0.19661
0.226045
0.23812
0.236989
0.223834
0.202074
0.392381
0.52266
0.518789
0.523657
0.523769
0.518767
0.522601
0.502912
0.514274
0.501758
0.515027
0.502298
0.521668
0.518929
0.504364
0.501137
0.501157
0.500917
0.501379
0.501556
0.504894
0.506056
0.506107
0.505102
0.504111
0.514526
0.436065
0.121761
0.0845752
0.140569
0.195357
0.159854
0.231672
0.266465
0.191955
0.108981
0.0888188
0.100228
0.123443
0.124967
0.151906
0.198959
0.186332
0.152053
0.153038
0.153464
0.198477
0.190176
0.216443
0.258722
0.252162
0.187554
0.149204
0.148236
0.226157
0.241163
0.236375
0.122024
0.0436847
0.0217663
0.0226393
0.0327301
0.0164938
0.0168247
0.0219635
0.0572028
0.0959706
0.0493603
0.135193
0.137163
0.181324
0.146827
0.177703
0.114962
0.118382
0.067375
0.0793506
0.0892785
0.0950416
0.099324
0.0933236
0.215666
0.318345
0.189861
0.560242
0.537412
0.19556
0.216772
0.575453
0.513013
0.503521
0.501784
0.501698
0.501859
0.501816
0.500969
0.500915
0.500728
0.500765
0.500716
0.501163
0.504767
0.520393
0.514606
0.50524
0.501385
0.500824
0.500799
0.500691
0.50073
0.50075
0.500808
0.501017
0.50105
0.501151
0.50167
0.503939
0.512031
0.435399
0.16967
0.182011
0.405748
0.361528
0.511504
0.504621
0.501369
0.500942
0.500855
0.500829
0.500795
0.500969
0.50089
0.501397
0.501231
0.501287
0.502776
0.508257
0.506393
0.442892
0.369175
0.416819
0.329755
0.506668
0.507776
0.503276
0.5029
0.503247
0.503414
0.501514
0.501527
0.500992
0.50106
0.500893
0.50134
0.504755
0.511014
0.345694
0.170574
0.177473
0.257574
0.0877238
0.0906266
0.0925222
0.0946109
0.24657
0.440567
0.554458
0.47019
0.474358
0.541211
0.384939
0.363697
0.293449
0.316962
0.401202
0.346591
0.31223
0.249781
0.28799
0.247203
0.302936
0.217402
0.233696
0.221307
0.282558
0.286411
0.286779
0.226253
0.216156
0.27116
0.285459
0.316376
0.218305
0.258569
0.202914
0.191921
0.0869278
0.0890719
0.0809661
0.0710387
0.0708261
0.0789444
0.0774075
0.08359
0.0806095
0.084314
0.0814555
0.0794288
0.072633
0.0746466
0.0684402
0.0710704
0.129936
0.165998
0.149974
0.151383
0.179014
0.130617
0.156934
0.152963
0.196993
0.247343
0.225836
0.290498
0.2243
0.274789
0.404724
0.753277
0.436771
0.243588
0.317268
0.339392
0.287991
0.189074
0.448759
0.537819
0.297392
0.359587
1.19566
1.043
1.78128
0.991289
1.11756
0.669461
0.596562
1.02765
0.652649
0.66494
0.558555
0.572412
0.498068
0.323457
0.322901
0.304821
0.241187
0.279783
0.270516
0.266114
0.295622
0.260783
0.315695
0.351426
0.396043
0.321884
0.284747
0.365855
0.214977
0.289782
0.345254
0.314688
0.258914
0.336917
0.448682
0.41972
0.36108
0.397934
0.508193
0.56193
0.53078
0.45018
0.511009
1.00477
0.961302
0.929556
0.589121
1.93348
1.71682
0.351563
0.136901
0.0952451
0.036088
0.0224256
0.0182754
0.0178865
0.0488822
0.0195462
0.0235263
0.0211732
0.0299077
0.0272741
0.0315256
0.0552195
0.0375038
0.0525817
0.0390078
0.0517752
0.0412417
0.056682
0.0608623
0.0640665
0.0517751
0.040858
0.0617348
0.0824055
0.0385556
0.0992064
0.104842
0.0676687
0.082364
0.101715
0.0525697
0.164386
0.0571112
0.056713
0.0673368
0.126246
0.250478
0.0851571
0.111737
0.584157
1.52864
0.508844
0.200632
0.16364
0.0414544
0.0359946
0.0292474
0.0356182
0.0314022