/*--------------------------------*- C++ -*----------------------------------*\
| =========                 |                                                 |
| \\      /  F ield         | OpenFOAM: The Open Source CFD Toolbox           |
|  \\    /   O peration     | Version:  v2012                                 |
|   \\  /    A nd           | Website:  www.openfoam.com                      |
|    \\/     M anipulation  |                                                 |
\*---------------------------------------------------------------------------*/
FoamFile
{
    version     2.0;
    format      ascii;
    class       surfaceScalarField;
    location    "780";
    object      phi;
}
// * * * * * * * * * * * * * * * * * * * * * * * * * * * * * * * * * * * * * //

dimensions      [1 0 -1 0 0 0 0];
oriented        oriented;


internalField   nonuniform List<scalar> 
50655
(
0.00256655
-0.00360408
-0.00138696
-0.00510645
0.00130262
0.00363873
-0.00341342
0.00387487
0.00451443
-0.00249578
-0.00279988
0.00298993
-0.0036823
-0.00376753
0.00269806
-0.00179319
-0.00481753
0.000848728
0.000154179
-0.00467745
0.00163345
-0.00184411
-0.00719468
0.0024297
-0.0104824
0.00285734
0.000331585
-0.0113047
-0.00347281
0.0041851
-0.0120573
-0.00484844
0.00549868
-0.012917
-0.00563943
0.00639494
-0.0261983
-0.0093227
0.0224101
-0.0487277
-0.0282747
0.0502439
-0.048329
-0.0527317
0.0516359
-0.0311194
-0.0711419
0.0531544
-0.00457626
-0.0780808
0.0507546
0.00782995
-0.0547807
0.0415631
-0.0018295
-0.0314064
0.040293
-0.0212904
-0.0216718
0.0403659
-0.0173331
-0.0513018
0.0466221
-0.00739616
-0.055563
0.0450683
-0.0391344
0.0314092
-0.0419199
0.0187865
-0.0163023
-0.0166063
-0.0756579
0.0498496
0.0198743
-0.0798696
0.0428925
0.0305622
-0.029555
0.0185602
0.0342719
-0.0040471
0.0367306
0.0177562
-0.0205373
0.0256671
-0.0180051
0.0287927
0.0167646
-0.00949954
0.0182329
0.00388365
-0.00139067
0.0141446
-0.00629675
0.00700979
0.00307533
-0.005384
0.00039787
-0.00135132
-0.00536627
-0.00111797
0.00108185
-0.0062907
0.000134547
0.000772594
-0.00755241
0.000124778
0.00112034
-0.00866665
1.01075e-05
0.001087
-0.00905228
-0.000319226
0.000688494
-0.00931105
-0.000739658
0.000981833
-0.00887731
-0.00116866
0.000718635
-0.00824746
-0.00164353
0.000997006
-0.00702395
-0.00209652
0.000856584
-0.00558979
-0.00256542
0.00111439
-0.00372632
-0.00286144
0.000981786
-0.00191332
-0.00304454
0.00121458
0.00107863
-0.00300955
0.000827187
-0.00236871
0.00259451
-0.00590609
0.00490605
0.00178546
-0.0115226
0.00462923
0.000930757
-0.0134609
0.00506065
-0.00318936
-0.0131816
0.00531726
-0.0056635
-0.00552696
0.00461837
-0.0123295
0.000480193
0.00558998
-0.0116389
0.00059546
0.00356909
-0.00371
-0.00150751
0.00208538
-0.00295706
0.00214186
-0.00070945
-0.00451775
0.00218985
-0.000645314
-0.00583063
0.00234934
-0.00105285
-0.00709712
0.00230688
-0.00105534
-0.00859847
0.00249893
-0.0010116
-0.0101645
0.00258492
-0.0010323
-0.0114597
0.00237703
-0.00109492
-0.012362
0.00201537
-0.00112607
-0.0128291
0.00160192
-0.00114788
-0.0131465
0.00143591
-0.00113178
-0.0137495
0.00156311
-0.000974357
-0.013956
0.00111945
-0.000927976
-0.0136612
0.000894069
-0.00120438
-0.0136513
0.000780443
-0.000805964
-0.0133766
0.000825225
-0.00111597
-0.0131292
0.000900203
-0.00116361
-0.0129843
0.000843514
-0.00100414
-0.0127084
0.00057397
-0.000865527
-0.0121689
0.000125266
-0.000680144
-0.011268
-0.000449771
-0.000466423
-0.0101475
-0.000909144
-0.000226685
-0.00883012
-0.00100489
-0.000327249
-0.00738194
-0.000755393
-0.000706635
-0.0075797
-0.000688412
0.000874167
-0.0163833
0.000826696
0.00795031
-0.021151
0.000408395
0.00429879
-0.0225927
0.00115433
0.000222122
-0.0425634
0.0163487
0.00350456
-0.0545404
0.00561537
0.00606329
-0.0294481
-0.0162797
-0.00912013
-0.0131071
-0.0149392
-0.00153402
-0.0112487
-0.00398455
0.00204816
-0.00999368
-0.00307264
0.00172757
-0.00807619
-0.00342214
0.00140315
-0.00471649
-0.00328675
-0.000168218
-0.00317238
-0.00162942
-0.00443565
0.00458312
-0.00341474
-0.00265345
0.00672725
-0.00862308
0.000940201
0.00620318
-0.00992902
0.00624521
0.00589077
-0.0113406
0.0150415
0.00877104
-0.0177484
0.0285808
0.0137357
-0.0275576
0.0248825
0.0196435
-0.0162266
0.016446
0.00634926
0.00190252
0.00762438
7.70016e-05
0.00859727
-0.00125517
-0.00406619
0.0128108
-0.00450848
-0.00684618
0.00998311
-0.0075719
0.00539568
0.00443261
0.000977942
-0.0102226
0.00218688
-0.00828332
0.00356919
-0.00498885
-0.00436919
0.00735294
-0.012441
0.00203746
0.00535884
-0.0143377
0.00567719
0.0024319
-0.0385615
0.0268737
0.0232607
-0.00684858
-0.0133484
0.037039
-0.00982323
-0.0392706
-0.00484846
0.00926558
-0.00912896
-0.000580558
0.00895491
-0.0074621
0.00264071
0.00957745
-0.00671795
0.00456743
0.00959732
-0.00490672
0.00711434
-0.00134436
0.011258
-0.00496133
-0.00272166
0.0124352
-0.00189632
-0.00245591
0.00881683
-0.000396839
-0.00414165
-0.00203108
-0.0210686
-0.00212591
0.0295459
-0.0106676
-0.014316
-0.00166947
-0.0071252
-0.00248887
-0.00733772
0.0158709
0.00133193
-0.0102783
0.0219181
0.00113516
-0.00900803
0.0324625
0.000357083
-0.0132042
0.0831963
-0.00213532
-0.0360079
0.0467848
-0.00196835
0.0455138
-0.0021879
0.00743446
-0.00311091
0.0384405
0.00385051
0.021782
0.0019545
0.0232286
-0.000319396
0.0113138
0.0139358
0.00622631
-0.00793775
0.000102853
0.00680805
0.00521456
-0.00148214
0.007319
0.00818455
-0.00152567
0.00711994
-0.0150713
0.00797674
-0.00209858
0.0073674
-0.0153153
0.00850093
-0.00126461
0.00743374
-0.016701
0.00841285
-0.00130248
0.00741751
-0.0160123
0.00861187
-0.00063051
0.00728032
-0.016578
0.00860512
-0.000255686
0.00702884
-0.0159814
0.00855772
0.000707556
0.00623268
-0.0154426
0.00822803
0.00576213
0.00442006
-0.0169401
0.007451
0.0014913
-0.00415095
0.00567392
0.00273352
0.000805733
0.00537898
-0.000280342
0.000625582
0.00713692
-0.000734854
0.000779255
0.00801288
-0.00115001
0.000934545
0.00831591
-0.00120385
0.00127139
0.00838439
-0.00131697
0.00149499
0.00855921
-0.00136235
0.00149718
0.00870443
-0.00135219
0.00126024
0.00871572
-0.00137116
0.000933075
0.0088308
-0.00119652
0.00730637
-0.000264052
0.00935389
-0.00199805
-0.000818848
0.0110316
-0.00184336
-0.000854621
0.0123149
-0.00154044
-0.000667936
0.0131006
-0.000305848
-0.00094526
0.0135308
0.000857922
-0.00117862
0.0137086
0.00171426
-0.00133393
0.0137078
0.00224217
-0.00141411
0.0137672
0.00225457
-0.00143037
0.0137227
0.00183016
-0.000976888
0.0137299
0.00135233
-0.000595124
0.0139126
0.00123118
-0.000535419
0.0133011
0.00114863
0.000567024
0.0124497
0.00243594
0.000233501
-0.00026908
0.0126912
-0.000413826
0.00244116
-0.000846134
0.0123533
-0.0002384
0.00280391
-0.000638943
0.0114797
-7.4862e-05
0.00311659
-0.000165979
0.010217
4.79895e-05
0.00029786
0.00328066
0.00861782
0.000723397
0.00331841
0.000128761
0.00687208
0.00104206
0.00305221
0.000136588
0.0058671
0.000965129
0.00224418
8.75952e-05
0.00442386
0.00462749
-0.000851309
0.00287015
0.00428217
-0.000554817
0.00142343
-0.000504816
0.00407699
0.00389619
-0.000404311
0.00560638
-0.000511939
-0.0012144
0.00683098
-0.0004068
-0.000834641
0.00780234
-0.000604014
-0.000383839
0.00816601
-0.000469937
8.95551e-05
0.00822011
-0.000602011
0.000531447
0.00752762
-0.000254297
0.000930187
0.00654452
-0.000286844
0.00125338
0.00471514
0.000306221
0.00150608
0.0019905
0.00117799
0.00152952
-0.00179369
0.00206675
0.00169949
-0.00452291
0.000521279
0.00218995
-0.00604246
-0.000896595
0.00239688
-0.00732711
0.000613554
0.000649149
-0.0138155
0.000491241
0.00595226
-0.0249546
-0.00657166
0.0175949
-0.0311103
-0.0162071
0.0221976
-0.0391896
-0.0262292
0.034042
-0.0318367
0.0237459
0.0162154
-0.038591
0.00908964
0.0260035
-0.0166962
0.00683958
-0.00458288
0.00430322
-0.0323199
0.0262453
0.00144294
-0.0147621
-0.023277
0.00568404
-0.0374801
0.00597547
0.0412493
-0.0574721
-0.000732861
0.0290855
-0.0500649
0.0152106
0.0126085
-0.00993432
0.0169662
-0.0102251
0.0109726
-0.0025607
0.0190375
0.00785164
0.0114231
-0.0125559
0.0134829
0.00538271
-0.00625069
0.00138082
0.0112767
0.00495551
0.0010293
0.0027522
0.00129649
-0.000997155
0.00148791
0.00276114
-0.00486142
0.00386269
0.00204678
-0.00542863
-0.000432771
0.00215701
-0.0095677
0.00200903
0.00241579
-0.00822131
-0.0036743
0.00202096
-0.0118742
0.00196175
0.00141701
-0.00891553
-0.00417282
0.000592289
-0.011252
0.00215863
-0.000311865
-0.00732945
-0.00319614
-0.00135008
-0.00816585
0.00229681
-0.00188738
-0.00441129
-0.0017074
-0.00257834
0.00130406
-0.00256964
0.00403017
0.0117506
-0.0106535
0.0115898
0.00649468
-0.00948849
0.0131925
0.00880146
-0.00515657
0.0103295
0.0103953
-0.00254137
0.00427189
0.00939628
0.00123805
0.0125741
-0.00190854
-0.00223424
0.00068724
0.0148089
-0.00605785
0.00512681
-0.00334649
0.00196734
0.0147087
-0.00759952
-0.00314538
0.00310218
0.0076697
0.0101141
-0.0079351
-0.00274804
0.00315749
0.0120461
0.00174627
-0.00673798
-0.00205375
0.000998978
0.0160755
-0.000577177
-0.00462504
0.00742414
-0.000189701
-0.00524924
0.0113711
0.000202604
-0.0103876
0.0126156
-0.00897943
-0.0142512
-0.01417
0.00842407
0.00572656
-0.024145
0.00411875
-0.0185802
0.00624699
-0.0165689
-0.0113692
0.00928883
0.00791079
0.0096267
-0.0341529
-0.0238341
0.00756467
0.0111779
0.00745168
-0.0100673
-0.032485
-0.00920914
0.0078342
-0.0016748
-3.49572e-05
0.00785848
-0.00663034
-0.0104655
0.0115771
-0.00767918
-0.0142212
0.0104531
0.0106135
-0.000694181
-0.00888073
0.0103754
-0.00157486
0.0080086
-0.00762743
0.00367215
0.00104125
0.00478619
-0.0035004
0.00561019
-0.00630662
0.0139927
-0.0121428
-0.00347988
0.0108149
-0.0170412
-0.00260942
0.00572186
-0.0169804
-0.000972335
-0.00117607
0.0020652
-0.00826974
0.00849321
0.00961252
-0.00961472
0.0110201
0.0112061
-0.00501177
0.0117331
0.0118115
-0.00220945
0.0105779
0.00442478
-0.0110854
0.0109173
0.00307601
-0.00925423
0.0120509
-0.00215414
-0.00501898
0.011661
-0.00477373
0.0096917
-0.00614131
0.00226164
0.00363597
0.00111197
0.00808733
0.00728463
-0.00153658
0.0110866
0.00855327
0.000411315
0.00736049
0.00663675
-0.00919145
0.0102008
-0.000458317
-0.00703388
0.00397481
0.00233245
0.000207686
0.00171355
-0.00175997
0.00507497
-0.00640456
-0.00146233
-0.00226986
0.0187398
-0.00369396
-0.0192684
0.0169864
-0.00144801
-0.00172265
-0.0161459
-0.0118743
-0.00093608
0.00339004
-0.00861014
-0.0107066
-0.0132142
0.00664112
-0.00596228
-0.00495841
0.000902593
0.00139458
0.000390747
-0.00209327
-0.0042622
-0.000992731
0.00398563
-0.00260374
-0.000423885
0.0018128
-0.00238303
0.00129781
-0.00381716
0.00679408
0.00070959
-0.0111763
0.000653762
-0.00348096
0.0105093
-0.00346536
-0.00443258
-0.0189793
0.0140167
-0.0118882
-0.0194229
-0.0118242
0.00787588
0.00429973
-0.0266087
-0.0154456
0.00260301
0.00935368
0.0105636
-0.0355797
-0.0165234
0.0130956
0.00185741
0.0104392
-0.0422833
-0.0146799
0.00986268
0.000105434
0.011312
-0.0436535
-0.0108391
0.0032692
-0.00151014
0.0103458
-0.0431543
-0.00622399
-0.00146174
-0.00182044
0.00889713
-0.0394695
-0.00339845
-0.00447805
0.00409759
-0.0347253
-0.00123782
-0.00708691
0.00650221
-0.00302976
-0.0321613
0.00128376
-0.00609109
0.00562635
-0.00348496
-0.0291126
0.00259129
0.00449982
-0.0039662
-0.00627642
-0.0289168
0.00198601
0.00399135
-0.0035313
-0.00275387
-0.0298193
0.000121635
0.00187562
-0.00120183
-0.0277612
-0.00168112
0.00142882
-0.00191941
-0.0229439
-0.00271779
0.0015812
-0.00377705
-0.0301157
0.00174077
0.0226177
-0.0172623
-0.0592267
0.0293169
-0.0130053
0.0124222
0.00594378
-0.0198774
-0.00143342
-0.0132667
-0.0251754
-0.00910078
-0.0122461
-0.000516195
-0.00873101
-0.0111447
0.000577255
0.000300388
-0.0094176
-0.000638985
0.000542891
-0.00579468
-0.00380681
0.00147676
-0.00309257
-0.00402086
0.00105213
-0.00453932
-0.000252337
-0.0044596
0.000796186
-0.000923152
-0.00684862
0.0020457
0.000280133
-0.0107889
0.00220005
0.00166058
-0.0131001
0.000810612
0.00142198
-0.0133664
-0.000358706
0.000555282
-0.0130753
-0.00175336
0.00140827
-0.0236467
0.00141909
0.00907756
-0.0568475
0.0174964
0.0154976
-0.101268
0.00880151
0.0350463
-0.117909
-0.00593212
0.0218789
-0.127245
-0.0116562
0.0202181
-0.133656
-0.0165548
0.0221314
-0.137297
-0.0222453
0.0250011
-0.138618
-0.0273102
0.0277206
-0.13854
-0.0307929
0.0297907
-0.137731
-0.0329454
0.0312118
-0.136279
-0.0341941
0.0318254
-0.134136
-0.0348427
0.0317988
-0.1303
-0.0353511
0.0306431
-0.122335
0.0278607
-0.0366594
-0.103201
0.0208334
-0.0407263
-0.0534167
0.00336172
-0.0537651
-0.0226009
-0.00120863
-0.0298261
-0.0123751
-0.00427704
-0.00602598
-0.0120971
0.00199358
-0.00232674
-0.0111974
0.00433383
-0.0053042
-0.00876267
0.00384909
-0.00636434
-0.00424724
0.00401686
-0.00861664
-0.00478634
0.00348368
-0.00301581
-0.00805527
-5.62175e-05
0.00327433
-0.00781669
0.00236431
-0.00267406
-0.00893863
0.00103413
-0.0138111
0.00697903
-0.00220518
-0.0166441
0.00714568
-0.00442262
-0.0189203
0.00764338
-0.00546979
-0.0237774
0.00700276
-0.00225033
-0.0533272
0.0187351
0.0106182
-0.0979513
-0.00807082
0.0521213
-0.11095
-0.0316614
0.0439391
-0.112414
-0.0418126
0.0424663
-0.107718
-0.0476558
0.0421369
-0.0989262
-0.0521245
0.0424764
-0.0862198
-0.0543422
0.0408112
-0.0692282
-0.0558408
0.0380293
-0.0494632
-0.0568148
0.0362837
-0.0237718
-0.0481124
0.0217843
-0.0376245
0.0134141
-0.0534718
0.0232857
-0.0079056
-0.0592814
0.0255143
-0.0202074
-0.0593444
0.0268402
-0.0273035
-0.0503271
0.0266247
-0.0361681
-0.0402526
0.0245267
-0.035104
-0.0230732
0.0166575
-0.034304
0.00942282
-0.0329347
0.0272488
0.0381215
-0.0565843
0.0509938
0.0495195
-0.0740305
0.074852
0.0496126
-0.0742906
0.0950264
0.0498228
-0.0708217
0.110752
0.0470152
-0.063597
0.118947
0.0396887
-0.0487067
0.116888
0.0329173
-0.0316684
0.101191
0.0300401
-0.0150631
0.0544647
0.0398239
0.00632885
0.0254536
0.0250249
0.00378981
0.0213467
0.00417443
-0.000172166
0.0194345
0.000588181
0.00122138
0.0158565
0.000295576
0.00317262
0.00912185
-0.000251729
0.00688778
-0.000929574
0.00996365
-0.000977954
-0.00970276
0.00965539
0.000706998
-0.0130946
0.0113007
0.00254566
-0.0142239
0.0122621
0.00404661
-0.0135557
0.0119192
0.00428689
-0.0191516
0.0187334
0.00779832
-0.0286119
0.0248153
0.00378618
0.023605
-0.0198766
-0.000221733
0.0168844
-0.0130556
-0.000410865
0.00843294
-0.00837947
-0.000569188
0.00774477
-0.00770965
-0.00110465
0.00737204
-0.00694556
0.00631579
-0.00648209
0.00344713
0.00545815
-0.000287722
0.00322717
0.00619382
0.00132613
0.00332317
0.00591804
0.001653
0.00398614
0.00478685
0.00290489
0.0103419
0.0115943
-0.00117132
0.0193992
-0.0089866
-0.000116191
0.00911558
-0.00420017
0.0144431
-0.0230223
-0.0114143
0.0434824
-0.015543
-0.00575963
-0.00179823
-0.000981173
0.00357559
0.00487301
-0.0094455
0.00605278
-0.00260413
0.00362632
-0.00178863
-0.00825711
0.000440541
-0.00916831
-0.0102621
-0.0126571
0.0184201
-0.00479478
-0.0307303
0.00322677
0.00365918
0.0040566
-0.0175283
-0.0496607
0.00586228
0.0101257
0.000851882
-0.0581389
-0.0156525
0.0262062
-0.00421466
-0.0203922
0.00616962
-0.0032381
-0.0202747
0.00560986
-0.00226095
-0.0206323
0.00530667
-0.000892294
-0.019014
0.00443815
-0.0149755
0.00403201
-0.0211105
0.00225923
0.0040465
-0.0219267
-0.00134769
0.00263791
-0.0178775
8.72713e-05
0.00542998
0.00165258
-0.0465629
0.0354275
0.00829626
0.00805289
-0.115009
0.0350303
0.0514507
0.0208978
-0.125107
0.0472743
-0.00799117
-0.12597
0.0547482
-0.0218345
-0.118166
0.0645084
-0.0334998
-0.103254
0.0731701
-0.0419493
-0.0841535
0.0769151
-0.0470604
-0.0615839
0.0747033
-0.0484996
-0.0367515
0.0743528
-0.0504797
0.0504512
-0.0329911
0.0588831
0.0459186
-0.0304313
0.068468
0.0518296
-0.0354149
0.0687776
0.052973
-0.0270673
0.0633598
0.0506972
-0.0203727
0.0439789
-0.00601333
-0.0882172
0.0718955
0.00267184
-0.098008
0.0755353
-0.0159561
-0.0995054
0.0799998
-0.0264718
-0.0882017
0.0792345
-0.0396509
0.0719356
-0.0407746
0.088025
0.0944848
-0.0367618
0.0976258
0.101688
-0.0329839
0.0944895
0.101114
-0.0189075
0.0819215
0.0960544
-0.00884198
0.0903435
0.00679346
-0.0812566
0.103431
0.0129592
-0.0944635
0.11052
-0.00218031
-0.0983572
0.116003
-0.0119563
-0.0904766
0.116887
-0.0240406
0.111435
-0.0314329
0.0869959
0.12426
-0.0275866
0.0946514
0.12829
-0.0200347
0.0912347
0.126437
-0.007994
0.0783163
0.120342
0.00216098
0.112101
0.0166394
-0.0724379
0.11667
0.0193368
-0.0843702
0.125427
0.00590952
-0.0867008
0.132011
-0.00422287
-0.0787841
0.134408
-0.0150142
0.131342
-0.0222953
0.0681733
0.132013
-0.0150325
0.0760686
0.134754
-0.00921866
0.074986
0.131166
0.000950474
0.064058
0.124765
0.0106534
0.115476
0.0225721
-0.052564
0.105757
0.0297667
-0.0645906
0.116315
0.0195337
-0.0641408
0.119893
0.00985986
-0.0561997
0.125308
0.000541907
0.12619
-0.00404584
0.035129
0.019168
0.0613416
0.0446428
0.0514072
0.0946917
0.0134628
0.0547194
0.0924574
0.0232483
0.0357195
0.048287
0.0452194
0.0408689
0.0445104
0.0365182
0.0514855
-0.0122925
0.0268442
0.0153772
0.0143652
-0.0187182
0.0276632
0.0150792
-0.0152791
0.0311334
0.0135111
-0.0135229
0.0290506
0.0142035
-0.0399305
0.0275323
0.0407596
-0.000785544
0.0248714
-0.0283758
-0.00826178
0.0384909
0.00580803
-0.0370227
-0.00678512
0.0299514
0.00548443
-0.0370891
-0.00458025
0.0290674
-0.0365366
0.00509444
0.0258622
0.00347539
0.00379969
0.00515377
0.00490906
0.00715493
0.00679288
0.00761382
0.00904898
0.00891268
0.008389
-0.00413385
-0.019939
0.0156822
0.00266537
-0.000614902
0.000585819
0.00624622
0.00289875
0.000296354
-0.000533777
0.000352548
0.00408951
-0.00154817
-0.00243829
-0.00132155
0.00410821
-0.0016573
-0.00048828
0.00117952
0.0105948
0.0120801
0.0316026
-0.0531864
0.00540029
0.0177677
-0.00423342
-0.00728654
0.0568186
0.00123695
-0.0150783
0.00283578
0.00354006
-0.00655019
0.00504861
0.00397523
-0.00620278
-0.0221996
0.0096847
0.0175233
-0.00940892
-0.0125154
-0.000318909
0.0179204
-0.00256785
0.0239358
-0.00789004
0.0462574
-0.0127066
0.0215974
0.0765935
-0.0248591
-0.0326486
0.00461851
0.00708817
0.0297643
0.00213527
-0.0175498
0.00803932
0.0136609
-0.00405147
-0.0106529
0.00847482
0.0149606
-0.00404725
-0.0114554
0.00757779
0.0144347
-0.00236485
-0.0112793
0.00613246
0.0127884
-0.0104289
-0.00101281
0.00367477
0.0105269
-0.00879355
0.000637047
0.00872544
-0.00789881
0.00276771
0.0084288
-0.00315787
0.00338379
0.0080267
-0.00280181
0.00314884
0.015175
-0.00808687
0.000861308
0.0392328
-0.015966
-0.00831061
0.0727582
-0.0389304
0.00478645
0.0828173
-0.0276704
0.0168519
0.0843547
-0.0235243
0.021153
0.0817658
-0.0202596
0.0219761
0.0765445
-0.0158197
0.0201381
0.0694955
-0.00871033
0.014841
0.0599996
0.00177469
0.00679316
0.0414261
0.0177163
-7.06828e-05
0.0139006
0.0416846
-0.015077
-0.00595645
0.0553586
-0.0364039
-0.00198433
0.0502598
-0.0551038
0.0121525
0.0392791
-0.054249
0.0155771
0.0262595
-0.0304425
0.00974877
0.0289069
-0.0236959
0.00223346
0.0113654
-0.00406836
0.000508473
0.00389279
-0.00224477
-0.000299626
0.00181388
-0.00106037
-0.00202749
0.00329246
-0.00163412
0.00316604
-0.00228138
0.00314213
0.00526478
-0.00145109
4.32799e-05
0.00667485
-0.000358958
0.00202499
-0.000189398
0.00652045
-0.000631314
0.00157247
0.0060085
-0.00368741
0.00251412
0.00541557
0.00627115
0.00107989
0.0115824
0.0171266
-0.0105684
0.0152019
-0.0103118
0.0233619
0.0238863
-0.0296759
0.0433224
0.0144017
-0.0439038
0.0506316
0.012921
-0.0622567
0.0465314
0.0262278
-0.0783182
0.0295958
0.0271851
-0.0893876
0.00780473
0.0200084
-0.0949925
-0.00854962
0.0149563
-0.0984676
-0.0208436
0.0146421
-0.100688
-0.0294335
0.0148803
-0.1009
-0.0352075
0.0142228
-0.0975397
-0.0395775
0.0117713
-0.0886761
-0.0439825
0.00654025
-0.0318925
-0.0405899
-0.0448144
-0.011293
-0.0184256
-0.0104331
-0.0191716
0.0026257
-0.0153755
-0.00711399
0.00132497
-0.00575376
0.000263697
-0.0094352
0.000857898
-0.00380887
0.0016662
-0.00749868
0.000998305
-0.00882589
0.0158321
-0.000176284
-0.00797094
0.0158434
-0.00183808
-0.00616397
0.0139356
-0.00216314
-0.0020814
0.019812
0.00572864
0.0205107
0.107031
-0.0446474
-0.00950844
0.00401896
0.0307078
0.0054906
0.00763185
0.010518
-0.000247387
0.0084421
0.0142859
0.000668588
0.0151427
0.00192742
-0.0162696
-0.0197553
-0.012679
0.0308194
-0.0202563
0.0463027
-0.01786
-0.0511817
0.106938
-0.0245553
-0.052225
0.121887
-0.0149777
-0.104438
-0.0444799
0.125705
-0.0301768
-0.0752541
-0.0286403
-0.0174598
-0.0288575
-0.0143478
-0.00291582
-0.0403236
0.0170214
-0.00213154
-0.0241523
-0.0052719
0.0279616
-0.0054563
-0.00855918
0.0163602
-0.00786131
-0.00931871
0.0144548
-0.0061899
-0.00946997
-0.0118296
-0.00273955
0.0501628
-0.021243
-0.0125763
-0.00611068
0.00061541
-0.0119188
-0.0084936
-0.000106732
-0.00874173
-0.00715928
-0.0015665
-0.00496293
-0.00442864
-0.00158139
-2.75943e-05
-0.000762699
-0.00378669
-0.000452222
-0.00986007
1.60551e-05
0.000445273
0.00127243
-0.00170785
0.00137123
-0.00208069
0.00336111
0.00174875
-0.00265241
0.00437375
0.00205917
-0.00197993
0.00371492
0.00175325
0.00266942
0.000706427
0.00451232
0.00263345
-0.00106159
0.00471398
0.003841
-0.000403507
0.00457154
0.00492054
-0.000485384
0.00482802
-0.000755518
-0.00638506
0.0108743
-0.00420029
-0.00620954
0.0108984
-0.00626511
-0.00533933
0.0100528
-0.00718748
0.00901107
-0.00779131
0.00657294
0.0118698
-0.00566995
0.00800219
0.0135976
-0.00507272
0.00819288
0.0151194
-0.00451814
0.0149261
-0.00312489
-0.00920212
0.0168663
-0.00133192
-0.0093209
0.0178717
-0.00273964
-0.00966006
0.0177683
-0.00393598
0.0104783
-0.00401123
0.0128673
-0.000417166
0.0102362
-0.00167482
0.00750009
0.0232906
-0.00289953
0.00735793
0.0183067
-0.000383013
0.0173005
0.000734327
-0.00885074
0.0484809
-0.0252013
-0.00519995
0.042156
-0.0276446
0.0450018
-0.0282917
0.0294165
0.117677
-0.0575573
0.127528
-0.0450546
0.0508242
0.134962
-0.0387043
-0.0206006
0.0554748
0.134879
-0.0149405
0.0520914
0.130123
-0.00596893
0.115305
-0.00130483
-0.0502748
0.119757
0.0052249
-0.0559978
0.135093
-0.000329671
-0.0535233
0.140803
-0.00948165
-0.0448621
-0.0146289
0.13991
-0.128228
-0.0233251
0.133631
-0.0293305
-0.0128551
-0.0511787
-0.114388
0.0286565
0.119372
-0.106063
-0.066823
0.118388
-0.038395
-0.0495458
-0.0681147
-0.00475899
0.0138731
-0.0135311
-0.019337
-0.019554
-0.00997945
-0.00602596
-0.0131253
-0.00290351
-0.0140139
-0.00406972
0.00257702
-0.0143879
-0.00818601
0.00317549
-0.0127485
-0.0106225
0.00253214
-0.00980416
-0.0145138
0.00286253
-0.0107523
0.00114421
-0.0137733
0.0160568
-0.0137458
0.0006138
-0.00949598
-7.24064e-05
-0.0153625
0.0144749
-0.00157687
-0.0167635
0.0116517
-0.00271173
-0.0180455
0.00965891
-0.00145818
0.0149487
-0.0254759
0.0110929
0.025205
0.018728
0.0207385
-0.0498591
0.0188504
0.0161755
0.017836
-0.0277885
0.0305607
0.016058
0.0191796
-0.0470835
0.0213602
0.0134329
-0.022764
0.0184032
0.0392763
-0.0422299
0.00893723
0.0152758
0.0201063
0.0463322
-0.0101065
-0.0171571
0.0253954
0.0300964
-0.0202374
-0.0152764
-0.0172234
-0.0205947
0.00992023
-0.0182544
0.00381634
-0.0127881
-0.0179406
0.00437249
-0.0172313
-0.0123003
0.00330745
-0.0161218
-0.0141147
0.00228406
-0.0167867
0.00210094
-0.0176603
-0.0170667
0.017449
0.000374807
-0.0162787
-0.000770561
-0.0183849
0.0156355
-0.0019897
0.0130041
-0.00309198
0.0175604
0.0143235
-0.00279145
0.0174276
-0.00140719
0.0164899
0.0182372
-0.0170389
-0.000365706
0.0183839
0.0013332
-0.0151294
0.00285826
-0.015492
0.00100795
0.0174956
-0.0154056
-0.00120432
0.0144744
-0.00214808
-0.00752459
-0.0160173
0.0235837
0.0168696
-0.00150649
-0.0143779
-0.0171365
-0.0261992
-0.0242637
-0.00254662
-0.105284
0.103802
0.00754458
0.0012118
0.0182459
0.0127163
0.0239214
0.0147024
-0.0202559
0.017657
-0.00846021
0.0179725
-0.0122414
-0.00477237
0.00236152
-0.000511392
-0.00555244
0.00485006
-0.00582236
-0.00170865
-0.00210902
-0.00217648
-0.00379236
0.0131677
-0.000990347
-0.00316331
-0.00140289
-0.00338379
0.0163858
-0.020077
-0.0115627
0.01548
0.00688454
-0.0116004
0.0176066
0.00911336
-0.0132615
0.0202208
0.00893347
-0.0141948
0.0229738
0.00891637
0.0301941
0.0119938
0.00987876
0.0134907
0.0124966
0.00947708
0.013282
0.0099142
0.00784513
0.0119298
0.00975218
0.00607326
0.010811
0.00841335
0.0100068
0.00699902
-0.00220088
0.00342362
-0.00261188
0.00416391
-0.00327658
0.00476016
-0.00391004
0.00540337
0.00651298
0.00166396
0.00290442
0.00142372
0.000511049
0.000410236
0.00139462
-0.000143362
0.00198659
-0.0015517
-2.76153e-05
-0.000929997
0.00194748
0.000965673
-0.000331336
0.000793165
-0.000436193
0.00182676
-0.00111597
0.00121423
-0.000537573
0.000311291
-6.00019e-06
0.00202468
-0.00174409
2.74032e-05
0.00379646
-0.000561957
-0.00359394
0.0111508
-0.00639012
0.0035715
-0.0180303
0.00336656
0.0170606
0.00388164
-0.0181408
0.0204347
0.00715202
0.0029319
0.0067736
-0.0170793
0.02085
0.000285282
0.00596757
0.0197968
-0.014851
-0.0136345
0.0141903
0.00503847
0.0109811
-0.00738828
0.0172071
-0.00765672
0.0172758
0.0109157
-0.000402813
0.0199826
0.00717951
0.00334201
-0.00115071
0.0015294
-0.00351705
0.000375164
-0.00229297
0.0126007
0.00135515
-0.00233764
0.000795218
0.000618865
-0.000777641
0.00151209
-0.000568301
0.00156063
-0.000392311
-0.00124429
0.00106702
-0.00207046
0.000899026
-0.000211124
-0.000225734
-0.00163509
-0.000456136
-0.00209462
0.000247441
-0.00185628
0.00140146
-0.00138115
0.000391967
0.000112313
-0.00188669
0.000170744
-0.00141528
-0.000661305
-0.00126451
-0.00240713
0.0011493
0.00124279
0.000229377
0.00047568
-0.00129651
0.000448152
-0.00168418
-0.000480198
0.000536125
0.000390709
0.000109328
6.97398e-05
-0.000660618
0.00104481
0.000305578
0.000314391
-0.000890543
-0.00161355
0.00281509
-0.00077603
0.000273544
0.000179061
-0.000887759
-0.00113186
0.00380489
0.00137862
-0.000359858
-0.00302714
0.0122784
-0.00264667
-0.00129397
-0.00174897
1.17335e-05
-0.000830511
0.00026071
-0.000727105
0.000329295
-4.04457e-05
-0.00112173
-4.4172e-05
0.0018829
-0.000307115
-0.00162327
-0.00132242
0.00321273
-0.000894684
-0.000170167
-0.00124478
0.00111905
0.00204349
0.000342584
0.000324013
0.000921485
-0.000129017
0.00191569
-0.00142393
-0.000171098
-0.00137059
0.00319621
8.56971e-05
-0.000652549
0.000200266
0.00286124
-0.00405603
0.0133096
-0.0011342
-0.0180584
0.000751219
0.00705477
0.0245538
-0.0164945
0.0219076
0.0064099
-0.0177798
0.0225917
-0.00209645
-0.0148929
-0.00439052
-0.0206954
-0.0218709
-0.00631501
-0.0219031
-0.0057334
0.0151609
-0.00263486
0.0198011
0.0317985
0.0374627
-0.0235847
-0.101134
0.0665779
-0.096774
0.0700583
-0.107851
0.0712725
-0.0171007
-0.110093
0.06869
-0.0248578
-0.10663
0.067444
-0.0296608
-0.0981418
0.0662822
-0.0331953
-0.0860359
0.0636158
-0.0358047
-0.0686053
0.0576605
-0.0379454
-0.0488119
0.0532618
-0.0376716
-0.0386954
0.0426537
-0.0317332
0.00426185
-0.0299545
0.0168313
0.0322714
-0.0455083
0.014534
0.0446871
-0.0430572
-0.00710754
0.047717
-0.0264868
-0.0342016
0.0266554
-0.050952
-0.012917
0.0292003
-0.0596642
-0.0245169
0.0327263
-0.0620381
-0.0310379
0.0328856
-0.0557036
-0.0382412
0.0313803
-0.0477216
-0.0353194
0.0268346
-0.0303332
-0.0336027
0.0157471
0.00326383
-0.0340358
0.0201091
0.0445659
-0.062048
0.0426343
0.0556205
-0.0789119
0.0678844
0.0549409
-0.0810109
0.0879881
0.0524051
-0.0733333
0.0991846
0.0477504
-0.0598036
0.100058
0.0399864
-0.0416821
0.0944524
0.0340722
-0.029277
0.0826361
0.0307976
-0.0197015
0.0467128
0.0377158
-0.00236589
0.0225124
0.0228843
0.00111971
0.0193574
0.00391787
-0.000867609
0.0179948
0.000505829
0.000754041
0.0148591
0.000148989
0.00287637
0.00860811
2.36463e-05
0.0061284
0.00908755
-0.00056704
0.00717151
0.00343881
-0.00159339
0.00457087
0.00386678
-0.00131324
0.00474487
0.00169141
-0.0019282
0.00564621
0.0018883
-0.00286849
0.00529508
0.00306991
-0.00279657
0.00412688
0.00333387
-0.00223521
0.00311127
0.00268539
-0.0017244
0.00500813
0.00166792
-0.00364178
0.010032
0.00246268
-0.00770509
-0.0208934
0.0323734
-0.00206585
-0.0476565
0.0237763
0.00222757
-0.0603568
0.0104449
0.00142143
-0.0661266
-0.00205698
0.0069536
-0.0710541
-0.0167228
0.0207457
-0.0759278
-0.0316408
0.0355924
-0.0770139
-0.0462112
0.0463602
-0.0739685
-0.0594719
0.0554815
-0.0634853
-0.0715401
0.0601048
-0.0453472
-0.0813732
0.062278
-0.0173132
-0.0880702
0.0590729
0.0171229
-0.0842803
0.0488833
0.0326916
-0.0590621
0.042532
0.0318018
-0.0454117
0.0453791
0.0242181
-0.035794
0.0424742
0.0103585
-0.0266824
0.0397147
-0.000279625
-0.023483
0.0333192
-0.0349319
0.0339029
-0.0505663
-0.0197199
0.0345564
-0.0577725
-0.0344857
0.0408811
-0.0581858
-0.0493063
0.0488448
-0.0496372
-0.064323
0.0548992
-0.0256508
-0.0818542
0.0569691
0.00453482
-0.0831696
0.0521079
0.0097913
-0.0470881
0.0409662
-0.00784313
-0.0265293
0.0433539
-0.0209695
-0.0287087
0.0410493
-0.0046016
-0.0606891
0.0435832
-0.0525376
0.0433197
-0.0152688
-0.0693098
0.00178385
0.0184042
-0.055174
-0.0400728
0.0285997
-0.039807
2.7412e-05
0.0322256
-0.0478519
0.0168026
0.0306633
-0.0774984
0.0310483
0.0413957
-0.12653
0.0316893
0.0548646
-0.123625
0.0273564
0.0575581
-0.0965038
0.0285559
0.0526069
-0.0730461
0.0277853
0.0420043
-0.0520921
0.0273489
-0.0304799
0.0284586
-0.0372598
-0.0479272
0.0271536
-0.0392852
-0.0577063
0.0230082
-0.0337134
-0.0688531
0.0168993
-0.00548104
-0.0850818
-0.00321074
0.035252
-0.120066
-0.00595338
0.0614189
-0.125729
0.010486
0.0767958
-0.119011
0.0212599
0.084277
-0.104909
0.024892
0.0836704
-0.0869346
0.0270795
0.0795498
-0.0668121
0.0237391
0.0718799
-0.0456865
0.0207438
0.0645083
-0.0245084
0.014199
0.0573852
-0.00331606
0.00744054
0.0454332
0.014584
0.00688614
0.0225765
0.0333284
0.0123883
-0.00781953
0.00215517
0.0467501
0.0128784
0.00837456
-0.0029399
-0.00880193
-0.00460612
0.0152254
-0.00223517
-0.00259704
0.0107957
-0.00182833
0.00624061
-0.000110696
0.0148657
-0.00039605
-0.00631044
0.00253514
-0.00667876
0.0273402
0.00304359
-0.00893999
-0.00774755
-0.000853759
0.00147687
-0.00798203
-0.00308309
0.00141409
-0.00660011
-0.00428301
0.000583591
-0.00487681
-0.00510343
0.000358816
0.00192145
-0.00366645
-0.000500669
0.00453518
-0.000969085
-0.0018563
-0.00032865
-0.000318707
-0.00121287
-0.000704506
-0.00059527
-0.000575326
-0.000546085
0.000414339
-0.00098074
-0.00326504
0.0128534
-0.00533233
-0.0116487
0.00303398
0.0221337
-0.00758444
-0.00957237
0.0606554
-0.0307404
-0.0287469
0.0179174
0.0546868
-0.0226297
0.0299179
0.0313505
-0.0146552
0.0384915