/*--------------------------------*- C++ -*----------------------------------*\
| =========                 |                                                 |
| \\      /  F ield         | OpenFOAM: The Open Source CFD Toolbox           |
|  \\    /   O peration     | Version:  v2012                                 |
|   \\  /    A nd           | Website:  www.openfoam.com                      |
|    \\/     M anipulation  |                                                 |
\*---------------------------------------------------------------------------*/
FoamFile
{
    version     2.0;
    format      ascii;
    class       volScalarField;
    location    "1110";
    object      k;
}
// * * * * * * * * * * * * * * * * * * * * * * * * * * * * * * * * * * * * * //

dimensions      [0 2 -2 0 0 0 0];


internalField   nonuniform List<scalar> 
18258
(
0.0333646
0.0157319
0.0122755
0.0101245
0.0109683
0.013953
0.0167457
0.0211049
0.0255198
0.0314614
0.0385368
0.047478
0.0534894
0.0606542
0.0636371
0.0619226
0.052085
0.0473403
0.0565877
0.0810627
0.0710163
0.0513643
0.0622304
0.0614568
0.0723138
0.0764295
0.0602004
0.0549337
0.0494947
0.0438123
0.0372991
0.0233313
0.0240148
0.0287238
0.0319679
0.0356845
0.0385509
0.0408993
0.0425452
0.043362
0.0432736
0.0419764
0.0392829
0.0352248
0.0297445
0.0237287
0.0231631
0.0239872
0.0296882
0.0352326
0.0406658
0.046255
0.0546632
0.0447211
0.0290604
0.0392252
0.0477035
0.0545932
0.0590191
0.0614671
0.06223
0.061316
0.059025
0.055764
0.0518015
0.0474618
0.0434447
0.0394609
0.0342191
0.0309605
0.026853
0.0235121
0.0210754
0.0193661
0.0182499
0.0172443
0.0163766
0.0156417
0.0150249
0.0145998
0.0145094
0.0145375
0.0146401
0.0147383
0.0150858
0.0127343
0.0109587
0.0104914
0.0102339
0.00957816
0.0081133
0.0106639
0.0117656
0.0121803
0.0124486
0.0136298
0.0147929
0.0143686
0.0136449
0.0125375
0.0124735
0.0169643
0.0177711
0.022803
0.0215944
0.0167353
0.0149145
0.0166942
0.0195352
0.0225633
0.0192661
0.0192498
0.0179544
0.0170417
0.0149032
0.0149512
0.014444
0.0141364
0.0150646
0.0178163
0.0172217
0.0173258
0.0185511
0.018878
0.0201088
0.0211274
0.0204737
0.0202896
0.0164405
0.01634
0.0173814
0.0172543
0.0177354
0.0202233
0.020281
0.0206299
0.020848
0.0236324
0.0236508
0.0236129
0.0237037
0.024521
0.0235733
0.0231661
0.0231977
0.0232337
0.0210694
0.020845
0.0204779
0.0205154
0.0183556
0.0176184
0.0183484
0.0193282
0.0213049
0.0250615
0.0315009
0.0404273
0.0505271
0.0607719
0.0685438
0.0729013
0.0772658
0.0767211
0.0774192
0.0795139
0.0798806
0.0787351
0.0768798
0.074712
0.0717565
0.0671193
0.0666344
0.0589846
0.0481032
0.0334174
0.038917
0.0417581
0.0445166
0.0448271
0.0453123
0.0441007
0.0423348
0.0387438
0.0336165
0.0247063
0.0258741
0.0303028
0.0349457
0.0387198
0.0428725
0.046476
0.0482902
0.049968
0.0592601
0.0570633
0.0551864
0.0569305
0.0584714
0.061655
0.0600505
0.0561284
0.0502216
0.0518969
0.0450412
0.0337368
0.0315344
0.0294307
0.0270706
0.0378118
0.0496286
0.0612523
0.0676142
0.0737753
0.0786096
0.082635
0.0871508
0.0817041
0.0765536
0.057823
0.0839481
0.0659172
0.0506869
0.0414045
0.0335371
0.0310895
0.034012
0.0341522
0.0323894
0.0277804
0.0219672
0.0231188
0.0357988
0.0455303
0.053516
0.0551414
0.0598262
0.0621798
0.0569149
0.0574873
0.0466438
0.0477912
0.0514606
0.0461215
0.0438477
0.0352545
0.0275638
0.0336446
0.0500726
0.0686637
0.0845897
0.0996231
0.0661566
0.0503449
0.0412681
0.0344685
0.0332254
0.0378243
0.0437641
0.0529243
0.0412421
0.0371758
0.0336806
0.0308274
0.0256441
0.0273875
0.0285437
0.0268773
0.0496609
0.0575019
0.0612235
0.0836426
0.0924851
0.108423
0.107189
0.0927063
0.0963307
0.0691015
0.0688754
0.0862571
0.0683044
0.0514059
0.0616696
0.0745891
0.0884491
0.101661
0.113018
0.122142
0.12379
0.112255
0.081376
0.0468584
0.0213192
0.0186526
0.018091
0.0173834
0.0164982
0.0157154
0.015106
0.0121659
0.00952093
0.00928501
0.00946186
0.00940595
0.00827182
0.00951748
0.011578
0.0137732
0.0152834
0.0164941
0.0175154
0.0182507
0.0188399
0.0192389
0.0195358
0.0198037
0.0200394
0.0202258
0.0203645
0.0204562
0.0204999
0.0204873
0.0204119
0.0202721
0.0200661
0.019778
0.0193046
0.0177751
0.0159181
0.0150845
0.0151426
0.0148918
0.0145876
0.0119515
0.0123295
0.0143465
0.014981
0.0177772
0.0198161
0.0215218
0.0229779
0.0245072
0.0252854
0.0261164
0.0263846
0.0264402
0.0263436
0.0261983
0.02598
0.0256855
0.0246274
0.0213111
0.0249137
0.0273105
0.0289947
0.0303435
0.0312426
0.0313466
0.0286104
0.0360448
0.0385274
0.0394365
0.0397015
0.0388845
0.0368843
0.0344504
0.0324073
0.0309028
0.0297878
0.0276494
0.0254029
0.0230925
0.0206745
0.0174473
0.0187135
0.0205525
0.0207634
0.0204734
0.0215203
0.0227808
0.0211281
0.0190431
0.0161454
0.0151444
0.0146449
0.014448
0.0148431
0.0145089
0.0144181
0.0149232
0.0179489
0.0190449
0.0207497
0.024004
0.0228669
0.0209184
0.028091
0.0297129
0.0301622
0.0305066
0.0304148
0.02966
0.0265712
0.0251144
0.0265016
0.025044
0.0244124
0.0245011
0.024133
0.0222685
0.024572
0.0265746
0.0281649
0.0290117
0.0302503
0.0318027
0.03396
0.0357494
0.0374052
0.0384102
0.0383959
0.0378725
0.0380643
0.0387254
0.0384568
0.0367625
0.0346919
0.0326048
0.0296534
0.0294363
0.031406
0.0329636
0.0346193
0.0363888
0.0356882
0.0338091
0.0321883
0.0307723
0.029065
0.0289343
0.0306073
0.0320466
0.0337789
0.0358887
0.0360565
0.0339239
0.0321119
0.0306124
0.0289134
0.0288743
0.0305709
0.0320785
0.0337966
0.0356769
0.0348056
0.0333398
0.0318216
0.030358
0.028697
0.0282551
0.0298566
0.0312361
0.0325473
0.0336099
0.0319377
0.0313489
0.0302801
0.0288922
0.0271347
0.0258775
0.0263867
0.0277752
0.027886
0.0283643
0.0294822
0.0293284
0.0290458
0.0290007
0.0287192
0.0264723
0.0268797
0.0269289
0.0276212
0.0309227
0.0304459
0.0331295
0.0355535
0.033242
0.0317439
0.0281591
0.0337315
0.0337798
0.0347496
0.0335783
0.0237844
0.0219248
0.0229236
0.0244622
0.0261091
0.0254244
0.0226619
0.0226062
0.0232178
0.0226383
0.0210836
0.0180918
0.0135866
0.0135956
0.013589
0.0143257
0.0171356
0.0187275
0.0188337
0.0186742
0.0183683
0.0178941
0.0171761
0.0161044
0.0156292
0.0245378
0.0442746
0.056316
0.0557638
0.0424207
0.0354661
0.0260975
0.0178734
0.0104721
0.0106982
0.0113434
0.0137084
0.0115477
0.0104753
0.0144139
0.0117625
0.0196607
0.0228573
0.0302923
0.0412707
0.0397417
0.0300744
0.0204048
0.0184728
0.019342
0.0198554
0.0202468
0.0206324
0.0210223
0.0214471
0.0219647
0.0216508
0.0190074
0.0167597
0.0168905
0.017463
0.0199721
0.0213492
0.022138
0.0217986
0.022038
0.0237689
0.022516
0.0212942
0.0210925
0.0203909
0.0232425
0.0235861
0.0229475
0.0229524
0.0232262
0.0231044
0.0232394
0.024052
0.0198498
0.0219553
0.0225026
0.022785
0.0235814
0.0190692
0.0192568
0.0193184
0.0181567
0.0149548
0.0180637
0.0168164
0.0121839
0.0134998
0.0134543
0.0140625
0.0143876
0.0171217
0.0162773
0.0155642
0.0163366
0.0223256
0.0231372
0.023319
0.0206775
0.0194327
0.0219287
0.0225156
0.022051
0.0211641
0.0213349
0.0203899
0.0184787
0.0177578
0.017895
0.0193128
0.0201122
0.0201783
0.0238066
0.0233024
0.0217323
0.0227309
0.0233269
0.0229153
0.0228059
0.0227546
0.0223867
0.0219602
0.0223712
0.0225579
0.0226098
0.0221651
0.0224203
0.0250657
0.0214872
0.0212972
0.0202106
0.0195505
0.0179164
0.0176599
0.0177579
0.0177175
0.0176223
0.0167829
0.0186465
0.0179212
0.0200561
0.021674
0.0228299
0.0240078
0.0241602
0.0237297
0.0236909
0.0233047
0.0232714
0.0227177
0.0218671
0.0212799
0.0204977
0.0192852
0.0192772
0.0192274
0.0190831
0.0204924
0.0203909
0.0219623
0.0230889
0.0228029
0.0218317
0.0217232
0.0205407
0.0205181
0.0215648
0.0224597
0.0227104
0.0235801
0.0261325
0.0237666
0.0253236
0.0260171
0.0266825
0.0260684
0.0249666
0.0257195
0.0240539
0.0229394
0.0242625
0.024987
0.0262505
0.0270453
0.0250671
0.0240383
0.0228387
0.0219734
0.0209825
0.0184541
0.0190722
0.0198667
0.0211014
0.0229177
0.025648
0.028394
0.0313211
0.0313809
0.0290764
0.0273731
0.0321894
0.0316569
0.0366406
0.0372507
0.0331134
0.0302936
0.0273715
0.0269505
0.0260301
0.0254945
0.0242082
0.0254594
0.0258896
0.0249416
0.0274227
0.0290039
0.0333425
0.0389354
0.0356064
0.0327515
0.0377867
0.0366821
0.0426793
0.0364513
0.0347772
0.0286448
0.0332367
0.0355761
0.043362
0.0339456
0.0297534
0.0295135
0.030823
0.0383263
0.0368811
0.0395022
0.044649
0.0439837
0.0390776
0.0358443
0.0416459
0.0316714
0.0370888
0.0391048
0.0324553
0.0322399
0.0391395
0.0397563
0.0399039
0.0337905
0.0330867
0.0250673
0.0336509
0.0401469
0.0400524
0.0332512
0.0260055
0.0359514
0.0315901
0.0313968
0.0313917
0.0269935
0.026926
0.0262128
0.02647
0.02719
0.024736
0.0255505
0.0258189
0.0259913
0.0261337
0.0263397
0.0267014
0.0273701
0.0281479
0.0229649
0.0244481
0.0230529
0.0216632
0.0202564
0.0240476
0.0265228
0.0283237
0.0297716
0.0309045
0.0313992
0.0300424
0.0379892
0.0396835
0.0413536
0.041529
0.0403042
0.0376553
0.0342159
0.0307153
0.0284043
0.0270595
0.0245033
0.022383
0.0203255
0.0181828
0.0154059
0.0141179
0.0128054
0.011497
0.0111755
0.0106447
0.0100462
0.00934232
0.0089421
0.0114174
0.0195148
0.0281027
0.0330013
0.0382126
0.0447152
0.0514182
0.0569317
0.060975
0.0637616
0.0654412
0.0658258
0.0630832
0.0523527
0.047427
0.0426572
0.0378251
0.0329329
0.0321995
0.0412741
0.0495373
0.0565468
0.0628832
0.0670229
0.0654155
0.0499836
0.0469291
0.062459
0.0898301
0.0805282
0.103392
0.119925
0.0796807
0.0650377
0.0642909
0.0795048
0.081962
0.0752895
0.0662926
0.0564298
0.0455454
0.0504709
0.0551396
0.0595596
0.0639949
0.0772005
0.0798788
0.0787982
0.0765
0.0733743
0.0688522
0.0619375
0.0530875
0.0441942
0.0367751
0.0300315
0.0204887
0.0123649
0.0138244
0.0130519
0.0162044
0.0150387
0.00969559
0.00999315
0.0102114
0.010165
0.00998263
0.0100201
0.0114289
0.0182776
0.0148941
0.0134786
0.0115953
0.014438
0.0163778
0.01838
0.0189786
0.0190686
0.0194492
0.0317676
0.0434578
0.0495482
0.0544262
0.0580949
0.0566302
0.0529654
0.0467101
0.0396328
0.0369979
0.0331657
0.0298679
0.0282421
0.0291966
0.025727
0.0162015
0.0145996
0.0156522
0.0153714
0.0143941
0.0163294
0.0175479
0.0183234
0.0189501
0.0194193
0.0197807
0.0200397
0.0202129
0.0203057
0.0203364
0.0203192
0.020259
0.0201542
0.0200016
0.0197902
0.0194892
0.018972
0.0172525
0.0154037
0.0146885
0.0147735
0.0145428
0.0141796
0.0122986
0.0125191
0.0143817
0.0149831
0.0145949
0.0151838
0.0156552
0.0168712
0.0190637
0.0212113
0.0230514
0.0217352
0.0210759
0.0210326
0.0206262
0.017382
0.0206708
0.0236348
0.0241628
0.0244534
0.025279
0.0268901
0.0278306
0.0268825
0.0263563
0.0258119
0.0226303
0.024236
0.0278705
0.0282974
0.0290033
0.0296195
0.0302153
0.0314832
0.0308346
0.0299046
0.0292888
0.0263639
0.0254815
0.0317146
0.0205909
0.0141643
0.0101042
0.0107217
0.010854
0.010457
0.0111962
0.0117201
0.011975
0.0114311
0.0124962
0.0133972
0.0127194
0.0152726
0.014551
0.013507
0.0130198
0.0139449
0.0148259
0.0152604
0.0161745
0.0261947
0.026898
0.0226054
0.029
0.0315754
0.0289994
0.0318129
0.0294399
0.0280264
0.03078
0.0342578
0.0356489
0.0333053
0.0318294
0.0313084
0.0208148
0.0201217
0.0194182
0.017567
0.0178154
0.017351
0.0169098
0.0165129
0.0191109
0.0204985
0.021742
0.0214351
0.0211168
0.020675
0.020743
0.0247531
0.0329263
0.0434364
0.0469132
0.0456304
0.0416731
0.0347418
0.0284731
0.0280966
0.0263145
0.0251525
0.0249617
0.0191183
0.0148903
0.0173106
0.0173075
0.0183755
0.0190529
0.0195869
0.0200152
0.020375
0.0206889
0.0209957
0.0212849
0.0215406
0.0217579
0.0219454
0.0221017
0.0222673
0.0224641
0.0227312
0.0229435
0.0212717
0.0186187
0.0172635
0.0171154
0.0178346
0.0187372
0.0198592
0.0190904
0.0153729
0.0154667
0.021869
0.0223483
0.0209843
0.0195597
0.019772
0.0189262
0.0227805
0.0225956
0.0234302
0.023222
0.0229322
0.0226374
0.0223411
0.0220319
0.0217203
0.0214476
0.0212007
0.0209732
0.0207524
0.0205228
0.0202343
0.0198075
0.0191073
0.0182901
0.0168254
0.0179977
0.0191324
0.0208917
0.0228236
0.0237397
0.0228364
0.021585
0.0210559
0.0213142
0.0216485
0.0220043
0.0223824
0.0228201
0.0232499
0.0236493
0.0235831
0.0222154
0.0228687
0.0174763
0.0183268
0.0186305
0.0185883
0.0202489
0.0193845
0.0146488
0.0151512
0.0158772
0.01718
0.0197962
0.0201688
0.0215468
0.0217812
0.0173304
0.0170215
0.0165884
0.0175931
0.0152001
0.0158555
0.0266852
0.0272552
0.0349802
0.0383867
0.0399396
0.0331217
0.0455464
0.0524212
0.05057
0.0408616
0.0235142
0.0346398
0.042151
0.0488309
0.0457926
0.0356491
0.0449236
0.0473325
0.0631384
0.058836
0.0524909
0.0631468
0.0446846
0.026917
0.0158036
0.0163769
0.0151834
0.030638
0.0347336
0.0314493
0.0323161
0.039909
0.0409208
0.0362174
0.0344911
0.0362431
0.0357917
0.0397556
0.0370855
0.0336662
0.0232956
0.0190142
0.0198631
0.0212847
0.0231287
0.0254804
0.0253725
0.0242181
0.022842
0.0218555
0.0207931
0.0182887
0.0176263
0.0195885
0.0212206
0.022602
0.0241191
0.0249474
0.0257938
0.0259579
0.0258461
0.0255167
0.0250797
0.0245152
0.0238215
0.0224054
0.023625
0.0243104
0.0245337
0.024826
0.0251514
0.0254394
0.0255911
0.0254819
0.0245159
0.0236922
0.0225172
0.0213988
0.0197899
0.0176691
0.0183562
0.0201206
0.0217259
0.0228421
0.0238965
0.0235097
0.0240113
0.0246807
0.0246954
0.0245003
0.0242648
0.0241019
0.0241855
0.0248146
0.0265489
0.0263795
0.0293209
0.0304709
0.0278686
0.0265201
0.0258126
0.0253733
0.0251167
0.0249008
0.0246933
0.0241391
0.0235978
0.0241075
0.0243686
0.0246728
0.0250355
0.0255448
0.0262344
0.0273247
0.0287399
0.0286515
0.0263463
0.026124
0.0250483
0.0242622
0.023889
0.0238478
0.023902
0.0240163
0.0239645
0.0234397
0.0231059
0.0235122
0.022494
0.0225558
0.0215814
0.0202166
0.0187717
0.0173185
0.0166553
0.0352468
0.0352405
0.0456713
0.0424011
0.0370986
0.0471077
0.0600448
0.0520665
0.0626845
0.0664761
0.0540484
0.0501511
0.0278992
0.0244308
0.0173914
0.0189196
0.0202693
0.0214801
0.021295
0.0222213
0.0221022
0.0230794
0.0225356
0.0217573
0.0211901
0.0201696
0.0202259
0.0189502
0.0174017
0.0172675
0.0189202
0.0199886
0.0211754
0.0211715
0.02264
0.0231348
0.0235296
0.0236736
0.023657
0.0237436
0.0239075
0.0243579
0.0250737
0.0255547
0.0257159
0.026139
0.0258651
0.0255651
0.0251375
0.024847
0.0245402
0.0242649
0.0239687
0.0236857
0.023247
0.0225854
0.0224634
0.0229807
0.0233233
0.023555
0.023683
0.02365
0.0234337
0.0230878
0.0227316
0.0223511
0.0224001
0.0237586
0.0240384
0.0241738
0.023954
0.0237693
0.0237448
0.0236146
0.0235148
0.0232905
0.0229263
0.0224618
0.0213912
0.0214852
0.0223664
0.0228048
0.0231286
0.0234014
0.0234326
0.023365
0.0229949
0.0227054
0.0223457
0.0217547
0.0209455
0.0184083
0.0189179
0.0195715
0.0204617
0.0213538
0.0221131
0.0226011
0.0228126
0.0228242
0.0226568
0.0223043
0.021553
0.02153
0.0220686
0.0222297
0.0221638
0.0218329
0.0211721
0.0202089
0.018966
0.0177208
0.0167512
0.0163085
0.015561
0.0180963
0.0192001
0.0201899
0.021082
0.0219055
0.0227617
0.0230696
0.0231115
0.0229603
0.0226992
0.0222909
0.0215208
0.0215202
0.0222223
0.0226079
0.0228186
0.0228987
0.0226474
0.021995
0.0204463
0.0190106
0.0178036
0.0166798
0.0155077
0.015412
0.0159188
0.0154166
0.0157714
0.0168673
0.0183476
0.0197269
0.0207579
0.0213888
0.0216996
0.0217444
0.0214219
0.0212347
0.0213499
0.0211326
0.0206157
0.0197281
0.0184308
0.0169702
0.0157833
0.0154716
0.0161457
0.0167805
0.0161734
0.0138369
0.0149771
0.0161062
0.0172575
0.018958
0.0210315
0.0219998
0.0224796
0.0226226
0.0225007
0.0221386
0.0214872
0.0214246
0.0220487
0.0224052
0.0225069
0.0224
0.0219946
0.0212057
0.0186914
0.0159004
0.0146262
0.0138867
0.0129555
0.0163218
0.0170265
0.0162161
0.0156756
0.0165276
0.0175304
0.0186414
0.0195051
0.020143
0.0206558
0.0209466
0.0209891
0.0207115
0.0205822
0.0203516
0.0200099
0.0197027
0.0194034
0.0186663
0.0178487
0.0168413
0.017901
0.0184674
0.0177088
0.014455
0.015018
0.0159152
0.0164685
0.0191734
0.0216276
0.0222371
0.0223927
0.0224801
0.0223418
0.021946
0.0213303
0.0212012
0.0218411
0.0223292
0.0226411
0.0229533
0.0232371
0.0234565
0.0215866
0.0182463
0.0174241
0.0155849
0.0147445
0.0182692
0.0189484
0.0184585
0.0179028
0.0196257
0.0203278
0.0205498
0.0205065
0.0203955
0.0202824
0.0203028
0.0204278
0.0201265
0.0199924
0.0200959
0.0203294
0.020314
0.0201193
0.0195672
0.0188015
0.017659
0.0195243
0.021214
0.02093
0.0169797
0.0175172
0.0184708
0.0181057
0.0208671
0.022689
0.0231358
0.0230285
0.0226878
0.0222
0.0216519
0.021009
0.0207257
0.0212953
0.021859
0.0218877
0.0219756
0.0219238
0.0213664
0.0211986
0.0206261
0.0203516
0.0195933
0.0190132
0.0182724
0.0203886
0.0235261
0.0256968
0.0272606
0.0291291
0.0277113
0.0242345
0.0220063
0.0152353
0.0152397
0.0154568
0.0148366
0.0144678
0.0142864
0.0186203
0.0212783
0.0238704
0.0255279
0.0231664
0.0231382
0.0230683
0.0229629
0.0228604
0.0227559
0.0225475
0.0231335
0.0402086
0.282214
0.208109
0.234197
0.223204
0.314515
0.0776953
0.038449
0.0426726
0.0495163
0.0569185
0.0553731
0.0518987
0.0454636
0.0414599
0.04108
0.0406743
0.040494
0.0390725
0.0390695
0.0381121
0.0454853
0.0943187
0.123122
0.13676
0.145271
0.154382
0.149859
0.158905
0.150884
0.151384
0.152968
0.157711
0.150354
0.143022
0.139204
0.134919
0.117631
0.117992
0.0995652
0.103374
0.0862315
0.090659
0.0945309
0.0938617
0.0926381
0.0924013
0.09266
0.0934604
0.0971236
0.0924659
0.0986193
0.0913094
0.0731214
0.0705991
0.0724778
0.0666993
0.0584055
0.0657809
0.0806445
0.0963515
0.11322
0.0970008
0.121006
0.114606
0.114986
0.109231
0.102792
0.0990305
0.0983103
0.098941
0.100085
0.102746
0.104694
0.10631
0.109242
0.117829
0.120184
0.118781
0.101317
0.0860521
0.0945238
0.0993212
0.102983
0.103246
0.0985098
0.0963608
0.0901549
0.088584
0.0830417
0.0804506
0.0749849
0.0716805
0.0668819
0.0834091
0.0815757
0.0885624
0.0948376
0.0990897
0.102736
0.104341
0.105616
0.104441
0.102064
0.0970946
0.0950104
0.0902165
0.108657
0.127076
0.129834
0.125183
0.111661
0.106005
0.338556
0.410757
0.412131
0.611594
0.653095
0.844346
0.3354
0.179586
0.191909
0.188557
0.180345
0.177115
0.176848
0.188506
0.197514
0.188512
0.199368
0.177111
0.174274
0.166966
0.192875
0.190393
0.171261
0.149872
0.117939
0.0972676
0.0967314
0.0814494
0.082579
0.0725125
0.0734143
0.0748961
0.0916237
0.169107
0.208281
0.234967
0.261369
0.32152
0.291391
0.440352
0.352968
0.438468
0.302962
0.327594
0.313319
0.304534
0.302509
0.318471
0.340851
0.299754
0.37271
0.298663
0.647298
0.783417
0.496306
0.458542
0.40647
0.392284
0.382343
0.37672
0.36845
0.485733
0.450294
0.55148
0.511727
0.639921
0.561178
0.566718
0.533067
0.569955
0.588489
0.60246
0.482395
0.5256
0.410458
0.444692
0.373495
0.409509
0.29232
0.292095
0.333821
0.370865
0.396559
0.452928
0.712337
0.605007
0.815991
0.584615
0.706656
0.490955
0.538068
0.513928
0.496275
0.497909
0.525962
0.630037
0.60926
0.695581
0.514702
0.526978
0.5167
0.534039
0.523478
0.558436
0.563128
0.56431
0.562288
0.523412
0.534012
0.532189
0.531972
0.531992
0.532338
0.509579
0.512759
0.505222
0.511005
0.526919
0.514595
0.514515
0.51237
0.504793
0.502738
0.502254
0.504012
0.503781
0.508914
0.508783
0.509122
0.512175
0.526886
0.514403
1.81921
0.899303
0.428624
0.338867
0.219691
0.134662
0.0555453
0.0600066
0.062953
0.0638964
0.0618504
0.056441
0.048222
0.0381671
0.0303444
0.0294568
0.0262747
0.026929
0.0346305
0.0422643
0.0386372
0.046429
0.054119
0.0624389
0.0704585
0.0774643
0.0833932
0.0863194
0.0832701
0.0705161
0.052823
0.0353479
0.0250243
0.0226077
0.0209569
0.0189629
0.0168525
0.0151775
0.0141823
0.0130242
0.012402
0.0123212
0.0125525
0.0127974
0.0132443
0.0147586
0.0160586
0.0172438
0.0182083
0.0184533
0.0179269
0.0184699
0.0190632
0.0194581
0.0198029
0.019616
0.0196057
0.0198573
0.0198195
0.0200353
0.0199411
0.0199678
0.019833
0.0196847
0.0194627
0.0190424
0.018765
0.0182048
0.0178493
0.0169765
0.0170127
0.0174132
0.0177416
0.0167323
0.016672
0.0159223
0.0272684
0.0484588
0.06125
0.0662494
0.0715213
0.0674814
0.0572365
0.0393394
0.019291
0.0188267
0.0193049
0.0218489
0.0213507
0.01736
0.018144
0.0188794
0.0176882
0.0176593
0.0176919
0.0197682
0.0203769
0.0217095
0.0222013
0.0225376
0.0227487
0.0226467
0.0227251
0.0224043
0.0223907
0.0219837
0.0219594
0.0216379
0.0214095
0.0217063
0.0224253
0.0225239
0.0232155
0.0229408
0.0226914
0.0221401
0.0217652
0.0209166
0.0200173
0.0189861
0.0174187
0.0169505
0.0174594
0.0179259
0.0174534
0.0188436
0.0199688
0.0196605
0.0244386
0.0227072
0.0202642
0.0227347
0.0184371
0.0185939
0.0182017
0.01715
0.0176979
0.0172362
0.0171717
0.0174985
0.0178047
0.0189821
0.019962
0.0205815
0.021441
0.0220632
0.0227645
0.0239351
0.0242038
0.0231608
0.022948
0.0217399
0.0210544
0.0207244
0.0216536
0.0229612
0.0229134
0.0238633
0.0236472
0.0224274
0.021627
0.0207889
0.0198128
0.0191636
0.0183728
0.0176116
0.0171881
0.0163511
0.0164265
0.0153329
0.016885
0.0173657
0.019474
0.0174038
0.0169613
0.0225846
0.0285708
0.0444878
0.0324846
0.0213923
0.0229673
0.0311408
0.0387623
0.0274658
0.0268686
0.0153384
0.0177916
0.0153382
0.0156383
0.0167118
0.0169968
0.0182088
0.0192696
0.0195092
0.0202539
0.0206008
0.0213581
0.0216153
0.0223437
0.0225376
0.0237943
0.0238576
0.0238916
0.0238639
0.0230093
0.0229305
0.0228931
0.0233745
0.0231766
0.0239343
0.0239715
0.0240865
0.0240274
0.0226992
0.0223754
0.0216083
0.0210918
0.0201928
0.0196389
0.0189255
0.0185441
0.0178887
0.0182007
0.0189187
0.0191058
0.0200626
0.0200815
0.0208189
0.0210284
0.0214957
0.0216313
0.0222934
0.0224339
0.0227012
0.0227582
0.0239587
0.0240728
0.0241014
0.0240668
0.0240703
0.0242843
0.0242737
0.024215
0.024184
0.0240279
0.0238458
0.0236459
0.0247201
0.0254253
0.0250336
0.0248054
0.0250671
0.0259108
0.0264626
0.0275388
0.0283865
0.0294403
0.030318
0.0311208
0.0317771
0.0322361
0.0323394
0.0323608
0.0318984
0.0315165
0.0332047
0.0396919
0.0429169
0.048182
0.0505607
0.0525247
0.053239
0.0520961
0.0528238
0.0515546
0.0518232
0.0506357
0.0502176
0.0494006
0.0484114
0.0476924
0.0462428
0.0455071
0.0501207
0.056632
0.0566531
0.0494515
0.0464531
0.0422576
0.036886
0.0386979
0.0451329
0.0406056
0.0381636
0.035424
0.0304826
0.0233855
0.0178677
0.0257355
0.033499
0.0407431
0.047518
0.053494
0.0573701
0.0595036
0.0610523
0.062743
0.0606997
0.0532366
0.0415635
0.031655
0.0277283
0.0261586
0.0237326
0.0203189
0.0184481
0.0173843
0.0162404
0.0149048
0.0140589
0.0138217
0.0140831
0.014203
0.0155505
0.0168155
0.016807
0.0179905
0.0177828
0.0182962
0.0188898
0.0192976
0.0199415
0.0199177
0.0189539
0.0193114
0.0195761
0.0202615
0.0201679
0.0203485
0.0201489
0.019437
0.018932
0.0183369
0.0178236
0.0173611
0.0167793
0.0160359
0.0160298
0.0162123
0.015756
0.0161864
0.0166392
0.0170546
0.0176802
0.0185931
0.0193452
0.021175
0.0212904
0.0210298
0.0211098
0.0196692
0.019597
0.0186201
0.0183776
0.0199744
0.0198072
0.0181379
0.0195279
0.0195433
0.0213393
0.0213569
0.020681
0.0208855
0.0207996
0.0189762
0.0180897
0.0170141
0.016234
0.0156359
0.0152247
0.0147409
0.0153672
0.014126
0.0135712
0.0140502
0.0140263
0.0140953
0.0144908
0.014924
0.0156694
0.0163775
0.0174329
0.0180759
0.0189761
0.0193074
0.021215
0.0211088
0.020953
0.0209845
0.0211221
0.0215624
0.0207846
0.0207458
0.0208911
0.0209076
0.0209585
0.0209499
0.0191126
0.0189108
0.0180762
0.0177569
0.016817
0.0164566
0.0157981
0.0154795
0.0150829
0.0148841
0.0232723
0.0254727
0.0256233
0.0397871
0.0200076
0.0199589
0.0344067
0.017337
0.0230726
0.0236128
0.0246978
0.0259404
0.0225562
0.0307837
0.0212311
0.0233689
0.0240902
0.0252544
0.01295
0.0203729
0.0380618
0.0428635
0.0441546
0.0490453
0.0556261
0.0587763
0.0617899
0.0637815
0.0660339
0.0684538
0.0708358
0.07255
0.07268
0.0689665
0.0658889
0.0563693
0.0525464
0.0562616
0.0606528
0.0471697
0.0423931
0.0429189
0.0433576
0.0438656
0.0440484
0.0447017
0.0444876
0.0454412
0.0447018
0.0457632
0.0446053
0.0455799
0.0443901
0.0417123
0.0385182
0.0324075
0.0304678
0.0293728
0.0266833
0.0241896
0.0219787
0.0201796
0.0197567
0.0182036
0.0168144
0.016516
0.0152268
0.0155083
0.0167568
0.0199204
0.0168242
0.0176378
0.0260415
0.019123
0.0180054
0.018544
0.0190584
0.0192995
0.0181894
0.0198064
0.0220615
0.0220851
0.0221586
0.0221814
0.0213803
0.0212139
0.020964
0.0210295
0.0210614
0.0211996
0.0211748
0.0193465
0.0192903
0.0190181
0.0188816
0.0180889
0.0179212
0.0173326
0.0169996
0.0161509
0.0158556
0.0154078
0.0154793
0.0168782
0.0210192
0.0307905
0.0176144
0.0183968
0.0158758
0.0139888
0.0267126
0.0247477
0.0286643
0.0267891
0.039406
0.0264305
0.0231764
0.0241771
0.0297144
0.0296802
0.0326888
0.0424642
0.0330825
0.0284044
0.0748941
0.0552345
0.0337908
0.0472112
0.0592232
0.110299
0.128026
0.0562196
0.0566758
0.0623057
0.0632709
0.0631994
0.0537442
0.0494806
0.041851
0.032451
0.0128601
0.0249718
0.0323529
0.0434681
0.0581297
0.0922159
0.0529966
0.0598035
0.065727
0.0647851
0.067846
0.0660464
0.0647108
0.0656773
0.102649
0.111552
0.108512
0.0876285
0.082273
0.074741
0.124436
0.139081
0.120059
0.130057
0.136236
0.083331
0.0306422
0.0249504
0.0238363
0.0264206
0.0253618
0.0459067
0.0206423
0.0218365
0.0226744
0.0271465
0.0302462
0.0527403
0.0233361
0.0254861
0.0324217
0.0348789
0.0457288
0.0275153
0.0280895
0.0343605
0.036129
0.0394843
0.0336985
0.0318197
0.02872
0.0259299
0.0244398
0.0254912
0.0318756
0.0462537
0.0279097
0.0283407
0.0300966
0.134676
0.0307708
0.0266604
0.0277586
0.0267565
0.0336908
0.0350307
0.111949
0.0356826
0.0167327
0.015453
0.0159156
0.0167303
0.0173706
0.017996
0.0184399
0.0190873
0.0194734
0.0196332
0.0198135
0.0221794
0.0220608
0.0215917
0.0210467
0.0218259
0.0211325
0.0211728
0.0217824
0.0212435
0.0214008
0.0224391
0.0236046
0.0230988
0.0236475
0.025007
0.0238618
0.022186
0.0219764
0.0220893
0.0227992
0.0239343
0.0227546
0.0234166
0.0226076
0.0235171
0.0236653
0.0203804
0.0199979
0.0197892
0.0192927
0.0186129
0.0179891
0.0173172
0.0166814
0.0162128
0.0162014
0.0168027
0.0152179
0.0156951
0.0182843
0.0404809
0.0335126
0.0273169
0.0226959
0.0197973
0.0185077
0.0183241
0.0187446
0.0193969
0.019952
0.0201631
0.0207644
0.0246396
0.0245201
0.0257176
0.0245964
0.0259209
0.0248545
0.0235365
0.0226673
0.0238688
0.0231849
0.0236752
0.0252658
0.0260833
0.0237171
0.0239722
0.0214061
0.0200162
0.0184243
0.0187648
0.0201927
0.0208466
0.0232468
0.0233365
0.0267403
0.0267423
0.0266273
0.0254179
0.02475
0.0261845
0.0247081
0.0258524
0.0247533
0.0261487
0.02734
0.0276833
0.026983
0.0262069
0.0253415
0.0210592
0.0202542
0.0199501
0.019468
0.019227
0.0202239
0.0246738
0.0341865
0.0465802
0.0588112
0.0680953
0.0674039
0.0605918
0.0414501
0.0421807
0.0393212
0.0425998
0.0610293
0.0883512
0.0621288
0.115324
0.0892811
0.0529481
0.0631041
0.0751169
0.0842835
0.090282
0.0915582
0.0782361
0.0577389
0.0506505
0.0530762
0.0850646
0.0837499
0.0824279
0.0779052
0.0823965
0.0802439
0.0775433
0.0759475
0.0741351
0.0698392
0.0698242
0.0670692
0.0670222
0.0599506
0.0611215
0.0613246
0.0587505
0.0560174
0.0537409
0.0515588
0.0492437
0.0453783
0.0441149
0.0416693
0.0399576
0.0366299
0.0360943
0.0356128
0.0334525
0.0319147
0.0306726
0.029424
0.0277436
0.0279174
0.02638
0.0262308
0.0213977
0.0210083
0.0199728
0.0196488
0.0194156
0.0196471
0.0209688
0.0237747
0.0441648
0.0333159
0.0330734
0.0335905
0.03371
0.0396963
0.0464313
0.0703758
0.0650838
0.0714819
0.0612153
0.063604
0.0628096
0.0624437
0.0651737
0.0687403
0.0740856
0.0865548
0.333112
0.513772
0.252922
0.236952
0.246626
0.251554
0.258922
0.338681
0.359968
0.355435
0.360371
0.330358
0.318547
0.1966
0.226048
0.238138
0.237044
0.223954
0.202977
0.394796
0.52264
0.51878
0.523653
0.523766
0.518768
0.522589
0.502914
0.514274
0.501758
0.515021
0.502296
0.521642
0.5189
0.504363
0.501138
0.501158
0.500918
0.501381
0.501557
0.504897
0.506057
0.506109
0.505103
0.504126
0.514517
0.43926
0.123966
0.086408
0.14407
0.200298
0.164268
0.236475
0.271545
0.195758
0.11153
0.0914162
0.103161
0.127151
0.128575
0.155674
0.203337
0.190132
0.155268
0.156143
0.157273
0.202637
0.193876
0.220039
0.262649
0.255533
0.190732
0.152082
0.152021
0.23025
0.244502
0.239605
0.125426
0.0454
0.0220901
0.0230777
0.0329376
0.0166734
0.0168796
0.0226594
0.0598165
0.0990202
0.0515065
0.138329
0.1395
0.182613
0.147841
0.178652
0.115944
0.118969
0.0677507
0.0797364
0.0896238
0.0953472
0.0997103
0.094045
0.217587
0.322002
0.191804
0.562791
0.538609
0.196685
0.217407
0.575982
0.513005
0.50353
0.501787
0.501699
0.50186
0.501817
0.50097
0.500916
0.500729
0.500766
0.500717
0.501164
0.504767
0.520363
0.514583
0.505239
0.501385
0.500825
0.5008
0.500691
0.500731
0.500751
0.500809
0.501018
0.501051
0.501152
0.501672
0.503942
0.51202
0.435026
0.169767
0.182085
0.405757
0.361537
0.511497
0.504622
0.50137
0.500943
0.500857
0.50083
0.500796
0.50097
0.500891
0.501398
0.501232
0.501287
0.502775
0.508252
0.506382
0.441917
0.368347
0.415742
0.329109
0.506658
0.507771
0.503277
0.502901
0.503248
0.503416
0.501515
0.501529
0.500993
0.501062
0.500894
0.501341
0.504755
0.511005
0.345696
0.170591
0.177533
0.257668
0.087785
0.090754
0.0927111
0.094829
0.247408
0.442666
0.55665
0.471927
0.475708
0.542936
0.386003
0.364779
0.294421
0.317755
0.402221
0.347301
0.312751
0.250343
0.28865
0.24761
0.303332
0.217778
0.233977
0.221536
0.28288
0.286741
0.287072
0.226524
0.216361
0.27142
0.285568
0.316472
0.218588
0.258702
0.203133
0.192229
0.0870858
0.0892956
0.0812323
0.0713279
0.0710454
0.0791362
0.0775563
0.0836923
0.0806643
0.0843229
0.0814109
0.0794361
0.0727095
0.074759
0.0685888
0.0712534
0.130243
0.166446
0.150288
0.151706
0.179528
0.131066
0.157373
0.153582
0.197598
0.24796
0.227989
0.294556
0.226074
0.275856
0.405871
0.754129
0.442842
0.245718
0.318295
0.339608
0.288533
0.189469
0.449257
0.53791
0.29775
0.359686
1.19442
1.04227
1.78003
0.992388
1.11992
0.671666
0.597706
1.02916
0.654435
0.667083
0.560377
0.573924
0.50033
0.324862
0.324554
0.306265
0.242275
0.281436
0.272099
0.266866
0.296591
0.26186
0.31711
0.352826
0.39759
0.322816
0.285861
0.367655
0.215794
0.291821
0.347242
0.316395
0.26039
0.339105
0.451462
0.424072
0.365179
0.40032
0.511005
0.564927
0.535709
0.454826
0.517468
1.00984
0.967215
0.932722
0.592155
1.93352
1.72154
0.357301
0.140681
0.0981715
0.0371435
0.022584
0.0182825
0.0178992
0.0491621
0.0195453
0.0235756
0.0212795
0.0305079
0.0275435
0.0318623
0.0562741
0.0379696
0.053595
0.0396395
0.0531586
0.0423045
0.058234
0.0625402
0.0659625
0.0533119
0.042039
0.0635161
0.0847929
0.0396761
0.102079
0.107899
0.0697706
0.0847809
0.104752
0.05417
0.167609
0.0580879
0.0579936
0.069349
0.130048
0.256513
0.0876609
0.11426
0.591283
1.53343
0.51547
0.204821
0.167519
0.0415444
0.035997
0.0295467
0.0356384
0.0313573
0.0639376
0.0645931
0.157556