/*--------------------------------*- C++ -*----------------------------------*\
| =========                 |                                                 |
| \\      /  F ield         | OpenFOAM: The Open Source CFD Toolbox           |
|  \\    /   O peration     | Version:  v2012                                 |
|   \\  /    A nd           | Website:  www.openfoam.com                      |
|    \\/     M anipulation  |                                                 |
\*---------------------------------------------------------------------------*/
FoamFile
{
    version     2.0;
    format      ascii;
    class       volScalarField;
    location    "85";
    object      k;
}
// * * * * * * * * * * * * * * * * * * * * * * * * * * * * * * * * * * * * * //

dimensions      [0 2 -2 0 0 0 0];


internalField   nonuniform List<scalar> 
18258
(
0.0360118
0.0170225
0.0137732
0.0117637
0.0123063
0.0152231
0.0179126
0.0224582
0.0270703
0.0328584
0.0396985
0.0483446
0.0540785
0.0608922
0.0636254
0.0618688
0.0519217
0.0475702
0.0578214
0.082387
0.0717708
0.0520318
0.0629366
0.0623919
0.0737808
0.0782758
0.0617662
0.0564052
0.051
0.0454662
0.0390916
0.0256622
0.0230354
0.0280278
0.0316895
0.0357443
0.0388729
0.0413958
0.0431507
0.0441288
0.0441661
0.0429517
0.0402705
0.0359476
0.0300671
0.0234312
0.0213345
0.0240153
0.0296771
0.0342841
0.0392957
0.0446693
0.0531189
0.0437527
0.0286624
0.0387444
0.0471259
0.0540041
0.0584811
0.0610019
0.0618309
0.060983
0.0587562
0.0555546
0.0516421
0.047339
0.0433329
0.0393424
0.0340983
0.0308177
0.0266662
0.0232825
0.0208003
0.0190521
0.0179095
0.016936
0.0160958
0.0153841
0.0147796
0.0143841
0.0142926
0.0143124
0.0144026
0.0144946
0.0148287
0.0124467
0.0106485
0.0101667
0.00995632
0.00938179
0.00799985
0.0106817
0.0118684
0.012356
0.0126859
0.0138652
0.0145335
0.0139126
0.0131134
0.0120324
0.0180527
0.0191668
0.0189789
0.0242274
0.0239304
0.0218512
0.0139572
0.0158057
0.018459
0.0220885
0.0198684
0.0195721
0.0181682
0.0173279
0.0150462
0.0149347
0.0143033
0.0139873
0.0148407
0.0178255
0.0172757
0.0174785
0.0186849
0.0189844
0.0202078
0.021181
0.0204139
0.0202193
0.016112
0.0160065
0.0170426
0.0169034
0.0173883
0.0201265
0.0201728
0.020434
0.0206125
0.0234108
0.0234306
0.0233774
0.0234767
0.0244369
0.0233725
0.0229036
0.0229613
0.0229969
0.0208223
0.0206571
0.0203621
0.020421
0.0180285
0.0172653
0.0180139
0.0189969
0.0209508
0.024598
0.0310017
0.0398744
0.0498899
0.0600262
0.0677
0.071957
0.0762452
0.0756522
0.0763109
0.0783563
0.0787308
0.0776412
0.0758639
0.0737722
0.0708719
0.0662658
0.0658887
0.0583932
0.0476903
0.0330102
0.0384868
0.0412907
0.0440227
0.0443583
0.0448739
0.0437085
0.0419823
0.0384271
0.0333709
0.024822
0.0264391
0.0310288
0.0357852
0.039649
0.0438988
0.0475184
0.0492315
0.0507742
0.0602878
0.0582892
0.056425
0.0583957
0.0599691
0.0632098
0.0615336
0.0575211
0.0517307
0.0533093
0.0463745
0.0347418
0.0324093
0.0301935
0.0274242
0.0373919
0.048885
0.0602261
0.0664039
0.0725124
0.0772074
0.0811419
0.0856059
0.0801968
0.0751081
0.0566509
0.0820341
0.0642392
0.0493345
0.0406346
0.0337883
0.0272337
0.0315776
0.0323059
0.0307541
0.0261352
0.0210505
0.0258789
0.0379615
0.047229
0.0548678
0.0566472
0.0612365
0.0632424
0.0581166
0.0585847
0.0483052
0.0495911
0.053181
0.0480856
0.0454873
0.0366855
0.0284322
0.0332323
0.0488772
0.0671355
0.0828016
0.0977121
0.0645857
0.0491367
0.0404099
0.0342685
0.0326278
0.0367767
0.0426145
0.0517404
0.0402025
0.0361513
0.0326442
0.0299668
0.0244098
0.0263468
0.0277305
0.0267489
0.0494485
0.0549859
0.0597187
0.0811641
0.0886713
0.104542
0.103772
0.0896513
0.0926643
0.0654887
0.0657193
0.0834165
0.0658113
0.0493327
0.0595346
0.0723838
0.0860077
0.0989831
0.110117
0.119044
0.121422
0.110582
0.0805824
0.0466179
0.0215258
0.0190471
0.0184902
0.017756
0.0168388
0.0159058
0.0151814
0.0121012
0.00952368
0.00943511
0.00965102
0.00959471
0.0083072
0.00963623
0.0117244
0.0139164
0.0154199
0.0166236
0.017639
0.0183661
0.0189544
0.019354
0.0196524
0.0199183
0.0201499
0.0203313
0.0204634
0.020548
0.0205851
0.0205674
0.020489
0.0203482
0.0201426
0.0198549
0.0193801
0.017841
0.0159938
0.0151783
0.0152434
0.0149987
0.0147044
0.012055
0.0124099
0.0144538
0.0150819
0.0178755
0.0199157
0.0216231
0.0230814
0.0246175
0.0254035
0.026242
0.0265128
0.0265697
0.0264734
0.0263301
0.0261152
0.0258299
0.0247811
0.021444
0.0250577
0.0274713
0.0291666
0.0305224
0.0314136
0.0315134
0.0287619
0.0362965
0.0386914
0.0395967
0.0398456
0.038996
0.0369501
0.0344187
0.0322899
0.0307629
0.029634
0.0274737
0.0252249
0.0229187
0.020509
0.0173013
0.018617
0.0204873
0.0207022
0.0204276
0.0214922
0.0227791
0.0211125
0.0189793
0.0161374
0.0151625
0.0147158
0.0145484
0.0150253
0.0146441
0.0144915
0.0149458
0.0178867
0.0189719
0.0206883
0.0239984
0.0228538
0.020899
0.0281776
0.0297912
0.0302559
0.0306234
0.0305274
0.029788
0.0266423
0.0251598
0.026531
0.0250313
0.0243773
0.0244363
0.0240607
0.022141
0.0244323
0.0264237
0.0280074
0.0288593
0.0301846
0.0317638
0.0339913
0.0358547
0.0375735
0.0386047
0.0385998
0.0380587
0.0382446
0.0390166
0.038773
0.0370626
0.0349707
0.0328474
0.0298532
0.0296122
0.031605
0.0331757
0.0348318
0.0365891
0.0358763
0.0340009
0.0323838
0.0309605
0.0292302
0.029097
0.0307948
0.0322448
0.0339807
0.0360953
0.0362706
0.0341368
0.0323167
0.0307991
0.0290755
0.0290357
0.0307558
0.032282
0.0340085
0.0358817
0.0349741
0.0335315
0.0320098
0.0305347
0.0288546
0.0284041
0.0300177
0.0313992
0.0326977
0.0337225
0.0319909
0.0314584
0.0304127
0.0290297
0.0272671
0.0259974
0.0265081
0.0278962
0.0280012
0.0284587
0.0295522
0.029346
0.0290384
0.0289411
0.028649
0.0263985
0.0268168
0.0269064
0.0276232
0.0310195
0.0305278
0.0331493
0.0355058
0.0331707
0.0317231
0.0282248
0.0339467
0.0339205
0.0347625
0.0335256
0.0237422
0.021891
0.0229182
0.0244556
0.026085
0.0253867
0.0226442
0.0224914
0.0230475
0.022387
0.0207357
0.0177637
0.0133615
0.0133644
0.0133387
0.0140613
0.0168625
0.0184921
0.0186057
0.0184417
0.0181172
0.0175986
0.0167883
0.0155816
0.0163027
0.0294412
0.0525964
0.0583728
0.0569377
0.0431299
0.0377034
0.0293917
0.0223495
0.0170084
0.0141432
0.012434
0.0137304
0.0141883
0.0163164
0.0198401
0.016128
0.0236585
0.0263075
0.0307681
0.0427925
0.0434928
0.0357543
0.0224494
0.0181534
0.0189612
0.0196715
0.0200913
0.0204802
0.020863
0.0212709
0.0217575
0.0213611
0.0187391
0.0164911
0.0165899
0.017168
0.0196801
0.0211175
0.021971
0.0216965
0.0220276
0.0237321
0.0224969
0.0212053
0.0209426
0.0201829
0.0230196
0.0234116
0.0228568
0.0228644
0.0232109
0.0231688
0.0232877
0.0240505
0.019846
0.0220637
0.0226439
0.0229359
0.0237353
0.0192233
0.0194254
0.019499
0.0183486
0.015006
0.0179565
0.0167408
0.0122008
0.0135257
0.013573
0.0142026
0.0145208
0.017362
0.0166026
0.0158435
0.0164867
0.0225102
0.02336
0.0235013
0.0207821
0.0195129
0.0220401
0.0226665
0.0222123
0.0213053
0.0214485
0.0204746
0.0185544
0.0178274
0.0179645
0.0193854
0.0202077
0.0202918
0.0238946
0.0233856
0.0218109
0.0228146
0.0234264
0.0230076
0.022874
0.0227531
0.022305
0.0218926
0.0223746
0.0226268
0.0226994
0.0222529
0.022506
0.0252335
0.0215791
0.0213873
0.0202994
0.0196387
0.0180024
0.0177541
0.0178578
0.0178214
0.0177298
0.0168897
0.0187512
0.0180118
0.0201654
0.0217849
0.022942
0.0241245
0.0242834
0.023853
0.0238156
0.0234233
0.0233879
0.0228275
0.0219699
0.0213772
0.0205982
0.0193825
0.0193812
0.0193357
0.0191924
0.0206068
0.0205061
0.0220797
0.0232082
0.0229208
0.0219479
0.0218374
0.0206526
0.020625
0.0216738
0.022572
0.0228274
0.0237058
0.0262951
0.0238912
0.0254704
0.0261711
0.026856
0.026216
0.025106
0.0258474
0.0241664
0.0230449
0.0243681
0.0250912
0.0263499
0.0271407
0.0251346
0.02411
0.0229186
0.0220603
0.0210781
0.0185427
0.0191411
0.0199138
0.0211346
0.0229465
0.0256725
0.0283912
0.0313571
0.031401
0.0290802
0.0274172
0.032234
0.0316781
0.036706
0.0373011
0.0331709
0.0303961
0.0274949
0.027065
0.0261342
0.0255911
0.0243136
0.0255807
0.0260198
0.0250527
0.0275074
0.0290683
0.0334215
0.0389617
0.0355694
0.032789
0.0379703
0.0369313
0.0428361
0.0365723
0.0349506
0.0287308
0.0334206
0.0358649
0.0435539
0.0340615
0.0298608
0.0296889
0.0310842
0.0386141
0.0370645
0.0396124
0.0448839
0.0442402
0.0394023
0.0361028
0.0417893
0.0317916
0.0373641
0.0394083
0.0328017
0.0324265
0.0393166
0.0399365
0.0401877
0.0341461
0.033276
0.0251623
0.0337292
0.0402649
0.0402003
0.0334116
0.0262989
0.0361598
0.0317216
0.0315284
0.0315312
0.027091
0.0270586
0.0263347
0.0266246
0.0273927
0.024866
0.025701
0.0259734
0.0261405
0.0262708
0.0264618
0.0268104
0.0274802
0.0282901
0.0230881
0.024537
0.0232003
0.021803
0.0203307
0.0241944
0.0267195
0.0285638
0.0300485
0.0312073
0.0316999
0.0302826
0.0378635
0.039325
0.0413294
0.0416594
0.0403554
0.0373872
0.0337299
0.0305343
0.0287766
0.0275305
0.0252256
0.0230825
0.0209862
0.0188331
0.0159998
0.0145736
0.0132843
0.0118088
0.0115264
0.0110541
0.0105478
0.0100738
0.0100444
0.0123799
0.0138914
0.0137132
0.0265401
0.0352525
0.0436137
0.0506055
0.055959
0.0598931
0.062731
0.0645512
0.065018
0.0625735
0.0535436
0.0488789
0.0443575
0.0397372
0.034976
0.0336659
0.0428741
0.0509333
0.0575319
0.0632282
0.0665211
0.0643926
0.0489765
0.0487773
0.0654158
0.0926877
0.0825604
0.105566
0.122904
0.0828791
0.0668679
0.0648117
0.078428
0.0814366
0.075776
0.0675221
0.0581758
0.0475852
0.0524597
0.0568895
0.0609236
0.0651013
0.0758255
0.0781671
0.0770432
0.074301
0.0707582
0.0662664
0.0597646
0.0508794
0.0395323
0.0281298
0.0147727
0.0161315
0.0143882
0.0157514
0.015378
0.0150081
0.0154329
0.0113343
0.0117072
0.0119469
0.0117938
0.0112541
0.0114902
0.0129472
0.0185212
0.0156761
0.0145254
0.0123065
0.0146444
0.0165502
0.0178147
0.017522
0.0177942
0.0226994
0.0362681
0.0436165
0.0489726
0.0535085
0.0557697
0.0547374
0.0518242
0.0465695
0.0411197
0.0385824
0.0349262
0.0317305
0.0302499
0.0307841
0.0274855
0.0192656
0.0146549
0.0157197
0.0156066
0.0145911
0.0165089
0.0177167
0.018484
0.0191093
0.0195777
0.0199324
0.0201775
0.0203295
0.0203917
0.0203851
0.0203286
0.0202308
0.0200929
0.0199141
0.0196843
0.0193737
0.0188566
0.0171688
0.0153564
0.0146898
0.0147854
0.0145661
0.0142182
0.0123351
0.0125423
0.0144478
0.0150435
0.014606
0.0151215
0.015515
0.0166127
0.018694
0.0208918
0.0227614
0.0214732
0.0208566
0.0208541
0.020414
0.0175754
0.0209251
0.0235344
0.0240393
0.0242709
0.0250659
0.0266524
0.0276628
0.0267488
0.0262902
0.0257704
0.0229479
0.0246659
0.0279183
0.0283105
0.02892
0.0294782
0.0300094
0.0313559
0.0307685
0.0299687
0.0294262
0.0268207
0.0259838
0.0315521
0.0214932
0.0158083
0.0126789
0.0114493
0.0117836
0.0117385
0.0125534
0.0132174
0.0134465
0.0125517
0.0136187
0.0144686
0.0133988
0.0161404
0.0155629
0.0147372
0.0141364
0.0144376
0.0147967
0.015339
0.0167583
0.0270593
0.0282888
0.0233465
0.0302069
0.0324832
0.0287636
0.0319243
0.0296586
0.0286264
0.0315102
0.034539
0.0353616
0.0329407
0.0318438
0.0308554
0.0206165
0.0199383
0.0192468
0.0174018
0.0178472
0.0173789
0.0168348
0.0163672
0.0187218
0.0199995
0.0206772
0.020285
0.0198564
0.0194734
0.0220654
0.0282944
0.0385517
0.043911
0.0456008
0.044357
0.0410632
0.0352658
0.0304486
0.0299098
0.0280722
0.0268724
0.0267468
0.0214043
0.016243
0.0173164
0.0175145
0.0185556
0.0192012
0.0197
0.0200974
0.0204269
0.0207032
0.020963
0.0212185
0.0214412
0.0216279
0.0217857
0.0219063
0.0220313
0.0221731
0.0223795
0.0225319
0.020946
0.0184023
0.0171287
0.016984
0.0176873
0.018559
0.0196642
0.0189551
0.0152951
0.0154318
0.0217971
0.0221006
0.0207102
0.0193188
0.0195549
0.0187143
0.0223718
0.0221349
0.0228413
0.022659
0.0224062
0.0221487
0.0218806
0.0216099
0.0213893
0.0211979
0.0210283
0.0208724
0.0207387
0.0205678
0.0202908
0.019867
0.0192413
0.0183647
0.0180178
0.0191909
0.0193851
0.0203719
0.022802
0.0243946
0.0238509
0.0222984
0.0211273
0.0208604
0.0210881
0.0213752
0.0216886
0.0220496
0.0224651
0.022845
0.0227728
0.0216322
0.0222746
0.0172139
0.0181025
0.0184082
0.0183612
0.0200716
0.0193362
0.0147115
0.0150686
0.0156861
0.0168313
0.0192984
0.019651
0.0209678
0.0212019
0.0170497
0.0166897
0.0162409
0.0173921
0.0150029
0.0155129
0.0259976
0.0268441
0.0345196
0.0377742
0.0395124
0.0331614
0.0454095
0.0521125
0.0500305
0.0407905
0.0234239
0.0343379
0.0419233
0.0484765
0.0452761
0.0351529
0.0442869
0.0468948
0.0620102
0.0575289
0.0512837
0.0619657
0.0442184
0.0265567
0.0157455
0.0163583
0.0152547
0.0305297
0.0345784
0.0311627
0.0320472
0.0396411
0.0406951
0.035922
0.0343206
0.0360851
0.0356735
0.0395306
0.0367965
0.0335943
0.0231558
0.0189027
0.0196762
0.0210336
0.0228319
0.0252057
0.0251229
0.0239999
0.0226744
0.021747
0.0207467
0.018247
0.0176714
0.0196305
0.0212717
0.0226641
0.024171
0.0249843
0.0258261
0.0259962
0.0258831
0.0255481
0.025107
0.0245437
0.0238562
0.022453
0.0237059
0.02437
0.0245906
0.0248821
0.0252014
0.0254674
0.0255764
0.0254306
0.0245105
0.0237245
0.0225658
0.0214326
0.0198201
0.0177029
0.0183788
0.0201333
0.02173
0.0228531
0.0239067
0.0234992
0.023968
0.0246019
0.0246681
0.0245289
0.0243104
0.0241539
0.0242435
0.024902
0.0266682
0.0265244
0.0294117
0.0306216
0.0279866
0.0266235
0.025919
0.0254927
0.0252506
0.0250446
0.024837
0.0242698
0.0237183
0.0242342
0.0244955
0.0247925
0.0251502
0.0256627
0.026372
0.0274965
0.0289545
0.0288008
0.0265269
0.0262922
0.025149
0.0243057
0.0239215
0.0238726
0.0239246
0.024003
0.0238978
0.0233839
0.0230693
0.0234837
0.0224743
0.0225543
0.0215758
0.0202229
0.0187859
0.0173311
0.0166744
0.0345483
0.0346432
0.0450479
0.0417001
0.0364309
0.0460873
0.0587692
0.0510233
0.0615549
0.0652242
0.0530298
0.049336
0.027464
0.0241126
0.0173939
0.0189222
0.0202636
0.0214626
0.0212731
0.0221947
0.0220731
0.0230342
0.022485
0.0216639
0.0211632
0.0201434
0.0202094
0.0189389
0.0173933
0.0172498
0.0188958
0.0198714
0.0210631
0.0210148
0.022492
0.0230311
0.0234558
0.0236554
0.0236675
0.02375
0.0239302
0.0244052
0.0252009
0.0257547
0.0259354
0.0263555
0.0261247
0.0258009
0.0253354
0.0250107
0.024682
0.0243949
0.0240941
0.023804
0.0233595
0.0226944
0.0225699
0.0230956
0.0234516
0.023705
0.0238524
0.023845
0.0236611
0.0233508
0.0230291
0.022664
0.0227131
0.0240537
0.024277
0.024301
0.0239788
0.0237938
0.0237952
0.0237097
0.0236124
0.0233006
0.0228853
0.0223654
0.0212617
0.0213935
0.0223389
0.0228625
0.0232784
0.0236694
0.0236621
0.0234958
0.0230724
0.0227835
0.0225534
0.0220849
0.0213672
0.018888
0.0193366
0.0199628
0.0208094
0.0216592
0.0223798
0.0228324
0.0230111
0.0229825
0.0227878
0.0224165
0.0216468
0.0216293
0.0221965
0.022392
0.0223681
0.0220882
0.021487
0.0205553
0.0193467
0.0181175
0.0171315
0.0166212
0.0158423
0.0185938
0.019629
0.0204644
0.0211822
0.0219715
0.0228713
0.0233491
0.0234925
0.0232378
0.0228698
0.0223449
0.0214772
0.021534
0.0223702
0.0229056
0.0232531
0.0234931
0.0231023
0.022226
0.0206323
0.0192068
0.0181547
0.0171532
0.0159916
0.0153116
0.0158032
0.0154604
0.0159848
0.0171784
0.0187008
0.0201058
0.0210761
0.0216493
0.0219053
0.0218984
0.0215321
0.0213615
0.021537
0.0213852
0.020922
0.0200674
0.0187728
0.0172441
0.0159445
0.0154682
0.0160693
0.0166722
0.0160729
0.0142638
0.0154795
0.0165314
0.0175433
0.0191711
0.0212773
0.02254
0.0231689
0.0231915
0.0229267
0.0223851
0.0215654
0.0215707
0.0223969
0.0229621
0.0232424
0.0232254
0.0225472
0.0214181
0.0189118
0.0163098
0.015284
0.0144494
0.0133139
0.0161562
0.0168728
0.0161428
0.0156348
0.0165029
0.0175977
0.0188211
0.0197833
0.0204523
0.020938
0.0211651
0.0211354
0.020877
0.0208255
0.0206489
0.0203035
0.0199099
0.0194799
0.0186636
0.0178523
0.0169532
0.0179533
0.0183424
0.0175609
0.0148342
0.015658
0.0169029
0.0170844
0.019348
0.0217647
0.0227555
0.0232739
0.0232998
0.0230041
0.0223853
0.0215418
0.02147
0.0223544
0.0230595
0.0235013
0.0238135
0.0236002
0.0234907
0.0218411
0.019559
0.0191354
0.0163519
0.0151063
0.0180264
0.0188384
0.0186291
0.0181954
0.0197985
0.0204209
0.0206347
0.0206902
0.0206814
0.0205881
0.0205658
0.0206109
0.0203241
0.0202725
0.0204116
0.0206251
0.0205316
0.0202766
0.0197494
0.0190767
0.0180231
0.0197046
0.0211772
0.0207374
0.0175147
0.0185021
0.0206025
0.0197581
0.0213635
0.0229087
0.0234529
0.0237051
0.023522
0.0229503
0.0222104
0.0213175
0.0210476
0.0218487
0.0226853
0.0227764
0.0229268
0.0229218
0.0222454
0.0220711
0.0213898
0.0211021
0.0202255
0.019603
0.0187561
0.020984
0.0242938
0.0265624
0.0281466
0.0300353
0.0285648
0.0249256
0.0225682
0.0154242
0.0154513
0.0157059
0.0150628
0.0146797
0.0144841
0.0189827
0.0218018
0.024518
0.026202
0.0237036
0.0236405
0.0235161
0.0233722
0.0231987
0.0230296
0.022763
0.0234535
0.0411297
0.283462
0.209668
0.235063
0.223225
0.315887
0.0754904
0.0391691
0.0439231
0.0524913
0.0628088
0.062189
0.0580841
0.0509956
0.0468445
0.0464008
0.0457002
0.0454531
0.0425067
0.0422868
0.0399021
0.0454366
0.0827143
0.113827
0.128065
0.13729
0.148518
0.144529
0.154799
0.148085
0.149324
0.151375
0.156289
0.14912
0.141593
0.137489
0.13329
0.116103
0.116596
0.0983099
0.102297
0.0849651
0.0887411
0.0926984
0.0920225
0.0906417
0.0902382
0.0902967
0.0908454
0.0936766
0.0892723
0.0972771
0.0917415
0.0779023
0.076076
0.0796949
0.0739632
0.0651221
0.0736323
0.0897468
0.105268
0.119262
0.100519
0.120969
0.112815
0.110665
0.105619
0.100365
0.097111
0.0968775
0.0977514
0.0989968
0.101698
0.103573
0.105245
0.108035
0.11674
0.118494
0.1165
0.0996072
0.0851466
0.0937203
0.0984407
0.102666
0.103138
0.0990514
0.0962267
0.0887301
0.086936
0.0806554
0.0782789
0.0721617
0.0689937
0.0639021
0.079947
0.0787574
0.0858882
0.0921627
0.0969228
0.100357
0.102122
0.102996
0.101763
0.0993175
0.0951412
0.0934782
0.089077
0.106743
0.124826
0.128327
0.124255
0.110515
0.104932
0.333656
0.404329
0.405216
0.597548
0.634511
0.815784
0.329501
0.180123
0.191739
0.188344
0.180074
0.176478
0.175492
0.186094
0.19378
0.185965
0.194203
0.177253
0.16982
0.174559
0.209954
0.210892
0.192767
0.170571
0.142702
0.118715
0.121275
0.101617
0.102709
0.0862392
0.0842173
0.0817553
0.0923448
0.153315
0.19467
0.220677
0.246878
0.30452
0.277441
0.42112
0.342521
0.429637
0.300755
0.323515
0.309878
0.30166
0.299723
0.315384
0.333807
0.294873
0.364391
0.29374
0.638976
0.770474
0.498596
0.458737
0.407362
0.393712
0.384073
0.378568
0.369309
0.481572
0.448267
0.537964
0.499814
0.61014
0.555949
0.580537
0.546598
0.593061
0.617482
0.635362
0.517775
0.580353
0.455703
0.495147
0.405881
0.439937
0.30062
0.294325
0.327048
0.36251
0.385424
0.436157
0.687401
0.588667
0.793536
0.573882
0.69543
0.485079
0.528066
0.505579
0.487855
0.488897
0.516474
0.621954
0.602657
0.682356
0.514574
0.526965
0.51656
0.533926
0.523304
0.55828
0.562916
0.564009
0.561865
0.523272
0.533801
0.532068
0.531923
0.531961
0.532284
0.509519
0.512666
0.505168
0.51095
0.52693
0.514547
0.514507
0.512321
0.504751
0.502704
0.502229
0.503976
0.503754
0.508872
0.508744
0.509065
0.51208
0.526764
0.514369
1.79677
0.888013
0.420525
0.331775
0.21937
0.134272
0.0543029
0.0583804
0.0608562
0.0612311
0.0585663
0.0525899
0.0441504
0.0345605
0.0268312
0.0253885
0.0220591
0.0266549
0.0328786
0.0402183
0.036248
0.0442412
0.052179
0.0606201
0.0685788
0.0754961
0.0813745
0.0846009
0.0819334
0.0696704
0.0522094
0.0353716
0.0255042
0.0231507
0.0215776
0.0195239
0.0173941
0.0158166
0.0147533
0.0134981
0.0128044
0.0126747
0.0128319
0.0130344
0.0134201
0.0149335
0.0162254
0.0173994
0.0183406
0.0185852
0.0181486
0.0186875
0.0192861
0.0196747
0.0200101
0.019908
0.0199243
0.020172
0.020131
0.0203338
0.0202259
0.0201985
0.020053
0.019862
0.0196455
0.0192456
0.0189843
0.0184905
0.0181462
0.0173501
0.0173832
0.0178652
0.0182094
0.0173139
0.0173761
0.0163807
0.0220255
0.0416084
0.0589833
0.064489
0.0701434
0.066336
0.0545184
0.0357005
0.018677
0.0193846
0.0197146
0.0220066
0.0212615
0.0180784
0.0194118
0.021368
0.0196167
0.0192556
0.0192646
0.0205137
0.020911
0.0220511
0.0224585
0.0228624
0.023078
0.0232275
0.0233699
0.0231631
0.0231918
0.0227223
0.0226826
0.0223557
0.0220889
0.0224584
0.0232796
0.0233161
0.0238972
0.0235687
0.0231404
0.0226064
0.0222003
0.0214777
0.020758
0.0200338
0.0190233
0.0185687
0.019332
0.0200752
0.0195676
0.0218469
0.0215475
0.020689
0.0243973
0.0232082
0.0209038
0.0231583
0.0200159
0.0206517
0.0208714
0.0195379
0.0201498
0.0194917
0.0191486
0.019439
0.0196101
0.0203733
0.0210021
0.0213941
0.0220944
0.0227154
0.0233961
0.0246852
0.0249861
0.0240785
0.0239464
0.0225672
0.0217367
0.0214272
0.022545
0.0240455
0.0238098
0.0246242
0.024395
0.0230961
0.0223326
0.0215457
0.0207663
0.0203842
0.0200178
0.019382
0.0193552
0.0185485
0.0188796
0.0178529
0.0194926
0.019643
0.0207477
0.0190358
0.0177503
0.0215989
0.0263161
0.041391
0.0295041
0.0194661
0.0214974
0.0284805
0.0328549
0.0235444
0.0204732
0.0168396
0.0167854
0.0175888
0.0175544
0.0186008
0.0186011
0.0196086
0.020368
0.020513
0.0211312
0.0213993
0.0221266
0.0223457
0.0230528
0.0232283
0.0245567
0.0246072
0.0246534
0.0246313
0.0239163
0.0238635
0.0240447
0.0244892
0.0241707
0.0247137
0.0247276
0.0248264
0.0247959
0.0234127
0.0231161
0.022381
0.021927
0.0210765
0.0206345
0.020045
0.0198065
0.0192758
0.0194557
0.0200546
0.020244
0.0209658
0.0209782
0.0217079
0.0218798
0.0223012
0.0224096
0.0230554
0.0231735
0.0234222
0.0234706
0.0247299
0.0248297
0.0248315
0.0247961
0.0247854
0.0250031
0.0250103
0.0249748
0.025006
0.0251886
0.0250891
0.0249611
0.026154
0.0267987
0.0260361
0.0256656
0.0259182
0.0269237
0.0274846
0.028746
0.0296526
0.03088
0.0318289
0.0327667
0.033479
0.0340272
0.034141
0.0341969
0.0336876
0.0333
0.0350487
0.0417074
0.0449789
0.050315
0.0526976
0.0547596
0.0555249
0.0541848
0.0547969
0.0533285
0.0534724
0.0520181
0.0513524
0.0502824
0.0489833
0.0480576
0.04629
0.0453974
0.0500413
0.0562234
0.0563359
0.0499862
0.046468
0.039233
0.031712
0.0365548
0.0425281
0.0372911
0.0365424
0.0330294
0.0272689
0.0197299
0.0149176
0.0228875
0.0307849
0.0382536
0.0455514
0.0519384
0.0560751
0.0582499
0.0597333
0.0616041
0.059831
0.052641
0.0416252
0.0323564
0.0288485
0.0273555
0.0247656
0.0211724
0.0191589
0.0180492
0.0168476
0.0154237
0.0144881
0.0142095
0.0143671
0.0144584
0.015801
0.0170488
0.0170546
0.0182219
0.018151
0.0186542
0.0192294
0.0196123
0.0203215
0.0202728
0.0192891
0.0196314
0.0198975
0.0205752
0.020463
0.0206227
0.0203948
0.0196807
0.0191834
0.018624
0.018131
0.017731
0.0171678
0.0164938
0.0164717
0.0167694
0.0163523
0.0167247
0.0171368
0.0174794
0.0180659
0.0189261
0.0196534
0.0214581
0.0216104
0.0213435
0.0214406
0.0200131
0.0199628
0.0189738
0.0187579
0.0203855
0.0202479
0.0185497
0.0199706
0.0199392
0.0216961
0.0216922
0.0210146
0.021228
0.0211051
0.0193058
0.0184566
0.0174413
0.0167116
0.0161878
0.0158394
0.0154898
0.0160532
0.0151664
0.0144556
0.0147166
0.0147015
0.0147485
0.0150791
0.015466
0.0161951
0.0168614
0.0178693
0.0184757
0.0193354
0.0196501
0.0215351
0.0214426
0.0213212
0.0213494
0.0214573
0.0219213
0.0211247
0.0210876
0.0212468
0.0212624
0.0212778
0.0212618
0.0194487
0.0192557
0.018456
0.0181577
0.0172638
0.0169303
0.0163095
0.0160252
0.0156704
0.0154941
0.023614
0.0260186
0.026405
0.0407158
0.0206308
0.0206442
0.0353416
0.0178654
0.0237654
0.0244485
0.0254842
0.0264501
0.0231858
0.0315201
0.0217702
0.0236285
0.024477
0.0263853
0.01329
0.0136751
0.0170661
0.0295327
0.0351693
0.0415235
0.0509008
0.0552886
0.0590869
0.0620212
0.0645054
0.0672855
0.0698885
0.0719254
0.0723118
0.0689526
0.066134
0.0570003
0.0532883
0.0570884
0.0616069
0.0482974
0.0435114
0.044108
0.0446824
0.0452675
0.0455477
0.0462989
0.0461538
0.0472311
0.0465116
0.0476868
0.0465935
0.0477094
0.046319
0.0433719
0.0400668
0.0335701
0.0314734
0.0303286
0.0275547
0.0250532
0.0226644
0.0207805
0.0203572
0.0187305
0.0172171
0.0169099
0.0156285
0.0157759
0.0169392
0.0200564
0.0170395
0.0180071
0.026323
0.0194644
0.0183913
0.0189643
0.0194922
0.0197202
0.0186257
0.0202933
0.0225732
0.022503
0.0225383
0.0225298
0.0217466
0.0215914
0.0213096
0.0213664
0.0213991
0.0215252
0.0214943
0.0196915
0.0196372
0.0193806
0.0192515
0.0184939
0.0183385
0.0177803
0.0174746
0.016652
0.0163781
0.0159178
0.015891
0.0143722
0.0154576
0.0206545
0.0146647
0.0141961
0.013849
0.0138298
0.0256887
0.0246531
0.0285493
0.0269737
0.0399677
0.0267175
0.0235364
0.0242124
0.0295208
0.0292274
0.031914
0.04247
0.032736
0.0265948
0.0474273
0.0319866
0.0306496
0.0370991
0.0461453
0.0927167
0.118729
0.0508757
0.0522399
0.0587158
0.0592161
0.0589921
0.0457555
0.0438132
0.0349504
0.0244906
0.0136595
0.025017
0.0319225
0.0365665
0.0480355
0.0890938
0.0510577
0.057945
0.0642858
0.0633934
0.0667233
0.0642109
0.0625427
0.0635154
0.103371
0.115679
0.0810649
0.0721984
0.0638205
0.0690193
0.118274
0.140327
0.119461
0.128432
0.126834
0.0576723
0.0278626
0.0250041
0.0241655
0.0269441
0.0261134
0.0469672
0.0211658
0.0224739
0.0232165
0.0279021
0.0308454
0.0537727
0.0237232
0.0258992
0.0330029
0.0353547
0.0467707
0.0277857
0.0284774
0.0349349
0.0367636
0.0400861
0.034202
0.0323621
0.0293357
0.0263231
0.024778
0.0255136
0.0320714
0.0474123
0.0282074
0.028685
0.0305738
0.134137
0.0312936
0.0270915
0.0277811
0.0267204
0.0339948
0.0358742
0.10661
0.0346767
0.016771
0.0158129
0.0163934
0.0172208
0.017841
0.018429
0.01886
0.0194649
0.0198455
0.0199852
0.0201527
0.0225262
0.0224288
0.0219409
0.0213928
0.0221978
0.0214966
0.0215479
0.022166
0.021633
0.0217681
0.0228344
0.0239906
0.0235275
0.024116
0.0254527
0.0242938
0.0225542
0.0223588
0.0224889
0.023198
0.0243573
0.0231518
0.023802
0.0229769
0.0239423
0.0240459
0.0207237
0.0203553
0.0201638
0.019682
0.0190385
0.0184172
0.0177058
0.0169118
0.016056
0.0153523
0.0148457
0.0152446
0.0148749
0.0147345
0.0245536
0.0211277
0.0190085
0.0179553
0.0176596
0.0178394
0.018381
0.0190805
0.0197735
0.0203221
0.020516
0.0211058
0.0250244
0.0249781
0.0261929
0.0249998
0.0263474
0.0252977
0.0239514
0.0230762
0.0242927
0.0235851
0.0240711
0.0257287
0.0266093
0.0242578
0.0245594
0.0219775
0.0205519
0.0188847
0.0192479
0.0207554
0.0214286
0.023904
0.0239486
0.027443
0.0273577
0.0271522
0.0258662
0.0251845
0.0266544
0.0251503
0.0263096
0.0251839
0.0266105
0.0277933
0.0281722
0.027473
0.0265902
0.0257202
0.0213973
0.0206004
0.0202932
0.0197453
0.0191812
0.0190761
0.0206868
0.0254964
0.0328422
0.0416212
0.0502764
0.0534206
0.0497424
0.0286438
0.0332826
0.029331
0.0340501
0.0427921
0.0610753
0.0354944
0.095138
0.0726732
0.0443732
0.0564842
0.0673219
0.0756616
0.0812014
0.0779
0.0627986
0.0446273
0.0394352
0.0420602
0.0771541
0.0765552
0.0811263
0.0773594
0.0816752
0.0798694
0.0773931
0.0759993
0.0743875
0.0703828
0.0703286
0.068028
0.0681081
0.0607241
0.061892
0.0622367
0.0597064
0.0569575
0.0546746
0.052492
0.0501749
0.046249
0.0449417
0.0424216
0.0406281
0.0372361
0.036726
0.0362441
0.034046
0.0324732
0.0312057
0.0299286
0.0282043
0.0283585
0.0267427
0.0265753
0.0216756
0.0212991
0.0202764
0.0199019
0.0194523
0.0190794
0.0191858
0.020076
0.0377066
0.0312577
0.0324622
0.0335836
0.0339287
0.0401059
0.0469313
0.0713945
0.0661216
0.072916
0.0622986
0.0648246
0.0639746
0.0635493
0.0662526
0.0698732
0.0752119
0.0877241
0.334776
0.513879
0.254204
0.238017
0.247508
0.252318
0.25986
0.340732
0.36109
0.357864
0.361741
0.331687
0.318765
0.196619
0.226182
0.238179
0.236771
0.22316
0.196024
0.370391
0.522778
0.51884
0.523661
0.523774
0.518764
0.522627
0.502908
0.514265
0.501759
0.515028
0.502305
0.521713
0.518993
0.504364
0.501135
0.501152
0.500912
0.501372
0.50155
0.504882
0.506045
0.506096
0.505091
0.503956
0.514621
0.403085
0.0989037
0.0672394
0.10837
0.15056
0.119759
0.182946
0.214479
0.152905
0.0840429
0.0654522
0.0744458
0.0902646
0.0912624
0.114988
0.154553
0.146743
0.118977
0.120326
0.115647
0.155835
0.150891
0.177509
0.215936
0.214171
0.152523
0.118269
0.110972
0.183318
0.203594
0.199107
0.0889005
0.0307568
0.0199114
0.0200805
0.0314877
0.0154585
0.0167664
0.0173838
0.0343789
0.0711131
0.0322275
0.101857
0.108986
0.165357
0.134069
0.1663
0.101824
0.11163
0.0635176
0.0753598
0.0855785
0.0919978
0.0945075
0.0847546
0.192371
0.276972
0.167883
0.532157
0.521871
0.181506
0.210648
0.570423
0.513103
0.503422
0.501761
0.501691
0.501853
0.50181
0.500965
0.500911
0.500725
0.500763
0.500715
0.501162
0.504766
0.520462
0.514663
0.505242
0.501385
0.500823
0.500797
0.500688
0.500727
0.500746
0.500802
0.501011
0.501042
0.50114
0.501656
0.503925
0.512139
0.439708
0.169124
0.182414
0.40767
0.363341
0.511565
0.504626
0.501362
0.500933
0.500848
0.500822
0.500789
0.500963
0.500886
0.501393
0.501228
0.501285
0.50278
0.508273
0.506426
0.446299
0.371955
0.420407
0.332168
0.506702
0.50779
0.503273
0.502892
0.50324
0.503404
0.501507
0.501517
0.500984
0.501051
0.500884
0.501334
0.504762
0.511107
0.347398
0.171242
0.177959
0.259059
0.0873394
0.0897873
0.0911872
0.0929896
0.239277
0.419556
0.53276
0.452528
0.462619
0.52583
0.375343
0.355095
0.285655
0.310782
0.392495
0.341635
0.309231
0.245957
0.283594
0.245294
0.301668
0.216354
0.233717
0.221133
0.281574
0.28592
0.286697
0.226426
0.216164
0.270883
0.286761
0.318638
0.218339
0.259778
0.20238
0.191613
0.0857696
0.0873292
0.0788851
0.0686344
0.0692536
0.077663
0.0765092
0.0827894
0.0800775
0.0841727
0.0815408
0.0791812
0.0720734
0.0739292
0.0675001
0.0698994
0.129055
0.165835
0.149613
0.150604
0.178441
0.127472
0.154918
0.147003
0.191605
0.241041
0.198758
0.247099
0.203533
0.263389
0.391634
0.740181
0.372778
0.219688
0.30587
0.34106
0.286501
0.187722
0.447815
0.542188
0.298484
0.364028
1.2121
1.05208
1.79352
0.983011
1.09458
0.646871
0.589794
1.01564
0.637443
0.643815
0.540278
0.56011
0.471724
0.306089
0.302086
0.28652
0.225847
0.258625
0.250181
0.257986
0.285214
0.247468
0.298634
0.335519
0.379994
0.313509
0.272757
0.346291
0.20289
0.264776
0.320417
0.293198
0.239873
0.310197
0.415446
0.370588
0.314889
0.368706
0.474886
0.526072
0.475405
0.398891
0.445228
0.948252
0.896375
0.891768
0.554662
1.92747
1.66094
0.295996
0.105798
0.0686725
0.0286116
0.0216932
0.0185015
0.0181006
0.0479179
0.0198136
0.0234873
0.0207223
0.0259102
0.0257129
0.0295167
0.047783
0.0344915
0.045138
0.0343586
0.0410497
0.0342384
0.0452084
0.0478182
0.0488745
0.0391913
0.0330742
0.0479898
0.062174
0.0312926
0.0726357
0.0768615
0.0494382
0.0617133
0.0750762
0.0388244
0.139201
0.0508626
0.0477616
0.0522128
0.094505
0.199783
0.066535
0.0937852
0.522223
1.47883
0.460509
0.170022
0.134235
0.0410761
0.0359672
0.0273418
0.0353516
0.0313922
0.0514402