/*--------------------------------*- C++ -*----------------------------------*\
| =========                 |                                                 |
| \\      /  F ield         | OpenFOAM: The Open Source CFD Toolbox           |
|  \\    /   O peration     | Version:  v2012                                 |
|   \\  /    A nd           | Website:  www.openfoam.com                      |
|    \\/     M anipulation  |                                                 |
\*---------------------------------------------------------------------------*/
FoamFile
{
    version     2.0;
    format      ascii;
    class       volScalarField;
    location    "100";
    object      k;
}
// * * * * * * * * * * * * * * * * * * * * * * * * * * * * * * * * * * * * * //

dimensions      [0 2 -2 0 0 0 0];


internalField   nonuniform List<scalar> 
22960
(
0.0345144
0.0218017
0.0183252
0.0154137
0.0131986
0.0134122
0.010813
0.0136169
0.013808
0.0132674
0.0126299
0.0147462
0.0169346
0.0182226
0.0182343
0.0177529
0.0171348
0.01977
0.028779
0.0342061
0.0349704
0.0236971
0.0332505
0.036386
0.0240016
0.0189075
0.0196576
0.0211013
0.0219017
0.0223471
0.0226229
0.0228156
0.0230263
0.023348
0.023831
0.0245203
0.0254914
0.0266358
0.0278541
0.0315037
0.0338156
0.0353255
0.0365434
0.0375649
0.0385372
0.0394494
0.0403236
0.0409987
0.0411506
0.0455732
0.0495133
0.0468438
0.0448481
0.0433397
0.0421048
0.0409509
0.0397638
0.0381729
0.0364287
0.0342966
0.0318447
0.0288754
0.0241363
0.0189287
0.0148032
0.0128022
0.0173623
0.0184661
0.0187373
0.0189679
0.0217157
0.0227605
0.0225872
0.022402
0.0222859
0.0222207
0.0221583
0.0220209
0.0217324
0.0211072
0.0198783
0.0194376
0.0195401
0.0196193
0.0188621
0.0142993
0.023422
0.0241063
0.0234143
0.0264317
0.0323184
0.0363647
0.0382241
0.0382278
0.0356472
0.0332024
0.0289598
0.0256167
0.0225856
0.0193016
0.0155263
0.0151968
0.0130286
0.0131626
0.0149673
0.0141443
0.0139011
0.0132098
0.0144824
0.0177497
0.0252244
0.0263716
0.025543
0.0248357
0.0246922
0.024771
0.0248165
0.0267905
0.0283114
0.0294882
0.0319293
0.0345927
0.0362015
0.0349866
0.0297799
0.0253823
0.0227878
0.021594
0.0201396
0.02285
0.0242485
0.0241053
0.0253585
0.0262755
0.027478
0.0330698
0.033536
0.0316909
0.0291289
0.0264716
0.0248803
0.0229577
0.0207192
0.0202784
0.0204868
0.0212235
0.0223457
0.0233573
0.0227818
0.0190527
0.0176109
0.0159345
0.015526
0.016952
0.0170137
0.0177113
0.0144393
0.0159432
0.0199543
0.016869
0.0177525
0.018319
0.0188486
0.0196173
0.0203718
0.0195898
0.0189478
0.0182395
0.0172393
0.0159755
0.0143348
0.0120716
0.0114821
0.00964526
0.00992055
0.010297
0.010517
0.0106065
0.0106446
0.0113227
0.0133184
0.0147438
0.0150073
0.0149019
0.0144869
0.0136865
0.0125184
0.0113607
0.0143631
0.0164128
0.0175168
0.0180994
0.0183502
0.0183092
0.0176903
0.0145099
0.0119495
0.0108914
0.0115718
0.0114893
0.01092
0.00833886
0.00740563
0.00928523
0.0106467
0.0109947
0.0115041
0.0118406
0.0121355
0.012379
0.0125203
0.0123649
0.01222
0.0122953
0.0127775
0.0137961
0.01529
0.0168211
0.0196271
0.0239031
0.0290097
0.0340901
0.0382747
0.0411666
0.0426478
0.0429093
0.0416596
0.0386476
0.0388108
0.0465996
0.0455763
0.0412931
0.037398
0.033676
0.0302221
0.0275614
0.024088
0.0208841
0.0181587
0.0153515
0.0120714
0.00829043
0.00646752
0.00520111
0.00540736
0.00592563
0.00665515
0.0076481
0.00787489
0.0117263
0.0203952
0.0315594
0.0434268
0.0540006
0.0628104
0.0707515
0.0717172
0.0695392
0.062158
0.0326759
0.0304347
0.0287908
0.0256272
0.021946
0.0188873
0.0164397
0.0146418
0.0157456
0.0180677
0.0167334
0.0150855
0.0126145
0.0131503
0.0140113
0.0144287
0.0149177
0.0147585
0.0148709
0.0144334
0.0143462
0.0137336
0.0135319
0.0128215
0.0126922
0.0120475
0.011539
0.0116933
0.0133526
0.0149572
0.0173281
0.0189849
0.019857
0.020284
0.0209007
0.0209572
0.0231167
0.0227806
0.022224
0.0215635
0.0206262
0.0191399
0.0177002
0.0165641
0.0156631
0.0148739
0.0139615
0.0138304
0.0160502
0.0170982
0.0182464
0.0188664
0.0161446
0.0166674
0.0167841
0.0176238
0.0177154
0.0185328
0.0184639
0.0192036
0.0189034
0.0194714
0.0188718
0.0191689
0.0190489
0.019678
0.0208373
0.0216506
0.0228915
0.026526
0.0293479
0.0318483
0.034865
0.037478
0.0397388
0.0426131
0.0456961
0.0470226
0.0490474
0.0364675
0.0342112
0.0273708
0.0216127
0.0212865
0.0211246
0.0208239
0.0203563
0.0200008
0.0197289
0.0195217
0.0193221
0.0191516
0.0189796
0.0188025
0.0186302
0.0184824
0.0183336
0.01827
0.018218
0.0184895
0.018879
0.019592
0.0203148
0.0209229
0.0208468
0.0251983
0.0274288
0.0284859
0.0289612
0.0291034
0.0287541
0.0330311
0.0333941
0.0329594
0.0321625
0.0307416
0.0280701
0.0224564
0.0256536
0.0285146
0.0311628
0.0334064
0.03552
0.0374539
0.0392827
0.0411635
0.0444515
0.0457199
0.0467671
0.0447398
0.0418784
0.0391274
0.0364745
0.0330838
0.0286248
0.0216583
0.0185374
0.0168973
0.0148845
0.0141955
0.0128259
0.0123885
0.0144805
0.0167863
0.01745
0.0180333
0.018278
0.0185255
0.0205674
0.0219899
0.0223047
0.0224862
0.0226198
0.0227066
0.0227313
0.0226847
0.022699
0.0224821
0.0222218
0.0221185
0.0219806
0.0215899
0.0210974
0.0202308
0.0186599
0.0158984
0.0150043
0.0142617
0.0140434
0.0138403
0.0138211
0.0135516
0.0136756
0.0133726
0.0134903
0.0131195
0.0131984
0.0126949
0.0126391
0.0120096
0.0120298
0.011397
0.0105712
0.0100442
0.0108605
0.0126392
0.0158795
0.0180417
0.018959
0.0195559
0.0205655
0.0209214
0.0221365
0.022194
0.0213167
0.0197966
0.0217639
0.0276824
0.0243365
0.0255441
0.0242199
0.0295187
0.026983
0.0241941
0.0243551
0.0252789
0.0262606
0.0269188
0.0227309
0.0220188
0.023254
0.0190419
0.0222164
0.0227458
0.0231135
0.0236093
0.0236077
0.0235551
0.0318415
0.0408362
0.0430933
0.0404087
0.0356836
0.0342314
0.0397507
0.0376097
0.0283611
0.0361496
0.0408422
0.0484193
0.0438499
0.0459857
0.046697
0.0495993
0.0466563
0.0471504
0.047797
0.0471572
0.0448667
0.0441394
0.0398541
0.0430251
0.0455747
0.054469
0.0644523
0.0819178
0.0900682
0.093817
0.0902362
0.0409852
0.0277552
0.0313144
0.0366126
0.0388078
0.0561445
0.0728952
0.093868
0.128578
0.128648
0.109214
0.0881901
0.0676597
0.0450618
0.0228589
0.0101444
0.00954076
0.0101431
0.0110645
0.0123823
0.013352
0.0190655
0.0192532
0.0183644
0.0185149
0.0162629
0.0177373
0.0186759
0.019176
0.0192828
0.0188006
0.0189883
0.019581
0.0200865
0.0198934
0.0197644
0.0196945
0.0186629
0.0180706
0.015999
0.0139129
0.0124372
0.0118183
0.0121281
0.0122078
0.0121607
0.0119496
0.0149959
0.0129082
0.0122674
0.0124053
0.0123936
0.0117983
0.0137682
0.0165646
0.0181523
0.0185219
0.0183924
0.0176617
0.0166392
0.0153669
0.0147473
0.0143225
0.0137747
0.0135013
0.0131868
0.0126993
0.0121671
0.01134
0.0100359
0.00797043
0.00694327
0.00638178
0.00668674
0.00745341
0.00795106
0.00834797
0.00910376
0.0150279
0.0282632
0.0419997
0.0549777
0.066517
0.0771528
0.0856221
0.0866629
0.0841291
0.0739284
0.0303888
0.0291765
0.0270284
0.0233702
0.0203728
0.0177928
0.0156073
0.0139348
0.0144924
0.0173806
0.0180997
0.0208038
0.020966
0.0222387
0.0227843
0.0239924
0.024281
0.0303619
0.0523537
0.0839231
0.103624
0.13028
0.171932
0.186378
0.189511
0.175378
0.141713
0.108599
0.0859171
0.0603161
0.0334621
0.0157809
0.0112672
0.0429033
0.0324491
0.0247588
0.0323304
0.0302554
0.0278707
0.027593
0.0317426
0.0263588
0.0174367
0.0171635
0.0182842
0.0189967
0.0193461
0.0194971
0.0193511
0.0189909
0.0186047
0.0178854
0.0168201
0.0185443
0.0239667
0.028776
0.031108
0.0290354
0.0306361
0.0331712
0.0355701
0.0386023
0.0407038
0.0429685
0.0458675
0.0515082
0.056675
0.0601794
0.0712716
0.0831604
0.0959483
0.108894
0.115337
0.118099
0.116458
0.108959
0.0943112
0.0790732
0.0534045
0.0349862
0.0404068
0.0588453
0.0665928
0.0709812
0.0718637
0.0719061
0.0710252
0.0691658
0.0671306
0.0642753
0.0610023
0.0539511
0.0552604
0.0565393
0.057334
0.0582452
0.0582746
0.058131
0.0569112
0.0549594
0.0450884
0.0338671
0.0297562
0.0314495
0.0381924
0.0447483
0.0483973
0.0500231
0.0495141
0.0512698
0.050154
0.0511314
0.0491871
0.0488461
0.0463379
0.042351
0.0407156
0.0391486
0.0352912
0.0368309
0.0342906
0.0324142
0.0308857
0.0282752
0.0270441
0.0251554
0.0259685
0.0237185
0.0247556
0.0259912
0.0266921
0.029245
0.0298048
0.0321494
0.0306281
0.0325076
0.0327384
0.0359648
0.0363691
0.0363762
0.0434177
0.0431906
0.0414372
0.0385953
0.0326089
0.0288278
0.0255986
0.0257835
0.024938
0.0237915
0.0225272
0.0210973
0.021871
0.0221021
0.0221006
0.0221495
0.0228421
0.0230992
0.0226862
0.0287561
0.0254924
0.0208931
0.020726
0.0203963
0.0201523
0.0199016
0.0196539
0.0193354
0.0191024
0.0188373
0.0186495
0.0191532
0.01947
0.0203393
0.0209532
0.0220773
0.0227503
0.0236957
0.0243164
0.0247727
0.025059
0.0253055
0.0256471
0.0261484
0.0267532
0.0267338
0.0247317
0.0242382
0.0245285
0.026065
0.0310713
0.0157928
0.0175316
0.0182235
0.0184004
0.0202696
0.02374
0.0256148
0.0257506
0.0250095
0.0234941
0.021765
0.0195829
0.0207421
0.0229769
0.0246468
0.0257722
0.0265644
0.0276354
0.0297058
0.031071
0.0311211
0.0309554
0.0296144
0.0334827
0.0341643
0.0345052
0.0340797
0.0469624
0.0510139
0.0478871
0.0466701
0.0504374
0.0451091
0.0396464
0.0421007
0.0260337
0.0247494
0.0305174
0.0300281
0.0328645
0.0320369
0.028825
0.0279384
0.0333324
0.0323415
0.0316931
0.0323918
0.0333924
0.0335081
0.0331755
0.0299163
0.028394
0.0316178
0.0350815
0.036887
0.0391988
0.0403421
0.0379332
0.0431232
0.0411809
0.0438215
0.0453019
0.035996
0.029481
0.0323962
0.0308499
0.034153
0.039056
0.0434353
0.0470587
0.0522567
0.0588788
0.067212
0.0770766
0.0816276
0.0844587
0.0755658
0.0647413
0.0563618
0.0498739
0.0447831
0.0409836
0.0382662
0.0358705
0.0350774
0.0335798
0.0308231
0.0333821
0.0359077
0.0383915
0.0408777
0.043368
0.0458851
0.0490589
0.0574189
0.0576948
0.0565205
0.0527447
0.0484251
0.044693
0.0412808
0.0374447
0.0338897
0.0291495
0.0267247
0.0246843
0.022981
0.0209479
0.0195006
0.0169769
0.0159994
0.0187922
0.0201491
0.0230194
0.0247792
0.0266841
0.0300017
0.0324928
0.0360635
0.0388377
0.040641
0.0441302
0.0480272
0.0525632
0.0584164
0.064537
0.06843
0.0704895
0.0566154
0.0511175
0.0476166
0.0444473
0.0415147
0.0387713
0.0361613
0.0376313
0.0402047
0.0431744
0.0471784
0.0524826
0.0600884
0.0713368
0.0900605
0.082404
0.0719666
0.0626675
0.0552396
0.0497169
0.0454803
0.0423159
0.038585
0.0373333
0.0390434
0.0359583
0.0350849
0.0325072
0.0303525
0.0279307
0.0260309
0.0231396
0.0228125
0.0260393
0.0287938
0.0314938
0.0330736
0.0343669
0.0371639
0.034425
0.0323476
0.0308549
0.0286138
0.0267084
0.0292534
0.0305958
0.0285622
0.0284163
0.0288654
0.0293097
0.026239
0.0291583
0.0319364
0.0319089
0.0289984
0.0268948
0.0317193
0.0326004
0.0347755
0.0341176
0.0329607
0.0304823
0.0260218
0.0291323
0.0339116
0.0355447
0.0298135
0.027591
0.0308443
0.0213791
0.0218688
0.0188967
0.0301309
0.0367069
0.0378775
0.0409384
0.038683
0.0372732
0.0363902
0.0318765
0.0315756
0.0280703
0.0339522
0.0338426
0.0296458
0.0279609
0.0306503
0.0294061
0.0332741
0.0340101
0.0325065
0.0309997
0.0252468
0.0279137
0.030913
0.0326853
0.030543
0.0336694
0.0311695
0.0303477
0.0351371
0.0356047
0.0321806
0.0295011
0.0273219
0.0228782
0.0304749
0.0314221
0.035201
0.0360062
0.0299793
0.025115
0.0260911
0.0155791
0.0185598
0.0196878
0.0201918
0.0198213
0.0241221
0.0236308
0.0231444
0.0227726
0.0225126
0.0223461
0.0223026
0.0224085
0.0224556
0.0223657
0.0223201
0.0223947
0.0223882
0.0223375
0.0224431
0.0226259
0.0230765
0.0237568
0.0240138
0.0244559
0.0250963
0.02525
0.0250828
0.0250728
0.0230826
0.0213295
0.0177224
0.0166951
0.0176156
0.018203
0.0185024
0.018714
0.0185072
0.0174115
0.0168967
0.0177434
0.0180395
0.0180021
0.0179175
0.0174754
0.0167852
0.0166194
0.0154117
0.0175702
0.0200451
0.0207227
0.0253865
0.0235574
0.0226302
0.022455
0.0224288
0.0223588
0.0222572
0.0221591
0.0221387
0.0222221
0.0223819
0.0226043
0.0229204
0.0232145
0.0188632
0.0189434
0.0188448
0.0181711
0.0169729
0.0175727
0.0182691
0.0184958
0.0181604
0.0180923
0.0230143
0.023447
0.0235044
0.0229732
0.0226691
0.0224746
0.0223648
0.0223215
0.0224887
0.0226382
0.0228694
0.0232624
0.0238685
0.0249776
0.0266358
0.0237876
0.024614
0.018984
0.0181371
0.0184706
0.0192465
0.0196179
0.0195973
0.0209398
0.0213183
0.0206485
0.0195024
0.0243269
0.0254211
0.0246045
0.0269185
0.019929
0.0321862
0.035434
0.0354552
0.0372771
0.0337155
0.0342306
0.0311458
0.0319148
0.0302627
0.0285921
0.0267258
0.0279216
0.0295648
0.0306311
0.0288102
0.0296043
0.0267207
0.0308068
0.0329425
0.0316311
0.0341056
0.0319678
0.0320845
0.0304568
0.0320558
0.0300789
0.0296199
0.0285124
0.0288156
0.029493
0.0310113
0.0213969
0.0232809
0.0248004
0.0258366
0.0267312
0.0259296
0.0261764
0.0271873
0.0285867
0.0285239
0.0284405
0.0288297
0.0272608
0.0306239
0.0322144
0.0317223
0.0291452
0.0293268
0.0306017
0.0262776
0.024839
0.0265856
0.0272247
0.0253799
0.0246139
0.0233391
0.0214787
0.0212026
0.0225374
0.0237244
0.0246654
0.0251026
0.0256457
0.0245137
0.0251061
0.0257875
0.0266863
0.0257886
0.0249558
0.0244226
0.0240716
0.0237481
0.0239545
0.0247298
0.027567
0.0289027
0.0283619
0.0234267
0.0203299
0.0203735
0.0202223
0.0190869
0.0338737
0.0398541
0.0322582
0.0282371
0.0283347
0.02812
0.0281841
0.0265736
0.0275302
0.0284491
0.0285757
0.0281822
0.026309
0.027317
0.0277312
0.0292586
0.0300298
0.0302551
0.0279228
0.0270477
0.0296871
0.0296011
0.0336118
0.0303148
0.0335145
0.034757
0.032823
0.0319815
0.0284883
0.0241376
0.0269657
0.0294328
0.0316815
0.0309018
0.0317351
0.0334658
0.032547
0.0320344
0.0322859
0.0328922
0.0322543
0.0322454
0.0284378
0.0292507
0.0294253
0.0289172
0.0299075
0.0313536
0.0337491
0.032922
0.0310806
0.0327381
0.0324464
0.0336267
0.0325398
0.0313991
0.0302028
0.0309283
0.0323017
0.0318017
0.0328423
0.0328739
0.0321852
0.0321701
0.0298453
0.0295926
0.0328923
0.0297713
0.0334315
0.0338147
0.0329868
0.0327203
0.0303008
0.0316963
0.03156
0.0337619
0.0327345
0.0314378
0.0266483
0.0268783
0.0263894
0.0255956
0.0266923
0.02864
0.0278796
0.0268484
0.0252828
0.026486
0.0238866
0.0257765
0.0228834
0.0251901
0.0240904
0.0223694
0.024712
0.0265753
0.0275657
0.0278533
0.0296484
0.0250799
0.022193
0.0271391
0.0341315
0.0276427
0.027841
0.0350158
0.0347871
0.0323327
0.036186
0.0217643
0.027786
0.0301685
0.0311572
0.030675
0.0333719
0.0324367
0.0313884
0.0303
0.0286166
0.0279995
0.0331799
0.0296004
0.0317517
0.0279717
0.0258462
0.0245328
0.0238636
0.0233723
0.0229347
0.0226255
0.0223918
0.0220397
0.0213933
0.020628
0.0166798
0.0185199
0.020364
0.0188331
0.0164071
0.0164589
0.01692
0.0173715
0.0175133
0.0174479
0.0173287
0.0169366
0.0162394
0.0155176
0.0160663
0.016522
0.0168058
0.0169908
0.0170703
0.0169464
0.0167391
0.0178234
0.018224
0.0183958
0.0184321
0.0183456
0.0177535
0.0171408
0.0184525
0.0203299
0.0220856
0.0228715
0.0235122
0.0243804
0.0255269
0.0273739
0.0300226
0.0339002
0.036202
0.0321057
0.0291854
0.0269307
0.0253451
0.0242366
0.0229794
0.0202805
0.0167552
0.0163431
0.0178821
0.0194832
0.0205155
0.0210944
0.0213555
0.0220858
0.0255196
0.0267704
0.0262668
0.0213865
0.0155167
0.020316
0.0211667
0.0264353
0.0272952
0.0236958
0.0217698
0.0197851
0.0251927
0.0283887
0.0275239
0.0270024
0.025071
0.0228301
0.0211949
0.0192148
0.0183
0.0172393
0.0170291
0.0169217
0.0168975
0.0163018
0.0166102
0.0171213
0.0162575
0.0144008
0.0119284
0.0133116
0.0146106
0.0150669
0.0150008
0.0162912
0.0162889
0.0164056
0.0165251
0.0165773
0.0167025
0.0166875
0.0167829
0.0166545
0.016695
0.0165096
0.0165183
0.0165784
0.0172236
0.0210639
0.0176281
0.017482
0.0172667
0.0171257
0.0168213
0.016604
0.016502
0.0163097
0.0162184
0.0160506
0.0159514
0.0157889
0.015628
0.0153889
0.0147456
0.0148224
0.0140402
0.0137972
0.0135787
0.0133498
0.013992
0.0141848
0.0149458
0.0151485
0.0153572
0.0155149
0.0157265
0.015888
0.0160887
0.0162334
0.0164014
0.0173509
0.0175175
0.0182352
0.0180078
0.0181553
0.0187876
0.0171303
0.0167927
0.0164516
0.0162968
0.0162414
0.0161502
0.0159992
0.015823
0.0156299
0.0154516
0.0152697
0.0150747
0.0148972
0.0147263
0.0146811
0.014447
0.013644
0.0134352
0.0124296
0.0123143
0.0124798
0.0122804
0.0120033
0.0115223
0.0114326
0.0114922
0.0125995
0.0129575
0.0136291
0.0139775
0.0142574
0.0143851
0.0145749
0.0148143
0.0150848
0.0153695
0.0156807
0.0160135
0.016305
0.016502
0.0165706
0.0165326
0.0165588
0.0167846
0.016915
0.0169593
0.017617
0.0169409
0.016771
0.0168762
0.0179488
0.0174306
0.0170317
0.0171864
0.0177506
0.0178571
0.0178009
0.0177935
0.0174494
0.0169575
0.0162385
0.014068
0.0143628
0.0150753
0.0159251
0.0162982
0.0168563
0.0171943
0.0174341
0.0177976
0.0175463
0.0175668
0.0175793
0.0175386
0.0174531
0.017183
0.0169894
0.0166171
0.0163923
0.0160231
0.0158272
0.0155269
0.0153447
0.015088
0.0149183
0.0147039
0.0145452
0.0139628
0.0139306
0.0136904
0.0135387
0.0134448
0.0133157
0.0134558
0.0137165
0.0142053
0.0142156
0.0137272
0.0130204
0.0126385
0.0124088
0.0122324
0.0114646
0.0117557
0.0125763
0.0127131
0.013207
0.0138003
0.0139911
0.0142313
0.0142675
0.0147923
0.0148398
0.0150254
0.0151297
0.0153545
0.0154723
0.0157279
0.015851
0.0161271
0.0162513
0.0164843
0.0165577
0.016705
0.01672
0.0167415
0.0166657
0.016892
0.0174028
0.0178027
0.0182898
0.0181568
0.0183688
0.0179057
0.0179421
0.0171649
0.0168628
0.0162561
0.0159188
0.015592
0.0153085
0.0150836
0.0148525
0.0146361
0.014459
0.0142563
0.0142337
0.0141909
0.013913
0.0134856
0.0134634
0.0134699
0.0137169
0.0140045
0.0142671
0.0143823
0.0146447
0.014722
0.0150257
0.0153355
0.0156892
0.0161722
0.0167895
0.0176665
0.0182539
0.0194561
0.0195803
0.0202131
0.0200473
0.0201678
0.0193856
0.0188336
0.0200282
0.0205995
0.021213
0.0209428
0.0209068
0.0204483
0.0199303
0.018876
0.0181265
0.0172333
0.0163951
0.0158652
0.0153982
0.0150143
0.0149632
0.0145909
0.0144562
0.014108
0.0137488
0.0134235
0.0131237
0.0129357
0.0129856
0.0132503
0.0135609
0.0139108
0.0142208
0.0144734
0.014781
0.015085
0.015342
0.0157425
0.0158339
0.0154558
0.0147839
0.0143995
0.0140868
0.0137898
0.01354
0.0133725
0.0134657
0.0134465
0.0135347
0.0137543
0.014508
0.0148853
0.0158221
0.0158157
0.0162631
0.01627
0.0164692
0.0170349
0.017649
0.0183175
0.0192039
0.0203251
0.0211933
0.0223837
0.0245504
0.0248011
0.0248052
0.024594
0.0212254
0.0220278
0.0241237
0.0245826
0.0244751
0.0235083
0.0242941
0.0223089
0.0220723
0.0203754
0.0212471
0.0214271
0.0207195
0.0199631
0.0190173
0.0182186
0.0173853
0.0166161
0.027401
0.0266211
0.0304498
0.0285821
0.0303205
0.0256553
0.0276069
0.023992
0.0229626
0.0226888
0.0238251
0.0241005
0.0281396
0.0316984
0.246086
0.503665
0.188655
0.191249
0.195003
0.194286
0.180052
0.189991
0.205573
0.174591
0.216361
0.183292
0.215803
0.177348
0.194036
0.195257
0.0314049
0.0354535
0.0381978
0.0405551
0.0368747
0.0356983
0.0548214
0.248012
0.518403
0.511316
0.511296
0.505938
0.501903
0.506054
0.51253
0.506753
0.507651
0.511372
0.400791
0.239244
0.0559557
0.0329704
0.0523111
0.0656254
0.303003
0.529419
0.543069
0.514328
0.503998
0.502427
0.503611
0.509682
0.507553
0.511039
0.509805
0.511633
0.508241
0.510088
0.511174
0.503437
0.503916
0.501726
0.503443
0.501501
0.501226
0.501716
0.503859
0.510659
0.506835
0.536013
0.337006
0.114829
0.0684539
0.30669
0.32235
0.0741146
0.0536672
0.280871
0.533425
0.505295
0.502509
0.502594
0.501575
0.501025
0.500923
0.501093
0.501108
0.501644
0.501676
0.503577
0.511894
0.510626
0.508696
0.511215
0.503368
0.501569
0.501031
0.501119
0.500929
0.500934
0.500843
0.500984
0.501296
0.50155
0.502602
0.519774
0.280343
0.0550295
0.0629286
0.281814
0.522548
0.502434
0.501206
0.500958
0.500816
0.500787
0.500743
0.500832
0.500869
0.501021
0.501542
0.5036
0.510369
0.504373
0.249054
0.25
0.253402
0.241839
0.503944
0.508549
0.503188
0.501609
0.501369
0.501319
0.500832
0.500804
0.500753
0.500799
0.500801
0.50181
0.519215
0.2823
0.0641645
0.0576283
0.272829
0.525527
0.502393
0.500191
0.500599
0.500316
0.501066
0.503835
0.504307
0.504366
0.505126
0.509336
0.505353
0.251755
0.168453
0.183378
0.506927
0.511051
0.513038
0.513319
0.516409
0.502354
0.51805
0.501683
0.520286
0.348996
0.365487
0.0613433
0.056077
0.0741295
0.377358
0.347921
0.0652347
0.0844679
0.365626
0.294373
0.0482368
0.0395162
0.216602
0.21254
0.0358402
0.0331324
0.21012
0.198251
0.030533
0.0275382
0.0242891
0.0303089
0.0302054
0.0337414
0.0329761
0.0374686
0.0563154
0.0278618
0.0219714
0.0211578
0.0274445
0.0458248
0.0429965
0.0594415
0.065253
0.0817121
0.0670463
0.0583648
0.0764999
0.151377
0.0716699
0.0453743
0.0461538
0.143311
0.0341758
0.0200453
0.0162932
0.017308
0.0179634
0.017557
0.022426
0.0206898
0.0239665
0.0188987
0.0198707
0.0248545
0.0447663
0.0510075
0.0582033
0.0422869
0.0378153
0.0540283
0.0674833
0.0763291
0.0621532
0.0425641
0.0997785
0.0428298
0.15068
0.148065
0.258481
1.12936
0.744837
0.665625
0.672644
0.673969
0.749143
1.24599
0.550915
0.0660334
0.0285057
0.109576
0.0449794
0.038139
0.0531213
0.0631554
0.125123
0.0335716
0.0273195
0.0179674
0.0138056
0.01511
0.0187187
0.0200518
0.0172101
0.0164493
0.0157706
0.0170451
0.0187222
0.0199109
0.0177543
0.0198811
0.0188222
0.0212317
0.0217672
0.0322737
0.0238853
0.015444
0.023687
0.0446948
0.0596903
0.040989
0.0306696
0.0492546
0.0919453
0.100521
0.059102
0.150846
0.0385546
0.0806857
0.110355
0.152151
0.704279
0.178384
0.0740622
0.0272316
0.0161597
0.0203476
0.0293873
0.0196972
0.0169089
0.0166453
0.0187934
0.0188486
0.0170773
0.0152463
0.0149039
0.0170376
0.016387
0.0140904
0.0147194
0.0146502
0.0149658
0.0163421
0.0166074
0.0149808
0.0154638
0.0157184
0.0173779
0.0173473
0.0304142
0.0181085
0.0176662
0.0289916
0.0218217
0.0373828
0.0191724
0.0279125
0.0196016
0.0190335
0.0435106
0.0241418
0.020413
0.0438571
0.0241384
0.0205944
0.0395162
0.0225829
0.0190756
0.034081
0.0173723
0.023535
0.0241926
0.0278754
0.0253921
0.0269233
0.0283083
0.0259092
0.0470399
0.02454
0.0197919
0.0186432
0.017792
0.0185618
0.0196619
0.0211991
0.0215509
0.0220313
0.0217624
0.0216024
0.0218886
0.0224111
0.0227833
0.0224909
0.0219352
0.0202131
0.0189604
0.0191748
0.0205459
0.0225107
0.0233263
0.0234384
0.0232076
0.0699155
0.171677
0.122902
0.0830127
0.0966025
0.148096
0.179609
0.101751
0.0806287
0.0460103
0.0672011
0.0525728
0.0595545
0.0455433
0.0376302
0.0330336
0.0408388
0.0344664
0.0355347
0.0331817
0.0577542
0.0415398
0.043973
0.0372935
0.0477198
0.0630788
0.101781
0.0778529
0.0563804
0.0611614
0.0874935
0.100784
0.0614892
0.0241537
0.0238955
0.0228053
0.020625
0.0190892
0.0185891
0.0203373
0.02268
0.0240866
0.0239491
0.0218661
0.019414
0.0175566
0.0160469
0.0178059
0.0202377
0.0231014
0.0207357
0.017526
0.0150034
0.0136184
0.0143931
0.0157934
0.0185049
0.0209079
0.0223093
0.0241668
0.0242237
0.0240956
0.0229471
0.0225504
0.0212967
0.020173
0.0192518
0.0182492
0.0175648
0.0168484
0.0162194
0.0158298
0.0154217
0.0149518
0.0145012
0.0141232
0.013842
0.0134937
0.0132047
0.0131994
0.0131174
0.0131553
0.0124415
0.0124751
0.0121607
0.0115569
0.0119802
0.0122642
0.0125036
0.0128788
0.0132643
0.0136221
0.0139023
0.0141754
0.0219475
0.0170859
0.0155792
0.0171576
0.0180042
0.0298658
0.0359223
0.0207167
0.0182278
0.0161911
0.0199651
0.0322578
0.0444122
0.0329549
0.0243979
0.0331354
0.0438993
0.0533246
0.0403232
0.0984317
0.0256832
0.0278201
0.052391
0.109425
0.419435
0.0467345
0.0224353
0.0158796
0.0132445
0.0144938
0.0169499
0.0179747
0.016074
0.0153436
0.0138869
0.0148605
0.0162577
0.0173392
0.0161532
0.0181396
0.0161927
0.0180888
0.0190112
0.0305047
0.0234804
0.0147929
0.0197304
0.0168407
0.0218032
0.0230247
0.040664
0.0500238
0.0348284
0.0263
0.0368454
0.0132637
0.0129306
0.0128342
0.0131782
0.0149669
0.014178
0.0144332
0.0190142
0.0158291
0.0162809
0.0161726
0.0141929
0.0136725
0.013574
0.0148117
0.0245634
0.0182278
0.0345955
0.0694346
0.0593538
0.0598541
0.20501
0.212908
0.209289
0.155003
0.0574706
0.0872253
0.124716
0.115769
0.0909177
0.0614958
0.0580719
0.070092
0.057947
0.0304232
0.0317848
0.0326867
0.0300534
0.027536
0.0274237
0.0276314
0.0281767
0.0276952
0.0336307
0.0318028
0.034852
0.0299423
0.0302038
0.0371055
0.0514353
0.0494647
0.0359738
0.0468112
0.0309257
0.0564605
0.0755166
0.102828
0.137489
0.100296
0.0668089
0.0465039
0.0655529
0.0695439
0.102625
0.11994
0.103465
0.11362
0.0813289
0.0696883
0.103699
0.0573731
0.0316237
0.0357209
0.0379423
0.0400083
0.114233
0.063797
0.0670265
0.0404817
0.0569928
0.125922
0.034825
0.032516
0.0298501
0.0292229
0.0303217
0.0241535
0.035473
0.0176551
0.023067
0.0234006
0.0421527
0.0256572
0.0286095
0.0272209
0.0274225
0.0630086
0.0312642
0.0363281
0.0297471
0.0307002
0.108427
0.0408501
0.0466174
0.0329069
0.0281169
0.0928535
0.0411087
0.0333561
0.0236978
0.023041
0.0154776
0.0169007
0.01982
0.0204439
0.0225032
0.0219487
0.0235617
0.0223641
0.0219343
0.0210235
0.020814
0.0195886
0.0190037
0.0178537
0.0172816
0.0165603
0.0160794
0.0156596
0.0153107
0.0149085
0.0145194
0.0141755
0.0139441
0.0138746
0.0136886
0.0128922
0.0145998
0.0131775
0.0137051
0.0133902
0.0131964
0.0126909
0.0125841
0.0122141
0.0117766
0.0119454
0.0123333
0.0126653
0.0130233
0.0133468
0.0135983
0.0133983
0.0130919
0.0127183
0.0123218
0.0122148
0.0118569
0.0122403
0.0125086
0.0128062
0.0125782
0.0129282
0.0132815
0.0134068
0.0131022
0.0132345
0.0129248
0.0126025
0.0122969
0.0126197
0.0128966
0.0132638
0.0136872
0.0141484
0.0135387
0.0240038
0.0176636
0.0205502
0.0272806
0.0357813
0.0304384
0.02568
0.0194208
0.0263553
0.0327771
0.0335656
0.0238476
0.0196422
0.0196903
0.0168632
0.0157561
0.0181699
0.021029
0.0337137
0.0768141
0.0299189
0.0241961
0.0365739
0.0267214
0.0267163
0.0244677
0.0190989
0.0231797
0.0156811
0.01996
0.0164848
0.0152167
0.0167502
0.0174054
0.0258963
0.0157366
0.0147653
0.0137261
0.0152519
0.0144408
0.0129462
0.0144192
0.0134313
0.0143586
0.015314
0.0161599
0.0152319
0.0128357
0.012347
0.0125368
0.013741
0.0127797
0.01326
0.0135884
0.0137261
0.0137728
0.013924
0.0135207
0.0128678
0.0124385
0.0121488
0.0122667
0.0124343
0.0137505
0.0123631
0.0127492
0.0133155
0.0132235
0.0132602
0.0141657
0.0128894
0.0125305
0.0125518
0.0121746
0.0152275
0.0122123
0.0125434
0.0135828
0.0147863
0.0155946
0.0134008
0.0176403
0.0127362
0.0127198
0.0123333
0.0119016
0.0121634
0.0121833
0.0180508
0.0133467
0.0158062
0.0152035
0.0147995
0.0138703
0.0138625
0.0133871
0.0129888
0.0124403
0.015972
0.0135245
0.013395
0.0122865
0.01267
0.0131022
0.0210248
0.0251486
0.0250348
0.02451
0.0232307
0.0194167
0.0159989
0.0141457
0.0136143
0.0142165
0.0174575
0.0154807
0.0145042
0.0150557
0.018513
0.0275057
0.120776
0.302361
0.416874
0.588242
0.0795796
0.0462853
0.0248585
0.0291902
0.0242341
0.0272794
0.0262527
0.0415475
0.0452197
0.0438216
0.03119
0.0309206
0.0268851
0.0340851
0.0337905
0.0485807
0.0772798
0.608271
0.508406
0.253288
0.142604
0.050381
0.0452094
0.0531748
0.064877
0.029473
0.411452
0.204719
0.0796423
0.231531
0.103082
0.0350341
0.0261511
0.0213565
0.0203628
0.016106
0.0159934
0.0158767
0.0157388
0.0156194
0.0155105
0.0153582
0.0152304
0.0150175
0.0146256
0.0154939
0.0164003
0.01721
0.0178984
0.0196636
0.0209994
0.0230422
0.0256791
0.0274382
0.0277002
0.0446418
0.0314993
0.0378182
0.0344854
0.0393312
0.0504455
0.0424873
0.0448573
0.0187745
0.019795
0.0185181
0.0168128
0.0173808
0.0170326
0.0174784
0.0172639
0.0170322
0.0175497
0.0311758
0.0304184
0.0295478
0.030607
0.0289452
0.0316416
0.0465266
0.044586
0.0439137
0.0310216
0.0238268
0.0281146
0.0238496
0.0244642
0.0223422
0.0208358
0.0216415
0.0184403
0.0201281
0.0216172
0.0229778
0.0241397
0.0254589
0.0220142
0.0214046
0.0202267
0.0141315
0.0146052
0.0141397
0.0136528
0.0128767
0.0115847
0.00964856
0.00847405
0.007251
0.00711245
0.0067662
0.00675253
0.00639844
0.00647228
0.00634194
0.00669776
0.00671207
0.00705314
0.00696402
0.00709367
0.00698035
0.00768938
0.00869211
0.00867937
0.0086454
0.00839521
0.0104568
0.0106388
0.0106364
0.0105033
0.0095735
0.00942387
0.00968335
0.00951721
0.00970078
0.00943428
0.00958537
0.00924176
0.0094264
0.00912753
0.00946316
0.00929433
0.00968165
0.0103778
0.010109
0.00936152
0.00876401
0.0110579
0.0111682
0.0111425
0.0111237
0.010961
0.014601
0.00953116
0.0161663
0.0175893
0.022652
0.0288857
0.036301
0.0230778
0.0259365
0.0326051
0.0387359
0.0294021
0.0214958
0.01785
0.0161663
0.0165997
0.0165599
0.0178831
0.0213608
0.0191863
0.0224499
0.0234706
0.0265843
0.0275346
0.0270525
0.0214477
0.0142918
0.0121714
0.015397
0.0243906
0.0236431
0.0197808
0.0153146
0.0164638
0.0179024
0.0194086
0.0197942
0.0170409
0.0172619
0.0176779
0.0180639
0.0183539
0.0186286
0.0189195
0.0193149
0.019627
0.0181167
0.017931
0.0177785
0.0174798
0.0173601
0.0170144
0.0170549
0.016702
0.0167801
0.0164136
0.0164626
0.0160534
0.0159972
0.0155455
0.015449
0.0151251
0.0150343
0.0135987
0.0134702
0.0144144
0.0162253
0.0173601
0.0170264
0.0171885
0.0174324
0.0171514
0.0227184
0.0221129
0.0146275
0.0118992
0.0101285
0.010832
0.0107521
0.0107184
0.0112585
0.0113809
0.0118158
0.0118242
0.0121506
0.0121496
0.0124433
0.0124741
0.0127947
0.0129679
0.013331
0.0137243
0.0143676
0.019062
0.018835
0.0187212
0.0178116
0.0172451
0.0163116
0.0160659
0.0154582
0.0155226
0.0149482
0.0149385
0.0142809
0.0140458
0.0133085
0.0130716
0.0165974
0.0161942
0.0205062
0.0205293
0.0247374
0.0265112
0.0207763
0.020981
0.0169551
0.0175809
0.0180256
0.0186533
0.0188721
0.0194441
0.0196233
0.0204041
0.0212209
0.0227225
0.0242554
0.0257308
0.0260495
0.0269039
0.0247664
0.0186769
0.0170083
0.025923
0.0258378
0.0234217
0.0185308
0.0168865
0.0227268
0.0238163
0.0255297
0.0234951
0.0255492
0.0338555
0.0205349
0.0211844
0.0196619
0.0221239
0.0285526
0.0373661
0.0284238
0.0308351
0.0288142
0.0242225
0.0221316
0.0216279
0.0213692
0.0211812
0.0209616
0.020759
0.020472
0.0203172
0.0201038
0.0199982
0.020175
0.0206748
0.0210608
0.0217112
0.0219929
0.0228391
0.0233403
0.0236588
0.0240008
0.0244649
0.0250583
0.0242134
0.0238494
0.0237257
0.0235963
0.0234706
0.0234624
0.0233802
0.0236032
0.0231452
0.0230166
0.0232376
0.0233479
0.0232054
0.0229962
0.0227548
0.0228218
0.0225659
0.0224093
0.022693
0.0229996
0.0228677
0.0227789
0.0224777
0.0223626
0.0221236
0.0221109
0.0205625
0.020299
0.0200455
0.0199559
0.0205746
0.0205744
0.0224108
0.0224559
0.0223822
0.0225656
0.022528
0.0226406
0.022611
0.0226952
0.0231719
0.0237447
0.0236605
0.0304883
0.0308025
0.024793
0.0230476
0.0224015
0.0224737
0.0223135
0.0224683
0.022603
0.0224863
0.0225893
0.0225824
0.0224029
0.022061
0.021859
0.0215861
0.020173
0.0201923
0.0199708
0.0205787