/*--------------------------------*- C++ -*----------------------------------*\
| =========                 |                                                 |
| \\      /  F ield         | OpenFOAM: The Open Source CFD Toolbox           |
|  \\    /   O peration     | Version:  v2012                                 |
|   \\  /    A nd           | Website:  www.openfoam.com                      |
|    \\/     M anipulation  |                                                 |
\*---------------------------------------------------------------------------*/
FoamFile
{
    version     2.0;
    format      ascii;
    class       volVectorField;
    location    "1325";
    object      U;
}
// * * * * * * * * * * * * * * * * * * * * * * * * * * * * * * * * * * * * * //

dimensions      [0 1 -1 0 0 0 0];


internalField   nonuniform List<vector> 
22960
(
(-0.183228 -0.385246 0.261257)
(-0.0492686 -0.453589 0.273105)
(-0.0980272 -0.465639 0.121768)
(-0.133691 -0.276843 0.0657874)
(0.188008 -0.168636 0.0728858)
(0.0420294 -0.38977 0.105358)
(0.0687214 -0.142567 0.114081)
(0.0822199 -0.216989 0.12923)
(0.202107 -0.167948 0.0699244)
(0.230206 -0.1411 0.0577048)
(0.278253 -0.113879 0.0527964)
(0.242217 -0.100674 0.0973892)
(0.197724 -0.0743963 0.0550749)
(0.151018 -0.0748688 0.0491654)
(0.190947 -0.0625481 0.0363318)
(0.21351 -0.0415689 0.0679174)
(0.194938 -0.0153421 0.130515)
(0.0973286 0.00251489 0.244557)
(-0.184719 -0.0953983 0.253305)
(-0.298453 -0.225767 0.193377)
(-0.191602 -0.310612 0.210101)
(-0.0675604 0.0611598 0.188784)
(-0.640148 -0.295793 0.182426)
(-0.732905 -0.150973 0.246284)
(-0.821378 0.308496 0.218807)
(-0.704666 0.605454 0.11307)
(-0.763543 0.232064 0.0828628)
(-0.99724 0.124134 0.0414477)
(-1.25169 0.0512533 0.0344575)
(-1.39217 0.0141649 0.0151025)
(-1.46965 -0.00973498 0.00424099)
(-1.49982 -0.0283365 0.0013024)
(-1.49549 -0.0481224 0.0018064)
(-1.46324 -0.0761324 0.00582885)
(-1.39171 -0.117144 0.019273)
(-1.2644 -0.179161 0.0415249)
(-1.04467 -0.261016 0.0676342)
(-0.719482 -0.342995 0.0731311)
(-0.365188 -0.443619 0.00315501)
(-0.249961 -0.821916 -0.042271)
(-0.185936 -1.21064 -0.0661764)
(-0.136846 -1.42742 -0.0823872)
(-0.10032 -1.56066 -0.0959841)
(-0.074402 -1.59995 -0.114448)
(-0.0502333 -1.55591 -0.138085)
(-0.0246718 -1.43212 -0.165446)
(0.00298846 -1.22073 -0.192853)
(0.0377129 -0.882513 -0.211915)
(0.0461822 -0.54897 -0.161912)
(0.241982 -0.260691 -0.140229)
(0.299449 0.573337 -0.166354)
(0.200229 1.01837 -0.0906895)
(0.143409 1.30549 -0.0574679)
(0.103978 1.47071 -0.034668)
(0.0649856 1.55844 -0.021874)
(0.0214294 1.57876 -0.0148772)
(0.0201051 1.53135 -0.0163846)
(0.0082769 1.50249 -0.0024204)
(-0.0145589 1.43639 0.00266588)
(-0.0407579 1.29347 0.00785731)
(-0.0680112 1.06892 0.0185676)
(-0.117904 0.818696 0.0297225)
(-0.0217985 0.300579 0.00577176)
(-0.492979 0.0552474 0.0172426)
(-0.323941 0.327493 0.0662744)
(0.252488 -0.576258 -0.117992)
(-0.189302 0.227793 -0.0228389)
(-0.426202 0.216147 0.0187225)
(-0.707382 0.175294 -0.00493592)
(-0.971505 0.13617 -0.00982456)
(-1.17346 0.156408 0.0287937)
(-1.30733 0.16747 0.0374933)
(-1.4296 0.127283 0.0144989)
(-1.51937 0.0893244 -0.00204348)
(-1.56908 0.0577158 -0.00723391)
(-1.58479 0.033635 -0.00471311)
(-1.56137 0.0133185 0.00224399)
(-1.48856 -0.0114052 0.0127261)
(-1.35238 -0.0524409 0.0289337)
(-1.08745 -0.12208 0.0264297)
(-0.846426 -0.253504 0.0587966)
(-0.876488 -0.673036 0.0707699)
(-1.17653 -0.408314 0.0721784)
(-1.00883 -0.169263 0.198704)
(-0.866569 0.017681 0.174116)
(0.327012 -0.210133 0.0567418)
(-0.230595 0.414436 0.151886)
(-0.162877 0.229018 0.197387)
(-0.107945 0.153505 0.224005)
(0.0483817 0.200374 0.212795)
(-0.0930479 0.330357 0.226748)
(-0.23638 0.381926 0.25977)
(-0.402874 0.39464 0.280033)
(-0.541299 0.367292 0.291821)
(-0.609155 0.288846 0.290647)
(-0.638392 0.243245 0.27715)
(-0.61059 0.204858 0.165522)
(-0.566183 0.172707 0.14868)
(-0.483639 0.135821 0.151037)
(-0.338586 0.103361 0.133814)
(-0.204567 0.0613202 0.12225)
(-0.174376 -0.208543 0.101389)
(-0.24159 -0.0419506 0.127132)
(-0.114505 0.0125311 0.134322)
(-0.176027 -0.146983 0.105271)
(-0.118386 -0.137902 0.0997768)
(-0.108422 -0.115671 0.0958028)
(-0.0895963 -0.109799 0.0790586)
(-0.0922621 -0.123988 0.177208)
(-0.140278 -0.0271009 0.205549)
(-0.176177 0.157422 0.226196)
(-0.243896 0.115164 0.243208)
(-0.238137 0.114259 0.25184)
(-0.233194 0.129693 0.254419)
(-0.24438 0.147478 0.242408)
(-0.249997 0.112791 0.23977)
(-0.266821 0.110298 0.235759)
(-0.342975 0.0242028 0.264281)
(-0.352087 -0.0567104 0.302866)
(-0.324066 -0.0635316 0.330731)
(-0.335249 -0.0265615 0.351047)
(-0.377607 -0.0309109 0.331613)
(-0.417558 -0.120767 0.315812)
(-0.361005 -0.239248 0.285296)
(-0.267405 -0.25962 0.291129)
(-0.189929 -0.310897 0.262464)
(-0.165255 -0.388546 0.137434)
(-0.161515 -0.440593 0.12552)
(-0.141361 -0.461879 0.115911)
(-0.131848 -0.46564 0.281436)
(-0.153696 -0.439556 0.271259)
(-0.158169 -0.377061 0.191952)
(-0.182402 -0.298043 0.307434)
(-0.121702 -0.301408 0.526912)
(-0.183564 -0.2299 0.485055)
(-0.232413 -0.180004 0.569089)
(-0.271204 0.0608099 0.56673)
(-0.201145 0.206627 0.575864)
(-0.127494 0.2376 0.602151)
(-0.0931075 0.173386 0.577909)
(-0.110313 0.106848 0.537506)
(-0.115151 0.093213 0.471582)
(-0.0683164 0.100794 0.404099)
(-0.0461431 0.0433123 0.397558)
(-0.0401955 0.0114596 0.399929)
(-0.0462363 -0.0852521 0.417497)
(-0.0632638 -0.143284 0.392729)
(-0.0840393 -0.12598 0.390422)
(-0.0597389 -0.0501123 0.430183)
(-0.0743531 -0.148552 0.349859)
(-0.0426003 -0.25693 0.371343)
(-0.103265 -0.18549 0.223822)
(-0.0947964 -0.162173 0.169987)
(-0.102608 -0.14734 0.236663)
(-0.109737 -0.167401 0.245876)
(-0.167058 -0.166079 0.242024)
(-0.0704444 0.00164257 0.259595)
(-0.239192 -0.0572249 0.240553)
(-0.172927 -0.212115 0.255284)
(-0.19918 0.0715064 0.319914)
(-0.177803 0.0591248 0.537835)
(-0.16073 0.0470985 0.710287)
(-0.15665 0.0339048 0.857226)
(-0.161839 -0.0223964 0.9547)
(-0.162864 -0.0680646 1.00565)
(-0.131419 -0.0818748 1.01921)
(-0.0890587 -0.0134454 0.958805)
(-0.0539686 -0.0210804 0.88412)
(-0.0315795 -0.0314312 0.778209)
(-0.00605636 -0.0343807 0.632017)
(0.0263028 -0.0315331 0.430892)
(0.090816 -0.0457369 0.248545)
(0.0627874 -0.313636 0.224864)
(-0.0218907 -0.182917 0.200932)
(0.146881 -0.212754 0.134959)
(0.104825 -0.407608 0.111878)
(0.102895 -0.469298 0.113434)
(0.106182 -0.576347 0.110431)
(0.0975921 -0.642298 0.100057)
(0.0838057 -0.694301 0.152683)
(0.129454 -0.73797 0.183835)
(0.152002 -0.761283 0.214383)
(0.170532 -0.782503 0.20859)
(0.177614 -0.766629 0.193324)
(0.178403 -0.718451 0.167873)
(0.171365 -0.622454 0.128094)
(0.163611 -0.497241 0.0342647)
(0.155531 -0.0673428 -0.083638)
(0.198153 0.395099 0.0484588)
(0.217499 0.475782 0.197421)
(0.22619 0.554291 0.241947)
(0.228133 0.572479 0.269851)
(0.220984 0.563272 0.291857)
(0.213241 0.522953 0.305621)
(0.198008 0.434947 0.302905)
(0.16873 0.389133 0.237229)
(0.12165 0.354258 0.211011)
(0.129036 0.322801 0.13782)
(0.128085 0.270165 0.158087)
(0.12034 0.186566 0.167787)
(0.117981 0.0716388 0.157016)
(0.0537073 0.0349367 0.0778063)
(0.178716 0.0617296 0.0994643)
(0.140229 0.0347499 0.135928)
(0.147255 0.0529778 0.202001)
(0.277794 0.0658318 0.174791)
(0.432974 0.0815848 0.163134)
(0.546645 0.0920613 0.154668)
(0.639617 0.101354 0.147567)
(0.715425 0.107696 0.141404)
(0.779315 0.111741 0.131929)
(0.843591 0.117468 0.107218)
(0.895463 0.101109 0.0825107)
(0.964772 0.0634431 0.0827723)
(1.04099 0.0419019 0.0814437)
(1.13192 0.0244251 0.0747776)
(1.24406 0.0063347 0.0559011)
(1.33789 -0.0143722 0.0182474)
(1.38226 -0.0334645 -0.0261089)
(1.37161 -0.0496089 -0.0639876)
(1.32398 -0.0592035 -0.0875161)
(1.26401 -0.0647093 -0.0985522)
(1.20751 -0.0664556 -0.102303)
(1.15832 -0.0668116 -0.102091)
(1.11661 -0.0656196 -0.0992042)
(1.0809 -0.0647568 -0.0951756)
(1.04942 -0.0601154 -0.0895287)
(1.0301 -0.0499379 -0.0883716)
(1.00768 -0.0419204 -0.0907785)
(0.915117 -0.0396232 -0.0677363)
(0.846789 -0.0329371 -0.0457553)
(0.821453 -0.0274864 -0.0387838)
(0.793931 -0.0231188 -0.0351984)
(0.760933 -0.0200488 -0.0340107)
(0.717456 -0.0150636 -0.0378286)
(0.685044 -0.0147306 -0.0401987)
(0.644747 -0.0138615 -0.0450564)
(0.577974 -0.00680171 -0.0479879)
(0.488995 0.00105143 -0.0475848)
(0.372473 0.0181345 -0.0452045)
(0.226993 0.0292114 -0.046431)
(0.0970376 0.0369502 -0.0498903)
(0.0575352 0.0595809 -0.056027)
(0.0375076 0.0834821 -0.0347912)
(0.0440917 0.141856 -0.0269938)
(0.051312 0.166951 -0.0302399)
(0.0615821 0.287473 -0.0333747)
(0.118917 0.272131 -0.0323631)
(0.185426 0.766471 -0.00448922)
(0.75715 0.248947 -0.107743)
(0.974109 -0.14984 -0.137334)
(1.48342 -0.333361 -0.19599)
(2.03556 -0.420617 -0.29149)
(2.47578 -0.418448 -0.376154)
(2.7225 -0.367385 -0.433415)
(2.66414 -0.364258 -0.46514)
(2.43559 -0.339719 -0.449078)
(1.99489 -0.180246 -0.419908)
(1.04782 0.173136 -0.409747)
(-0.46537 1.12988 0.167945)
(-1.73483 1.94183 0.0197521)
(-0.696638 2.91658 0.0134907)
(-0.413625 1.35658 -0.0263779)
(-0.278714 1.04424 -0.0573944)
(-0.227983 0.694016 -0.0682491)
(-0.196879 0.474822 -0.0679312)
(-0.147863 0.268374 -0.100369)
(-0.175334 0.178753 -0.146126)
(-0.274173 0.138722 -0.0956219)
(-0.146496 0.180359 -0.120575)
(-0.0654026 0.191447 -0.0815473)
(0.00842353 0.18734 0.0357407)
(-0.0197051 0.172936 0.178133)
(-0.0502426 0.158727 0.274191)
(-0.0638738 0.149299 0.346207)
(-0.0856334 0.143242 0.380247)
(-0.0850393 0.139082 0.396536)
(-0.100187 0.136848 0.39662)
(-0.0930574 0.136125 0.388696)
(-0.104429 0.135797 0.376425)
(-0.091265 0.135481 0.361433)
(-0.0978786 0.134465 0.347559)
(-0.0783185 0.131893 0.338318)
(-0.0849577 0.130736 0.343517)
(-0.0832566 0.122958 0.354292)
(-0.103936 0.150885 0.373319)
(-0.0931467 0.169743 0.383281)
(-0.119571 0.169006 0.378226)
(-0.195862 0.188798 0.371377)
(-0.288781 0.2676 0.33403)
(-0.417914 0.246286 0.282127)
(-0.522392 0.246614 0.316586)
(-0.560691 0.336882 0.31634)
(-0.666145 0.234515 0.201566)
(-0.703659 0.233062 0.17325)
(-0.911032 0.129845 0.0962699)
(-0.865885 0.126126 0.171459)
(-0.770534 0.160099 0.247935)
(-0.693971 0.17797 0.259173)
(-0.591107 0.172903 0.299595)
(-0.447186 0.155481 0.308562)
(-0.382549 0.11912 0.306856)
(-0.26669 0.113733 0.326633)
(-0.189973 0.126669 0.335243)
(-0.181464 0.134074 0.335454)
(-0.151017 0.140676 0.352124)
(-0.157715 0.138294 0.358712)
(-0.261783 0.123455 0.340623)
(-0.305757 0.121455 0.316144)
(-0.398668 0.106834 0.315654)
(-0.434028 0.0982148 0.33668)
(-0.235263 0.10869 0.356132)
(-0.253275 0.109946 0.343217)
(-0.241623 0.112246 0.357369)
(-0.285798 0.110763 0.372015)
(-0.255885 0.115197 0.385343)
(-0.286879 0.11349 0.394028)
(-0.248705 0.118547 0.396801)
(-0.272976 0.118227 0.393588)
(-0.227789 0.127478 0.380643)
(-0.242631 0.131218 0.353338)
(-0.188354 0.145235 0.308927)
(-0.189815 0.153221 0.245433)
(-0.169066 0.170992 0.17042)
(-0.190884 0.177699 0.121965)
(-0.248505 0.183578 0.072898)
(-0.306369 0.183638 0.0266436)
(-0.497228 0.167742 -0.00889885)
(-0.709327 0.135266 0.0159488)
(-0.863637 0.0919966 0.0178559)
(-0.985979 0.0661258 0.0143435)
(-1.08657 0.0688011 0.0101353)
(-1.14752 0.0839388 0.0110481)
(-1.17722 0.0804789 0.0146388)
(-1.22329 0.0663279 0.00916204)
(-1.24311 0.0715537 -0.0144402)
(-1.25188 0.066922 -0.0380284)
(-1.32113 0.0422175 -0.031758)
(-1.4271 0.00513393 -0.0274368)
(-1.46698 -0.00446112 -0.0217499)
(-1.53716 -0.0104961 -0.030823)
(-1.57075 0.00476683 -0.0119131)
(-1.61254 0.00749691 -0.00758021)
(-1.65706 0.00517216 -0.00232771)
(-1.67344 0.00787183 0.0143555)
(-1.6571 0.0135711 0.0337729)
(-1.61503 0.02147 0.0522135)
(-1.56196 0.0329002 0.067296)
(-1.51474 0.0437784 0.081084)
(-1.47491 0.0531889 0.0942709)
(-1.4326 0.0650802 0.111512)
(-1.37688 0.0779189 0.128567)
(-1.31169 0.0867623 0.137072)
(-1.25618 0.0892738 0.127773)
(-1.21827 0.0890952 0.120939)
(-1.19655 0.0898095 0.118347)
(-1.17097 0.106071 0.116979)
(-1.1274 0.149709 0.114038)
(-1.07261 0.159301 0.137942)
(-0.939398 0.144777 0.178738)
(-0.804724 0.119171 0.241164)
(-0.70905 0.0849904 0.284448)
(-0.471162 0.034331 0.335314)
(-0.251373 -0.0327623 0.367975)
(-0.267221 -0.217786 0.554267)
(-0.267698 -0.290263 0.698263)
(-0.260991 -0.34187 0.686849)
(-0.245353 -0.384903 0.586298)
(-0.237073 -0.416745 0.399085)
(-0.25781 -0.436985 0.199538)
(-0.0926724 -0.807865 0.108794)
(-0.0648046 -0.764052 0.304947)
(-0.079783 -0.693285 0.495821)
(-0.112701 -0.60293 0.591532)
(-0.14651 -0.499154 0.589423)
(-0.193504 -0.359797 0.43173)
(-0.248453 -0.0714958 0.212582)
(-0.267574 -0.265518 0.209477)
(-0.275588 -0.363671 0.258736)
(-0.283103 -0.448781 0.310896)
(-0.292264 -0.461562 0.368033)
(-0.304303 -0.418023 0.423393)
(-0.316975 -0.32481 0.478803)
(-0.307935 -0.188226 0.535119)
(-0.259572 0.0467867 0.522789)
(-0.269659 0.187522 0.362569)
(-0.339231 0.0436652 0.390817)
(-0.356455 0.0684595 0.498271)
(-0.365042 0.152657 0.518468)
(-0.353751 0.245682 0.499477)
(-0.336986 0.326177 0.460764)
(-0.324501 0.397611 0.412193)
(-0.323237 0.415078 0.314063)
(-0.292155 0.349101 0.252737)
(-0.18548 0.235663 0.164311)
(-0.165263 0.17639 0.129776)
(-0.153443 0.15715 0.0993443)
(-0.139357 0.0186582 0.0852814)
(-0.158724 -0.0184949 0.109088)
(-0.0479867 -0.133751 0.132138)
(-0.270681 -0.0511734 0.23595)
(-0.222543 -0.0379599 0.156241)
(-0.225642 -0.113486 0.331758)
(-0.405665 -0.125891 0.29999)
(-0.647746 -0.15501 0.279247)
(-0.836596 -0.170956 0.254155)
(-0.998134 -0.17486 0.212761)
(-1.14881 -0.144646 0.279127)
(-1.29632 -0.13636 0.320667)
(-1.41228 -0.148655 0.312298)
(-1.50939 -0.159218 0.296872)
(-1.57559 -0.164936 0.279402)
(-1.61647 -0.167587 0.261598)
(-1.62965 -0.169885 0.240633)
(-1.6232 -0.176494 0.205294)
(-1.60308 -0.171555 0.181363)
(-1.59117 -0.171891 0.13528)
(-1.56701 -0.18282 0.1009)
(-1.53244 -0.181285 0.0831398)
(-1.43362 -0.138536 0.0795534)
(-1.28846 -0.121197 0.0754402)
(-1.12234 -0.152168 0.0710873)
(-0.92021 -0.204418 0.0593591)
(-0.641681 -0.235952 0.0171329)
(-0.3541 -0.193653 -0.101961)
(-0.172548 -0.238557 -0.14992)
(-0.101099 -0.25326 -0.0673399)
(-0.111296 -0.238348 0.0127723)
(-0.107481 -0.228199 0.0674896)
(-0.119544 -0.20837 0.12071)
(-0.107227 -0.197547 0.146416)
(-0.125025 -0.184916 0.167042)
(-0.112364 -0.177978 0.164133)
(-0.130066 -0.170103 0.16202)
(-0.114801 -0.168211 0.143079)
(-0.130623 -0.164749 0.134931)
(-0.111979 -0.163859 0.113737)
(-0.116781 -0.161128 0.113544)
(-0.0952267 -0.15601 0.107447)
(-0.103323 -0.152667 0.121867)
(-0.0941185 -0.127167 0.129242)
(-0.115717 -0.175884 0.109086)
(-0.114753 -0.191262 0.0570139)
(-0.0898405 -0.175776 0.101602)
(-0.149564 -0.189006 0.176701)
(-0.264707 -0.302 0.197089)
(-0.427362 -0.268718 0.195772)
(-0.549815 -0.259308 0.268391)
(-0.594706 -0.362251 0.296238)
(-0.720903 -0.250477 0.203958)
(-0.769262 -0.237945 0.170901)
(-0.80223 -0.691547 0.207957)
(-0.783076 -0.691806 0.241469)
(-0.669978 -0.718609 0.380896)
(-0.569888 -0.455256 0.380951)
(-0.580393 -0.868602 0.24276)
(-0.791181 -1.17694 0.58578)
(-0.747605 -0.840151 0.426576)
(-1.10879 -0.548034 0.460743)
(-1.18467 -0.409049 0.370952)
(-1.18618 -0.44106 0.269917)
(-1.00888 -0.19114 0.354437)
(-0.766005 -0.276355 0.385859)
(-0.201717 -0.349738 0.349251)
(-0.398659 -0.680392 0.533647)
(-0.803115 -0.751224 0.503687)
(-1.3043 -0.879432 0.626196)
(-1.14782 -0.767603 0.422835)
(-0.605318 -1.01381 0.284085)
(-0.492225 -0.93351 0.369454)
(-0.345986 -0.776332 0.310696)
(-0.558318 -1.48432 0.20974)
(-1.16277 -1.40724 -0.227747)
(-1.10013 -0.836376 0.212559)
(-0.877663 -0.603851 0.377138)
(-1.19246 -0.773493 0.165622)
(-1.09782 -0.932737 0.361298)
(-1.07022 -0.633736 0.357916)
(-1.16216 -0.639766 0.23016)
(-1.39893 -0.225983 0.409128)
(-1.31388 -0.257845 0.290369)
(-1.21172 -0.44173 0.0699382)
(-1.11813 -0.378595 0.261882)
(-1.18306 -0.347141 0.309225)
(-1.10245 -0.435067 0.220596)
(-0.999306 -0.591592 0.226881)
(-1.11351 -0.649448 0.254313)
(-1.21247 -0.508062 0.328121)
(-1.29542 -0.540209 0.402545)
(-1.10016 -0.873107 0.276537)
(-0.937657 -1.04292 0.287593)
(-1.05214 -0.99765 0.313561)
(-1.35554 -0.880056 0.223191)
(-0.869774 -0.936353 0.238395)
(-0.903254 -0.918892 0.215141)
(-0.944749 -0.904579 0.214235)
(-1.01543 -0.923459 0.241365)
(-1.00655 -0.914407 0.236525)
(-0.966261 -0.935663 0.275503)
(-0.892137 -0.910112 0.327795)
(-0.949023 -0.981849 0.435554)
(-0.992317 -1.02058 0.498478)
(-1.14084 -1.14934 0.570457)
(-1.26845 -1.24498 0.574748)
(-1.56967 -1.41595 0.495583)
(-1.67578 -1.49839 0.379966)
(-1.72879 -1.58083 0.259345)
(-1.73081 -1.65702 0.188284)
(-1.74446 -1.87936 0.0888882)
(-1.77961 -1.90646 0.0452769)
(-1.85455 -2.68302 0.00252773)
(-2.87449 -0.447028 -0.616695)
(-2.26921 -0.713435 -0.189011)
(-1.94824 -0.745226 -0.171303)
(-1.47533 -0.571242 -0.0979663)
(-1.35382 -0.222933 -0.140172)
(-0.162362 0.297004 -0.389674)
(1.00966 0.510122 -0.45899)
(1.25432 0.768732 -0.506273)
(1.41491 0.95518 -0.61307)
(1.38626 0.905654 -0.5579)
(1.30941 0.67495 -0.348233)
(1.1993 0.233588 -0.232852)
(0.525715 -0.855022 -0.000779743)
(0.36184 -0.521492 -0.00998525)
(0.167956 -0.335812 -0.0159946)
(0.157036 -0.401849 -0.0580914)
(0.172222 -0.324291 -0.00899306)
(0.337907 -0.208759 0.0143646)
(0.0145481 0.191197 -0.069829)
(0.0623777 0.277586 -0.18402)
(0.321662 0.158875 -0.220843)
(0.24583 -0.0103531 -0.323672)
(0.432574 -0.226701 -0.0679908)
(0.490486 -0.371427 0.0765646)
(0.503096 -0.406969 0.147021)
(0.470665 -0.428834 0.165242)
(0.43242 -0.437104 0.162775)
(0.383394 -0.429323 0.130482)
(0.428073 -0.494173 0.108432)
(0.455668 -0.579517 0.0854024)
(0.477938 -0.658693 0.077321)
(0.503561 -0.713982 0.0629401)
(0.518779 -0.747473 0.0542402)
(0.500895 -0.755261 0.0554491)
(0.452828 -0.761019 0.0703482)
(0.377951 -0.74673 0.0949973)
(0.283853 -0.735821 0.104488)
(0.202167 -0.713686 0.123359)
(0.158829 -0.682934 0.0892292)
(0.17447 -0.658843 0.0714135)
(0.165543 -0.600471 0.068499)
(0.123443 -0.506432 0.0760354)
(0.065126 -0.431329 0.0962566)
(0.0438381 -0.250346 0.160683)
(0.217547 -0.412068 0.162206)
(0.212988 -0.274845 0.175418)
(0.19175 -0.100008 0.182024)
(0.263868 -0.128554 0.150807)
(0.318053 -0.144438 0.138022)
(0.376519 -0.150662 0.116038)
(0.342394 -0.185257 0.178083)
(0.279141 -0.192874 0.242897)
(0.329062 -0.201772 0.304549)
(0.391109 -0.202204 0.315627)
(0.45615 -0.196113 0.301842)
(0.494192 -0.185098 0.250536)
(0.507565 -0.136544 0.162253)
(0.587469 -0.0671585 0.029315)
(0.691906 -0.0677571 0.0233)
(0.764913 -0.0349168 -0.0100357)
(0.927169 -0.0553542 -0.0109186)
(0.972096 -0.0391559 0.00968591)
(0.915378 -0.0288358 0.01004)
(0.815793 -0.0401635 0.00985084)
(0.689355 -0.0602396 0.0126134)
(0.533702 -0.0900059 0.0103306)
(0.345938 -0.125993 -0.0019797)
(0.162957 -0.122016 -0.0172094)
(0.0921895 -0.17557 -0.0337016)
(0.0679121 -0.255636 -0.0188132)
(0.0769114 -0.370234 -0.0115027)
(0.0849133 -0.504693 -0.0132935)
(0.0809165 -0.664088 -0.0115227)
(0.112661 -0.732876 -0.00629067)
(0.237294 -1.31929 0.0167351)
(1.24219 -0.567484 -0.0231196)
(1.7314 0.0613579 -0.0465021)
(2.43106 0.269588 -0.113969)
(3.08133 0.325877 -0.205493)
(3.50673 0.287234 -0.284114)
(3.6461 0.254093 -0.359305)
(3.35648 0.293007 -0.421163)
(3.07809 0.247499 -0.414156)
(2.25119 0.0103356 -0.343174)
(1.01584 -0.330437 -0.314068)
(-0.639298 -1.43733 0.244509)
(-2.16775 -2.5191 0.0300825)
(-0.91088 -3.67966 0.0037535)
(-0.535501 -1.77925 -0.0409181)
(-0.368218 -1.337 -0.0805276)
(-0.30182 -0.902776 -0.0930528)
(-0.258808 -0.619681 -0.090493)
(-0.190701 -0.355576 -0.131034)
(-0.223383 -0.237142 -0.179876)
(-0.443217 -0.326588 -0.00298546)
(-0.564316 -0.291319 0.00648254)
(-0.899265 -0.518161 0.0170726)
(-0.886801 -0.57975 0.0416323)
(-1.08561 -0.877979 0.0457955)
(-1.18926 -0.988931 0.051498)
(-1.5224 -1.30239 0.0608842)
(-1.67581 -1.33466 0.0820049)
(-1.91458 -1.6446 0.120836)
(-2.48806 -2.24022 0.0101086)
(-3.18793 -1.52545 -0.156382)
(-3.28441 -1.25376 0.0565193)
(-3.28778 -0.916291 0.037023)
(-3.16981 -0.571075 -0.0206715)
(-3.07223 -0.273039 -0.108759)
(-2.82422 -0.0825877 -0.18321)
(-2.15041 0.241237 -0.30265)
(-1.38716 0.772018 -0.578846)
(-0.697595 1.18051 -0.915322)
(-0.185823 1.24267 -0.983721)
(0.368817 0.887609 -0.602804)
(0.795638 0.233515 -0.337497)
(0.749598 -0.500243 -0.11874)
(0.291264 -0.27025 -0.0746948)
(-0.472058 0.263167 -0.267422)
(-0.621513 0.0123767 -0.248037)
(-0.498082 -0.133962 -0.115893)
(-0.97625 0.20345 -0.0950762)
(-0.828601 0.259214 -0.0948089)
(-0.666738 0.295198 -0.116847)
(-0.405053 0.215912 -0.247003)
(-0.708352 0.242116 -0.174851)
(-0.425767 0.122431 -0.35973)
(0.219984 -0.249154 -0.288946)
(0.42607 -0.491531 -0.0520659)
(0.530307 -0.549811 0.0461398)
(0.529372 -0.581522 0.0774532)
(0.507503 -0.602279 0.0902182)
(0.464141 -0.610181 0.0830669)
(0.539832 -0.727975 0.0528651)
(0.57354 -0.708882 0.0484604)
(0.583584 -0.684011 0.0321716)
(0.543478 -0.656271 0.00330387)
(0.408864 -0.592337 -0.118896)
(-0.0183639 -0.253739 -0.303765)
(-0.635177 0.171707 -0.251809)
(-1.00475 0.332656 -0.14916)
(-0.86812 0.337421 -0.166244)
(-1.10108 0.412516 -0.0723398)
(-1.00869 0.376992 -0.0980718)
(-1.12753 0.41288 -0.0716685)
(-1.29378 0.456373 -0.0777597)
(-1.39017 0.541782 -0.0727466)
(-1.25276 0.397836 -0.090319)
(-1.22674 0.532457 -0.144188)
(-1.30933 0.749329 -0.196596)
(-1.47461 1.12345 -0.313236)
(-1.14296 0.976314 -0.441438)
(-0.417276 0.861009 -0.490185)
(-0.733745 1.17366 -0.814184)
(-1.34656 1.37337 -1.17595)
(-2.0878 1.342 -1.29703)
(-2.99454 1.06643 -1.11726)
(-3.77438 0.692115 -0.928418)
(-4.24853 0.230651 -0.618011)
(-4.36679 -0.110691 -0.335497)
(-4.30841 -0.408685 -0.114758)
(-4.12627 -0.730411 0.0280165)
(-3.85712 -0.986727 0.0783606)
(-3.34407 -1.16434 0.0879344)
(-2.77996 -1.38192 0.0671401)
(-3.36957 -1.18649 0.0675266)
(-3.92432 -0.885833 0.0680439)
(-4.29767 -0.555556 0.00128503)
(-4.60102 -0.173007 -0.14333)
(-4.71734 0.240152 -0.363601)
(-4.57388 0.670964 -0.610423)
(-4.1612 1.11181 -0.845279)
(-3.5004 1.43054 -1.03153)
(-2.73932 1.52823 -1.09566)
(-2.05907 1.49341 -0.977071)
(-1.49829 1.28604 -0.704453)
(-1.81602 1.41439 -0.485369)
(-2.2855 1.63168 -0.663553)
(-2.8597 1.75095 -0.847098)
(-3.48255 1.70792 -0.799133)
(-4.03475 1.49922 -0.686271)
(-4.40911 1.12175 -0.512661)
(-4.58185 0.673699 -0.295698)
(-4.47632 0.182123 -0.063948)
(-4.17748 -0.260927 0.124634)
(-3.79785 -0.616572 0.101746)
(-3.32404 -0.884589 0.0934075)
(-2.849 -0.99479 0.0931897)
(-3.20095 -0.827892 0.0856902)
(-3.55463 -0.528 0.0855786)
(-3.84012 -0.222752 0.0711244)
(-3.96199 0.171484 -0.0256616)
(-4.07244 0.615101 -0.195981)
(-3.91531 1.02161 -0.357437)
(-3.7601 1.39999 -0.497321)
(-3.35444 1.53181 -0.533238)
(-2.94178 1.62421 -0.577394)
(-2.50874 1.4975 -0.462824)
(-2.06289 1.36522 -0.346938)
(-1.79635 1.17305 -0.226816)
(-1.98725 1.08346 -0.241304)
(-1.63404 0.875271 -0.149488)
(-1.48563 0.69872 -0.118492)
(-1.62972 0.735332 -0.138166)
(-1.50667 0.619059 -0.0965103)
(-1.57814 0.615114 -0.0994633)
(-1.44587 0.496717 -0.072977)
(-1.23488 0.450722 -0.0486202)
(-1.34583 0.404021 -0.0389017)
(-1.20439 0.39182 -0.0598164)
(-1.13561 0.430047 -0.0789522)
(-0.967274 0.398538 -0.127415)
(-0.984547 0.420303 -0.0502983)
(-1.15966 0.445462 -0.0792849)
(-1.27344 0.449059 -0.0620504)
(-1.48789 0.426743 -0.105801)
(-1.55478 0.394715 -0.0765064)
(-1.7482 0.380499 -0.055215)
(-1.67566 0.521347 -0.0596853)
(-1.76512 0.58759 -0.100362)
(-1.70891 0.708514 -0.14276)
(-1.89586 0.765553 -0.175315)
(-1.81827 0.849011 -0.180583)
(-2.13511 0.964718 -0.25476)
(-2.59348 0.973392 -0.314028)
(-2.65278 1.20119 -0.361062)
(-3.31885 1.0411 -0.308935)
(-3.68878 0.603317 -0.188044)
(-3.63651 0.0322025 -0.0224127)
(-3.23492 -0.442133 0.084275)
(-2.72942 -0.707473 0.112293)
(-2.31676 -0.748712 0.0873972)
(-2.24489 -0.905254 0.0911883)
(-2.07507 -1.10664 0.0801019)
(-1.61724 -1.07737 0.0668918)
(-1.2247 -0.829964 0.0614245)
(-0.955574 -0.472347 0.0645799)
(-1.20259 -0.363963 0.0668038)
(-1.31722 -0.284634 0.0677055)
(-1.41049 -0.185871 0.0722966)
(-1.47574 -0.216838 0.0759245)
(-1.52858 -0.516321 0.0615042)
(-1.5314 -0.716622 0.0616423)
(-1.39534 -0.629891 0.0588071)
(-1.21086 -0.649429 0.142949)
(-1.02018 -0.369503 0.135538)
(-0.961944 -0.138046 0.141454)
(-0.93874 -0.141077 0.216561)
(-0.88815 -0.124363 0.271782)
(-0.855721 -0.116272 0.294969)
(-0.831675 -0.105123 0.310727)
(-0.81229 -0.100269 0.305638)
(-0.781309 -0.0955812 0.300708)
(-0.762662 -0.0909374 0.285405)
(-0.743888 -0.0899977 0.269129)
(-0.718241 -0.0979577 0.256114)
(-0.697372 -0.133659 0.247674)
(-0.617802 -0.201382 0.243375)
(-0.73327 -0.198521 0.225906)
(-0.807351 -0.175242 0.236219)
(-0.925089 -0.136216 0.173439)
(-0.990611 -0.130913 0.0981225)
(-1.23454 -0.0507171 0.0819413)
(-1.38366 0.0148401 0.0593397)
(-1.44814 0.0484514 0.0495565)
(-1.46808 0.0755183 0.0529514)
(-1.45421 0.106971 0.0691523)
(-1.39868 0.144232 0.108961)
(-1.30021 0.18026 0.165166)
(-1.15487 0.213949 0.222346)
(-0.9886 0.233166 0.188483)
(-1.01603 0.215855 0.0681076)
(-0.839035 0.206088 0.0619024)
(-0.714008 0.231989 0.0727333)
(-0.460879 0.2962 0.0841117)
(-0.0869725 0.265183 0.0177593)
(0.123268 -0.308581 -0.0416767)
(0.0262842 -0.112082 0.138881)
(0.0503446 -0.171111 0.315072)
(0.087715 -0.243409 0.391348)
(-0.00776865 -0.155216 0.481035)
(-0.238363 0.147186 0.655884)
(-0.318978 0.225718 0.819958)
(-0.326396 0.249898 0.831946)
(-0.318718 0.215519 0.836193)
(-0.306956 0.175646 0.7649)
(-0.318844 0.16054 0.677712)
(-0.26873 0.0556931 0.52365)
(-0.450031 0.0542613 0.490187)
(-0.485343 0.0907187 0.667799)
(-0.498899 0.122896 0.770511)
(-0.527264 0.152594 0.842368)
(-0.555467 0.178087 0.8532)
(-0.675798 0.195373 0.830758)
(-0.601772 0.228038 0.722482)
(-0.574923 0.271794 0.56847)
(-0.525658 0.263877 0.473952)
(-0.519241 0.29578 0.35295)
(-0.506205 0.312245 0.209082)
(-0.163087 0.262489 0.177867)
(-0.179752 0.23964 0.339409)
(-0.189785 0.218058 0.448709)
(-0.264383 0.218257 0.53718)
(-0.258053 0.441067 0.526934)
(-0.220508 0.435168 0.484983)
(-0.197729 0.559264 0.477983)
(-0.320223 0.636388 0.502426)
(-0.331813 0.516795 0.492614)
(-0.37032 0.497325 0.521907)
(-0.402476 0.663226 0.548629)
(-0.228696 0.560803 0.541044)
(-0.229619 0.563886 0.633433)
(-0.360153 0.254116 0.797831)
(-0.366738 0.410029 0.817025)
(-0.439812 0.554593 0.83501)
(-0.201913 0.700568 0.794791)
(-0.246437 0.6348 0.82378)
(-0.30824 0.483563 0.679437)
(-0.344283 0.585388 0.652607)
(-0.400303 0.572708 0.667098)
(-0.479396 0.597294 0.740106)
(-0.346284 0.645508 0.698634)
(-0.37126 0.562479 0.778398)
(-0.390884 0.475936 0.695939)
(-0.48939 0.367395 0.689663)
(-0.496349 0.472867 0.608731)
(-0.477764 0.421138 0.672739)
(-0.299401 0.61853 0.63313)
(-0.445495 0.62045 0.605641)
(-0.484625 0.649241 0.597166)
(-0.437002 0.618742 0.609025)
(-0.414692 0.541487 0.610416)
(-0.364918 0.496912 0.618554)
(-0.365994 0.575149 0.605264)
(-0.272012 0.580937 0.593401)
(-0.357657 0.644864 0.573831)
(-0.368512 0.532681 0.569007)
(-0.294312 0.48207 0.585251)
(-0.478771 0.674205 0.555067)
(-0.258479 0.840999 0.505093)
(-0.263896 0.658803 0.449104)
(-0.246172 0.623639 0.627352)
(-0.136918 0.754447 0.824609)
(0.0342658 1.11647 0.68947)
(0.110014 1.24485 0.684345)
(0.170916 1.23441 0.732125)
(0.219512 1.17264 0.769165)
(0.271557 1.05899 0.776187)
(0.316199 0.918089 0.749418)
(0.396625 0.66925 0.661599)
(0.413515 0.426614 0.450325)
(0.487342 -0.200001 0.271832)
(0.453858 -0.694139 0.460746)
(0.349495 -1.02805 0.525385)
(0.283195 -1.20493 0.565058)
(0.222544 -1.29697 0.572533)
(0.171049 -1.31514 0.552506)
(0.120416 -1.27236 0.520246)
(0.0672443 -1.16591 0.489747)
(0.00775042 -1.00139 0.476151)
(-0.0351608 -0.868219 0.583837)
(-0.0846424 -0.713479 0.587406)
(-0.154388 -0.52169 0.425411)
(-0.12984 -0.605287 0.471751)
(-0.109078 -0.669592 0.53756)
(-0.0917538 -0.676857 0.615827)
(-0.07578 -0.629918 0.693255)
(-0.0591292 -0.534168 0.76485)
(-0.0255698 -0.37164 0.821767)
(0.056539 -0.108531 0.818684)
(0.0398488 0.214709 0.686474)
(-0.0671495 0.235845 0.722253)
(-0.0977195 0.293673 0.824193)
(-0.110565 0.364598 0.84434)
(-0.107537 0.446465 0.819135)
(-0.104427 0.523447 0.765859)
(-0.109254 0.584634 0.692771)
(-0.130804 0.57788 0.582539)
(-0.148157 0.519738 0.466085)
(-0.109758 0.470422 0.405414)
(-0.110025 0.409206 0.312667)
(-0.124424 0.353536 0.246999)
(-0.122105 0.330552 0.240233)
(-0.121536 0.252124 0.22845)
(-0.14957 0.212103 0.240859)
(-0.107975 0.0242108 0.24415)
(-0.260752 0.0357938 0.324485)
(-0.188128 0.0684364 0.425942)
(-0.100946 0.128882 0.338019)
(-0.132169 0.33952 0.399843)
(-0.104561 0.385176 0.39758)
(-0.0967668 0.431891 0.400255)
(-0.0800155 0.57568 0.570443)
(-0.0788004 0.605741 0.618014)
(-0.0951427 0.625188 0.645899)
(-0.0378381 0.795453 0.774719)
(-0.0199828 0.829188 0.823744)
(0.0105721 0.79768 0.910615)
(0.0296846 0.732604 0.997538)
(0.0392676 0.634019 1.06017)
(0.0447245 0.534228 1.09535)
(0.0656937 0.446217 1.08285)
(0.11761 0.380386 0.949406)
(0.279314 0.24955 0.786811)
(0.287727 -0.243985 0.902165)
(0.166666 -0.565084 0.971557)
(0.0929318 -0.754632 0.953917)
(0.0521899 -0.859793 0.884466)
(0.019417 -0.907314 0.798463)
(-0.0106971 -0.894552 0.710774)
(-0.0442228 -0.821335 0.63568)
(0.0194139 -1.0086 0.617483)
(0.0636003 -1.09928 0.672858)
(0.104168 -1.12631 0.731117)
(0.153601 -1.09878 0.780799)
(0.218337 -0.99861 0.801361)
(0.29874 -0.802407 0.766635)
(0.39968 -0.505336 0.681765)
(0.475046 0.055644 0.426124)
(0.290235 0.462839 0.634725)
(0.218537 0.59067 0.921043)
(0.190224 0.714789 0.980855)
(0.168932 0.837308 0.980661)
(0.135211 0.949686 0.947368)
(0.0985674 1.01909 0.88729)
(0.0558336 1.04299 0.821093)
(-0.00252523 0.970658 0.770476)
(-0.000582124 0.883211 0.765109)
(-0.013741 0.797072 0.769173)
(-0.0202704 0.773239 0.720505)
(-0.0424217 0.745798 0.704982)
(-0.0516976 0.696712 0.672517)
(-0.070927 0.608461 0.670937)
(-0.090583 0.511726 0.554525)
(-0.114328 0.478182 0.550084)
(-0.113356 0.25419 0.443652)
(-0.222358 0.272734 0.533316)
(-0.267082 0.300772 0.659821)
(-0.266205 0.373762 0.58135)
(-0.120363 0.498064 0.6984)
(-0.0830845 0.65893 0.785253)
(-0.077499 0.765732 0.792889)
(-0.0231428 0.894137 0.775103)
(-0.0416192 0.772455 0.737414)
(-0.0717536 0.68602 0.749125)
(-0.095047 0.647767 0.716001)