/*--------------------------------*- C++ -*----------------------------------*\
| =========                 |                                                 |
| \\      /  F ield         | OpenFOAM: The Open Source CFD Toolbox           |
|  \\    /   O peration     | Version:  v2012                                 |
|   \\  /    A nd           | Website:  www.openfoam.com                      |
|    \\/     M anipulation  |                                                 |
\*---------------------------------------------------------------------------*/
FoamFile
{
    version     2.0;
    format      ascii;
    class       volScalarField;
    location    "705";
    object      alphat;
}
// * * * * * * * * * * * * * * * * * * * * * * * * * * * * * * * * * * * * * //

dimensions      [1 -1 -1 0 0 0 0];


internalField   nonuniform List<scalar> 
18258
(
0.00485767
0.00211291
0.00173238
0.00150156
0.000992977
0.0016256
0.00225737
0.00268708
0.00281892
0.00279427
0.00289257
0.00488016
0.0068478
0.00846191
0.00888811
0.00887345
0.00805303
0.00768957
0.00834872
0.0102707
0.00864294
0.00553593
0.0066334
0.00766556
0.00833959
0.00738641
0.00597002
0.00553038
0.00500838
0.00417487
0.00349927
0.00238134
0.00175753
0.00162961
0.00147626
0.0016825
0.00183226
0.00195347
0.00199751
0.00202897
0.00201508
0.00200343
0.00194914
0.00191598
0.0018596
0.00153926
0.00186694
0.00190014
0.00208117
0.00287823
0.00309382
0.00260345
0.00288263
0.00257183
0.00169518
0.00194082
0.00210696
0.00215246
0.00212477
0.00203653
0.00200676
0.00198154
0.0019496
0.00191169
0.00188858
0.00190747
0.00192721
0.00190624
0.00181252
0.00173657
0.00161366
0.00149044
0.00139907
0.00132828
0.00127491
0.00121578
0.00114934
0.00100956
0.000935644
0.00123886
0.0015552
0.0016616
0.00235496
0.00287107
0.00289036
0.00216315
0.00154141
0.00159959
0.00177841
0.00179653
0.00152275
0.00181096
0.0020517
0.00212666
0.00221633
0.00247695
0.00281884
0.00274769
0.00244687
0.00225388
0.002223
0.00254229
0.00241396
0.00313049
0.00315606
0.00275805
0.00252918
0.0028469
0.00367126
0.0039512
0.00307326
0.00288618
0.00282909
0.00279336
0.00252609
0.00261408
0.00237373
0.00213885
0.00233
0.00281667
0.00267165
0.0029183
0.00302382
0.00283687
0.00328723
0.00379101
0.00373609
0.00298985
0.00243676
0.00227145
0.00228887
0.00139985
0.00151171
0.00162944
0.00166934
0.00169723
0.00172095
0.00183509
0.00183096
0.00180411
0.00180013
0.00183207
0.00100953
0.00109368
0.00112086
0.00112871
0.00107208
0.00106108
0.00104131
0.00102523
0.000966474
0.000924708
0.00110652
0.00124254
0.00135342
0.00148299
0.00167647
0.00191319
0.00216197
0.00241337
0.00257973
0.00262721
0.00267512
0.00257829
0.00248075
0.00256929
0.00258419
0.00256747
0.00253297
0.00248943
0.00243064
0.00232286
0.00244792
0.00244129
0.00229351
0.00196503
0.00200919
0.00200568
0.00205792
0.00204729
0.00206794
0.00203864
0.00200437
0.00190802
0.00177374
0.00147731
0.00143989
0.00145862
0.00187355
0.0022749
0.0035144
0.0042875
0.00497821
0.00532734
0.00570296
0.00461378
0.00513452
0.00395769
0.00355342
0.00451653
0.00590965
0.00337148
0.00184065
0.00348987
0.00309518
0.00224433
0.00199716
0.0020574
0.00206021
0.00236587
0.0027276
0.00302719
0.00317287
0.00330162
0.00340458
0.00351777
0.00366137
0.00370024
0.00357461
0.00302504
0.00364646
0.00296026
0.00345488
0.00311972
0.00210465
0.00222748
0.0023645
0.00216453
0.00210545
0.0020169
0.00181479
0.00223135
0.00290168
0.00336897
0.0038517
0.00513345
0.00474927
0.00455706
0.00352875
0.00341221
0.0017719
0.00252838
0.00261598
0.00294207
0.00195581
0.00178377
0.00169186
0.00223982
0.00259543
0.00306449
0.00339999
0.00403925
0.00313007
0.00357133
0.00322943
0.0022492
0.00216576
0.00310291
0.00334381
0.00275176
0.00246011
0.00308573
0.00291956
0.00207072
0.00165946
0.00254903
0.0026403
0.00189365
0.00471888
0.00502341
0.00480298
0.00585359
0.00732973
0.00835049
0.00777874
0.0068957
0.00769957
0.00611511
0.00592671
0.00632395
0.00530368
0.00370254
0.00379702
0.00392697
0.00403277
0.00432953
0.00459947
0.00492951
0.00524438
0.00476757
0.00395892
0.00299609
0.00206162
0.00203405
0.00202402
0.0018174
0.00269322
0.00407366
0.00404507
0.00229774
0.00133952
0.00151543
0.00171132
0.00169456
0.0012293
0.000925405
0.00159423
0.00182284
0.00185225
0.00180622
0.00170533
0.00178195
0.00286159
0.00440835
0.00484372
0.00501658
0.00518009
0.00529549
0.00535954
0.00537963
0.00539067
0.00540432
0.00541635
0.00543486
0.00541799
0.00530261
0.00466409
0.00293251
0.00171429
0.0015926
0.00175769
0.00188906
0.0020038
0.00170504
0.00104242
0.0016651
0.00213204
0.00245041
0.00247124
0.00230628
0.00223719
0.00352756
0.0046902
0.00552836
0.00569795
0.00577325
0.00570952
0.00570083
0.00557584
0.00553631
0.004854
0.00347573
0.00380078
0.00408126
0.00412868
0.00422455
0.00436836
0.00426717
0.00403049
0.00589187
0.00679731
0.00688416
0.00703033
0.00694652
0.00682568
0.00651467
0.00615965
0.00518516
0.00388825
0.00245315
0.00250412
0.00266555
0.00263982
0.00229775
0.00242144
0.00262813
0.00265447
0.00274132
0.00307445
0.00349211
0.00333084
0.00286582
0.00243415
0.00226648
0.00221926
0.00212952
0.00159539
0.00161895
0.0015734
0.00159918
0.0021479
0.00255642
0.00294831
0.00418248
0.00373103
0.00303426
0.00481266
0.00493096
0.00529768
0.00585183
0.00599695
0.00664498
0.00462538
0.00416823
0.00428196
0.00349765
0.00323741
0.0032719
0.00328421
0.00306064
0.00335
0.00332062
0.00320073
0.00353387
0.00389445
0.00513571
0.00622379
0.00656755
0.00676657
0.00684822
0.00682254
0.00668898
0.00673017
0.0059104
0.00590272
0.00565366
0.005491
0.005433
0.00516247
0.00591093
0.00613695
0.00621234
0.00636742
0.00660904
0.0064309
0.00623068
0.00607846
0.00596814
0.00585261
0.00591527
0.00602554
0.00614309
0.00630823
0.00652905
0.00656609
0.00633729
0.00616442
0.00604614
0.00593505
0.00593984
0.00603894
0.00615449
0.00631833
0.00652754
0.00641148
0.00624896
0.00610415
0.00598535
0.00588075
0.00567514
0.00581239
0.00596335
0.00608779
0.00616851
0.00532926
0.00569643
0.00559824
0.00506826
0.00474343
0.00360218
0.00389838
0.004111
0.00447764
0.00497033
0.00506719
0.00425203
0.00364379
0.00355059
0.00352188
0.0036047
0.0036346
0.00365232
0.00412704
0.00622054
0.00626235
0.0062795
0.00628166
0.00537076
0.00521889
0.00486274
0.00889236
0.00827806
0.00717179
0.00590992
0.00316722
0.00271495
0.00321628
0.00391112
0.00437253
0.00482473
0.00320345
0.00198386
0.00231184
0.00239645
0.00233708
0.00215995
0.0017995
0.0016611
0.00150755
0.00162248
0.00287386
0.00458691
0.00516703
0.0052221
0.00517042
0.00506979
0.00494721
0.00477649
0.00472132
0.00596338
0.00808426
0.00909715
0.00905768
0.00778126
0.006348
0.00358295
0.00184989
0.0013678
0.00146177
0.00160639
0.00188467
0.00167809
0.00142325
0.00155892
0.00147258
0.00297964
0.00513566
0.00652595
0.00775391
0.00763786
0.00664814
0.00542092
0.00512856
0.00524809
0.00532942
0.0053983
0.00546893
0.0055173
0.00548635
0.00499335
0.00308438
0.00184107
0.00163559
0.00175843
0.00206096
0.00219029
0.00221318
0.00218283
0.00189258
0.00313074
0.00497045
0.00316142
0.0017247
0.00186323
0.00184932
0.00326232
0.00325759
0.00318782
0.00495951
0.00524443
0.005232
0.00491623
0.00469277
0.00277855
0.00315436
0.00316518
0.00318187
0.00323395
0.00163389
0.00178111
0.00183674
0.00197768
0.00172771
0.00219408
0.000567839
0.000787315
0.000914669
0.000994871
0.00107198
0.00105161
0.00201239
0.00204233
0.00194861
0.00189703
0.00240745
0.00258336
0.00264019
0.00243146
0.00224346
0.00238813
0.00239355
0.0022559
0.00213676
0.00221524
0.0022167
0.00212437
0.0018069
0.00169318
0.00185872
0.00183877
0.00182419
0.00327525
0.00326944
0.00309445
0.0050832
0.00500181
0.0056018
0.00556531
0.00555832
0.00553527
0.00559475
0.00562615
0.00564993
0.00567759
0.00566687
0.00561219
0.00779981
0.00552178
0.00481848
0.00278699
0.00268472
0.00189614
0.00166185
0.00195684
0.00209293
0.00226904
0.00221776
0.00233786
0.00233496
0.00247771
0.00229967
0.0020419
0.0031272
0.0033407
0.00326274
0.00332719
0.00324888
0.00322968
0.00320606
0.00316068
0.00310591
0.0018495
0.0018143
0.00212456
0.00223021
0.0023964
0.00241802
0.00247052
0.00234292
0.00206044
0.00199444
0.00229707
0.00226605
0.00231024
0.00217812
0.00216899
0.00193216
0.00198112
0.00399376
0.00736778
0.003795
0.00421525
0.00381961
0.0043439
0.00380526
0.0032821
0.00335915
0.00295881
0.0030864
0.00323739
0.00329593
0.00346405
0.0040833
0.00393108
0.0034506
0.00335045
0.00328453
0.00309711
0.0027878
0.00292009
0.00294617
0.00300937
0.00334467
0.00383657
0.00430007
0.00522501
0.00507024
0.00444195
0.00406122
0.00425855
0.00433315
0.00545422
0.00509498
0.00506507
0.00534374
0.0052912
0.00502137
0.00475775
0.00459237
0.00394328
0.00400804
0.00458616
0.00443798
0.00457364
0.0044934
0.0046719
0.00475639
0.00456473
0.0042424
0.00446162
0.00445308
0.00494448
0.00480816
0.00446073
0.00407931
0.00436251
0.00431067
0.00497836
0.00468539
0.00438209
0.0040349
0.00386583
0.00438699
0.0043062
0.00488194
0.00502432
0.00502663
0.00438294
0.00428035
0.0050894
0.00489576
0.00473049
0.00492734
0.00408137
0.00419661
0.00516918
0.00527709
0.00500738
0.00418168
0.00424442
0.00363874
0.00427923
0.00532591
0.00503023
0.0041232
0.00342236
0.004787
0.00503594
0.00532643
0.00503433
0.00548191
0.00590492
0.00481438
0.00523731
0.00684173
0.00522637
0.00606444
0.00619836
0.00623436
0.00623698
0.00626035
0.00629065
0.00662579
0.00644137
0.00410027
0.00490138
0.00476378
0.0039878
0.00339463
0.00373815
0.00402594
0.00408422
0.00418794
0.00434724
0.00427183
0.00412712
0.00604397
0.00689574
0.00704528
0.00718372
0.00706454
0.00688811
0.00648515
0.00599705
0.00499128
0.00372483
0.00232816
0.00237421
0.00253097
0.00250807
0.0021767
0.00164143
0.00107894
0.00159931
0.00165361
0.00155837
0.00142231
0.00125938
0.00130924
0.00237311
0.00425258
0.00619928
0.00691809
0.00749733
0.00809262
0.0086212
0.00901718
0.00931128
0.00951739
0.00964882
0.00967914
0.00950269
0.00865781
0.00827029
0.00778794
0.00738977
0.00683952
0.00641471
0.00725623
0.00797212
0.0084119
0.00890544
0.00913249
0.00903424
0.00784096
0.00760479
0.00876273
0.0108005
0.00918462
0.0115442
0.0135646
0.0105581
0.00948391
0.00947278
0.0105985
0.0108058
0.0104267
0.00983221
0.00914796
0.0082785
0.00872145
0.00912352
0.00951107
0.00986852
0.0107926
0.0109453
0.0108559
0.0106715
0.0104338
0.0101178
0.00964081
0.00897338
0.00815891
0.00733055
0.00637166
0.00433384
0.0022235
0.00250507
0.00247236
0.00247681
0.00249554
0.0011988
0.00132324
0.00133856
0.00134523
0.00126634
0.00144185
0.00208453
0.00335722
0.00241393
0.00199317
0.00137759
0.00161133
0.00268566
0.00454032
0.00512347
0.00523219
0.00544395
0.00727759
0.00798022
0.00843729
0.00880969
0.00904072
0.00893724
0.0086636
0.0081728
0.00754654
0.00729477
0.00687781
0.00650874
0.00630126
0.00609514
0.00571071
0.00446229
0.00432645
0.00450587
0.00444721
0.00425623
0.00454925
0.0047138
0.00470972
0.00476183
0.00480723
0.00494873
0.00511524
0.00526002
0.00533566
0.00536332
0.00537162
0.00538207
0.0053903
0.00540637
0.00538773
0.00526954
0.004627
0.00289373
0.00168937
0.00156177
0.00171233
0.00181074
0.00185281
0.00164545
0.00105934
0.00164618
0.00213077
0.00218546
0.00239797
0.00247379
0.0026218
0.00291912
0.00337274
0.00348004
0.00308817
0.0029251
0.00286336
0.00279083
0.00239213
0.00298133
0.00328261
0.00327554
0.00324377
0.00350574
0.004314
0.00414419
0.0036548
0.00361493
0.00357914
0.00324238
0.00319378
0.00348308
0.00352093
0.00365132
0.00428081
0.00513317
0.00476252
0.00433837
0.00416077
0.00384331
0.00338791
0.00306342
0.00375547
0.00307593
0.00163849
0.00140003
0.00138515
0.00139309
0.00134772
0.00159696
0.0016792
0.00169995
0.00157705
0.00174923
0.0019459
0.00188083
0.00213178
0.00210453
0.00188572
0.00186981
0.00201569
0.00212137
0.00217657
0.0022429
0.00366699
0.00379027
0.00293114
0.00423166
0.00487585
0.00482415
0.00511595
0.00421617
0.00378141
0.00448661
0.00517862
0.0059298
0.00469377
0.00444127
0.00454084
0.00209233
0.00110106
0.00155304
0.00192815
0.00214986
0.00208588
0.00197036
0.00166588
0.00295019
0.00303104
0.00479841
0.00538253
0.00545118
0.00541686
0.00556933
0.00613361
0.00712435
0.00790196
0.00813081
0.00801443
0.0076737
0.00703956
0.00640187
0.00634767
0.00611475
0.00594249
0.00588418
0.00509975
0.00453209
0.00485069
0.00476597
0.00492645
0.0050009
0.00505465
0.00510928
0.00520079
0.0053112
0.0054113
0.00547906
0.00552375
0.00556127
0.00559983
0.00563875
0.00568102
0.00570339
0.0056485
0.00510438
0.00306278
0.00182655
0.00166642
0.00177807
0.00208969
0.00220022
0.00236475
0.00209996
0.00110616
0.0013002
0.00226
0.00250546
0.002318
0.00216948
0.00213073
0.001785
0.00323219
0.0031897
0.00500438
0.00562842
0.00570746
0.00569211
0.00564858
0.00559959
0.00555364
0.00551608
0.00548633
0.00545444
0.00540829
0.00535154
0.00529872
0.00524544
0.00515331
0.00502214
0.0048797
0.00506935
0.00523947
0.00545076
0.00568922
0.00581855
0.00571874
0.00555874
0.00547939
0.0055061
0.00555159
0.00559964
0.00564305
0.0056638
0.00560116
0.00527923
0.00495451
0.00313962
0.00318033
0.0015663
0.00173998
0.00200762
0.00207348
0.00225197
0.00224161
0.00176283
0.0013739
0.00154986
0.00144803
0.00258583
0.00284345
0.0031527
0.00312144
0.00169631
0.00173984
0.00180825
0.00204011
0.00189737
0.00183303
0.00450819
0.00432466
0.00452882
0.00555437
0.00478624
0.00330678
0.00362266
0.00504069
0.00531502
0.00321409
0.00241181
0.00267337
0.0033864
0.00498559
0.00504673
0.00479349
0.00476762
0.00348175
0.00428085
0.0051501
0.00500873
0.00390683
0.00269169
0.00200476
0.000976621
0.00185771
0.00158843
0.00388879
0.00430302
0.0042516
0.0046486
0.00494004
0.00499069
0.00484825
0.00430197
0.00438732
0.00443041
0.00504656
0.00506775
0.00429299
0.00362283
0.00294468
0.0029705
0.00302741
0.00335403
0.00419924
0.00395677
0.00346852
0.00336394
0.00329197
0.003097
0.00279517
0.00245217
0.00246897
0.00229796
0.00222385
0.00350523
0.00466544
0.00550133
0.00565968
0.00571735
0.00563023
0.00559121
0.00543224
0.00535047
0.00464897
0.00593758
0.00627491
0.00605372
0.00609714
0.00613394
0.0061795
0.00617927
0.00606238
0.00521053
0.00311218
0.00203307
0.00229482
0.002477
0.00232615
0.00231286
0.00246489
0.0023388
0.00205433
0.00332822
0.00325296
0.00520058
0.00588857
0.00601556
0.00602414
0.00600095
0.00598195
0.00599041
0.00630584
0.00616049
0.00623512
0.00656018
0.00657439
0.00665519
0.00624903
0.0061701
0.00611989
0.00608642
0.00603155
0.00588395
0.00520738
0.00504828
0.00573237
0.00590853
0.00598655
0.00604071
0.00610565
0.00619124
0.00643749
0.00661991
0.00668629
0.00641996
0.00632638
0.00618079
0.00597165
0.00592195
0.00591115
0.00590583
0.00587632
0.00572308
0.00503822
0.00323977
0.00331965
0.00197496
0.0019879
0.00228967
0.00240503
0.00236225
0.0021876
0.00213294
0.00366498
0.00417141
0.00443872
0.00477944
0.00456461
0.00453843
0.00518775
0.00502062
0.00447705
0.00465789
0.00417747
0.00398183
0.0038474
0.00386799
0.00203914
0.0022003
0.00229495
0.00225674
0.002158
0.00192472
0.00176504
0.00322088
0.00319734
0.00315542
0.00187684
0.00183575
0.00216276
0.00210043
0.00192154
0.00163796
0.00179555
0.00277168
0.00309983
0.00480621
0.00497811
0.00532917
0.00569947
0.00584035
0.00587898
0.00590214
0.00592869
0.00598443
0.00605047
0.00606829
0.00606483
0.00611569
0.0061071
0.00610693
0.00607243
0.00603374
0.0059894
0.0059426
0.00586648
0.00571027
0.00533619
0.00496925
0.00560271
0.00565436
0.00575993
0.00586954
0.0059171
0.00592617
0.00590724
0.00586751
0.00582055
0.0057646
0.00576345
0.00592163
0.00595776
0.0059853
0.00596691
0.00594698
0.00594061
0.00591534
0.00587338
0.00576434
0.00565488
0.00560783
0.005514
0.00566202
0.00572777
0.0057382
0.0057942
0.00588362
0.00590762
0.00590478
0.00586023
0.00582337
0.0057777
0.0057038
0.00560973
0.00528539
0.00535165
0.00543928
0.00555318
0.0056634
0.00575239
0.00580173
0.00580341
0.00574869
0.00571212
0.00571309
0.00566477
0.00569024
0.00571657
0.00568854
0.0056868
0.00569357
0.00563236
0.00551774
0.00535717
0.00518654
0.00504363
0.00496734
0.00484544
0.00523158
0.00537493
0.005504
0.00561931
0.00572469
0.00583171
0.00586714
0.00585796
0.00579221
0.00575456
0.00575226
0.00569627
0.00569441
0.00574866
0.00575161
0.00578319
0.00584062
0.00582154
0.00574071
0.00554039
0.00534645
0.00517914
0.00502045
0.00485086
0.00478683
0.00486515
0.00480779
0.00488265
0.005055
0.00526779
0.0054502
0.00556396
0.00559813
0.00563064
0.00568025
0.00567368
0.00564368
0.00562843
0.00556127
0.00550345
0.00543202
0.00527235
0.00506586
0.00488104
0.00481693
0.004911
0.00500918
0.00491834
0.00458164
0.00476233
0.00492997
0.00509829
0.00533885
0.00561785
0.00574351
0.00578825
0.00576118
0.00573958
0.00573617
0.00568475
0.00566781
0.00571512
0.00571911
0.00574082
0.00577674
0.00573621
0.00563107
0.0052879
0.00488435
0.00469307
0.00458202
0.0044247
0.00494269
0.00504584
0.00492078
0.00483708
0.00496918
0.00512526
0.00528717
0.00539417
0.00543546
0.00549271
0.00556828
0.00560371
0.00554915
0.0054868
0.00540918
0.00536894
0.00536652
0.00533636
0.00523048
0.00510901
0.00497343
0.00514197
0.00524042
0.00514606
0.00466549
0.00474286
0.00484909
0.00490761
0.00528546
0.0056236
0.00570935
0.00571869
0.00568553
0.00566403
0.00566515
0.00563534
0.0055808
0.00557061
0.00556433
0.00562721
0.00570937
0.00574744
0.00576385
0.00550928
0.0050591
0.00499502
0.00479875
0.00470149
0.00521496
0.00527593
0.00515618
0.00504328
0.00528228
0.0053855
0.00541669
0.00539804
0.00534382
0.00530716
0.00537419
0.00547957
0.0053986
0.00505012
0.00473931
0.00489881
0.00493641
0.00492197
0.00485371
0.00474229
0.00450352
0.00502766
0.00553849
0.00558117
0.00503926
0.00504724
0.00487517
0.00452662
0.00496273
0.00520122
0.00525785
0.00524506
0.00516981
0.0049767
0.00525901
0.00550644
0.00546
0.00494163
0.00320737
0.00325225
0.00327692
0.00328103
0.00323792
0.00322618
0.00317919
0.00315514
0.00308195
0.00300787
0.00293652
0.00313259
0.00330078
0.00352633
0.0035448
0.00363796
0.00348254
0.00329729
0.00307924
0.00239517
0.00303959
0.00362671
0.00385401
0.00414578
0.00420686
0.00485502
0.00510938
0.00524942
0.00515161
0.0041318
0.00350517
0.00280091
0.0018214
0.00113485
0.00133235
0.001386
0.00146009
0.0017903
0.00329093
0.00167956
0.00232895
0.00182016
0.00313525
0.00166342
0.00103629
0.000687679
0.000879215
0.00104486
0.00105525
0.0010098
0.00084127
0.000659782
0.000674349
0.000627716
0.000666735
0.000598796
0.000685733
0.000639787
0.000890297
0.00133088
0.00152117
0.00155559
0.00125764
0.00141897
0.00118549
0.00136765
0.00122141
0.0013314
0.00127719
0.00156213
0.00171198
0.00163888
0.00164323
0.00143802
0.00100586
0.00116591
0.000916156
0.00110009
0.000842076
0.00108766
0.000932817
0.0012122
0.00124972
0.00124622
0.00119999
0.000916824
0.00108708
0.000856069
0.00105443
0.000866074
0.000925742
0.000770896
0.00112029
0.00114115
0.00105036
0.00112139
0.00126163
0.00135455
0.00149018
0.00140495
0.00159756
0.00153833
0.00155362
0.0014715
0.00143084
0.00139817
0.001401
0.00137782
0.00138513
0.00142947
0.00143128
0.00143658
0.0014814
0.00145948
0.00142387
0.00140237
0.00124606
0.00100571
0.00175232
0.00180705
0.00183433
0.00183412
0.00179339
0.00177286
0.00171127
0.00169491
0.00164176
0.00161084
0.00153944
0.0014811
0.00141427
0.00158915
0.000889326
0.00100964
0.00106569
0.0010973
0.00111909
0.00112909
0.00113699
0.00113042
0.00111619
0.00108876
0.00107965
0.00104973
0.00134278
0.00152719
0.00159684
0.00161582
0.00151481
0.00144291
0.00315754
0.00382137
0.00580896
0.00593537
0.00445647
0.004442
0.0015373
0.00162358
0.00111025
0.00156032
0.00160917
0.00159305
0.00150509
0.00108575
0.00162958
0.00113583
0.00152962
0.00115029
0.0014205
0.00118194
0.00168814
0.00215352
0.00207968
0.00188407
0.00129705
0.00108159
0.00108813
0.000928921
0.00101754
0.000829233
0.00101118
0.000849073
0.00125158
0.00176897
0.00196478
0.00200417
0.00158028
0.0021808
0.00163949
0.00237453
0.00188579
0.00232668
0.00186702
0.00216036
0.00267319
0.0026854
0.00262186
0.00211339
0.00169347
0.00190072
0.00168398
0.0019395
0.00280387
0.00183789
0.00279047
0.00115316
0.00157221
0.00162092
0.00159908
0.0015081
0.00101634
0.0025867
0.00136853
0.00243349
0.00157574
0.00252465
0.00183777
0.00244286
0.00292156
0.00305819
0.00304926
0.00248782
0.00224808
0.00233267
0.00186431
0.00223833
0.00166116
0.00240687
0.00135769
0.00176065
0.00194448
0.00204769
0.0020552
0.00168821
0.00333522
0.00209437
0.00316158
0.00219886
0.00281768
0.00225817
0.00246977
0.0029168
0.00289846
0.00287398
0.00243703
0.00197268
0.00260408
0.00185735
0.0554445
0.128026
0.0509732
0.129361
0.0585322
0.0830857
0.0818577
0.082022
0.0823313
0.0618144
0.134947
0.159438
0.166265
0.168284
0.167034
0.269937
0.220122
0.330743
0.214433
0.126218
0.0547424
0.0754673
0.194736
0.321533
0.482416
0.61209
0.417075
0.43171
0.275477
0.271614
0.255715
0.20687
0.126842
0.0636074
0.010922
0.0119646
0.0171028
0.0227621
0.0179254
0.0109725
0.00216581
0.00223485
0.00228515
0.00231674
0.00230937
0.00226169
0.00229995
0.00217559
0.00204871
0.00229096
0.00249635
0.00267523
0.00314954
0.00348127
0.00313667
0.00343949
0.00364627
0.00381433
0.00395271
0.00415883
0.00439118
0.00459615
0.00460743
0.00422176
0.00359774
0.00292745
0.00246212
0.00233311
0.00219119
0.00193234
0.00176794
0.00165634
0.00160176
0.0015789
0.00162222
0.00177244
0.00190233
0.00194775
0.00190891
0.00187383
0.00184321
0.00164119
0.00191865
0.00263182
0.00265339
0.00454566
0.00523771
0.00534624
0.00535329
0.00474718
0.00303301
0.00303948
0.00305505
0.00311303
0.00312511
0.00313252
0.00312906
0.0031173
0.00309899
0.00306467
0.00304778
0.00299857
0.00295733
0.00285492
0.00285954
0.00289664
0.00292578
0.00287849
0.00289081
0.00282951
0.00365153
0.00489411
0.0055439
0.00579564
0.00601258
0.0058365
0.00807775
0.00689549
0.00484931
0.00478665
0.0047261
0.00560398
0.00564303
0.00510023
0.00512032
0.00465891
0.00290585
0.00289285
0.00289459
0.00309413
0.00315415
0.0032636
0.00329343
0.00332189
0.00333804
0.00333522
0.00333397
0.00330722
0.00328583
0.00321309
0.00318873
0.00317859
0.00175238
0.00191233
0.00198306
0.00199552
0.00202278
0.0020099
0.00199668
0.00197235
0.00195563
0.00192271
0.00188385
0.00182831
0.00171934
0.00156696
0.0017251
0.00293046
0.00293066
0.00478445
0.005408
0.00544736
0.00605747
0.00575153
0.00544764
0.00584749
0.005277
0.00523618
0.00472829
0.00293366
0.00297337
0.00176306
0.00174665
0.00204103
0.00198378
0.00211988
0.00217749
0.00218487
0.00221527
0.00224501
0.00228125
0.00233953
0.0023576
0.00232296
0.0023171
0.00218338
0.00188685
0.00190967
0.00225131
0.00236066
0.00219054
0.00215024
0.00213272
0.00208015
0.00204013
0.00200148
0.00202741
0.00218255
0.00218056
0.00214272
0.00203939
0.00198705
0.00172404
0.001666
0.00291262
0.00294669
0.0048643
0.00500049
0.00496399
0.00571015
0.00636493
0.00724604
0.00618111
0.00502583
0.00523392
0.00598078
0.00444413
0.00369373
0.00220008
0.00165836
0.00204503
0.00192265
0.00200317
0.00207557
0.00184326
0.00197913
0.00182982
0.00166264
0.00165353
0.00165147
0.00169276
0.00170997
0.00174125
0.00174545
0.00178792
0.001784
0.0017899
0.00181191
0.00182309
0.00201447
0.0021913
0.00184348
0.00156247
0.00152079
0.00143587
0.00136647
0.0013996
0.00136586
0.00135751
0.00133245
0.00130983
0.00124967
0.00130233
0.00138178
0.00161643
0.00154801
0.00125128
0.00111808
0.000764415
0.000779193
0.000784592
0.000808887
0.000817714
0.000828605
0.000832625
0.000846271
0.000848904
0.000853208
0.000852871
0.000873673
0.0008707
0.000860794
0.00085431
0.000858633
0.000862782
0.000862267
0.00126258
0.0014062
0.00153767
0.00182696
0.00215141
0.0018515
0.00156853
0.00135076
0.000868192
0.000881349
0.000897617
0.000905933
0.000925447
0.0009431
0.000962969
0.000975505
0.000985059
0.000994986
0.00100545
0.00100977
0.00100745
0.000988175
0.000976809
0.00100173
0.00110095
0.00115855
0.00123238
0.00126024
0.00128423
0.00129622
0.00128988
0.00130322
0.00128777
0.00128553
0.00126341
0.00125388
0.00124479
0.00123333
0.00121925
0.00118449
0.00117296
0.0012341
0.00209018
0.00273488
0.00315286
0.00347498
0.00320952
0.00260011
0.0027372
0.00480891
0.0045498
0.00268826
0.0025083
0.00231379
0.00202164
0.00176596
0.00213171
0.00243371
0.00266304
0.00286484
0.00304927
0.0031743
0.0033344
0.00354318
0.00391287
0.00395957
0.00361187
0.00292781
0.00248003
0.00231776
0.00223981
0.00210302
0.00195355
0.00200234
0.00201664
0.00195646
0.00188167
0.00186014
0.00189064
0.00192897
0.00190566
0.00190485
0.00170162
0.00170108
0.00290641
0.0029627
0.00455689
0.0048008
0.0048466
0.00311679
0.00307374
0.00179548
0.00166729
0.00181885
0.00188797
0.00189177
0.00189924
0.00188919
0.00185598
0.0018316
0.00180332
0.00178044
0.00176044
0.00172588
0.00166022
0.00153336
0.00167134
0.00187447
0.00195685
0.00197793
0.00198789
0.00201919
0.00207061
0.002112
0.0022077
0.00221803
0.00221727
0.00222522
0.0020802
0.00214556
0.00181592
0.00181354
0.00314303
0.00313495
0.00180103
0.00212676
0.00214085
0.00211585
0.00227756
0.00208426
0.00201807
0.00200672
0.00192166
0.00187637
0.00181621
0.00178037
0.00181562
0.00193192
0.00187138
0.00165811
0.0015999
0.00179399
0.00172469
0.00143082
0.00122234
0.00118851
0.00113759
0.00110672
0.0011599
0.00120132
0.00122495
0.00125501
0.00126395
0.00131924
0.00128377
0.00134752
0.001429
0.00149381
0.00177209
0.00192022
0.00173475
0.00170144
0.00168031
0.00167804
0.0016832
0.00161381
0.00160921
0.00157335
0.00155571
0.00150896
0.00148786
0.00146105
0.00146598
0.00148164
0.00162897
0.00419823
0.00534989
0.00557162
0.00950446
0.00384429
0.00392684
0.00768569
0.00318625
0.00478665
0.00512954
0.00536399
0.00560091
0.00512512
0.00649739
0.00454454
0.00505812
0.00528119
0.00464525
0.00172552
0.0019368
0.00224872
0.00202243
0.00178715
0.00121885
0.00131546
0.00135907
0.00139436
0.00141739
0.00144274
0.00146995
0.00149546
0.00151339
0.00151376
0.00146792
0.00141845
0.00130471
0.00126682
0.00131591
0.00136667
0.00120063
0.00113054
0.001144
0.00116298
0.00117368
0.00117607
0.00118778
0.00119101
0.00120944
0.00119977
0.00120916
0.00118862
0.00119938
0.00118349
0.00114295
0.00108627
0.000989687
0.000965943
0.0013912
0.00148134
0.00155625
0.00176561
0.0020384
0.00217491
0.00194922
0.00179728
0.00172519
0.00191389
0.00191371
0.00347137
0.00665918
0.00298677
0.00334815
0.00973509
0.00387613
0.00301852
0.00306445
0.00309675
0.0031009
0.00180214
0.00213468
0.00207
0.00207781
0.0017621
0.00147925
0.0013268
0.00118635
0.000804326
0.000801606
0.000807661
0.000819914
0.000823705
0.000788486
0.000788393
0.000783889
0.000782117
0.000765544
0.000760919
0.00074747
0.00073931
0.000719947
0.000709432
0.000690914
0.00068745
0.000714032
0.000791474
0.000955988
0.00106772
0.00121142
0.00123458
0.0013972
0.0034746
0.00402727
0.00554598
0.0054965
0.00867067
0.00541663
0.00409241
0.00370229
0.00541549
0.00559375
0.00520029
0.00704575
0.00487645
0.0032237
0.00478097
0.00396279
0.00477593
0.0046598
0.00493465
0.00783883
0.00827462
0.00233427
0.0020814
0.00219032
0.00248464
0.00294969
0.00271373
0.00309268
0.00308549
0.00237702
0.00152274
0.004851
0.00584853
0.00467248
0.00559303
0.00868743
0.00349515
0.00340927
0.00301682
0.00251801
0.00228871
0.00225771
0.0025172
0.00301217
0.00755554
0.00807861
0.00739697
0.00735357
0.00667866
0.00738251
0.00922578
0.00919975
0.00812224
0.00760008
0.00785311
0.00482403
0.00303632
0.00353786
0.0039164
0.00522459
0.00538729
0.011382
0.00385838
0.00426472
0.00433057
0.00579556
0.00560688
0.00992469
0.00419763
0.00452963
0.00596784
0.00796957
0.014712
0.00535901
0.00565211
0.00813194
0.00825298
0.0075436
0.00544894
0.00493972
0.00538548
0.00405655
0.00396511
0.00338713
0.0050023
0.00673722
0.00531967
0.00516589
0.00439876
0.00390388
0.00400961
0.004158
0.00345282
0.00340612
0.00393498
0.00291059
0.00281268
0.00299072
0.000828627
0.00042482
0.000434386
0.000445657
0.000454807
0.000464204
0.000471113
0.000479261
0.000482995
0.00048336
0.00048457
0.000512448
0.000507808
0.000491761
0.000446541
0.000509609
0.000808715
0.000809317
0.000509092
0.000448834
0.000805239
0.00128317
0.00151277
0.00178992
0.00181227
0.0015635
0.0013555
0.000834212
0.000821147
0.000497773
0.000581327
0.000631314
0.000559904
0.000624806
0.000579064
0.000613411
0.000619554
0.000573209
0.000570067
0.000572298
0.000567892
0.000557835
0.000545491
0.000530431
0.000518469
0.00051169
0.000506125
0.000494388
0.000412021
0.000383539
0.000459725
0.000731308
0.000730141
0.000685039
0.000647066
0.000614857
0.0006005
0.000596717
0.00059364
0.00060402
0.000623592
0.000629092
0.000634555
0.000683723
0.000662739
0.000707908
0.000664281
0.000709753
0.00066626
0.000612885
0.000514619
0.000530958
0.000856472
0.000865573
0.00139871
0.00160039
0.00181501
0.0018245
0.00203658
0.00214452
0.00181573
0.00188509
0.00216071
0.00201274
0.00179439
0.00180128
0.00162045
0.00162172
0.00143621
0.000897432
0.000885214
0.000555998
0.00053995
0.000643849
0.000632542
0.000703521
0.000752854
0.000753124
0.000750674
0.000731335
0.000724505
0.000637206
0.000624769
0.000625578
0.000606568
0.000602333
0.000627389
0.00068327
0.000800526
0.000967697
0.00105412
0.00109197
0.00104855
0.00093947
0.000691477
0.000626221
0.0010839
0.00112704
0.00200442
0.00474565
0.00218923
0.00424624
0.00306568
0.000764722
0.000853958
0.00108907
0.00122042
0.00131732
0.00137182
0.00125246
0.00104418
0.000786365
0.000649611
0.000972646
0.000841136
0.000951047
0.000830756
0.00107511
0.00124319
0.00120278
0.00121196
0.00102437
0.000834624
0.000883857
0.000793735
0.000874915
0.000732431
0.000881237
0.000795736
0.001
0.0010094
0.00098842
0.000936919
0.000713409
0.000748516
0.000627838
0.000681042
0.000611385
0.000631899
0.000598787
0.000698304
0.000804653
0.000772226
0.000769184
0.000631974
0.000495165
0.000546841
0.000472696
0.00053497
0.00041573
0.000503651
0.000422438
0.0005468
0.000563552
0.000566236
0.000562004
0.000456651
0.000536825
0.000658981
0.000692508
0.000698454
0.000665615
0.000512971
0.000793926
0.000717052
0.000875579
0.000757655
0.000829069
0.000755098
0.000880123
0.00112709
0.00117663
0.00118444
0.000960884
0.000954751
0.00174156
0.0964768
0.00156656
0.00185151
0.00190916
0.00190221
0.00157282
0.00153481
0.00190055
0.0014064
0.00199111
0.00125367
0.00212288
0.000809356
0.00123022
0.00132076
0.00131789
0.0012247
0.000820499
0.00242559
0.119529
0.308314
0.334312
0.333724
0.320735
0.143852
0.501131
0.136293
0.48576