/*--------------------------------*- C++ -*----------------------------------*\
| =========                 |                                                 |
| \\      /  F ield         | OpenFOAM: The Open Source CFD Toolbox           |
|  \\    /   O peration     | Version:  v2012                                 |
|   \\  /    A nd           | Website:  www.openfoam.com                      |
|    \\/     M anipulation  |                                                 |
\*---------------------------------------------------------------------------*/
FoamFile
{
    version     2.0;
    format      ascii;
    class       volScalarField;
    location    "705";
    object      k;
}
// * * * * * * * * * * * * * * * * * * * * * * * * * * * * * * * * * * * * * //

dimensions      [0 2 -2 0 0 0 0];


internalField   nonuniform List<scalar> 
18258
(
0.0336643
0.01586
0.0124168
0.0102627
0.0110273
0.0140648
0.0168676
0.0212445
0.0256708
0.0316019
0.0386579
0.0475767
0.0535643
0.0606961
0.063652
0.0619279
0.0520342
0.0472798
0.0564849
0.0810022
0.0711172
0.0514368
0.0623538
0.0615581
0.072429
0.0766005
0.0602727
0.0550423
0.049633
0.0439453
0.037369
0.0231424
0.0241686
0.0289162
0.032147
0.0358735
0.0387505
0.0411084
0.0427611
0.0435756
0.0434779
0.0421667
0.0394583
0.0353947
0.0299186
0.0239246
0.0235307
0.0237043
0.0294378
0.0350115
0.0404464
0.046047
0.0544903
0.0446081
0.0290113
0.0391722
0.0476511
0.0545443
0.0589712
0.0614199
0.0621822
0.0612682
0.058978
0.0557183
0.0517572
0.0474184
0.0434003
0.0394143
0.0341719
0.0309088
0.0267953
0.023449
0.0210067
0.0192924
0.0181724
0.0171707
0.0163063
0.0155741
0.0149584
0.0145365
0.0144443
0.0144686
0.014567
0.0146619
0.0150025
0.0126555
0.010887
0.0104195
0.0101689
0.00952556
0.0080791
0.0106359
0.0117459
0.0121635
0.0124348
0.0136065
0.0147385
0.0143084
0.0135819
0.0124584
0.0127514
0.0171749
0.0178869
0.0229401
0.0218185
0.0170785
0.0147913
0.0165822
0.0193933
0.0224538
0.0192464
0.0192141
0.0179138
0.0170189
0.014867
0.0148943
0.0143738
0.0140672
0.0149807
0.0177478
0.0171617
0.0172796
0.0184921
0.0188123
0.0200362
0.0210547
0.020394
0.0202133
0.0163487
0.016249
0.0172897
0.0171634
0.0176433
0.0201509
0.0202075
0.020548
0.0207625
0.023551
0.0235699
0.0235378
0.0236289
0.0244785
0.0235098
0.0230946
0.0231212
0.0231562
0.0209872
0.0207673
0.0204069
0.0204462
0.0182672
0.0175294
0.0182629
0.0192433
0.021216
0.0249568
0.0313886
0.0403058
0.0503952
0.0606301
0.0683979
0.072753
0.0771165
0.0765817
0.0772893
0.0793905
0.0797621
0.0786225
0.076775
0.0746151
0.0716688
0.0670445
0.0665941
0.0589672
0.0480902
0.0333742
0.0388822
0.0417182
0.0444707
0.0447684
0.045245
0.0440311
0.0422762
0.0387031
0.0336152
0.0247613
0.0257854
0.0302508
0.034925
0.0387207
0.0428917
0.0465215
0.0483613
0.0500595
0.0594294
0.0571924
0.0552847
0.0570137
0.0585803
0.0617845
0.0602193
0.0562731
0.0503353
0.0519542
0.0450688
0.0336974
0.0314719
0.0293431
0.0270151
0.0378078
0.0495792
0.0611213
0.0674738
0.0736513
0.078514
0.0825603
0.0871071
0.0816387
0.0764839
0.0577279
0.0838456
0.0657461
0.0504449
0.0411447
0.0332526
0.0312996
0.0341816
0.034292
0.0325102
0.0279626
0.0220237
0.0229805
0.0359927
0.0458386
0.0538864
0.055447
0.0601572
0.0626345
0.0573262
0.0579049
0.0470322
0.0482542
0.051593
0.0462408
0.0439318
0.0353086
0.0275647
0.0335509
0.0499162
0.0685569
0.0845331
0.0996207
0.0660576
0.050137
0.0410344
0.0342178
0.0330404
0.0376538
0.0436072
0.052821
0.0411432
0.0370892
0.03358
0.0307144
0.0257322
0.0274655
0.0286822
0.0269128
0.0499276
0.0574766
0.0612585
0.0837177
0.0923856
0.108358
0.107093
0.0925844
0.0962356
0.0689341
0.0687008
0.0861349
0.0681355
0.0511816
0.0614561
0.0743573
0.0881291
0.101251
0.112535
0.121618
0.12337
0.111928
0.081161
0.0467376
0.0212893
0.0186547
0.018107
0.0173961
0.0165056
0.0156966
0.0150653
0.0121115
0.00949132
0.00927711
0.00946013
0.0094063
0.00825867
0.00951338
0.0115767
0.0137657
0.0152711
0.0164774
0.0174949
0.0182261
0.0188125
0.0192093
0.019504
0.0197691
0.0200014
0.0201841
0.0203184
0.0204054
0.0204444
0.0204278
0.0203495
0.0202082
0.0200022
0.0197151
0.0192441
0.017723
0.0158793
0.015056
0.0151151
0.0148667
0.0145669
0.0119375
0.0123066
0.0143245
0.0149546
0.0177374
0.0197672
0.0214647
0.0229125
0.0244325
0.0252057
0.0260304
0.0262925
0.0263414
0.0262372
0.0260827
0.0258538
0.0255462
0.0244792
0.0212613
0.0248685
0.0272679
0.0289658
0.0303263
0.0312394
0.0313459
0.0285879
0.0360685
0.0385159
0.03942
0.0396827
0.0388582
0.0368445
0.0343952
0.0323399
0.0308314
0.0297134
0.0275711
0.0253242
0.0230157
0.0206015
0.0173824
0.018655
0.0204913
0.020701
0.0204091
0.021456
0.0227127
0.0210544
0.0189583
0.0160839
0.0150883
0.014605
0.0144195
0.014836
0.0144866
0.0143778
0.0148713
0.0178664
0.0189571
0.0206561
0.0239161
0.0227847
0.0208439
0.0280168
0.0296238
0.0300728
0.0304243
0.0303301
0.0295725
0.0264974
0.0250411
0.0264296
0.0249752
0.0243432
0.0244323
0.0240653
0.0221995
0.0244989
0.0264987
0.0280889
0.0289367
0.0301791
0.0317347
0.0338991
0.0356964
0.0373596
0.0383664
0.0383444
0.0378002
0.0379687
0.0386039
0.0382694
0.0365877
0.0345121
0.0324178
0.0294476
0.0292826
0.0312589
0.0328219
0.0344823
0.0362572
0.0355846
0.0336926
0.0320653
0.0306443
0.0289329
0.0288163
0.030494
0.0319394
0.0336816
0.0358089
0.0359913
0.0338415
0.0320181
0.0305107
0.0288063
0.028776
0.0304783
0.0319944
0.0337234
0.0356177
0.0347459
0.0332703
0.0317432
0.0302722
0.0286059
0.0281698
0.0297754
0.0311606
0.032478
0.0335467
0.0318699
0.031278
0.0302055
0.0288142
0.0270551
0.0258018
0.0263106
0.0276983
0.0278094
0.0282902
0.02941
0.0292575
0.0289745
0.0289292
0.0286472
0.0264017
0.026809
0.026858
0.02755
0.0308514
0.0303683
0.0330303
0.0354338
0.0331237
0.0316409
0.0280861
0.0336473
0.0336837
0.0346365
0.033457
0.0237037
0.0218536
0.022853
0.0243813
0.0260177
0.0253194
0.022581
0.0225087
0.0231101
0.0225172
0.0209486
0.0179708
0.0135044
0.0135131
0.0135031
0.0142354
0.0170354
0.0186284
0.0187368
0.018579
0.0182739
0.0177986
0.0170763
0.015999
0.0156344
0.0248227
0.0452748
0.0565929
0.0559236
0.0425296
0.0357345
0.0264808
0.0184975
0.0112881
0.0107885
0.0114662
0.0137528
0.0115092
0.0109738
0.0151157
0.0121022
0.020104
0.0231785
0.0302957
0.0414497
0.0401583
0.0306297
0.0204785
0.0183791
0.0192335
0.01976
0.0201503
0.0205335
0.0209203
0.0213405
0.0218515
0.0215279
0.0188978
0.0166593
0.0167813
0.0173526
0.0198532
0.0212368
0.0220338
0.0217064
0.0219617
0.023666
0.0224305
0.0212063
0.0209953
0.0202869
0.0231215
0.0234684
0.0228462
0.0228468
0.0231246
0.0230101
0.0231489
0.0239509
0.0197722
0.0218913
0.0224428
0.0227226
0.0235129
0.0190312
0.0192232
0.0192912
0.0181468
0.0148707
0.0179679
0.0167319
0.0121448
0.0134567
0.0134268
0.01404
0.014365
0.0171194
0.0162916
0.0155615
0.0163203
0.0222857
0.0230893
0.0232628
0.0206176
0.0193714
0.0218585
0.0224508
0.021998
0.0211082
0.021267
0.0203218
0.0184222
0.0177037
0.0178409
0.019249
0.020048
0.0201199
0.0237155
0.0232115
0.0216541
0.0226349
0.0232336
0.0228187
0.0227097
0.0226546
0.0222834
0.0218602
0.0222725
0.0224606
0.0225125
0.0220725
0.0223251
0.024946
0.0214111
0.0212225
0.0201495
0.0194952
0.017871
0.017619
0.0177171
0.0176774
0.0175836
0.0167478
0.0186016
0.0178751
0.0200069
0.021616
0.0227635
0.0239306
0.0240783
0.0236457
0.0236034
0.0232172
0.0231808
0.0226335
0.0217914
0.0212107
0.0204404
0.019236
0.0192291
0.0191806
0.0190374
0.0204397
0.0203397
0.0219009
0.0230178
0.0227304
0.0217689
0.0216588
0.0204861
0.020462
0.0214994
0.0223842
0.0226354
0.0234917
0.0260105
0.0236831
0.0252347
0.025936
0.0265993
0.0259896
0.0248932
0.0256438
0.023985
0.0228747
0.0241915
0.0249142
0.0261757
0.0269705
0.0249935
0.0239657
0.0227693
0.0219077
0.0209242
0.0184046
0.0190138
0.0198005
0.0210305
0.0228432
0.0255605
0.0282887
0.0312088
0.0312641
0.0289662
0.027278
0.0320743
0.0315485
0.0365163
0.0371169
0.0329965
0.0301968
0.0272891
0.0268614
0.0259404
0.0254043
0.0241341
0.0253806
0.0257998
0.0248582
0.0273231
0.0288921
0.0332219
0.0387723
0.0354323
0.032615
0.0376829
0.0366065
0.0425536
0.0363382
0.0346881
0.0285426
0.0331556
0.0355184
0.0432421
0.0338386
0.0296597
0.0294456
0.0307762
0.0382525
0.0367862
0.0393694
0.0445365
0.0438792
0.039014
0.0357796
0.0415172
0.0315639
0.0370054
0.0390152
0.0324042
0.0321534
0.0390175
0.0396397
0.0398086
0.0337393
0.033004
0.0249891
0.0335342
0.0400068
0.0399208
0.0331488
0.0259635
0.0358494
0.031486
0.0312853
0.0312864
0.0268882
0.0268195
0.0261189
0.0263733
0.0270809
0.0246483
0.0254493
0.025707
0.0258678
0.025997
0.026187
0.0265289
0.0271679
0.0278812
0.0228432
0.0242711
0.0229272
0.021605
0.020278
0.024052
0.02653
0.0283408
0.0297983
0.0309334
0.0314095
0.0299692
0.0379399
0.0396243
0.0412711
0.041421
0.0401808
0.037515
0.0340813
0.0306536
0.0285654
0.0272637
0.0248078
0.0226925
0.0206286
0.0184863
0.0156854
0.0143469
0.0130316
0.0116534
0.0113234
0.0107985
0.0102186
0.00957635
0.0092695
0.0116136
0.0160321
0.0269876
0.0326149
0.0384308
0.0453611
0.0518828
0.0571262
0.0610686
0.0639185
0.0657473
0.0662726
0.0638098
0.053237
0.0481557
0.0431777
0.0381217
0.0329719
0.0321398
0.0412987
0.0496149
0.0566285
0.0629468
0.0670586
0.0654141
0.0498286
0.0467037
0.0624046
0.0899438
0.0807186
0.103744
0.120076
0.0796167
0.0648325
0.0640394
0.0795126
0.0820258
0.0754587
0.066539
0.0567031
0.0457521
0.0509202
0.0558221
0.0604801
0.0651639
0.0779521
0.0802291
0.0789269
0.0762764
0.0728762
0.068431
0.0619694
0.0535394
0.0441944
0.036025
0.0285597
0.0172058
0.0128627
0.0138244
0.0133548
0.0135305
0.0138639
0.0102084
0.0105483
0.010741
0.01064
0.0103437
0.0104057
0.0118054
0.0182124
0.0150187
0.0136808
0.0118073
0.0144853
0.0163179
0.0180636
0.0186115
0.0188189
0.0203573
0.036658
0.0443774
0.0498671
0.0545498
0.0575804
0.0563602
0.0530341
0.0472133
0.0402647
0.0375446
0.0334461
0.0299741
0.0281649
0.0290399
0.0254472
0.0157049
0.0147353
0.0157838
0.0154532
0.0144558
0.0164127
0.0176343
0.0184088
0.0190334
0.019498
0.019853
0.0201038
0.0202677
0.0203504
0.0203704
0.0203422
0.0202713
0.0201564
0.0199951
0.0197767
0.0194711
0.018953
0.0172504
0.0154185
0.0147076
0.0147916
0.014561
0.0141983
0.0123229
0.0125506
0.0144123
0.0150155
0.0146229
0.01521
0.015676
0.0168646
0.0190244
0.0211578
0.0229918
0.0216886
0.0210387
0.0210183
0.0206156
0.0175333
0.0208428
0.023654
0.0241577
0.0244173
0.0252291
0.0268188
0.0277766
0.0268506
0.0263608
0.0258393
0.0228154
0.0244503
0.0279134
0.0283195
0.0289769
0.0295628
0.0301246
0.0314177
0.030799
0.0299334
0.0293515
0.0265688
0.0257071
0.0316839
0.0207386
0.0146497
0.0106228
0.0109663
0.0112042
0.0109079
0.0116775
0.0122117
0.0124353
0.0117458
0.0128248
0.0137332
0.0129818
0.0156255
0.0149266
0.0139211
0.0134756
0.0142235
0.0149278
0.0153107
0.0164657
0.0265733
0.0274016
0.0228492
0.0293916
0.0319661
0.0290012
0.0318968
0.0295843
0.0282594
0.0310493
0.0343903
0.035567
0.0332459
0.0318963
0.0311952
0.020819
0.020133
0.0194107
0.0175565
0.0178261
0.0173554
0.0168911
0.0164723
0.018907
0.0203053
0.0213681
0.0210647
0.020753
0.020345
0.0215643
0.0262713
0.0355933
0.0439352
0.0466261
0.0453784
0.0416639
0.0350892
0.0289922
0.0284549
0.0264343
0.0251237
0.0247853
0.0187887
0.0149966
0.0174952
0.0174097
0.0184751
0.0191449
0.0196706
0.0200885
0.0204351
0.0207323
0.0210179
0.0212837
0.0215159
0.0217115
0.0218802
0.0220207
0.0221725
0.0223553
0.0226089
0.0228127
0.0212032
0.018598
0.0172626
0.0171161
0.0178302
0.0187314
0.0198583
0.0191137
0.0153994
0.0154744
0.0218945
0.0223265
0.020954
0.0195345
0.0197384
0.0188993
0.0226775
0.0224735
0.0232333
0.0230269
0.0227469
0.0224672
0.0221882
0.0219029
0.0216342
0.0213993
0.0211862
0.0209877
0.0207909
0.0205758
0.0203062
0.0199083
0.0192342
0.0184476
0.0170558
0.018172
0.0193527
0.0209628
0.0228074
0.0237754
0.0229252
0.0216729
0.0210593
0.0212203
0.0215065
0.021825
0.0221688
0.0225677
0.0229901
0.0233887
0.0233558
0.0220617
0.0226971
0.0174409
0.0182963
0.0185949
0.0185536
0.0202159
0.0193698
0.0146703
0.0151774
0.0158938
0.0171643
0.0197329
0.0200908
0.0214282
0.0216517
0.0172948
0.0169866
0.0165633
0.0175782
0.0152176
0.0158444
0.0265293
0.0271655
0.0349135
0.0382521
0.0398798
0.0331266
0.0455921
0.0524325
0.0505362
0.0409063
0.0234976
0.0346291
0.0421606
0.0488024
0.0457242
0.0355606
0.0448879
0.047374
0.0632693
0.0588925
0.05252
0.0633019
0.0447256
0.026904
0.0158281
0.016402
0.0152076
0.0306657
0.0347728
0.0314622
0.0323082
0.0399508
0.0409666
0.0362143
0.0345365
0.0362935
0.0358478
0.0397971
0.0370898
0.0337283
0.0232932
0.0190207
0.0198534
0.0212538
0.0230724
0.0254085
0.0253081
0.0241702
0.0228126
0.0218443
0.0207976
0.0183057
0.0176551
0.0196119
0.0212389
0.0226148
0.0241194
0.0249349
0.0257719
0.0259366
0.0258296
0.0255096
0.0250854
0.0245357
0.0238571
0.0224527
0.0236887
0.024364
0.0245651
0.024836
0.025142
0.0254118
0.0255468
0.0254288
0.0244895
0.0236866
0.0225241
0.0214078
0.0198043
0.0176919
0.018371
0.0201258
0.0217216
0.0228334
0.0238808
0.0234883
0.0239725
0.0246198
0.0246467
0.0244718
0.0242527
0.0241072
0.0242043
0.0248405
0.0265491
0.0262333
0.0290403
0.0302384
0.0276723
0.0263427
0.0256511
0.0252271
0.0249841
0.024781
0.0245856
0.0240454
0.0235013
0.0239975
0.0242476
0.024542
0.0248973
0.0254027
0.0260945
0.0271917
0.0286025
0.0284704
0.0262467
0.0261205
0.0250638
0.0242733
0.023894
0.0238375
0.0238813
0.0239807
0.0239154
0.0234015
0.0230783
0.0234835
0.0224759
0.0225443
0.0215743
0.0202197
0.0187824
0.0173325
0.016672
0.0352534
0.0352445
0.0457735
0.0424063
0.0370715
0.0471161
0.0601175
0.0521083
0.0628467
0.0666263
0.0541228
0.0503041
0.0278567
0.024373
0.0174041
0.0189273
0.0202689
0.0214693
0.0212858
0.0222039
0.022086
0.0230489
0.022506
0.021717
0.0211818
0.0201681
0.0202245
0.018956
0.0174136
0.0172801
0.0189254
0.0199585
0.0211349
0.0211229
0.0225786
0.0230871
0.0234877
0.0236428
0.0236358
0.0237249
0.0238995
0.0243481
0.0250634
0.02553
0.0256759
0.0261092
0.0258591
0.0255356
0.0250723
0.024757
0.024435
0.0241536
0.023858
0.02358
0.0231509
0.0224981
0.0223782
0.0228906
0.0232317
0.0234696
0.0236104
0.0235999
0.0234175
0.0231151
0.0228138
0.0224723
0.0225315
0.0237847
0.0240024
0.0241219
0.0239026
0.0237309
0.0237124
0.0235936
0.0234973
0.0232645
0.022893
0.0224185
0.0213512
0.021455
0.0223376
0.0227851
0.0231181
0.0234009
0.0234169
0.0233262
0.0229468
0.022654
0.0223132
0.0217676
0.0210727
0.0187068
0.0191637
0.019777
0.0206024
0.021433
0.0221398
0.0225874
0.0227693
0.0227583
0.0225806
0.0222255
0.0214781
0.0214592
0.0220013
0.0221756
0.0221342
0.0218425
0.0212397
0.0203263
0.0191327
0.0179222
0.016945
0.0164374
0.0156427
0.0182352
0.0192451
0.020179
0.0210369
0.0218466
0.022703
0.0230451
0.0231202
0.0229611
0.0226927
0.0222754
0.0215013
0.0215123
0.0222204
0.0226157
0.0228364
0.022938
0.0226446
0.0219537
0.0204152
0.0189967
0.0178206
0.0167448
0.0156335
0.015223
0.0157246
0.0153568
0.0158443
0.0169958
0.0184872
0.0198495
0.0208177
0.0213989
0.0216731
0.0216935
0.0213585
0.0211813
0.0213177
0.0211325
0.020654
0.0198046
0.0185331
0.0170553
0.0158075
0.0153844
0.0159874
0.0166338
0.0160377
0.0139165
0.0150343
0.0161107
0.0172339
0.0189112
0.0209742
0.0219933
0.0224882
0.0226373
0.0225161
0.0221482
0.0214912
0.0214401
0.0220681
0.0224258
0.0225237
0.0224229
0.0219513
0.0210868
0.0185703
0.0158363
0.0146114
0.0139182
0.0129722
0.0161883
0.0168796
0.0160646
0.0155318
0.0164002
0.0174694
0.0186487
0.0195482
0.0201829
0.0206707
0.0209307
0.0209465
0.0206789
0.0205773
0.0203701
0.0200327
0.0196875
0.0193252
0.0185185
0.0176727
0.0167209
0.0177858
0.0183535
0.0176016
0.0144664
0.0150324
0.0158156
0.0162799
0.0189125
0.0214059
0.0221221
0.0223611
0.0224789
0.0223604
0.0219722
0.0213565
0.0212372
0.0218717
0.0223419
0.0226184
0.0228822
0.0230153
0.0231105
0.021184
0.0179373
0.0172538
0.0155936
0.0147567
0.0181572
0.0188512
0.0183871
0.0178272
0.0194775
0.0201777
0.0204411
0.0204505
0.0203874
0.020295
0.0203038
0.0204033
0.0201085
0.0199989
0.0201095
0.0203251
0.0202739
0.0200386
0.0194586
0.0186928
0.017621
0.0194563
0.0211148
0.0208509
0.0169976
0.0175338
0.0182953
0.0177978
0.0204591
0.0223371
0.0228683
0.0228903
0.0226412
0.0222081
0.0216871
0.0210541
0.02078
0.0213392
0.0219094
0.0219551
0.0220756
0.0220486
0.0214847
0.0213235
0.020748
0.0204801
0.0197131
0.0191337
0.0183771
0.02055
0.0237664
0.0259787
0.0275612
0.0294534
0.0280061
0.0244727
0.0221932
0.0152681
0.0152792
0.0155056
0.0148776
0.0145049
0.0143303
0.0187799
0.0215308
0.0242463
0.0260035
0.023546
0.0235158
0.0234291
0.0233092
0.0231942
0.0230975
0.0228916
0.0236935
0.0414701
0.283185
0.210184
0.235707
0.224857
0.315595
0.0801619
0.0392125
0.0436725
0.0511471
0.0590029
0.0573725
0.0532637
0.0463757
0.0415914
0.0411815
0.0403669
0.0401224
0.0385097
0.038487
0.0375852
0.0449804
0.0942646
0.123555
0.137142
0.145608
0.154659
0.150097
0.15911
0.151041
0.151536
0.153137
0.157866
0.150495
0.143137
0.139291
0.135007
0.11773
0.118082
0.0996907
0.103516
0.0864401
0.090968
0.0948814
0.0942374
0.0930373
0.0928254
0.093109
0.0939342
0.0976053
0.0929602
0.0997713
0.0926775
0.0748552
0.0724574
0.0748769
0.0689834
0.0601863
0.0686295
0.0846414
0.101249
0.118321
0.100098
0.123966
0.116387
0.115722
0.109889
0.103444
0.0996309
0.098873
0.099464
0.100565
0.103183
0.105085
0.10666
0.109516
0.11806
0.120353
0.11891
0.101475
0.0862125
0.0947008
0.099517
0.103227
0.103508
0.0988237
0.0966546
0.0904727
0.0889001
0.083392
0.0808109
0.0753579
0.0720534
0.0672484
0.0837325
0.0818933
0.0888714
0.0951318
0.0993691
0.10299
0.104569
0.105809
0.104599
0.102196
0.097232
0.09517
0.0903823
0.108814
0.127199
0.129993
0.125395
0.111909
0.106308
0.339183
0.411423
0.412674
0.61241
0.65401
0.845374
0.335733
0.179989
0.192508
0.189199
0.181048
0.177886
0.177681
0.189448
0.198509
0.18961
0.200636
0.179305
0.176608
0.172286
0.201529
0.199433
0.179892
0.157637
0.125993
0.103671
0.104277
0.0867873
0.0876434
0.0749241
0.0748649
0.0755471
0.091872
0.169271
0.208774
0.235302
0.261576
0.32189
0.291643
0.440811
0.353238
0.438816
0.302947
0.327481
0.313223
0.304485
0.302517
0.318567
0.341057
0.299873
0.372971
0.298841
0.647259
0.783855
0.49681
0.459402
0.407469
0.393441
0.38366
0.378194
0.370128
0.487344
0.452141
0.553161
0.513961
0.64188
0.566546
0.577468
0.543951
0.583983
0.605573
0.619277
0.497893
0.547932
0.427805
0.46348
0.383865
0.418968
0.294189
0.292681
0.333983
0.371042
0.396612
0.452771
0.712342
0.604912
0.81592
0.584527
0.706494
0.490676
0.537555
0.51342
0.495727
0.497337
0.525339
0.629683
0.609002
0.69544
0.514701
0.526982
0.5167
0.534044
0.523474
0.5584
0.563078
0.564248
0.562216
0.523416
0.533987
0.532178
0.531967
0.53199
0.532337
0.509581
0.512761
0.505224
0.511005
0.526916
0.514584
0.514501
0.512366
0.504793
0.502739
0.502255
0.504014
0.503783
0.508916
0.508785
0.509123
0.512177
0.526876
0.514433
1.8246
0.904845
0.431201
0.340527
0.220768
0.135281
0.0557621
0.0602005
0.0631137
0.0640232
0.0619636
0.0565831
0.0484468
0.0385077
0.0307459
0.029848
0.0265849
0.0267164
0.0343908
0.0420229
0.0383988
0.0462134
0.0539271
0.0622447
0.070218
0.0771671
0.0830512
0.0860133
0.0830067
0.0703161
0.0526632
0.035297
0.0250592
0.0226614
0.021018
0.0190196
0.0169126
0.015269
0.0142603
0.0130839
0.0124476
0.0123551
0.0125678
0.0128046
0.0132394
0.0147512
0.0160479
0.0172292
0.0181864
0.0184302
0.0179251
0.018465
0.0190578
0.0194493
0.0197895
0.0196276
0.0196279
0.0198737
0.0198339
0.0200375
0.0199375
0.019939
0.0197966
0.0196189
0.0193914
0.0189515
0.0186733
0.0181134
0.017769
0.0169492
0.0169845
0.0173931
0.0177213
0.0167281
0.0166785
0.0159165
0.0265322
0.0476049
0.0609946
0.0660399
0.0713465
0.0673404
0.0569016
0.038862
0.0191068
0.018797
0.0192686
0.0217694
0.0212875
0.0173877
0.0181716
0.0187208
0.0174975
0.0173749
0.0174048
0.0194184
0.020004
0.0213832
0.021877
0.0222777
0.0225005
0.0224939
0.0225952
0.0223449
0.0223511
0.0219842
0.0219696
0.0216583
0.0214266
0.0217144
0.0224039
0.022469
0.0230872
0.0227806
0.0224638
0.0219006
0.0214766
0.0206274
0.0196911
0.0186891
0.0171569
0.0167211
0.0172444
0.0177606
0.0173102
0.0187653
0.020042
0.0197221
0.0243889
0.0226732
0.0202325
0.0227204
0.0185019
0.0186859
0.0181369
0.0170417
0.0175882
0.0170763
0.016985
0.0172709
0.0175484
0.0187069
0.0196659
0.020314
0.0211793
0.0218382
0.0225559
0.0237584
0.0240702
0.0231173
0.0229487
0.0217646
0.0210837
0.0207703
0.0216999
0.0229899
0.0228802
0.0237407
0.0234796
0.0222324
0.0214178
0.0205543
0.0195728
0.0189072
0.018133
0.017404
0.0169914
0.0161884
0.0163059
0.0152312
0.016797
0.0171714
0.0193042
0.0174233
0.0169432
0.0224262
0.0282494
0.0441158
0.0321693
0.0212608
0.0230043
0.0311745
0.0387359
0.0269752
0.0265876
0.0151016
0.0172286
0.0151908
0.0154718
0.0165365
0.0168253
0.0179942
0.0190531
0.0192871
0.0200375
0.0203791
0.021155
0.0214124
0.0221507
0.022344
0.0236195
0.02369
0.023768
0.0237495
0.0229783
0.0229076
0.0229529
0.0233939
0.0231666
0.0238321
0.0238554
0.0239288
0.0238561
0.0225132
0.0221905
0.0214182
0.0209041
0.0199968
0.0194482
0.0187293
0.0183431
0.0177165
0.0180353
0.0187576
0.01896
0.0198791
0.0198986
0.0206471
0.020853
0.0213196
0.0214515
0.0221193
0.0222583
0.0225262
0.0225824
0.0237958
0.0239111
0.0239525
0.0239171
0.0239349
0.0241674
0.024169
0.0241085
0.0240993
0.0240406
0.0238894
0.0237468
0.0248065
0.0254678
0.024982
0.0247403
0.0250101
0.0258726
0.0264254
0.0275279
0.0283868
0.029473
0.0303717
0.0312072
0.0318896
0.0323759
0.0325034
0.0325432
0.0320962
0.031724
0.0334212
0.0399302
0.0431579
0.0484265
0.0508023
0.0527858
0.0535049
0.0523411
0.0530542
0.051773
0.0520269
0.050828
0.0503882
0.0495646
0.0485498
0.047829
0.0463522
0.0456216
0.0502354
0.0568587
0.0569885
0.0499752
0.0470764
0.0427022
0.0371083
0.0391306
0.0456288
0.0409626
0.0385995
0.0357535
0.0307173
0.023563
0.0178136
0.0255072
0.0332487
0.0405055
0.0473183
0.0533321
0.057222
0.0593395
0.0608617
0.0625687
0.0605516
0.0531217
0.0415464
0.0317449
0.0278976
0.0263518
0.0239031
0.0204563
0.0185636
0.0174861
0.0163282
0.0149751
0.0141126
0.0138661
0.0140997
0.0142137
0.0155598
0.0168195
0.0168134
0.0179905
0.0178233
0.0183321
0.0189204
0.0193184
0.0199884
0.0199539
0.0189941
0.0193391
0.0196013
0.0202761
0.0201738
0.0203407
0.0201178
0.0193986
0.0188814
0.0182816
0.017765
0.0173099
0.016742
0.0160387
0.0160267
0.0162281
0.0157864
0.0161902
0.0166253
0.0170269
0.017652
0.0185582
0.0193179
0.0211474
0.021294
0.0210428
0.0211308
0.019706
0.0196467
0.0186729
0.0184423
0.020035
0.0198815
0.018209
0.0196055
0.0196051
0.0213812
0.0213819
0.0207096
0.0209058
0.0207844
0.0189583
0.0180677
0.0170023
0.0162263
0.015643
0.0152482
0.0147891
0.015406
0.0142235
0.0136409
0.0140826
0.0140584
0.0141245
0.0145111
0.0149394
0.0156826
0.0163851
0.0174276
0.0180644
0.0189612
0.0192944
0.0212015
0.0211155
0.0209926
0.0210234
0.0211579
0.0216108
0.020819
0.0207812
0.0209215
0.0209361
0.0209532
0.0209342
0.0190971
0.0188936
0.0180591
0.0177421
0.0168135
0.0164559
0.0158017
0.0154889
0.0151007
0.0149042
0.0232763
0.0254744
0.0256403
0.0397976
0.0199874
0.01998
0.0343407
0.0173569
0.0230767
0.0236321
0.0247055
0.0259152
0.0225622
0.0307359
0.0212243
0.0233319
0.0240678
0.0252494
0.0127787
0.0190971
0.0365467
0.0422079
0.0435582
0.0485346
0.0552859
0.0585358
0.0615978
0.0636627
0.0659359
0.068402
0.0708178
0.0725726
0.072738
0.069076
0.066032
0.0565597
0.0527428
0.0564918
0.0609255
0.0474435
0.0426476
0.0431993
0.0436746
0.0442158
0.0444309
0.0451293
0.0449395
0.0459502
0.0452169
0.0463356
0.0451918
0.0462334
0.0449783
0.0422248
0.0389857
0.032746
0.030751
0.0296344
0.0269066
0.0243951
0.0221288
0.0202895
0.0198495
0.0182775
0.0168655
0.0165656
0.0152758
0.0155208
0.0167296
0.019842
0.0168177
0.0176708
0.0259693
0.0191413
0.0180521
0.0186038
0.0191253
0.0193626
0.0182576
0.0198927
0.022175
0.0221603
0.0222214
0.0222268
0.0214237
0.0212615
0.0209856
0.0210406
0.0210731
0.0211926
0.0211589
0.0193372
0.0192809
0.0190079
0.0188696
0.0180818
0.0179147
0.0173327
0.0170036
0.016165
0.0158718
0.0154218
0.0154712
0.0165332
0.0202772
0.0296184
0.0172089
0.0178222
0.0154451
0.0139442
0.0265695
0.0247684
0.0286017
0.026765
0.0394177
0.0264193
0.0231843
0.0241986
0.0297116
0.0296416
0.0325638
0.0423361
0.0329938
0.0281176
0.0723536
0.0522775
0.0329623
0.0457368
0.0577532
0.10832
0.127088
0.0557829
0.0563275
0.0620414
0.0629334
0.0628056
0.0531334
0.0490152
0.0410834
0.0315142
0.0129093
0.0248963
0.0321257
0.042372
0.0565337
0.0918835
0.0528011
0.0596386
0.065602
0.064678
0.0677789
0.0659127
0.0645257
0.0654747
0.102635
0.111677
0.107205
0.0856341
0.080384
0.0738179
0.123879
0.139073
0.119827
0.129877
0.135471
0.0807121
0.0302059
0.0249427
0.0238179
0.0263934
0.0253422
0.0460355
0.0205733
0.0218177
0.0226451
0.0271617
0.030172
0.0529334
0.0232381
0.0254552
0.0324089
0.034878
0.0459846
0.0274274
0.0280949
0.0344336
0.0362275
0.0395411
0.0336412
0.0317466
0.0287216
0.0259094
0.0244116
0.0254613
0.031859
0.0463756
0.0278742
0.0283022
0.0300683
0.133439
0.0307332
0.0266417
0.0276941
0.026703
0.0336625
0.0351225
0.110985
0.0354238
0.0166887
0.0154567
0.0159349
0.0167456
0.0173828
0.017999
0.0184442
0.0190827
0.0194784
0.0196295
0.0197974
0.0221737
0.02208
0.0216129
0.0210695
0.0218651
0.0211701
0.0212199
0.0218376
0.0213048
0.0214464
0.0224989
0.02367
0.0231855
0.0237535
0.0251015
0.0239408
0.0222355
0.0220316
0.0221568
0.0228637
0.0240048
0.02281
0.0234598
0.0226393
0.023564
0.023666
0.0203658
0.0199995
0.0197975
0.0192926
0.0186207
0.0179962
0.0173233
0.0166677
0.0161519
0.0160526
0.0165185
0.0151792
0.0155497
0.0178102
0.0389666
0.0320721
0.0262932
0.0220789
0.0194928
0.018386
0.0182898
0.0187437
0.0193974
0.0199615
0.0201694
0.0207526
0.0246319
0.0245851
0.0257925
0.0246509
0.0259913
0.0249387
0.0236122
0.0227417
0.0239505
0.0232508
0.0237408
0.0253626
0.0262128
0.0238501
0.0241229
0.0215277
0.0201096
0.0184892
0.0188294
0.0202826
0.0209631
0.0234081
0.0234871
0.0269319
0.0269067
0.026753
0.0255109
0.0248351
0.0262892
0.0248001
0.0259518
0.0248377
0.0262447
0.0274277
0.0277748
0.0270688
0.0261997
0.0253225
0.0210514
0.0202649
0.0199583
0.0194615
0.0191912
0.020072
0.0242271
0.033273
0.0452217
0.0572643
0.0667022
0.0663104
0.0597929
0.0403456
0.0415156
0.0384233
0.0420034
0.0595959
0.084951
0.0593617
0.113761
0.0881641
0.0523413
0.0626744
0.074647
0.083795
0.089662
0.0905148
0.0769271
0.0565385
0.0496429
0.052086
0.0845374
0.083274
0.0824104
0.0779728
0.0824553
0.080348
0.0776859
0.0761317
0.0743632
0.0701262
0.070105
0.0674351
0.0674072
0.060263
0.0614516
0.0616878
0.0591156
0.0563687
0.0540828
0.0518937
0.049571
0.0456757
0.0443945
0.0419136
0.0401677
0.0368074
0.036274
0.0357893
0.0336136
0.0320602
0.0308059
0.0295433
0.0278383
0.0279969
0.0263957
0.0262378
0.0213778
0.0210009
0.0199884
0.0196511
0.0193928
0.0195675
0.0207631
0.0233722
0.0433452
0.0330249
0.0329302
0.0335103
0.0337263
0.0396359
0.0464268
0.070703
0.065419
0.072018
0.0615502
0.064007
0.0632103
0.0628201
0.0655357
0.0691242
0.0744631
0.0869638
0.333715
0.513813
0.253358
0.23731
0.246912
0.251786
0.259219
0.339394
0.360245
0.356326
0.360771
0.330626
0.318359
0.196642
0.226047
0.238116
0.236984
0.223831
0.201948
0.392143
0.522664
0.518791
0.523658
0.52377
0.518765
0.522606
0.502912
0.514274
0.501758
0.51503
0.502299
0.521679
0.518939
0.504364
0.501137
0.501156
0.500916
0.501378
0.501555
0.504893
0.506055
0.506107
0.505102
0.50411
0.514526
0.435761
0.121602
0.084444
0.140142
0.194719
0.15926
0.231169
0.265944
0.191603
0.108754
0.0885051
0.0998384
0.122924
0.124494
0.151475
0.198509
0.185997
0.15177
0.152792
0.153044
0.198075
0.189875
0.216194
0.258451
0.251975
0.187356
0.149009
0.14781
0.225797
0.240965
0.236236
0.121629
0.0434669
0.021716
0.0225847
0.0326275
0.0164719
0.016817
0.0218884
0.0569161
0.0954989
0.0491097
0.134884
0.137044
0.181572
0.147081
0.178052
0.115165
0.118661
0.0674943
0.0795023
0.0894606
0.0952366
0.0995091
0.0934358
0.215752
0.318216
0.189848
0.560188
0.537596
0.195697
0.216977
0.575801
0.513013
0.503521
0.501784
0.501698
0.501858
0.501816
0.500969
0.500915
0.500728
0.500765
0.500716
0.501163
0.504767
0.520404
0.514615
0.50524
0.501385
0.500824
0.500799
0.50069
0.50073
0.50075
0.500807
0.501017
0.501049
0.50115
0.50167
0.503941
0.512033
0.435795
0.169926
0.182324
0.406121
0.361866
0.511505
0.504622
0.501369
0.500941
0.500855
0.500829
0.500794
0.500969
0.50089
0.501397
0.501231
0.501287
0.502777
0.50826
0.506399
0.4435
0.369698
0.417486
0.330233
0.506675
0.507779
0.503277
0.502899
0.503246
0.503413
0.501513
0.501526
0.500992
0.50106
0.500892
0.50134
0.504756
0.511017
0.346014
0.170875
0.177782
0.258063
0.0878887
0.090799
0.0927102
0.0947899
0.246852
0.440796
0.554853
0.470639
0.474859
0.541652
0.385289
0.364054
0.293777
0.317445
0.401709
0.347113
0.312701
0.250203
0.288481
0.247716
0.303507
0.217887
0.234182
0.221748
0.283058
0.286942
0.287308
0.226734
0.216589
0.271655
0.285971
0.316982
0.218773
0.259054
0.203299
0.192349
0.0870994
0.0892572
0.0811286
0.0711693
0.070949
0.0790962
0.0775483
0.0837463
0.0807533
0.0844713
0.0816115
0.0795712
0.0727505
0.074772
0.0685447
0.0711894
0.13023
0.1664
0.150317
0.151746
0.179475
0.130933
0.157314
0.153309
0.197418
0.247824
0.225932
0.290311
0.22454
0.2753
0.405327
0.754068
0.436416
0.243772
0.31786
0.340172
0.288614
0.189515
0.449504
0.538635
0.298026
0.360379
1.19689
1.04413
1.78202
0.992213
1.11818
0.670095
0.597372
1.02827
0.653178
0.665452
0.559074
0.572994
0.498478
0.323854
0.323239
0.305162
0.241513
0.280039
0.270769
0.266575
0.296069
0.261135
0.316061
0.351865
0.396487
0.32234
0.28508
0.366172
0.215323
0.289954
0.345547
0.31498
0.259167
0.33711
0.448892
0.419586
0.360926
0.398191
0.508432
0.562149
0.53061
0.449995
0.510555
1.00479
0.961052
0.929768
0.589452
1.93393
1.71698
0.351032
0.136361
0.0948903
0.0359417
0.0223921
0.0182662
0.0178725
0.0487614
0.019543
0.0235112
0.021145
0.0298202
0.0272292
0.0314668
0.055065
0.037432
0.0524494
0.0389511
0.0516081
0.0411024
0.0564765
0.060641
0.0638159
0.0516057
0.0407023
0.0615014
0.0820773
0.0384129
0.0988276
0.104426
0.0674281
0.0820477
0.101286
0.0524129
0.163944
0.0569197
0.0564731
0.0670234
0.125671
0.249775
0.0847665
0.111374
0.583612
1.52879
0.508281
0.200147
0.163048
0.0413516
0.0359098
0.0291486
0.0355193
0.0313437
0.0624263