/*--------------------------------*- C++ -*----------------------------------*\
| =========                 |                                                 |
| \\      /  F ield         | OpenFOAM: The Open Source CFD Toolbox           |
|  \\    /   O peration     | Version:  v2012                                 |
|   \\  /    A nd           | Website:  www.openfoam.com                      |
|    \\/     M anipulation  |                                                 |
\*---------------------------------------------------------------------------*/
FoamFile
{
    version     2.0;
    format      ascii;
    class       volScalarField;
    location    "705";
    object      nut;
}
// * * * * * * * * * * * * * * * * * * * * * * * * * * * * * * * * * * * * * //

dimensions      [0 2 -1 0 0 0 0];


internalField   nonuniform List<scalar> 
18258
(
0.00420008
0.0018273
0.00149833
0.00129869
0.000858731
0.0014057
0.00195203
0.00232329
0.00243711
0.00241552
0.00250025
0.00421821
0.00591888
0.00731339
0.00768106
0.00766763
0.00695788
0.00664397
0.00721301
0.0088718
0.00746404
0.0047817
0.00572875
0.00662002
0.0072015
0.00637848
0.00515639
0.00477654
0.00432569
0.00360568
0.00302235
0.00205807
0.0015194
0.00140885
0.00127633
0.0014546
0.00158399
0.0016887
0.0017267
0.00175385
0.00174181
0.00173173
0.0016848
0.00165617
0.00160749
0.0013307
0.00161374
0.00164169
0.00179786
0.00248631
0.00267223
0.00224834
0.00248877
0.00222099
0.00146475
0.0016767
0.00182023
0.00185953
0.00183572
0.00175961
0.001734
0.00171232
0.00168483
0.00165217
0.0016323
0.00164873
0.00166586
0.0016478
0.00156688
0.00150125
0.00139504
0.00128855
0.00120956
0.00114835
0.0011022
0.00105107
0.000993613
0.000872765
0.000808853
0.00107097
0.00134443
0.00143635
0.00203567
0.00248176
0.00249833
0.00186989
0.00133256
0.00138292
0.00153752
0.00155319
0.0013166
0.00156545
0.00177348
0.0018382
0.00191566
0.00214093
0.00243654
0.00237518
0.00211518
0.00194838
0.00192175
0.002198
0.00208713
0.00270635
0.00272844
0.00238424
0.00218621
0.00246083
0.00317326
0.00341495
0.00265611
0.00249437
0.00244507
0.00241429
0.00218342
0.00225945
0.00205171
0.00184871
0.00201385
0.00243426
0.00230901
0.0025222
0.0026133
0.00245168
0.00284081
0.00327611
0.00322877
0.00258389
0.00210625
0.00196338
0.0019784
0.00120999
0.00130664
0.00140824
0.00144272
0.00146681
0.00148732
0.00158597
0.0015824
0.00155922
0.00155579
0.00158347
0.000872537
0.000945252
0.000968723
0.000975501
0.000926551
0.000917038
0.000899958
0.000886059
0.000835365
0.000799287
0.00095644
0.00107402
0.00116985
0.00128183
0.001449
0.00165349
0.00186831
0.00208533
0.00222885
0.00226974
0.00231099
0.00222738
0.00214311
0.00221954
0.00223241
0.00221801
0.00218827
0.00215069
0.00209989
0.00200675
0.00211456
0.00210877
0.00198114
0.00169779
0.00173584
0.00173278
0.00177788
0.00176873
0.00178657
0.0017613
0.00173174
0.0016486
0.0015327
0.00127651
0.00124384
0.00125986
0.0016182
0.0019648
0.00303534
0.00370295
0.00429967
0.00460125
0.00492498
0.00398421
0.00443398
0.00341741
0.00306826
0.00389992
0.00510314
0.00291126
0.00158938
0.00301349
0.00267283
0.0019381
0.00172469
0.00177674
0.00177945
0.00204353
0.00235545
0.00261367
0.00273923
0.00285037
0.00293913
0.00303693
0.00316077
0.00319459
0.00308615
0.00261207
0.00314748
0.00255581
0.00298357
0.00269453
0.00181789
0.00192444
0.00204282
0.00187001
0.00181894
0.00174246
0.0015682
0.00192789
0.0025057
0.00290899
0.00332573
0.0044328
0.0041009
0.00393469
0.00304677
0.00294625
0.00152998
0.00218323
0.00225888
0.00254047
0.00168887
0.00154044
0.00146124
0.00193429
0.00224073
0.0026453
0.00293461
0.00348615
0.00270229
0.00308398
0.00278918
0.00194273
0.00187064
0.00267989
0.00288756
0.00237585
0.00212421
0.00266484
0.00252159
0.00178856
0.00143341
0.00220168
0.00228041
0.00163541
0.00407485
0.00433725
0.0041468
0.00505315
0.00632817
0.00720816
0.00671481
0.0059531
0.0066469
0.00528063
0.00511787
0.00546
0.00457988
0.00319776
0.00327883
0.00339054
0.00348119
0.00373668
0.00396911
0.00425356
0.00452556
0.00411528
0.00341914
0.00258884
0.00178187
0.00175804
0.00174934
0.00157075
0.00232767
0.00352082
0.00349606
0.00198613
0.001158
0.00131007
0.00147936
0.00146486
0.00106285
0.000800086
0.0013783
0.00157572
0.00160103
0.00156117
0.0014739
0.00154011
0.00247327
0.00381018
0.00418639
0.00433578
0.00447712
0.00457692
0.00463238
0.00464986
0.00465955
0.00467151
0.00468207
0.00469823
0.00468381
0.00458422
0.00403238
0.00253552
0.00148238
0.00137725
0.00152006
0.00163369
0.00173297
0.00147478
0.000901597
0.00144006
0.00184393
0.00211898
0.0021369
0.00199411
0.00193426
0.00304985
0.00405496
0.00477938
0.00492581
0.00499074
0.00493548
0.00492782
0.00481964
0.00478534
0.00419547
0.0030046
0.0032852
0.00352755
0.00356849
0.00365133
0.00377569
0.00368831
0.00348405
0.00509261
0.00587578
0.00595125
0.00607825
0.00600643
0.00590248
0.00563393
0.00532719
0.00448461
0.00336299
0.00212178
0.002166
0.0023058
0.00228364
0.00198796
0.00209461
0.00227327
0.00229601
0.00237103
0.002659
0.00301995
0.0028804
0.00247822
0.002105
0.00196002
0.00191915
0.00184153
0.00137961
0.00140001
0.00136064
0.00138294
0.00185741
0.00221078
0.00254956
0.00361682
0.0032264
0.00262398
0.00416135
0.00426363
0.00458063
0.00505971
0.00518521
0.00574533
0.00399942
0.00360423
0.00370276
0.0030249
0.00279991
0.00282985
0.00284054
0.00264736
0.00289769
0.00287219
0.00276841
0.00305652
0.00336805
0.00444137
0.005382
0.00567894
0.00585064
0.00592076
0.00589803
0.0057821
0.00581735
0.00510834
0.00510149
0.00488606
0.00474544
0.0046953
0.00446157
0.00510877
0.00530408
0.00536929
0.00550342
0.00571244
0.00555877
0.00538551
0.00525384
0.00515843
0.00505859
0.00511295
0.00520828
0.00530997
0.00545287
0.00564399
0.00567642
0.00547832
0.00532869
0.00522633
0.00513024
0.00513459
0.00522036
0.00532039
0.00546227
0.00564349
0.00554349
0.0054026
0.00527716
0.00517427
0.00508371
0.00490616
0.00502498
0.00515569
0.00526355
0.00533372
0.00460828
0.0049254
0.00484026
0.00438185
0.00410086
0.0031143
0.00337046
0.00355436
0.00387142
0.00429763
0.00438158
0.00367711
0.00315118
0.00307076
0.00304597
0.00311777
0.00314358
0.00315875
0.00356918
0.00537915
0.00541523
0.00543012
0.00543202
0.0046444
0.00451302
0.00420489
0.00768833
0.00715741
0.00620143
0.00511045
0.0027391
0.00234808
0.00278145
0.0033822
0.00378131
0.00417205
0.00277023
0.00171569
0.00199943
0.00207278
0.00202159
0.00186853
0.00155703
0.00143727
0.00130434
0.00140362
0.00248586
0.00396729
0.00446885
0.00451633
0.0044715
0.00438437
0.00427833
0.00413077
0.00408314
0.00515718
0.00699065
0.00786601
0.00783191
0.00672874
0.00548957
0.00309826
0.00159951
0.0011828
0.00126437
0.00138942
0.00163001
0.00145145
0.00123076
0.00134798
0.00127349
0.00257653
0.00444136
0.00564355
0.00670489
0.00660448
0.00574874
0.00468745
0.00443435
0.0045375
0.00460784
0.0046675
0.00472872
0.00477071
0.00474414
0.00431805
0.00266752
0.00159246
0.00141484
0.00152117
0.00178289
0.00189461
0.00191421
0.00188781
0.00163671
0.00270731
0.00429784
0.00273372
0.00149152
0.00161139
0.00159946
0.00282117
0.00281694
0.00275656
0.00428833
0.00453446
0.00452341
0.00425074
0.00405776
0.00240278
0.0027276
0.00273687
0.00275121
0.00279613
0.00141295
0.00154029
0.00158845
0.0017105
0.00149454
0.00189743
0.000491027
0.000681067
0.000791043
0.000860394
0.000927059
0.000909402
0.00174054
0.00176646
0.00168542
0.00164082
0.00208197
0.00223403
0.00228309
0.0021026
0.00193998
0.00206504
0.00206977
0.0019508
0.00184773
0.00191555
0.00191681
0.001837
0.00156247
0.00146409
0.00160721
0.00158999
0.00157743
0.00283173
0.00282663
0.00267537
0.00439438
0.00432421
0.00484268
0.00481135
0.00480562
0.00478598
0.00483724
0.00486407
0.00488431
0.00490802
0.00489864
0.0048515
0.00674134
0.00477299
0.00416526
0.00240938
0.00232109
0.00163949
0.00143692
0.00169203
0.00180972
0.00196203
0.00191774
0.00202144
0.002019
0.00214237
0.00198828
0.00176531
0.00270356
0.00288802
0.00282052
0.00287613
0.00280836
0.00279169
0.0027713
0.00273215
0.0026849
0.00159896
0.00156864
0.00183694
0.00192832
0.00207204
0.00209066
0.0021361
0.00202563
0.00178131
0.0017242
0.00198593
0.00195906
0.0019974
0.00188312
0.00187509
0.00167026
0.00171263
0.00345234
0.00636854
0.00328067
0.00364402
0.00330212
0.00375534
0.00328978
0.0028375
0.00290422
0.00255817
0.00266858
0.00279909
0.00284976
0.00299518
0.00353068
0.00339921
0.00298374
0.00289711
0.00284006
0.00267798
0.0024105
0.0025249
0.00254751
0.00260219
0.00289215
0.00331743
0.00371818
0.00451776
0.004384
0.00384086
0.00351168
0.00368231
0.0037468
0.00471593
0.00440541
0.0043795
0.00462035
0.00457484
0.00434146
0.00411349
0.00397045
0.00340931
0.00346516
0.00396474
0.0038368
0.00395413
0.00388482
0.00403921
0.00411238
0.00394664
0.00366802
0.00385766
0.00385027
0.00427503
0.00415709
0.00385682
0.00352695
0.00377192
0.00372718
0.00430435
0.00405096
0.00378874
0.0034887
0.0033426
0.00379318
0.0037233
0.00422094
0.0043441
0.00434611
0.0037897
0.00370097
0.00440031
0.00423283
0.00409009
0.00426033
0.00352902
0.00362859
0.00446931
0.00456264
0.00432955
0.00361577
0.00366997
0.00314629
0.0037001
0.00460488
0.00434936
0.00356525
0.0029593
0.00413901
0.00435409
0.00460509
0.00435251
0.00473922
0.00510461
0.00416214
0.00452755
0.00591409
0.00451816
0.00524229
0.00535781
0.0053887
0.00539076
0.00541078
0.00543678
0.00572625
0.00556665
0.00354364
0.00423581
0.00411685
0.00344626
0.0029343
0.00323081
0.00347947
0.00352978
0.00361941
0.00375715
0.00369205
0.00356723
0.00522306
0.00595971
0.00608939
0.00620996
0.00610779
0.00595597
0.0056081
0.00518651
0.00431694
0.00322167
0.00201371
0.00205367
0.00218944
0.00216974
0.00188328
0.00142016
0.000933519
0.00138392
0.00143089
0.00134845
0.00123072
0.00108967
0.00113268
0.0020528
0.00367891
0.00536284
0.00598403
0.0064844
0.00699852
0.00745498
0.00779685
0.00805068
0.00822849
0.00834183
0.00836785
0.00821531
0.00748518
0.00715014
0.00673305
0.00638877
0.00591287
0.00554564
0.00627206
0.00689026
0.00726973
0.00769559
0.00789097
0.00780503
0.00677329
0.00656959
0.00756969
0.00932901
0.00793131
0.00996772
0.0117146
0.00911899
0.00819137
0.00818188
0.00915588
0.0093367
0.0090102
0.00849725
0.00790657
0.00715569
0.00753888
0.0078867
0.00822194
0.00853115
0.00932968
0.00946165
0.00938455
0.00922547
0.00902042
0.00874767
0.00833579
0.00775929
0.00705563
0.00633998
0.00551144
0.00374918
0.00192345
0.00216701
0.00213876
0.0021427
0.00215896
0.00103726
0.0011449
0.00115813
0.0011639
0.00109563
0.00124744
0.0018033
0.00290391
0.00208813
0.00172419
0.00119172
0.00139382
0.00232288
0.00392666
0.00443088
0.0045248
0.00470795
0.0062938
0.00690091
0.00729568
0.00761725
0.00781663
0.00772694
0.00749031
0.0070661
0.00652485
0.00630711
0.00594653
0.00562729
0.00544761
0.00526926
0.00493697
0.00385748
0.0037396
0.00389443
0.0038436
0.00367883
0.00393179
0.00407394
0.00407037
0.00411537
0.0041546
0.0042769
0.00442084
0.00454602
0.00461148
0.00463549
0.00464279
0.00465197
0.00465923
0.00467328
0.00465733
0.00455532
0.00400004
0.00250182
0.00146073
0.0013505
0.00148074
0.00156586
0.00160229
0.00142311
0.000916141
0.00142357
0.00184271
0.00188979
0.0020735
0.00213904
0.00226705
0.00252418
0.00291652
0.00300943
0.00267081
0.0025299
0.00247661
0.00241396
0.00206928
0.00257882
0.00283922
0.00283306
0.00280545
0.00303188
0.00373041
0.00358401
0.00316092
0.00312661
0.00309571
0.00280467
0.00276252
0.00301245
0.00304514
0.0031577
0.00370198
0.00443854
0.00411829
0.00375165
0.00359835
0.00332383
0.0029303
0.00264969
0.00324855
0.00266087
0.00141742
0.00121129
0.00119847
0.00120534
0.00116609
0.00138172
0.00145285
0.00147079
0.0013645
0.00151347
0.00168365
0.00162735
0.00184422
0.00182073
0.00163147
0.00161774
0.00174395
0.00183534
0.00188305
0.00194035
0.00317197
0.00327859
0.00253542
0.00366028
0.00421755
0.00417285
0.00442514
0.00364685
0.00327083
0.00388078
0.00447922
0.0051289
0.00405982
0.00384148
0.00392751
0.0018098
0.000952334
0.00134331
0.00166783
0.0018596
0.00180426
0.00170432
0.00144091
0.00255146
0.00262123
0.00414925
0.00465413
0.0047133
0.00468349
0.00481541
0.00530358
0.00616049
0.0068327
0.00703028
0.00692948
0.00663486
0.00608674
0.00553554
0.00548854
0.00528698
0.00513779
0.00508709
0.00440888
0.00391745
0.00419236
0.00411883
0.00425749
0.00432184
0.00436831
0.00441556
0.00449469
0.00459016
0.00467673
0.00473536
0.00477407
0.0048066
0.00484004
0.0048738
0.00491047
0.00492994
0.00488262
0.00441244
0.00264782
0.0015793
0.00144086
0.00153745
0.00180691
0.00190248
0.00204481
0.00181613
0.000956545
0.00112483
0.00195462
0.00216648
0.00200429
0.00187586
0.00184237
0.00154341
0.00279426
0.00275764
0.00432627
0.00486552
0.00493366
0.00492024
0.00488248
0.00484002
0.0048002
0.00476763
0.00474182
0.00471419
0.00467422
0.00462512
0.00457944
0.00453344
0.00445398
0.00434065
0.004219
0.00438315
0.00452994
0.00471228
0.00491822
0.00502979
0.00494329
0.00480484
0.00473621
0.00475938
0.0047988
0.00484047
0.00487814
0.00489624
0.00484228
0.00456419
0.00428378
0.00271457
0.00274966
0.00135443
0.00150454
0.001736
0.00179298
0.00194724
0.00193837
0.00152447
0.00118801
0.0013402
0.00125216
0.0022361
0.00245876
0.00272603
0.00269892
0.00146688
0.00150456
0.00156377
0.00176419
0.00164083
0.00158523
0.00389788
0.00373915
0.00391561
0.00480201
0.00413809
0.00285927
0.00313229
0.00435804
0.00459513
0.00277902
0.00208543
0.00231151
0.00292807
0.00431035
0.00436314
0.00414414
0.00412188
0.0030108
0.00370166
0.00445265
0.00433038
0.00337852
0.00232813
0.00173342
0.000844448
0.00160635
0.00137351
0.00336227
0.00372035
0.00367582
0.00401891
0.00427095
0.00431476
0.00419154
0.00371943
0.00379325
0.0038305
0.00436305
0.00438131
0.00371169
0.00313232
0.00254606
0.00256846
0.00261772
0.00290016
0.00363093
0.00342131
0.00299913
0.00290865
0.00284636
0.00267774
0.00241674
0.00212038
0.00213481
0.00198679
0.00192259
0.00303033
0.00403327
0.00475566
0.00489235
0.00494202
0.00486655
0.00483269
0.00469517
0.00462442
0.00401806
0.00513107
0.00542271
0.00523168
0.00526935
0.00530133
0.0053409
0.00534092
0.00524014
0.00450416
0.00269039
0.00175755
0.00198395
0.00214161
0.00201126
0.00199969
0.00213109
0.00202193
0.0017759
0.00287704
0.00281187
0.00449524
0.00508957
0.00519907
0.00520626
0.00518603
0.00516942
0.00517658
0.00544901
0.0053232
0.00538775
0.0056687
0.00568103
0.00575122
0.00540042
0.00533238
0.00528918
0.00526046
0.00521324
0.00508593
0.00450141
0.00436362
0.00495464
0.00510665
0.00517388
0.0052205
0.00527644
0.00535025
0.00556288
0.00572024
0.0057776
0.00554736
0.00546642
0.00534078
0.00516017
0.00511735
0.00510818
0.00510376
0.00507846
0.00494627
0.00435463
0.00280029
0.00286942
0.00170719
0.00171843
0.00197941
0.00207928
0.00204238
0.00189147
0.00184423
0.00316879
0.00360648
0.00383771
0.00413211
0.00394633
0.00392384
0.0044852
0.00434067
0.00387113
0.00402744
0.00361205
0.00344293
0.0033262
0.00334391
0.00176309
0.00190233
0.00198405
0.00195088
0.00186547
0.00166371
0.00152568
0.0027839
0.00276358
0.00272742
0.00162239
0.00158696
0.00186971
0.00181595
0.00166139
0.00141616
0.00155232
0.00239598
0.00267946
0.00415439
0.00430263
0.00460586
0.00492563
0.00504716
0.00508034
0.00510018
0.00512297
0.00517101
0.00522797
0.00524326
0.00524036
0.00528439
0.00527694
0.00527699
0.00524734
0.00521408
0.00517593
0.00513566
0.00507007
0.00493529
0.00461224
0.00429525
0.00484259
0.004887
0.004978
0.0050725
0.00511341
0.00512108
0.00510456
0.00507006
0.0050293
0.00498077
0.0049798
0.00511642
0.00514755
0.00517145
0.00515569
0.00513859
0.00513324
0.00511157
0.0050755
0.00498149
0.00488714
0.00484671
0.00476594
0.00489369
0.00495018
0.00495895
0.00500712
0.00508418
0.00510474
0.00510213
0.00506349
0.00503152
0.00499193
0.00492799
0.00484677
0.00456659
0.00462383
0.0046997
0.00479829
0.00489369
0.00497074
0.00501354
0.00501518
0.00496809
0.00493671
0.0049378
0.00489638
0.00491822
0.00494063
0.00491615
0.00491443
0.00492009
0.00486703
0.00476782
0.00462891
0.00448131
0.00435764
0.00429153
0.00418618
0.00451978
0.00464363
0.00475529
0.00485506
0.00494624
0.00503885
0.00506962
0.00506186
0.00500524
0.00497292
0.00497118
0.00492312
0.00492134
0.00496791
0.00497023
0.00499731
0.00504676
0.0050301
0.00496012
0.00478688
0.00461919
0.00447448
0.00433721
0.00419065
0.00413527
0.00420301
0.00415366
0.00421854
0.00436764
0.00455168
0.00470948
0.00480796
0.00483766
0.00486596
0.00490907
0.00490373
0.00487763
0.00486413
0.00480587
0.0047557
0.0046938
0.00455565
0.00437705
0.00421716
0.00416158
0.00424263
0.00432721
0.00424866
0.00395773
0.00411391
0.00425897
0.00440462
0.00461262
0.00485385
0.00496258
0.0050014
0.00497817
0.00495971
0.00495698
0.00491285
0.00489806
0.00493867
0.00494191
0.0049605
0.00499138
0.0049562
0.0048652
0.00456849
0.00421961
0.00405411
0.00395791
0.00382191
0.00426952
0.00435874
0.00425097
0.00417889
0.00429327
0.00442834
0.00456841
0.00466102
0.00469685
0.0047465
0.00481201
0.00484294
0.00479565
0.00474148
0.00467423
0.0046393
0.0046371
0.00461091
0.00451928
0.00441413
0.00429675
0.0044421
0.00452667
0.00444501
0.00402964
0.00409656
0.00418873
0.00423957
0.00456629
0.00485868
0.00493294
0.00494116
0.00491264
0.00489423
0.00489538
0.00486988
0.00482264
0.0048136
0.00480801
0.00486222
0.00493309
0.00496587
0.0049799
0.00475971
0.00437043
0.00431476
0.00414472
0.00406064
0.00450438
0.00455729
0.00445443
0.00435722
0.00456403
0.00465338
0.00468041
0.00466437
0.00461759
0.00458601
0.00464408
0.00473539
0.00466533
0.00436398
0.00409529
0.00423306
0.0042655
0.00425296
0.0041939
0.00409748
0.00389087
0.00434339
0.004784
0.0048205
0.00435221
0.0043592
0.00421115
0.00391038
0.00428748
0.00449377
0.00454284
0.0045319
0.00446697
0.0043002
0.00454428
0.00475829
0.0047181
0.00426999
0.00277137
0.00281013
0.00283145
0.00283498
0.00279773
0.00278756
0.00274697
0.00272617
0.00266297
0.00259897
0.00253739
0.00270682
0.00285214
0.00304704
0.00306303
0.00314352
0.00300929
0.0028493
0.00266092
0.00207013
0.00262704
0.00313436
0.00333075
0.00358293
0.00363583
0.00419566
0.0044153
0.00453622
0.0044517
0.00357061
0.00302914
0.00242057
0.00157406
0.000980758
0.00115147
0.00119787
0.00126192
0.00154694
0.00282503
0.00144344
0.00199618
0.00156142
0.0026798
0.00143521
0.000895476
0.000594239
0.000759735
0.000902877
0.000911888
0.000872664
0.000727021
0.000570221
0.000582807
0.000542514
0.000576233
0.000517513
0.000592649
0.000552911
0.000769436
0.00115019
0.00131457
0.00134423
0.0010867
0.00122608
0.0010244
0.00118177
0.00105554
0.00115047
0.00110376
0.00134976
0.00147923
0.00141607
0.00141981
0.00124246
0.000869078
0.00100743
0.000791604
0.000950583
0.000727545
0.000939695
0.000805805
0.00104713
0.00107948
0.00107639
0.00103639
0.000791757
0.000938642
0.000739173
0.000910482
0.000747902
0.000799909
0.000666197
0.000968052
0.000986101
0.000907693
0.000968969
0.00109002
0.0011701
0.00128698
0.00121359
0.00137936
0.00132814
0.00134121
0.00127043
0.00123557
0.00120748
0.00121004
0.00119009
0.00119646
0.00123481
0.00123643
0.00124106
0.00127987
0.00126096
0.00123021
0.00121164
0.00107665
0.000869033
0.00151407
0.0015613
0.0015848
0.00158458
0.0015494
0.00153164
0.00147847
0.00146432
0.00141844
0.00139173
0.00133009
0.0012797
0.001222
0.00137304
0.000768395
0.000872303
0.000920708
0.00094801
0.000966828
0.000975471
0.000982308
0.000976657
0.000964388
0.000940724
0.000932875
0.000907051
0.00116019
0.00131946
0.00137964
0.00139602
0.00130871
0.00124654
0.0027275
0.00330075
0.00501669
0.00512581
0.00384914
0.00383678
0.00132801
0.00140232
0.000958681
0.0013473
0.00138939
0.00137534
0.00129926
0.000937101
0.00140652
0.000980302
0.00132031
0.000993024
0.00122698
0.00102088
0.00145781
0.00185975
0.00179628
0.00162754
0.00112059
0.000934641
0.000940306
0.000802766
0.000879344
0.000716626
0.000873867
0.000733738
0.00108162
0.00152869
0.00169778
0.00173169
0.00136532
0.00188414
0.00141657
0.00205151
0.00162948
0.00201009
0.00161308
0.00186606
0.00230903
0.00231957
0.00226466
0.00182543
0.00146274
0.00164198
0.00145463
0.00167557
0.00242097
0.00158675
0.00240908
0.00099539
0.00135707
0.00139894
0.00137987
0.00130109
0.000876458
0.00223037
0.00117981
0.00209782
0.00135852
0.00217729
0.0015849
0.00210594
0.00251931
0.00263795
0.00263111
0.00214725
0.0019411
0.00201414
0.00160997
0.00193289
0.00143459
0.00207868
0.0011727
0.00152065
0.00167935
0.00176846
0.00177504
0.00145816
0.00288045
0.00180885
0.00273034
0.00189907
0.00243305
0.00195022
0.00213256
0.00251854
0.00250263
0.00248142
0.00210408
0.00170302
0.00224829
0.0016035
0.0478802
0.110516
0.0440172
0.111653
0.0505409
0.0717235
0.0706492
0.0707704
0.0710188
0.0533149
0.116342
0.137485
0.14341
0.145193
0.144147
0.232957
0.189998
0.285482
0.185109
0.108959
0.0472746
0.0651646
0.168121
0.277563
0.41639
0.528234
0.35994
0.372497
0.237685
0.23429
0.220526
0.178371
0.10935
0.0548487
0.00941038
0.0103028
0.0147302
0.0196119
0.0154651
0.00947464
0.00187147
0.00193105
0.00197446
0.00200172
0.00199537
0.00195425
0.00198745
0.00188003
0.00177041
0.00197964
0.00215711
0.00231124
0.00272091
0.00300717
0.00270996
0.00297132
0.00314965
0.00329444
0.00341354
0.00359117
0.00379151
0.00396841
0.00397848
0.00364632
0.00310824
0.00252975
0.00212785
0.00201636
0.0018937
0.00166999
0.00152793
0.00143146
0.00138428
0.00136453
0.00140197
0.00153184
0.00164415
0.00168345
0.00164997
0.00161956
0.00159304
0.00141841
0.00165827
0.00227461
0.00229294
0.00392824
0.00452618
0.00461999
0.00462611
0.00410216
0.00262085
0.00262641
0.00263985
0.00268992
0.00270035
0.00270672
0.00270373
0.00269354
0.0026777
0.002648
0.00263339
0.00259081
0.00255514
0.00246652
0.00247052
0.00250253
0.00252761
0.00248676
0.00249737
0.0024445
0.00315539
0.00422945
0.00479066
0.00500777
0.00519448
0.00504223
0.00697966
0.00595847
0.00418961
0.00413509
0.00408282
0.00484061
0.00487386
0.00440478
0.00442225
0.00402425
0.00251016
0.002499
0.00250051
0.00267305
0.00272494
0.00281961
0.00284541
0.00287007
0.00288404
0.00288167
0.0028806
0.00285754
0.00283906
0.00277626
0.00275523
0.0027465
0.00151419
0.00165236
0.00171345
0.00172421
0.00174774
0.0017366
0.00172514
0.00170411
0.00168963
0.00166116
0.00162753
0.00157951
0.0014853
0.00135366
0.00149027
0.00253131
0.00253148
0.00413259
0.00467061
0.0047045
0.00523168
0.00496805
0.00470582
0.00505046
0.00455746
0.00452232
0.00408408
0.00253401
0.00256831
0.00152305
0.00150888
0.00176326
0.00171378
0.00183143
0.00188125
0.00188768
0.00191398
0.00193971
0.00197105
0.00202143
0.00203706
0.00200715
0.00200211
0.00188659
0.00163041
0.00165014
0.00194531
0.00203978
0.00189277
0.00185792
0.00184277
0.00179731
0.0017627
0.00172928
0.00175165
0.00188564
0.00188388
0.00185121
0.00176186
0.00171666
0.00148935
0.00143925
0.00251582
0.00254539
0.00420194
0.00431907
0.00428755
0.0049327
0.00549932
0.00626105
0.00534053
0.00434193
0.00452171
0.00516762
0.00384039
0.00319146
0.00190133
0.00143279
0.00176706
0.00166107
0.00173072
0.00179321
0.00159256
0.00170992
0.00158096
0.00143653
0.00142868
0.0014269
0.0014626
0.00147747
0.00150451
0.00150814
0.00154487
0.00154149
0.0015466
0.00156562
0.0015753
0.00174066
0.00189347
0.00159294
0.00135013
0.0013141
0.00124072
0.00118074
0.00120936
0.00118019
0.00117297
0.0011513
0.00113176
0.00107976
0.00112525
0.00119389
0.00139661
0.00133751
0.00108115
0.000966079
0.0006605
0.000673253
0.000677916
0.000698914
0.000706542
0.000715954
0.000719428
0.000731226
0.000733502
0.000737223
0.000736932
0.000754919
0.000752351
0.000743794
0.000738192
0.000741941
0.000745532
0.000745088
0.001091
0.0012151
0.00132872
0.00157869
0.00185902
0.00159992
0.0013554
0.00116721
0.000750222
0.000761592
0.000775653
0.000782839
0.00079971
0.000814967
0.000832145
0.000842983
0.000851245
0.000859827
0.000868875
0.000872612
0.000870611
0.000853956
0.000844137
0.000865679
0.000951407
0.00100119
0.00106498
0.00108906
0.00110979
0.00112015
0.00111469
0.00112623
0.00111289
0.00111096
0.00109186
0.00108363
0.0010758
0.0010659
0.00105374
0.00102371
0.00101376
0.00106661
0.00180645
0.00236363
0.00272482
0.00300326
0.00277391
0.00224723
0.00236569
0.00415575
0.00393165
0.00232327
0.00216764
0.00199944
0.00174688
0.00152606
0.00184194
0.00210282
0.00230089
0.00247515
0.00263436
0.00274226
0.00288048
0.0030608
0.00338012
0.00342057
0.00312053
0.00252993
0.00214325
0.00200306
0.00193568
0.00181744
0.00168827
0.00173042
0.00174276
0.00169074
0.00162609
0.00160748
0.00163387
0.00166705
0.00164695
0.00164617
0.00147049
0.00147001
0.00251157
0.00256009
0.00393772
0.00414847
0.00418805
0.00269324
0.00265605
0.00155154
0.00144074
0.00157168
0.0016314
0.00163467
0.00164112
0.00163242
0.0016037
0.00158263
0.00155817
0.00153839
0.00152108
0.00149119
0.00143441
0.0013248
0.00144402
0.00161957
0.00169079
0.00170904
0.00171767
0.00174473
0.00178918
0.00182496
0.00190768
0.00191661
0.00191597
0.00192284
0.00179754
0.00185405
0.00156923
0.00156719
0.00271591
0.00270892
0.00155639
0.00183784
0.00185
0.0018284
0.00196811
0.00180106
0.00174386
0.00173404
0.00166051
0.00162137
0.00156937
0.00153838
0.00156882
0.00166929
0.00161694
0.0014326
0.00138233
0.00155011
0.00149027
0.0012364
0.00105626
0.00102704
0.000983035
0.000956353
0.00100231
0.0010381
0.00105852
0.0010845
0.00109223
0.00114002
0.00110937
0.00116447
0.00123488
0.0012909
0.00153138
0.00165934
0.00149908
0.00147028
0.00145202
0.00145004
0.0014545
0.00139453
0.00139055
0.00135955
0.00134431
0.00130391
0.00128567
0.0012625
0.00126677
0.00128029
0.00140759
0.00362751
0.00462259
0.00481422
0.0082135
0.00332152
0.00339276
0.00664147
0.00275278
0.00413569
0.00443206
0.00463472
0.0048394
0.00442818
0.0056145
0.00392642
0.00437024
0.00456307
0.00401372
0.00149104
0.00167383
0.00194391
0.00174831
0.00154491
0.00105359
0.00113706
0.00117471
0.00120519
0.00122507
0.00124698
0.00127049
0.00129253
0.00130803
0.00130835
0.00126874
0.00122598
0.00112769
0.00109494
0.00113736
0.00118122
0.00103773
0.000977154
0.000988775
0.00100518
0.00101442
0.00101648
0.00102659
0.00102938
0.00104529
0.00103693
0.00104503
0.00102728
0.00103656
0.00102283
0.00098779
0.000938803
0.000855344
0.00083482
0.00120234
0.00128023
0.00134494
0.00152585
0.00176153
0.00187947
0.00168441
0.00155308
0.00149078
0.00165388
0.0016538
0.00299969
0.00575419
0.00258099
0.00289315
0.00841173
0.00334931
0.0026083
0.00264799
0.00267589
0.0026795
0.00155736
0.00184469
0.00178882
0.00179555
0.00152277
0.00127834
0.00114658
0.00102521
0.000695076
0.000692711
0.000697942
0.00070853
0.000711805
0.000681361
0.000681281
0.000677388
0.000675857
0.000661532
0.000657536
0.000645915
0.000638864
0.000622131
0.000613048
0.000597049
0.000594063
0.000617111
0.000684079
0.000826373
0.000922776
0.00104698
0.00106695
0.00120745
0.00300243
0.00347981
0.00479194
0.00474924
0.00749238
0.00468024
0.00353608
0.00319903
0.00467927
0.00483327
0.00449341
0.00608822
0.00421363
0.00278568
0.00413195
0.00342493
0.00412686
0.00402679
0.00426431
0.00677399
0.00715086
0.00201774
0.00179916
0.00189322
0.00214758
0.00254951
0.00234578
0.00267312
0.0026669
0.00205447
0.00131574
0.00419131
0.00505366
0.00403764
0.00483332
0.00750675
0.00302071
0.00294645
0.00260734
0.00217631
0.00197815
0.0019514
0.00217565
0.00260341
0.00652893
0.00698115
0.00639261
0.00635459
0.00577149
0.00637927
0.00797221
0.00794968
0.00701885
0.00656768
0.00678665
0.00416919
0.00262381
0.00305698
0.00338401
0.00451433
0.00465493
0.00983591
0.0033338
0.00368489
0.00374187
0.00500777
0.00484476
0.00857654
0.00362702
0.00391393
0.00515671
0.00688648
0.0127135
0.00463064
0.00488394
0.00702682
0.00713138
0.00651839
0.00470832
0.00426826
0.0046534
0.00350513
0.0034261
0.00292674
0.00432227
0.00582163
0.00459646
0.00446359
0.00380077
0.00337341
0.00346454
0.0035928
0.00298351
0.00294316
0.00340005
0.00251492
0.00243036
0.00258426
0.00071606
0.000367126
0.000375386
0.000385123
0.000393027
0.000401146
0.000407115
0.000414157
0.000417384
0.000417699
0.000418745
0.000442841
0.000438832
0.000424965
0.000385895
0.000440405
0.000698874
0.000699392
0.000439958
0.000387887
0.000695883
0.0011089
0.00130731
0.00154682
0.00156616
0.00135117
0.00117142
0.000720922
0.00070963
0.000430186
0.000502391
0.000545591
0.000483872
0.000539959
0.000500419
0.0005301
0.000535409
0.000495356
0.000492641
0.000494569
0.000490761
0.000482071
0.000471408
0.000458399
0.000448071
0.000442225
0.000437432
0.000427306
0.000356075
0.000331471
0.000397359
0.000632237
0.000631209
0.000592179
0.000559312
0.00053143
0.000518992
0.000515703
0.000513031
0.000521996
0.000538912
0.000543666
0.000548387
0.000590878
0.00057274
0.00061179
0.000574083
0.000613392
0.000575801
0.000529671
0.000444748
0.000458869
0.000740161
0.000748028
0.00120878
0.00138306
0.00156852
0.00157674
0.00175995
0.0018532
0.00156911
0.00162902
0.0018672
0.00173936
0.00155072
0.00155666
0.00140041
0.00140151
0.0012412
0.000775569
0.000765006
0.000480509
0.00046664
0.000556442
0.000546666
0.000608013
0.000650651
0.000650883
0.000648762
0.000632043
0.000626135
0.000550682
0.000539936
0.00054064
0.000524212
0.000520562
0.000542239
0.000590575
0.00069199
0.000836574
0.00091132
0.000944021
0.000906441
0.000812127
0.000597805
0.000541376
0.000937014
0.000974281
0.00173262
0.00410124
0.00189231
0.00367005
0.0026498
0.000661054
0.000738161
0.000941412
0.00105499
0.00113881
0.00118597
0.00108278
0.000902667
0.000679831
0.000561616
0.000840924
0.000727236
0.000822258
0.000718299
0.000929484
0.0010748
0.00103984
0.00104775
0.000885541
0.00072151
0.000764107
0.000686185
0.000756412
0.000633199
0.000761886
0.000687874
0.000864448
0.000872564
0.000854412
0.000809879
0.00061666
0.000646999
0.000542713
0.000588687
0.000528506
0.000546204
0.000517609
0.000603568
0.000695486
0.00066745
0.00066481
0.000546205
0.00042796
0.000472637
0.000408538
0.000462374
0.000359301
0.000435302
0.000365091
0.000472584
0.00048707
0.000489403
0.000485762
0.000394709
0.000463965
0.000569533
0.000598494
0.000603619
0.000575229
0.000443297
0.000686138
0.000619672
0.000756704
0.000654759
0.000716503
0.000652552
0.000760589
0.000974037
0.00101686
0.00102361
0.000830402
0.000825202
0.00150461
0.0833877
0.00135345
0.00159969
0.00164947
0.00164345
0.0013588
0.00132585
0.00164174
0.00121482
0.00172
0.00108289
0.00183395
0.000699323
0.00106311
0.00114138