/*--------------------------------*- C++ -*----------------------------------*\
| =========                 |                                                 |
| \\      /  F ield         | OpenFOAM: The Open Source CFD Toolbox           |
|  \\    /   O peration     | Version:  v2012                                 |
|   \\  /    A nd           | Website:  www.openfoam.com                      |
|    \\/     M anipulation  |                                                 |
\*---------------------------------------------------------------------------*/
FoamFile
{
    version     2.0;
    format      ascii;
    class       volVectorField;
    location    "470";
    object      U;
}
// * * * * * * * * * * * * * * * * * * * * * * * * * * * * * * * * * * * * * //

dimensions      [0 1 -1 0 0 0 0];


internalField   nonuniform List<vector> 
18258
(
(-0.175969 0.113699 0.13888)
(-0.051514 0.244761 0.159077)
(-0.104684 0.212062 0.0963599)
(-0.0406539 0.0685055 0.0846949)
(-0.226187 0.200482 0.0193869)
(-0.15967 0.35828 0.0176572)
(-0.223206 0.0441721 0.0546037)
(-0.341631 -0.0537856 0.0757197)
(-0.448951 -0.106141 0.108415)
(-0.535997 -0.159849 0.145891)
(-0.621705 -0.217318 0.180028)
(-0.687962 -0.271693 0.309701)
(-0.678738 -0.334387 0.357345)
(-0.622293 -0.445569 0.385894)
(-0.487972 -0.543019 0.369367)
(-0.204852 -0.587336 0.340238)
(0.0741682 -0.374074 0.288544)
(0.0784378 -0.163861 0.298222)
(-0.128078 -0.0785946 0.236816)
(-0.400179 -0.273696 0.116762)
(-0.138768 -0.526217 0.292601)
(-0.198334 -0.365563 0.407127)
(-0.30331 -0.737471 0.301421)
(-0.363971 -0.779016 0.262574)
(-0.136012 -0.708052 0.132816)
(0.00375935 -0.645424 0.183241)
(-0.0175418 -0.340294 0.422815)
(0.173969 -0.113118 0.805163)
(0.298866 -0.0953982 0.893111)
(0.316442 0.057549 0.913604)
(0.317732 0.184905 0.814975)
(0.167033 0.301595 0.101079)
(0.0777085 0.131825 -0.430743)
(0.0114568 0.0801946 -0.723238)
(-0.0671444 0.0774848 -0.897908)
(-0.0573923 0.0736692 -1.0803)
(-0.0705923 0.0728701 -1.22018)
(-0.0988678 0.0909208 -1.31436)
(-0.1404 0.082151 -1.36196)
(-0.188006 0.0885526 -1.34789)
(-0.237562 0.0748975 -1.26375)
(-0.284057 0.0841199 -1.1099)
(-0.3228 0.0785661 -0.898974)
(-0.353662 0.0796111 -0.644422)
(-0.363424 0.0822852 -0.351514)
(-0.34651 0.07751 -0.153757)
(-0.157044 0.176899 -0.195354)
(0.361031 -0.0984599 -0.136784)
(0.627207 -0.130045 -0.157236)
(0.67404 -0.112669 -0.16679)
(0.78597 -0.136063 -0.176002)
(0.813308 -0.133408 -0.193527)
(0.507338 -0.00511229 -0.257422)
(0.259818 -0.138097 -0.218073)
(0.113418 -0.0421916 -0.158667)
(0.282147 -0.0098859 -0.169032)
(0.536957 -0.00268024 -0.173697)
(0.791072 -0.0302424 -0.178016)
(1.09135 -0.0348747 -0.175843)
(1.42697 -0.0490134 -0.18531)
(1.76146 -0.0647537 -0.183703)
(2.04555 -0.0813519 -0.166829)
(2.24625 -0.0930744 -0.138448)
(2.34663 -0.099223 -0.102905)
(2.35367 -0.0965647 -0.0683932)
(2.29371 -0.0888934 -0.0417781)
(2.20041 -0.0823748 -0.0250895)
(2.10805 -0.0762212 -0.0183102)
(2.03863 -0.0673977 -0.0192899)
(1.99294 -0.064544 -0.0239294)
(1.96849 -0.0593918 -0.0263533)
(1.95783 -0.0504888 -0.0208305)
(1.94347 -0.0399887 -0.00384715)
(1.89993 -0.0251754 0.0237075)
(1.81232 -0.00813823 0.0532804)
(1.69141 0.00922034 0.0765315)
(1.57056 0.021401 0.079362)
(1.47779 0.0303544 0.0747214)
(1.39966 0.0373682 0.0700762)
(1.33754 0.0500045 0.0627186)
(1.28672 0.0566613 0.0644333)
(1.19306 0.0438507 0.0778375)
(1.09587 0.0185638 0.109198)
(1.01283 0.000264236 0.126556)
(0.905446 -0.0213325 0.119397)
(0.761484 0.0164483 0.144786)
(0.640783 0.0815273 0.132455)
(0.517133 0.100511 0.133205)
(0.380142 0.117882 0.117571)
(0.223853 0.126686 0.0954068)
(0.119836 0.189833 0.0910382)
(0.121465 0.0109645 0.196625)
(0.163977 -0.100729 0.14242)
(0.112903 -0.129834 0.0379395)
(0.104318 -0.115041 -0.144376)
(0.216149 -0.210149 -0.373723)
(0.262307 -0.231349 -0.559093)
(0.203819 -0.137948 -0.73103)
(0.105183 -0.0796407 -0.712987)
(0.0361871 0.0600675 -0.487476)
(-0.0941738 0.233672 -0.145608)
(-0.217498 0.19242 0.182109)
(-0.23445 0.0644133 0.15696)
(-0.340349 0.0142562 0.171427)
(-0.274587 0.136409 0.180662)
(-0.248944 0.28514 -0.0400928)
(-0.106757 0.165187 -0.401007)
(0.0624683 0.00570098 -0.583515)
(0.332295 -0.0933461 -0.633562)
(0.494617 -0.229453 -0.492459)
(0.351023 -0.210861 -0.283104)
(0.271428 -0.192186 -0.103024)
(0.282655 -0.186888 0.037475)
(0.28037 -0.140122 0.158825)
(0.224665 -0.0989179 0.190599)
(0.395788 -0.0814253 0.179566)
(0.534823 -0.0634283 0.175105)
(0.587292 -0.0522076 0.163314)
(0.699137 -0.078887 0.159325)
(0.731587 -0.133879 0.130758)
(0.600222 -0.134383 0.133579)
(0.453898 -0.151876 0.138124)
(0.46099 -0.186105 0.0332871)
(0.61019 -0.162977 0.0492325)
(0.735501 -0.162149 0.0467106)
(0.903913 -0.141836 0.0791837)
(1.08756 -0.109938 0.108802)
(1.18898 -0.0777835 0.146413)
(1.20794 -0.0108476 0.138422)
(1.24513 -0.0092414 0.119109)
(1.3353 -0.00710591 0.138618)
(1.37723 -0.00190322 0.128699)
(1.3689 -0.012636 0.157309)
(1.32829 -0.0482423 0.192263)
(1.32263 -0.0511597 0.189184)
(1.28551 -0.0620407 0.150167)
(1.27877 -0.0601975 0.133255)
(1.2576 -0.0477048 0.106906)
(1.24904 -0.045703 0.108972)
(1.20114 0.00478802 0.1077)
(1.19412 0.0283173 0.136467)
(1.07629 0.137674 0.27046)
(1.22592 0.0532572 0.253211)
(1.21749 0.0204037 0.157419)
(1.26609 -0.0207394 0.126846)
(1.27828 -0.0249221 0.117571)
(1.28894 -0.0381889 0.142476)
(1.30785 -0.0415134 0.181803)
(1.3504 -0.0367362 0.215816)
(1.38621 -0.0367385 0.220744)
(1.42313 -0.0128885 0.182077)
(1.43644 -0.00208012 0.137057)
(1.5127 -0.00667438 0.150186)
(1.61078 -0.0168553 0.158327)
(1.75006 -0.0317564 0.142769)
(1.88218 -0.0543347 0.048256)
(1.96362 -0.0758055 -0.0719042)
(1.98301 -0.0906673 -0.164955)
(1.96561 -0.0966868 -0.201174)
(1.94935 -0.097029 -0.195117)
(1.9596 -0.0914157 -0.175377)
(2.00664 -0.0829073 -0.145053)
(2.08808 -0.070516 -0.108611)
(2.19914 -0.0603527 -0.0850006)
(2.31297 -0.0600445 -0.113982)
(2.38942 -0.0611246 -0.174325)
(2.39171 -0.0586977 -0.277989)
(2.28561 -0.0504012 -0.392927)
(2.07017 -0.0426617 -0.484124)
(1.76988 -0.0368219 -0.540477)
(1.42617 -0.0316511 -0.549206)
(1.08026 -0.0193633 -0.527976)
(0.791901 -0.0244258 -0.459529)
(0.536412 -0.015824 -0.41548)
(0.282761 -0.0213715 -0.386732)
(0.109121 -0.0400722 -0.360537)
(0.102262 -0.0418782 -0.636902)
(0.0773699 -0.0370943 -0.872789)
(0.0506578 -0.0391097 -1.05712)
(0.0117415 -0.0404461 -1.17563)
(-0.0234008 -0.0281625 -1.21529)
(-0.0600646 -0.0156906 -1.16764)
(-0.0938267 0.00337731 -1.03856)
(-0.119238 0.0272744 -0.820988)
(-0.12107 0.0842968 -0.559519)
(-0.146701 0.132423 -0.0358638)
(-0.193627 0.0252245 0.572483)
(-0.20968 -0.0340683 0.758969)
(-0.227998 -0.00291242 0.927443)
(-0.233171 -0.0459729 1.06953)
(-0.318801 -0.105638 1.13267)
(-0.371897 -0.112781 1.14516)
(-0.370488 -0.234241 1.00486)
(-0.299114 -0.253015 0.771028)
(-0.460583 -0.669162 0.687319)
(-0.485888 -0.546957 0.705132)
(-0.414005 -0.414419 0.832734)
(-0.549395 -0.768299 0.85884)
(-0.683801 -0.83361 0.606643)
(-0.474473 -0.75629 0.799937)
(-0.435649 -0.575884 0.742661)
(-0.783522 -0.526176 0.750458)
(-0.902468 -0.409343 0.860735)
(-0.53062 -0.707617 0.825366)
(-0.440016 -0.577614 0.666549)
(-0.320388 -0.319849 0.406401)
(-0.299536 -0.181911 0.400336)
(-0.28312 -0.145807 0.354145)
(-0.234588 0.111124 0.115081)
(-0.162389 0.297744 -0.417524)
(-0.152119 0.189091 -0.638039)
(-0.13226 0.0286871 -0.913003)
(-0.0871154 -0.0570488 -1.08507)
(-0.0288671 -0.0695678 -1.23299)
(0.0382037 -0.102136 -1.26787)
(0.0978525 -0.0987657 -1.23301)
(0.17239 -0.109396 -1.11928)
(0.216398 -0.123581 -0.919593)
(0.260764 -0.14682 -0.705271)
(0.249702 -0.139486 -0.398319)
(0.419198 -0.0501155 -0.637141)
(0.773822 -0.118717 -0.456181)
(0.729622 -0.109784 -0.411327)
(0.631199 -0.0756324 -0.403804)
(0.566847 -0.104988 -0.40977)
(0.129269 -0.0999774 -0.520249)
(0.176938 -0.115695 -0.905981)
(0.257431 -0.223873 -1.05822)
(0.342792 -0.282055 -0.946894)
(0.389414 -0.35141 -0.507788)
(0.199341 0.0410047 0.130103)
(0.265536 0.122707 0.180159)
(0.429236 -0.32424 0.336172)
(0.516238 -0.529128 0.506011)
(0.545718 -0.522901 0.552439)
(0.412669 -0.235544 0.67838)
(0.471586 -0.338008 0.565042)
(0.48692 -0.610119 0.5459)
(0.704061 -0.673094 0.318345)
(0.746262 -0.489154 0.453858)
(0.798583 -0.345821 0.599648)
(0.235954 -0.225956 0.576883)
(-0.235682 -0.269248 0.829652)
(-0.17193 -0.191566 0.681086)
(-0.672621 -0.299137 0.820168)
(-0.46901 -0.1833 0.695905)
(-0.319877 -0.00546479 0.543825)
(-0.218756 0.17743 -0.292793)
(-0.192708 -0.0424913 -0.615739)
(-0.0575261 -0.169333 -1.09903)
(0.104273 -0.158398 -1.24905)
(0.275747 -0.0875784 -1.11736)
(0.436775 -0.108442 -0.698119)
(0.507012 -0.0741687 -0.62196)
(0.501775 -0.0435434 -0.610713)
(0.553474 -0.0877331 -0.63504)
(0.595597 -0.120964 -0.727426)
(0.40255 -0.0429005 -0.678749)
(0.360949 -0.0794768 -0.65922)
(0.135451 -0.11413 -0.668204)
(-0.111633 -0.0487977 -0.579617)
(0.296188 0.0056945 -0.589429)
(0.35589 0.0153248 -0.607066)
(0.64125 -0.0967844 -0.643296)
(0.575281 -0.097713 -0.370868)
(0.271188 0.0740642 -0.35695)
(0.273232 0.0549654 -0.23668)
(-0.303541 -0.039279 0.118327)
(-0.308467 0.142842 -0.0057785)
(-0.283536 -0.0254449 -0.44775)
(0.0885486 -0.202059 -0.575181)
(0.361926 -0.280641 -0.568562)
(0.726006 -0.346684 -0.40552)
(0.810148 -0.419689 -0.377742)
(0.771262 -0.29155 -0.295235)
(0.81259 -0.366044 -0.219365)
(0.827368 -0.488152 -0.284048)
(0.740422 -0.433541 -0.278233)
(0.719607 -0.306816 -0.33108)
(0.74686 -0.252444 -0.34135)
(0.792492 -0.312272 -0.211938)
(0.804817 -0.367973 -0.160483)
(0.891937 -0.465715 -0.15674)
(1.15752 -0.632356 -0.117979)
(1.61592 -0.727999 -0.0992096)
(1.99313 -0.673836 -0.0385607)
(2.14995 -0.492043 0.04695)
(2.07051 -0.292991 0.0950553)
(1.90535 -0.164714 0.102782)
(1.80766 -0.0962626 0.0992544)
(1.71072 -0.0011584 0.0987576)
(1.57299 0.0871551 0.0908826)
(1.43543 0.105392 0.0478581)
(1.33078 0.0556578 0.027087)
(1.24087 -0.00634588 0.0213277)
(1.13902 -0.0557335 0.0229781)
(1.05507 -0.0802304 0.021112)
(0.997171 -0.0636365 0.0165939)
(0.820843 -0.111163 -0.0242071)
(0.71605 0.00129997 0.00926462)
(0.632779 0.067286 0.0084722)
(0.49723 0.0218005 0.00612058)
(0.35916 -0.0617998 -0.013482)
(0.138971 -0.147402 -0.0324262)
(0.225455 -0.308619 0.00134004)
(0.353186 -0.0820768 0.0119977)
(-0.00260834 -0.230452 -0.00924493)
(0.0428826 -0.546232 -0.0505395)
(0.0118816 -0.712795 -0.0526782)
(-0.00815404 -0.876723 -0.0532974)
(-0.0261054 -1.00676 -0.0650229)
(-0.0361451 -1.10268 -0.095932)
(-0.0466924 -1.15705 -0.105233)
(-0.0582395 -1.21432 -0.11836)
(-0.0884663 -1.27603 -0.13435)
(-0.11356 -1.32073 -0.149664)
(-0.137532 -1.35442 -0.162582)
(-0.15956 -1.37607 -0.173644)
(-0.178585 -1.38741 -0.18331)
(-0.193995 -1.38909 -0.190027)
(-0.206147 -1.38203 -0.193885)
(-0.216195 -1.36737 -0.194011)
(-0.224784 -1.3455 -0.192097)
(-0.233092 -1.31506 -0.186651)
(-0.240774 -1.27418 -0.178292)
(-0.246229 -1.21993 -0.165235)
(-0.24411 -1.15079 -0.14747)
(-0.191129 -1.07135 -0.127065)
(-0.141333 -0.968742 -0.112711)
(-0.165904 -0.86828 -0.079603)
(-0.189942 -0.754374 -0.0820197)
(-0.205168 -0.542905 -0.08562)
(-0.27402 -0.450079 -0.0921271)
(0.0222954 0.0534761 -0.116336)
(-0.350937 -0.308256 0.0250622)
(-0.231809 -0.617399 -0.0547075)
(-0.270595 -0.0992265 -0.0111922)
(-0.458305 -0.182388 0.064485)
(-0.679068 -0.198608 0.0822031)
(-0.84257 -0.209193 0.114027)
(-0.954048 -0.223048 0.144149)
(-1.0348 -0.232447 0.203713)
(-1.11811 -0.244251 0.245225)
(-1.1873 -0.244154 0.301948)
(-1.20101 -0.248397 0.33622)
(-1.17408 -0.250175 0.366145)
(-1.1072 -0.248905 0.394463)
(-0.996446 -0.243252 0.422668)
(-0.841885 -0.230289 0.454097)
(-0.668102 -0.206098 0.493531)
(-0.420972 -0.147129 0.542612)
(-0.138263 -0.118551 0.566577)
(-0.156624 0.0285222 0.822475)
(-0.159971 0.0830106 1.04264)
(-0.159605 0.115303 1.11241)
(-0.1608 0.164429 1.02098)
(-0.164443 0.153527 0.838307)
(-0.151789 0.131467 0.567875)
(-0.124213 0.143539 0.285867)
(-0.225572 0.439656 0.371062)
(-0.507286 0.467589 0.335318)
(-0.692273 0.480589 0.339362)
(-0.917167 0.465282 0.332771)
(-1.09925 0.424485 0.308687)
(-1.22618 0.353021 0.265895)
(-1.28172 0.273121 0.218725)
(-1.26436 0.205996 0.181468)
(-1.23134 0.147818 0.158195)
(-1.18843 0.115135 0.14029)
(-1.09904 0.0924436 0.0901567)
(-0.957357 0.0450738 0.0698195)
(-0.766136 -0.0208027 0.0593811)
(-0.49993 -0.114022 0.0189812)
(-0.252543 -0.207726 -0.0191074)
(-0.273664 -0.197507 -0.0665471)
(-0.317958 -0.176947 0.00764372)
(-0.314173 -0.174146 0.0587279)
(-0.272288 -0.1565 0.14976)
(-0.380629 -0.233606 0.117305)
(-0.422453 -0.296867 0.117335)
(-0.326379 -0.287894 0.176012)
(-0.269341 -0.214867 0.0438171)
(-0.140884 -0.100612 -0.0270355)
(-0.140866 -0.0767998 -0.00851655)
(-0.13876 -0.074114 -0.0363948)
(-0.169501 -0.0556523 -0.0686424)
(-0.167944 -0.501491 -0.149359)
(-0.126407 -0.479579 -0.13935)
(-0.110738 -0.447037 -0.097093)
(-0.100582 -0.423906 -0.147147)
(-0.26625 -0.537764 -0.0327429)
(-0.275801 -0.575073 -0.0271819)
(-0.28297 -0.631284 -0.0856915)
(-0.336806 -0.582654 -0.0217854)
(-0.339814 -0.52975 0.0537118)
(-0.301212 -0.358991 0.0837936)
(-0.444142 -0.316966 0.113739)
(-0.361095 -0.431682 0.0392594)
(-0.346726 -0.522454 0.012679)
(-0.377496 -0.508418 -0.0251522)
(-0.428248 -0.394436 0.0309651)
(-0.497039 -0.346551 0.0722108)
(-0.528628 -0.254851 0.163051)
(-0.590938 -0.215449 0.240729)
(-0.679819 -0.197554 0.255299)
(-0.576282 -0.206708 0.210907)
(-0.516479 -0.187826 0.180546)
(-0.544721 -0.184979 0.117282)
(-0.539284 -0.172066 0.0914865)
(-0.495701 -0.18426 0.000555492)
(-0.760982 -0.0867021 0.0643083)
(-0.970918 -0.00546255 0.0894404)
(-1.07849 0.052051 0.103335)
(-1.12766 0.0749387 0.137897)
(-1.16541 0.035787 0.237536)
(-1.2501 0.0689642 0.266804)
(-1.31617 0.11937 0.348689)
(-1.32992 0.170807 0.4314)
(-1.27284 0.221899 0.523947)
(-1.1482 0.260948 0.603739)
(-0.975703 0.281379 0.648447)
(-0.775614 0.283614 0.657678)
(-0.623305 0.288682 0.644698)
(-0.342418 0.272395 0.64453)
(-0.43623 0.244868 0.875107)
(-0.468307 0.22752 1.00342)
(-0.461209 0.179688 1.08186)
(-0.442004 0.123452 1.01403)
(-0.440592 0.0583707 0.798072)
(-0.71176 -0.00513599 0.744475)
(-0.722373 0.0714346 0.944862)
(-0.741115 0.117261 1.02362)
(-0.74599 0.164247 0.979683)
(-0.695709 0.198762 0.872831)
(-0.838254 0.186372 0.862731)
(-0.880175 0.145888 0.96522)
(-0.88306 0.0883738 1.00116)
(-0.87337 0.0420052 0.926445)
(-0.867059 -0.0389868 0.707035)
(-1.01018 -0.0602391 0.675812)
(-1.02469 0.0205768 0.901118)
(-1.03764 0.069602 0.966251)
(-1.04582 0.122065 0.944242)
(-1.02086 0.174091 0.854272)
(-1.16434 0.16301 0.804063)
(-1.16491 0.110603 0.892734)
(-1.14822 0.0571826 0.914515)
(-1.13109 0.00650971 0.859367)
(-1.11107 -0.0730099 0.640031)
(-1.1711 -0.0836481 0.595387)
(-1.19656 -0.00617375 0.796731)
(-1.22287 0.0436476 0.839938)
(-1.25218 0.0918482 0.811382)
(-1.2698 0.141373 0.716749)
(-1.31916 0.110848 0.609975)
(-1.29074 0.0688493 0.709043)
(-1.25237 0.0250144 0.747032)
(-1.21704 -0.0217007 0.716214)
(-1.18701 -0.0934419 0.539638)
(-1.15373 -0.104671 0.472565)
(-1.18177 -0.0413594 0.621161)
(-1.22052 0.000207595 0.640458)
(-1.27478 0.0391521 0.606171)
(-1.30778 0.0742483 0.508866)
(-1.22469 0.0356869 0.414001)
(-1.188 0.00287936 0.499795)
(-1.12835 -0.0321726 0.530875)
(-1.08621 -0.0600676 0.519954)
(-1.04007 -0.111736 0.386628)
(-0.91918 -0.120105 0.315072)
(-0.92341 -0.109344 0.357954)
(-0.972721 -0.0803557 0.438019)
(-0.956636 -0.0870101 0.424785)
(-0.927625 -0.102627 0.394289)
(-1.00429 -0.0684183 0.380981)
(-0.995969 -0.0630751 0.306994)
(-1.00062 -0.0391717 0.282382)
(-1.04361 -0.0272007 0.208776)
(-1.03861 -0.00955388 0.20212)
(-0.805901 -0.105172 0.145012)
(-0.818798 -0.12519 0.157437)
(-0.787877 -0.128385 0.215784)
(-0.823828 -0.141461 0.248892)
(-0.609808 -0.281635 0.132512)
(-0.556762 -0.291339 0.114215)
(-0.503296 -0.326756 0.131779)
(-0.419931 -0.399451 0.115286)
(-0.396683 -0.383876 0.148699)
(-0.487954 -0.284064 0.164521)
(-0.605758 -0.238991 0.182941)
(-0.614996 -0.267793 0.0962088)
(-0.513177 -0.377802 0.0432265)
(-0.439378 -0.459941 0.0272947)
(-0.397178 -0.526145 0.0568187)
(-0.383833 -0.697707 0.120977)
(-0.386933 -0.663085 0.126848)
(-0.405179 -0.380174 0.105674)
(-0.40806 -0.536384 0.0802448)
(-0.399041 -0.601705 0.0424719)
(-0.215568 -0.787912 -0.160149)
(-0.193265 -0.793625 -0.260665)
(-0.1153 -0.703664 -0.370042)
(-0.0785754 -0.623586 -0.386096)
(-0.0451098 -0.588253 -0.348326)
(-0.0135383 -0.555205 -0.301821)
(0.031644 -0.501197 -0.232125)
(0.124113 -0.45462 -0.108929)
(0.124697 -0.579164 -0.121932)
(0.11682 -0.635415 -0.120178)
(0.0848977 -0.693297 -0.157712)
(0.0923308 -0.747869 -0.155921)
(0.100514 -0.804471 -0.175118)
(0.118295 -0.832717 -0.167166)
(0.126318 -0.839353 -0.152911)
(0.126499 -0.825336 -0.130257)
(0.117758 -0.789076 -0.0957321)
(0.10425 -0.73187 -0.0422826)
(0.0363346 -0.650737 0.0341033)
(0.00247208 -0.540992 0.155751)
(0.0171311 -0.293673 0.362738)
(-0.152474 0.0227138 0.44861)
(-0.369559 0.097492 0.349052)
(-0.393872 -0.0376072 0.257405)
(-0.220712 -0.173097 0.251395)
(-0.182533 -0.190597 0.268133)
(-0.159796 -0.181105 0.215109)
(-0.0970776 -0.148993 0.207019)
(-0.00475614 -0.051158 0.0764458)
(-0.0330969 0.105246 0.0818222)
(-0.0801385 0.142859 0.0809678)
(-0.048445 0.208247 0.17233)
(-0.002037 0.174168 0.195928)
(0.015372 0.0164013 0.145395)
(-0.0510518 -0.038332 0.231215)
(0.022644 0.0823661 0.3275)
(-0.00512387 -0.0705038 0.288316)
(0.0741026 0.139412 0.250151)
(0.088936 -0.0249172 0.226081)
(-0.0228858 -0.251327 0.455233)
(0.048114 -0.354296 0.545052)
(0.171437 -0.496431 0.51672)
(0.169351 -0.689167 0.354167)
(0.0767255 -0.814117 0.145976)
(0.0589179 -0.886715 -0.00675051)
(0.0655663 -0.921986 -0.11914)
(0.0634375 -0.948684 -0.197551)
(0.0603565 -0.963497 -0.248781)
(0.0522311 -0.961844 -0.279592)
(0.0420618 -0.942044 -0.293022)
(0.0294462 -0.904539 -0.28989)
(0.0238299 -0.829613 -0.250047)
(0.00743268 -0.783977 -0.329273)
(0.0436456 -0.703086 -0.225606)
(0.0477219 -0.652886 -0.211505)
(0.044913 -0.635546 -0.232272)
(0.00471237 -0.701526 -0.325783)
(-0.022549 -0.741256 -0.383735)
(-0.0573037 -0.776764 -0.411513)
(-0.0731832 -0.843644 -0.402381)
(-0.131808 -0.90404 -0.346831)
(-0.093827 -0.968369 -0.33291)
(-0.0887902 -0.97907 -0.373995)
(-0.0537162 -0.917755 -0.418803)
(-0.0435195 -0.867678 -0.432626)
(-0.0177096 -0.825342 -0.404939)
(-0.00946963 -0.868733 -0.3418)
(-0.0391733 -0.901164 -0.374874)
(-0.0558967 -0.94793 -0.397393)
(-0.0235741 -0.990933 -0.406498)
(-0.0485374 -1.05926 -0.421379)
(-0.0665512 -1.04194 -0.424974)
(-0.0932832 -0.919819 -0.345846)
(-0.186304 -0.761362 -0.225317)
(-0.197512 -0.614396 -0.0418155)
(-0.0995438 -0.733007 -0.198163)
(-0.0793766 -0.838973 -0.260792)
(-0.0592923 -0.928153 -0.324642)
(-0.0609082 -0.945667 -0.33531)
(-0.0278999 -0.828951 -0.38248)
(-0.024133 -0.723998 -0.338901)
(-0.0323221 -0.541357 -0.25591)
(-0.016686 -0.353037 -0.165896)
(0.0355786 -0.0886615 -0.211912)
(-0.246374 -0.433117 0.0723847)
(-0.327589 -0.460748 0.0256901)
(0.218279 -0.11937 -0.243457)
(-0.173029 -0.247217 0.0425117)
(-0.218035 -0.266399 -0.118049)
(-0.258342 -0.268662 -0.104083)
(-0.208417 -0.281514 -0.0218713)
(0.0810551 0.141106 -0.21969)
(0.102629 0.0600136 -0.232616)
(0.100724 -2.97399e-05 -0.261964)
(0.095783 -0.000245419 -0.266645)
(-0.0805928 -0.429423 -0.202912)
(-0.133388 -0.449775 -0.223474)
(-0.186502 -0.458104 -0.207234)
(-0.249444 -0.444907 -0.169575)
(-0.169124 -0.547168 -0.184567)
(-0.12699 -0.55898 -0.257784)
(-0.096468 -0.565266 -0.292234)
(-0.0609557 -0.553492 -0.2928)
(-0.0510215 -0.742455 -0.350006)
(-0.0817684 -0.757082 -0.332796)
(-0.106482 -0.769392 -0.282265)
(-0.147312 -0.759688 -0.19509)
(-0.134619 -0.821429 -0.182629)
(-0.1289 -0.882336 -0.20064)
(-0.0982385 -0.904973 -0.297922)
(-0.0727908 -0.872068 -0.37454)
(-0.0494025 -0.85183 -0.401106)
(-0.0770419 -0.967316 -0.371704)
(-0.112345 -0.989047 -0.336469)
(-0.138274 -1.00931 -0.284183)
(-0.137394 -1.09194 -0.347382)
(-0.0802849 -1.06626 -0.400065)
(-0.0727011 -1.14389 -0.441583)
(-0.0493995 -1.12231 -0.474268)
(-0.0268331 -1.1133 -0.459597)
(-0.00314607 -1.04147 -0.416099)
(0.0122702 -1.0734 -0.407101)
(-0.0126365 -1.15181 -0.470354)
(-0.0398971 -1.17894 -0.494837)
(-0.0687247 -1.20717 -0.463558)
(-0.131773 -1.22774 -0.379523)
(-0.135116 -1.16544 -0.369632)
(-0.283946 -1.04566 -0.225496)
(-0.457784 -1.14516 -0.0769702)
(-0.464174 -1.09923 -0.0674946)
(-0.41637 -1.0449 -0.0648338)
(-0.303166 -1.03543 -0.0739319)
(-0.255914 -0.966714 -0.0641434)
(-0.309473 -0.944225 -0.0577275)
(-0.342603 -0.848451 -0.0422921)
(-0.378329 -0.713196 -0.037963)
(-0.474063 -0.626584 -0.0367835)
(-0.410157 -0.401355 -0.0341955)
(-0.465242 -0.660574 -0.00588112)
(-0.316986 -0.4575 0.0245346)
(-0.63878 -0.398674 0.00539863)
(-0.815693 -0.379303 0.0601205)
(-0.918161 -0.384446 0.0845914)
(-0.968122 -0.397232 0.124309)
(-0.980105 -0.52524 0.0977411)
(-0.940515 -0.689297 0.0653486)
(-0.92424 -0.750016 0.0524822)
(-0.874777 -0.848302 0.0364355)
(-0.859177 -0.895448 0.0304632)
(-0.821342 -0.927712 0.00761026)
(-0.704078 -0.967317 -0.0230219)
(-0.592904 -1.00181 -0.0420282)
(-0.627143 -0.95244 -0.0172258)
(-0.485331 -0.971428 -0.0307475)
(-0.50325 -0.893176 -0.030163)
(-0.530865 -0.796768 -0.0233225)
(-0.559711 -0.730629 -0.0195165)
(-0.686806 -0.712253 -0.00981602)
(-0.675354 -0.598036 -0.00780554)
(-0.824487 -0.577131 0.0303267)
(-0.918775 -0.559516 0.0503882)
(-0.8817 -0.696922 0.0231348)
(-0.800781 -0.704438 0.0121852)
(-0.777914 -0.789574 0.00227312)
(-0.661304 -0.798013 -0.0107865)
(-0.636154 -0.882353 -0.017052)
(-0.748867 -0.865974 -0.00514302)
(-0.825874 -0.85039 0.00443796)
(-0.863489 -0.772833 0.0135041)
(-0.801984 -0.738745 -0.0117945)
(-0.624375 -0.611897 0.0017935)
(-0.847489 -0.659526 0.011662)
(-0.868393 -0.518247 0.052013)
(-0.870802 -0.379725 0.0580846)
(-0.84362 -0.282175 0.121515)
(-0.832645 -0.302186 0.0764632)
(-0.879269 -0.350586 0.0525276)
(-0.875491 -0.203871 0.128976)
(-0.894445 -0.18419 0.174017)
(-0.760955 -0.161464 0.158363)
(-0.766587 -0.129002 0.259029)
(-0.777781 -0.120706 0.301721)
(-0.821363 -0.108596 0.355059)
(-0.828781 -0.119218 0.352322)
(-0.642201 -0.181643 0.250639)
(-0.607356 -0.173558 0.2481)
(-0.567514 -0.180405 0.215267)
(-0.551166 -0.175548 0.188741)
(-0.568973 -0.191144 0.120215)
(-0.338467 -0.19466 0.076565)
(-0.320281 -0.189156 0.101439)
(-0.329307 -0.191881 0.113808)
(-0.360592 -0.198739 0.12394)
(-0.449021 -0.216821 0.14118)
(-0.405125 -0.253281 0.0590449)
(-0.381948 -0.284819 0.0676485)
(-0.410519 -0.340861 0.0464259)
(-0.315838 -0.426671 0.0351786)
(-0.311589 -0.394138 0.0483113)
(-0.283516 -0.415979 0.014766)
(-0.192883 -0.419225 -0.0212576)
(-0.336993 -0.253952 0.0347311)
(-0.402834 -0.33068 0.0405489)
(-0.248202 -0.457117 -0.00731941)
(-0.291582 -0.459495 -0.00041371)
(-0.45164 -0.321034 0.0714309)
(-0.52441 -0.298843 0.13082)
(-0.497932 -0.318505 0.135954)
(-0.470919 -0.336668 0.111051)
(-0.458831 -0.350497 0.0940702)
(-0.493382 -0.373047 0.00839927)
(-0.710948 -0.317704 0.0630484)
(-0.718083 -0.529669 0.0388369)
(-0.549273 -0.554172 -0.00195466)
(-0.510186 -0.606824 -0.00423255)
(-0.465994 -0.649092 -0.0177377)
(-0.437206 -0.652366 -0.0215201)
(-0.413079 -0.53084 -0.0233648)
(-0.411365 -0.540878 -0.0486861)
(-0.410251 -0.541334 -0.0346054)
(-0.335599 -0.550365 -0.0174302)
(-0.267686 -0.595779 -0.00769051)
(-0.319823 -0.580724 -0.00391624)
(-0.403604 -0.512868 0.0068162)
(-0.332141 -0.535268 -0.00449153)
(-0.439029 -0.630213 -0.0121219)
(-0.293069 -0.473125 -0.00545897)
(-0.210573 -0.539593 -0.0186932)
(-0.281367 -0.524504 -0.0166444)
(-0.394602 -0.43598 -0.00101119)
(-0.414031 -0.362673 -0.0106723)
(-0.260737 -0.394146 -0.0113645)
(-0.157133 -0.422769 -0.0367487)
(-0.136517 -0.399324 -0.0230814)
(-0.238294 -0.20522 0.0219705)
(-0.382798 -0.342813 -0.00232267)
(-0.252001 -0.474462 -0.0201049)
(-0.21929 -0.46787 -0.0240535)
(-0.122226 -0.392659 -0.0304586)
(-0.219284 -0.19436 0.0387983)
(-0.34701 -0.337868 0.0118553)
(-0.366318 -0.363178 0.0539346)
(-0.195994 -0.510972 -0.0112559)
(-0.174225 -0.467929 0.0182378)
(-0.11008 -0.420061 0.00141108)
(-0.22239 -0.228955 0.0443105)
(-0.325998 -0.341799 0.0520562)
(-0.335127 -0.338877 0.0566288)
(-0.180702 -0.463118 0.0162506)
(-0.109389 -0.408829 -0.000438832)
(-0.231959 -0.220366 0.0616925)
(-0.285982 -0.221382 0.0770295)
(-0.240491 -0.23016 0.0707531)
(-0.350388 -0.336924 0.0780861)
(-0.18978 -0.465219 0.0478385)
(-0.117915 -0.415532 0.0367791)
(-0.140606 -0.449616 -0.00446163)
(-0.196598 -0.497506 0.0252277)
(-0.381754 -0.350592 0.0788156)
(-0.33445 -0.625333 -0.00396021)
(-0.355867 -0.632032 -0.0119326)
(-0.499489 -0.511765 0.0577387)
(-0.651473 -0.444613 0.098198)
(-0.66689 -0.286712 0.136237)
(-0.798301 -0.271528 0.170427)
(-0.890991 -0.320697 0.166333)
(-1.02108 -0.48879 0.125968)
(-1.10787 -0.495117 0.167696)
(-1.13275 -0.50275 0.192858)
(-1.11279 -0.505115 0.215852)
(-1.04952 -0.501408 0.238734)
(-0.943959 -0.490474 0.26062)
(-0.795075 -0.467157 0.28721)
(-0.640473 -0.432092 0.326737)
(-0.397932 -0.38062 0.395208)
(-0.164083 -0.292283 0.482837)
(0.039594 -0.150066 0.487029)
(0.33535 -0.158311 0.42833)
(0.336432 -0.216782 0.378535)
(0.204729 -0.12716 0.488014)
(0.2721 -0.00250282 0.766925)
(0.283318 0.0468677 1.03236)
(0.268614 0.0817431 1.14213)
(0.25071 0.134119 1.09161)
(0.21293 0.123257 0.954694)
(0.142461 0.121359 0.703251)
(0.0395617 0.186983 0.404131)
(0.174552 0.512423 0.4248)
(0.419826 0.513437 0.374249)
(0.605404 0.538517 0.375644)
(0.850209 0.498015 0.351387)
(1.00909 0.417732 0.317466)
(1.07471 0.323569 0.273559)
(1.06044 0.256291 0.233627)
(1.01273 0.211154 0.19771)
(1.03256 0.158627 0.16655)
(1.04552 0.118777 0.143761)
(0.986234 0.0928921 0.0904036)
(0.881361 0.0424484 0.0677468)
(0.716245 -0.0225677 0.0543823)
(0.471559 -0.109635 0.0208453)
(0.244257 -0.217335 -0.0213935)
(0.104127 -0.623368 -0.10934)
(0.179463 -0.385602 -0.0799063)
(-0.17781 -0.172778 0.00775546)
(-0.0994665 -0.392305 -0.0371315)
(-0.108719 -0.312357 -0.0636033)
(-0.110729 -0.33763 -0.0721001)
(-0.108155 -0.296174 -0.0627257)
(-0.0763634 -0.220104 -0.0568617)
(-0.141601 -0.174668 -0.0408388)
(-0.219986 0.14305 0.121301)
(-0.140138 0.436097 0.115657)
(-0.0373238 0.551744 0.0671014)
(0.0441529 0.628509 0.106091)
(0.131602 0.679811 0.205763)
(0.224923 0.736485 0.302144)
(0.315489 0.772588 0.33853)
(0.397724 0.768233 0.366908)
(0.474738 0.702717 0.374143)
(0.540177 0.561445 0.370774)
(0.592592 0.337909 0.336924)
(0.572266 0.00463695 0.263321)
(0.394633 -0.335549 0.258915)
(0.293955 -0.334382 0.321472)
(0.228274 -0.288666 0.330592)
(0.161041 -0.197979 0.33591)
(0.14773 -0.00143645 0.313107)
(0.289115 0.00902426 0.340232)
(0.451667 -0.157733 0.331057)
(0.60384 -0.255126 0.342722)
(0.642771 -0.344232 0.351798)
(0.623398 -0.436243 0.353722)
(0.47668 -0.54137 0.33499)
(0.106956 -0.566484 0.31723)
(-0.171454 -0.298687 0.302981)
(-0.0387131 -0.128266 0.355819)
(0.230626 -0.151819 0.23776)
(0.282185 -0.403754 0.0723501)
(0.00898299 -0.519315 0.238031)
(-0.141083 -0.748598 -0.141585)
(0.200677 -0.719939 -0.480574)
(0.308501 -0.392691 -0.176882)
(0.331812 -0.375034 0.0935099)
(0.344758 -0.54563 0.183923)
(0.326574 -0.890263 0.119912)
(0.531404 -0.87255 0.0647546)
(0.610711 -0.69164 0.0985638)
(0.576423 -0.537882 0.138568)
(0.506979 -0.395421 0.18903)
(0.337894 -0.230203 0.247146)
(0.36245 -0.345921 0.195829)
(0.426288 -0.376526 0.143054)
(0.507764 -0.362519 0.0808787)
(0.619554 -0.295357 -0.0563394)
(0.865238 0.194084 -0.118537)
(0.909383 0.478694 -0.0233966)
(0.854825 0.682978 0.0467063)
(0.757368 0.787246 0.0897923)
(0.6321 0.816043 0.135476)
(0.489662 0.786059 0.156318)
(0.332115 0.723928 0.174878)
(0.167358 0.644801 0.132262)
(-0.00748188 0.573841 0.0709183)
(-0.150114 0.506866 0.0556019)
(-0.291872 0.405044 0.115113)
(-0.409391 0.182106 0.146352)
(-0.284834 -0.12932 0.00604845)
(-0.399276 -0.0456291 0.0457964)
(-0.48176 0.0118933 0.072994)
(-0.54371 0.125692 0.113711)
(-0.540494 0.0857197 0.0902527)
(-0.499466 -0.0452515 0.0215116)
(-0.458264 -0.103945 0.0115915)
(-0.390696 -0.157846 -0.0110206)
(-0.294462 -0.214244 -0.02556)
(-0.188999 -0.244121 -0.0384311)
(-0.141367 -0.216592 -0.0299657)
(-0.195451 -0.185248 -0.0273143)
(-0.183993 -0.336222 -0.0407673)
(-0.123223 -0.3293 -0.0471815)
(-0.100452 -0.347385 -0.0742249)
(-0.0782759 -0.381252 -0.106943)
(-0.0482648 -0.566298 -0.223358)
(-0.0872432 -0.503583 -0.160212)
(-0.105199 -0.593946 -0.127193)
(-0.159095 -0.558081 -0.0724298)
(-0.225569 -0.446223 -0.0373799)
(-0.305676 -0.0950015 0.0359544)
(-0.182401 0.322295 0.179088)
(-0.0724842 0.441951 0.31018)
(0.00985649 0.51491 0.447248)
(0.0769473 0.502169 0.563497)
(0.145292 0.436558 0.624303)
(0.199131 0.322486 0.654424)
(0.249224 0.166508 0.627314)
(0.235221 -0.0127083 0.531876)
(0.104005 -0.135468 0.439577)
(-0.0130443 -0.0980052 0.4491)
(-0.0328721 0.0171984 0.425417)
(-0.0340116 0.139813 0.426101)
(0.0374959 0.245529 0.366046)
(0.199335 0.136558 0.380817)
(0.156926 0.273291 0.449753)
(-0.0607215 0.173115 -0.0676756)
(-0.173743 -0.0671172 -0.641838)
(-0.180709 -0.307246 -0.537314)
(-0.168189 -0.343487 -0.301734)
(-0.145057 -0.301741 -0.0937052)
(-0.0618893 -0.584862 -0.106571)
(-0.0277749 -0.862285 -0.0940814)
(0.00241609 -1.01961 -0.0916415)
(0.0328336 -1.14351 -0.100822)
(0.0661618 -1.2275 -0.11519)
(0.0965941 -1.28044 -0.129305)
(0.123132 -1.30697 -0.141205)
(0.147034 -1.3154 -0.153164)
(0.167844 -1.31322 -0.165694)
(0.186072 -1.30388 -0.1765)
(0.201705 -1.2889 -0.184957)
(0.21568 -1.26877 -0.190086)
(0.228082 -1.24322 -0.192744)
(0.239418 -1.21101 -0.191551)
(0.249041 -1.17106 -0.18642)
(0.254829 -1.12116 -0.175619)
(0.251929 -1.05851 -0.15898)
(0.194805 -0.995691 -0.139088)
(0.139793 -0.91098 -0.122807)
(0.164425 -0.827131 -0.0870327)
(0.187723 -0.726785 -0.0882636)
(0.203879 -0.558304 -0.0881566)
(0.246726 -0.44155 -0.0844765)
(0.0720781 -0.0296205 -0.0955511)
(0.365846 -0.297875 0.0435428)
(0.245728 -0.550447 -0.0572492)
(0.286084 -0.0946115 -0.0270111)
(0.180716 -0.0368214 -0.147564)
(0.201536 -0.112254 -0.125078)
(0.194341 -0.119133 -0.0815773)
(0.214674 -0.131429 -0.0245146)