/*--------------------------------*- C++ -*----------------------------------*\
| =========                 |                                                 |
| \\      /  F ield         | OpenFOAM: The Open Source CFD Toolbox           |
|  \\    /   O peration     | Version:  v2012                                 |
|   \\  /    A nd           | Website:  www.openfoam.com                      |
|    \\/     M anipulation  |                                                 |
\*---------------------------------------------------------------------------*/
FoamFile
{
    version     2.0;
    format      ascii;
    class       volScalarField;
    location    "60";
    object      epsilon;
}
// * * * * * * * * * * * * * * * * * * * * * * * * * * * * * * * * * * * * * //

dimensions      [0 2 -3 0 0 0 0];


internalField   nonuniform List<scalar> 
22960
(
0.0275697
0.0200516
0.0166863
0.0135357
0.016746
0.0117662
0.00673697
0.00894681
0.00958039
0.0100881
0.0100027
0.00832615
0.00767351
0.00735904
0.00718952
0.00683783
0.00655479
0.00843038
0.0148458
0.019142
0.022191
0.016559
0.0239018
0.0236204
0.0125411
0.00969665
0.0119041
0.0101605
0.00965062
0.00997465
0.0100488
0.0102112
0.0103036
0.0105474
0.0108151
0.0113337
0.0118535
0.0126985
0.0135807
0.0155495
0.0171584
0.018465
0.0193
0.0201932
0.0209306
0.0217032
0.022453
0.0230575
0.0231887
0.0269506
0.030421
0.0279032
0.0259635
0.0246106
0.0238996
0.025724
0.0375368
0.0571036
0.0557252
0.0461626
0.0380779
0.0306624
0.024912
0.0287013
0.0134602
0.00864628
0.0129539
0.0148828
0.0169854
0.0183979
0.0147417
0.0120634
0.010273
0.00988547
0.00968601
0.00973395
0.00967918
0.00975636
0.00956208
0.0102086
0.0121619
0.0101516
0.00878743
0.00884511
0.00970836
0.00743009
0.0119576
0.0112088
0.0107459
0.0126086
0.0170604
0.0202314
0.0221189
0.022716
0.0237308
0.0279061
0.0346419
0.0270345
0.0200431
0.0151274
0.0115243
0.0140376
0.0164922
0.0100705
0.0114653
0.0112936
0.0119329
0.0121785
0.0133464
0.0111587
0.012414
0.0118191
0.0110912
0.0106404
0.0106115
0.0107083
0.0107929
0.0121229
0.0131409
0.0139382
0.0156269
0.0176004
0.0191106
0.0203683
0.024391
0.0310728
0.0279226
0.0235613
0.0199105
0.0224686
0.0252362
0.0288057
0.0332941
0.0333074
0.0226599
0.0186282
0.0171428
0.0155238
0.0136818
0.0118891
0.0108504
0.00962532
0.00823027
0.00793274
0.00803657
0.00845682
0.00914195
0.00992058
0.0106283
0.0130249
0.0182355
0.0165234
0.0148287
0.0146885
0.014328
0.0144639
0.0117247
0.0238498
0.0224211
0.0128373
0.0133934
0.0139811
0.0140371
0.0136332
0.0130766
0.0124696
0.0130843
0.0134135
0.0128233
0.0114975
0.010114
0.00793545
0.00921036
0.0104847
0.00659786
0.00657297
0.00727313
0.00798024
0.00883133
0.00924782
0.00729742
0.00555869
0.00510364
0.00500354
0.00486
0.00459025
0.00413293
0.00363579
0.00516799
0.0062016
0.00664984
0.00680721
0.00687557
0.00692548
0.00732224
0.00831437
0.0100014
0.00922444
0.00926266
0.00860355
0.00771749
0.00537132
0.0070675
0.00687517
0.00671806
0.00637013
0.00679591
0.0074299
0.00778677
0.00815301
0.00860243
0.00948863
0.0124312
0.01848
0.0185473
0.0188153
0.0212747
0.0240797
0.0299533
0.0398626
0.0530996
0.0676977
0.0809407
0.0912106
0.0974427
0.10034
0.0990924
0.0980276
0.104394
0.093572
0.0683861
0.0531714
0.0444648
0.0394027
0.0374937
0.0436429
0.0519688
0.0397055
0.0293419
0.0258127
0.0227096
0.0154463
0.0112578
0.0134128
0.014218
0.0140884
0.0167518
0.0207088
0.0283756
0.0613908
0.0889744
0.16271
0.268482
0.381146
0.481867
0.580245
0.597903
0.571479
0.489168
0.203533
0.263315
0.176743
0.11431
0.0904914
0.0727622
0.0688765
0.0591211
0.0407746
0.0472425
0.0361757
0.0323014
0.0247615
0.0257639
0.0287334
0.0300906
0.0317398
0.0312149
0.0315649
0.0302497
0.0299699
0.0284434
0.0279834
0.0270664
0.0275051
0.0275306
0.0266427
0.0272717
0.027612
0.0256739
0.0202774
0.0156177
0.0141725
0.0134117
0.0133082
0.0131549
0.0117269
0.0116404
0.0124832
0.0145369
0.0163096
0.0234975
0.0324045
0.0310613
0.0273217
0.0270867
0.0245943
0.0286517
0.0344878
0.0345377
0.0317737
0.0333801
0.0311541
0.0307347
0.0301239
0.0315688
0.0314937
0.0335214
0.0332762
0.0353188
0.0344835
0.0361093
0.0344013
0.0351941
0.0348668
0.0365971
0.0397147
0.0404205
0.0566937
0.0565939
0.0583686
0.0733925
0.0884868
0.0748679
0.0647364
0.0706595
0.0488369
0.0450043
0.0542975
0.0556807
0.0511209
0.0459636
0.043823
0.0409549
0.0363083
0.0348785
0.0355187
0.0351415
0.0332869
0.0304325
0.0294719
0.0291582
0.0288971
0.0287408
0.0287787
0.0291972
0.0319732
0.0333846
0.0251415
0.0200537
0.0192078
0.0128738
0.00997967
0.00908689
0.0108342
0.0130195
0.0137579
0.014096
0.0144588
0.0144611
0.0142025
0.0167195
0.0170988
0.0168763
0.0164538
0.0157631
0.0144386
0.0110664
0.0124034
0.013948
0.0154873
0.0171424
0.0187701
0.0205428
0.0225255
0.0247689
0.0282074
0.0294206
0.029848
0.0270593
0.0238132
0.0212352
0.0192967
0.0186517
0.0228734
0.024231
0.0202274
0.0161265
0.0125486
0.0113251
0.0101965
0.0151469
0.0132361
0.0130198
0.0130013
0.014303
0.0163217
0.0177611
0.0136222
0.011539
0.0101511
0.0100334
0.00994593
0.0101901
0.0104306
0.0119965
0.0159536
0.0252973
0.0266359
0.034021
0.0439661
0.0406472
0.0355358
0.0379127
0.0419692
0.0392469
0.0308326
0.0295437
0.0293922
0.0286581
0.0288082
0.0278735
0.0282505
0.0272552
0.0275643
0.0264761
0.0266841
0.0255116
0.0254949
0.0247995
0.0256727
0.0255561
0.0236222
0.0218915
0.0203241
0.0201098
0.0178787
0.0142782
0.0133672
0.0127221
0.0129794
0.0131802
0.0128401
0.013692
0.0153459
0.0123613
0.0180663
0.0272246
0.0189227
0.0160965
0.0138022
0.0179349
0.0156607
0.0137804
0.0150002
0.0205113
0.0216863
0.0255462
0.0358351
0.0206045
0.0263209
0.0276651
0.0378585
0.0524158
0.0458304
0.0367516
0.0410041
0.0427635
0.0399962
0.0771198
0.0809768
0.0675836
0.0497659
0.0300177
0.0561936
0.0494977
0.0179392
0.0337759
0.0512851
0.0700551
0.0491109
0.0555855
0.0612135
0.0752341
0.060117
0.0623892
0.0638266
0.0627684
0.0569233
0.0552555
0.0452584
0.0502232
0.0543435
0.0731784
0.0998225
0.159954
0.196372
0.227639
0.22659
0.126379
0.15416
0.171541
0.195931
0.185725
0.326676
0.487423
0.724514
1.17212
1.17013
0.909094
0.648631
0.431728
0.23134
0.0957721
0.0312741
0.030763
0.0201331
0.0145418
0.0130288
0.0136519
0.0194114
0.0212259
0.0129422
0.00786607
0.00562577
0.00628961
0.00677668
0.00709626
0.00730414
0.008063
0.0126881
0.0134707
0.0137115
0.0137222
0.0136632
0.0135222
0.0124273
0.0118992
0.0107818
0.0089409
0.0102388
0.010748
0.00952281
0.00897746
0.00819079
0.00792482
0.0111708
0.00875076
0.00770188
0.00820385
0.00914618
0.00905369
0.00748493
0.00755889
0.00745114
0.00750019
0.00729235
0.00698678
0.00652382
0.00668569
0.00835656
0.0128377
0.0129459
0.0161438
0.0203094
0.018203
0.0154297
0.0157692
0.0164378
0.0139431
0.0120294
0.0172548
0.0181563
0.0182375
0.0198972
0.0214106
0.0316694
0.0924736
0.164639
0.28148
0.419165
0.558907
0.695501
0.813729
0.831853
0.794767
0.659703
0.185662
0.252206
0.163538
0.10107
0.0819486
0.0672361
0.0642489
0.0552766
0.036147
0.0572715
0.0561525
0.0651499
0.0619584
0.0658507
0.0679206
0.0748367
0.0753445
0.105978
0.27043
0.532888
0.582979
0.803882
1.20413
1.41713
1.50934
1.3431
0.938896
0.604812
0.431001
0.25863
0.13315
0.0439214
0.0235451
0.122008
0.0686531
0.0371109
0.0465981
0.0375731
0.0369685
0.02259
0.0280556
0.0132691
0.00639058
0.00605603
0.0066297
0.00706863
0.00743985
0.0084356
0.00850734
0.00734071
0.00692599
0.00648014
0.0059366
0.00712484
0.0115739
0.0236481
0.026392
0.0398715
0.0433534
0.0430135
0.0520394
0.0692957
0.0759254
0.0967269
0.118759
0.159203
0.182988
0.210315
0.240677
0.303596
0.36903
0.461449
0.522336
0.541208
0.510138
0.446198
0.366333
0.280942
0.17554
0.0895856
0.110055
0.190396
0.226525
0.246517
0.26421
0.274151
0.269114
0.24943
0.226678
0.214848
0.201063
0.180699
0.181271
0.189425
0.198232
0.205471
0.205605
0.202322
0.191234
0.179731
0.137994
0.0847816
0.0619372
0.0714278
0.101792
0.126124
0.139425
0.144933
0.143043
0.150702
0.145503
0.151378
0.145333
0.14729
0.127911
0.104504
0.0917585
0.0824233
0.0695993
0.0636426
0.0561392
0.0436722
0.0383532
0.0340719
0.0361449
0.0349653
0.0202115
0.0176081
0.0192249
0.0339101
0.0346396
0.0355041
0.0394356
0.0468667
0.0481062
0.0600806
0.0623047
0.0738121
0.0759068
0.0760884
0.110737
0.109978
0.103364
0.0928221
0.0705532
0.0545872
0.0434915
0.0448341
0.0458938
0.0464133
0.0427288
0.0408586
0.0346974
0.0331787
0.0344068
0.0336289
0.0309217
0.0336463
0.0347106
0.0298208
0.0352116
0.0352023
0.0345996
0.0335085
0.0327017
0.0319824
0.031402
0.0308726
0.0310394
0.0317159
0.035662
0.023448
0.0150281
0.0133837
0.0114149
0.0111103
0.0114969
0.0107265
0.0113188
0.0116101
0.0117639
0.0119116
0.012241
0.0129707
0.0157565
0.0202197
0.0194447
0.0204721
0.0194899
0.0202988
0.0273825
0.0116726
0.0130688
0.0137994
0.013483
0.0143595
0.0164866
0.0183246
0.0202765
0.0203801
0.0189736
0.0171949
0.015788
0.0150457
0.0169655
0.0190887
0.0207178
0.020382
0.018119
0.0201645
0.0227976
0.0254698
0.0253537
0.0237279
0.0299035
0.0311738
0.0319262
0.0294394
0.0433627
0.0486516
0.0453218
0.0431168
0.0475054
0.0401581
0.0342746
0.0381011
0.0270355
0.0914355
0.0337058
0.0264088
0.0227517
0.0240669
0.0241721
0.0261192
0.0274422
0.0269748
0.0208624
0.0212886
0.0254435
0.0229484
0.02264
0.0175466
0.0152507
0.0214094
0.0286636
0.0303885
0.0327406
0.0341279
0.0316149
0.0387783
0.0359132
0.0386759
0.0410018
0.0304203
0.0169786
0.0269243
0.028463
0.0215801
0.0248306
0.0273119
0.0287752
0.0329856
0.0392316
0.0478688
0.0589318
0.0643326
0.0677512
0.0573973
0.0455142
0.0369703
0.030766
0.0261503
0.0228611
0.0206388
0.0188631
0.0183393
0.0174456
0.0157877
0.01729
0.0190419
0.0210023
0.0230865
0.0253379
0.0278387
0.0311359
0.0396758
0.0399523
0.0382613
0.0338618
0.0293331
0.0259024
0.0233243
0.0223815
0.0308988
0.0386004
0.0357466
0.0295672
0.0230848
0.0195766
0.016872
0.0151353
0.0235916
0.0256161
0.0194675
0.0216508
0.025303
0.0291605
0.035607
0.0469065
0.0332499
0.0374572
0.0260016
0.0260324
0.0289329
0.0329874
0.0388812
0.045574
0.0500942
0.0522293
0.0375247
0.032166
0.0288749
0.0260447
0.0234979
0.0212081
0.0191875
0.0201883
0.0222717
0.0248087
0.0283343
0.0331971
0.0406134
0.0525036
0.0742781
0.0651953
0.0530884
0.042982
0.0355471
0.0305516
0.0273147
0.0262519
0.0243519
0.035518
0.0380401
0.0597848
0.0531154
0.041378
0.0361116
0.0306243
0.0270997
0.0251385
0.0321098
0.0354651
0.046129
0.0314818
0.0311908
0.0307855
0.0351543
0.051498
0.0453256
0.0400952
0.0327034
0.0294986
0.035733
0.0273886
0.0238855
0.0233265
0.0233456
0.0234461
0.0255597
0.0284188
0.0266848
0.0270996
0.0262613
0.0235345
0.0309383
0.0333315
0.0308296
0.0303284
0.0296046
0.0254197
0.0244984
0.0280134
0.0303985
0.0344653
0.030549
0.0289345
0.0324389
0.0418133
0.0231923
0.0209639
0.0311305
0.0372639
0.0369849
0.0367354
0.0338274
0.0318621
0.0309075
0.0287376
0.0305471
0.0263738
0.0275731
0.0277156
0.0256614
0.022415
0.0238881
0.0237179
0.0244967
0.0250893
0.0243687
0.0233445
0.0234903
0.0192746
0.0228628
0.0249482
0.022988
0.0308112
0.0298132
0.0305751
0.0339013
0.0348517
0.0287105
0.0282521
0.0288886
0.0253698
0.0316369
0.0311373
0.0325457
0.0353
0.0257992
0.0234898
0.0245558
0.0121936
0.0153987
0.0165553
0.0188363
0.0213749
0.0181057
0.0113405
0.00960514
0.00918963
0.00897836
0.00891216
0.00905216
0.0104672
0.016422
0.0165293
0.0160405
0.0162497
0.0161938
0.016109
0.0166146
0.016414
0.0173097
0.0181147
0.0184432
0.0189499
0.0196416
0.0197852
0.0191304
0.0123126
0.0109788
0.00908613
0.00655716
0.00587672
0.00634345
0.00670737
0.00703346
0.00759794
0.00792017
0.00725072
0.00609213
0.00662074
0.00680604
0.0067011
0.00655139
0.00627906
0.00592846
0.00589561
0.00529252
0.00658023
0.00789715
0.00824819
0.0126505
0.0113216
0.0105753
0.0105475
0.00982503
0.0104218
0.0102425
0.00908952
0.00889973
0.00890305
0.00905287
0.00940149
0.0107466
0.0173689
0.0204177
0.0174727
0.0159654
0.0148161
0.0138565
0.0156409
0.0160752
0.0162864
0.0165913
0.0192823
0.0168172
0.0175522
0.0113905
0.00977784
0.00933556
0.00915601
0.00914111
0.00928954
0.00935703
0.00932419
0.00941891
0.00971711
0.0103237
0.0117266
0.0136705
0.0179174
0.0189681
0.0228185
0.0197019
0.0176664
0.018242
0.0186561
0.0195039
0.02518
0.0246698
0.0236865
0.0218531
0.0184084
0.0197191
0.020363
0.023854
0.0205892
0.0357473
0.0329089
0.0320372
0.0341595
0.036084
0.0321154
0.0354451
0.036478
0.0253299
0.0227815
0.0207905
0.0219008
0.0234644
0.0243243
0.0229961
0.0241718
0.0138555
0.0244987
0.0275784
0.0273311
0.0291595
0.0255052
0.0260414
0.0249296
0.0178089
0.0195559
0.0206274
0.01978
0.0179904
0.0189146
0.0215771
0.015171
0.0165921
0.0182421
0.0193585
0.0182639
0.0174368
0.0148926
0.0157459
0.0186622
0.0202176
0.0206914
0.024263
0.0223832
0.0206075
0.0200614
0.019382
0.0240562
0.0209216
0.0181753
0.0135311
0.0117547
0.0130449
0.0137454
0.0196052
0.0192014
0.017795
0.0160482
0.0168346
0.0169674
0.016968
0.0167751
0.0167474
0.0158987
0.0133701
0.0128343
0.0133478
0.0151485
0.012759
0.0121198
0.0117417
0.0115387
0.0112854
0.0134003
0.0111197
0.0142865
0.0165581
0.0173049
0.0184426
0.0222612
0.0192846
0.016977
0.0156354
0.0327248
0.0365812
0.0296554
0.017811
0.0177713
0.016981
0.0189162
0.0175623
0.0170744
0.0164842
0.0171372
0.0166845
0.0125823
0.01604
0.0165547
0.0173625
0.0186024
0.0173127
0.0161928
0.0159638
0.0180779
0.0170772
0.0237924
0.0208886
0.0238134
0.0247628
0.0253352
0.0254018
0.0227404
0.0207675
0.0236621
0.026448
0.0316175
0.0269869
0.0235791
0.023258
0.0286743
0.0220273
0.0223593
0.0234033
0.0227307
0.0208311
0.0146138
0.0159848
0.0153535
0.0150397
0.0162003
0.0187718
0.0223154
0.0227748
0.0191621
0.0207197
0.0204447
0.0227563
0.0225171
0.0195752
0.0196591
0.023685
0.0249041
0.0211817
0.0216735
0.0241057
0.0226999
0.0205246
0.0162827
0.0165313
0.0222859
0.0199522
0.0229604
0.022879
0.0242931
0.0250715
0.0242494
0.0254056
0.021687
0.0235723
0.0252164
0.0233693
0.0171273
0.0176368
0.0146508
0.0129151
0.0143053
0.015863
0.0146094
0.0131797
0.0118908
0.0131636
0.0108146
0.0122061
0.00984524
0.0117774
0.0109871
0.0100575
0.0118633
0.0142851
0.0146238
0.0178048
0.0172297
0.0119314
0.0105478
0.0138626
0.0215999
0.0145599
0.0140881
0.0303916
0.030074
0.0280443
0.0329002
0.010063
0.0134254
0.0176647
0.0188556
0.0209852
0.0242271
0.0203378
0.0191232
0.0182471
0.0171503
0.013073
0.0170404
0.0160515
0.0156778
0.0131093
0.0116883
0.0106826
0.010112
0.00976935
0.00952572
0.00941022
0.00935128
0.00918008
0.008731
0.00820882
0.00586613
0.00684176
0.00784653
0.00723361
0.00592097
0.00584643
0.00606691
0.00630747
0.00641007
0.00643709
0.00641215
0.00612059
0.00563831
0.00528729
0.0059186
0.00668327
0.00678722
0.006928
0.00696003
0.00687195
0.00668168
0.0074374
0.00718401
0.00686517
0.00679813
0.00672644
0.00645998
0.0061832
0.00699277
0.00813839
0.00915613
0.00959175
0.00998811
0.0105645
0.011409
0.0127452
0.0144542
0.0170018
0.0188086
0.016709
0.0156931
0.0137808
0.0126537
0.0118175
0.0108878
0.00897537
0.00675453
0.00599979
0.00727702
0.00744215
0.00792115
0.00828903
0.00863582
0.0101674
0.019723
0.0209387
0.0201891
0.0147625
0.00905496
0.0133547
0.0142197
0.0198528
0.0209562
0.0173901
0.0154604
0.0132296
0.0188274
0.0223453
0.0212275
0.0205894
0.0184439
0.0160413
0.0143508
0.0124247
0.0115825
0.0106417
0.0105159
0.0105662
0.0106042
0.0100303
0.00658069
0.00614185
0.00564781
0.00468572
0.00353593
0.00418968
0.00484807
0.00568591
0.008856
0.0100716
0.0102797
0.0101369
0.0104787
0.0105435
0.0106652
0.0106382
0.010729
0.0105903
0.0105849
0.0103748
0.0101334
0.0104473
0.0108191
0.0147749
0.0204732
0.0185959
0.0178051
0.0176001
0.0173539
0.0171319
0.0170229
0.0167412
0.0165891
0.0162559
0.0158954
0.0156418
0.0157522
0.0166718
0.0144081
0.00866604
0.00789066
0.00485728
0.00747945
0.0121156
0.0130677
0.0116059
0.0129224
0.0127749
0.0134113
0.0148439
0.0156453
0.0159055
0.0161946
0.0163669
0.0160738
0.0160973
0.0158916
0.0174905
0.0196071
0.019545
0.0178118
0.0152418
0.0169728
0.0197942
0.0217602
0.0220533
0.021834
0.0214891
0.0211174
0.0207346
0.0204044
0.0200944
0.019757
0.0190653
0.0167903
0.0138774
0.0117987
0.0115986
0.010692
0.00953634
0.01072
0.00657197
0.00405604
0.00620119
0.00970577
0.00842125
0.00923053
0.0105774
0.0130418
0.0139003
0.0132237
0.0159053
0.0174989
0.0201835
0.0219743
0.0220871
0.0226665
0.0233221
0.0240845
0.0247966
0.0252759
0.0259628
0.0243335
0.0215742
0.020317
0.0176122
0.0160548
0.0205031
0.0229229
0.0248286
0.0280744
0.0450906
0.0431555
0.0418447
0.0426387
0.0444765
0.0443329
0.0439243
0.0438593
0.0425943
0.040728
0.0381456
0.0308101
0.0321015
0.0345915
0.0376708
0.0393848
0.0416006
0.0425567
0.0433334
0.0447836
0.0436903
0.0439294
0.0437374
0.0431433
0.0427115
0.04176
0.0409698
0.0394548
0.0384951
0.037201
0.0366706
0.0357862
0.035226
0.0343131
0.0338259
0.0334289
0.0330664
0.0309687
0.0210387
0.0183974
0.0165239
0.013721
0.0114518
0.010706
0.0125711
0.00796717
0.00504302
0.00756887
0.0116356
0.00976938
0.0103329
0.0119729
0.0108879
0.0112911
0.0125058
0.0151439
0.0160585
0.0168445
0.0189653
0.0217861
0.0321682
0.0341293
0.0341484
0.0344455
0.0347234
0.0355802
0.0359447
0.0367052
0.0370098
0.0380087
0.0386814
0.0396765
0.0399774
0.0403711
0.0404616
0.0408941
0.0407654
0.0413528
0.0778854
0.074345
0.0760203
0.0751681
0.0770744
0.0740858
0.0735319
0.0682266
0.0663543
0.0631208
0.0617015
0.0598947
0.0579391
0.056801
0.056648
0.0601469
0.0526918
0.0319633
0.0319008
0.0511884
0.0556559
0.0297311
0.0190338
0.0294889
0.0500997
0.0449807
0.0436756
0.0485827
0.0454489
0.0485579
0.0484256
0.0487217
0.0502035
0.0523049
0.0553281
0.0606953
0.0639638
0.0698919
0.071183
0.0748573
0.073695
0.0757014
0.0734476
0.0782483
0.0797428
0.0759184
0.077606
0.0746418
0.0809407
0.0773927
0.0703624
0.0640847
0.0596837
0.0545705
0.0524053
0.0510786
0.046002
0.045861
0.0436982
0.0435882
0.0413146
0.0414748
0.0421798
0.0475525
0.0280368
0.0175194
0.027486
0.0464033
0.0410719
0.0394667
0.0390091
0.0402805
0.0413703
0.0432206
0.0436326
0.0471038
0.0524548
0.0464721
0.107415
0.05732
0.0694387
0.0532433
0.0619587
0.0445166
0.0373415
0.0377966
0.0374
0.0454494
0.0530946
0.0568173
0.0629563
0.0614041
0.066838
0.0606496
0.0613853
0.0526496
0.0566235
0.0598652
0.0630373
0.0842349
0.0889769
0.108003
0.117574
0.123707
0.121217
0.117598
0.0861528
0.0772785
0.0901019
0.0913842
0.107596
0.140921
0.122434
0.138013
0.107098
0.173215
0.0816472
0.0831642
0.0811801
0.0720295
0.0647897
0.0593719
0.0539941
0.0514737
0.107845
0.107295
0.12384
0.304881
0.170375
0.178364
0.149572
0.151576
0.105018
0.0795884
0.0834715
0.086337
0.138841
0.162254
3.53184
0.206107
2.72056
2.28584
2.33752
2.36501
2.64694
3.989
3.46009
3.94684
3.6938
6.06014
2.52109
1.92857
2.07767
1.99048
0.115923
0.138969
0.15568
0.166867
0.158758
0.152749
0.299199
5.97702
0.263943
0.209382
0.198672
0.203653
0.261896
0.207611
0.0791779
0.0489891
0.0415514
0.144778
11.7714
3.91828
0.32405
0.132456
0.744327
0.527647
5.89228
0.213432
0.104759
0.0368161
0.0191147
0.0264372
0.0408509
0.0806593
0.214806
0.0923524
0.226658
0.0834281
0.201925
0.158257
0.0607081
0.0319485
0.0414008
0.0268152
0.0431832
0.026534
0.0205496
0.0174118
0.0150454
0.0223748
0.0559524
0.216225
10.3801
1.67516
0.570188
6.11382
8.75717
0.817257
0.365031
4.96284
0.206563
0.0530924
0.0199348
0.0160485
0.0151076
0.0159127
0.0176865
0.0207331
0.018789
0.0226194
0.0217593
0.0303383
0.0580145
0.158908
0.151998
0.0578108
0.0304459
0.0222044
0.0186379
0.0183868
0.0168063
0.0169737
0.0153843
0.0147787
0.014692
0.0157953
0.0245328
0.131635
3.97105
0.29562
0.354379
3.94344
0.135667
0.0231496
0.0150689
0.0143921
0.0146797
0.0152718
0.0153207
0.0166605
0.0180226
0.0206069
0.0253695
0.0387313
0.0733202
0.221163
3.99683
4.0368
3.91297
4.05238
0.224367
0.0869208
0.0446831
0.0276889
0.0221568
0.0192825
0.0163667
0.0153456
0.0146574
0.0143448
0.0144047
0.0214136
0.138025
3.97508
0.368461
0.398231
4.54921
0.238672
0.0572103
0.0145171
0.0145575
0.0163084
0.0171252
0.031017
0.0343141
0.0403076
0.0547599
0.0933646
0.235728
3.42634
2.39231
2.18713
0.162946
0.152632
0.148575
0.147781
0.227093
0.0567651
0.233518
0.0581476
0.238682
6.43904
6.39252
0.437697
0.400134
0.62423
7.4874
6.1244
0.490639
0.784696
7.53668
4.21227
0.288011
0.236976
3.48263
2.72627
0.157915
0.135766
2.61949
2.40188
0.120089
0.106288
0.114157
0.146011
0.167081
0.185255
0.184458
0.222981
0.255263
0.0719577
0.0499174
0.0415185
0.0631975
0.14695
0.126695
0.219475
0.263665
0.394166
0.255884
0.191824
0.358218
1.8222
0.335382
0.125849
0.132966
1.51212
0.0608505
0.0352295
0.0270587
0.0287114
0.0304207
0.0371856
0.0482561
0.037141
0.0469824
0.0328947
0.0425671
0.0563005
0.160331
0.163657
0.212558
0.126807
0.098099
0.157876
0.275937
0.338475
0.214089
0.111707
0.656376
0.107955
1.66889
1.51708
2.22502
10.9644
2.94261
1.42329
1.24065
1.34228
2.78891
11.2232
5.69715
0.395099
0.0696757
1.52957
0.184958
0.105906
0.191065
0.294778
1.56214
0.0906757
0.050003
0.031907
0.0219707
0.0252137
0.0343369
0.0428615
0.0402265
0.0401688
0.0268575
0.0302129
0.0341026
0.0420411
0.0420867
0.0472484
0.0352424
0.0418311
0.0492649
0.113758
0.0748971
0.0448807
0.0564548
0.178688
0.288177
0.140698
0.0781609
0.17914
0.582477
0.682448
0.332714
2.61199
0.124131
0.453768
0.762038
1.4878
7.25379
1.2191
0.39161
0.0734998
0.0282388
0.0455598
0.0862809
0.0527728
0.0330696
0.0288739
0.0350822
0.0373125
0.0316308
0.0286346
0.0240642
0.0294894
0.0279248
0.0221475
0.0288175
0.0253974
0.026138
0.0284563
0.0308201
0.0286087
0.0291819
0.0278757
0.0321015
0.0332151
0.0896367
0.0412227
0.0301171
0.0819205
0.0481281
0.124273
0.0383205
0.0670029
0.044201
0.0446482
0.155809
0.0691276
0.0533328
0.143279
0.0667941
0.0521338
0.0997598
0.0549289
0.0444409
0.0593193
0.0401344
0.0473738
0.0528896
0.0688737
0.0663889
0.0722594
0.0708256
0.0589097
0.140495
0.0507151
0.0442189
0.0769326
0.0802808
0.0785944
0.0746336
0.078981
0.0783196
0.0786986
0.0756843
0.0804379
0.0797291
0.0798077
0.0795862
0.0801491
0.0802082
0.0749217
0.0794652
0.0803373
0.0762407
0.0809368
0.0817827
0.0831023
0.0844842
0.543766
1.9416
0.997988
0.530145
0.659895
1.35386
2.22907
0.873666
0.641669
0.192351
0.372968
0.236664
0.324659
0.20955
0.123829
0.0951126
0.142754
0.101873
0.106698
0.109881
0.304716
0.145342
0.156964
0.114743
0.201369
0.341125
0.772284
0.417406
0.237822
0.262903
0.506317
0.735974
0.361666
0.0887539
0.0872881
0.081547
0.0769278
0.0797883
0.0765815
0.0750852
0.0803089
0.0896226
0.0869741
0.0763908
0.0694337
0.0700389
0.0610721
0.0607152
0.0693397
0.0838135
0.0702257
0.0551826
0.0474257
0.0481156
0.0528884
0.0521444
0.0601996
0.0730689
0.0802601
0.0896267
0.0882223
0.0878786
0.081149
0.0806975
0.0756287
0.0696367
0.064035
0.0601313
0.0567675
0.0523768
0.05011
0.0483029
0.0448765
0.0444564
0.0448536
0.0472877
0.0493089
0.053125
0.0287541
0.0184549
0.0159004
0.0133551
0.0122734
0.0146913
0.014115
0.0131067
0.0138309
0.0161383
0.0259762
0.0445162
0.0399131
0.0378389
0.0388715
0.0400139
0.0660052
0.0382175
0.0268517
0.0309824
0.0388414
0.0960085
0.124929
0.0462561
0.0417551
0.0286083
0.0394535
0.0884437
0.150733
0.0938486
0.0544132
0.0870476
0.138774
0.231198
0.164633
1.45173
0.0621346
0.0681087
0.276354
1.41767
3.78232
0.238499
0.0353673
0.0265803
0.0209591
0.0240217
0.0297249
0.0365318
0.0362025
0.0361552
0.0222247
0.0246265
0.0276752
0.0344259
0.0367629
0.041504
0.0280528
0.032707
0.0397783
0.095168
0.0733529
0.0426657
0.0471673
0.0300156
0.0451872
0.0542768
0.151285
0.183163
0.0972406
0.0596575
0.1111
0.0207542
0.0196084
0.0203093
0.0220438
0.0110525
0.025558
0.0285238
0.0183364
0.0285515
0.033136
0.0259573
0.0246821
0.0212599
0.0210107
0.0244833
0.0358574
0.0176259
0.0680868
0.365134
0.273989
0.262995
2.18251
2.3299
2.27272
1.39747
0.286495
0.464157
0.753271
0.624503
0.46962
0.272216
0.220225
0.309293
0.237307
0.0911336
0.100822
0.108639
0.0983271
0.0796535
0.0778596
0.0790257
0.0819208
0.0849592
0.112983
0.0983363
0.113728
0.0902099
0.0973594
0.131743
0.243642
0.203849
0.126371
0.2017
0.114725
0.267179
0.405522
0.642917
1.12649
0.678519
0.386812
0.23649
0.398427
0.369719
0.666811
0.970602
0.847515
0.869392
0.559664
0.386822
0.701647
0.299088
0.0960362
0.125081
0.139061
0.176681
0.889583
0.360283
0.387305
0.154379
0.320234
1.07477
0.141091
0.093117
0.0789632
0.0712418
0.0727103
0.0502836
0.0621622
0.0404053
0.045883
0.0463471
0.0943502
0.0541259
0.0618285
0.0569928
0.0601019
0.203089
0.0720095
0.0939458
0.0726984
0.0801724
0.437819
0.116846
0.150573
0.0952211
0.0748652
0.349964
0.123442
0.0837029
0.0542435
0.0491021
0.0590753
0.0578876
0.0671368
0.0718208
0.0789513
0.0794194
0.0840305
0.0816907
0.0763868
0.0779538
0.075798
0.068823
0.0661347
0.061355
0.0584136
0.0537307
0.0510713
0.0493176
0.0482845
0.0477547
0.0475235
0.0511072
0.0308977
0.0306454
0.030139
0.0268534
0.0114514
0.0206253
0.0435727
0.048333
0.0285627
0.026642
0.0167735
0.0160012
0.0151941
0.0242758
0.0254707
0.0434244
0.0387663
0.0364895
0.0382168
0.0366553
0.0356843
0.0371728
0.0416159
0.0410447
0.0240082
0.0251061
0.0424586
0.0375006
0.0364558
0.0357493
0.0368296
0.0365807
0.0357123
0.0360435
0.0382631
0.0429895
0.0252937
0.0262979
0.0445324
0.0398586
0.0381123
0.0401572
0.0377076
0.0772464
0.0342482
0.0433461
0.0688438
0.120144
0.101922
0.0704474
0.0370293
0.0614839
0.0961052
0.101295
0.0492886
0.0369259
0.0470224
0.0379798
0.0261206
0.0328918
0.0401641
0.0645923
0.460224
0.0906986
0.0634106
0.13262
0.0751473
0.0749477
0.0661302
0.043014
0.0595101
0.0280229
0.0566098
0.0356949
0.026851
0.0312046
0.0366977
0.0754573
0.031433
0.031529
0.0228777
0.0263904
0.0237974
0.0209652
0.0328494
0.021507
0.0237639
0.0260321
0.0332323
0.0338945
0.0200629
0.0186856
0.0182103
0.010222
0.0203132
0.0209647
0.0101442
0.0258411
0.0274313
0.0303556
0.0255655
0.0232046
0.0200109
0.0190954
0.0185954
0.0189176
0.0104232
0.0202228
0.019994
0.0101036
0.0245702
0.0282026
0.0317968
0.0240326
0.0242473
0.0225383
0.0230101
0.0121785
0.0201606
0.0200573
0.0222922
0.0262444
0.0276279
0.0213753
0.015354
0.0210456
0.0197223
0.0221844
0.0223814
0.0223709
0.0233835
0.0158293
0.0222977
0.0287238
0.026904
0.0239134
0.0221734
0.0397077
0.0406378
0.0452642
0.0241232
0.0128595
0.0216148
0.0221927
0.0233229
0.0234135
0.0212816
0.0244874
0.039557
0.0375443
0.0354145
0.0336988
0.0250146
0.0164374
0.0124026
0.0114357
0.0121947
0.0184324
0.0135659
0.0119938
0.0107796
0.0139084
0.0483713
0.6604
1.88972
2.78389
4.23594
0.383554
0.176391
0.0651899
0.0876691
0.0669382
0.0776184
0.0749099
0.15282
0.174807
0.170788
0.10992
0.106075
0.0773963
0.113614
0.115822
0.193658
0.372454
4.71207
3.94794
1.74059
0.822417
0.176687
0.135389
0.185837
0.274609
0.0852214
3.27966
1.33851
0.358607
1.40211
0.431008
0.0370043
0.0225625
0.0123695
0.0114057
0.0186749
0.0184654
0.0182573
0.0180283
0.0178377
0.0176792
0.0173699
0.0169414
0.015105
0.00863077
0.00783912
0.00855243
0.00872637
0.00909275
0.00971469
0.0102302
0.0109503
0.0121852
0.0129429
0.0146253
0.0255753
0.0180006
0.020953
0.0176986
0.0204506
0.0352128
0.0244915
0.0278604
0.020467
0.019247
0.0174068
0.0162572
0.0203379
0.023452
0.0274039
0.0275531
0.0235113
0.0206157
0.0193426
0.0175632
0.0149471
0.0143088
0.0130811
0.0142564
0.0196711
0.0173655
0.0163115
0.00987927
0.0108491
0.00865285
0.00796337
0.00636771
0.00635943
0.00659392
0.00704942
0.00773383
0.00888494
0.00987514
0.0106799
0.0113495
0.012092
0.00975402
0.00922141
0.00964134
0.00731941
0.00780073
0.00782033
0.00809389
0.00858361
0.0111185
0.0134033
0.0140256
0.0134466
0.0130217
0.0117141
0.0107703
0.00962536
0.0093052
0.00895084
0.00955504
0.00956876
0.0102733
0.0100387
0.0103245
0.0101021
0.0116927
0.0138861
0.0138679
0.0136004
0.0126662
0.0133769
0.0142421
0.0143839
0.0141849
0.0124051
0.012117
0.0126512
0.0123037
0.0126757
0.0121453
0.0124585
0.0118563
0.0123426
0.0120843
0.013166
0.0136346
0.0161902
0.0163494
0.0152338
0.0135712
0.0145273
0.0151974
0.0155456
0.0157379
0.0155256
0.0149862
0.0177442
0.0184672
0.0364967
0.0481889
0.0746575
0.128987
0.21799
0.0949507
0.122679
0.276859
0.216564
0.0861087
0.0451548
0.030706
0.0308965
0.0249408
0.0238557
0.0239657
0.0276283
0.0214482
0.0273163
0.0318215
0.0484921
0.0661245
0.0882102
0.0501881
0.0301269
0.018509
0.0199348
0.0352797
0.0404311
0.0327408
0.027551
0.0292906
0.0213464
0.0251233
0.0259763
0.0288347
0.0294113
0.0295125
0.0300747
0.0307662
0.0315619
0.0324602
0.0335422
0.0333441
0.0311031
0.0318585
0.0317947
0.0310815
0.0308124
0.0298548
0.029937
0.0289289
0.0291055
0.0281148
0.0282765
0.0273636
0.027506
0.0270604
0.0276659
0.0287034
0.0318592
0.0280624
0.0233735
0.0257016
0.0322618
0.0325726
0.0325486
0.032117
0.0310569
0.0307297
0.0340703
0.0366301
0.0354043
0.0374217
0.0267396
0.0248834
0.0261334
0.0263728
0.0281222
0.0285797
0.0301551
0.0301652
0.0313517
0.031304
0.0323913
0.0324382
0.0335719
0.0339357
0.0349212
0.0357393
0.0369223
0.0832812
0.0821836
0.0815782
0.0763069
0.0731367
0.0674762
0.0660293
0.0623726
0.0627947
0.0594302
0.059455
0.0556758
0.0545275
0.0505981
0.0471537
0.0565435
0.0474463
0.0641376
0.0530179
0.0897965
0.110187
0.0754741
0.0770215
0.0596736
0.0626354
0.0646889
0.0679268
0.0689714
0.0719686
0.0728577
0.0771906
0.0818627
0.0906035
0.0995192
0.108115
0.110424
0.117285
0.108358
0.0833109
0.0762339
0.0843767
0.0840702
0.073846
0.0851325
0.065174
0.0786512
0.0767025
0.0746334
0.0683913
0.0751323
0.0901389
0.0830946
0.0989
0.0993605
0.0631426
0.0733495
0.0681926
0.0500764
0.0495355
0.0433912
0.0321042
0.028255
0.0389935
0.0381282
0.037214
0.0364533
0.0359129
0.0353318
0.0354315
0.0361903
0.0410274
0.0280601
0.0174556
0.0134246
0.0140005
0.0110899
0.0102314
0.0107888
0.0110219
0.0111894
0.0114954
0.0119682
0.0114267
0.0111769
0.0110544
0.0108605
0.0107029
0.010829
0.0108274
0.010972
0.0106902
0.0106362
0.0107515
0.0107044
0.010931
0.0108554
0.010668
0.010579
0.0107329
0.0117955
0.0123471
0.0126387
0.0162599
0.0152984
0.0148866
0.0147433
0.0144341
0.0137991
0.00893382
0.00902209
0.00918723
0.00912014
0.00980534
0.0100812
0.0144059
0.0159104
0.0158556
0.017451
0.0176264
0.0273073
0.025651
0.0242977
0.0281429
0.0337094
0.0342566
0.0261887
0.0290684
0.0186573
0.0324143
0.030981
0.0324833
0.0325747
0.0319463
0.0325515
0.0325322
0.0196745
0.0191319
0.0189009
0.0186148
0.0197296
0.0171702
0.0106346
0.0115248
0.0108691
0.0113421
0.0118604
0.0154924
0.0127602
0.0136063