/*--------------------------------*- C++ -*----------------------------------*\
| =========                 |                                                 |
| \\      /  F ield         | OpenFOAM: The Open Source CFD Toolbox           |
|  \\    /   O peration     | Version:  v2012                                 |
|   \\  /    A nd           | Website:  www.openfoam.com                      |
|    \\/     M anipulation  |                                                 |
\*---------------------------------------------------------------------------*/
FoamFile
{
    version     2.0;
    format      ascii;
    class       volScalarField;
    location    "645";
    object      alphat;
}
// * * * * * * * * * * * * * * * * * * * * * * * * * * * * * * * * * * * * * //

dimensions      [1 -1 -1 0 0 0 0];


internalField   nonuniform List<scalar> 
18258
(
0.00485667
0.00211291
0.00173259
0.00150186
0.000992952
0.0016256
0.00225733
0.00268697
0.00281876
0.00279408
0.00289236
0.00487981
0.00684732
0.00846135
0.00888775
0.00887362
0.00805353
0.00768987
0.00835038
0.0102709
0.00864178
0.00553579
0.00663168
0.0076658
0.00834402
0.00739188
0.00597472
0.00553409
0.00501171
0.004178
0.00350294
0.00238774
0.00175711
0.00162878
0.00147592
0.00168228
0.00183222
0.00195371
0.00199761
0.00202912
0.0020153
0.00200374
0.00194948
0.00191597
0.00185899
0.00153767
0.00185949
0.00190528
0.00208606
0.00288154
0.00309554
0.00260409
0.00288292
0.00257194
0.00169519
0.00194095
0.00210714
0.00215268
0.00212498
0.00203673
0.00200693
0.00198169
0.00194971
0.00191177
0.00188863
0.00190749
0.00192719
0.00190616
0.00181239
0.00173641
0.00161345
0.0014902
0.0013988
0.00132799
0.00127461
0.00121548
0.00114904
0.0010093
0.000935391
0.00123852
0.00155475
0.00166109
0.00235419
0.0028701
0.00288935
0.00216255
0.00154101
0.00159919
0.001778
0.00179618
0.00152252
0.00181076
0.00205148
0.00212643
0.00221604
0.0024766
0.00281824
0.00274704
0.00244631
0.00225338
0.0022232
0.00254247
0.00241391
0.00313034
0.00315606
0.00275786
0.0025285
0.0028461
0.00367004
0.00395
0.00307279
0.00288567
0.00282866
0.00279306
0.00252576
0.00261359
0.00237319
0.00213835
0.00232935
0.00281584
0.002671
0.00291776
0.00302313
0.00283606
0.00328611
0.00378952
0.00373459
0.00298866
0.00243586
0.00227062
0.00228803
0.00139936
0.00151116
0.00162883
0.00166872
0.00169656
0.00172027
0.00183434
0.0018302
0.0018034
0.00179942
0.00183153
0.00100918
0.00109328
0.00112043
0.00112827
0.00107167
0.00106068
0.00104094
0.00102486
0.000966139
0.000924401
0.00110616
0.00124215
0.00135302
0.00148258
0.00167609
0.00191286
0.0021617
0.00241319
0.00257962
0.00262714
0.00267513
0.00257834
0.00248082
0.00256941
0.00258436
0.00256769
0.00253321
0.0024897
0.00243094
0.00232319
0.0024484
0.00244169
0.00229373
0.00196512
0.00200926
0.00200569
0.00205784
0.00204716
0.00206775
0.00203839
0.00200403
0.00190764
0.00177319
0.00147668
0.00144168
0.0014601
0.00187504
0.00227639
0.0035163
0.00428906
0.00497896
0.00532735
0.00570187
0.00461392
0.0051352
0.00395901
0.00355437
0.00451732
0.00591029
0.00337207
0.00184158
0.00349169
0.00309761
0.002247
0.00199968
0.00206021
0.00206148
0.00236489
0.00272671
0.00302694
0.00317292
0.00330174
0.00340491
0.00351828
0.00366211
0.00370111
0.00357551
0.00302568
0.00364758
0.00296159
0.00345726
0.00312383
0.00210974
0.0022176
0.00235795
0.00216034
0.0021021
0.00201279
0.00181267
0.002235
0.00290364
0.0033708
0.00385374
0.00513649
0.00475213
0.00455979
0.00353067
0.00341412
0.00177286
0.00252971
0.00261756
0.00294516
0.00195762
0.001786
0.00169437
0.00224066
0.00259608
0.00306496
0.00340084
0.00404063
0.00313172
0.00357419
0.00323345
0.00225347
0.0021686
0.00310563
0.00334566
0.00275238
0.00245986
0.00308651
0.00292109
0.00207223
0.0016575
0.00254668
0.0026368
0.00189242
0.00472156
0.00502349
0.00480058
0.00585946
0.00733282
0.00836246
0.00778924
0.00690504
0.00770947
0.00611397
0.00592482
0.00632823
0.00530691
0.00370261
0.00379706
0.0039272
0.00403309
0.00432971
0.00459926
0.00492861
0.00524364
0.00476675
0.00395808
0.00299525
0.00206096
0.0020335
0.00202351
0.00181695
0.00269256
0.00407253
0.00404388
0.0022972
0.00133932
0.00151529
0.0017112
0.00169447
0.00122919
0.000925338
0.00159412
0.0018227
0.0018521
0.00180608
0.0017052
0.00178182
0.00286139
0.00440808
0.00484349
0.00501641
0.00517998
0.00529543
0.00535953
0.00537964
0.00539069
0.00540434
0.00541635
0.00543484
0.00541794
0.00530254
0.00466402
0.00293245
0.00171425
0.00159254
0.00175762
0.00188899
0.00200372
0.00170497
0.00104238
0.00166503
0.00213196
0.00245034
0.00247118
0.00230625
0.00223718
0.00352756
0.00469023
0.00552847
0.00569812
0.00577349
0.00570982
0.00570121
0.00557631
0.00553692
0.00485472
0.00347582
0.00380083
0.00408132
0.00412871
0.00422458
0.00436842
0.00426735
0.00403084
0.00589139
0.00679708
0.00688395
0.00703
0.00694612
0.00682532
0.00651441
0.00615947
0.005185
0.00388812
0.00245307
0.00250403
0.00266542
0.00263965
0.00229756
0.00242124
0.00262799
0.00265434
0.00274119
0.00307438
0.00349206
0.00333076
0.00286572
0.00243414
0.00226645
0.00221922
0.00212945
0.00159533
0.00161892
0.00157339
0.00159918
0.00214785
0.00255635
0.00294827
0.0041825
0.003731
0.0030342
0.00481304
0.00493147
0.00529857
0.00585295
0.00599811
0.00664673
0.00462564
0.00416823
0.00428196
0.00349763
0.00323733
0.00327179
0.00328409
0.00306044
0.00334983
0.00332049
0.00320061
0.00353375
0.0038944
0.00513565
0.00622374
0.00656745
0.0067664
0.0068481
0.00682263
0.00668941
0.00673085
0.00591142
0.00590429
0.005655
0.00549224
0.00543417
0.00516364
0.00591175
0.00613784
0.00621326
0.00636838
0.00661003
0.00643156
0.00623138
0.00607916
0.00596882
0.00585323
0.00591579
0.00602609
0.00614365
0.00630874
0.00652942
0.00656625
0.00633764
0.00616486
0.00604659
0.00593547
0.0059402
0.00603932
0.00615484
0.00631858
0.00652761
0.00641155
0.00624917
0.00610443
0.00598566
0.00588104
0.00567535
0.00581264
0.00596358
0.00608797
0.00616859
0.00532931
0.00569656
0.00559841
0.00506842
0.00474354
0.00360224
0.00389844
0.00411111
0.00447775
0.00497042
0.00506726
0.00425205
0.00364378
0.00355053
0.00352182
0.0036046
0.00363452
0.00365229
0.00412704
0.00622159
0.00626342
0.00628057
0.0062828
0.00537142
0.00521939
0.00486303
0.0088956
0.00828082
0.00717363
0.00591091
0.00316721
0.00271491
0.00321623
0.00391111
0.00437256
0.00482475
0.00320344
0.00198387
0.00231188
0.00239647
0.00233705
0.00215988
0.0017994
0.00166102
0.00150748
0.00162243
0.00287378
0.00458677
0.00516684
0.00522189
0.00517019
0.00506951
0.00494683
0.00477594
0.00472114
0.00596417
0.008087
0.00909733
0.00905735
0.00778076
0.00634869
0.0035845
0.00185237
0.0013723
0.00146162
0.00160652
0.00188422
0.00167686
0.0014264
0.00156199
0.00147427
0.0029821
0.00513793
0.00652642
0.00775436
0.00763918
0.00665025
0.00542111
0.00512809
0.00524774
0.00532922
0.00539815
0.00546879
0.00551717
0.00548623
0.00499326
0.00308435
0.00184104
0.00163555
0.00175838
0.00206089
0.00219026
0.00221318
0.00218284
0.00189258
0.00313073
0.00497043
0.00316139
0.0017247
0.00186323
0.00184931
0.00326232
0.00325759
0.0031878
0.00495947
0.00524444
0.00523215
0.00491632
0.00469283
0.00277858
0.00315446
0.00316529
0.00318198
0.00323408
0.00163394
0.00178119
0.00183684
0.00197784
0.00172793
0.00219404
0.00056783
0.000787327
0.000914698
0.000994888
0.00107198
0.0010516
0.00201238
0.00204236
0.0019487
0.0018972
0.00240757
0.00258345
0.00264023
0.00243145
0.00224345
0.00238816
0.0023936
0.00225599
0.00213682
0.00221527
0.00221671
0.00212434
0.00180688
0.00169316
0.00185872
0.00183879
0.00182423
0.00327535
0.00326953
0.00309449
0.00508344
0.00500204
0.00560212
0.00556553
0.00555838
0.00553522
0.00559472
0.00562625
0.00565021
0.00567797
0.00566725
0.00561252
0.00780398
0.00552178
0.00481845
0.00278694
0.00268466
0.00189609
0.00166179
0.00195678
0.00209285
0.00226897
0.00221769
0.00233779
0.00233488
0.00247765
0.00229964
0.00204188
0.00312721
0.00334072
0.00326275
0.00332722
0.00324889
0.0032297
0.00320606
0.00316065
0.00310587
0.00184946
0.00181425
0.0021245
0.00223014
0.00239632
0.00241796
0.00247046
0.00234289
0.00206044
0.00199443
0.00229703
0.00226602
0.00231019
0.00217807
0.00216895
0.00193214
0.00198112
0.00399421
0.00737089
0.00379533
0.0042158
0.00381989
0.00434444
0.00380554
0.00328218
0.00335922
0.00295881
0.00308638
0.00323741
0.00329596
0.00346411
0.00408336
0.0039311
0.00345063
0.00335046
0.00328452
0.00309707
0.00278774
0.00292005
0.00294614
0.00300936
0.00334465
0.00383678
0.00430036
0.00522593
0.00507111
0.00444239
0.00406169
0.00425924
0.00433363
0.00545532
0.00509606
0.00506606
0.00534479
0.00529222
0.00502243
0.00475861
0.00459311
0.0039436
0.00400845
0.00458688
0.00443852
0.00457419
0.00449391
0.00467245
0.00475695
0.00456525
0.0042428
0.00446201
0.00445343
0.00494498
0.00480865
0.0044611
0.00407966
0.00436285
0.00431097
0.00497886
0.00468586
0.00438251
0.00403517
0.00386605
0.00438734
0.00430651
0.00488246
0.00502483
0.0050272
0.00438331
0.00428069
0.00509004
0.00489652
0.00473114
0.00492811
0.00408187
0.00419703
0.00516999
0.00527798
0.00500821
0.00418224
0.00424489
0.00363902
0.00427981
0.00532695
0.00503128
0.00412396
0.00342289
0.00478789
0.00503686
0.0053276
0.0050352
0.00548316
0.00590665
0.00481535
0.00523858
0.00684433
0.00522645
0.0060647
0.00619876
0.00623488
0.00623762
0.00626113
0.00629159
0.00662703
0.00644321
0.00410067
0.00490205
0.00476366
0.00398734
0.00339394
0.00373754
0.00402541
0.00408381
0.00418762
0.00434701
0.00427175
0.0041277
0.006044
0.0068947
0.00704538
0.00718406
0.00706462
0.0068872
0.00648321
0.00599425
0.00498846
0.00372275
0.00232681
0.00237297
0.00252982
0.00250714
0.00217612
0.001641
0.00107847
0.00159819
0.00165181
0.00155621
0.00141991
0.00125664
0.00130526
0.00236839
0.00426936
0.00620445
0.00692498
0.00750958
0.00810167
0.00862354
0.00901525
0.00930675
0.009512
0.00964361
0.00967431
0.00949911
0.00866417
0.00827856
0.00779814
0.00740138
0.00685019
0.00641915
0.00726118
0.00797572
0.00841374
0.00890563
0.00913131
0.00903283
0.00783895
0.00760745
0.00876902
0.0108069
0.0091912
0.0115518
0.0135722
0.0105657
0.00948685
0.00947264
0.0105968
0.0108037
0.0104263
0.00983423
0.00915292
0.00828641
0.00872966
0.00913076
0.00951626
0.00987203
0.0107843
0.010936
0.0108466
0.0106612
0.0104237
0.0101107
0.00963936
0.00898049
0.0081688
0.00733523
0.00637485
0.00434581
0.00221729
0.00249814
0.00246609
0.00248574
0.0024984
0.00119692
0.00132073
0.00133558
0.00134185
0.00126299
0.00143745
0.00207873
0.00334402
0.00240476
0.0019848
0.00137449
0.00160907
0.00268152
0.0045346
0.00511461
0.00522353
0.00554327
0.00730607
0.00798826
0.00843837
0.00880805
0.00903099
0.00892765
0.00865696
0.00817133
0.00755729
0.00730569
0.0068909
0.00651955
0.00630968
0.00609997
0.0057168
0.00447448
0.00432649
0.00450527
0.00444829
0.00425746
0.00454966
0.00471364
0.00470915
0.00476092
0.00480609
0.00494736
0.00511369
0.00525833
0.00533391
0.00536157
0.00536989
0.00538038
0.00538864
0.00540471
0.00538608
0.00526792
0.00462559
0.00289296
0.00168901
0.00156153
0.00171208
0.00181049
0.00185258
0.00164527
0.00105921
0.001646
0.0021305
0.00218513
0.00239743
0.00247307
0.00262076
0.002918
0.00337153
0.00347884
0.00308715
0.00292428
0.00286259
0.00278999
0.00239158
0.00298042
0.00328172
0.00327467
0.00324284
0.00350463
0.00431262
0.00414297
0.00365376
0.00361395
0.00357817
0.00324122
0.0031924
0.00348206
0.00351991
0.00365029
0.00427962
0.00513171
0.00476131
0.0043372
0.00415948
0.00384205
0.00338614
0.00306187
0.00375522
0.00307624
0.00163637
0.00139755
0.00138426
0.00139205
0.00134631
0.00159472
0.00167636
0.00169655
0.00157364
0.00174587
0.00194257
0.00187825
0.00213027
0.00210242
0.00188298
0.00186732
0.00201383
0.00212026
0.00217579
0.00224202
0.00366456
0.00378654
0.00292814
0.00422692
0.00487311
0.00482424
0.00511491
0.00421458
0.00377839
0.00448285
0.00517608
0.00593025
0.0046931
0.00443913
0.00453998
0.00209159
0.00110061
0.00155249
0.00192729
0.00214813
0.00208377
0.00196827
0.001664
0.00294653
0.00302748
0.00479244
0.0053762
0.00544407
0.00541074
0.00557412
0.00615082
0.00716152
0.00790651
0.00812461
0.00800721
0.00767086
0.00704521
0.00641934
0.00636149
0.00612695
0.00595135
0.0058912
0.00510909
0.00453267
0.00484835
0.00476615
0.00492608
0.00500008
0.0050534
0.00510766
0.00519882
0.00530883
0.00540851
0.00547605
0.00552064
0.00555815
0.00559673
0.00563566
0.0056779
0.00570019
0.00564522
0.00510134
0.00306129
0.00182586
0.0016659
0.00177753
0.00208902
0.00219946
0.00236395
0.00209943
0.00110593
0.00129992
0.00225952
0.00250454
0.00231705
0.00216862
0.00212995
0.00178437
0.00323046
0.00318786
0.0050008
0.00562438
0.00570339
0.00568808
0.00564456
0.00559557
0.00554991
0.00551259
0.00548312
0.00545156
0.00540578
0.00534967
0.00529689
0.00524346
0.00515134
0.0050198
0.00488251
0.00507526
0.00523741
0.0054468
0.0056899
0.00582448
0.00572518
0.00556184
0.00547784
0.00550199
0.00554721
0.00559517
0.00563836
0.00565879
0.00559627
0.00527467
0.00495048
0.00313753
0.00317816
0.00156568
0.00173935
0.00200688
0.00207266
0.00225122
0.0022411
0.0017627
0.00137357
0.00154931
0.00144741
0.00258448
0.00284182
0.0031507
0.00311943
0.00169559
0.00173898
0.00180734
0.00203931
0.00189663
0.00183216
0.00450183
0.00431919
0.00452385
0.00554866
0.00478152
0.00330415
0.00362069
0.00503748
0.00531127
0.00321238
0.00241013
0.00267222
0.00338501
0.00498288
0.00504377
0.00479026
0.00476493
0.00348082
0.00427968
0.00514738
0.00500606
0.00390634
0.00269144
0.00200383
0.00097641
0.00185737
0.00158827
0.00388715
0.00430097
0.00424924
0.00464597
0.00493737
0.00498805
0.00484562
0.00430014
0.00438529
0.00442822
0.00504366
0.00506469
0.00429097
0.0036213
0.00294383
0.00296952
0.00302632
0.00335284
0.00419784
0.00395542
0.00346735
0.00336286
0.003291
0.00309622
0.00279452
0.00245175
0.00246849
0.00229749
0.00222337
0.00350444
0.00466437
0.00550006
0.0056584
0.00571607
0.00562896
0.00558992
0.00543096
0.00534919
0.00464785
0.00593541
0.00627253
0.00605148
0.00609497
0.00613186
0.00617748
0.00617729
0.00606047
0.00520905
0.0031114
0.00203261
0.00229432
0.00247651
0.00232575
0.00231242
0.00246436
0.00233823
0.0020538
0.00332732
0.003252
0.00519887
0.00588639
0.00601322
0.00602168
0.00599834
0.00597916
0.00598749
0.00630283
0.00615795
0.0062343
0.00656191
0.00657602
0.00665652
0.0062501
0.00617099
0.00612061
0.006087
0.00603197
0.00588422
0.00520747
0.00504836
0.00573262
0.00590896
0.00598714
0.00604145
0.00610654
0.00619226
0.00643866
0.00662131
0.00668769
0.00641834
0.00632327
0.00617736
0.00596822
0.00591868
0.00590809
0.00590302
0.00587374
0.00572076
0.00503641
0.00323872
0.00331861
0.00197439
0.00198737
0.0022891
0.00240449
0.00236178
0.0021872
0.00213256
0.0036627
0.00416881
0.00443649
0.00477642
0.0045615
0.00453552
0.00518479
0.00501776
0.00447564
0.00465599
0.00417509
0.00398006
0.00384431
0.00386442
0.00203875
0.00219984
0.00229441
0.00225614
0.00215742
0.00192415
0.00176451
0.00321979
0.00319628
0.00315432
0.00187633
0.0018353
0.00216224
0.00209998
0.00192116
0.00163764
0.00179515
0.00277076
0.00309876
0.0048044
0.00497612
0.00532709
0.005697
0.00583755
0.00587586
0.00589869
0.005925
0.0059806
0.00604672
0.00606492
0.00606255
0.00611635
0.00610796
0.00610781
0.00607331
0.00603457
0.00599012
0.00594319
0.00586691
0.00571053
0.00533629
0.0049693
0.00560279
0.00565452
0.00576023
0.00586999
0.00591768
0.00592685
0.00590798
0.00586824
0.00582122
0.00576516
0.00576369
0.00591893
0.00595428
0.0059813
0.00596271
0.00594287
0.00593676
0.00591192
0.00587039
0.00576173
0.00565257
0.00560563
0.00551195
0.00565993
0.0057255
0.00573578
0.00579155
0.00588059
0.00590413
0.00590084
0.00585607
0.00581926
0.00577394
0.00570056
0.00560722
0.00528578
0.00535244
0.00544005
0.00555393
0.00566413
0.00575305
0.00580232
0.00580387
0.00574904
0.00571233
0.0057132
0.0056648
0.00569032
0.00571674
0.00568883
0.00568722
0.00569413
0.00563304
0.00551854
0.00535812
0.00518765
0.00504492
0.00496883
0.00484683
0.00522975
0.00537234
0.00550063
0.00561529
0.00572041
0.00582756
0.00586349
0.00585486
0.00578945
0.00575205
0.00574994
0.00569416
0.00569226
0.00574629
0.00574905
0.00578042
0.00583772
0.00581824
0.00573714
0.00553681
0.00534321
0.0051765
0.00501855
0.00484959
0.00478817
0.00486658
0.00480906
0.00488376
0.00505604
0.00526875
0.00545107
0.00556465
0.00559866
0.00563102
0.00568049
0.00567381
0.00564385
0.00562873
0.00556173
0.00550408
0.00543282
0.0052733
0.00506689
0.00488211
0.00481808
0.00491219
0.00501051
0.00491946
0.00458065
0.00476097
0.00492781
0.00509527
0.00533545
0.00561447
0.00574045
0.00578523
0.00575833
0.00573695
0.00573375
0.00568256
0.00566557
0.00571264
0.00571641
0.00573794
0.00577383
0.00573302
0.00562759
0.00528427
0.00488142
0.00469095
0.00458059
0.00442313
0.00494367
0.00504708
0.00492185
0.00483813
0.00497015
0.00512617
0.00528806
0.00539498
0.00543612
0.00549322
0.00556863
0.00560391
0.00554936
0.00548717
0.00540968
0.00536955
0.00536724
0.00533706
0.00523114
0.00510983
0.0049745
0.00514306
0.00524191
0.00514728
0.00466374
0.00474108
0.00484623
0.00490299
0.00528032
0.00561934
0.00570574
0.00571587
0.00568264
0.00566127
0.00566262
0.00563307
0.00557852
0.00556805
0.00556143
0.00562404
0.00570588
0.00574265
0.00575827
0.00550277
0.00505418
0.00499285
0.0047972
0.0047001
0.0052161
0.00527758
0.00515731
0.00504435
0.00528288
0.00538592
0.00541711
0.00539852
0.00534429
0.00530758
0.00537452
0.00547976
0.00539875
0.00505038
0.00473959
0.00489908
0.00493668
0.00492222
0.00485401
0.00474263
0.00450444
0.00502878
0.00554038
0.00558275
0.00503784
0.00504597
0.00487412
0.00452321
0.00495746
0.00519611
0.00525296
0.00524103
0.00516651
0.00497396
0.00525655
0.0055042
0.00545788
0.00493943
0.00320579
0.00325071
0.00327543
0.00327966
0.00323668
0.00322502
0.00317819
0.0031543
0.00308137
0.00300763
0.00293648
0.00313253
0.00330041
0.00352576
0.00354431
0.00363744
0.00348311
0.00329864
0.00308121
0.00239634
0.00304117
0.0036288
0.00385566
0.00414721
0.00420823
0.00485569
0.00510988
0.00524991
0.0051525
0.00413229
0.00350563
0.00280134
0.00182168
0.00113502
0.0013326
0.00138634
0.00146183
0.00179404
0.00329172
0.00168147
0.00233044
0.001821
0.00313532
0.00166425
0.00103745
0.000687765
0.000878094
0.00104275
0.00105146
0.00100502
0.000836449
0.000653884
0.000668196
0.000621751
0.000660326
0.00059506
0.000681805
0.000637771
0.000885681
0.00132044
0.00151687
0.0015522
0.00125538
0.0014173
0.00118417
0.00136665
0.00122078
0.00133091
0.0012768
0.00156166
0.00171143
0.00163819
0.00164234
0.00143713
0.00100515
0.00116513
0.000915509
0.00109937
0.000841472
0.00108667
0.000931962
0.00121107
0.00124852
0.001245
0.0011988
0.0009159
0.0010858
0.000854977
0.00105045
0.000862245
0.00092009
0.000766566
0.00111425
0.00113558
0.0010456
0.00111773
0.00125662
0.00134727
0.001481
0.00139665
0.00158935
0.00153257
0.00155206
0.00146995
0.00142968
0.00139698
0.00139979
0.00137663
0.00138391
0.00142818
0.00142995
0.00143522
0.00147995
0.00145812
0.00142254
0.00140099
0.00124498
0.00100506
0.00175118
0.00180589
0.00183331
0.00183333
0.0017928
0.00177217
0.00170978
0.00169338
0.00163959
0.00160874
0.00153683
0.00147861
0.00141156
0.00158643
0.000888083
0.00100835
0.00106441
0.00109625
0.00111801
0.0011281
0.0011359
0.00112933
0.00111504
0.00108778
0.00107883
0.00104902
0.00134163
0.00152579
0.00159549
0.00161448
0.00151347
0.00144172
0.00315636
0.00382064
0.00580315
0.00593161
0.00445625
0.00444213
0.00153622
0.00162288
0.00110938
0.00155909
0.00160789
0.0015917
0.0015037
0.00108467
0.00162805
0.00113482
0.00152804
0.00114815
0.00141824
0.00117703
0.00168071
0.00214492
0.00207268
0.00187824
0.0012882
0.00106915
0.00107183
0.000911951
0.000998573
0.000816432
0.000999206
0.000842346
0.00124324
0.00175882
0.00196012
0.00200013
0.00157751
0.00217753
0.00163719
0.00237184
0.00188435
0.00232555
0.00186648
0.00215932
0.00267194
0.00268413
0.00262048
0.00211209
0.00169198
0.0018992
0.00168248
0.00193802
0.00280214
0.00183669
0.00278965
0.00115243
0.00157129
0.00162003
0.00159823
0.00150732
0.0010158
0.00258599
0.00136818
0.00243395
0.00157567
0.00252606
0.00183723
0.00244043
0.00291916
0.00305551
0.00304739
0.00248615
0.0022414
0.00232167
0.00185078
0.00222132
0.0016494
0.00239271
0.00135489
0.00175849
0.00194163
0.00204593
0.0020531
0.00168591
0.00333176
0.00209256
0.00315899
0.0021976
0.00281627
0.00225714
0.00246803
0.00291491
0.00289648
0.00287185
0.00243512
0.00197133
0.00260249
0.00185587
0.0555123
0.128105
0.051034
0.129461
0.0585768
0.0831531
0.0819224
0.082084
0.0823904
0.0618544
0.135024
0.159525
0.166353
0.168372
0.167123
0.270067
0.220237
0.330888
0.214512
0.126301
0.054807
0.075532
0.194833
0.321643
0.482604
0.612324
0.417262
0.431912
0.275612
0.27175
0.255849
0.206965
0.126851
0.0636019
0.0109293
0.0119614
0.0171002
0.0227526
0.0178768
0.0109311
0.00216199
0.00223074
0.00228078
0.00231205
0.00230429
0.00225605
0.00229316
0.0021675
0.00203905
0.00227873
0.00248318
0.00268336
0.0031524
0.00348207
0.00313672
0.00343902
0.0036459
0.00381424
0.00395278
0.00415882
0.00439086
0.00459534
0.00460641
0.00422058
0.00359637
0.00292632
0.00246132
0.00233247
0.00219067
0.00193194
0.00176768
0.00165627
0.00160173
0.00157891
0.00162224
0.00177245
0.00190227
0.00194766
0.00190878
0.00187371
0.00184309
0.00164108
0.00191852
0.00263164
0.0026533
0.00454553
0.00523766
0.00534627
0.00535338
0.00474738
0.00303316
0.00303965
0.00305521
0.00311319
0.00312527
0.00313267
0.00312921
0.00311745
0.00309914
0.00306485
0.00304796
0.00299879
0.0029576
0.00285552
0.00286014
0.00289764
0.00292686
0.00287973
0.00289225
0.00283047
0.00364703
0.00488937
0.00554123
0.00579326
0.00601088
0.00583531
0.00807372
0.00689062
0.00484868
0.00478871
0.00472772
0.0056063
0.00564511
0.00509971
0.00511955
0.00465921
0.00290512
0.0028908
0.00289248
0.00309132
0.00315102
0.00326063
0.00329038
0.00331898
0.00333509
0.00333266
0.00333147
0.00330509
0.0032838
0.00321132
0.00318703
0.00317698
0.00175152
0.00191134
0.00198187
0.00199425
0.00202127
0.00200844
0.00199519
0.00197097
0.00195416
0.00192135
0.0018824
0.00182713
0.00171834
0.00156621
0.00172459
0.00293026
0.00293077
0.00478737
0.00540817
0.00544721
0.00606019
0.00575431
0.00545071
0.0058517
0.00527948
0.00523863
0.0047306
0.00293479
0.0029744
0.00176346
0.00174647
0.00204061
0.00198293
0.00211899
0.00217636
0.00218376
0.00221403
0.00224383
0.00227994
0.00233781
0.00235577
0.00232142
0.00231568
0.00218229
0.00188601
0.00190891
0.00225026
0.00235927
0.00218915
0.00214867
0.00213126
0.00207911
0.00203925
0.00200061
0.00202666
0.00218182
0.00218018
0.00214274
0.00203969
0.0019879
0.00172529
0.00166805
0.00291447
0.00294476
0.00485349
0.00499904
0.00496582
0.00571031
0.00636155
0.00724175
0.00617686
0.00502021
0.00521418
0.0059557
0.00442044
0.00366565
0.0021829
0.00165406
0.00202608
0.00192396
0.00200367
0.00207612
0.00184364
0.0019789
0.00182941
0.00166217
0.00165302
0.00165086
0.00169215
0.0017093
0.00174047
0.00174461
0.00178671
0.00178276
0.00178862
0.00181061
0.00182193
0.0020132
0.00219008
0.00184232
0.00156151
0.00151974
0.00143489
0.00136555
0.0013987
0.00136527
0.00135699
0.00133202
0.00130949
0.00124938
0.00130212
0.00138161
0.00161628
0.00154817
0.00125138
0.00111813
0.000764484
0.00077905
0.000784448
0.000808742
0.000817539
0.000828392
0.000832387
0.000845989
0.000848599
0.000852869
0.000852521
0.00087316
0.000870166
0.000860243
0.000853753
0.000858111
0.000862262
0.000861735
0.00126175
0.00140527
0.00153669
0.00182581
0.00215023
0.00185034
0.00156748
0.00134991
0.000867683
0.000880861
0.000897103
0.000905419
0.000924882
0.000942519
0.000962346
0.000974879
0.000984418
0.00099436
0.00100482
0.00100918
0.00100688
0.000987677
0.000976337
0.00100129
0.00110041
0.00115798
0.0012317
0.00125955
0.0012836
0.00129571
0.00128931
0.0013026
0.00128705
0.00128478
0.00126254
0.00125293
0.00124373
0.00123217
0.00121801
0.00118319
0.00117161
0.00123271
0.00208735
0.002731
0.00314905
0.00347125
0.00320206
0.00259008
0.00273152
0.00479589
0.00453473
0.00268325
0.00250184
0.00230554
0.00201114
0.00176582
0.00213229
0.00243337
0.0026623
0.00286425
0.00304891
0.00317414
0.00333427
0.00354278
0.0039121
0.00395857
0.00361065
0.00292685
0.00247937
0.00231735
0.0022395
0.00210273
0.00195333
0.00200215
0.0020165
0.00195637
0.00188165
0.00186016
0.00189066
0.00192892
0.00190559
0.00190479
0.00170156
0.00170103
0.00290631
0.00296271
0.00455691
0.00480087
0.00484673
0.00311686
0.00307384
0.00179556
0.00166737
0.00181893
0.00188802
0.00189182
0.0018993
0.00188924
0.00185607
0.00183171
0.00180346
0.00178059
0.00176063
0.00172613
0.00166064
0.00153379
0.00167194
0.00187507
0.00195728
0.00197824
0.00198811
0.00201939
0.00207076
0.00211211
0.0022077
0.00221804
0.00221726
0.0022252
0.00208025
0.0021456
0.001816
0.00181361
0.00314306
0.00313498
0.00180108
0.00212677
0.00214087
0.00211577
0.0022775
0.00208423
0.00201808
0.00200671
0.00192177
0.00187653
0.00181643
0.00178063
0.001816
0.00193249
0.00187216
0.00165883
0.00160089
0.00179492
0.00172527
0.00143125
0.00122267
0.00118878
0.00113781
0.0011069
0.00116007
0.00120145
0.00122506
0.00125509
0.00126401
0.0013192
0.00128375
0.00134751
0.00142899
0.00149375
0.00177202
0.00192017
0.00173471
0.00170143
0.00168031
0.00167801
0.00168317
0.0016139
0.0016093
0.00157348
0.00155586
0.00150916
0.00148807
0.0014613
0.00146627
0.00148199
0.00162938
0.00420046
0.00535257
0.00557412
0.00950918
0.00384534
0.00392847
0.00769124
0.00318677
0.00478846
0.00513236
0.00536641
0.0056038
0.00512755
0.00650091
0.00454564
0.00505872
0.00528409
0.00465132
0.00172492
0.00193026
0.00224422
0.00202082
0.00178583
0.00121802
0.00131467
0.00135837
0.00139369
0.00141683
0.0014422
0.00146947
0.00149499
0.00151295
0.00151334
0.00146755
0.0014181
0.00130443
0.00126655
0.00131564
0.0013664
0.00120044
0.00113035
0.00114382
0.00116282
0.00117355
0.00117596
0.00118771
0.00119095
0.00120943
0.00119977
0.0012092
0.00118866
0.00119945
0.00118353
0.00114297
0.00108627
0.000989667
0.000965896
0.00139111
0.00148124
0.00155616
0.00176547
0.00203823
0.00217474
0.00194913
0.00179729
0.00172522
0.00191391
0.00191366
0.00347078
0.0066589
0.00298657
0.00334774
0.0097304
0.00387492
0.00301852
0.00306442
0.00309673
0.00310091
0.00180216
0.00213464
0.00206992
0.00207771
0.00176201
0.00147916
0.00132676
0.00118634
0.000804321
0.000801597
0.000807653
0.000819898
0.000823685
0.000788523
0.000788431
0.000783936
0.000782166
0.000765615
0.000760992
0.000747555
0.000739399
0.000720053
0.000709539
0.000691024
0.000687533
0.000713658
0.000790757
0.000954925
0.00106713
0.00121053
0.00123389
0.0013971
0.00347769
0.00403017
0.0055503
0.00549972
0.0086755
0.00541961
0.00409447
0.0037048
0.00541943
0.00559801
0.00520607
0.0070535
0.00488178
0.00322665
0.00477383
0.00395497
0.00478116
0.00465991
0.00493262
0.00782907
0.00826286
0.00233274
0.00208009
0.00218911
0.00248321
0.00294799
0.00271159
0.00309062
0.00308243
0.00237365
0.00152343
0.00485353
0.00585446
0.00466986
0.00558483
0.008676
0.00349363
0.00340785
0.00301554
0.00251699
0.00228786
0.00225674
0.00251601
0.00301075
0.007549
0.00807119
0.00738339
0.00733845
0.00666792
0.00738101
0.00921687
0.00919079
0.00811374
0.00759167
0.00784262
0.00481725
0.00303901
0.00354003
0.00391804
0.00522654
0.00538878
0.0113834
0.00385899
0.00426604
0.00433128
0.00579694
0.00560717
0.00992342
0.00419782
0.00452971
0.00596742
0.00796626
0.014705
0.0053574
0.0056507
0.00812884
0.00824923
0.00754082
0.00544836
0.00494054
0.00538729
0.00405798
0.00396666
0.00338894
0.00500538
0.00674046
0.00532206
0.00516817
0.00440117
0.00390441
0.00401171
0.00415937
0.00345409
0.00340763
0.00393761
0.0029119
0.00281248
0.00299299
0.000828788
0.000424861
0.000434443
0.000445712
0.000454859
0.00046425
0.000471157
0.000479293
0.000483026
0.000483383
0.000484591
0.000512436
0.000507805
0.000491755
0.000446539
0.000509606
0.000808711
0.000809313
0.000509089
0.000448835
0.000805226
0.00128312
0.00151265
0.00178981
0.00181215
0.00156337
0.00135542
0.000834184
0.000821124
0.00049777
0.00058132
0.000631311
0.000559902
0.000624798
0.000579056
0.000613414
0.000619541
0.000573231
0.000570095
0.000572336
0.000567932
0.000557887
0.000545544
0.000530481
0.0005185
0.000511673
0.000506023
0.00049417
0.000412026
0.000383466
0.000459397
0.000730514
0.00072933
0.000684381
0.000646629
0.000614644
0.000600439
0.000596733
0.000593686
0.000604062
0.000623633
0.000629125
0.000634579
0.000683707
0.000662749
0.00070792
0.000664271
0.000709743
0.000666257
0.000612877
0.000514614
0.000530947
0.000856433
0.000865527
0.0013986
0.00160026
0.0018149
0.00182439
0.00203649
0.00214443
0.0018157
0.00188501
0.00216056
0.00201262
0.00179428
0.00180117
0.00162034
0.0016216
0.00143609
0.00089737
0.000885156
0.000555977
0.000539936
0.000643835
0.00063253
0.000703514
0.000752844
0.000753136
0.000750688
0.000731319
0.000724486
0.00063723
0.000624804
0.000625618
0.000606603
0.000602344
0.000627297
0.00068295
0.000799918
0.000966841
0.0010532
0.00109111
0.00104779
0.00093882
0.000690843
0.000625761
0.00108296
0.00112621
0.00200154
0.0047405
0.00218462
0.00424121
0.00306204
0.000764209
0.000853464
0.00108846
0.00121975
0.0013166
0.00137099
0.00125161
0.00104344
0.000785833
0.000649172
0.000972197
0.000840763
0.00095077
0.000830555
0.00107484
0.00124291
0.00120253
0.00121173
0.0010242
0.000834511
0.000883739
0.000793659
0.000874841
0.000732378
0.000881181
0.000795687
0.000999944
0.00100935
0.000988373
0.00093688
0.000713383
0.000748493
0.000627819
0.000681015
0.000611363
0.000631886
0.000598784
0.000698298
0.000804647
0.000772224
0.000769185
0.000631976
0.000495173
0.000546847
0.00047269
0.000534964
0.000415736
0.000503669
0.000422463
0.00054683
0.000563565
0.0005662
0.000561869
0.000456439
0.000536594
0.000658881
0.000692483
0.000698459
0.000665644
0.000512969
0.000793918
0.000717052
0.000875571
0.000757658
0.000829058
0.000755086
0.000880107
0.00112706
0.00117657
0.00118437
0.000960817
0.000954706
0.00174148
0.0964796
0.0015665
0.00185145
0.0019091
0.00190216
0.0015728
0.00153477
0.0019005
0.00140638
0.00199108
0.00125364
0.00212284
0.000809351
0.00123023
0.00132077
0.00131788
0.00122469
0.000820404
0.00242517
0.119564
0.308339
0.334314
0.333724
0.320737