/*--------------------------------*- C++ -*----------------------------------*\
| =========                 |                                                 |
| \\      /  F ield         | OpenFOAM: The Open Source CFD Toolbox           |
|  \\    /   O peration     | Version:  v2012                                 |
|   \\  /    A nd           | Website:  www.openfoam.com                      |
|    \\/     M anipulation  |                                                 |
\*---------------------------------------------------------------------------*/
FoamFile
{
    version     2.0;
    format      ascii;
    class       volScalarField;
    location    "645";
    object      epsilon;
}
// * * * * * * * * * * * * * * * * * * * * * * * * * * * * * * * * * * * * * //

dimensions      [0 2 -3 0 0 0 0];


internalField   nonuniform List<scalar> 
18258
(
0.0242943
0.0123892
0.00926431
0.00730329
0.0127435
0.0126653
0.0131172
0.0174816
0.0243318
0.0372023
0.0537822
0.0482848
0.0436177
0.0453271
0.0474671
0.0450173
0.0350287
0.0302843
0.0398334
0.0665647
0.0609598
0.0497939
0.0610339
0.0515222
0.0656646
0.0829751
0.0635564
0.0571992
0.0513559
0.0483116
0.0417138
0.023609
0.0345751
0.0533328
0.0728197
0.0795929
0.085311
0.0900965
0.0953198
0.0974599
0.0977048
0.0924487
0.0832148
0.0680788
0.0500678
0.0385932
0.0305128
0.0310537
0.0436865
0.0445245
0.0551881
0.0849366
0.107403
0.0806438
0.0517152
0.0823798
0.112297
0.144035
0.170549
0.193006
0.200743
0.197345
0.185844
0.169139
0.147714
0.122744
0.101759
0.0848396
0.0670592
0.0572583
0.0463028
0.0383868
0.0328155
0.0291512
0.0269463
0.0252269
0.0240661
0.0249926
0.0248767
0.0177428
0.0139547
0.0131049
0.00937247
0.00778796
0.00809961
0.00770232
0.00799914
0.00706007
0.00604882
0.00525466
0.00445985
0.00650132
0.00699921
0.00724145
0.00726156
0.00777948
0.00801858
0.0077521
0.00784369
0.00716476
0.00761689
0.0120808
0.0137953
0.017498
0.0157027
0.011008
0.00899937
0.0100481
0.0106564
0.0132753
0.0125458
0.0133135
0.0118067
0.0107937
0.00910717
0.00883158
0.00905672
0.00962695
0.010021
0.0116354
0.0114715
0.0106486
0.0117687
0.0129805
0.0127054
0.0121638
0.0115795
0.0142144
0.0114083
0.0120897
0.013584
0.0218883
0.021418
0.0259223
0.0254448
0.025876
0.0260546
0.0314363
0.0315579
0.0319416
0.0322602
0.0340272
0.0569514
0.0507269
0.0496093
0.0494134
0.0427357
0.0422794
0.0416017
0.0424176
0.0359139
0.0345657
0.0313549
0.0310013
0.0345979
0.0436955
0.0611535
0.0883799
0.122297
0.158618
0.188885
0.209866
0.231606
0.236988
0.250886
0.255609
0.256535
0.250892
0.242495
0.233054
0.220226
0.201679
0.188865
0.14847
0.10509
0.0590517
0.0783911
0.0903951
0.100098
0.101959
0.103094
0.0990294
0.0928382
0.081725
0.0662914
0.0431721
0.0482872
0.0655718
0.0680012
0.0688117
0.0546367
0.0526591
0.0489776
0.0490165
0.064505
0.0738952
0.0620625
0.0856911
0.100739
0.0881393
0.0639755
0.0979457
0.143686
0.0807409
0.0685555
0.0529178
0.0518813
0.0437924
0.0369805
0.0628763
0.093829
0.128604
0.149584
0.171287
0.188808
0.202075
0.216172
0.187893
0.170718
0.114893
0.201197
0.152412
0.0769173
0.0567663
0.0551394
0.0452102
0.0510494
0.0562682
0.0520465
0.0401402
0.0277404
0.0247742
0.0466245
0.0651128
0.0787047
0.0625297
0.0795643
0.0898945
0.0972326
0.102596
0.130331
0.0961378
0.106247
0.0759877
0.103136
0.0731115
0.0470058
0.0524341
0.10015
0.159973
0.219304
0.256461
0.14555
0.0735309
0.0545344
0.0545499
0.0527281
0.0477397
0.0593652
0.105755
0.0716966
0.0464934
0.04031
0.0475746
0.0414274
0.0307513
0.0323392
0.0397822
0.055097
0.0687798
0.0816331
0.12496
0.121304
0.146521
0.153721
0.129572
0.125311
0.0808971
0.0829654
0.122322
0.0912211
0.0737299
0.103672
0.146792
0.200847
0.246955
0.287128
0.312791
0.302558
0.273841
0.173279
0.0758765
0.0228703
0.0178007
0.0168553
0.0173268
0.0105261
0.00629288
0.00583766
0.00664241
0.00699824
0.005911
0.00544346
0.00543516
0.00577406
0.0101785
0.00874931
0.0108207
0.0131063
0.0156483
0.0186854
0.0194082
0.0128758
0.00871445
0.00817688
0.0081116
0.00804152
0.00801075
0.00802073
0.00805924
0.00807331
0.00803952
0.00795996
0.00782273
0.00768754
0.00763064
0.00826527
0.0111487
0.0153076
0.0148116
0.0135256
0.0121745
0.0110187
0.00869534
0.0151166
0.0128223
0.0109144
0.0133615
0.0164559
0.0207933
0.0244268
0.0176157
0.0141014
0.0127602
0.0126319
0.0125143
0.0125549
0.0124274
0.0124848
0.0122778
0.0128602
0.0135416
0.0169434
0.0189712
0.0211611
0.0226694
0.0232632
0.0239791
0.0211171
0.0229855
0.0227203
0.0234979
0.0233133
0.0226212
0.0206959
0.0188962
0.0176678
0.019075
0.0236253
0.0322411
0.0266443
0.0206731
0.0167236
0.0136755
0.0149495
0.0166212
0.0167952
0.0158085
0.0155808
0.0153731
0.0138498
0.0130514
0.0110603
0.0104531
0.0100026
0.0101606
0.0143573
0.0134903
0.0136734
0.0143928
0.0154663
0.0146286
0.0150611
0.0142332
0.0144811
0.0149009
0.0169756
0.0185235
0.0177682
0.0164642
0.0159662
0.0136985
0.0157989
0.015658
0.0169785
0.0185583
0.0190469
0.018983
0.0183475
0.0167506
0.0186388
0.0220003
0.0256469
0.0246528
0.0243365
0.0204071
0.0192161
0.0201931
0.021469
0.022374
0.0224366
0.0222447
0.0223101
0.0262693
0.025858
0.0246752
0.0226048
0.020157
0.0175045
0.0151121
0.0165869
0.0180653
0.0194535
0.0207206
0.0205078
0.0189771
0.0176192
0.0163897
0.0148982
0.0146204
0.016073
0.0172951
0.0187286
0.0204508
0.0205397
0.0188176
0.0173183
0.0160342
0.0145604
0.014517
0.0160179
0.0173189
0.0187406
0.0202321
0.0196011
0.0184416
0.0171872
0.0159422
0.0144889
0.0145584
0.015881
0.0169518
0.0180376
0.0189901
0.019837
0.0178776
0.0169662
0.0170545
0.0160656
0.0192399
0.0184857
0.0194277
0.0179799
0.0167613
0.0177673
0.0209515
0.0239772
0.0245272
0.024247
0.0201201
0.0205754
0.0205524
0.0191389
0.0159244
0.0153263
0.0180815
0.0208015
0.0212601
0.019964
0.0168829
0.0132526
0.014266
0.0174094
0.0197114
0.0184613
0.0183046
0.0168982
0.0158182
0.0161118
0.0138295
0.0165657
0.0265772
0.0240416
0.0220153
0.0195363
0.0155538
0.0105396
0.0114328
0.0125793
0.0129924
0.010506
0.00787158
0.00706953
0.00687783
0.00672037
0.00650183
0.00613281
0.00557507
0.00538721
0.0107573
0.0264167
0.0366469
0.035935
0.0241884
0.0209421
0.0203964
0.0193295
0.00979117
0.00828231
0.00851832
0.0104358
0.00819561
0.0088644
0.0153451
0.0103863
0.0141529
0.0109011
0.0146401
0.0230659
0.0219877
0.0147018
0.00805282
0.00685395
0.00733598
0.00762558
0.0078286
0.00802405
0.00825585
0.00863897
0.00995168
0.0156361
0.0201825
0.0176529
0.0166599
0.0151988
0.0187226
0.0212046
0.0231458
0.0259087
0.0160335
0.0117284
0.0165636
0.0271355
0.0246199
0.0231575
0.0170547
0.0175967
0.0170409
0.0109546
0.0106137
0.0105354
0.0113464
0.0127238
0.0146437
0.0158141
0.0165647
0.0168919
0.0177969
0.0230722
0.0215947
0.0210894
0.017331
0.0133219
0.0153125
0.0513109
0.0194918
0.0206046
0.0188587
0.019137
0.0204213
0.0151539
0.0135234
0.012933
0.0146134
0.0214728
0.0214791
0.0213337
0.0181953
0.0174083
0.0208242
0.0219188
0.0223278
0.0217041
0.0212513
0.0193908
0.0166265
0.0180527
0.0195655
0.0207485
0.0227512
0.0230979
0.0178771
0.017156
0.0157744
0.0104945
0.0112365
0.00967859
0.00964828
0.0096121
0.00933733
0.0088909
0.00917922
0.00929711
0.00929546
0.00895278
0.00924757
0.00830804
0.00864433
0.00973167
0.015165
0.0147359
0.0175305
0.0194414
0.0166946
0.0155391
0.0141811
0.0131621
0.0154043
0.0142418
0.0168142
0.0211493
0.0264174
0.019064
0.0180677
0.0178413
0.0174339
0.0172749
0.0173238
0.0166365
0.0156422
0.0150802
0.0235154
0.0212279
0.0181145
0.0171691
0.0157405
0.0179835
0.0174292
0.0213103
0.0267688
0.0269689
0.0214748
0.0215498
0.0189088
0.0200091
0.0221846
0.0269982
0.0269246
0.0143859
0.00955998
0.0153863
0.0157267
0.0183328
0.0169555
0.0184778
0.0196535
0.0203781
0.020239
0.0176467
0.0188174
0.0196039
0.0205891
0.018543
0.0165396
0.0173249
0.0161056
0.0152091
0.0147135
0.0126462
0.0128861
0.0138506
0.0152968
0.0162378
0.0177241
0.0193695
0.0194025
0.0200655
0.0196597
0.0190702
0.0251458
0.0239087
0.0254486
0.0281471
0.0223751
0.0177615
0.0146496
0.014957
0.0147217
0.0146281
0.0153744
0.0167299
0.0151086
0.0144933
0.0169911
0.0193378
0.0245913
0.0329003
0.02863
0.0260999
0.0331284
0.0313221
0.0381218
0.0285873
0.0280775
0.0207877
0.0262287
0.0304613
0.0390974
0.025439
0.0208959
0.0223665
0.0255011
0.0347176
0.0327096
0.033048
0.0410936
0.0398717
0.0361473
0.0311313
0.035255
0.0211828
0.0301328
0.0321568
0.0267788
0.0256423
0.0306563
0.0309955
0.0329435
0.0283352
0.026713
0.0178623
0.027354
0.0312823
0.0329794
0.0277407
0.0205013
0.0279459
0.0204913
0.019128
0.0202394
0.0137286
0.0126809
0.0147508
0.0138259
0.01116
0.0121024
0.0111207
0.0111031
0.0111786
0.0112868
0.0114108
0.0116556
0.0116072
0.0125789
0.0132567
0.0125217
0.0114907
0.0121857
0.0126045
0.0161074
0.0181984
0.0204732
0.0220744
0.0229177
0.0240477
0.0226696
0.0248037
0.0236998
0.0251756
0.024869
0.0237908
0.0212583
0.0186239
0.0162825
0.0169831
0.0207303
0.0274582
0.0225318
0.0174688
0.0141597
0.0117483
0.013034
0.0163513
0.00881297
0.00803837
0.00775062
0.00759756
0.00752519
0.0067654
0.00587825
0.0063623
0.0122533
0.0160461
0.020599
0.0265493
0.0325233
0.0376457
0.0416308
0.044611
0.0465626
0.0471682
0.0445558
0.0341523
0.0292766
0.0250177
0.0205686
0.0166247
0.0167986
0.0245238
0.0321971
0.0397263
0.0463419
0.0512688
0.0493183
0.0329659
0.0299129
0.0464007
0.0781832
0.074092
0.0973699
0.11096
0.0626966
0.0462239
0.0451086
0.0621168
0.0648183
0.0568688
0.0469227
0.0366581
0.026403
0.031041
0.0356442
0.0401053
0.0448448
0.0584843
0.0610714
0.0595892
0.0565955
0.0528348
0.0480781
0.0414433
0.0333268
0.0250041
0.0184581
0.0133392
0.00716522
0.0076771
0.00787194
0.00744829
0.0077729
0.00804004
0.00899988
0.0086971
0.00890616
0.00868845
0.00871972
0.00774118
0.00689791
0.0102637
0.00969115
0.00972349
0.0104579
0.0134919
0.0102694
0.00745055
0.00699951
0.00700942
0.00836251
0.0194417
0.0257611
0.0306881
0.035139
0.0380519
0.0368796
0.0337176
0.0283765
0.0224578
0.0202045
0.0170269
0.0144406
0.0131578
0.0144381
0.0118425
0.00580166
0.00522575
0.00575508
0.00559571
0.00511672
0.00616774
0.00686917
0.00749032
0.00791804
0.00822971
0.00828716
0.00822053
0.00812461
0.00807465
0.00804862
0.00801392
0.00794254
0.00784067
0.00769256
0.00755118
0.00748348
0.00807487
0.0106965
0.0146379
0.0144089
0.0132924
0.0121812
0.0113193
0.00960032
0.0154685
0.0131278
0.0110078
0.0101788
0.0100347
0.0103304
0.0112777
0.0128898
0.0137992
0.0157928
0.0158357
0.0157331
0.0160409
0.0158313
0.0133614
0.0151473
0.0177215
0.0185247
0.0191103
0.0188767
0.017336
0.0193576
0.0205101
0.0199864
0.0193951
0.016686
0.0194511
0.0232577
0.0236826
0.0239116
0.0212295
0.0183854
0.0215548
0.0227376
0.0223899
0.0233044
0.021647
0.0224129
0.0278316
0.0145293
0.0135743
0.00834006
0.00901357
0.00935246
0.00915443
0.00884522
0.00919124
0.00940594
0.00904124
0.00972467
0.0100302
0.0092822
0.01189
0.0109803
0.0106444
0.0100624
0.0104117
0.0109103
0.011192
0.0125607
0.0200133
0.0205813
0.0185087
0.0211989
0.0217754
0.0181244
0.0206638
0.0215742
0.0219372
0.0223182
0.0237276
0.0221696
0.0244779
0.0238044
0.022277
0.0215311
0.0382603
0.0252167
0.0166106
0.0153423
0.0149794
0.0150187
0.0168909
0.0125629
0.0141069
0.00986709
0.0085504
0.00819196
0.00792721
0.00871367
0.0118108
0.0187987
0.0254697
0.0277676
0.026673
0.0235207
0.0182493
0.0137778
0.0133635
0.0119662
0.0111062
0.010907
0.00724567
0.00516883
0.00656145
0.00662372
0.00721383
0.00762901
0.00796609
0.00821752
0.00835225
0.0084165
0.00848808
0.00859547
0.00871245
0.00881161
0.00888744
0.00893972
0.00899573
0.00910821
0.00940575
0.0105961
0.015259
0.0196888
0.0185965
0.0171338
0.0158199
0.0165813
0.0173394
0.0180908
0.0222983
0.0191469
0.0220584
0.0206849
0.0196918
0.0182867
0.0190116
0.0208062
0.0165376
0.0164551
0.0112053
0.00978711
0.00941877
0.00921377
0.00905575
0.00890159
0.00875778
0.0086282
0.0085044
0.00839618
0.00831149
0.00822962
0.00809541
0.0078595
0.00746701
0.00704636
0.00621611
0.00680418
0.00743238
0.0083747
0.00952233
0.0101456
0.00960105
0.00881305
0.00842046
0.00849623
0.00865421
0.00883547
0.00904479
0.00933697
0.00979812
0.0107589
0.0114326
0.0161048
0.0168274
0.0201889
0.0200031
0.0179059
0.0172587
0.0188703
0.0174085
0.0127029
0.0174385
0.0169458
0.0211484
0.0156481
0.0147495
0.0151306
0.0156027
0.0183285
0.0172347
0.0157656
0.0157447
0.0126872
0.0142327
0.0162313
0.0177471
0.0279974
0.0273991
0.0345671
0.0345296
0.0597019
0.0567456
0.0499861
0.0541705
0.0238155
0.0466511
0.0546002
0.0496964
0.0430895
0.0274321
0.0439485
0.0670299
0.0972078
0.0700079
0.0572428
0.106592
0.0772377
0.0375412
0.0266836
0.0150646
0.0151496
0.0251587
0.0292354
0.0242187
0.0233564
0.0336113
0.034985
0.028138
0.0288444
0.0312359
0.0301787
0.0326502
0.0282368
0.0275702
0.0155776
0.0127778
0.0137979
0.0155141
0.0165024
0.0159863
0.0168318
0.0175133
0.0160874
0.0150746
0.0145269
0.0124706
0.0132235
0.0162059
0.0204213
0.0239256
0.017266
0.0138644
0.012561
0.0123668
0.0121418
0.0120263
0.011711
0.0115314
0.011069
0.0112837
0.009832
0.00984081
0.0103695
0.0105241
0.0107205
0.0108711
0.0109871
0.0110954
0.0119735
0.0187545
0.0259618
0.0207765
0.0164726
0.0139991
0.0151811
0.0170949
0.0209867
0.0264018
0.0178254
0.0176429
0.0114945
0.0107065
0.0105034
0.01034
0.0101944
0.0101039
0.0101707
0.0101772
0.0119024
0.0114913
0.0133999
0.0144962
0.0119904
0.0115707
0.0111101
0.0108328
0.0106824
0.0106039
0.0106977
0.0115605
0.011392
0.0104621
0.0103642
0.0104802
0.0106904
0.0110116
0.0114599
0.0119688
0.0128798
0.0126344
0.011168
0.0112167
0.0105684
0.0102586
0.0100243
0.00999601
0.0100428
0.0101781
0.0103943
0.0113061
0.0171012
0.017281
0.0266086
0.026597
0.0211473
0.0176842
0.0155364
0.0142865
0.0135573
0.0352552
0.0309667
0.049099
0.0391266
0.0313053
0.0508514
0.0724306
0.0562309
0.0917198
0.0990846
0.0729095
0.0660992
0.0209736
0.0159737
0.0154534
0.016938
0.0186229
0.0212475
0.0218417
0.0266466
0.0287492
0.0171573
0.0164791
0.0155467
0.0248692
0.0230507
0.0196747
0.0177971
0.016417
0.0189655
0.020752
0.014948
0.014988
0.00965503
0.0106509
0.0104031
0.0100669
0.00995341
0.00988102
0.0099154
0.0100159
0.0102983
0.0107941
0.0111692
0.0113096
0.0116138
0.0114095
0.0111259
0.0107865
0.0105838
0.0103857
0.0102268
0.0101063
0.0101409
0.010459
0.0106062
0.00930751
0.00965053
0.00975925
0.00977533
0.00981451
0.00979151
0.00967229
0.00948817
0.0093171
0.00912781
0.00917624
0.00993757
0.0100552
0.0101061
0.00995248
0.00984303
0.00983926
0.00978427
0.00977555
0.00976522
0.00963972
0.00932175
0.00859916
0.0084564
0.00906108
0.0094104
0.00959323
0.00967874
0.00965075
0.00957886
0.00933932
0.00916049
0.00895889
0.00863889
0.00823473
0.0068984
0.00715143
0.00749341
0.00796464
0.00845157
0.0088781
0.0091614
0.00930592
0.00938452
0.00929659
0.00900404
0.00847942
0.00842716
0.00881853
0.009004
0.00897414
0.00872972
0.00834512
0.00780241
0.00712107
0.00645503
0.00593482
0.00567135
0.00526525
0.00661439
0.00716801
0.00769252
0.00818625
0.00866488
0.00918656
0.00941057
0.00948923
0.0094664
0.00930761
0.00897243
0.00844212
0.00845366
0.00893383
0.00924925
0.00937864
0.00936909
0.00915928
0.00872884
0.0078209
0.00701854
0.006378
0.00581163
0.00524488
0.0050478
0.00529933
0.00511398
0.00535944
0.00595587
0.00676164
0.00753313
0.00811533
0.00852144
0.00868967
0.00862895
0.00837306
0.00827896
0.0084099
0.00836527
0.00807575
0.00752387
0.00678929
0.0059847
0.0053362
0.00512216
0.00542597
0.00575919
0.00545221
0.00440123
0.00494063
0.00547772
0.006058
0.00696478
0.00814227
0.00875841
0.00908625
0.00925086
0.00918708
0.00889513
0.00845143
0.00843644
0.00886333
0.00914598
0.00919067
0.00905217
0.00873565
0.00821035
0.00677982
0.00533951
0.00473307
0.00440088
0.00395848
0.00552743
0.00588739
0.00546733
0.00519881
0.00564163
0.00620561
0.00685479
0.00738195
0.0078084
0.00810401
0.0081953
0.00815463
0.00802599
0.00803884
0.00799171
0.00778785
0.00752582
0.00729245
0.00683197
0.00637107
0.00586002
0.00641324
0.00670301
0.00627745
0.00466888
0.00495899
0.00536497
0.00561047
0.00702937
0.00846851
0.00891188
0.00909417
0.00924312
0.00918091
0.00886387
0.008419
0.0084066
0.00893181
0.00932912
0.00945371
0.00953515
0.00957633
0.00962464
0.00845555
0.00660648
0.00620146
0.00527502
0.00482213
0.00659157
0.00702455
0.00683537
0.00656862
0.00748357
0.00787624
0.00803649
0.00807182
0.00810335
0.00808513
0.00799057
0.00791287
0.00780107
0.00824971
0.00888872
0.0087847
0.00867395
0.00849865
0.00812694
0.00767658
0.0071865
0.00784913
0.00839593
0.00812398
0.00596954
0.00634247
0.00714895
0.0072741
0.00875859
0.00996351
0.0103318
0.0103817
0.0103086
0.0103054
0.00930196
0.00837411
0.00822741
0.009585
0.0155658
0.0154161
0.0154693
0.0154139
0.0148318
0.0146645
0.0140907
0.0138358
0.0131263
0.0126747
0.0119783
0.0140404
0.0178179
0.0199245
0.0223105
0.0248263
0.0234693
0.0189409
0.0166911
0.0101496
0.00801034
0.00691546
0.00598853
0.00529029
0.00508828
0.00756853
0.00945214
0.0116671
0.0136774
0.0139795
0.0164367
0.020419
0.0310798
0.0493895
0.041722
0.0394004
0.0401805
0.100681
2.55662
2.76376
2.50952
2.91812
3.34484
0.403526
0.155049
0.288917
0.308577
0.344637
0.321029
0.288131
0.261401
0.265419
0.254447
0.26235
0.243933
0.252902
0.220936
0.227695
0.232932
0.679034
1.03634
1.25106
1.74654
1.74969
1.97282
1.92387
1.94225
1.79449
1.91057
1.66033
1.37676
1.30057
1.22792
1.31793
1.43236
1.24317
1.12755
1.01257
0.922324
0.790406
1.00272
0.761145
0.719596
0.718323
0.750568
0.999934
0.910171
1.04809
0.972455
1.01943
0.618328
0.696603
0.51225
0.427493
0.353903
0.432699
0.58375
0.774785
0.959825
0.729149
0.986559
0.907191
0.89582
0.852692
0.777527
0.737943
0.725203
0.74619
0.758721
0.773885
0.801569
0.822664
0.840921
0.992094
1.05676
1.04724
0.858585
0.768298
0.532094
0.569829
0.604177
0.607789
0.566764
0.548345
0.497
0.484453
0.439517
0.420675
0.382319
0.363302
0.331164
0.457221
0.782255
0.811821
0.881516
0.934764
0.984569
1.0063
1.02288
1.00539
0.971751
0.902108
0.871887
0.808954
0.916219
1.10064
1.0996
1.01121
0.858987
0.813944
3.78394
4.60045
3.04523
6.56235
9.96282
16.6963
7.62275
2.07643
3.47085
2.38548
2.11811
2.06532
2.18075
3.43653
2.5142
3.29153
2.73485
2.89648
2.27538
2.58151
2.47101
1.89913
1.60272
1.35932
1.24638
0.997122
0.991748
0.796514
0.740731
0.671235
0.555959
0.682809
0.688003
1.65795
2.29419
2.86029
4.48678
4.9274
5.38155
8.49607
6.87631
8.60945
5.11646
5.16522
3.8189
3.59235
3.63142
4.99455
7.13826
4.91722
8.58391
4.78607
15.5458
34.7818
9.21268
19.0462
10.9915
9.94219
9.58517
9.87819
14.0442
9.57549
15.582
13.1334
17.4949
17.0553
18.2035
14.1991
10.536
11.5948
12.5096
16.0267
11.3795
13.2088
9.99461
9.76075
9.03761
7.45846
6.59871
5.05065
5.95145
6.9884
7.95142
12.6017
15.8061
18.16
21.8914
16.165
18.4363
11.0961
12.1701
9.40198
8.8199
8.9516
11.7778
20.9119
14.8198
27.081
0.497329
0.226013
0.545205
0.229707
0.487576
0.39096
0.403593
0.404588
0.400287
0.462165
0.22046
0.185294
0.177502
0.175336
0.176836
0.100271
0.124475
0.0804325
0.126909
0.229177
0.503493
0.365269
0.140461
0.0825946
0.0546075
0.042963
0.0634886
0.0612913
0.0980194
0.0993881
0.10573
0.132301
0.228472
0.434288
31.8502
7.13902
1.13198
0.530403
0.283202
0.173477
0.148743
0.16798
0.180532
0.183185
0.172047
0.146355
0.105354
0.0702018
0.0473808
0.0398598
0.0290245
0.0280476
0.0392276
0.0528868
0.0489706
0.0646615
0.0830729
0.105837
0.130007
0.149239
0.163697
0.1677
0.155764
0.121937
0.0802135
0.0442732
0.0265349
0.0229029
0.0209798
0.0194832
0.016841
0.0146564
0.0132206
0.0112912
0.00994706
0.00896858
0.00864534
0.00876426
0.009559
0.0120895
0.0145468
0.0188314
0.017947
0.0134372
0.0126105
0.007811
0.00722178
0.0073691
0.00761939
0.00845314
0.0132316
0.0135366
0.0134137
0.0134355
0.0132504
0.0132212
0.0130473
0.0128627
0.0126405
0.0122092
0.0119193
0.0113999
0.0111243
0.0104888
0.0105155
0.010891
0.0111945
0.0101405
0.0100396
0.00933652
0.0200046
0.0480842
0.0697916
0.0782847
0.0881213
0.0808927
0.0416878
0.0227636
0.00783927
0.0077001
0.00819264
0.00882212
0.0083772
0.00617549
0.00671724
0.00783948
0.010969
0.0108493
0.0108794
0.0126614
0.0131775
0.0145553
0.0150963
0.0155223
0.0157572
0.0157664
0.0159154
0.0156954
0.0158076
0.015642
0.015741
0.0153481
0.0272479
0.0256425
0.0263173
0.0263024
0.0273865
0.0268365
0.0262676
0.0252783
0.0245138
0.023004
0.0213925
0.0198633
0.0178053
0.0185629
0.0179426
0.0112131
0.0106541
0.00768288
0.00774092
0.00744049
0.0102463
0.0093263
0.00784213
0.00921883
0.00676959
0.00695852
0.00725952
0.0103266
0.0108514
0.0172427
0.0172022
0.0152157
0.0161513
0.0171754
0.0184736
0.0196447
0.0210572
0.0220933
0.0231911
0.0250763
0.0255382
0.0239155
0.0236305
0.0225642
0.0245057
0.0235013
0.0217552
0.0232792
0.0248452
0.0272432
0.0268696
0.0247143
0.0233913
0.0219594
0.0196618
0.0170453
0.0157002
0.0147265
0.0147544
0.013757
0.0161018
0.0145604
0.0101123
0.0104051
0.00792876
0.00632022
0.00603258
0.00917711
0.0130395
0.0279262
0.0174039
0.00933819
0.0104147
0.0167144
0.0346056
0.0200568
0.0326851
0.0142145
0.0147024
0.0125284
0.0124573
0.0137355
0.016008
0.0170366
0.0206521
0.0232862
0.0252692
0.0261664
0.0275091
0.0278966
0.0293118
0.0297511
0.0324351
0.0326982
0.0328037
0.0323545
0.0301086
0.0270811
0.0249997
0.0308631
0.0357101
0.0388189
0.0411961
0.0435567
0.042272
0.0386011
0.037739
0.035827
0.0347226
0.0333068
0.0302373
0.0264337
0.0216764
0.021127
0.0270838
0.0327817
0.0489965
0.0527982
0.0525382
0.0548661
0.0553562
0.0570932
0.0575176
0.0601588
0.060724
0.0618735
0.0622044
0.0673877
0.0682695
0.0692885
0.0696059
0.0693662
0.0703812
0.0704289
0.047853
0.0429313
0.0390728
0.0324744
0.0272557
0.0345512
0.0429823
0.0480315
0.0733
0.0737962
0.0775376
0.0801456
0.0851267
0.0888256
0.0937678
0.0982949
0.102767
0.106247
0.108373
0.108775
0.109297
0.108408
0.107147
0.115975
0.15061
0.167189
0.197861
0.212935
0.225636
0.229748
0.220903
0.224613
0.216412
0.218901
0.212516
0.210398
0.204996
0.198467
0.194796
0.188269
0.184144
0.212223
0.160417
0.123139
0.0821957
0.0662011
0.0587527
0.0545145
0.0578924
0.0447253
0.0380307
0.0573972
0.0526681
0.0420205
0.0281629
0.01871
0.0318161
0.0472945
0.0641228
0.0813635
0.0971389
0.107449
0.110008
0.108883
0.104178
0.0963989
0.0813061
0.0613446
0.0422837
0.0349505
0.0322738
0.0282823
0.0223003
0.0179181
0.0157868
0.0141899
0.0124115
0.0111513
0.0105914
0.010732
0.0110389
0.0132353
0.0173125
0.0173058
0.011597
0.0111678
0.00768112
0.00776665
0.00802061
0.0133521
0.0134928
0.0209303
0.0233666
0.0220041
0.0226823
0.022409
0.022692
0.0223153
0.0211216
0.020277
0.0193088
0.0184677
0.0177345
0.0169242
0.0161524
0.017464
0.0164312
0.013862
0.0139619
0.0145625
0.0151958
0.0160778
0.0173281
0.0184069
0.0210983
0.0212926
0.0207994
0.0208988
0.0194444
0.018738
0.02
0.0195343
0.0133021
0.0131328
0.0191751
0.0188233
0.018699
0.0225002
0.0209048
0.0214308
0.0225565
0.0224208
0.0194839
0.0181248
0.016584
0.0154103
0.0140471
0.0125466
0.0121891
0.0149299
0.0131964
0.0108202
0.011989
0.0143996
0.0170124
0.018465
0.0204452
0.0231569
0.0241173
0.0263403
0.0277529
0.0298415
0.0306798
0.0354839
0.0361701
0.0340597
0.0322114
0.0312065
0.0274441
0.0235067
0.0259256
0.0267932
0.027168
0.0272488
0.0271156
0.0235406
0.023108
0.0215949
0.0210803
0.01952
0.0189645
0.0178089
0.0170543
0.0160412
0.014214
0.0134479
0.0126412
0.0122967
0.0173632
0.0108299
0.0105977
0.01599
0.00985744
0.0115986
0.0113495
0.011859
0.0124952
0.0103537
0.0151531
0.010335
0.0112172
0.011428
0.0142913
0.00984624
0.0194119
0.0614693
0.0914903
0.110285
0.200811
0.241496
0.262108
0.282939
0.297399
0.313427
0.331124
0.348887
0.362078
0.363648
0.338216
0.319855
0.255147
0.228508
0.252378
0.282655
0.195118
0.167434
0.169785
0.170719
0.173395
0.17474
0.178518
0.176549
0.181788
0.177455
0.184918
0.178946
0.185628
0.178027
0.162455
0.145709
0.112821
0.101931
0.0657243
0.0508844
0.039817
0.0288767
0.0210276
0.0188626
0.0178472
0.0164835
0.0165676
0.0126988
0.0131085
0.00839545
0.00615465
0.00986122
0.00971333
0.00721151
0.00984443
0.0112445
0.011763
0.0123022
0.0125927
0.0192642
0.0193055
0.0247372
0.024611
0.0291798
0.0347753
0.0360241
0.0396832
0.0570225
0.0575163
0.0572618
0.0570461
0.0566024
0.0493985
0.0491171
0.0480121
0.0474234
0.0444933
0.0439407
0.0418741
0.040745
0.0378187
0.0369997
0.0358682
0.0362757
0.0398026
0.0539481
0.095223
0.028836
0.0272437
0.0200886
0.01449
0.0211436
0.015874
0.0153645
0.01358
0.0186741
0.0134281
0.0136878
0.0164828
0.016987
0.0163638
0.0212243
0.0264853
0.0232492
0.025522
0.113697
0.0713314
0.0235814
0.0465355
0.0702333
0.155621
0.203023
0.138524
0.158414
0.182677
0.165693
0.139005
0.10806
0.0807269
0.0567907
0.0433223
0.0114149
0.0133081
0.0183661
0.0398796
0.0593226
0.101163
0.0829568
0.108506
0.148364
0.172784
0.20878
0.200111
0.171991
0.14799
0.145096
0.160734
0.161591
0.103615
0.100526
0.0768116
0.173107
0.2188
0.183916
0.230851
0.243009
0.140263
0.0312626
0.0183245
0.0150942
0.0138937
0.0124221
0.0193995
0.0114298
0.0116311
0.0123379
0.0132643
0.0169125
0.0293963
0.0134017
0.014902
0.0183327
0.0158984
0.0149682
0.0146216
0.0145466
0.0151867
0.0165643
0.0215859
0.0216329
0.0212531
0.0159611
0.0172428
0.0156606
0.0199425
0.021144
0.0332644
0.0152195
0.016157
0.0214125
0.474857
0.0245402
0.0177859
0.0231412
0.0218106
0.0300017
0.0441574
0.455903
0.0436836
0.0350102
0.0585851
0.0609022
0.0655551
0.0692164
0.0727049
0.0752262
0.0791489
0.0818272
0.0830347
0.0842484
0.0999179
0.0999846
0.0989237
0.103533
0.0976983
0.0577143
0.0579431
0.097551
0.105316
0.0594833
0.0410788
0.0385619
0.0312721
0.0324172
0.0419589
0.044028
0.0617167
0.0615553
0.102705
0.0936434
0.0950527
0.0967743
0.0917305
0.0921757
0.0942736
0.0941411
0.0753661
0.0730831
0.0713382
0.0682725
0.064751
0.0618493
0.0589366
0.0558116
0.0530887
0.0529859
0.0573943
0.0582385
0.065613
0.0716918
0.215444
0.146177
0.104767
0.0782825
0.0642831
0.0586032
0.0583846
0.0616464
0.0648864
0.0665576
0.0673545
0.0706886
0.0924084
0.0949836
0.0978696
0.095261
0.0991154
0.0972099
0.0947312
0.104656
0.1125
0.0657252
0.0678029
0.0478831
0.0447016
0.0326331
0.0332095
0.0236963
0.019637
0.0196066
0.0195855
0.0198248
0.0227345
0.0317948
0.0318879
0.0466052
0.0464807
0.0518843
0.0755066
0.072548
0.129433
0.118613
0.108926
0.101559
0.101953
0.104053
0.106675
0.101653
0.097737
0.0921624
0.0724355
0.0684638
0.0663232
0.0650376
0.0636791
0.0668406
0.0893223
0.143661
0.219422
0.322997
0.423169
0.435637
0.395381
0.244389
0.285898
0.141434
0.162618
0.184066
0.157911
0.167103
0.316823
0.263523
0.372237
0.4781
0.531799
0.59803
0.634303
0.620606
0.490885
0.318038
0.325593
0.433875
0.763806
0.857054
0.742713
0.761218
0.657838
0.540217
0.522031
0.497597
0.561738
0.613177
0.578647
0.596281
0.540489
0.516073
0.446003
0.497798
0.363776
0.327683
0.308059
0.299226
0.358595
0.290181
0.326807
0.268544
0.274727
0.223219
0.228784
0.19099
0.14621
0.138597
0.128474
0.143817
0.162983
0.149261
0.153483
0.133995
0.11448
0.0911949
0.0985086
0.0735542
0.0694964
0.0703987
0.0798163
0.124382
0.363983
0.17227
0.163052
0.167435
0.17799
0.31895
0.28272
0.726033
0.508993
0.712933
0.475845
0.565016
0.472763
0.364606
0.380077
0.420036
0.600822
0.824702
6.66053
0.284931
4.26791
3.16807
3.32618
3.47148
4.45044
7.81853
7.11376
9.4061
6.8102
9.08449
4.97348
4.97635
4.32581
4.47087
4.43797
4.26014
5.17497
6.59975
0.237897
0.090902
0.0854201
0.0856094
0.087384
0.1977
0.0525582
0.202045
0.0539742
0.213537
0.0495332
0.246781
0.196974
0.0382414
0.0192578
0.02009
0.0168073
0.020375
0.0169226
0.0250459
0.0235415
0.0236967
0.026569
0.0760253
0.291073
13.7081
1.63219
0.678864
0.777238
1.16449
0.789837
1.18768
1.652
1.10963
0.552311
0.360333
0.424963
0.513553
0.49076
0.628288
0.906426
0.887646
0.697628
0.70208
0.61688
0.873317
0.882642
1.04853
1.22587
1.12332
0.877855
0.690585
0.581699
1.00797
1.01594
0.950056
0.398685
0.111347
0.0461618
0.0481047
0.035288
0.037305
0.0346429
0.0535513
0.156175
0.215608
0.129241
0.423365
0.410043
0.561993
0.401299
0.411596
0.324291
0.349094
0.531647
0.581158
0.641125
0.672684
0.722664
0.664931
1.27714
2.18273
2.46792
12.7905
17.3786
3.18296
3.08723
13.9351
0.31468
0.0837752
0.0232986
0.0174271
0.0162161
0.0161296
0.015001
0.0155385
0.0160003
0.0169642
0.0188307
0.0231992
0.0458453
0.201565
0.203537
0.0643699
0.0324408
0.0229745
0.0196182
0.0170475
0.0163878
0.0155321
0.0154598
0.0150081
0.0156572
0.0174622
0.023775
0.0774147
0.271145
11.3381
2.43563
2.2546
8.3827
5.79438
0.206769
0.0437988
0.0200953
0.0169275
0.0158844
0.0167549
0.0162665
0.0182123
0.0184036
0.0230188
0.0250257
0.0317768
0.0571094
0.110254
0.315871
9.60508
8.67453
8.39921
7.8299
0.310491
0.115298
0.0544234
0.0382419
0.0346309
0.0338236
0.0226512
0.0236761
0.0189839
0.0216443
0.0182973
0.0226872
0.0483204
0.211938
5.35197
1.57039
1.70094
1.20987
0.612342
0.654574
0.668113
0.687524
1.76835
4.03894
4.9719
3.41602
3.35274
4.69406
3.16294
2.47521
1.82349
1.74329
2.54029
1.96011
1.82335
1.35404
1.46324
1.06668
1.4664
0.81044
0.976556
1.07239
1.53027
1.39701
1.41016
0.90817
1.05005
1.47446
1.72574
1.65034
0.843538
1.22727
1.01356
0.654289
0.606113
0.632201
0.60175
0.576154
0.573514
0.578188
0.557378
0.574953
0.555399
0.587638
0.54759
0.532495
0.506424
0.525917
0.543131
0.575486
0.35925
0.421508
0.426086
0.440443
0.452794
0.373724
0.449871
0.440336
0.657439
0.992982
0.827971
1.13878
0.674577
1.00086
2.00437
5.20939
2.32359
0.813854
1.3453
1.58417
1.13831
0.627297
2.55197
3.56205
1.23026
1.78612
10.3994
8.44276
16.5346
10.954
18.5909
6.01582
4.62712
17.7816
6.65676
6.88732
4.49976
4.50985
2.95028
1.57925
1.62146
1.73292
1.22191
1.29346
1.20426
1.13115
1.4694
1.43326
1.87701
2.02669
2.56669
1.80584
1.76726
2.58388
1.05983
1.39209
1.82869
1.81998
1.35323
2.32857
3.14154
2.94518
2.12073
2.32525
3.49054
4.79985
4.54869
3.14685
3.93579
10.1022
13.48
13.6613
4.20893
19.3384
18.2987
2.05736
0.555984
0.316908
0.087307
0.0440857
0.0366027
0.038671
0.14288
0.0458058
0.0569118
0.0452715
0.0717947
0.0692162
0.0864213
0.215043
0.125143
0.212714
0.153457
0.185857
0.118623
0.189731
0.222346
0.231772
0.184432
0.113133
0.208766
0.300837
0.103644
0.347498
0.381995
0.254542
0.3256
0.387837
0.19223
0.984941
0.182953
0.124549
0.143133
0.384762
1.24124
0.213436
0.454554
4.45021
14.7074
3.65332
0.925497
0.669018
0.0551075
0.0299377
0.0313247
0.0276812
0.0193701
0.0824379
0.0967041
0.399508
0.205603
0.277662
0.661314
2.93382
2.39777
1.11229
5.46379
10.2813