/*--------------------------------*- C++ -*----------------------------------*\
| =========                 |                                                 |
| \\      /  F ield         | OpenFOAM: The Open Source CFD Toolbox           |
|  \\    /   O peration     | Version:  v2012                                 |
|   \\  /    A nd           | Website:  www.openfoam.com                      |
|    \\/     M anipulation  |                                                 |
\*---------------------------------------------------------------------------*/
FoamFile
{
    version     2.0;
    format      ascii;
    class       volScalarField;
    location    "645";
    object      k;
}
// * * * * * * * * * * * * * * * * * * * * * * * * * * * * * * * * * * * * * //

dimensions      [0 2 -2 0 0 0 0];


internalField   nonuniform List<scalar> 
18258
(
0.0336678
0.0158601
0.0124198
0.0102668
0.0110267
0.0140648
0.016867
0.0212428
0.025668
0.0315976
0.0386521
0.04757
0.0535568
0.060688
0.0636469
0.0619303
0.0520407
0.0472835
0.0565072
0.0810047
0.0710982
0.0514343
0.0623215
0.061562
0.0725055
0.0767136
0.0603674
0.0551158
0.0496988
0.044011
0.0374471
0.0232664
0.024157
0.0288867
0.0321317
0.035864
0.0387483
0.0411183
0.0427651
0.0435816
0.043487
0.0421795
0.0394722
0.0353945
0.0298994
0.0238753
0.0233436
0.0238324
0.029576
0.0350917
0.040491
0.0460692
0.0545007
0.0446115
0.0290115
0.0391769
0.0476588
0.0545551
0.0589832
0.0614317
0.062193
0.0612774
0.0589852
0.0557234
0.0517601
0.0474193
0.0433993
0.0394114
0.0341673
0.0309033
0.0267885
0.0234414
0.0209986
0.019284
0.0181638
0.0171622
0.016298
0.015566
0.0149504
0.0145284
0.0144359
0.0144597
0.0145576
0.014652
0.014992
0.0126484
0.0108815
0.0104142
0.0101642
0.00952185
0.00807669
0.0106335
0.0117434
0.0121609
0.0124315
0.0136027
0.0147322
0.0143016
0.0135757
0.0124528
0.0127537
0.0171773
0.017886
0.0229379
0.0218184
0.0170763
0.0147834
0.016573
0.0193804
0.0224402
0.0192406
0.0192073
0.0179083
0.0170151
0.0148632
0.0148888
0.0143672
0.0140607
0.0149722
0.0177373
0.0171534
0.0172733
0.0184837
0.0188016
0.0200226
0.0210381
0.0203776
0.0201973
0.0163366
0.0162371
0.0172771
0.0171514
0.0176306
0.020136
0.0201924
0.0205319
0.0207461
0.0235317
0.0235506
0.0235194
0.0236103
0.0244643
0.0234935
0.0230777
0.0231034
0.0231382
0.0209713
0.0207518
0.0203924
0.0204318
0.0182546
0.0175178
0.0182512
0.0192312
0.0212033
0.0249432
0.0313743
0.0402919
0.0503831
0.0606213
0.0683926
0.07275
0.0771176
0.0765849
0.0772939
0.0793976
0.0797724
0.0786363
0.0767893
0.0746309
0.0716867
0.0670636
0.0666205
0.058986
0.0480991
0.0333769
0.0388843
0.041718
0.0444666
0.0447617
0.045236
0.0440202
0.0422617
0.0386875
0.0335945
0.0247399
0.0258492
0.0303123
0.0349804
0.0387714
0.042938
0.0465552
0.0483757
0.0500597
0.0594068
0.0571958
0.0552992
0.0570516
0.0586114
0.0618058
0.060232
0.0562923
0.0503861
0.0520084
0.0451394
0.0337773
0.031551
0.0294229
0.0270484
0.0377767
0.0495466
0.0611102
0.0674744
0.0736546
0.0785272
0.0825818
0.0871403
0.0816756
0.0765212
0.0577514
0.0838952
0.0658037
0.0505136
0.0412525
0.0334131
0.0310229
0.0339928
0.0341595
0.0324069
0.0278488
0.0219727
0.0230555
0.036041
0.0458882
0.0539433
0.0555123
0.0602293
0.0627091
0.0573882
0.0579697
0.047083
0.0483048
0.0516553
0.0463378
0.0440132
0.0353969
0.0276463
0.0335759
0.0499406
0.0685762
0.0845729
0.0996864
0.0661249
0.050216
0.041136
0.0343473
0.0331267
0.0377196
0.0436546
0.0528429
0.0411344
0.0371078
0.0336152
0.0307593
0.0256715
0.0274149
0.0286063
0.0268779
0.04996
0.0575731
0.061314
0.0838035
0.0923733
0.108406
0.107165
0.0926403
0.0962636
0.0688887
0.0686756
0.0861736
0.0681531
0.0511833
0.061457
0.0743666
0.0881441
0.10126
0.112526
0.121575
0.123336
0.11189
0.0811268
0.0467115
0.0212756
0.0186446
0.018098
0.0173875
0.0164975
0.0156879
0.0150565
0.0121058
0.00948844
0.00927548
0.00945886
0.00940527
0.00825731
0.00951202
0.011575
0.0137635
0.0152687
0.0164748
0.0174923
0.0182235
0.0188099
0.0192069
0.0195021
0.0197678
0.0200006
0.0201836
0.0203183
0.0204055
0.0204445
0.0204279
0.0203495
0.020208
0.0200018
0.0197147
0.0192435
0.0177223
0.0158784
0.0150549
0.015114
0.0148655
0.0145657
0.0119365
0.0123056
0.0143233
0.0149535
0.0177363
0.0197664
0.0214641
0.0229122
0.0244325
0.025206
0.0260314
0.0262941
0.0263435
0.0262399
0.0260862
0.025858
0.0255517
0.0244864
0.0212624
0.0248692
0.0272688
0.0289662
0.0303268
0.0312403
0.0313486
0.0285928
0.0360627
0.0385133
0.0394176
0.0396789
0.0388537
0.0368406
0.0343925
0.032338
0.0308295
0.0297114
0.0275694
0.0253222
0.0230134
0.0205989
0.0173794
0.018652
0.0204892
0.0206989
0.0204072
0.021455
0.0227121
0.0210534
0.018957
0.0160837
0.0150879
0.0146045
0.0144185
0.0148349
0.0144861
0.0143776
0.0148715
0.0178657
0.018956
0.0206555
0.0239163
0.0227844
0.020843
0.0280172
0.0296246
0.0300746
0.0304266
0.0303322
0.0295753
0.0264974
0.025041
0.0264296
0.0249747
0.024342
0.0244307
0.0240635
0.0221966
0.0244964
0.0264966
0.0280868
0.0289346
0.0301782
0.0317341
0.0338985
0.0356953
0.0373577
0.038365
0.0383454
0.0378049
0.0379764
0.0386172
0.0382898
0.0366049
0.0345276
0.0324317
0.0294609
0.0292907
0.0312679
0.0328316
0.0344926
0.036268
0.0355918
0.0337002
0.0320727
0.0306513
0.028939
0.0288212
0.0304996
0.0319452
0.0336869
0.0358129
0.035993
0.0338451
0.0320226
0.0305153
0.0288104
0.0287795
0.0304822
0.031998
0.033726
0.0356185
0.0347466
0.0332726
0.0317461
0.0302753
0.0286087
0.0281718
0.0297779
0.0311629
0.0324798
0.0335475
0.0318705
0.0312795
0.0302073
0.028816
0.0270564
0.0258026
0.0263115
0.0276997
0.0278107
0.0282912
0.0294109
0.0292577
0.0289744
0.0289283
0.0286462
0.0264003
0.0268078
0.0268575
0.02755
0.0308534
0.0303698
0.0330322
0.0354361
0.0331248
0.0316415
0.0280862
0.033653
0.0336884
0.0346396
0.0334583
0.0237035
0.021853
0.0228523
0.0243813
0.026018
0.0253196
0.0225809
0.0225089
0.0231109
0.0225174
0.020948
0.0179696
0.013503
0.0135119
0.0135019
0.0142344
0.0170346
0.0186273
0.0187354
0.0185775
0.0182723
0.0177966
0.0170738
0.0159954
0.0156333
0.0248293
0.0453055
0.0565951
0.0559195
0.0425241
0.0357422
0.0265038
0.018547
0.0113622
0.0107862
0.011468
0.0137463
0.0114924
0.0110222
0.0151751
0.0121299
0.0201372
0.0231989
0.0302999
0.0414546
0.0401722
0.0306492
0.0204799
0.0183757
0.019231
0.0197586
0.0201492
0.0205325
0.0209192
0.0213395
0.0218508
0.0215276
0.0188972
0.0166585
0.0167802
0.0173516
0.0198526
0.0212368
0.0220341
0.0217064
0.0219614
0.0236658
0.0224301
0.0212061
0.0209953
0.0202866
0.0231215
0.0234684
0.0228458
0.0228464
0.0231247
0.0230114
0.0231496
0.0239516
0.0197726
0.0218926
0.0224443
0.0227241
0.0235147
0.0190324
0.0192248
0.0192934
0.0181497
0.0148745
0.0179672
0.0167314
0.0121452
0.0134576
0.0134272
0.0140401
0.0143647
0.0171191
0.0162921
0.015563
0.0163232
0.022288
0.0230907
0.0232636
0.0206175
0.0193711
0.021859
0.0224519
0.0219997
0.0211094
0.0212678
0.020322
0.0184217
0.0177032
0.0178404
0.019249
0.0200485
0.0201208
0.023717
0.0232127
0.0216546
0.022637
0.0232358
0.0228213
0.0227115
0.022655
0.022283
0.0218599
0.0222734
0.0224629
0.0225155
0.0220755
0.0223277
0.0249527
0.0214111
0.0212223
0.0201487
0.0194943
0.01787
0.0176178
0.0177159
0.0176762
0.0175824
0.0167467
0.0186005
0.017874
0.0200059
0.0216154
0.0227631
0.0239306
0.0240786
0.023646
0.0236038
0.0232174
0.0231812
0.0226335
0.0217911
0.0212101
0.0204394
0.0192348
0.0192279
0.0191794
0.0190362
0.0204387
0.0203387
0.0219003
0.0230177
0.0227302
0.0217682
0.0216581
0.0204851
0.0204609
0.0214987
0.0223839
0.0226352
0.0234924
0.0260147
0.0236835
0.0252357
0.0259361
0.0266003
0.0259898
0.0248927
0.0256436
0.0239849
0.0228744
0.0241918
0.0249147
0.0261766
0.0269713
0.0249938
0.023966
0.0227693
0.0219075
0.0209236
0.0184038
0.0190133
0.0198002
0.0210304
0.0228429
0.0255607
0.028289
0.031211
0.0312662
0.028967
0.0272797
0.032078
0.0315509
0.0365206
0.0371223
0.0330001
0.0301994
0.0272911
0.0268636
0.0259419
0.0254055
0.024134
0.025381
0.0258008
0.0248584
0.0273238
0.028893
0.0332233
0.0387749
0.0354347
0.0326163
0.0376843
0.0366073
0.0425556
0.0363398
0.0346889
0.028543
0.0331563
0.0355188
0.0432442
0.0338399
0.0296604
0.0294458
0.030776
0.0382536
0.0367871
0.0393712
0.0445387
0.043882
0.0390155
0.035781
0.0415201
0.031566
0.0370079
0.0390185
0.0324062
0.032155
0.0390205
0.0396436
0.0398126
0.0337421
0.0330062
0.0249899
0.0335371
0.0400111
0.0399262
0.033153
0.0259656
0.0358531
0.0314885
0.0312882
0.0312885
0.0268902
0.0268224
0.0261209
0.0263761
0.0270856
0.024649
0.0254515
0.0257103
0.0258722
0.0260023
0.0261935
0.0265368
0.027178
0.0278971
0.0228477
0.0242777
0.0229261
0.0216
0.0202698
0.0240443
0.0265231
0.0283351
0.0297937
0.0309301
0.0314083
0.0299776
0.0379403
0.0396124
0.0412723
0.041425
0.0401817
0.0375051
0.034061
0.0306249
0.0285333
0.0272334
0.0247793
0.0226688
0.02061
0.0184727
0.0156771
0.0143393
0.0130203
0.011637
0.0112987
0.0107687
0.0101842
0.00953482
0.00921333
0.0115676
0.0161585
0.0270324
0.0326795
0.0385559
0.0454622
0.0519109
0.0571017
0.0610094
0.0638464
0.0656766
0.0662067
0.0637618
0.0533149
0.0482518
0.0432905
0.0382411
0.0330745
0.0321841
0.0413548
0.0496596
0.0566532
0.0629493
0.0670413
0.0653937
0.049803
0.0467362
0.0624936
0.0900495
0.0808336
0.10388
0.120212
0.0797317
0.064872
0.0640371
0.0794875
0.081994
0.0754526
0.0665662
0.0567643
0.0458393
0.0510157
0.0559104
0.060546
0.0652102
0.0778333
0.0800934
0.0787922
0.0761298
0.0727344
0.0683355
0.0619507
0.0536239
0.0443011
0.0360707
0.0285881
0.0173006
0.0127912
0.0137483
0.0132873
0.013628
0.0138956
0.0101765
0.0105084
0.0106935
0.0105867
0.0102894
0.0103426
0.01174
0.0181622
0.0149664
0.0136197
0.0117543
0.0144449
0.0162678
0.0180182
0.0185473
0.0187569
0.0211052
0.0369445
0.0444665
0.0498798
0.0545295
0.057457
0.0562397
0.052953
0.0471964
0.0403791
0.0376567
0.033573
0.0300733
0.02824
0.0290857
0.0255013
0.0157906
0.0147356
0.0157796
0.0154607
0.0144641
0.0164156
0.0176332
0.0184043
0.0190261
0.0194887
0.019842
0.0200916
0.0202547
0.0203371
0.0203571
0.0203292
0.0202586
0.020144
0.0199829
0.0197646
0.0194591
0.0189414
0.0172413
0.0154119
0.0147031
0.0147873
0.0145569
0.0141949
0.0123202
0.0125475
0.0144093
0.0150117
0.0146184
0.0152031
0.015667
0.0168513
0.0190099
0.0211427
0.0229761
0.0216744
0.0210269
0.021007
0.0206033
0.0175252
0.0208301
0.0236412
0.0241449
0.0244035
0.0252132
0.0268017
0.0277603
0.0268354
0.0263466
0.0258253
0.022799
0.0244292
0.027897
0.0283031
0.0289606
0.0295465
0.0301074
0.0314018
0.0307825
0.029915
0.0293323
0.0265412
0.0256812
0.0316941
0.0207269
0.0146118
0.0105853
0.0109522
0.0111875
0.0108851
0.011645
0.0121705
0.0123857
0.0116952
0.0127757
0.0136863
0.0129463
0.0156035
0.0148967
0.0138808
0.0134399
0.0141973
0.0149122
0.0152998
0.0164528
0.0265496
0.0273681
0.0228228
0.029346
0.0319352
0.0289889
0.0318716
0.0295612
0.0282244
0.0310089
0.0343558
0.0355457
0.0332268
0.0318678
0.0311763
0.0208041
0.0201169
0.019397
0.0175409
0.0177975
0.0173203
0.0168554
0.0164353
0.0188603
0.0202577
0.0213151
0.0210153
0.0206991
0.0202992
0.0216015
0.0264188
0.035965
0.0439857
0.0465552
0.045297
0.0416332
0.0351454
0.0291501
0.0285785
0.0265395
0.0251984
0.0248442
0.0188573
0.0150005
0.0174785
0.017411
0.0184724
0.0191387
0.019661
0.0200758
0.0204196
0.0207139
0.0209963
0.0212604
0.0214917
0.0216872
0.021856
0.0219966
0.0221482
0.0223303
0.0225827
0.0227857
0.0211826
0.018584
0.0172519
0.0171056
0.0178188
0.0187186
0.0198449
0.0191041
0.0153929
0.0154676
0.0218852
0.0223101
0.0209369
0.0195192
0.0197241
0.018886
0.0226533
0.0224477
0.0232002
0.022994
0.0227146
0.0224356
0.0221568
0.0218716
0.0216053
0.0213724
0.0211615
0.0209657
0.0207717
0.0205615
0.0202922
0.0198934
0.0192196
0.0184305
0.0170753
0.0182143
0.0193377
0.0209325
0.0228129
0.0238239
0.0229769
0.0216972
0.0210475
0.0211887
0.0214728
0.0217903
0.0221322
0.0225279
0.0229501
0.0233484
0.0233179
0.0220324
0.0226662
0.0174272
0.0182832
0.0185811
0.0185389
0.0202025
0.019361
0.0146681
0.0151702
0.0158825
0.0171496
0.0197125
0.0200679
0.021401
0.0216239
0.0172801
0.0169698
0.0165467
0.0175644
0.0152057
0.0158295
0.026495
0.0271365
0.0348818
0.0382151
0.039847
0.0331077
0.0455707
0.0524025
0.0505009
0.0408875
0.0234831
0.034607
0.0421383
0.048773
0.0456916
0.0355287
0.0448514
0.0473473
0.0632219
0.0588365
0.052467
0.0632525
0.0446968
0.0268834
0.0158212
0.0163959
0.0152046
0.0306512
0.0347553
0.0314421
0.0322859
0.039927
0.0409433
0.0361905
0.0345187
0.0362753
0.0358302
0.0397734
0.0370645
0.0337118
0.0232793
0.0190098
0.0198404
0.0212386
0.0230561
0.0253915
0.025291
0.0241539
0.0227981
0.0218314
0.0207871
0.0182973
0.0176491
0.0196043
0.0212301
0.0226051
0.0241085
0.0249235
0.02576
0.0259248
0.025818
0.025498
0.0250738
0.0245241
0.0238457
0.0224419
0.0236714
0.0243456
0.0245469
0.0248183
0.0251249
0.0253951
0.0255304
0.0254128
0.0244756
0.0236747
0.0225139
0.0213985
0.0197964
0.0176858
0.0183641
0.0201171
0.0217111
0.0228218
0.0238678
0.0234746
0.0239567
0.0246016
0.0246276
0.0244519
0.0242316
0.0240848
0.0241807
0.0248169
0.0265272
0.0262263
0.0290556
0.0302533
0.0276833
0.0263517
0.0256584
0.025233
0.0249888
0.0247845
0.0245878
0.0240462
0.0235021
0.0239996
0.024251
0.0245467
0.0249034
0.0254101
0.0261031
0.0272015
0.0286145
0.0284823
0.0262334
0.0260949
0.025036
0.0242455
0.0238676
0.0238129
0.0238587
0.0239598
0.0238961
0.0233848
0.0230634
0.0234689
0.022463
0.0225321
0.0215635
0.0202106
0.018775
0.0173262
0.0166661
0.035221
0.0352153
0.0457448
0.0423705
0.037037
0.0470703
0.0600629
0.052062
0.0628001
0.0665745
0.0540784
0.0502741
0.0278301
0.0243505
0.0173975
0.0189194
0.0202594
0.021458
0.0212745
0.0221909
0.0220728
0.0230333
0.022491
0.021702
0.0211703
0.0201581
0.0202147
0.0189478
0.0174068
0.0172732
0.0189169
0.0199453
0.0211203
0.021107
0.0225607
0.0230691
0.0234674
0.0236202
0.0236108
0.0236974
0.0238698
0.024317
0.0250324
0.0255017
0.0256567
0.0261148
0.0258663
0.025543
0.0250795
0.0247638
0.0244409
0.0241584
0.0238615
0.0235822
0.0231518
0.0224986
0.0223788
0.0228919
0.0232341
0.0234732
0.0236151
0.0236053
0.0234234
0.0231208
0.0228191
0.0224766
0.0225334
0.0237631
0.0239744
0.0240897
0.023869
0.0236982
0.0236818
0.0235665
0.0234735
0.0232435
0.0228744
0.0224009
0.0213354
0.0214392
0.0223199
0.022766
0.023097
0.0233769
0.0233893
0.0232952
0.0229143
0.0226222
0.0222843
0.021743
0.0210539
0.0187096
0.0191694
0.0197826
0.0206079
0.0214384
0.0221449
0.022592
0.0227729
0.0227611
0.0225823
0.0222264
0.0214783
0.0214598
0.0220026
0.0221779
0.0221375
0.0218468
0.0212448
0.0203322
0.0191394
0.0179298
0.0169537
0.0164472
0.0156516
0.0182224
0.0192266
0.0201543
0.021007
0.021814
0.0226708
0.0230165
0.0230959
0.0229393
0.022673
0.0222575
0.0214854
0.0214962
0.0222021
0.0225956
0.0228146
0.0229153
0.0226191
0.0219264
0.0203889
0.0189737
0.0178025
0.0167321
0.0156254
0.0152315
0.0157338
0.0153649
0.0158514
0.0170028
0.018494
0.0198558
0.0208228
0.0214029
0.021676
0.0216954
0.0213594
0.0211825
0.0213201
0.021136
0.0206587
0.0198104
0.0185398
0.0170622
0.0158144
0.0153917
0.0159951
0.0166426
0.016045
0.0139105
0.0150257
0.0160967
0.0172135
0.0188872
0.020949
0.02197
0.0224648
0.022615
0.0224955
0.0221295
0.0214747
0.0214232
0.0220489
0.0224047
0.0225012
0.0224004
0.021927
0.0210608
0.0185449
0.0158174
0.0145982
0.0139096
0.012963
0.0161947
0.0168878
0.0160716
0.0155385
0.0164066
0.0174755
0.018655
0.0195541
0.0201878
0.0206745
0.0209333
0.020948
0.0206804
0.0205801
0.0203739
0.0200373
0.0196928
0.0193302
0.0185231
0.0176784
0.016728
0.0177933
0.0183639
0.01761
0.0144556
0.0150212
0.015797
0.0162493
0.0188759
0.0213736
0.0220942
0.0223392
0.0224561
0.0223387
0.0219526
0.0213393
0.0212199
0.0218516
0.0223187
0.022593
0.0228544
0.0229771
0.0230659
0.0211341
0.0179025
0.0172389
0.0155836
0.0147479
0.0181651
0.0188629
0.0183952
0.0178347
0.0194819
0.0201808
0.0204442
0.0204541
0.020391
0.0202982
0.0203063
0.0204048
0.0201096
0.020001
0.0201119
0.0203274
0.0202761
0.0200406
0.019461
0.0186955
0.0176281
0.0194649
0.0211292
0.0208627
0.016988
0.0175249
0.0182875
0.0177711
0.0204158
0.0222934
0.022826
0.0228553
0.0226124
0.0221838
0.0216669
0.0210371
0.0207639
0.0213202
0.0218879
0.0219344
0.0220556
0.0220303
0.0214682
0.0213081
0.020735
0.0204691
0.0197057
0.0191307
0.0183766
0.0205492
0.0237612
0.0259702
0.0275536
0.029445
0.0280154
0.0244927
0.0222216
0.0152829
0.015295
0.0155235
0.0148903
0.0145148
0.0143396
0.0187852
0.021535
0.0242509
0.0260124
0.0235516
0.023522
0.0234362
0.0233164
0.0232012
0.0231062
0.0229027
0.0237498
0.0416429
0.283318
0.210655
0.235998
0.225053
0.315584
0.0802379
0.0392993
0.043679
0.0510052
0.0587404
0.05693
0.052731
0.0458203
0.0408241
0.0404064
0.0395778
0.0393293
0.0380151
0.0380332
0.037342
0.0445093
0.0927897
0.122859
0.136547
0.145088
0.154299
0.149767
0.158882
0.150888
0.151428
0.15305
0.157775
0.150403
0.14302
0.139143
0.134845
0.117566
0.117925
0.0995512
0.103382
0.0863167
0.090803
0.0947074
0.0940611
0.0928585
0.0926426
0.0929222
0.0937436
0.0973718
0.0927202
0.0989986
0.0918372
0.0739059
0.0716061
0.074028
0.0682721
0.0596078
0.0681424
0.083916
0.100095
0.116794
0.0988639
0.122649
0.115488
0.115483
0.109653
0.103275
0.0994592
0.0987008
0.09929
0.100387
0.102996
0.10489
0.106459
0.109302
0.117843
0.120131
0.118679
0.101302
0.0861036
0.0945814
0.0993928
0.103116
0.103424
0.0987621
0.0965829
0.0903179
0.0887414
0.0831734
0.080602
0.0751041
0.0718127
0.0669916
0.0834469
0.081666
0.0886475
0.0949061
0.0991806
0.102793
0.104391
0.10561
0.104402
0.101991
0.0970608
0.0950289
0.090263
0.108632
0.12697
0.129776
0.125188
0.111713
0.106133
0.338573
0.410719
0.411794
0.611157
0.652741
0.843681
0.335261
0.179832
0.192205
0.188898
0.180755
0.17758
0.177349
0.189067
0.198128
0.189262
0.200198
0.178604
0.175986
0.170765
0.199622
0.197703
0.178551
0.156543
0.124148
0.101173
0.101027
0.0835154
0.0842758
0.0725411
0.0730357
0.0743142
0.090627
0.167331
0.207787
0.234358
0.260664
0.320936
0.290835
0.439823
0.352709
0.438398
0.302782
0.327177
0.312941
0.304207
0.302207
0.318182
0.340461
0.299397
0.37231
0.298391
0.646466
0.782828
0.496516
0.458822
0.406987
0.393008
0.38325
0.377798
0.369723
0.487067
0.451899
0.553341
0.513874
0.642522
0.566098
0.576122
0.542846
0.582709
0.604553
0.618151
0.494671
0.54241
0.421295
0.456105
0.378203
0.413822
0.292922
0.291944
0.332998
0.370407
0.395807
0.451543
0.710878
0.603881
0.814602
0.583865
0.705803
0.490236
0.536815
0.512771
0.495064
0.496613
0.524533
0.628836
0.608267
0.694342
0.514689
0.526977
0.516689
0.534036
0.523465
0.558409
0.563088
0.564256
0.562221
0.523411
0.533994
0.532179
0.531966
0.531987
0.532333
0.509576
0.512754
0.505219
0.510999
0.526913
0.514573
0.514491
0.51236
0.504789
0.502736
0.502253
0.504011
0.503781
0.508912
0.508783
0.509122
0.512178
0.52689
0.514437
1.82551
0.903896
0.430399
0.3399
0.2203
0.134884
0.0555655
0.0599799
0.062873
0.0637655
0.0616931
0.0563029
0.0481628
0.0382232
0.0304572
0.0295309
0.0263056
0.0268787
0.0344531
0.0420418
0.0384001
0.0462005
0.053916
0.0622421
0.0702212
0.077168
0.0830404
0.0859835
0.0829704
0.0702772
0.0526232
0.0352699
0.025043
0.0226489
0.0210079
0.0190117
0.0169076
0.0152677
0.0142597
0.013084
0.0124479
0.0123551
0.0125671
0.0128034
0.0132375
0.0147491
0.0160458
0.0172269
0.0181839
0.0184277
0.0179239
0.0184639
0.0190575
0.0194495
0.0197902
0.0196292
0.0196298
0.0198759
0.019836
0.0200395
0.0199395
0.019941
0.0197985
0.0196208
0.0193933
0.0189538
0.0186756
0.018116
0.0177723
0.0169562
0.0169916
0.0174052
0.0177344
0.0167425
0.016695
0.0159272
0.0264668
0.0475128
0.0609359
0.0659858
0.0713064
0.0673133
0.0568449
0.0388073
0.0191018
0.0188132
0.0192817
0.0217874
0.0213032
0.0173842
0.0181662
0.0187231
0.0174888
0.0173504
0.0173795
0.0193832
0.0199644
0.0213445
0.0218366
0.0222389
0.0224609
0.0224595
0.0225614
0.0223163
0.0223236
0.0219602
0.0219462
0.0216364
0.0214057
0.021692
0.0223772
0.0224406
0.0230528
0.0227475
0.0224306
0.02187
0.0214445
0.0205983
0.0196611
0.0186649
0.017137
0.0167052
0.0172341
0.0177582
0.0173114
0.0187882
0.0200433
0.0197211
0.0244107
0.022695
0.0202551
0.022753
0.0185192
0.0187033
0.0181546
0.0170547
0.0176003
0.0170839
0.0169815
0.0172638
0.0175334
0.0186912
0.0196456
0.0202934
0.0211556
0.0218154
0.0225301
0.0237236
0.024033
0.0230869
0.0229206
0.0217429
0.0210651
0.0207538
0.0216797
0.0229629
0.0228513
0.0237063
0.0234475
0.0222104
0.0213994
0.0205365
0.0195584
0.0188946
0.0181267
0.0174043
0.0169964
0.0162022
0.0163294
0.0152687
0.0168182
0.0171489
0.0192187
0.0174131
0.0169557
0.0224274
0.0282194
0.0440636
0.0321251
0.0212133
0.0228314
0.030914
0.0383247
0.0265672
0.0261745
0.0150235
0.0169112
0.0152114
0.0154796
0.0165453
0.0168321
0.0179901
0.0190447
0.0192763
0.020025
0.0203642
0.0211398
0.0213958
0.022131
0.0223227
0.0235876
0.0236569
0.0237342
0.0237156
0.0229492
0.0228787
0.0229273
0.0233648
0.0231381
0.0237993
0.0238229
0.0238966
0.0238256
0.0224936
0.0221734
0.0214047
0.0208932
0.0199874
0.019442
0.0187246
0.0183395
0.0177202
0.0180382
0.018759
0.0189634
0.0198718
0.0198913
0.0206397
0.0208442
0.0213087
0.0214393
0.0221046
0.0222424
0.0225084
0.0225639
0.0237679
0.0238819
0.0239219
0.0238861
0.0239059
0.0241384
0.0241393
0.024077
0.0240673
0.0240101
0.0238595
0.0237209
0.0247755
0.0254338
0.0249505
0.0247115
0.0249826
0.0258431
0.0263956
0.0274945
0.028352
0.029435
0.0303329
0.0311668
0.0318497
0.0323357
0.0324659
0.0325066
0.032064
0.0316935
0.0333921
0.0398917
0.0431155
0.0483737
0.0507468
0.0527349
0.0534635
0.052295
0.0530035
0.0517159
0.0519667
0.0507585
0.0503126
0.0494802
0.0484593
0.0477326
0.0462507
0.0455171
0.0501223
0.0567051
0.0568275
0.0498551
0.0469758
0.0425044
0.036823
0.0389688
0.0453828
0.0406923
0.0384565
0.0355702
0.0304991
0.0233194
0.0178108
0.0255211
0.0332395
0.0404829
0.0472987
0.0533196
0.0572168
0.0593355
0.0608487
0.0625445
0.0605215
0.0530862
0.0415193
0.0317281
0.0278878
0.0263445
0.0238967
0.0204518
0.0185601
0.0174835
0.0163266
0.0149748
0.0141129
0.0138665
0.014099
0.0142126
0.0155588
0.0168183
0.0168123
0.0179894
0.0178234
0.0183322
0.018921
0.0193194
0.0199892
0.0199551
0.0189958
0.0193411
0.019603
0.0202772
0.0201749
0.0203419
0.0201188
0.0194006
0.0188836
0.0182844
0.0177679
0.0173136
0.0167468
0.0160468
0.0160357
0.0162397
0.0157965
0.0161973
0.0166305
0.0170308
0.0176554
0.0185608
0.01932
0.0211473
0.0212942
0.0210425
0.0211305
0.019707
0.0196474
0.0186743
0.0184436
0.0200354
0.0198819
0.0182101
0.0196056
0.0196054
0.0213795
0.0213806
0.020709
0.020906
0.0207841
0.0189605
0.0180707
0.0170064
0.0162311
0.0156497
0.015257
0.0148013
0.0154193
0.0142412
0.0136549
0.0140921
0.0140669
0.0141321
0.0145176
0.0149452
0.0156879
0.0163899
0.0174314
0.0180677
0.0189635
0.0192962
0.0212005
0.0211149
0.0209924
0.021023
0.0211562
0.021609
0.0208179
0.0207802
0.0209214
0.020936
0.0209527
0.0209335
0.0190991
0.0188958
0.0180622
0.0177455
0.0168178
0.0164606
0.015807
0.0154948
0.0151078
0.0149118
0.0232876
0.0254874
0.0256527
0.0398167
0.0199949
0.0199918
0.034363
0.0173653
0.0230907
0.0236477
0.024718
0.0259273
0.0225758
0.0307541
0.0212366
0.02334
0.0240775
0.0252622
0.0127698
0.0189685
0.0364008
0.0421407
0.0434938
0.0484685
0.0552198
0.0584753
0.0615388
0.0636128
0.0658864
0.0683579
0.0707739
0.0725314
0.0726978
0.069041
0.066
0.0565358
0.0527203
0.0564689
0.0609017
0.0474279
0.0426329
0.0431861
0.0436628
0.0442061
0.0444226
0.0451238
0.0449354
0.0459493
0.0452165
0.0463382
0.0451951
0.0462393
0.0449811
0.0422261
0.0389861
0.0327446
0.030748
0.0296307
0.0269029
0.0243923
0.0221254
0.0202862
0.0198463
0.0182759
0.0168656
0.016566
0.0152762
0.01552
0.0167264
0.0198364
0.016816
0.0176694
0.0259555
0.0191374
0.0180521
0.0186035
0.0191251
0.0193627
0.0182579
0.019892
0.0221733
0.0221581
0.022219
0.0222241
0.0214226
0.0212612
0.0209854
0.0210401
0.0210726
0.0211917
0.0211578
0.019339
0.0192827
0.0190102
0.0188719
0.0180851
0.0179181
0.0173366
0.0170077
0.0161698
0.0158766
0.0154267
0.0154749
0.0165159
0.0202406
0.0295526
0.0171899
0.0177959
0.0154278
0.0139422
0.0265704
0.0247831
0.0286129
0.0267773
0.0394393
0.0264326
0.0231961
0.0242132
0.0297292
0.0296556
0.0325705
0.0423512
0.0330102
0.028119
0.0721948
0.0520494
0.0329012
0.0456305
0.0576747
0.108159
0.126917
0.0557097
0.0562568
0.0619728
0.0628608
0.0627333
0.0530497
0.04895
0.041002
0.031425
0.0129211
0.0249015
0.03213
0.042286
0.0564018
0.0917974
0.0527551
0.0595889
0.0655465
0.0646253
0.0677285
0.0658556
0.0644649
0.065413
0.102551
0.111608
0.107035
0.0854451
0.0802253
0.0737792
0.12377
0.138952
0.1197
0.129721
0.135278
0.0805511
0.030203
0.024956
0.0238282
0.0264038
0.0253508
0.0460479
0.0205779
0.0218257
0.0226506
0.0271703
0.0301738
0.0529241
0.0232404
0.0254573
0.0324088
0.0348709
0.045972
0.0274241
0.0280925
0.0344276
0.0362203
0.0395325
0.0336392
0.0317506
0.0287322
0.0259186
0.0244212
0.0254728
0.0318759
0.0463976
0.0278862
0.0283138
0.0300793
0.133421
0.0307435
0.0266505
0.0277022
0.0267126
0.0336775
0.0351351
0.110952
0.03543
0.0166914
0.0154597
0.0159391
0.0167497
0.0173868
0.0180025
0.0184477
0.0190853
0.0194809
0.0196314
0.019799
0.0221727
0.0220797
0.0216124
0.0210693
0.0218649
0.0211699
0.0212197
0.0218373
0.0213049
0.0214457
0.022497
0.0236663
0.0231826
0.0237504
0.0250973
0.0239379
0.022234
0.0220303
0.0221565
0.0228631
0.0240045
0.0228099
0.0234592
0.0226387
0.0235643
0.023665
0.0203673
0.0200015
0.0198001
0.0192953
0.0186242
0.0179997
0.0173266
0.0166697
0.0161508
0.0160461
0.0165039
0.0151795
0.0155437
0.0177848
0.0388821
0.032001
0.0262428
0.0220491
0.0194794
0.0183822
0.0182908
0.0187465
0.0194001
0.0199642
0.0201716
0.0207541
0.0246308
0.0245858
0.0257933
0.0246502
0.0259906
0.0249384
0.0236116
0.0227413
0.0239495
0.0232487
0.0237383
0.0253587
0.0262086
0.0238473
0.02412
0.0215258
0.020108
0.0184886
0.0188278
0.0202798
0.0209605
0.0234051
0.0234842
0.0269284
0.0269028
0.0267485
0.0255074
0.0248319
0.0262871
0.0247988
0.0259507
0.0248367
0.0262442
0.027427
0.0277757
0.0270698
0.0261985
0.0253212
0.0210529
0.0202671
0.0199609
0.0194638
0.0191919
0.0200661
0.0242044
0.0332226
0.0451418
0.057164
0.0665971
0.0662146
0.0597101
0.0402718
0.0414547
0.0383565
0.0419416
0.0594847
0.0847827
0.059212
0.113597
0.0880311
0.0522711
0.062602
0.0745623
0.0837039
0.0895642
0.0904049
0.0768231
0.0564583
0.0495758
0.0520156
0.0844595
0.0832002
0.0823626
0.0779351
0.0824149
0.0803115
0.0776543
0.0761036
0.0743384
0.0701073
0.0700864
0.0674223
0.0673959
0.0602544
0.0614439
0.0616803
0.0591089
0.0563629
0.0540778
0.0518895
0.0495674
0.0456728
0.0443918
0.0419103
0.0401649
0.0368059
0.0362737
0.0357886
0.0336132
0.0320601
0.030806
0.0295435
0.0278391
0.0279974
0.026395
0.0262372
0.0213785
0.0210023
0.0199907
0.0196532
0.0193937
0.019565
0.0207531
0.0233505
0.043308
0.0330149
0.0329279
0.0335108
0.0337293
0.0396357
0.0464259
0.070703
0.0654178
0.0720186
0.0615485
0.0640049
0.0632079
0.0628162
0.065529
0.0691156
0.0744528
0.0869555
0.333684
0.513814
0.253337
0.237294
0.246898
0.251772
0.259212
0.339378
0.360226
0.356318
0.360761
0.330609
0.318345
0.19664
0.226049
0.238117
0.236983
0.223827
0.201901
0.392007
0.522665
0.518791
0.523658
0.52377
0.518765
0.522606
0.502911
0.514274
0.501758
0.51503
0.502299
0.521679
0.51894
0.504364
0.501137
0.501156
0.500916
0.501378
0.501555
0.504893
0.506055
0.506107
0.505102
0.504109
0.514527
0.435547
0.121455
0.0843388
0.139955
0.194457
0.159032
0.230873
0.265626
0.191363
0.108603
0.08837
0.0996891
0.122734
0.124302
0.151258
0.19824
0.185753
0.151566
0.15259
0.152825
0.197814
0.189632
0.21594
0.258159
0.251703
0.187131
0.148816
0.1476
0.225521
0.240697
0.235969
0.121424
0.043378
0.0217041
0.0225651
0.0326311
0.0164651
0.0168178
0.0218523
0.056765
0.095331
0.0489915
0.134671
0.136848
0.181371
0.146905
0.17784
0.115015
0.118531
0.0674292
0.079428
0.0893834
0.0951578
0.0994247
0.0933448
0.215563
0.317939
0.189687
0.559978
0.537424
0.19556
0.216881
0.575672
0.513014
0.50352
0.501783
0.501698
0.501858
0.501815
0.500969
0.500915
0.500728
0.500765
0.500716
0.501163
0.504767
0.520404
0.514615
0.50524
0.501385
0.500824
0.500799
0.50069
0.50073
0.50075
0.500807
0.501017
0.501049
0.50115
0.501669
0.50394
0.512033
0.435721
0.169858
0.182244
0.406026
0.36178
0.511505
0.504622
0.501369
0.500941
0.500855
0.500829
0.500794
0.500969
0.50089
0.501397
0.501231
0.501287
0.502777
0.50826
0.506398
0.443451
0.369665
0.417448
0.330197
0.506674
0.507778
0.503277
0.502899
0.503246
0.503413
0.501513
0.501526
0.500991
0.50106
0.500892
0.50134
0.504756
0.511017
0.345935
0.170803
0.177704
0.257935
0.0878427
0.0907461
0.0926473
0.0947272
0.246726
0.440609
0.554604
0.470396
0.474629
0.541418
0.385132
0.363889
0.293623
0.317249
0.401499
0.34692
0.312544
0.250054
0.288295
0.247541
0.30332
0.217722
0.234031
0.221619
0.282908
0.286778
0.287149
0.226585
0.216466
0.271512
0.285837
0.316817
0.218626
0.25892
0.203189
0.192209
0.0870447
0.0891922
0.0810638
0.0711096
0.0708978
0.0790414
0.0774996
0.0837003
0.0807138
0.0844315
0.0815771
0.0795354
0.0727129
0.0747298
0.0685033
0.0711419
0.130124
0.166243
0.150197
0.151621
0.179291
0.130807
0.157169
0.153151
0.19724
0.247625
0.225694
0.289971
0.224283
0.275049
0.405038
0.753793
0.436001
0.243493
0.3176
0.339949
0.288393
0.18936
0.449252
0.538406
0.297818
0.360163
1.19669
1.04392
1.7819
0.991865
1.11784
0.669731
0.597048
1.02797
0.65291
0.66517
0.558803
0.572725
0.498133
0.323603
0.322983
0.304949
0.24132
0.279799
0.270536
0.266362
0.295856
0.260954
0.315854
0.351631
0.396253
0.322138
0.28491
0.365966
0.215151
0.2897
0.345273
0.314752
0.25896
0.336873
0.448577
0.419231
0.360591
0.397891
0.508097
0.561804
0.530208
0.449619
0.51008
1.00429
0.960572
0.929386
0.589051
1.93373
1.71657
0.350645
0.136151
0.0947293
0.0358917
0.0223897
0.0182705
0.0178762
0.0487589
0.0195469
0.0235137
0.0211454
0.0297961
0.0272217
0.031456
0.0550214
0.0374131
0.0524021
0.0389203
0.0515433
0.0410643
0.0564109
0.0605625
0.0637262
0.0515324
0.0406588
0.0614221
0.0819569
0.0383734
0.0986684
0.104259
0.0673224
0.081928
0.101128
0.0523327
0.163766
0.0568791
0.0564178
0.0669231
0.125456
0.249433
0.0846413
0.111248
0.583166
1.52839
0.507949
0.199933
0.162849
0.0413652
0.0359286
0.0291459
0.0355377
0.0313615
0.0623562
0.0629303
0.154347
0.123143
0.147097