/*--------------------------------*- C++ -*----------------------------------*\
| =========                 |                                                 |
| \\      /  F ield         | OpenFOAM: The Open Source CFD Toolbox           |
|  \\    /   O peration     | Version:  v2012                                 |
|   \\  /    A nd           | Website:  www.openfoam.com                      |
|    \\/     M anipulation  |                                                 |
\*---------------------------------------------------------------------------*/
FoamFile
{
    version     2.0;
    format      ascii;
    class       volScalarField;
    location    "645";
    object      nut;
}
// * * * * * * * * * * * * * * * * * * * * * * * * * * * * * * * * * * * * * //

dimensions      [0 2 -1 0 0 0 0];


internalField   nonuniform List<scalar> 
18258
(
0.00419922
0.00182731
0.00149851
0.00129894
0.000858709
0.0014057
0.001952
0.00232319
0.00243698
0.00241536
0.00250006
0.00421791
0.00591846
0.0073129
0.00768075
0.00766777
0.00695831
0.00664423
0.00721444
0.00887195
0.00746304
0.00478159
0.00572726
0.00662022
0.00720532
0.00638321
0.00516045
0.00477974
0.00432856
0.00360839
0.00302551
0.00206358
0.00151903
0.00140813
0.00127603
0.00145441
0.00158395
0.0016889
0.00172678
0.00175397
0.00174199
0.00173199
0.00168509
0.00165616
0.00160697
0.00132932
0.0016073
0.00164613
0.00180208
0.00248916
0.00267371
0.00224889
0.00248902
0.00222108
0.00146475
0.0016768
0.00182038
0.00185972
0.0018359
0.00175978
0.00173415
0.00171245
0.00168493
0.00165224
0.00163234
0.00164874
0.00166584
0.00164774
0.00156677
0.00150111
0.00139486
0.00128834
0.00120932
0.0011481
0.00110194
0.00105081
0.000993359
0.000872537
0.000808634
0.00107067
0.00134404
0.00143591
0.00203501
0.00248093
0.00249745
0.00186937
0.00133222
0.00138257
0.00153717
0.00155289
0.0013164
0.00156527
0.00177329
0.001838
0.00191541
0.00214063
0.00243603
0.00237462
0.0021147
0.00194794
0.00192192
0.00219816
0.00208708
0.00270622
0.00272844
0.00238408
0.00218563
0.00246014
0.0031722
0.00341391
0.00265571
0.00249394
0.0024447
0.00241403
0.00218314
0.00225903
0.00205125
0.00184828
0.00201328
0.00243354
0.00230845
0.00252174
0.0026127
0.00245098
0.00283984
0.00327481
0.00322746
0.00258287
0.00210547
0.00196266
0.00197768
0.00120956
0.00130616
0.00140771
0.00144218
0.00146624
0.00148673
0.00158532
0.00158175
0.00155861
0.00155518
0.001583
0.000872233
0.000944904
0.000968349
0.00097512
0.000926198
0.000916693
0.000899635
0.000885744
0.000835075
0.000799021
0.000956132
0.00107368
0.0011695
0.00128148
0.00144867
0.00165319
0.00186808
0.00208517
0.00222876
0.00226969
0.002311
0.00222742
0.00214317
0.00221964
0.00223255
0.0022182
0.00218847
0.00215091
0.00210016
0.00200704
0.00211498
0.00210912
0.00198133
0.00169786
0.0017359
0.00173279
0.00177781
0.00176861
0.0017864
0.0017611
0.00173145
0.00164827
0.00153222
0.00127596
0.00124538
0.00126114
0.00161948
0.00196609
0.00303698
0.00370429
0.00430031
0.00460126
0.00492404
0.00398432
0.00443456
0.00341855
0.00306908
0.0039006
0.00510368
0.00291176
0.00159019
0.00301506
0.00267493
0.0019404
0.00172686
0.00177916
0.00178055
0.00204269
0.00235469
0.00261346
0.00273928
0.00285048
0.00293942
0.00303737
0.00316141
0.00319534
0.00308693
0.00261262
0.00314843
0.00255696
0.00298562
0.00269807
0.00182228
0.00191589
0.00203716
0.00186639
0.00181605
0.00173891
0.00156638
0.00193104
0.00250739
0.00291057
0.00332749
0.00443542
0.00410336
0.00393705
0.00304843
0.0029479
0.00153081
0.00218438
0.00226025
0.00254314
0.00169043
0.00154237
0.0014634
0.00193501
0.0022413
0.00264571
0.00293534
0.00348734
0.0027037
0.00308644
0.00279264
0.00194641
0.00187308
0.00268223
0.00288916
0.00237638
0.00212399
0.00266551
0.0025229
0.00178986
0.00143171
0.00219965
0.00227739
0.00163434
0.00407717
0.00433732
0.00414472
0.00505821
0.00633084
0.00721849
0.00672387
0.00596117
0.00665545
0.00527966
0.00511623
0.00546369
0.00458267
0.00319783
0.00327886
0.00339075
0.00348147
0.00373684
0.00396893
0.00425279
0.00452493
0.00411457
0.00341841
0.00258811
0.00178129
0.00175756
0.0017489
0.00157036
0.0023271
0.00351985
0.00349503
0.00198566
0.00115783
0.00130995
0.00147926
0.00146478
0.00106277
0.000800028
0.0013782
0.0015756
0.00160091
0.00156105
0.00147379
0.00154
0.0024731
0.00380995
0.00418619
0.00433563
0.00447702
0.00457687
0.00463236
0.00464987
0.00465957
0.00467152
0.00468207
0.00469821
0.00468377
0.00458417
0.00403232
0.00253547
0.00148234
0.0013772
0.00152
0.00163363
0.0017329
0.00147472
0.000901562
0.00144
0.00184386
0.00211892
0.00213685
0.00199408
0.00193424
0.00304985
0.00405499
0.00477947
0.00492596
0.00499094
0.00493574
0.00492815
0.00482004
0.00478587
0.00419609
0.00300468
0.00328524
0.0035276
0.00356852
0.00365136
0.00377575
0.00368847
0.00348436
0.0050922
0.00587557
0.00595107
0.00607796
0.00600608
0.00590217
0.0056337
0.00532703
0.00448447
0.00336288
0.00212172
0.00216592
0.00230568
0.0022835
0.00198779
0.00209444
0.00227315
0.0022959
0.00237091
0.00265894
0.00301991
0.00288034
0.00247813
0.00210499
0.00195999
0.00191912
0.00184147
0.00137956
0.00139999
0.00136063
0.00138295
0.00185737
0.00221072
0.00254952
0.00361683
0.00322637
0.00262392
0.00416168
0.00426407
0.0045814
0.00506069
0.00518621
0.00574685
0.00399965
0.00360422
0.00370276
0.00302487
0.00279984
0.00282976
0.00284044
0.00264719
0.00289755
0.00287207
0.00276831
0.00305641
0.00336801
0.00444132
0.00538195
0.00567885
0.0058505
0.00592066
0.00589811
0.00578246
0.00581794
0.00510922
0.00510285
0.00488721
0.00474651
0.00469631
0.00446258
0.00510948
0.00530484
0.00537009
0.00550425
0.0057133
0.00555934
0.00538612
0.00525445
0.00515902
0.00505913
0.00511339
0.00520876
0.00531045
0.0054533
0.00564431
0.00567656
0.00547862
0.00532907
0.00522673
0.00513061
0.0051349
0.00522068
0.00532069
0.00546248
0.00564355
0.00554355
0.00540278
0.0052774
0.00517454
0.00508396
0.00490634
0.00502519
0.00515589
0.0052637
0.00533378
0.00460832
0.00492552
0.00484041
0.00438198
0.00410096
0.00311435
0.00337052
0.00355446
0.00387152
0.00429771
0.00438165
0.00367713
0.00315118
0.00307072
0.00304592
0.00311768
0.00314351
0.00315872
0.00356918
0.00538005
0.00541616
0.00543104
0.005433
0.00464497
0.00451345
0.00420514
0.00769113
0.00715979
0.00620303
0.0051113
0.00273909
0.00234804
0.00278141
0.00338219
0.00378134
0.00417207
0.00277023
0.0017157
0.00199947
0.00207279
0.00202156
0.00186847
0.00155695
0.0014372
0.00130429
0.00140357
0.0024858
0.00396716
0.00446868
0.00451614
0.0044713
0.00438413
0.00427801
0.00413029
0.00408299
0.00515787
0.00699302
0.00786616
0.00783162
0.0067283
0.00549016
0.0030996
0.00160166
0.00118669
0.00126423
0.00138953
0.00162962
0.00145038
0.00123347
0.00135063
0.00127495
0.00257866
0.00444332
0.00564395
0.00670529
0.00660563
0.00575057
0.00468762
0.00443394
0.0045372
0.00460767
0.00466738
0.0047286
0.0047706
0.00474403
0.00431797
0.0026675
0.00159244
0.00141481
0.00152112
0.00178284
0.00189458
0.00191421
0.00188782
0.00163671
0.00270729
0.00429782
0.0027337
0.00149151
0.00161139
0.00159945
0.00282117
0.00281694
0.00275654
0.00428829
0.00453446
0.00452354
0.00425082
0.00405782
0.00240281
0.00272768
0.00273696
0.00275131
0.00279624
0.001413
0.00154035
0.00158854
0.00171064
0.00149473
0.00189739
0.00049102
0.000681077
0.000791068
0.000860409
0.000927063
0.000909394
0.00174052
0.00176649
0.0016855
0.00164096
0.00208208
0.0022341
0.00228313
0.0021026
0.00193997
0.00206507
0.00206981
0.00195088
0.00184779
0.00191558
0.00191682
0.00183698
0.00156245
0.00146407
0.00160721
0.00159001
0.00157747
0.00283183
0.0028267
0.0026754
0.00439459
0.00432441
0.00484296
0.00481153
0.00480567
0.00478594
0.00483721
0.00486416
0.00488455
0.00490835
0.00489896
0.00485179
0.00674495
0.00477299
0.00416524
0.00240933
0.00232104
0.00163944
0.00143687
0.00169197
0.00180966
0.00196197
0.00191768
0.00202138
0.00201894
0.00214231
0.00198825
0.00176529
0.00270356
0.00288804
0.00282053
0.00287615
0.00280837
0.00279171
0.0027713
0.00273213
0.00268487
0.00159892
0.00156859
0.00183688
0.00192826
0.00207198
0.00209061
0.00213605
0.0020256
0.0017813
0.00172419
0.0019859
0.00195903
0.00199736
0.00188307
0.00187506
0.00167025
0.00171262
0.00345273
0.00637123
0.00328095
0.00364449
0.00330236
0.00375582
0.00329002
0.00283757
0.00290427
0.00255817
0.00266857
0.00279911
0.00284979
0.00299523
0.00353073
0.00339923
0.00298377
0.00289711
0.00284005
0.00267794
0.00241044
0.00252487
0.00254749
0.00260218
0.00289213
0.00331762
0.00371843
0.00451856
0.00438475
0.00384124
0.00351209
0.00368291
0.00374721
0.00471688
0.00440634
0.00438036
0.00462125
0.00457573
0.00434238
0.00411423
0.00397108
0.00340959
0.00346551
0.00396536
0.00383727
0.00395461
0.00388526
0.00403968
0.00411286
0.0039471
0.00366837
0.003858
0.00385058
0.00427546
0.00415752
0.00385714
0.00352726
0.00377222
0.00372744
0.00430478
0.00405137
0.00378909
0.00348893
0.00334279
0.00379348
0.00372356
0.00422138
0.00434455
0.0043466
0.00379002
0.00370125
0.00440086
0.00423348
0.00409065
0.00426099
0.00352945
0.00362895
0.00447001
0.00456341
0.00433027
0.00361625
0.00367038
0.00314654
0.0037006
0.00460579
0.00435027
0.00356591
0.00295976
0.00413979
0.00435488
0.0046061
0.00435327
0.0047403
0.00510611
0.00416297
0.00452865
0.00591635
0.00451823
0.00524251
0.00535815
0.00538916
0.00539132
0.00541145
0.00543759
0.00572732
0.00556824
0.00354399
0.00423639
0.00411675
0.00344586
0.0029337
0.00323029
0.00347902
0.00352943
0.00361913
0.00375695
0.00369198
0.00356774
0.00522308
0.0059588
0.00608948
0.00621025
0.00610786
0.00595518
0.00560643
0.00518408
0.0043145
0.00321987
0.00201255
0.0020526
0.00218845
0.00216894
0.00188279
0.00141978
0.000933115
0.00138294
0.00142933
0.00134658
0.00122864
0.0010873
0.00112923
0.00204872
0.00369343
0.00536731
0.00598998
0.00649497
0.00700633
0.007457
0.00779517
0.00804676
0.00822384
0.00833733
0.00836367
0.0082122
0.00749067
0.00715729
0.00674186
0.0063988
0.00592209
0.00554948
0.00627634
0.00689337
0.00727132
0.00769575
0.00788995
0.00780381
0.00677156
0.00657188
0.00757512
0.00933451
0.00793698
0.00997429
0.0117212
0.00912557
0.0081939
0.00818175
0.00915444
0.00933488
0.00900983
0.00849898
0.00791085
0.00716253
0.00754597
0.00789295
0.00822643
0.00853417
0.00932253
0.00945361
0.00937651
0.00921657
0.0090116
0.00874154
0.00833453
0.00776543
0.00706417
0.00634402
0.0055142
0.00375954
0.00191808
0.00216102
0.00213333
0.00215042
0.00216143
0.00103563
0.00114272
0.00115556
0.00116097
0.00109274
0.00124363
0.00179829
0.00289249
0.0020802
0.00171695
0.00118904
0.00139187
0.0023193
0.00392171
0.00442322
0.00451732
0.00479387
0.00631842
0.00690785
0.00729661
0.00761582
0.00780822
0.00771865
0.00748456
0.00706483
0.00653414
0.00631655
0.00595784
0.00563663
0.00545489
0.00527343
0.00494223
0.00386803
0.00373965
0.00389391
0.00384453
0.0036799
0.00393214
0.00407381
0.00406988
0.00411459
0.0041536
0.00427571
0.00441949
0.00454456
0.00460997
0.00463398
0.0046413
0.00465051
0.00465779
0.00467184
0.0046559
0.00455392
0.00399882
0.00250115
0.00146042
0.00135029
0.00148052
0.00156565
0.00160209
0.00142295
0.000916027
0.00142342
0.00184248
0.0018895
0.00207303
0.00213842
0.00226615
0.00252322
0.00291548
0.0030084
0.00266994
0.00252919
0.00247595
0.00241324
0.00206881
0.00257804
0.00283846
0.00283231
0.00280465
0.00303092
0.00372922
0.00358295
0.00316002
0.00312576
0.00309487
0.00280366
0.00276132
0.00301156
0.00304425
0.00315681
0.00370095
0.00443727
0.00411724
0.00375064
0.00359724
0.00332274
0.00292877
0.00264834
0.00324833
0.00266114
0.00141558
0.00120914
0.0011977
0.00120444
0.00116487
0.00137978
0.00145039
0.00146785
0.00136154
0.00151056
0.00168076
0.00162512
0.00184291
0.0018189
0.0016291
0.00161559
0.00174233
0.00183437
0.00188237
0.00193958
0.00316987
0.00327536
0.00253283
0.00365618
0.00421518
0.00417292
0.00442423
0.00364548
0.00326822
0.00387752
0.00447702
0.0051293
0.00405924
0.00383962
0.00392676
0.00180915
0.000951951
0.00134283
0.00166709
0.00185811
0.00180243
0.00170251
0.00143928
0.00254829
0.00261815
0.00414408
0.00464865
0.00470715
0.0046782
0.00481956
0.00531848
0.00619264
0.00683663
0.00702491
0.00692323
0.00663241
0.00609162
0.00555064
0.00550048
0.00529752
0.00514545
0.00509316
0.00441695
0.00391796
0.00419034
0.00411899
0.00425718
0.00432112
0.00436723
0.00441416
0.00449299
0.00458811
0.00467432
0.00473276
0.00477138
0.0048039
0.00483736
0.00487113
0.00490777
0.00492717
0.00487979
0.00440982
0.00264653
0.0015787
0.00144042
0.00153698
0.00180633
0.00190183
0.00204412
0.00181568
0.000956345
0.00112458
0.00195421
0.00216568
0.00200346
0.00187512
0.0018417
0.00154287
0.00279276
0.00275605
0.00432317
0.00486203
0.00493015
0.00491676
0.00487901
0.00483655
0.00479697
0.00476462
0.00473905
0.0047117
0.00467206
0.00462351
0.00457786
0.00453173
0.00445228
0.00433863
0.00422142
0.00438827
0.00452817
0.00470887
0.00491882
0.00503493
0.00494887
0.00480753
0.00473487
0.00475582
0.00479502
0.0048366
0.00487409
0.00489191
0.00483805
0.00456025
0.00428029
0.00271276
0.00274779
0.0013539
0.001504
0.00173535
0.00179227
0.00194659
0.00193793
0.00152435
0.00118773
0.00133972
0.00125162
0.00223493
0.00245736
0.0027243
0.00269718
0.00146626
0.00150381
0.00156298
0.0017635
0.00164019
0.00158448
0.00389238
0.00373442
0.00391131
0.00479707
0.00413401
0.00285699
0.00313058
0.00435527
0.00459189
0.00277754
0.00208398
0.00231052
0.00292687
0.00430801
0.00436058
0.00414135
0.00411956
0.00300999
0.00370064
0.0044503
0.00432807
0.0033781
0.00232791
0.00173262
0.000844265
0.00160605
0.00137338
0.00336085
0.00371858
0.00367378
0.00401663
0.00426865
0.00431248
0.00418927
0.00371784
0.00379149
0.00382861
0.00436055
0.00437867
0.00370994
0.003131
0.00254532
0.00256762
0.00261678
0.00289914
0.00362972
0.00342015
0.00299812
0.00290772
0.00284552
0.00267707
0.00241618
0.00212002
0.00213439
0.00198638
0.00192217
0.00302964
0.00403234
0.00475456
0.00489124
0.00494091
0.00486545
0.00483157
0.00469406
0.00462331
0.00401709
0.0051292
0.00542065
0.00522974
0.00526747
0.00529953
0.00533915
0.0053392
0.00523849
0.00450288
0.00268971
0.00175715
0.00198352
0.00214118
0.00201091
0.00199931
0.00213063
0.00202144
0.00177545
0.00287626
0.00281104
0.00449376
0.00508768
0.00519705
0.00520414
0.00518377
0.00516701
0.00517405
0.0054464
0.005321
0.00538703
0.00567019
0.00568244
0.00575237
0.00540134
0.00533315
0.0052898
0.00526095
0.00521361
0.00508616
0.00450149
0.00436369
0.00495485
0.00510702
0.00517439
0.00522114
0.00527721
0.00535113
0.00556389
0.00572145
0.00577881
0.00554596
0.00546373
0.00533781
0.0051572
0.00511452
0.00510553
0.00510133
0.00507624
0.00494427
0.00435307
0.00279939
0.00286852
0.00170669
0.00171797
0.00197891
0.00207882
0.00204198
0.00189113
0.00184391
0.00316682
0.00360422
0.00383578
0.0041295
0.00394364
0.00392132
0.00448264
0.00433819
0.00386991
0.0040258
0.00360999
0.0034414
0.00332353
0.00334082
0.00176275
0.00190193
0.00198358
0.00195036
0.00186497
0.00166322
0.00152522
0.00278295
0.00276266
0.00272648
0.00162194
0.00158657
0.00186926
0.00181556
0.00166106
0.00141588
0.00155197
0.00239518
0.00267853
0.00415282
0.00430091
0.00460407
0.0049235
0.00504474
0.00507764
0.00509721
0.00511979
0.0051677
0.00522473
0.00524035
0.0052384
0.00528496
0.00527768
0.00527775
0.00524811
0.00521479
0.00517655
0.00513617
0.00507045
0.00493552
0.00461233
0.00429529
0.00484266
0.00488714
0.00497826
0.00507289
0.00511392
0.00512167
0.00510519
0.00507069
0.00502987
0.00498125
0.00498001
0.00511408
0.00514455
0.005168
0.00515206
0.00513504
0.00512992
0.00510861
0.00507292
0.00497923
0.00488514
0.0048448
0.00476417
0.00489188
0.00494822
0.00495686
0.00500482
0.00508157
0.00510172
0.00509873
0.00505989
0.00502797
0.00498868
0.00492519
0.0048446
0.00456694
0.00462452
0.00470037
0.00479894
0.00489431
0.00497132
0.00501405
0.00501558
0.00496839
0.0049369
0.0049379
0.00489641
0.00491828
0.00494078
0.00491641
0.0049148
0.00492058
0.00486762
0.00476852
0.00462973
0.00448226
0.00435875
0.00429281
0.00418738
0.00451819
0.00464138
0.00475237
0.00485159
0.00494254
0.00503527
0.00506646
0.00505918
0.00500285
0.00497075
0.00496917
0.00492129
0.00491948
0.00496586
0.00496802
0.00499492
0.00504426
0.00502725
0.00495703
0.00478379
0.00461638
0.00447219
0.00433556
0.00418955
0.00413643
0.00420424
0.00415476
0.0042195
0.00436854
0.00455252
0.00471023
0.00480855
0.00483811
0.00486628
0.00490928
0.00490384
0.00487778
0.00486439
0.00480626
0.00475624
0.00469449
0.00455648
0.00437794
0.00421809
0.00416257
0.00424366
0.00432836
0.00424963
0.00395687
0.00411273
0.00425711
0.004402
0.00460968
0.00485093
0.00495993
0.00499879
0.00497571
0.00495743
0.00495489
0.00491095
0.00489613
0.00493652
0.00493957
0.00495801
0.00498886
0.00495344
0.0048622
0.00456535
0.00421708
0.00405228
0.00395668
0.00382056
0.00427037
0.00435982
0.0042519
0.0041798
0.00429411
0.00442912
0.00456917
0.00466172
0.00469742
0.00474693
0.00481232
0.00484311
0.00479583
0.0047418
0.00467466
0.00463983
0.00463772
0.00461151
0.00451985
0.00441484
0.00429767
0.00444303
0.00452796
0.00444607
0.00402813
0.00409502
0.00418625
0.00423557
0.00456184
0.004855
0.00492982
0.00493872
0.00491014
0.00489184
0.00489319
0.00486792
0.00482067
0.00481138
0.00480551
0.00485948
0.00493008
0.00496172
0.00497508
0.00475408
0.00436617
0.00431289
0.00414339
0.00405943
0.00450536
0.00455871
0.00445541
0.00435813
0.00456455
0.00465374
0.00468077
0.00466479
0.004618
0.00458637
0.00464437
0.00473556
0.00466546
0.00436421
0.00409553
0.0042333
0.00426573
0.00425317
0.00419416
0.00409776
0.00389166
0.00434436
0.00478563
0.00482187
0.00435098
0.0043581
0.00421024
0.00390744
0.00428293
0.00448935
0.00453862
0.00452842
0.00446413
0.00429784
0.00454216
0.00475636
0.00471627
0.00426809
0.00277
0.0028088
0.00283016
0.0028338
0.00279665
0.00278656
0.00274611
0.00272544
0.00266246
0.00259876
0.00253735
0.00270677
0.00285183
0.00304654
0.0030626
0.00314307
0.00300978
0.00285046
0.00266262
0.00207113
0.00262841
0.00313616
0.00333218
0.00358417
0.00363701
0.00419625
0.00441572
0.00453665
0.00445247
0.00357104
0.00302954
0.00242094
0.00157431
0.000980907
0.00115169
0.00119816
0.00126342
0.00155016
0.00282569
0.00144506
0.00199741
0.0015621
0.00267977
0.00143592
0.00089648
0.000594313
0.000758766
0.00090106
0.000908615
0.000868529
0.000722856
0.000565124
0.00057749
0.000537359
0.000570694
0.000514284
0.000589254
0.000551169
0.000765447
0.00114117
0.00131085
0.0013413
0.00108474
0.00122464
0.00102326
0.00118091
0.00105499
0.00115005
0.00110343
0.00134936
0.00147876
0.00141547
0.00141903
0.0012417
0.000868462
0.00100676
0.000791045
0.00094996
0.000727024
0.000938842
0.000805067
0.00104615
0.00107844
0.00107533
0.00103536
0.000790959
0.000937531
0.00073823
0.000907049
0.000744601
0.000795027
0.000662456
0.000962837
0.000981295
0.000903577
0.000965808
0.00108569
0.00116382
0.00127907
0.00120643
0.00137229
0.00132318
0.00133986
0.00126908
0.00123457
0.00120645
0.001209
0.00118906
0.00119541
0.0012337
0.00123528
0.00123989
0.00127862
0.00125979
0.00122906
0.00121044
0.00107572
0.00086847
0.00151309
0.0015603
0.00158392
0.00158391
0.00154889
0.00153105
0.00147718
0.00146299
0.00141656
0.00138991
0.00132783
0.00127755
0.00121966
0.00137068
0.000767321
0.000871194
0.000919604
0.000947096
0.000965889
0.000974622
0.000981367
0.00097572
0.000963401
0.000939879
0.000932167
0.000906437
0.0011592
0.00131825
0.00137847
0.00139486
0.00130756
0.00124552
0.00272649
0.00330013
0.00501168
0.00512257
0.00384895
0.00383689
0.00132708
0.00140171
0.000957933
0.00134623
0.00138828
0.00137418
0.00129806
0.00093617
0.0014052
0.000979428
0.00131895
0.000991183
0.00122502
0.00101663
0.00145139
0.00185232
0.00179023
0.00162251
0.00111295
0.00092389
0.000926217
0.000788101
0.000862954
0.000705564
0.000863516
0.000727925
0.00107441
0.00151993
0.00169376
0.0017282
0.00136292
0.00188131
0.00141459
0.00204918
0.00162824
0.00200911
0.00161262
0.00186517
0.00230796
0.00231848
0.00226347
0.00182431
0.00146145
0.00164066
0.00145334
0.0016743
0.00241948
0.00158571
0.00240837
0.000994767
0.00135628
0.00139818
0.00137914
0.00130042
0.000875989
0.00222977
0.00117951
0.00209822
0.00135845
0.0021785
0.00158442
0.00210382
0.0025172
0.00263561
0.00262948
0.00214578
0.00193532
0.00200463
0.00159827
0.00191818
0.00142442
0.00206643
0.00117027
0.00151878
0.00167689
0.00176694
0.00177323
0.00145616
0.00287746
0.0018073
0.0027281
0.00189798
0.00243184
0.00194933
0.00213106
0.00251692
0.00250093
0.00247958
0.00210245
0.00170186
0.00224692
0.00160223
0.0479389
0.110584
0.0440697
0.11174
0.0505796
0.0717818
0.0707052
0.0708242
0.07107
0.0533496
0.116409
0.137561
0.143485
0.14527
0.144224
0.233069
0.190099
0.285608
0.185178
0.109031
0.0473306
0.0652207
0.168205
0.277658
0.416554
0.528437
0.360102
0.372672
0.237802
0.234408
0.220642
0.178453
0.109357
0.054844
0.00941674
0.0103001
0.0147281
0.0196038
0.0154232
0.0094389
0.00186817
0.00192751
0.00197068
0.00199767
0.00199099
0.00194938
0.00198158
0.00187305
0.00176206
0.00196906
0.00214572
0.00231826
0.00272338
0.00300786
0.00271001
0.00297091
0.00314933
0.00329436
0.0034136
0.00359116
0.00379124
0.00396771
0.0039776
0.0036453
0.00310706
0.00252877
0.00212716
0.0020158
0.00189324
0.00166964
0.0015277
0.00143139
0.00138425
0.00136453
0.00140198
0.00153184
0.0016441
0.00168337
0.00164985
0.00161945
0.00159293
0.00141831
0.00165815
0.00227446
0.00229286
0.00392812
0.00452614
0.00462001
0.00462619
0.00410233
0.00262098
0.00262656
0.00263999
0.00269005
0.00270049
0.00270686
0.00270386
0.00269367
0.00267784
0.00264817
0.00263355
0.002591
0.00255537
0.00246704
0.00247104
0.0025034
0.00252854
0.00248783
0.00249861
0.00244532
0.0031515
0.00422535
0.00478835
0.00500572
0.00519301
0.00504121
0.00697617
0.00595426
0.00418906
0.00413687
0.00408422
0.00484261
0.00487565
0.00440433
0.00442158
0.00402451
0.00250953
0.00249723
0.00249868
0.00267062
0.00272223
0.00281705
0.00284278
0.00286756
0.0028815
0.00287946
0.00287844
0.0028557
0.00283731
0.00277473
0.00275376
0.00274511
0.00151345
0.00165151
0.00171243
0.00172312
0.00174643
0.00173533
0.00172386
0.00170291
0.00168836
0.00165998
0.00162628
0.00157849
0.00148444
0.00135301
0.00148982
0.00253114
0.00253157
0.00413512
0.00467076
0.00470437
0.00523402
0.00497044
0.00470846
0.00505409
0.0045596
0.00452444
0.00408608
0.00253498
0.0025692
0.00152339
0.00150872
0.0017629
0.00171305
0.00183066
0.00188028
0.00188671
0.0019129
0.00193869
0.00196991
0.00201995
0.00203548
0.00200583
0.00200088
0.00188564
0.00162968
0.00164948
0.0019444
0.00203857
0.00189157
0.00185657
0.0018415
0.00179641
0.00176194
0.00172853
0.001751
0.00188501
0.00188355
0.00185122
0.00176212
0.0017174
0.00149043
0.00144102
0.00251742
0.00254372
0.0041926
0.00431781
0.00428913
0.00493283
0.0054964
0.00625734
0.00533684
0.00433706
0.00450464
0.00514593
0.00381991
0.00316718
0.00188647
0.00142907
0.00175067
0.0016622
0.00173115
0.00179369
0.00159288
0.00170972
0.00158061
0.00143612
0.00142823
0.00142637
0.00146207
0.00147689
0.00150384
0.00150742
0.00154382
0.00154041
0.00154549
0.0015645
0.0015743
0.00173956
0.00189241
0.00159195
0.0013493
0.00131319
0.00123987
0.00117994
0.00120858
0.00117967
0.00117251
0.00115093
0.00113146
0.0010795
0.00112507
0.00119374
0.00139647
0.00133765
0.00108124
0.000966114
0.00066056
0.00067313
0.000677791
0.000698788
0.00070639
0.00071577
0.000719223
0.000730982
0.000733239
0.00073693
0.00073663
0.000754475
0.00075189
0.000743317
0.000737711
0.000741489
0.000745083
0.000744627
0.00109028
0.00121429
0.00132787
0.0015777
0.001858
0.00159891
0.00135449
0.00116647
0.000749783
0.000761171
0.000775208
0.000782395
0.000799222
0.000814465
0.000831607
0.000842442
0.00085069
0.000859287
0.000868332
0.000872106
0.000870118
0.000853525
0.000843729
0.0008653
0.000950946
0.00100069
0.00106439
0.00108846
0.00110925
0.00111971
0.0011142
0.00112568
0.00111227
0.00111031
0.00109111
0.00108281
0.00107488
0.0010649
0.00105267
0.00102259
0.00101259
0.0010654
0.001804
0.00236028
0.00272153
0.00300004
0.00276747
0.00223856
0.00236078
0.0041445
0.00391862
0.00231895
0.00216206
0.0019923
0.0017378
0.00152593
0.00184244
0.00210252
0.00230025
0.00247463
0.00263404
0.00274213
0.00288037
0.00306046
0.00337946
0.00341971
0.00311948
0.0025291
0.00214268
0.00200271
0.00193541
0.0018172
0.00168808
0.00173026
0.00174263
0.00169065
0.00162607
0.0016075
0.00163389
0.00166701
0.00164689
0.00164612
0.00147044
0.00146996
0.00251149
0.0025601
0.00393773
0.00414854
0.00418817
0.0026933
0.00265613
0.00155161
0.00144081
0.00157175
0.00163144
0.00163471
0.00164117
0.00163247
0.00160379
0.00158273
0.00155829
0.00153852
0.00152125
0.00149141
0.00143478
0.00132518
0.00144454
0.00162009
0.00169116
0.00170931
0.00171786
0.0017449
0.00178931
0.00182506
0.00190768
0.00191662
0.00191596
0.00192283
0.00179759
0.00185408
0.00156929
0.00156724
0.00271594
0.00270895
0.00155643
0.00183785
0.00185002
0.00182833
0.00196805
0.00180104
0.00174386
0.00173403
0.00166061
0.00162151
0.00156955
0.00153861
0.00156916
0.00166978
0.00161761
0.00143322
0.00138319
0.00155091
0.00149077
0.00123677
0.00105655
0.00102727
0.000983226
0.000956514
0.00100246
0.00103822
0.00105862
0.00108457
0.00109228
0.00113999
0.00110935
0.00116447
0.00123487
0.00129085
0.00153131
0.0016593
0.00149905
0.00147027
0.00145202
0.00145003
0.00145448
0.0013946
0.00139063
0.00135967
0.00134444
0.00130407
0.00128586
0.00126271
0.00126701
0.00128059
0.00140795
0.00362943
0.00462491
0.00481638
0.00821758
0.00332243
0.00339417
0.00664626
0.00275323
0.00413725
0.00443449
0.00463681
0.00484189
0.00443028
0.00561754
0.00392737
0.00437076
0.00456557
0.00401897
0.00149052
0.00166817
0.00194002
0.00174691
0.00154376
0.00105287
0.00113638
0.00117411
0.00120462
0.00122459
0.00124652
0.00127008
0.00129213
0.00130765
0.00130799
0.00126842
0.00122568
0.00112745
0.00109471
0.00113713
0.00118098
0.00103756
0.000976985
0.000988622
0.00100504
0.00101431
0.00101639
0.00102653
0.00102933
0.00104528
0.00103693
0.00104506
0.00102731
0.00103662
0.00102286
0.000987805
0.000938808
0.000855327
0.00083478
0.00120227
0.00128014
0.00134487
0.00152573
0.00176139
0.00187932
0.00168433
0.00155308
0.0014908
0.00165391
0.00165375
0.00299918
0.00575395
0.00258082
0.0028928
0.00840767
0.00334827
0.0026083
0.00264796
0.00267587
0.0026795
0.00155738
0.00184466
0.00178875
0.00179546
0.00152269
0.00127826
0.00114655
0.0010252
0.000695071
0.000692703
0.000697934
0.000708516
0.000711787
0.000681393
0.000681313
0.000677429
0.000675899
0.000661593
0.000657599
0.000645988
0.000638941
0.000622223
0.000613141
0.000597144
0.000594134
0.000616787
0.00068346
0.000825454
0.000922265
0.0010462
0.00106635
0.00120736
0.0030051
0.00348232
0.00479567
0.00475202
0.00749655
0.00468281
0.00353786
0.00320121
0.00468268
0.00483695
0.00449841
0.00609492
0.00421823
0.00278822
0.00412578
0.00341817
0.00413138
0.00402688
0.00426255
0.00676555
0.0071407
0.00201641
0.00179803
0.00189217
0.00214634
0.00254804
0.00234393
0.00267134
0.00266425
0.00205155
0.00131634
0.0041935
0.00505878
0.00403538
0.00482623
0.00749688
0.00301939
0.00294522
0.00260623
0.00217542
0.00197741
0.00195055
0.00217462
0.00260218
0.00652328
0.00697474
0.00638087
0.00634153
0.0057622
0.00637798
0.00796451
0.00794194
0.0070115
0.00656041
0.00677759
0.00416333
0.00262613
0.00305885
0.00338543
0.00451601
0.00465621
0.00983717
0.00333433
0.00368603
0.00374248
0.00500896
0.00484501
0.00857544
0.00362719
0.003914
0.00515634
0.00688362
0.0127074
0.00462925
0.00488272
0.00702414
0.00712813
0.00651599
0.00470781
0.00426897
0.00465496
0.00350637
0.00342744
0.00292831
0.00432494
0.00582443
0.00459853
0.00446556
0.00380286
0.00337386
0.00346635
0.00359398
0.00298461
0.00294446
0.00340233
0.00251606
0.00243019
0.00258622
0.000716199
0.000367162
0.000375435
0.00038517
0.000393072
0.000401185
0.000407154
0.000414185
0.000417411
0.000417719
0.000418763
0.000442831
0.000438829
0.000424961
0.000385893
0.000440402
0.00069887
0.000699389
0.000439955
0.000387888
0.000695872
0.00110885
0.00130721
0.00154672
0.00156605
0.00135105
0.00117135
0.000720898
0.00070961
0.000430183
0.000502385
0.000545588
0.00048387
0.000539951
0.000500412
0.000530103
0.000535398
0.000495374
0.000492665
0.000494602
0.000490796
0.000482116
0.000471453
0.000458442
0.000448097
0.000442211
0.000437343
0.000427117
0.000356079
0.000331408
0.000397075
0.000631551
0.000630508
0.00059161
0.000558934
0.000531246
0.000518939
0.000515717
0.00051307
0.000522032
0.000538948
0.000543694
0.000548407
0.000590864
0.000572748
0.0006118
0.000574074
0.000613384
0.000575798
0.000529665
0.000444744
0.000458859
0.000740127
0.000747988
0.00120869
0.00138295
0.00156843
0.00157665
0.00175988
0.00185313
0.00156908
0.00162895
0.00186707
0.00173925
0.00155063
0.00155657
0.00140032
0.0014014
0.0012411
0.000775515
0.000764956
0.00048049
0.000466628
0.00055643
0.000546655
0.000608007
0.000650643
0.000650893
0.000648773
0.000632029
0.000626119
0.000550703
0.000539966
0.000540675
0.000524242
0.000520571
0.000542159
0.000590299
0.000691465
0.000835833
0.000910522
0.000943277
0.000905785
0.000811564
0.000597257
0.000540978
0.000936197
0.000973563
0.00173014
0.00409679
0.00188833
0.0036657
0.00264665
0.000660611
0.000737734
0.000940877
0.00105441
0.00113819
0.00118525
0.00108205
0.000902026
0.000679371
0.000561236
0.000840536
0.000726914
0.000822019
0.000718125
0.000929256
0.00107456
0.00103963
0.00104755
0.000885392
0.000721412
0.000764005
0.000686119
0.000756348
0.000633154
0.000761838
0.000687832
0.000864398
0.000872518
0.000854371
0.000809845
0.000616637
0.000646978
0.000542696
0.000588664
0.000528487
0.000546193
0.000517607
0.000603562
0.000695481
0.000667448
0.00066481
0.000546207
0.000427967
0.000472641
0.000408533
0.000462369
0.000359307
0.000435317
0.000365112
0.000472609
0.000487081
0.000489371
0.000485645
0.000394525
0.000463765
0.000569447
0.000598472
0.000603623
0.000575254
0.000443296
0.000686132
0.000619672
0.000756697
0.000654761
0.000716493
0.000652541
0.000760574
0.000974006
0.0010168
0.00102355
0.000830344
0.000825162
0.00150454
0.0833901
0.00135339
0.00159964
0.00164942
0.0016434
0.00135878
0.00132582
0.0016417
0.00121481
0.00171997
0.00108286
0.00183391
0.000699319
0.00106311
0.00114138