/*--------------------------------*- C++ -*----------------------------------*\
| =========                 |                                                 |
| \\      /  F ield         | OpenFOAM: The Open Source CFD Toolbox           |
|  \\    /   O peration     | Version:  v2012                                 |
|   \\  /    A nd           | Website:  www.openfoam.com                      |
|    \\/     M anipulation  |                                                 |
\*---------------------------------------------------------------------------*/
FoamFile
{
    version     2.0;
    format      ascii;
    class       surfaceScalarField;
    location    "645";
    object      phi;
}
// * * * * * * * * * * * * * * * * * * * * * * * * * * * * * * * * * * * * * //

dimensions      [1 0 -1 0 0 0 0];
oriented        oriented;


internalField   nonuniform List<scalar> 
50655
(
0.00257349
-0.00361106
-0.00137728
-0.00511425
0.00127136
0.00366819
-0.00342605
0.00386361
0.0045484
-0.00249894
-0.00278715
0.00297134
-0.00368906
-0.00376141
0.00271984
-0.00180837
-0.00480663
0.000870759
0.000127373
-0.00466184
0.00166158
-0.00187695
-0.00721368
0.00246431
-0.0105083
0.00288782
0.000308026
-0.01133
-0.00349594
0.00420763
-0.0120783
-0.0048639
0.00550981
-0.0129353
-0.00565148
0.00640432
-0.026227
-0.00933841
0.0224362
-0.0487566
-0.0283139
0.0502832
-0.048335
-0.0527761
0.0516574
-0.0310881
-0.071168
0.0531433
-0.00452869
-0.0780425
0.0507
0.00790231
-0.054699
0.0414567
-0.00168666
-0.0314305
0.0402466
-0.020994
-0.0217109
0.0402515
-0.0169165
-0.051293
0.0464931
-0.00706297
-0.055267
0.0448558
-0.0388036
0.0314116
-0.0413042
0.0188231
-0.0166238
-0.0160221
-0.0755384
0.0497614
0.0201389
-0.0798056
0.0431482
0.0306012
-0.0293303
0.0185609
0.0341437
-0.0038798
0.036573
0.0179113
-0.0206632
0.0254467
-0.0180237
0.028874
0.0165069
-0.00950324
0.018274
0.00344746
-0.00132291
0.0142553
-0.0064856
0.00688536
0.00295242
-0.00542738
0.000163565
-0.00126249
-0.00539624
-0.00121415
0.00116462
-0.00631906
0.000211283
0.000694247
-0.00758551
0.000199502
0.00105035
-0.00872181
7.93767e-05
0.00103979
-0.00911556
-0.000261289
0.000638669
-0.00937937
-0.000680103
0.000927325
-0.00894205
-0.00110741
0.000653811
-0.00831325
-0.0015758
0.000930326
-0.0070876
-0.00202442
0.000782328
-0.00565778
-0.00248789
0.0010412
-0.00378635
-0.00278554
0.000897939
-0.00195792
-0.0029726
0.00112721
0.000975588
-0.0029511
0.000736411
-0.00248757
0.0027011
-0.00556283
0.00497756
0.00127991
-0.0111282
0.00471853
0.000790363
-0.0132095
0.00513652
-0.00312229
-0.0130264
0.00536294
-0.00561301
-0.00545163
0.0046437
-0.0122749
0.000500451
0.00560466
-0.0115985
0.000599702
0.00357249
-0.00369738
-0.00150397
0.00208608
-0.00295005
0.00214198
-0.000713028
-0.00450875
0.00219
-0.000647457
-0.00582121
0.00234925
-0.00105317
-0.00708773
0.0023067
-0.00105514
-0.00858902
0.00249843
-0.00101116
-0.010155
0.00258428
-0.00103169
-0.0114504
0.00237641
-0.00109416
-0.0123528
0.00201462
-0.00112523
-0.0128197
0.00160091
-0.00114704
-0.0131365
0.00143451
-0.00113098
-0.0137385
0.0015615
-0.000973682
-0.0139449
0.00111861
-0.000927367
-0.0136507
0.000894121
-0.0012037
-0.0136416
0.000781161
-0.00080592
-0.013368
0.000826322
-0.00111599
-0.0131216
0.000901491
-0.00116383
-0.0129776
0.000844863
-0.00100465
-0.0127024
0.000575457
-0.000866288
-0.0121636
0.00012693
-0.00068117
-0.0112636
-0.000447559
-0.00046772
-0.010144
-0.000906501
-0.000228357
-0.00882749
-0.00100218
-0.000329129
-0.00738
-0.000752749
-0.000708593
-0.00757837
-0.000686271
0.000872642
-0.0163818
0.000830467
0.00794636
-0.0211475
0.0004187
0.00428651
-0.0225869
0.00116266
0.000211472
-0.0425479
0.0163576
0.00348598
-0.0545193
0.00565285
0.00602025
-0.0294403
-0.01623
-0.00915666
-0.0131028
-0.0149162
-0.00155345
-0.0112426
-0.00397344
0.00203527
-0.00998504
-0.00305769
0.00171004
-0.00806703
-0.0034059
0.00138638
-0.00471109
-0.00327269
-0.00017852
-0.0031608
-0.00163559
-0.00441913
0.00457389
-0.00341045
-0.0026335
0.00672355
-0.00862281
0.000963487
0.00619858
-0.00992775
0.00626742
0.00588664
-0.0113354
0.0150678
0.00875705
-0.0177385
0.0285921
0.0137135
-0.0275204
0.024843
0.0196332
-0.0161655
0.0163523
0.0063279
0.00197814
0.0074109
9.25679e-05
0.00870144
-0.00141878
-0.00416643
0.0128612
-0.0045678
-0.0069041
0.00993675
-0.00758522
0.00538428
0.00448468
0.000964786
-0.0102443
0.00229682
-0.00836454
0.00353464
-0.00485725
-0.00447
0.00733186
-0.0123669
0.00206905
0.00540029
-0.0143054
0.00567216
0.00245739
-0.0385724
0.026818
0.0232253
-0.00672449
-0.0133623
0.0369898
-0.00985222
-0.0392116
-0.00486825
0.00925369
-0.00912521
-0.000603409
0.00894923
-0.0074575
0.00262079
0.00956943
-0.00671747
0.00455114
0.00958927
-0.004906
0.00710364
-0.00134511
0.0112462
-0.00493725
-0.00272841
0.0124228
-0.0018748
-0.00246186
0.00881801
-0.00039933
-0.00411295
-0.00203561
-0.0210561
-0.00209898
0.0295375
-0.0106699
-0.0143063
-0.00164283
-0.00712759
-0.00246083
-0.00733994
0.0158611
0.00136195
-0.0102785
0.0219061
0.0011634
-0.00900739
0.032439
0.000393102
-0.0132018
0.08317
-0.00209171
-0.0360075
0.0467685
-0.00197465
0.0455073
-0.00214767
0.00740774
-0.00308995
0.0384332
0.00384732
0.0217695
0.00194917
0.0232265
-0.000321529
0.0113101
0.0139355
0.00621938
-0.00791864
0.000105994
0.00680642
0.00521313
-0.00147606
0.0073176
0.00818275
-0.00152094
0.00711847
-0.0150668
0.00797508
-0.00209152
0.00736612
-0.0153147
0.0084993
-0.00125977
0.00743291
-0.0166973
0.00841212
-0.00129639
0.00741682
-0.0160121
0.00861115
-0.000627474
0.00727921
-0.0165734
0.0086047
-0.000252981
0.00702759
-0.015979
0.00855692
0.000707987
0.00623066
-0.0154369
0.00822665
0.00575949
0.00441887
-0.0169349
0.00745004
0.00149118
-0.00415153
0.00567104
0.00273448
0.000805172
0.00537729
-0.0002794
0.00062385
0.00713501
-0.000733789
0.000776635
0.00801164
-0.00114913
0.000931008
0.00831495
-0.00120309
0.00126758
0.00838363
-0.00131663
0.00149098
0.00855839
-0.00136215
0.00149335
0.00870275
-0.00135198
0.00125672
0.00871381
-0.00137102
0.000930374
0.0088286
-0.00119655
0.00730449
-0.000264365
0.0093513
-0.00199407
-0.000819471
0.0110281
-0.00183931
-0.000855044
0.0123105
-0.00153649
-0.000668294
0.0130954
-0.000302778
-0.000945448
0.0135249
0.000860437
-0.0011787
0.0137021
0.00171625
-0.00133382
0.0137005
0.00224397
-0.00141382
0.0137589
0.00225649
-0.0014299
0.0137132
0.00183199
-0.000976511
0.0137195
0.00135355
-0.000594694
0.0139015
0.00123102
-0.000534482
0.0132906
0.00114687
0.000567348
0.0124406
0.00243318
0.000232466
-0.000268266
0.0126823
-0.000412858
0.00243877
-0.000846351
0.0123444
-0.000237414
0.00280189
-0.00063893
0.0114707
-7.39662e-05
0.00311478
-0.000165655
0.0102076
4.89872e-05
0.000298385
0.00327884
0.00860852
0.000723982
0.00331652
0.000129373
0.00686325
0.00104264
0.0030504
0.000136838
0.0058581
0.000965972
0.00224338
8.75483e-05
0.00441514
0.00462696
-0.000851144
0.00286323
0.00428215
-0.000556446
0.00141961
-0.000507659
0.00407685
0.00389606
-0.000407305
0.00560629
-0.000515854
-0.00121052
0.00683061
-0.000409755
-0.000831409
0.00780328
-0.000607565
-0.000381597
0.00816861
-0.000472729
9.06845e-05
0.00822663
-0.000606171
0.000531681
0.00753898
-0.000258672
0.000929733
0.00656458
-0.000295233
0.00125307
0.00475237
0.000289443
0.00150568
0.00207431
0.00112611
0.00153482
-0.00169389
0.00205729
0.00169296
-0.00445691
0.000578881
0.00216615
-0.00598562
-0.000863215
0.00237267
-0.00727207
0.000626673
0.000637831
-0.0137286
0.000510397
0.0059013
-0.0247952
-0.0065445
0.0174952
-0.030948
-0.0161169
0.0221045
-0.0391189
-0.0260175
0.0339219
-0.0316014
0.0235837
0.0162003
-0.0383991
0.00918471
0.0258753
-0.016679
0.00693547
-0.00457338
0.00437715
-0.0322276
0.0260902
0.00151527
-0.0146862
-0.0233424
0.00576577
-0.0375181
0.00610656
0.0411748
-0.0573497
-0.000821938
0.0289736
-0.0499499
0.015155
0.0125815
-0.00999172
0.0169547
-0.0102817
0.0109245
-0.00250009
0.0189048
0.00790807
0.011272
-0.0125584
0.0135308
0.00526082
-0.00618525
0.00133654
0.0112455
0.00485254
0.00102349
0.00269275
0.00128636
-0.00103181
0.0015542
0.00272766
-0.00488108
0.00382843
0.0020566
-0.0054459
-0.000506664
0.00217664
-0.00957857
0.001978
0.00242364
-0.00822792
-0.00369094
0.00202496
-0.0118797
0.00195296
0.00142029
-0.00891757
-0.00418505
0.000596927
-0.0112532
0.0021495
-0.000306302
-0.00732963
-0.00320831
-0.00134254
-0.00816779
0.0022868
-0.00187856
-0.00441229
-0.00172221
-0.00256839
0.00129446
-0.00256063
0.00396882
0.0117657
-0.010617
0.011445
0.00655456
-0.00943952
0.0129379
0.00889931
-0.00509901
0.00995212
0.0105123
-0.00245977
0.00403805
0.00949773
0.00108236
0.0127182
-0.00238321
-0.00218362
0.000804858
0.0150985
-0.0058295
0.00459523
-0.00330143
0.00208009
0.0150237
-0.00744439
-0.00310229
0.00321558
0.00733255
0.0104196
-0.0078697
-0.00271306
0.00325301
0.0118598
0.00180188
-0.00670933
-0.00202218
0.00111777
0.0161464
-0.000805339
-0.00440363
0.0074621
-0.000399626
-0.00518222
0.0111098
4.42509e-05
-0.0103649
0.0126967
-0.00894852
-0.0142704
-0.0141503
0.0084425
0.0057307
-0.0241622
0.00411269
-0.0185826
0.00623495
-0.0165095
-0.011413
0.0092708
0.00798154
0.00961315
-0.0341508
-0.0237706
0.00755462
0.0112255
0.0075412
-0.010032
-0.0325938
-0.00916999
0.00781651
-0.00162901
3.32265e-05
0.00779831
-0.00658014
-0.0104846
0.0114919
-0.00764169
-0.0141619
0.010539
0.0105337
-0.000817931
-0.00884833
0.0103312
-0.00149526
0.00792956
-0.00780955
0.00395454
0.00103281
0.00455802
-0.00366635
0.00593371
-0.00631296
0.0139783
-0.0121542
-0.00357556
0.0108106
-0.0170487
-0.00261859
0.00570174
-0.0169838
-0.00100863
-0.00116531
0.00201364
-0.00822858
0.00835379
0.00968844
-0.00954288
0.0108169
0.0113363
-0.00498029
0.0114265
0.0119751
-0.00215262
0.0107402
0.00428571
-0.010866
0.0111034
0.00298796
-0.00910094
0.012247
-0.00212045
-0.00492015
0.0118214
-0.0047495
0.00979442
-0.00610556
0.00220202
0.00387338
0.00102773
0.00791182
0.00768495
-0.00166064
0.0109334
0.00886758
0.00027074
0.00765085
0.00644467
-0.00920414
0.0102258
-0.000151682
-0.0071724
0.0037205
0.00302689
0.000159531
0.00160643
-0.00134288
0.00494038
-0.00662833
-0.00154898
-0.00229953
0.0187255
-0.00347414
-0.0194694
0.0168986
-0.00141724
-0.00177256
-0.0162771
-0.0118891
-0.000864559
0.00329929
-0.00868587
-0.0106745
-0.0131033
0.0065145
-0.00594895
-0.0049655
0.000852969
0.00136224
0.000385659
-0.0020941
-0.00424297
-0.000993324
0.00396669
-0.0025893
-0.000419155
0.00179526
-0.00237081
0.00128487
-0.0038003
0.00674305
0.000690794
-0.0111265
0.00065764
-0.00347428
0.0103981
-0.00346378
-0.00446066
-0.0188675
0.0138755
-0.0118324
-0.0193511
-0.0118123
0.00789104
0.00431265
-0.0265611
-0.015437
0.00260827
0.00934977
0.010578
-0.0355377
-0.0165111
0.0130977
0.00185808
0.0104296
-0.0422459
-0.0146669
0.00986589
0.000104402
0.0113014
-0.0436202
-0.0108275
0.0032736
-0.00151174
0.0103355
-0.0431231
-0.00621795
-0.00145593
-0.00182088
0.00888775
-0.0394471
-0.00339976
-0.00446417
0.00409385
-0.0347088
-0.00124517
-0.00707477
0.00649958
-0.00302602
-0.0321476
0.00127007
-0.0060813
0.00562726
-0.00347908
-0.0291007
0.00257097
0.00450337
-0.00395795
-0.00626615
-0.0289072
0.00195882
0.00399785
-0.00351995
-0.00274224
-0.0298096
9.13819e-05
0.00189532
-0.00119142
-0.0277514
-0.00171526
0.00145096
-0.00190749
-0.022925
-0.00275368
0.00159708
-0.00376609
-0.0300901
0.00175664
0.0226075
-0.0172747
-0.0591913
0.0293131
-0.0130477
0.0124587
0.00590062
-0.0198594
-0.00148466
-0.0133001
-0.0251649
-0.00904583
-0.0122424
-0.000535642
-0.00871672
-0.0111382
0.000553622
0.000308362
-0.00941044
-0.000671616
0.00055736
-0.00578754
-0.00383386
0.00148705
-0.00308424
-0.00403635
0.00105614
-0.00454164
-0.00024786
-0.00446161
0.000791067
-0.000918341
-0.0068526
0.00204283
0.000284966
-0.0107922
0.00219511
0.0016649
-0.0131024
0.000805891
0.00142569
-0.0133675
-0.000363132
0.000558473
-0.0130755
-0.00175654
0.00141049
-0.0236465
0.00141573
0.00908056
-0.0568473
0.0174874
0.0155066
-0.101255
0.00876661
0.0350679
-0.11788
-0.00597149
0.0219034
-0.1272
-0.0116996
0.0202448
-0.133592
-0.0165991
0.0221564
-0.137214
-0.0222869
0.0250238
-0.138521
-0.0273431
0.0277399
-0.138435
-0.0308166
0.029806
-0.137622
-0.032962
0.0312241
-0.136166
-0.0342085
0.0318364
-0.134018
-0.0348599
0.031811
-0.130176
-0.0353722
0.0306581
-0.122208
0.0278812
-0.0366832
-0.103083
0.0208635
-0.0407477
-0.0533467
0.00341657
-0.0537713
-0.0225748
-0.00118032
-0.0298106
-0.0123621
-0.0042638
-0.00602611
-0.0120839
0.00199833
-0.00233163
-0.0111847
0.00433991
-0.00530992
-0.00875185
0.0038566
-0.00636989
-0.00423697
0.00402519
-0.00862442
-0.00478017
0.00349394
-0.00302196
-0.00804856
-4.78764e-05
0.00326545
-0.00780934
0.00237484
-0.00268524
-0.00894317
0.00104602
-0.0138141
0.00697206
-0.00219974
-0.0166424
0.00713991
-0.00442155
-0.0189149
0.00763999
-0.00547007
-0.023768
0.00700099
-0.0022526
-0.0532985
0.0187305
0.0106035
-0.0978823
-0.00809673
0.0521069
-0.110865
-0.0316759
0.0439378
-0.11233
-0.0418225
0.0424774
-0.10765
-0.0476633
0.0421603
-0.0988885
-0.0521307
0.0425126
-0.0862251
-0.0543486
0.0408606
-0.0692909
-0.0558479
0.0380937
-0.0495914
-0.0568283
0.0363628
-0.0239265
-0.0481031
0.0218015
-0.0375563
0.0131911
-0.0534223
0.0235435
-0.00814466
-0.0592948
0.0258423
-0.0204726
-0.0593998
0.0271666
-0.0275879
-0.0504228
0.0269315
-0.0364347
-0.0403757
0.0247634
-0.0353133
-0.0231834
0.0167535
-0.0344129
0.00927316
-0.0328952
0.027065
0.0382568
-0.0566853
0.0507991
0.0496517
-0.0741518
0.0746318
0.0497329
-0.0743853
0.0947926
0.0499282
-0.0709135
0.110508
0.0471021
-0.0636739
0.118711
0.0397541
-0.0487799
0.116665
0.0329593
-0.0317232
0.101005
0.0300563
-0.0151163
0.0543714
0.0398051
0.00625467
0.0254115
0.0249983
0.00376522
0.021313
0.00417373
-0.000179921
0.0194065
0.000592551
0.00121134
0.0158337
0.00029845
0.00316446
0.00910782
-0.000249802
0.00687717
-0.00093014
0.00995018
-0.000975433
-0.00969606
0.00964561
0.000707855
-0.0130796
0.0112874
0.00254287
-0.0142064
0.0122482
0.00404017
-0.013538
0.0119051
0.00427654
-0.019122
0.0187077
0.00777598
-0.0285622
0.0247776
0.00376252
0.0235626
-0.0198328
-0.000241914
0.0168502
-0.0130249
-0.000432291
0.00841568
-0.00836096
-0.000593352
0.00773117
-0.00769331
-0.00112375
0.00736072
-0.00693931
0.00630852
-0.00648203
0.00346374
0.00545203
-0.000294942
0.00324727
0.00618511
0.00132003
0.00334066
0.00590867
0.00165138
0.00399518
0.00477945
0.00290347
0.0103379
0.0115678
-0.00116596
0.0193642
-0.00895909
-0.000112723
0.00911674
-0.00418644
0.0143932
-0.0229697
-0.0113905
0.0434071
-0.0155235
-0.00574873
-0.00177602
-0.000976568
0.00356735
0.00486768
-0.00942733
0.00604381
-0.00259993
0.00362817
-0.00178572
-0.00824012
0.000449189
-0.00914575
-0.010248
-0.0126364
0.0183856
-0.00477251
-0.0306843
0.00322062
0.00365366
0.00405456
-0.017515
-0.049568
0.00586462
0.0101071
0.000846433
-0.0580397
-0.0156389
0.0261618
-0.00421149
-0.0203615
0.00615989
-0.00323636
-0.0202475
0.00560191
-0.00226067
-0.0206066
0.00529994
-0.000892903
-0.0189918
0.00443191
-0.0149628
0.00402727
-0.0210855
0.00226077
0.00403557
-0.021897
-0.00133803
0.00262794
-0.0178473
8.6171e-05
0.00544037
0.00164572
-0.0464814
0.0353753
0.00830189
0.00802836
-0.114793
0.0350388
0.0513717
0.0208153
-0.124858
0.0472965
-0.00803025
-0.125702
0.0547946
-0.0218579
-0.117889
0.0645747
-0.0335097
-0.102984
0.0732512
-0.0419369
-0.0839154
0.0770064
-0.0470141
-0.0614501
0.0747994
-0.0483711
-0.0367651
0.0744587
-0.0503059
0.0505832
-0.0329054
0.058983
0.0460242
-0.0302682
0.0685462
0.0519931
-0.0352497
0.0688564
0.0531612
-0.0269299
0.0634088
0.0508945
-0.020212
0.0441344
-0.00585267
-0.0882907
0.0719398
0.00284293
-0.0980894
0.0755736
-0.0157891
-0.0995715
0.080019
-0.0263181
-0.0882821
0.079216
-0.0394546
0.0718633
-0.0405711
0.088092
0.0942945
-0.0366146
0.09767
0.101546
-0.0328377
0.0945357
0.101022
-0.0187976
0.0819605
0.0959973
-0.00873943
0.0903142
0.00689895
-0.0812859
0.10335
0.013034
-0.0945009
0.1104
-0.0021089
-0.0984023
0.115838
-0.0118762
-0.0905446
0.116675
-0.0239479
0.111188
-0.031353
0.0870623
0.123988
-0.027547
0.0946981
0.12804
-0.0199767
0.0912679
0.126229
-0.00793713
0.0783379
0.120177
0.00221674
0.111983
0.0166912
-0.0724581
0.116533
0.0193683
-0.0844022
0.125242
0.00594139
-0.0867458
0.131785
-0.00419171
-0.0788421
0.134148
-0.0149916
0.131071
-0.0222875
0.0682181
0.131754
-0.0150433
0.0761062
0.134502
-0.0092187
0.0750144
0.130939
0.00096004
0.0640784
0.124576
0.010665
0.115337
0.0225852
-0.0525856
0.105631
0.0297611
-0.0646118
0.116136
0.0195236
-0.0641698
0.119685
0.00984838
-0.0562314
0.125081
0.000518905
0.125955
-0.00407844
0.0351606
0.0190928
0.0612436
0.0445573
0.0514261
0.0945223
0.0134183
0.0547211
0.0923012
0.0232142
0.0357358
0.0482209
0.0451375
0.0408239
0.0444642
0.036466
0.0514481
-0.0122954
0.0268121
0.0153649
0.0143663
-0.0187211
0.0276251
0.015065
-0.0152801
0.0310822
0.0134943
-0.0135372
0.028999
0.0141865
-0.0399343
0.0275113
0.0407065
-0.000810481
0.0248118
-0.0283653
-0.0082674
0.0384285
0.00579127
-0.0369629
-0.00679018
0.0299067
0.00546904
-0.0370295
-0.00458667
0.0290267
-0.0364814
0.00508128
0.0258274
0.00346134
0.00380174
0.00514055
0.0049104
0.00714068
0.006793
0.00759738
0.00903106
0.00889253
0.00837138
-0.0041232
-0.019898
0.0156504
0.00266012
-0.000614564
0.000582887
0.00623391
0.00289309
0.000295359
-0.000532367
0.000350741
0.00408205
-0.00154457
-0.00243384
-0.00131881
0.00409921
-0.0016549
-0.000487223
0.00117858
0.010576
0.0120581
0.0315386
-0.0530773
0.00539435
0.0177247
-0.00422027
-0.00726733
0.0567066
0.00122965
-0.0150554
0.00282667
0.00354212
-0.00653745
0.0050392
0.00396505
-0.0061923
-0.0221653
0.0096627
0.0175015
-0.00939856
-0.0124928
-0.000317571
0.0178872
-0.0025619
0.0239052
-0.00787045
0.0461771
-0.0126789
0.021607
0.0764568
-0.024953
-0.0325361
0.00464683
0.00709362
0.0297128
0.00216006
-0.0175189
0.00804297
0.013636
-0.00404389
-0.0106338
0.00847838
0.01493
-0.00403894
-0.0114331
0.00758029
0.0144012
-0.00235483
-0.0112548
0.00612998
0.0127557
-0.0104041
-0.000999932
0.00367024
0.0104982
-0.00877111
0.000645308
0.00869918
-0.00787757
0.0027682
0.00840198
-0.00315533
0.00338181
0.00799986
-0.00279753
0.00314459
0.0151256
-0.00806868
0.00086568
0.0391108
-0.0159405
-0.00826359
0.0725457
-0.0388889
0.00483546
0.0825784
-0.0276595
0.0168674
0.0841082
-0.0235172
0.0211536
0.0815141
-0.0202447
0.0219663
0.0762962
-0.015787
0.0201021
0.0691975
-0.00866149
0.0148418
0.0595884
0.0018728
0.00680834
0.0409377
0.0179441
-0.00022118
0.0132569
0.041919
-0.0151562
-0.00636449
0.055433
-0.0367139
-0.0021529
0.0502343
-0.0553178
0.0121056
0.0392691
-0.0543606
0.0156358
0.0262259
-0.0305144
0.00980458
0.0290077
-0.0237938
0.00225803
0.0114138
-0.00408556
0.000529549
0.00391652
-0.00226501
-0.000270285
0.00182439
-0.00107914
-0.00200196
0.00331023
-0.00164807
0.00318283
-0.00229122
0.0031185
0.00529525
-0.00145239
1.48238e-05
0.00670578
-0.000367303
0.00201157
-0.000193914
0.00653829
-0.000638858
0.00154746
0.00603821
-0.00366515
0.002505
0.00537954
0.00631096
0.00109956
0.0116427
0.0171998
-0.0105042
0.015069
-0.0100576
0.0232263
0.0237944
-0.0293013
0.0432645
0.0143293
-0.0434041
0.0506765
0.0127256
-0.0617482
0.0466941
0.0261306
-0.0779287
0.0298077
0.0273267
-0.0890559
0.00797734
0.0201215
-0.0947371
-0.00845888
0.0150399
-0.0982424
-0.0207944
0.014672
-0.100461
-0.029407
0.0148847
-0.100674
-0.0352016
0.0142327
-0.0973162
-0.0395835
0.0117871
-0.088464
-0.0439913
0.0065714
-0.031806
-0.0405036
-0.0448183
-0.0112082
-0.0183771
-0.0104284
-0.0191128
0.00263055
-0.0153355
-0.00711324
0.00132793
-0.0057324
0.000265389
-0.00940894
0.000857271
-0.00381245
0.00166992
-0.00750158
0.0010049
-0.00882857
0.0157946
-0.000172524
-0.00797555
0.0158102
-0.0018335
-0.00617144
0.0139097
-0.0021593
-0.00212826
0.0197797
0.00574875
0.0205382
0.106844
-0.0447453
-0.00943478
0.0040257
0.0306776
0.00550942
0.00763303
0.0104967
-0.000246369
0.00844117
0.0142544
0.000668954
0.0151064
0.00192602
-0.0162684
-0.0197018
-0.0126774
0.0307397
-0.0202084
0.0462146
-0.0178219
-0.0512291
0.106728
-0.0244699
-0.0523006
0.121673
-0.0149224
-0.104262
-0.044567
0.125507
-0.0301428
-0.0751235
-0.0286729
-0.0175238
-0.0288142
-0.014393
-0.00299424
-0.0402386
0.0169941
-0.00217719
-0.0241182
-0.00527818
0.0279075
-0.00549262
-0.00857448
0.0163236
-0.00789082
-0.00933924
0.0143905
-0.00620879
-0.00948732
-0.0118159
-0.00277003
0.0500878
-0.0212155
-0.0125564
-0.00613584
0.000615399
-0.0119002
-0.00852501
-0.000103531
-0.00873147
-0.0071941
-0.00155957
-0.00495718
-0.00447505
-0.00157612
1.53627e-05
-0.000775976
-0.00381655
-0.000446289
-0.00983849
2.16258e-05
0.000443187
0.00126962
-0.00171941
0.00136742
-0.00209788
0.00336111
0.00174698
-0.00266644
0.00436392
0.00205647
-0.00199001
0.00370483
0.00175069
0.0026621
0.000705881
0.00453055
0.00262404
-0.00106747
0.00473908
0.00382657
-0.000406031
0.00459878
0.00490776
-0.000484587
0.00482424
-0.000754356
-0.00641788
0.0108588
-0.00420214
-0.00623526
0.0108819
-0.00626845
-0.00535757
0.0100376
-0.0071942
0.00899896
-0.00779852
0.00658732
0.0118546
-0.00567368
0.00802343
0.0135783
-0.00507553
0.00822126
0.0150978
-0.00452027
0.0149052
-0.00312584
-0.00922694
0.016843
-0.00133623
-0.00933891
0.0178481
-0.00274441
-0.00966913
0.0177451
-0.00394099
0.0104643
-0.00401544
0.0128595
-0.000418665
0.0102419
-0.0016751
0.00751478
0.0232623
-0.00290339
0.00737832
0.0182834
-0.000388942
0.0172782
0.000728613
-0.00888465
0.0484313
-0.0251707
-0.0052207
0.0420896
-0.0276148
0.0449516
-0.0282621
0.0294872
0.117533
-0.0575462
0.127357
-0.0450254
0.0508898
0.134785
-0.0387571
-0.0206065
0.0555346
0.134677
-0.0149305
0.0521322
0.129905
-0.00594566
0.115089
-0.0012662
-0.0503035
0.119539
0.00524988
-0.0560418
0.134877
-0.000316323
-0.0535682
0.140604
-0.00948347
-0.0448972
-0.0146409
0.139735
-0.128077
-0.0233424
0.133482
-0.0293459
-0.0128563
-0.0511984
-0.114245
0.0286568
0.119234
-0.105953
-0.066851
0.118283
-0.0383436
-0.0495043
-0.0681374
-0.0047254
0.0138829
-0.0135378
-0.0193165
-0.0195262
-0.00996196
-0.00601808
-0.0131121
-0.00289935
-0.0139977
-0.00407854
0.00257802
-0.0143713
-0.00819641
0.00317973
-0.0127341
-0.0106307
0.00253693
-0.0097932
-0.0145219
0.00286623
-0.0107598
0.00114766
-0.0137576
0.0160401
-0.0137547
0.000616218
-0.00950553
-6.53209e-05
-0.0153661
0.0144629
-0.00157647
-0.0167628
0.0116442
-0.00271184
-0.0180423
0.00965503
-0.00145862
0.0149444
-0.0254683
0.0110883
0.0251959
0.0187257
0.0207324
-0.049846
0.0188425
0.0161761
0.0178353
-0.0277896
0.030547
0.0160594
0.0191799
-0.0470795
0.0213515
0.0134362
-0.0227748
0.0184057
0.0392669
-0.0422352
0.00893993
0.0152792
0.0201077
0.0463007
-0.0100986
-0.0171443
0.0254024
0.0300578
-0.0202186
-0.0152622
-0.0172057
-0.0205707
0.00992756
-0.018236
0.00381369
-0.0127934
-0.0179198
0.00437065
-0.017212
-0.0123098
0.00330817
-0.0161036
-0.0141239
0.00228623
-0.0167949
0.00210264
-0.017645
-0.0170731
0.0174325
0.000374145
-0.0162838
-0.000771071
-0.018386
0.0156245
-0.00199034
0.0129975
-0.0030927
0.0175636
0.0143155
-0.00279253
0.0174145
-0.00140824
0.016497
0.0182225
-0.017043
-0.000367283
0.018366
0.00133252
-0.0151367
0.00285651
-0.0154969
0.00100564
0.0174808
-0.0153963
-0.00120609
0.0144653
-0.00214946
-0.00752258
-0.0160073
0.0235682
0.0168721
-0.00150227
-0.0143625
-0.0171185
-0.0261769
-0.0242431
-0.00254362
-0.105238
0.103697
0.00754291
0.00121479
0.0182397
0.0127147
0.0239113
0.0146967
-0.0202447
0.0176582
-0.0084564
0.0179694
-0.0122377
-0.0047705
0.00236113
-0.000510842
-0.00555066
0.00484812
-0.00582164
-0.00170688
-0.00210769
-0.00217575
-0.00379022
0.0131625
-0.000990166
-0.00316265
-0.00140217
-0.00338219
0.0163733
-0.020066
-0.0115597
0.0154697
0.00687902
-0.0115995
0.0175851
0.00910485
-0.013259
0.0201906
0.008924
-0.0141918
0.022933
0.00890547
0.0301382
0.0119802
0.00987202
0.0134603
0.0124803
0.00947025
0.0132542
0.0099013
0.00784114
0.0119084
0.00974051
0.00607073
0.0107991
0.00840239
0.010003
0.00699094
-0.00219371
0.00341821
-0.00260385
0.00415733
-0.00326654
0.00475315
-0.00390096
0.005395
0.00650368
0.00166248
0.00289906
0.00142093
0.000511381
0.000410201
0.0013921
-0.000142277
0.00198291
-0.00154903
-2.66349e-05
-0.000929105
0.00194317
0.000965405
-0.000332976
0.000793169
-0.000436224
0.00182516
-0.0011138
0.00121329
-0.000538824
0.000311376
-6.71296e-06
0.0020209
-0.00173935
2.65267e-05
0.00379296
-0.000563178
-0.00358731
0.0111347
-0.00637574
0.0035671
-0.0179974
0.00336154
0.017035
0.00387689
-0.0181113
0.0204066
0.00713806
0.00292927
0.00676437
-0.0170585
0.0208247
0.00028444
0.0059646
0.0197741
-0.0148381
-0.013631
0.0141759
0.00504082
0.0109714
-0.00738585
0.0172058
-0.00765376
0.0172608
0.0109157
-0.000399703
0.0199631
0.00717527
0.0033435
-0.00114771
0.0015292
-0.00351139
0.000377391
-0.00229126
0.0125868
0.00135504
-0.00233561
0.000800451
0.000617723
-0.000777227
0.00151271
-0.000567967
0.00156138
-0.000391336
-0.00124557
0.00106766
-0.00206952
0.000899473
-0.000211304
-0.000226731
-0.00163297
-0.000457332
-0.00209158
0.000247193
-0.00185422
0.00139882
-0.00137976
0.000392704
0.000112267
-0.00188599
0.000170243
-0.00141193
-0.000662141
-0.00126114
-0.00240595
0.0011489
0.00124421
0.000231893
0.000479495
-0.00129294
0.000448134
-0.00168421
-0.000480223
0.000534604
0.000392237
0.000108711
7.09699e-05
-0.000661256
0.00104469
0.000306504
0.000316123
-0.000887792
-0.0016128
0.00281331
-0.000775582
0.000277376
0.000178048
-0.000885068
-0.00113119
0.00380146
0.00137856
-0.000358674
-0.00302042
0.0122612
-0.00264142
-0.00129163
-0.00174712
1.42657e-05
-0.000829514
0.000262934
-0.000727989
0.000328462
-3.92243e-05
-0.00112112
-4.3214e-05
0.00188046
-0.000306609
-0.00162039
-0.00132033
0.00321073
-0.000893333
-0.000167201
-0.00124171
0.0011185
0.00204035
0.000342356
0.000323624
0.000920017
-0.000127714
0.00191292
-0.00142274
-0.000169909
-0.00136895
0.00318942
8.80849e-05
-0.00065468
0.000202565
0.00285732
-0.00405064
0.0132915
-0.00114212
-0.0180385
0.000760589
0.00704746
0.0245217
-0.0164853
0.0218796
0.0064089
-0.0177678
0.0225657
-0.00209278
-0.014879
-0.00438905
-0.0206804
-0.0218514
-0.00631383
-0.0218838
-0.00573388
0.01515
-0.00261991
0.0197791
0.0317701
0.0374349
-0.0235847
-0.101045
0.0665342
-0.0967301
0.0700356
-0.107797
0.071261
-0.017101
-0.110041
0.0686961
-0.0248503
-0.106594
0.0674706
-0.0296478
-0.0981364
0.0663327
-0.0331791
-0.086075
0.0636948
-0.0357898
-0.0687058
0.0577811
-0.0379403
-0.0489984
0.053437
-0.0376818
-0.0389316
0.0427815
-0.0317941
0.00372814
-0.0298799
0.0160446
0.0325151
-0.045499
0.014059
0.0444517
-0.0431336
-0.00724289
0.0474812
-0.0265907
-0.0343354
0.0266538
-0.0510758
-0.012864
0.0291372
-0.0597002
-0.0245307
0.0326524
-0.0619853
-0.0311028
0.0328616
-0.0555526
-0.0383638
0.0314049
-0.0475043
-0.035464
0.0269129
-0.0301105
-0.0337162
0.0158553
0.00339919
-0.0339484
0.0203249
0.04437
-0.0619325
0.0429786
0.0554655
-0.0788853
0.0682079
0.0547628
-0.080812
0.0882656
0.0522975
-0.0731797
0.0995244
0.0476863
-0.0598018
0.100643
0.0399434
-0.0418844
0.0954937
0.0339825
-0.0296435
0.0838354
0.030575
-0.019637
0.0472615
0.0376679
-0.00166747
0.0227246
0.0229662
0.00137432
0.0194995
0.00390486
-0.000784503
0.0181102
0.00048376
0.000802749
0.0149777
0.000138967
0.0028832
0.0087006
1.70511e-05
0.0061611
0.00914284
-0.000529864
0.007249
0.0033937
-0.00157049
0.00463835
0.00388673
-0.00132318
0.00484116
0.00166382
-0.00192944
0.00582731
0.00185547
-0.00292047
0.00556677
0.0030388
-0.00285606
0.00446096
0.00332837
-0.00229212
0.0035113
0.00270945
-0.0018144
0.00575816
0.0016737
-0.00399757
0.0126595
0.00159698
-0.00871684
-0.0127267
0.0305224
-0.0057541
-0.0435454
0.0258127
0.00424698
-0.0586372
0.0115102
0.00274773
-0.0650901
-0.000874202
0.00645422
-0.0701481
-0.0157568
0.0199105
-0.0753269
-0.0309039
0.0351607
-0.0764678
-0.0456191
0.045823
-0.0735474
-0.0590227
0.0551573
-0.0632116
-0.0711908
0.0599031
-0.0452218
-0.0810604
0.0621134
-0.0174194
-0.0876974
0.0589318
0.0167934
-0.0839191
0.0487456
0.0322768
-0.0584994
0.0420548
0.0312482
-0.0449625
0.0450688
0.0235878
-0.0353546
0.0421116
0.00958343
-0.0262797
0.039457
-0.000769441
-0.023253
0.0328041
-0.0348306
0.033312
-0.0503318
-0.0194125
0.0341159
-0.0575084
-0.0341896
0.0405555
-0.0579149
-0.0490431
0.0485751
-0.0494015
-0.0641094
0.0547209
-0.025449
-0.0817426
0.0568915
0.0047092
-0.0832342
0.0522001
0.00997635
-0.0471913
0.0410588
-0.00772869
-0.0264253
0.0433205
-0.0210497
-0.0282997
0.0408349
-0.00476009
-0.0604406
0.0434128
-0.0522859
0.0430768
-0.0149821
-0.0689977
0.00166147
0.0185823
-0.0547833
-0.0401065
0.0286021
-0.0392229
2.78996e-05
0.0321453
-0.0476845
0.0168219
0.0304506
-0.0775742
0.0311534
0.0411116
-0.126561
0.0317271
0.0545067
-0.123405
0.0273216
0.0571462
-0.096146
0.028466
0.052173
-0.0726245
0.027649
0.0415919
-0.0516269
0.0271585
-0.030012
0.0281158
-0.036769
-0.0474334
0.0270398
-0.0388277
-0.0571363
0.0229112
-0.0333404
-0.0682972
0.0168771
-0.00510741
-0.0843721
-0.00335825
0.0354298
-0.119577
-0.00588534
0.0613375
-0.125328
0.0107171
0.0765415
-0.118661
0.0213954
0.0838633
-0.104449
0.0249409
0.0831959
-0.0863054
0.0269603
0.0790763
-0.0660109
0.0235291
0.0711725
-0.0447365
0.0207647
0.0637555
-0.0232347
0.0139368
0.0557922
-0.00170578
0.00785347
0.0416654
0.0160132
0.00869726
0.0161135
0.0361624
0.0142861
-0.00989908
-0.00108246
0.0475529
0.00907889
0.00820112
-0.0036841
-0.00877812
-0.00579184
0.0146847
-0.00327742
-0.00442513
0.0104007
-0.0028418
0.00886046
-0.00186283
0.0132023
-0.00123461
-0.00242914
0.000760791
-0.00672456
0.0270873
0.00176073
-0.00902178
-0.00776688
-0.00168029
0.00143837
-0.00799596
-0.00399552
0.00130766
-0.00670768
-0.0051324
0.000484363
-0.00497224
-0.0057554
0.000254433
0.00233668
-0.00408867
-0.000565037
0.00508318
-0.00109609
-0.00215019
-0.000310877
-0.000483814
-0.00135943
-0.000754398
-0.000654609
-0.000564482
-0.000593367
0.000400885
-0.00114208
-0.00344864
0.0131643
-0.00546565
-0.0119335
0.00297996
0.0222417
-0.00791725
-0.0100485
0.0596997
-0.0309881
-0.0295254
0.016319
0.0551512
-0.0215042
0.029392
0.0347937
-0.014363
0.0365469
-0.00498412
-0.00469376
0.0499882
-0.0367411