/*--------------------------------*- C++ -*----------------------------------*\
| =========                 |                                                 |
| \\      /  F ield         | OpenFOAM: The Open Source CFD Toolbox           |
|  \\    /   O peration     | Version:  v2012                                 |
|   \\  /    A nd           | Website:  www.openfoam.com                      |
|    \\/     M anipulation  |                                                 |
\*---------------------------------------------------------------------------*/
FoamFile
{
    version     2.0;
    format      ascii;
    class       volVectorField;
    location    "645";
    object      U;
}
// * * * * * * * * * * * * * * * * * * * * * * * * * * * * * * * * * * * * * //

dimensions      [0 1 -1 0 0 0 0];


internalField   nonuniform List<vector> 
18258
(
(-0.176276 0.112545 0.139455)
(-0.0517413 0.244546 0.159751)
(-0.104996 0.21143 0.0964207)
(-0.0414755 0.0679285 0.0849324)
(-0.226584 0.199673 0.0198124)
(-0.160203 0.357304 0.0182089)
(-0.223766 0.0438243 0.0550904)
(-0.342384 -0.0543989 0.0761165)
(-0.449917 -0.106594 0.108694)
(-0.537004 -0.16024 0.146075)
(-0.622545 -0.217657 0.180193)
(-0.688629 -0.272026 0.309901)
(-0.679154 -0.334703 0.357449)
(-0.62252 -0.445845 0.385944)
(-0.487928 -0.543181 0.369284)
(-0.204411 -0.58715 0.339972)
(0.0744975 -0.37379 0.287981)
(0.0796507 -0.164838 0.298356)
(-0.126003 -0.0782617 0.23624)
(-0.395225 -0.273958 0.115819)
(-0.13559 -0.524472 0.289747)
(-0.191838 -0.363555 0.406277)
(-0.295237 -0.73497 0.299659)
(-0.353902 -0.775688 0.262323)
(-0.130531 -0.708834 0.136631)
(0.00688382 -0.64604 0.185228)
(-0.0147541 -0.339055 0.422249)
(0.176334 -0.11262 0.803111)
(0.300731 -0.0952048 0.889448)
(0.318079 0.0578928 0.906791)
(0.320633 0.188414 0.805788)
(0.16403 0.302222 0.0718941)
(0.0837164 0.121953 -0.437157)
(0.0194207 0.0725949 -0.732486)
(-0.0613067 0.0733424 -0.904097)
(-0.0520814 0.0708488 -1.08505)
(-0.0662516 0.0705464 -1.22702)
(-0.0941098 0.0890017 -1.32308)
(-0.134302 0.079877 -1.37137)
(-0.180697 0.0856659 -1.35726)
(-0.229768 0.0717732 -1.27281)
(-0.275599 0.0805492 -1.11854)
(-0.313575 0.0751408 -0.907273)
(-0.344009 0.0754738 -0.651774)
(-0.354246 0.0773544 -0.357238)
(-0.338924 0.0734865 -0.157678)
(-0.165892 0.154463 -0.200775)
(0.33697 -0.0882079 -0.140174)
(0.599798 -0.128117 -0.16142)
(0.658817 -0.110336 -0.169441)
(0.775532 -0.135646 -0.177719)
(0.806271 -0.134462 -0.194613)
(0.504745 -0.00829942 -0.25769)
(0.259285 -0.138238 -0.218634)
(0.113437 -0.0429817 -0.158898)
(0.281651 -0.0103112 -0.169171)
(0.536155 -0.00292709 -0.173815)
(0.790162 -0.0302767 -0.178085)
(1.09042 -0.0348361 -0.175852)
(1.42606 -0.0489435 -0.185302)
(1.7606 -0.0646651 -0.183682)
(2.04475 -0.0812385 -0.166784)
(2.24545 -0.0929335 -0.138352)
(2.34568 -0.099063 -0.102752)
(2.35244 -0.0963914 -0.0681917)
(2.29217 -0.0887149 -0.041579)
(2.1987 -0.0822073 -0.0249824)
(2.10635 -0.0760881 -0.0182907)
(2.03704 -0.0673051 -0.0193448)
(1.9915 -0.064494 -0.0240326)
(1.96724 -0.0593697 -0.0264822)
(1.95674 -0.050492 -0.0209716)
(1.94251 -0.0400132 -0.00400087)
(1.89909 -0.0252212 0.0235416)
(1.8116 -0.00820234 0.0531088)
(1.69084 0.00913507 0.0763422)
(1.57011 0.0212996 0.079169)
(1.47741 0.0302363 0.0745353)
(1.39935 0.0372248 0.0699074)
(1.33732 0.0498089 0.062564)
(1.28654 0.0564615 0.064253)
(1.19291 0.0436839 0.0776076)
(1.09569 0.0184054 0.108867)
(1.0126 0.000101339 0.126163)
(0.905125 -0.0214945 0.118965)
(0.761183 0.0163302 0.1444)
(0.640535 0.0814406 0.132199)
(0.516882 0.100447 0.132895)
(0.379885 0.117781 0.117244)
(0.223653 0.126447 0.095024)
(0.119788 0.189631 0.0907085)
(0.121276 0.011076 0.196248)
(0.163938 -0.100722 0.141928)
(0.112862 -0.129894 0.0373896)
(0.104295 -0.114955 -0.144918)
(0.215983 -0.209965 -0.374085)
(0.262153 -0.23098 -0.55938)
(0.203654 -0.137356 -0.730814)
(0.104977 -0.0789444 -0.711396)
(0.0362546 0.061598 -0.484256)
(-0.0976818 0.235353 -0.135665)
(-0.218633 0.190851 0.183903)
(-0.234763 0.0639644 0.159118)
(-0.340854 0.0135301 0.173085)
(-0.276208 0.134785 0.182637)
(-0.250732 0.284202 -0.0336557)
(-0.106691 0.166945 -0.39847)
(0.0619376 0.00665179 -0.581806)
(0.331967 -0.0928283 -0.633303)
(0.494158 -0.229139 -0.49271)
(0.350804 -0.210699 -0.283521)
(0.271327 -0.192088 -0.103558)
(0.282553 -0.186889 0.0368578)
(0.280243 -0.140117 0.158351)
(0.224412 -0.0989137 0.190195)
(0.395487 -0.0814788 0.179102)
(0.534509 -0.0635059 0.174624)
(0.586987 -0.0522964 0.16289)
(0.698773 -0.0789539 0.158842)
(0.731262 -0.133903 0.13019)
(0.599969 -0.134394 0.133047)
(0.453688 -0.151873 0.13761)
(0.460805 -0.186102 0.0326579)
(0.609955 -0.16296 0.0485935)
(0.735234 -0.162116 0.0460624)
(0.903638 -0.141806 0.0786023)
(1.08736 -0.109895 0.108294)
(1.18883 -0.077757 0.145925)
(1.20774 -0.0108914 0.138)
(1.24493 -0.00928825 0.118744)
(1.33512 -0.00713329 0.138237)
(1.377 -0.00195438 0.128368)
(1.36869 -0.0126593 0.156913)
(1.32809 -0.0482331 0.1918)
(1.32245 -0.0511457 0.188719)
(1.28543 -0.0620029 0.149701)
(1.27869 -0.0601411 0.132762)
(1.25751 -0.0475491 0.106637)
(1.24892 -0.0455424 0.108726)
(1.20084 0.00503143 0.107698)
(1.19382 0.0285924 0.13655)
(1.07578 0.137886 0.270754)
(1.22562 0.053454 0.253393)
(1.21721 0.0205899 0.157372)
(1.26598 -0.0206329 0.126578)
(1.27821 -0.0248248 0.117232)
(1.28887 -0.0381525 0.141959)
(1.30776 -0.0414911 0.181325)
(1.35019 -0.0367251 0.21532)
(1.38597 -0.0367324 0.220259)
(1.42287 -0.0129083 0.181661)
(1.43614 -0.00212209 0.13673)
(1.51235 -0.00670692 0.14985)
(1.61035 -0.0168767 0.157997)
(1.7495 -0.0317671 0.142463)
(1.88149 -0.0543313 0.0480316)
(1.96282 -0.0757893 -0.0720532)
(1.98209 -0.0906328 -0.165049)
(1.96456 -0.0966353 -0.201242)
(1.94815 -0.0969577 -0.195148)
(1.95819 -0.0913242 -0.175329)
(2.00504 -0.0827656 -0.144892)
(2.08632 -0.0703139 -0.108274)
(2.19734 -0.0600905 -0.084391)
(2.3114 -0.0597734 -0.1132)
(2.38824 -0.0608641 -0.173519)
(2.39087 -0.0584666 -0.27737)
(2.2849 -0.0502153 -0.392554)
(2.06941 -0.0425518 -0.483915)
(1.76901 -0.036756 -0.540375)
(1.42521 -0.0316123 -0.549181)
(1.07927 -0.0193562 -0.528035)
(0.790963 -0.0245052 -0.459662)
(0.535582 -0.0160827 -0.415694)
(0.282234 -0.0217668 -0.386945)
(0.109037 -0.0406782 -0.36069)
(0.102148 -0.042478 -0.637257)
(0.0773012 -0.0375224 -0.873335)
(0.0506499 -0.0394083 -1.0579)
(0.011815 -0.0406375 -1.17667)
(-0.0232689 -0.0283103 -1.21666)
(-0.059869 -0.0158503 -1.16944)
(-0.0936014 0.00299058 -1.0409)
(-0.119005 0.0260752 -0.825474)
(-0.121384 0.0810299 -0.563428)
(-0.145616 0.133275 -0.0540796)
(-0.191566 0.0278038 0.564176)
(-0.207648 -0.0326763 0.751491)
(-0.226247 -0.00170163 0.92111)
(-0.231539 -0.0442067 1.06439)
(-0.317358 -0.103206 1.12718)
(-0.37091 -0.109198 1.14073)
(-0.369231 -0.231365 1.00256)
(-0.296315 -0.250053 0.770326)
(-0.459149 -0.665453 0.687466)
(-0.486421 -0.542484 0.705212)
(-0.414357 -0.410458 0.831864)
(-0.5509 -0.76499 0.854931)
(-0.686501 -0.831192 0.603243)
(-0.47675 -0.753771 0.799192)
(-0.437476 -0.57497 0.740629)
(-0.785845 -0.525292 0.747076)
(-0.904577 -0.40839 0.856745)
(-0.531846 -0.705678 0.819975)
(-0.441092 -0.576843 0.660853)
(-0.32029 -0.316391 0.400722)
(-0.298785 -0.177175 0.394658)
(-0.281861 -0.141483 0.346933)
(-0.232505 0.11772 0.108437)
(-0.162455 0.294136 -0.420672)
(-0.15272 0.182772 -0.639605)
(-0.132188 0.0269593 -0.915342)
(-0.0869786 -0.0578865 -1.08657)
(-0.0289685 -0.0699696 -1.23444)
(0.0379397 -0.102535 -1.26909)
(0.0975308 -0.0989999 -1.23407)
(0.171903 -0.10981 -1.12017)
(0.215865 -0.123806 -0.920276)
(0.260081 -0.147161 -0.705757)
(0.249092 -0.139621 -0.39874)
(0.41734 -0.052643 -0.637708)
(0.766993 -0.119234 -0.458375)
(0.719414 -0.109162 -0.414816)
(0.61684 -0.0730991 -0.40895)
(0.538363 -0.103873 -0.418634)
(0.104833 -0.102045 -0.534222)
(0.159334 -0.115626 -0.927001)
(0.245589 -0.223463 -1.07937)
(0.335692 -0.282324 -0.96572)
(0.390815 -0.352637 -0.531942)
(0.200278 0.0165414 0.149594)
(0.261794 0.116104 0.169381)
(0.429889 -0.322604 0.335422)
(0.516378 -0.529174 0.504908)
(0.545558 -0.523524 0.553257)
(0.413103 -0.235791 0.676515)
(0.471943 -0.33828 0.566678)
(0.486901 -0.610183 0.550452)
(0.703382 -0.673294 0.320966)
(0.74563 -0.488379 0.458448)
(0.797487 -0.345535 0.601808)
(0.233455 -0.224861 0.576166)
(-0.24007 -0.268046 0.825185)
(-0.176866 -0.191581 0.675678)
(-0.674757 -0.298708 0.817077)
(-0.472527 -0.179751 0.690663)
(-0.322145 -0.00209994 0.537644)
(-0.21864 0.175304 -0.294781)
(-0.192921 -0.0466151 -0.617744)
(-0.0570008 -0.170213 -1.10068)
(0.103729 -0.159466 -1.24999)
(0.274585 -0.0892003 -1.11827)
(0.432255 -0.108229 -0.701959)
(0.499748 -0.0742931 -0.627415)
(0.491697 -0.0421427 -0.618486)
(0.534159 -0.0862808 -0.646648)
(0.583469 -0.119654 -0.739687)
(0.395535 -0.0417576 -0.688664)
(0.356068 -0.079347 -0.668068)
(0.132737 -0.11391 -0.674598)
(-0.109222 -0.0499518 -0.585918)
(0.291356 0.000735882 -0.596778)
(0.348912 0.01195 -0.618183)
(0.634054 -0.0993967 -0.654435)
(0.577171 -0.0984762 -0.399055)
(0.270888 0.0691569 -0.379079)
(0.280969 0.0513255 -0.273255)
(-0.304602 -0.0436067 0.0948902)
(-0.30675 0.14104 -0.0153239)
(-0.281407 -0.0265359 -0.452609)
(0.0866576 -0.201201 -0.580447)
(0.358399 -0.279754 -0.572059)
(0.720431 -0.345903 -0.408114)
(0.806348 -0.419333 -0.379084)
(0.767133 -0.291925 -0.296255)
(0.808581 -0.366051 -0.220226)
(0.823573 -0.487573 -0.285395)
(0.73494 -0.431648 -0.280528)
(0.712364 -0.304936 -0.333816)
(0.740986 -0.252088 -0.343362)
(0.78661 -0.311724 -0.213155)
(0.798632 -0.367285 -0.161626)
(0.888029 -0.466267 -0.157336)
(1.15515 -0.632559 -0.118365)
(1.61426 -0.727635 -0.0993036)
(1.99177 -0.673116 -0.0385857)
(2.14874 -0.491139 0.0469075)
(2.06936 -0.292237 0.0948702)
(1.90446 -0.164301 0.10245)
(1.80697 -0.0960748 0.0990439)
(1.71012 -0.00129827 0.0985999)
(1.57247 0.0867933 0.090742)
(1.43498 0.104832 0.0477218)
(1.3304 0.0549879 0.0269367)
(1.24051 -0.00706331 0.0211493)
(1.13865 -0.0564861 0.0227761)
(1.05474 -0.0809192 0.0209021)
(0.996837 -0.064203 0.0163427)
(0.820373 -0.11171 -0.0244682)
(0.715744 0.000670576 0.00890264)
(0.632513 0.0665606 0.00817677)
(0.496982 0.0209233 0.00582837)
(0.35896 -0.0624787 -0.0136686)
(0.138824 -0.147796 -0.0325888)
(0.22534 -0.308871 0.00138352)
(0.353108 -0.0821959 0.0119459)
(-0.00271008 -0.230639 -0.00927408)
(0.0427674 -0.546377 -0.0505994)
(0.0117655 -0.712904 -0.0527447)
(-0.00827728 -0.876781 -0.0533645)
(-0.026236 -1.00679 -0.0651134)
(-0.036287 -1.10266 -0.0960891)
(-0.0468827 -1.15696 -0.105407)
(-0.0584625 -1.21415 -0.118533)
(-0.0887034 -1.27576 -0.134516)
(-0.113789 -1.32035 -0.149825)
(-0.137749 -1.3539 -0.162735)
(-0.159758 -1.3754 -0.17378)
(-0.178753 -1.38662 -0.183426)
(-0.194133 -1.38821 -0.190118)
(-0.206266 -1.3811 -0.193958)
(-0.216312 -1.3664 -0.194075)
(-0.224916 -1.3445 -0.192165)
(-0.233247 -1.31402 -0.18673)
(-0.240951 -1.27309 -0.178388)
(-0.246422 -1.21881 -0.165342)
(-0.244304 -1.14967 -0.147584)
(-0.191269 -1.07025 -0.127196)
(-0.141427 -0.967749 -0.112891)
(-0.166053 -0.867413 -0.0797657)
(-0.190115 -0.753652 -0.082191)
(-0.205365 -0.542318 -0.0857915)
(-0.274359 -0.449555 -0.0922821)
(0.021889 0.0539148 -0.116544)
(-0.350931 -0.307831 0.0248638)
(-0.231935 -0.616893 -0.0549591)
(-0.270748 -0.0990881 -0.0114193)
(-0.458427 -0.18223 0.0644007)
(-0.67907 -0.198512 0.0822165)
(-0.842411 -0.209146 0.114072)
(-0.953729 -0.223043 0.144213)
(-1.03427 -0.232464 0.20379)
(-1.1174 -0.244275 0.245327)
(-1.18646 -0.244234 0.302035)
(-1.20014 -0.248539 0.336283)
(-1.17329 -0.250379 0.366176)
(-1.10661 -0.249173 0.394457)
(-0.996194 -0.243589 0.422617)
(-0.842119 -0.230704 0.453982)
(-0.669036 -0.206612 0.493317)
(-0.421967 -0.147659 0.541862)
(-0.141027 -0.117779 0.56512)
(-0.16093 0.0287318 0.821473)
(-0.164904 0.0831895 1.04255)
(-0.164578 0.115595 1.11306)
(-0.165631 0.164886 1.02226)
(-0.168302 0.153741 0.840168)
(-0.153853 0.131473 0.569815)
(-0.122678 0.143825 0.28771)
(-0.22413 0.441232 0.372416)
(-0.505554 0.468704 0.335928)
(-0.690052 0.481468 0.340159)
(-0.914775 0.466174 0.333539)
(-1.09681 0.425278 0.309346)
(-1.22383 0.353732 0.266439)
(-1.27954 0.273674 0.219138)
(-1.26228 0.206431 0.181754)
(-1.22961 0.14821 0.158439)
(-1.18693 0.115492 0.140491)
(-1.09764 0.0927683 0.0902837)
(-0.956237 0.0453739 0.0699312)
(-0.765321 -0.0205627 0.0594485)
(-0.499401 -0.113822 0.0190412)
(-0.252264 -0.207663 -0.0191588)
(-0.273623 -0.197506 -0.0664606)
(-0.317724 -0.176904 0.00780596)
(-0.313915 -0.174096 0.0587545)
(-0.272054 -0.156414 0.149706)
(-0.380158 -0.233336 0.117183)
(-0.421854 -0.296503 0.117154)
(-0.325768 -0.287523 0.17564)
(-0.268716 -0.21454 0.0433475)
(-0.14055 -0.100353 -0.0276206)
(-0.14053 -0.0765891 -0.00934458)
(-0.138685 -0.0738763 -0.0371428)
(-0.16957 -0.0554759 -0.0692462)
(-0.167921 -0.50108 -0.150055)
(-0.126411 -0.478969 -0.140435)
(-0.110562 -0.446451 -0.0982659)
(-0.10035 -0.42328 -0.147944)
(-0.265667 -0.536952 -0.0332068)
(-0.275132 -0.574184 -0.0276235)
(-0.282214 -0.630329 -0.0861652)
(-0.336063 -0.581924 -0.0223407)
(-0.339145 -0.529071 0.0532577)
(-0.300616 -0.358532 0.0833188)
(-0.443356 -0.316599 0.113487)
(-0.360402 -0.431169 0.0389788)
(-0.345943 -0.521782 0.0122663)
(-0.376722 -0.507826 -0.0255493)
(-0.427464 -0.393969 0.0306709)
(-0.496212 -0.346117 0.0719606)
(-0.527776 -0.254552 0.1629)
(-0.590018 -0.215185 0.24064)
(-0.678857 -0.197275 0.25525)
(-0.575551 -0.206434 0.210815)
(-0.515947 -0.187591 0.180528)
(-0.544218 -0.184775 0.117319)
(-0.538818 -0.171847 0.0915584)
(-0.495469 -0.184024 0.000628794)
(-0.760396 -0.0864293 0.0643469)
(-0.969987 -0.00521702 0.0895121)
(-1.0773 0.0523474 0.103449)
(-1.12637 0.0752512 0.138074)
(-1.16395 0.0359965 0.237732)
(-1.2483 0.0692107 0.267053)
(-1.31396 0.119617 0.349025)
(-1.32751 0.171067 0.431919)
(-1.27023 0.222145 0.524661)
(-1.14548 0.261106 0.604622)
(-0.973035 0.281335 0.649497)
(-0.773577 0.283141 0.658885)
(-0.622526 0.288017 0.645868)
(-0.342811 0.271916 0.646425)
(-0.437263 0.243661 0.876565)
(-0.469598 0.226061 1.00455)
(-0.4626 0.178179 1.08297)
(-0.443514 0.121927 1.01529)
(-0.442014 0.0571891 0.798527)
(-0.712463 -0.00586555 0.744986)
(-0.723007 0.0705565 0.945718)
(-0.741645 0.116431 1.0242)
(-0.746228 0.163312 0.980266)
(-0.695504 0.197944 0.873497)
(-0.836875 0.185752 0.863348)
(-0.879338 0.145186 0.965665)
(-0.88264 0.087816 1.00148)
(-0.873184 0.0414333 0.926892)
(-0.867026 -0.0394859 0.707287)
(-1.00956 -0.0606177 0.675997)
(-1.02378 0.0201789 0.901452)
(-1.0364 0.0692279 0.96656)
(-1.04412 0.121651 0.944744)
(-1.01868 0.17381 0.854955)
(-1.16189 0.162938 0.804761)
(-1.16281 0.110385 0.893277)
(-1.14652 0.0569506 0.914875)
(-1.12973 0.00624303 0.859633)
(-1.11006 -0.0732888 0.64019)
(-1.16986 -0.0838348 0.595556)
(-1.19496 -0.00632969 0.796999)
(-1.22095 0.0435429 0.840327)
(-1.24992 0.0917922 0.811905)
(-1.26732 0.141444 0.717372)
(-1.31681 0.110985 0.610471)
(-1.28852 0.0688946 0.709489)
(-1.25039 0.0250091 0.747391)
(-1.21535 -0.021764 0.716475)
(-1.18568 -0.0935454 0.539818)
(-1.15241 -0.104705 0.472746)
(-1.18012 -0.0413505 0.621395)
(-1.21863 0.000264932 0.640762)
(-1.2727 0.0392594 0.606536)
(-1.30558 0.0744251 0.509207)
(-1.22283 0.0358831 0.414271)
(-1.18616 0.00302976 0.500074)
(-1.12664 -0.0320679 0.531102)
(-1.08472 -0.0600093 0.520127)
(-1.03892 -0.111716 0.386781)
(-0.918214 -0.120062 0.315167)
(-0.922324 -0.10928 0.358079)
(-0.971364 -0.0802809 0.438121)
(-0.955225 -0.086922 0.424868)
(-0.92624 -0.102469 0.394395)
(-1.00282 -0.0682277 0.38111)
(-0.994618 -0.0628706 0.307121)
(-0.99934 -0.0389789 0.282508)
(-1.04239 -0.027018 0.20893)
(-1.03745 -0.00934513 0.202271)
(-0.805093 -0.104923 0.1451)
(-0.817939 -0.124956 0.157519)
(-0.786953 -0.128131 0.215829)
(-0.822725 -0.141203 0.248925)
(-0.608765 -0.281187 0.132299)
(-0.555834 -0.290851 0.113968)
(-0.502439 -0.326221 0.13149)
(-0.419173 -0.398835 0.114976)
(-0.396032 -0.383345 0.148401)
(-0.487209 -0.283655 0.164276)
(-0.604875 -0.23866 0.182777)
(-0.6139 -0.267345 0.0959287)
(-0.512244 -0.377206 0.0428824)
(-0.438602 -0.459194 0.0269963)
(-0.396522 -0.525426 0.0565111)
(-0.383294 -0.696891 0.120595)
(-0.386416 -0.662324 0.126558)
(-0.404598 -0.379714 0.105377)
(-0.407385 -0.535756 0.0798838)
(-0.398373 -0.600975 0.0420429)
(-0.215076 -0.78683 -0.160818)
(-0.192891 -0.792499 -0.261018)
(-0.115084 -0.70265 -0.370096)
(-0.0784388 -0.622566 -0.38612)
(-0.044954 -0.587131 -0.348375)
(-0.0133266 -0.554007 -0.301771)
(0.0317757 -0.500027 -0.23189)
(0.124012 -0.453457 -0.108752)
(0.124585 -0.577706 -0.121763)
(0.116721 -0.63369 -0.119994)
(0.0848621 -0.691391 -0.157526)
(0.0923285 -0.745835 -0.155824)
(0.100516 -0.80245 -0.175073)
(0.118307 -0.830678 -0.16712)
(0.126319 -0.837307 -0.152837)
(0.126469 -0.823275 -0.130123)
(0.117674 -0.787058 -0.0954889)
(0.104222 -0.729755 -0.0419575)
(0.0357974 -0.648187 0.0346827)
(0.00274022 -0.537504 0.1574)
(0.017477 -0.289512 0.364258)
(-0.155325 0.0280127 0.448416)
(-0.371123 0.0989942 0.348546)
(-0.394669 -0.0365235 0.257576)
(-0.221124 -0.173328 0.251333)
(-0.183133 -0.191122 0.268236)
(-0.160226 -0.181606 0.215572)
(-0.0974386 -0.149621 0.207474)
(-0.00500553 -0.0521514 0.0767079)
(-0.0333937 0.104115 0.0821604)
(-0.0802654 0.142053 0.0812673)
(-0.048539 0.207836 0.173103)
(-0.00220649 0.17329 0.196727)
(0.0152377 0.0156571 0.145769)
(-0.0513897 -0.0388366 0.231861)
(0.022626 0.0820195 0.328468)
(-0.00543163 -0.071021 0.289148)
(0.0736221 0.139025 0.251303)
(0.0889393 -0.0233044 0.225648)
(-0.023669 -0.248881 0.454851)
(0.0467476 -0.351331 0.545246)
(0.170727 -0.492294 0.517808)
(0.170543 -0.686043 0.355667)
(0.0775152 -0.811548 0.147279)
(0.0590113 -0.8846 -0.0060467)
(0.0656874 -0.920207 -0.118772)
(0.0634885 -0.946908 -0.19732)
(0.0604239 -0.961689 -0.248698)
(0.0523084 -0.960032 -0.279604)
(0.0421467 -0.940237 -0.293094)
(0.0295376 -0.902767 -0.289976)
(0.0239636 -0.827759 -0.249992)
(0.00751699 -0.782265 -0.329108)
(0.043694 -0.701377 -0.225438)
(0.0477972 -0.651284 -0.211274)
(0.0449985 -0.634087 -0.232061)
(0.00481176 -0.700026 -0.325705)
(-0.0224647 -0.739843 -0.38375)
(-0.0571897 -0.775468 -0.411544)
(-0.0730148 -0.842367 -0.402471)
(-0.131465 -0.902742 -0.347144)
(-0.0935162 -0.966953 -0.333554)
(-0.0885012 -0.977573 -0.37439)
(-0.0535644 -0.916329 -0.418919)
(-0.0434103 -0.866206 -0.432629)
(-0.0176293 -0.823756 -0.404895)
(-0.00933442 -0.867047 -0.341903)
(-0.0389982 -0.899609 -0.375061)
(-0.055681 -0.94647 -0.397696)
(-0.0234055 -0.989349 -0.406754)
(-0.0483512 -1.0577 -0.421881)
(-0.066417 -1.04047 -0.425495)
(-0.0929552 -0.918436 -0.346401)
(-0.185745 -0.760245 -0.225716)
(-0.196693 -0.613462 -0.0427632)
(-0.099121 -0.731745 -0.199185)
(-0.0790829 -0.83757 -0.261888)
(-0.0591383 -0.926692 -0.325682)
(-0.0608838 -0.944348 -0.336329)
(-0.027923 -0.827822 -0.383829)
(-0.0241481 -0.722946 -0.340305)
(-0.0322909 -0.540487 -0.257453)
(-0.0166869 -0.352677 -0.16756)
(0.0360133 -0.0885396 -0.213488)
(-0.245357 -0.432202 0.0715259)
(-0.326591 -0.459934 0.0251674)
(0.217242 -0.119397 -0.243679)
(-0.172841 -0.246963 0.0411703)
(-0.217791 -0.26604 -0.119149)
(-0.258075 -0.268308 -0.104904)
(-0.208133 -0.281212 -0.0224699)
(0.0808426 0.141416 -0.220251)
(0.102425 0.0604378 -0.233568)
(0.10059 0.000308204 -0.263093)
(0.0955714 -0.000358226 -0.26769)
(-0.080732 -0.428793 -0.203989)
(-0.13362 -0.44917 -0.224282)
(-0.186803 -0.457512 -0.207937)
(-0.24974 -0.444384 -0.169976)
(-0.169253 -0.546524 -0.184956)
(-0.127107 -0.558223 -0.258416)
(-0.0965821 -0.564448 -0.293051)
(-0.0610773 -0.552686 -0.293819)
(-0.0511572 -0.74145 -0.350958)
(-0.0818584 -0.756117 -0.333559)
(-0.106562 -0.768495 -0.282831)
(-0.147418 -0.758907 -0.195456)
(-0.134711 -0.820595 -0.182942)
(-0.128978 -0.88141 -0.200982)
(-0.0982841 -0.903942 -0.298442)
(-0.0728377 -0.87099 -0.375259)
(-0.0494943 -0.850672 -0.402052)
(-0.0771453 -0.966022 -0.372444)
(-0.112411 -0.987859 -0.337023)
(-0.138343 -1.00817 -0.284695)
(-0.137501 -1.09071 -0.347719)
(-0.0803309 -1.06487 -0.40068)
(-0.0727803 -1.1425 -0.442036)
(-0.0493581 -1.1208 -0.4747)
(-0.0267264 -1.11169 -0.460003)
(-0.00302722 -1.03985 -0.416326)
(0.0123662 -1.07175 -0.407241)
(-0.012576 -1.15021 -0.470661)
(-0.0399079 -1.17745 -0.495161)
(-0.0688202 -1.20581 -0.463874)
(-0.131906 -1.22651 -0.379707)
(-0.135253 -1.16418 -0.36988)
(-0.284103 -1.0446 -0.22547)
(-0.458027 -1.1443 -0.0769288)
(-0.46443 -1.09832 -0.0674764)
(-0.416593 -1.0439 -0.0648668)
(-0.303378 -1.0344 -0.0740113)
(-0.256055 -0.965694 -0.0642444)
(-0.309699 -0.943262 -0.057824)
(-0.342833 -0.847594 -0.042384)
(-0.378522 -0.712476 -0.0380579)
(-0.474261 -0.625979 -0.0368653)
(-0.410412 -0.40103 -0.0343327)
(-0.465631 -0.660015 -0.0059329)
(-0.317331 -0.457124 0.0244623)
(-0.63897 -0.398424 0.00541519)
(-0.815727 -0.37915 0.0601493)
(-0.918043 -0.384364 0.0846371)
(-0.96783 -0.397175 0.124364)
(-0.979863 -0.525116 0.0977724)
(-0.94042 -0.689058 0.0653694)
(-0.924187 -0.749729 0.0525008)
(-0.874816 -0.84794 0.0364653)
(-0.859235 -0.895055 0.0304979)
(-0.821463 -0.927218 0.00763671)
(-0.704282 -0.966647 -0.0229895)
(-0.593163 -1.001 -0.0420176)
(-0.627409 -0.951663 -0.017218)
(-0.485634 -0.970514 -0.0307683)
(-0.503573 -0.892321 -0.0301838)
(-0.53118 -0.795998 -0.023355)
(-0.560033 -0.729935 -0.0195552)
(-0.687031 -0.711694 -0.00979349)
(-0.675573 -0.597616 -0.00778341)
(-0.824564 -0.576829 0.030353)
(-0.918696 -0.559317 0.0504244)
(-0.881713 -0.696599 0.0231693)
(-0.800911 -0.704003 0.0122121)
(-0.778072 -0.789048 0.00229776)
(-0.66155 -0.797361 -0.010768)
(-0.636419 -0.881627 -0.017038)
(-0.74906 -0.865381 -0.00511982)
(-0.82598 -0.849925 0.0044704)
(-0.86354 -0.772434 0.0135355)
(-0.801994 -0.738314 -0.0117539)
(-0.624147 -0.611363 0.00183471)
(-0.847449 -0.659188 0.0116908)
(-0.868184 -0.518007 0.0520318)
(-0.870584 -0.379591 0.058089)
(-0.843206 -0.282032 0.121531)
(-0.832345 -0.302046 0.0764639)
(-0.879079 -0.350467 0.0525508)
(-0.875044 -0.203785 0.129031)
(-0.893887 -0.184136 0.174089)
(-0.760469 -0.161371 0.158408)
(-0.765775 -0.128911 0.2591)
(-0.776816 -0.120602 0.301798)
(-0.820162 -0.108486 0.355107)
(-0.827528 -0.119076 0.352389)
(-0.641154 -0.181444 0.250601)
(-0.606395 -0.173368 0.24803)
(-0.566749 -0.180223 0.215221)
(-0.550585 -0.175359 0.188717)
(-0.568673 -0.190985 0.12019)
(-0.338331 -0.194398 0.0763262)
(-0.319937 -0.188895 0.101213)
(-0.328766 -0.191648 0.11354)
(-0.359936 -0.198502 0.123708)
(-0.448229 -0.216586 0.141042)
(-0.40443 -0.253007 0.0588927)
(-0.381297 -0.284513 0.0674809)
(-0.409763 -0.340447 0.0462646)
(-0.315235 -0.426143 0.034951)
(-0.311043 -0.393682 0.0480384)
(-0.283011 -0.415456 0.014443)
(-0.192468 -0.418727 -0.0215716)
(-0.336382 -0.253657 0.0345476)
(-0.402068 -0.330257 0.0403763)
(-0.247654 -0.456555 -0.00757609)
(-0.291006 -0.458911 -0.00066991)
(-0.450817 -0.320642 0.0712735)
(-0.523536 -0.298494 0.130721)
(-0.497179 -0.318141 0.135844)
(-0.470375 -0.336319 0.110969)
(-0.458484 -0.350141 0.094032)
(-0.493297 -0.372725 0.00835997)
(-0.710689 -0.317486 0.0630487)
(-0.717942 -0.529304 0.0388363)
(-0.549268 -0.553683 -0.00198868)
(-0.510245 -0.606232 -0.00429915)
(-0.466136 -0.648422 -0.0178448)
(-0.43731 -0.651696 -0.0217161)
(-0.413163 -0.530447 -0.023599)
(-0.411578 -0.540548 -0.0487882)
(-0.4105 -0.540973 -0.0347471)
(-0.335701 -0.549922 -0.0177347)
(-0.267891 -0.595231 -0.00804915)
(-0.320043 -0.58014 -0.0042303)
(-0.403685 -0.512395 0.00661927)
(-0.332274 -0.534781 -0.00476922)
(-0.439269 -0.629614 -0.0122669)
(-0.293197 -0.472689 -0.00575677)
(-0.210798 -0.539087 -0.0191015)
(-0.281607 -0.523976 -0.0169703)
(-0.394667 -0.435566 -0.00119504)
(-0.414065 -0.362336 -0.0107947)
(-0.260896 -0.393789 -0.0116576)
(-0.1573 -0.42228 -0.0372081)
(-0.136694 -0.398821 -0.0235772)
(-0.238328 -0.20493 0.0215829)
(-0.382874 -0.342497 -0.00254901)
(-0.252235 -0.473975 -0.0204566)
(-0.219443 -0.467363 -0.0244245)
(-0.122326 -0.392151 -0.0309703)
(-0.219159 -0.194078 0.0383932)
(-0.346954 -0.337526 0.0116111)
(-0.366078 -0.362791 0.053798)
(-0.19597 -0.510391 -0.0116359)
(-0.174139 -0.467387 0.0178416)
(-0.110005 -0.419532 0.000833092)
(-0.222163 -0.228647 0.0439668)
(-0.32576 -0.341409 0.0518462)
(-0.334747 -0.338479 0.0563978)
(-0.180521 -0.462577 0.0158555)
(-0.10925 -0.408319 -0.000985412)
(-0.23163 -0.220074 0.0613276)
(-0.285559 -0.221111 0.0766918)
(-0.240129 -0.229863 0.0703905)
(-0.349926 -0.336516 0.0778221)
(-0.189503 -0.464684 0.0474055)
(-0.117737 -0.415051 0.0361773)
(-0.140412 -0.449075 -0.00513655)
(-0.196373 -0.496933 0.0248126)
(-0.381287 -0.350202 0.0786374)
(-0.33412 -0.624631 -0.00422903)
(-0.355734 -0.631348 -0.0121608)
(-0.499186 -0.511264 0.0576932)
(-0.651047 -0.444256 0.098209)
(-0.666347 -0.286484 0.136263)
(-0.797653 -0.271371 0.170455)
(-0.890293 -0.320545 0.16634)
(-1.02071 -0.488713 0.125993)
(-1.10736 -0.495113 0.167687)
(-1.13222 -0.502839 0.19281)
(-1.11234 -0.50531 0.215766)
(-1.04928 -0.501723 0.238618)
(-0.944044 -0.490926 0.260489)
(-0.795653 -0.467777 0.28708)
(-0.641743 -0.432884 0.326528)
(-0.399599 -0.380834 0.394363)
(-0.167978 -0.290768 0.480529)
(0.0299606 -0.149262 0.486106)
(0.328626 -0.15804 0.429251)
(0.331745 -0.219068 0.380819)
(0.20424 -0.126214 0.490598)
(0.270751 -0.000974727 0.769276)
(0.281954 0.0487989 1.03373)
(0.26773 0.0837662 1.14217)
(0.250426 0.136019 1.09011)
(0.213512 0.124675 0.951714)
(0.143802 0.121712 0.699528)
(0.0408831 0.18526 0.400839)
(0.175867 0.511102 0.423382)
(0.422995 0.513375 0.373141)
(0.609696 0.537075 0.374393)
(0.853324 0.496593 0.350585)
(1.01204 0.417071 0.316909)
(1.07854 0.323959 0.273136)
(1.06697 0.257453 0.232876)
(1.02305 0.211286 0.195836)
(1.04466 0.158036 0.165057)
(1.05299 0.119019 0.142551)
(0.992577 0.0934367 0.0897476)
(0.885795 0.0425081 0.0673164)
(0.719905 -0.02237 0.054231)
(0.474688 -0.10947 0.0204647)
(0.246631 -0.217325 -0.0206712)
(0.106457 -0.627224 -0.108992)
(0.182292 -0.388177 -0.0802542)
(-0.177695 -0.174927 0.00819924)
(-0.0996404 -0.398997 -0.0383741)
(-0.108569 -0.323973 -0.0653921)
(-0.110727 -0.353863 -0.0743032)
(-0.107598 -0.318696 -0.0666073)
(-0.0793706 -0.255165 -0.0630631)
(-0.129291 -0.211534 -0.0599647)
(-0.216266 0.029929 0.0990181)
(-0.155355 0.40307 0.139506)
(-0.0450537 0.5336 0.0808579)
(0.0364345 0.622885 0.100917)
(0.12495 0.669278 0.194349)
(0.219735 0.728386 0.300521)
(0.311477 0.766285 0.336945)
(0.394753 0.762631 0.36689)
(0.472269 0.698813 0.373764)
(0.53781 0.559153 0.370564)
(0.589705 0.336983 0.336182)
(0.569836 0.00721071 0.26262)
(0.391127 -0.332507 0.257395)
(0.290807 -0.329918 0.320833)
(0.225102 -0.283344 0.330056)
(0.157738 -0.191653 0.336809)
(0.14669 0.0059474 0.312538)
(0.288659 0.00986729 0.339057)
(0.449765 -0.155869 0.330796)
(0.601023 -0.253307 0.342856)
(0.639887 -0.342641 0.351866)
(0.620502 -0.435037 0.353635)
(0.474488 -0.540845 0.335175)
(0.104706 -0.566865 0.3182)
(-0.172677 -0.299649 0.303976)
(-0.0405306 -0.127838 0.356212)
(0.230849 -0.149776 0.237169)
(0.283869 -0.402078 0.0723944)
(0.00998699 -0.51685 0.237096)
(-0.140289 -0.745802 -0.139997)
(0.204679 -0.717993 -0.480078)
(0.30824 -0.388505 -0.176854)
(0.332141 -0.373608 0.094468)
(0.343435 -0.545446 0.185385)
(0.324218 -0.890206 0.120886)
(0.528571 -0.871007 0.065116)
(0.606794 -0.689323 0.0991964)
(0.572228 -0.535098 0.140161)
(0.502764 -0.392012 0.190828)
(0.334338 -0.226429 0.248364)
(0.358494 -0.341437 0.197888)
(0.422077 -0.372169 0.144618)
(0.503638 -0.358991 0.0825497)
(0.61398 -0.292187 -0.0552231)
(0.861699 0.197034 -0.117095)
(0.906163 0.478521 -0.0222157)
(0.851927 0.681077 0.0485277)
(0.753795 0.783525 0.0911278)
(0.627097 0.810911 0.137451)
(0.482943 0.780844 0.157049)
(0.32351 0.717493 0.175243)
(0.155111 0.637612 0.127056)
(-0.0237067 0.569915 0.0712739)
(-0.16106 0.49242 0.0694066)
(-0.311339 0.378284 0.134118)
(-0.414877 0.107929 0.139311)
(-0.282871 -0.168393 -0.00459756)
(-0.39136 -0.106797 0.0269997)
(-0.470038 -0.043814 0.0543685)
(-0.546539 0.05913 0.0949959)
(-0.533927 0.0320987 0.0792788)
(-0.498367 -0.0924651 0.0207035)
(-0.45919 -0.145344 0.00966681)
(-0.391697 -0.195492 -0.0120008)
(-0.296495 -0.245357 -0.0280192)
(-0.187995 -0.270664 -0.0418427)
(-0.145972 -0.249807 -0.0357508)
(-0.196177 -0.224354 -0.0342822)
(-0.182435 -0.361031 -0.0519791)
(-0.122797 -0.35291 -0.0540303)
(-0.0994984 -0.368588 -0.0813064)
(-0.0763083 -0.402617 -0.115817)
(-0.04717 -0.57936 -0.230851)
(-0.0847118 -0.518126 -0.171994)
(-0.101181 -0.594993 -0.136323)
(-0.153629 -0.556468 -0.0614807)
(-0.209098 -0.456583 -0.0315437)
(-0.304848 -0.180855 0.0205335)
(-0.200947 0.299129 0.171463)
(-0.0784686 0.42299 0.30342)
(0.00432231 0.506056 0.439556)
(0.0731686 0.495618 0.558084)
(0.142167 0.43263 0.621596)
(0.195306 0.320321 0.652222)
(0.245559 0.166206 0.626064)
(0.231965 -0.00969801 0.530617)
(0.0996434 -0.131711 0.433846)
(-0.0165631 -0.0932642 0.444886)
(-0.0348773 0.0248168 0.420003)
(-0.0337515 0.146193 0.420428)
(0.0382858 0.250297 0.356414)
(0.199656 0.137492 0.369046)
(0.15375 0.280329 0.444623)
(-0.0690045 0.156373 -0.113594)
(-0.176151 -0.0616602 -0.641433)
(-0.179449 -0.300384 -0.534473)
(-0.168407 -0.342038 -0.299135)
(-0.145561 -0.300228 -0.0926833)
(-0.0615349 -0.584812 -0.106289)
(-0.0278003 -0.86253 -0.0943201)
(0.00242643 -1.01991 -0.0918394)
(0.0328139 -1.14402 -0.101188)
(0.0661823 -1.228 -0.115437)
(0.096705 -1.28099 -0.129561)
(0.123309 -1.3077 -0.141506)
(0.147248 -1.31638 -0.153515)
(0.168082 -1.31449 -0.166025)
(0.186299 -1.30548 -0.176791)
(0.201897 -1.29084 -0.185207)
(0.215826 -1.27103 -0.190288)
(0.228182 -1.24574 -0.192907)
(0.23948 -1.21371 -0.191658)
(0.249077 -1.17377 -0.186444)
(0.254835 -1.12373 -0.175588)
(0.251895 -1.0609 -0.15894)
(0.19478 -0.99794 -0.138978)
(0.139753 -0.913011 -0.122645)
(0.164318 -0.828911 -0.0868612)
(0.187606 -0.728287 -0.0880924)
(0.203755 -0.559532 -0.0879952)
(0.24649 -0.442473 -0.0843583)
(0.0718887 -0.03023 -0.0953491)
(0.366025 -0.29859 0.0438063)
(0.245747 -0.551367 -0.0570228)
(0.286223 -0.0949067 -0.0268425)
(0.180812 -0.0371174 -0.147259)
(0.201984 -0.112753 -0.124653)
(0.195035 -0.119543 -0.0812096)