/*--------------------------------*- C++ -*----------------------------------*\
| =========                 |                                                 |
| \\      /  F ield         | OpenFOAM: The Open Source CFD Toolbox           |
|  \\    /   O peration     | Version:  v2012                                 |
|   \\  /    A nd           | Website:  www.openfoam.com                      |
|    \\/     M anipulation  |                                                 |
\*---------------------------------------------------------------------------*/
FoamFile
{
    version     2.0;
    format      ascii;
    class       volScalarField;
    location    "820";
    object      epsilon;
}
// * * * * * * * * * * * * * * * * * * * * * * * * * * * * * * * * * * * * * //

dimensions      [0 2 -3 0 0 0 0];


internalField   nonuniform List<scalar> 
18258
(
0.0241882
0.0123536
0.00921479
0.00725209
0.0127149
0.0126233
0.0130798
0.0174413
0.024287
0.0371603
0.0537515
0.0482749
0.043619
0.045339
0.0474783
0.0450127
0.0350246
0.0302816
0.0397578
0.0665059
0.0609989
0.0497866
0.0611416
0.0514851
0.0652899
0.0823233
0.0630617
0.056808
0.0509955
0.0479406
0.0413106
0.0231372
0.0345411
0.0534221
0.0727613
0.079428
0.0850248
0.0896392
0.0949233
0.0970869
0.0973415
0.0921438
0.082982
0.0680199
0.0501608
0.0388796
0.0314949
0.030484
0.0429275
0.0441545
0.0549465
0.0847024
0.107203
0.0805609
0.0517192
0.0822892
0.112152
0.143877
0.17042
0.192916
0.200699
0.197343
0.185876
0.169197
0.147787
0.122821
0.101834
0.0849106
0.0671237
0.0573215
0.0463624
0.0384434
0.0328704
0.0292055
0.0270009
0.0252786
0.0241162
0.0250455
0.0249313
0.0177816
0.0139864
0.0131365
0.00939642
0.0078088
0.00812303
0.00772431
0.00802263
0.00708145
0.00606567
0.00526722
0.0044682
0.00650909
0.00700561
0.0072478
0.00726901
0.00778947
0.00804145
0.00777919
0.00787224
0.00719608
0.00754083
0.0120121
0.0137603
0.0174623
0.0156372
0.0109212
0.00904618
0.0100937
0.0107099
0.0133265
0.012562
0.0133364
0.0118249
0.0108039
0.00911844
0.00884797
0.0090774
0.00964905
0.0100478
0.0116633
0.0114957
0.0106665
0.0117949
0.0130128
0.0127401
0.0121967
0.0116091
0.0142482
0.0114404
0.0121233
0.0136199
0.0219451
0.0214734
0.0259775
0.0254996
0.0259377
0.0261193
0.0315223
0.0316442
0.0320264
0.032346
0.0340892
0.0570828
0.0508539
0.0497371
0.0495411
0.0428376
0.0423742
0.0416867
0.042502
0.0360008
0.0346511
0.0314275
0.0310696
0.0346712
0.0437884
0.0612715
0.0885333
0.122489
0.158842
0.189125
0.210103
0.231839
0.237151
0.251009
0.25567
0.256555
0.250882
0.242462
0.233002
0.220146
0.201546
0.188625
0.148207
0.10488
0.0589851
0.0782507
0.0902018
0.0998712
0.101773
0.102952
0.0989659
0.0928637
0.0818127
0.0664412
0.0432875
0.0478339
0.065042
0.0675545
0.0684279
0.0543772
0.0524793
0.0488909
0.0489885
0.0645511
0.0738046
0.0619445
0.0853706
0.100394
0.0878915
0.0638274
0.0976811
0.142922
0.0803406
0.0680929
0.0524206
0.0513719
0.0433368
0.0368027
0.0630439
0.0939272
0.128328
0.149006
0.170504
0.187791
0.20093
0.214901
0.18685
0.169845
0.114444
0.200049
0.15128
0.0763085
0.0561431
0.0541268
0.0469901
0.0522296
0.0571323
0.0526754
0.0407235
0.0279539
0.0245823
0.0463194
0.0646955
0.0781796
0.0620973
0.0790129
0.0892466
0.0965776
0.101897
0.129512
0.0955724
0.105575
0.0752509
0.102264
0.0723587
0.0464652
0.0522505
0.0997381
0.15911
0.217745
0.254718
0.144205
0.0728455
0.053977
0.0537931
0.0522583
0.0474289
0.0590019
0.105099
0.0716484
0.0463998
0.0401854
0.0473731
0.0417915
0.0309878
0.0326686
0.0399837
0.0549805
0.0681437
0.0809128
0.124239
0.121362
0.146476
0.153427
0.129423
0.125344
0.0810825
0.0829964
0.122036
0.091134
0.0736683
0.103647
0.146918
0.201189
0.247456
0.287713
0.313378
0.303005
0.274187
0.173512
0.0759895
0.0228982
0.0178127
0.0168636
0.0173377
0.010534
0.00630104
0.00584925
0.00665708
0.00700837
0.00591436
0.00544531
0.00543671
0.00577904
0.0101846
0.00875507
0.010831
0.0131216
0.0156696
0.018714
0.0194413
0.0128993
0.00873107
0.00819308
0.00812831
0.00805876
0.00802851
0.00803902
0.00807793
0.00809206
0.00805782
0.00797728
0.00783857
0.00770168
0.0076431
0.00827699
0.0111621
0.015326
0.0148291
0.0135409
0.0121877
0.0110297
0.00870409
0.0151336
0.0128357
0.0109258
0.013375
0.0164714
0.0208116
0.0244472
0.0176296
0.0141117
0.0127682
0.0126388
0.0125202
0.0125599
0.0124314
0.0124881
0.0122799
0.012861
0.013543
0.0169444
0.0189719
0.0211621
0.0226694
0.0232602
0.0239708
0.0211066
0.0229956
0.022728
0.0235062
0.0233249
0.0226358
0.020712
0.0189129
0.017685
0.0190952
0.0236519
0.0322795
0.0266792
0.0207029
0.01675
0.0136996
0.0149729
0.016643
0.0168169
0.015829
0.0155973
0.0153881
0.013866
0.0130711
0.011073
0.0104659
0.0100133
0.0101712
0.0143662
0.0134999
0.0136857
0.0144069
0.0154881
0.0146499
0.0150801
0.0142456
0.0144953
0.0149182
0.0169909
0.0185412
0.0177858
0.0164783
0.0159803
0.0137121
0.0158139
0.0156712
0.0169923
0.0185749
0.0190667
0.0190045
0.0183688
0.0167752
0.0186638
0.0220278
0.0256777
0.0246817
0.0243585
0.0204238
0.0192289
0.0202048
0.0214798
0.0223825
0.0224406
0.0222436
0.0223068
0.0262588
0.0258398
0.0246593
0.0225922
0.0201473
0.0174992
0.0151105
0.0165829
0.0180607
0.0194481
0.0207149
0.0205051
0.0189746
0.017617
0.0163879
0.0148982
0.0146218
0.0160732
0.0172948
0.0187285
0.0204516
0.0205439
0.0188198
0.0173198
0.0160361
0.0145631
0.0145209
0.0160213
0.0173222
0.0187447
0.0202386
0.0196091
0.0184473
0.0171922
0.015947
0.0144941
0.014565
0.0158873
0.0169584
0.0180452
0.0189997
0.0198494
0.0178869
0.0169745
0.0170631
0.0160746
0.019252
0.0184971
0.0194385
0.0179902
0.0167718
0.0177787
0.0209671
0.0239965
0.0245503
0.0242707
0.0201415
0.0205966
0.020571
0.0191545
0.0159379
0.0153405
0.0180998
0.0208242
0.0212843
0.0199854
0.0168984
0.0132635
0.0142798
0.0174293
0.019735
0.0184784
0.0183231
0.0169148
0.015832
0.0161252
0.0138425
0.0165804
0.0266037
0.0240641
0.0220424
0.019569
0.0155844
0.0105615
0.0114556
0.0126047
0.013017
0.0105226
0.00788385
0.00708153
0.00689089
0.00673496
0.00651841
0.00615194
0.00559681
0.00538755
0.0106994
0.0261512
0.0365705
0.0358946
0.0241705
0.0208631
0.020216
0.0188909
0.00927998
0.00826537
0.00847804
0.0104459
0.00825798
0.00855065
0.0148481
0.0101824
0.0139433
0.0108036
0.0146204
0.023012
0.0218777
0.014577
0.00804532
0.00687838
0.00736123
0.00764631
0.00784717
0.00804086
0.00827117
0.00865312
0.00996584
0.0156569
0.0202132
0.0176827
0.0166914
0.0152267
0.0187518
0.0212311
0.02317
0.0259353
0.0160482
0.0117423
0.0165814
0.0271641
0.0246472
0.0231865
0.0170745
0.0176169
0.0170606
0.0109697
0.0106282
0.0105466
0.011356
0.0127346
0.0146564
0.0158195
0.016569
0.0168969
0.0178021
0.0230803
0.0215985
0.0210885
0.0173258
0.0133162
0.0153361
0.0513845
0.0195118
0.0206201
0.0188667
0.0191453
0.020434
0.0151573
0.0135193
0.012928
0.0146118
0.0214737
0.0214804
0.0213402
0.0182085
0.0174232
0.0208361
0.0219264
0.022333
0.0217131
0.0212633
0.0194055
0.016642
0.0180709
0.019585
0.0207665
0.0227675
0.0231119
0.0178864
0.0171651
0.015785
0.0105022
0.0112454
0.00968965
0.00966134
0.00962734
0.00935269
0.0089076
0.00919602
0.00931246
0.00930913
0.00896488
0.00925714
0.00832714
0.0086572
0.00974367
0.0151797
0.0147503
0.0175501
0.0194638
0.016713
0.0155556
0.0141955
0.0131751
0.0154196
0.014257
0.0168297
0.0211674
0.026439
0.0190784
0.0180803
0.0178543
0.0174465
0.0172891
0.0173383
0.0166515
0.0156566
0.0150941
0.0235405
0.0212517
0.0181339
0.0171867
0.0157561
0.0180002
0.017445
0.0213277
0.0267891
0.0269904
0.0214931
0.021569
0.018927
0.0200294
0.0222058
0.0270221
0.0269463
0.0144016
0.00957588
0.0154022
0.0157422
0.0183504
0.0169713
0.0184957
0.0196723
0.0203964
0.0202548
0.0176611
0.0188308
0.0196175
0.0206024
0.0185552
0.0165522
0.0173381
0.0161186
0.0152218
0.0147267
0.0126589
0.0128986
0.0138643
0.0153112
0.0162534
0.0177423
0.0193915
0.0194231
0.0200873
0.0196823
0.0190874
0.0251653
0.0239291
0.0254691
0.0281679
0.0223943
0.0177777
0.0146632
0.0149717
0.0147374
0.0146447
0.0153919
0.0167474
0.0151261
0.0145115
0.0170117
0.019362
0.0246197
0.0329382
0.0286683
0.0261316
0.0331597
0.0313479
0.0381586
0.0286144
0.028103
0.0208113
0.0262518
0.0304838
0.0391328
0.0254631
0.0209173
0.0223869
0.0255202
0.034744
0.0327406
0.0330824
0.0411286
0.0399026
0.0361715
0.0311516
0.0352871
0.0212034
0.0301542
0.0321785
0.0267937
0.0256639
0.0306845
0.0310186
0.0329639
0.028349
0.026732
0.0178788
0.0273797
0.0313118
0.0330055
0.0277611
0.0205116
0.0279669
0.02051
0.0191477
0.0202601
0.0137461
0.0126966
0.0147663
0.0138396
0.0111721
0.0121099
0.0111243
0.0111045
0.0111782
0.0112849
0.0114075
0.0116512
0.0116024
0.012574
0.0132586
0.0125223
0.0115032
0.0122009
0.0126183
0.0161241
0.0182151
0.0204877
0.0220854
0.0229243
0.0240513
0.0226617
0.0248186
0.0237504
0.0251952
0.0248908
0.0238324
0.0213369
0.018727
0.0163883
0.0170625
0.0208103
0.0275256
0.022563
0.0174734
0.014144
0.0117162
0.0130033
0.0163279
0.00882811
0.00807837
0.00780524
0.00766321
0.00760236
0.00685629
0.00594373
0.00671621
0.0123659
0.0159848
0.0203241
0.0261716
0.0323831
0.0377602
0.0418895
0.0448809
0.046761
0.0472937
0.0445155
0.0336719
0.0288023
0.024573
0.0201942
0.0163732
0.0166968
0.0243593
0.0320394
0.0396209
0.0463156
0.051329
0.049416
0.0331122
0.0298571
0.0460525
0.0776927
0.0735076
0.0966676
0.110524
0.0623177
0.0461061
0.0451862
0.0622276
0.0649219
0.0568359
0.0467576
0.0363966
0.0261156
0.0306502
0.0351927
0.0396445
0.0443764
0.0587075
0.0615128
0.0601205
0.0573269
0.0536694
0.0487215
0.0416433
0.0330857
0.0248212
0.0185286
0.0135692
0.00760327
0.0077474
0.00789437
0.0074376
0.00792576
0.00807975
0.00896322
0.00868817
0.00892969
0.00874612
0.00881407
0.00784516
0.0069837
0.010344
0.00975423
0.00981198
0.0105928
0.0136385
0.0104189
0.00758489
0.0071535
0.00714952
0.00758558
0.0172165
0.025311
0.0306293
0.0352536
0.0387426
0.0374505
0.0340192
0.0283328
0.0219921
0.0197774
0.0166525
0.0141857
0.0130028
0.0143606
0.0117817
0.0057467
0.00520393
0.00574563
0.00557582
0.00509577
0.00614961
0.00685622
0.0074831
0.00791674
0.0082339
0.00829662
0.00823457
0.00814248
0.00809562
0.00807197
0.00803885
0.00796817
0.00786625
0.0077175
0.00757525
0.00750673
0.00809879
0.0107208
0.0146621
0.0144237
0.0133049
0.0121911
0.0113264
0.00960433
0.0154757
0.0131314
0.0110125
0.0101864
0.0100494
0.0103528
0.0113196
0.0129419
0.0138542
0.0158572
0.0158973
0.0157879
0.0160923
0.0158846
0.0133591
0.0151596
0.0177744
0.0185856
0.0191806
0.0189521
0.0174079
0.0194364
0.0205882
0.0200549
0.019456
0.0167107
0.0194913
0.0233371
0.0237689
0.0240058
0.0213177
0.0184646
0.0216469
0.0228313
0.0224778
0.0233906
0.0217199
0.0224758
0.0277615
0.0145238
0.0136146
0.00832996
0.008993
0.0093209
0.00912064
0.00884105
0.00921184
0.00945772
0.00912825
0.00980574
0.0101052
0.0093478
0.0118827
0.0109898
0.0106778
0.0100763
0.0104371
0.0109425
0.011218
0.0125407
0.0200026
0.0205712
0.0185279
0.0212272
0.0217857
0.0181587
0.0207109
0.0216066
0.0219806
0.0223596
0.0237841
0.0222432
0.0245477
0.0238629
0.0223558
0.0216095
0.0384078
0.0253099
0.0166836
0.0154471
0.0151094
0.0151613
0.01707
0.0127461
0.0142973
0.0100439
0.00870589
0.00835578
0.00809033
0.00843323
0.0111114
0.0170305
0.0251983
0.0281185
0.0270396
0.0236454
0.0180385
0.0132998
0.013004
0.011708
0.0109474
0.0108139
0.00717611
0.00513383
0.0065637
0.00660884
0.00720552
0.0076282
0.00797344
0.00823295
0.0083759
0.00844895
0.00853037
0.00864515
0.00876778
0.00887036
0.00894752
0.00899953
0.00905453
0.00916676
0.00946543
0.0106618
0.0153286
0.0197546
0.0186446
0.0171776
0.0158625
0.0166292
0.0173882
0.0181247
0.022329
0.0191719
0.0220864
0.0207473
0.0197613
0.0183496
0.0190702
0.0208705
0.016622
0.016548
0.0112963
0.00987197
0.0095046
0.00930107
0.00914505
0.00899099
0.00883742
0.00869842
0.00856456
0.00844615
0.00835157
0.00825711
0.00811779
0.00787742
0.00747866
0.00705476
0.00613374
0.00670343
0.0074246
0.0084163
0.00951512
0.0100445
0.00948945
0.00876192
0.00845705
0.00858771
0.00875566
0.00894021
0.00915252
0.00945099
0.0099097
0.0108729
0.0115392
0.0162156
0.0169472
0.0202622
0.020067
0.0179635
0.0173159
0.0189207
0.0174341
0.0127018
0.0174643
0.0169926
0.0212337
0.0157312
0.0148325
0.0152258
0.0157031
0.0183989
0.0173117
0.0158367
0.0157936
0.0127248
0.0142935
0.0162902
0.0177871
0.028049
0.0274736
0.0346174
0.0345279
0.0597231
0.0567908
0.050064
0.0541845
0.023839
0.0467509
0.0546676
0.0497655
0.0431841
0.027517
0.0440647
0.0671563
0.0974984
0.0702457
0.0574618
0.106991
0.0774676
0.0376569
0.0267197
0.0150806
0.0151532
0.0251845
0.0292633
0.024259
0.0234018
0.0336545
0.0350238
0.0281905
0.0288788
0.0312651
0.0301985
0.0326855
0.0282833
0.0275863
0.0156077
0.0128075
0.0138385
0.0155693
0.0165668
0.0160508
0.0168965
0.0175759
0.0161374
0.0151142
0.0145563
0.0124913
0.0132358
0.0162261
0.0204509
0.0239637
0.0172981
0.0138931
0.0125889
0.0123938
0.0121674
0.0120503
0.0117326
0.0115506
0.0110853
0.0112973
0.00984948
0.00986395
0.010397
0.010554
0.0107523
0.0109048
0.0110227
0.0111315
0.0120048
0.0187938
0.0260069
0.0208103
0.0164956
0.0140137
0.0152004
0.0171228
0.021028
0.0264587
0.0178678
0.0176889
0.0115303
0.0107472
0.010544
0.0103792
0.0102332
0.0101421
0.0102082
0.0102108
0.0119346
0.0115115
0.0133907
0.0144795
0.0119785
0.0115609
0.0111027
0.0108279
0.0106799
0.010604
0.0107008
0.0115677
0.0114004
0.010466
0.0103643
0.0104769
0.0106837
0.0110012
0.0114458
0.0119506
0.0128574
0.0126184
0.0111929
0.0112553
0.0106123
0.0103065
0.0100714
0.0100429
0.0100874
0.0102217
0.0104366
0.011345
0.0171519
0.0173302
0.0266755
0.0266579
0.0211913
0.0177146
0.0155583
0.0143041
0.0135724
0.0353778
0.0310547
0.0491858
0.0392354
0.0314082
0.0510391
0.0726621
0.0564104
0.0919882
0.0993667
0.0731215
0.0662169
0.0210377
0.016014
0.0154739
0.0169641
0.0186575
0.0212947
0.0218913
0.0267155
0.0288255
0.0172117
0.0165299
0.0155974
0.0249272
0.0230982
0.0197133
0.0178268
0.0164402
0.0189935
0.0207891
0.0149927
0.0150364
0.0096919
0.0106959
0.0104457
0.0101127
0.0100028
0.00993387
0.00997271
0.0100743
0.0103581
0.0108513
0.0112204
0.0113432
0.0115945
0.0113838
0.011103
0.0107689
0.0105709
0.0103776
0.0102229
0.0101068
0.0101458
0.0104683
0.0106176
0.00931956
0.00966004
0.00976444
0.00977549
0.00980949
0.00978143
0.00965669
0.00946722
0.0092903
0.00909834
0.00915016
0.00997077
0.01011
0.0101729
0.0100248
0.00991412
0.00990749
0.00984485
0.0098288
0.00981292
0.00968171
0.00936056
0.00863218
0.00848935
0.0090996
0.0094537
0.00964208
0.00973371
0.00971497
0.00965163
0.00941298
0.00923014
0.00901764
0.00868236
0.00825202
0.00685698
0.00711075
0.00745675
0.00793527
0.00842955
0.00886331
0.00915321
0.00930422
0.00938889
0.00930606
0.00901693
0.00849379
0.00844265
0.00883145
0.00901212
0.00897564
0.00872325
0.00832919
0.00777853
0.00708969
0.00641797
0.00589627
0.00563699
0.00523705
0.00661998
0.00719643
0.00774047
0.00825167
0.00874088
0.00926585
0.00948023
0.00954581
0.00951728
0.00935222
0.00901145
0.00847554
0.00848733
0.00897286
0.00929368
0.00942776
0.00941836
0.00922025
0.00879572
0.00787939
0.00706437
0.00640844
0.00582566
0.00524444
0.00505462
0.00530565
0.00510557
0.0053388
0.0059302
0.0067355
0.00751059
0.00810308
0.00851862
0.00869515
0.00864086
0.00838902
0.00829454
0.00841985
0.00836745
0.00806913
0.00750913
0.00676898
0.00596511
0.00532235
0.00511871
0.00543041
0.00576299
0.00545804
0.00440241
0.00494752
0.00550108
0.00609812
0.00701934
0.00820635
0.00881532
0.00914134
0.00930143
0.00923146
0.00893357
0.00848471
0.00846852
0.00890045
0.00918967
0.00924023
0.00910214
0.00879905
0.00828456
0.00684554
0.00537923
0.00475467
0.004409
0.00396905
0.00553538
0.0058931
0.0054736
0.00520336
0.00564429
0.00620195
0.00684443
0.00737007
0.0078011
0.00810407
0.00820316
0.00816923
0.00803931
0.00804499
0.00799101
0.00778236
0.00752047
0.00729304
0.00684097
0.00638186
0.00586313
0.00641598
0.00670223
0.00627983
0.00468534
0.00497575
0.00541004
0.00568979
0.00713954
0.00857476
0.00899569
0.0091513
0.00929541
0.00922475
0.00889935
0.00844905
0.00843398
0.00896593
0.00937553
0.00951449
0.00961274
0.009703
0.00978648
0.00862763
0.00672123
0.00625593
0.00529207
0.00483623
0.00659596
0.00701928
0.00683121
0.00656658
0.00749493
0.00788985
0.00804425
0.00807335
0.00810269
0.0080855
0.00799577
0.00792492
0.00781193
0.00825416
0.00888964
0.00878566
0.00867681
0.00850686
0.00813914
0.00768822
0.00718117
0.00784509
0.00838775
0.00811779
0.00598748
0.00636067
0.00720031
0.00738657
0.00893155
0.0101392
0.0104886
0.010494
0.0103848
0.0103577
0.00933478
0.00839791
0.00824616
0.00961241
0.0156146
0.0154529
0.0154893
0.0154181
0.0148305
0.0146553
0.0140764
0.013813
0.0131
0.0126369
0.0119442
0.0139854
0.0177495
0.0198527
0.0222274
0.0247348
0.0233357
0.0188168
0.0165649
0.0101179
0.00798053
0.0068816
0.00596611
0.00527293
0.0050696
0.00754533
0.00942168
0.0116171
0.0135992
0.0139278
0.0163792
0.0203546
0.0309905
0.0492456
0.0415674
0.0392225
0.0395394
0.097876
2.54769
2.72662
2.48981
2.89559
3.33182
0.391763
0.151675
0.281177
0.295556
0.32374
0.299058
0.270539
0.246765
0.252627
0.242305
0.252378
0.235075
0.248292
0.217576
0.227097
0.237867
0.7213
1.06088
1.27567
1.77684
1.77249
1.99762
1.94293
1.95779
1.80674
1.92218
1.67048
1.38516
1.30955
1.23758
1.32828
1.44336
1.25232
1.13522
1.01876
0.927577
0.795532
1.00872
0.765597
0.723935
0.722806
0.755468
1.00684
0.917896
1.05579
0.963775
0.997942
0.590766
0.660982
0.480447
0.399548
0.331319
0.400562
0.538154
0.716865
0.902864
0.697513
0.961498
0.897011
0.902553
0.85866
0.781319
0.74114
0.727804
0.748717
0.761418
0.776905
0.805258
0.826951
0.846408
0.999081
1.06622
1.05872
0.867871
0.775461
0.536759
0.57502
0.608982
0.612017
0.569628
0.551921
0.501851
0.489372
0.44476
0.425308
0.387226
0.367638
0.335407
0.463239
0.791206
0.821101
0.892009
0.944925
0.996213
1.01809
1.03621
1.01899
0.985665
0.913758
0.881417
0.816873
0.926167
1.11212
1.10863
1.0178
0.86431
0.818146
3.81798
4.64432
3.07255
6.62824
10.0848
16.9187
7.66766
2.07653
3.47467
2.38806
2.1197
2.06706
2.1838
3.4433
2.51929
3.29043
2.74302
2.87027
2.25881
2.45286
2.29138
1.74694
1.46167
1.2342
1.09037
0.866904
0.842309
0.684442
0.640401
0.608872
0.520043
0.659481
0.694019
1.73052
2.34118
2.91558
4.56978
5.01017
5.46954
8.61095
6.94227
8.66314
5.14133
5.20289
3.84564
3.61558
3.65417
5.02447
7.19722
4.95348
8.65328
4.81859
15.6309
34.9737
9.21102
19.0687
10.9955
9.938
9.57517
9.86372
14.0286
9.58609
15.5725
13.2105
17.576
17.2108
18.0421
13.7606
10.1603
11.0768
11.8714
15.2
10.6823
12.168
9.21279
8.99383
8.52781
7.11102
6.49791
5.03668
6.0089
7.04363
8.0338
12.7885
15.993
18.3426
22.1019
16.2779
18.5473
11.1598
12.2706
9.47292
8.8898
9.02665
11.8779
21.0455
14.9016
27.2875
0.499176
0.226329
0.547019
0.230041
0.487715
0.39116
0.403751
0.404725
0.400505
0.462337
0.22067
0.185433
0.177598
0.175426
0.176938
0.100328
0.12457
0.0804816
0.12699
0.22957
0.50538
0.366295
0.140647
0.0826469
0.0546403
0.0429865
0.0635253
0.0613267
0.0980743
0.099447
0.105813
0.132443
0.228843
0.435149
31.9449
7.14286
1.1388
0.535374
0.283762
0.174087
0.15075
0.170477
0.183527
0.186642
0.175823
0.150138
0.108513
0.0726377
0.0493236
0.0417756
0.0304322
0.0273851
0.0389777
0.0527894
0.0489934
0.0647353
0.0831688
0.105995
0.130274
0.14961
0.16414
0.16809
0.156098
0.122189
0.0803964
0.044359
0.0265626
0.0229175
0.0209882
0.0194882
0.0168374
0.0146363
0.0132024
0.0112761
0.00993556
0.00896172
0.00864511
0.00876693
0.00956644
0.0121008
0.0145628
0.0188558
0.0179755
0.0134592
0.0126216
0.00781884
0.00722944
0.00737775
0.00762922
0.00845707
0.0132314
0.0135372
0.0134139
0.0134361
0.0132513
0.0132243
0.0130521
0.0128732
0.0126523
0.0122252
0.0119352
0.0114143
0.0111345
0.0104783
0.010505
0.0108646
0.0111647
0.0101048
0.00999564
0.00931226
0.0204229
0.0487675
0.0700689
0.078536
0.0883662
0.081078
0.0419023
0.0229899
0.00787753
0.00767574
0.00817507
0.00880266
0.00836113
0.00618204
0.00672884
0.00787548
0.0110586
0.0110077
0.0110413
0.0128827
0.0134233
0.0147988
0.0153497
0.0157517
0.0159857
0.0159435
0.0160825
0.0158175
0.0159186
0.0157243
0.0158174
0.0154133
0.0273609
0.0257634
0.0264819
0.0264993
0.0276661
0.0271292
0.0266024
0.0256042
0.0248721
0.0233351
0.0217304
0.0201462
0.0180392
0.0187727
0.018113
0.0112794
0.0107001
0.00766537
0.00773346
0.00743648
0.0102126
0.00929211
0.00780803
0.00916235
0.00673212
0.00691783
0.00724541
0.0103277
0.0108589
0.0173034
0.0173232
0.0153554
0.0163416
0.0173793
0.0187143
0.0198856
0.02132
0.0223358
0.02344
0.0253523
0.0258005
0.0240885
0.0237645
0.0226543
0.0245856
0.023555
0.0218217
0.0233902
0.0250107
0.0275053
0.0271497
0.0249578
0.0236241
0.0221993
0.0198704
0.0172285
0.0158414
0.0148267
0.0148331
0.0137846
0.0160673
0.0144715
0.0100781
0.010537
0.00814344
0.00633995
0.00601318
0.00919981
0.0131535
0.0281329
0.0175707
0.00946379
0.0108053
0.017392
0.0363164
0.0216948
0.0353469
0.0147566
0.0163571
0.0125243
0.0125085
0.013788
0.0160768
0.0171733
0.0208349
0.0235073
0.0255104
0.0264306
0.0277641
0.0281595
0.0295865
0.0300362
0.0327726
0.0330389
0.0331145
0.0326542
0.0303058
0.0272522
0.0250926
0.0310219
0.0359185
0.039156
0.0415655
0.0439882
0.0426931
0.0389478
0.0380652
0.0361305
0.035004
0.0335854
0.0304693
0.0266347
0.0218392
0.0212346
0.0272218
0.032955
0.0492061
0.0531984
0.0529359
0.0552504
0.0557637
0.0575265
0.0579722
0.0606366
0.0612191
0.0623908
0.0627318
0.0680165
0.0689168
0.0699403
0.0702682
0.0699784
0.0709623
0.0709971
0.048256
0.0432728
0.0392811
0.032621
0.0273247
0.0346699
0.0431866
0.0483519
0.0737906
0.074254
0.0779846
0.0805989
0.0855743
0.0892702
0.0941851
0.0986811
0.103103
0.106514
0.108577
0.10888
0.109343
0.108352
0.107042
0.115794
0.150426
0.167029
0.197809
0.212916
0.225391
0.229255
0.220609
0.224478
0.216447
0.219042
0.212891
0.210969
0.205775
0.199451
0.19592
0.189591
0.185536
0.213748
0.161864
0.124277
0.0826848
0.0664697
0.0597293
0.0563217
0.0587611
0.0456282
0.0390914
0.058208
0.0538398
0.0434006
0.029526
0.0187902
0.0318322
0.0474405
0.064345
0.0815716
0.0973372
0.107667
0.110269
0.109192
0.104465
0.096655
0.0815148
0.0614648
0.0423175
0.0349392
0.0322508
0.0282635
0.022283
0.0179029
0.0157728
0.0141762
0.0123979
0.0111394
0.010582
0.0107328
0.0110423
0.0132411
0.0173241
0.0173159
0.0116065
0.0111647
0.0076805
0.0077675
0.00802316
0.0133512
0.0134929
0.0209232
0.0233629
0.0220015
0.0226839
0.0224112
0.022694
0.0223249
0.0211296
0.0202889
0.0193219
0.0184801
0.0177402
0.0169198
0.0161204
0.0174264
0.0163798
0.0138195
0.0139388
0.0145518
0.0151944
0.0160796
0.0173324
0.0184101
0.0211105
0.0212957
0.0208059
0.0209054
0.0194412
0.0187325
0.0199893
0.019521
0.0132998
0.0131275
0.0191612
0.0188131
0.018692
0.022507
0.020914
0.0214341
0.0225553
0.0224309
0.0194846
0.0181247
0.0165786
0.0153989
0.0140241
0.0125119
0.0121328
0.0148656
0.013097
0.0107547
0.0119485
0.0143562
0.0169682
0.018429
0.0204137
0.0231284
0.0240961
0.0263283
0.0277464
0.0298408
0.0306806
0.0355029
0.0361784
0.0340521
0.0322071
0.0312168
0.0274508
0.0235114
0.0259296
0.0267901
0.0271651
0.027259
0.0271299
0.0235415
0.0231085
0.0215926
0.0210761
0.0195096
0.0189507
0.0177894
0.0170296
0.0160084
0.0141809
0.0134516
0.0126397
0.0122895
0.0173487
0.0108268
0.0105789
0.0159738
0.0098389
0.0115771
0.0113291
0.01185
0.0125006
0.0103408
0.0151298
0.0103145
0.0112104
0.0114423
0.0143509
0.00993022
0.0205057
0.0635113
0.0925735
0.111456
0.202614
0.243052
0.263452
0.284209
0.298451
0.314472
0.332086
0.349837
0.363003
0.364535
0.338956
0.320497
0.255525
0.228821
0.252708
0.28302
0.195225
0.167499
0.169814
0.170709
0.173333
0.174637
0.17834
0.176337
0.181483
0.177141
0.184505
0.178507
0.185075
0.177576
0.16209
0.145392
0.112637
0.101813
0.0656635
0.050845
0.0397798
0.0288611
0.0210204
0.0188605
0.017842
0.0164746
0.016557
0.0126887
0.0131126
0.00839996
0.00616765
0.00986644
0.00970858
0.00722193
0.00983996
0.0112411
0.0117591
0.012298
0.0125894
0.0192556
0.0192977
0.0247262
0.0246127
0.0291858
0.0347911
0.036024
0.0396728
0.0570218
0.0575247
0.0572696
0.0570699
0.0566338
0.0493969
0.0491149
0.048007
0.0474186
0.0444791
0.0439247
0.04185
0.0407156
0.0377793
0.0369573
0.035827
0.0362653
0.0403133
0.0551344
0.0975514
0.029244
0.027768
0.0204198
0.0145301
0.0213009
0.0158813
0.0154088
0.0135949
0.0186739
0.0134345
0.0136869
0.0164872
0.0170023
0.0163998
0.0213687
0.026626
0.0233518
0.0257532
0.115755
0.074151
0.0242452
0.0478232
0.071306
0.157104
0.203913
0.139531
0.159449
0.183665
0.166641
0.139823
0.10913
0.081384
0.0576302
0.0443216
0.0113575
0.0133477
0.0184775
0.0406703
0.0603778
0.101278
0.0832699
0.108863
0.148846
0.173369
0.209442
0.200863
0.172685
0.148555
0.145284
0.160572
0.162483
0.104906
0.10182
0.077296
0.173657
0.219117
0.184419
0.231625
0.244206
0.142516
0.0316101
0.0183386
0.0150996
0.0138994
0.0124227
0.0193795
0.0114382
0.0116308
0.012343
0.0132627
0.0169268
0.0294008
0.0134144
0.0149063
0.0183343
0.0158937
0.0149494
0.0146251
0.0145436
0.0151773
0.016547
0.021579
0.021642
0.0212744
0.015965
0.0172537
0.0156694
0.0199644
0.0211633
0.0332556
0.0152312
0.0161714
0.0214475
0.476705
0.0245811
0.0177976
0.0231766
0.0218424
0.0300481
0.04408
0.45784
0.0439431
0.0350575
0.0585642
0.0608418
0.0654934
0.06916
0.0726644
0.0751864
0.0791294
0.0817978
0.0830229
0.0842414
0.0999659
0.0999846
0.0989249
0.103526
0.0976751
0.0577025
0.0579258
0.097515
0.105261
0.0594755
0.0410804
0.0385791
0.0312752
0.0324166
0.0419711
0.0440324
0.0617191
0.0615499
0.102656
0.0936075
0.0950043
0.0967343
0.0917137
0.0921695
0.0942396
0.0941774
0.0753617
0.0730658
0.0713087
0.0682491
0.064713
0.0618124
0.0589087
0.0558293
0.0532092
0.0532896
0.0580079
0.0583218
0.0659842
0.0728725
0.220719
0.149841
0.107079
0.0795388
0.0648649
0.0588263
0.0584371
0.0616314
0.0648651
0.0665294
0.0673336
0.0706837
0.0924529
0.0949271
0.097802
0.0952368
0.0990786
0.0971505
0.0946867
0.104604
0.112456
0.065728
0.0678117
0.047892
0.0447023
0.0326219
0.0331938
0.0236828
0.0196314
0.0196033
0.0195851
0.0198244
0.0227246
0.0317757
0.0318716
0.0465782
0.046467
0.0518887
0.0755152
0.0725563
0.12939
0.118564
0.108871
0.101515
0.10189
0.104002
0.106593
0.101574
0.0977814
0.0922186
0.0724284
0.0684382
0.0662994
0.0650364
0.0637488
0.0671648
0.0903813
0.146193
0.223709
0.328925
0.429754
0.440952
0.399526
0.248828
0.289293
0.143696
0.164389
0.1863
0.161073
0.17026
0.319258
0.265595
0.375792
0.481393
0.535324
0.601848
0.638774
0.626417
0.496927
0.322672
0.330197
0.439594
0.768398
0.861893
0.744571
0.762725
0.659345
0.541341
0.523
0.498411
0.562514
0.613693
0.579143
0.596362
0.540475
0.516029
0.445911
0.49765
0.363633
0.327526
0.307887
0.299031
0.358329
0.289942
0.326544
0.268358
0.274557
0.223063
0.22858
0.190831
0.146087
0.138481
0.128366
0.143701
0.162857
0.149175
0.153508
0.134026
0.114507
0.0911947
0.0984682
0.0735458
0.0695467
0.0705961
0.0803484
0.125787
0.367993
0.173168
0.163435
0.16762
0.177997
0.319144
0.282768
0.725127
0.508347
0.711487
0.475253
0.564213
0.472145
0.364233
0.379822
0.419809
0.600627
0.824271
6.66059
0.284876
4.26798
3.16795
3.32611
3.4715
4.44952
7.81506
7.11331
9.39994
6.80867
9.08357
4.97492
4.97654
4.32585
4.47107
4.4386
4.26156
5.18936
6.62612
0.238419
0.0909569
0.0854235
0.0856079
0.0873841
0.197726
0.0525631
0.202023
0.0539706
0.213496
0.0495298
0.246705
0.196925
0.0382413
0.0192588
0.0200911
0.0168075
0.0203756
0.0169229
0.0250468
0.0235419
0.0236985
0.0265819
0.0761986
0.291801
13.7755
1.65234
0.68866
0.787854
1.17968
0.801347
1.20106
1.66878
1.12229
0.559758
0.366272
0.431943
0.522107
0.498707
0.636995
0.917605
0.898155
0.70608
0.710299
0.625422
0.883561
0.892631
1.05883
1.23694
1.13253
0.886779
0.698391
0.589859
1.01813
1.02436
0.957916
0.404628
0.113773
0.0466845
0.0488485
0.0355778
0.0375813
0.0347561
0.0546399
0.159637
0.219643
0.132192
0.42855
0.414011
0.564783
0.403192
0.413175
0.326095
0.350474
0.534308
0.583845
0.643739
0.675127
0.725575
0.6692
1.28489
2.19828
2.48635
12.8324
17.4119
3.19794
3.0959
13.9502
0.314976
0.0838696
0.023312
0.0174301
0.0162168
0.0161299
0.0150011
0.0155386
0.0160003
0.0169643
0.0188304
0.0231987
0.0458422
0.201521
0.203496
0.064362
0.0324376
0.0229736
0.0196179
0.0170474
0.0163878
0.0155322
0.0154599
0.0150084
0.015658
0.0174643
0.0237815
0.0774483
0.27118
11.3384
2.43953
2.25867
8.38864
5.79905
0.206828
0.0438082
0.0200967
0.0169279
0.0158847
0.016755
0.0162666
0.0182124
0.0184035
0.0230186
0.025025
0.0317745
0.0571006
0.110243
0.315786
9.60117
8.67095
8.39464
7.82866
0.31041
0.115278
0.054418
0.0382402
0.0346303
0.0338241
0.0226514
0.0236769
0.0189842
0.0216449
0.0182975
0.0226881
0.0483296
0.212004
5.35668
1.57338
1.70419
1.21111
0.613823
0.656331
0.67009
0.689577
1.77434
4.05564
4.98878
3.42727
3.36139
4.70693
3.17102
2.48183
1.82904
1.74802
2.54656
1.96428
1.82675
1.35739
1.46696
1.06866
1.46852
0.81194
0.97801
1.07414
1.53278
1.39899
1.41201
0.909568
1.05173
1.47688
1.72768
1.65163
0.844916
1.22864
1.01521
0.655464
0.607871
0.634247
0.603917
0.578445
0.575431
0.579987
0.55899
0.576496
0.556781
0.588929
0.548641
0.533694
0.507724
0.52736
0.544723
0.577265
0.360094
0.42245
0.426995
0.441437
0.453891
0.374866
0.451031
0.441782
0.659188
0.995248
0.83317
1.1488
0.678446
1.00371
2.00835
5.21277
2.34143
0.818769
1.34848
1.58532
1.13997
0.628615
2.55446
3.56294
1.23147
1.78697
10.3935
8.43964
16.525
10.9682
18.6217
6.03177
4.63479
17.7988
6.6713
6.90572
4.51227
4.51978
2.95798
1.5845
1.6277
1.74014
1.22651
1.29886
1.20915
1.13393
1.47414
1.43898
1.88473
2.03413
2.57609
1.81129
1.77438
2.59556
1.06344
1.39866
1.83625
1.82796
1.35909
2.33962
3.15425
2.96297
2.13489
2.33463
3.50186
4.81458
4.57025
3.1635
3.959
10.1256
13.5115
13.6827
4.22121
19.3278
18.3075
2.07258
0.563455
0.322238
0.0888706
0.0443835
0.0366297
0.038684
0.143438
0.0458104
0.0570132
0.0454498
0.0727098
0.0696543
0.0870065
0.217227
0.126149
0.215144
0.154986
0.18881
0.120475
0.192677
0.225876
0.235668
0.18765
0.115115
0.212126
0.305514
0.105477
0.353021
0.388171
0.258985
0.330939
0.394225
0.19561
0.992408
0.184667
0.126454
0.145814
0.391078
1.25529
0.21717
0.459797
4.47187
14.7185
3.67502
0.935165
0.677572
0.0553817
0.0300562
0.0316538
0.0278039
0.0193857
0.083547
0.098107
0.403541
0.207699
0.278324
0.662363
2.93322
2.40126
1.12355
5.48655
10.2837
15.1628