/*--------------------------------*- C++ -*----------------------------------*\
| =========                 |                                                 |
| \\      /  F ield         | OpenFOAM: The Open Source CFD Toolbox           |
|  \\    /   O peration     | Version:  v2012                                 |
|   \\  /    A nd           | Website:  www.openfoam.com                      |
|    \\/     M anipulation  |                                                 |
\*---------------------------------------------------------------------------*/
FoamFile
{
    version     2.0;
    format      ascii;
    class       volVectorField;
    location    "820";
    object      U;
}
// * * * * * * * * * * * * * * * * * * * * * * * * * * * * * * * * * * * * * //

dimensions      [0 1 -1 0 0 0 0];


internalField   nonuniform List<vector> 
18258
(
(-0.176689 0.114552 0.138869)
(-0.0519327 0.24539 0.158884)
(-0.105127 0.21284 0.0963813)
(-0.0402923 0.0689008 0.0845523)
(-0.226646 0.20106 0.0189636)
(-0.159897 0.359234 0.0174689)
(-0.223568 0.0442053 0.0545416)
(-0.342198 -0.0537601 0.0757157)
(-0.44974 -0.106226 0.10849)
(-0.53678 -0.159992 0.145919)
(-0.622366 -0.217479 0.18008)
(-0.688477 -0.271859 0.309755)
(-0.679078 -0.334566 0.357345)
(-0.62239 -0.44575 0.385872)
(-0.487737 -0.543051 0.369269)
(-0.204379 -0.586728 0.339825)
(0.0742535 -0.373483 0.287583)
(0.0798945 -0.165364 0.298334)
(-0.125045 -0.0781828 0.235621)
(-0.392067 -0.27428 0.115106)
(-0.133401 -0.522843 0.287484)
(-0.18747 -0.362325 0.405556)
(-0.289018 -0.732938 0.298312)
(-0.34584 -0.773374 0.262141)
(-0.124733 -0.709405 0.140364)
(0.0100291 -0.645368 0.187277)
(-0.0121066 -0.337121 0.421257)
(0.177561 -0.111521 0.800227)
(0.301004 -0.0946099 0.885267)
(0.318403 0.0585577 0.900305)
(0.321692 0.191283 0.797421)
(0.162511 0.302575 0.0541547)
(0.088907 0.115054 -0.438784)
(0.0260227 0.0669221 -0.736427)
(-0.0561569 0.0699395 -0.906458)
(-0.047167 0.0682329 -1.08688)
(-0.0618742 0.0681394 -1.23088)
(-0.0893255 0.0866117 -1.32873)
(-0.12822 0.0769976 -1.37802)
(-0.173444 0.0820953 -1.36432)
(-0.221654 0.0679273 -1.27997)
(-0.266762 0.0761513 -1.12567)
(-0.304107 0.0707706 -0.914269)
(-0.334258 0.0703012 -0.657961)
(-0.345181 0.0714443 -0.3619)
(-0.331377 0.0681335 -0.160894)
(-0.172414 0.134809 -0.205703)
(0.316533 -0.0829727 -0.14267)
(0.572648 -0.128561 -0.165304)
(0.642323 -0.108847 -0.17217)
(0.763959 -0.135327 -0.17955)
(0.798309 -0.135551 -0.1958)
(0.501885 -0.0119734 -0.257898)
(0.258514 -0.138696 -0.219137)
(0.113276 -0.0438394 -0.159146)
(0.280947 -0.010701 -0.169217)
(0.535057 -0.00315588 -0.173793)
(0.788842 -0.0302553 -0.177999)
(1.08901 -0.0347193 -0.175725)
(1.42461 -0.0487775 -0.18518)
(1.75919 -0.0644929 -0.183584)
(2.04343 -0.0810843 -0.166729)
(2.24432 -0.0928166 -0.138353)
(2.34487 -0.0989901 -0.102819)
(2.35204 -0.0963608 -0.0683177)
(2.2922 -0.0887126 -0.0417222)
(2.19906 -0.0822095 -0.0250633)
(2.1069 -0.0760784 -0.0183146)
(2.0377 -0.0672785 -0.0193128)
(1.99221 -0.0644436 -0.0239464)
(1.96796 -0.0593006 -0.0263438)
(1.95744 -0.0504026 -0.0207912)
(1.94319 -0.0399034 -0.00378677)
(1.89972 -0.0250907 0.0237809)
(1.81218 -0.00805369 0.0533622)
(1.69132 0.00930823 0.0766272)
(1.57052 0.0214923 0.0794656)
(1.47781 0.0304509 0.0748284)
(1.39973 0.0374756 0.0701786)
(1.33763 0.0501415 0.0628184)
(1.28683 0.0567933 0.0645499)
(1.1932 0.0439552 0.0779932)
(1.09605 0.0186569 0.109411)
(1.01303 0.000352915 0.126802)
(0.905683 -0.0212539 0.119642)
(0.761714 0.0164802 0.144993)
(0.640992 0.0815157 0.132613)
(0.517334 0.100486 0.133387)
(0.380329 0.117878 0.117751)
(0.223988 0.126704 0.0955934)
(0.119897 0.189751 0.0911903)
(0.121596 0.0108165 0.196693)
(0.163995 -0.100717 0.142613)
(0.112985 -0.12977 0.038234)
(0.104414 -0.114943 -0.14377)
(0.216344 -0.210058 -0.372599)
(0.262487 -0.231638 -0.557665)
(0.204025 -0.138303 -0.730029)
(0.105503 -0.0800602 -0.712414)
(0.0362278 0.0595831 -0.487148)
(-0.093883 0.233403 -0.146316)
(-0.217411 0.192619 0.182231)
(-0.234788 0.0644264 0.157114)
(-0.340847 0.0143212 0.171666)
(-0.274787 0.136435 0.18087)
(-0.249207 0.285312 -0.038935)
(-0.106659 0.165238 -0.400069)
(0.0630216 0.00554681 -0.582798)
(0.332936 -0.0933728 -0.63252)
(0.495048 -0.229486 -0.491242)
(0.351168 -0.21071 -0.28213)
(0.271524 -0.191989 -0.102444)
(0.282715 -0.18676 0.0378302)
(0.280439 -0.140085 0.159013)
(0.224828 -0.098933 0.190683)
(0.39597 -0.0814075 0.17969)
(0.535034 -0.063409 0.175245)
(0.587506 -0.0521864 0.163446)
(0.699368 -0.0788544 0.159495)
(0.731762 -0.133812 0.131002)
(0.600357 -0.134323 0.133802)
(0.453991 -0.151804 0.138336)
(0.461062 -0.185966 0.0336455)
(0.610294 -0.16288 0.0495773)
(0.735636 -0.16207 0.047059)
(0.904096 -0.141759 0.079456)
(1.08777 -0.109866 0.109097)
(1.18916 -0.07774 0.146715)
(1.20812 -0.0108044 0.138661)
(1.2453 -0.00919557 0.119311)
(1.3354 -0.00706564 0.138806)
(1.37732 -0.00185664 0.128861)
(1.36897 -0.0125996 0.1575)
(1.32842 -0.048207 0.192498)
(1.32276 -0.0511256 0.189412)
(1.28572 -0.0619889 0.150458)
(1.279 -0.0601475 0.133549)
(1.25797 -0.0476172 0.107247)
(1.24942 -0.0456012 0.109322)
(1.20133 0.00479144 0.108244)
(1.19429 0.0282644 0.136971)
(1.07673 0.137357 0.270788)
(1.22606 0.0531683 0.25342)
(1.21778 0.0203706 0.157783)
(1.26649 -0.0206931 0.127118)
(1.27866 -0.0248836 0.117831)
(1.28915 -0.0381596 0.142699)
(1.30803 -0.0414809 0.182024)
(1.35051 -0.0367115 0.216012)
(1.38631 -0.0367076 0.220952)
(1.42318 -0.0128521 0.182259)
(1.4365 -0.00203925 0.137209)
(1.51271 -0.00663521 0.150331)
(1.61073 -0.0168165 0.158456)
(1.74996 -0.0317208 0.142878)
(1.88203 -0.0543008 0.0483425)
(1.96341 -0.0757721 -0.0718352)
(1.98272 -0.0906353 -0.164906)
(1.96522 -0.0966617 -0.201162)
(1.94881 -0.097009 -0.195129)
(1.95885 -0.091398 -0.17538)
(2.00564 -0.0828784 -0.145047)
(2.08682 -0.0704754 -0.108556)
(2.19766 -0.0602995 -0.0848441)
(2.31135 -0.0599815 -0.113756)
(2.38769 -0.0610385 -0.174085)
(2.38986 -0.0585785 -0.277774)
(2.2836 -0.0502531 -0.392715)
(2.06796 -0.0425265 -0.483873)
(1.76752 -0.036702 -0.540185)
(1.42374 -0.0315618 -0.548901)
(1.07789 -0.0193386 -0.527734)
(0.789686 -0.0245194 -0.459444)
(0.534478 -0.0162311 -0.415579)
(0.281447 -0.0220209 -0.38691)
(0.108722 -0.0412372 -0.36077)
(0.101771 -0.0430092 -0.637286)
(0.0769537 -0.0379114 -0.87327)
(0.0503563 -0.0397069 -1.05778)
(0.0116227 -0.0408907 -1.17658)
(-0.0233972 -0.0285559 -1.21671)
(-0.0599259 -0.0161213 -1.16983)
(-0.0936205 0.00256836 -1.04178)
(-0.119005 0.0250928 -0.827875)
(-0.121757 0.0787983 -0.565594)
(-0.145179 0.133312 -0.0654924)
(-0.190412 0.0291407 0.558557)
(-0.206539 -0.0320464 0.745858)
(-0.225347 -0.000861231 0.91584)
(-0.23061 -0.0430476 1.05968)
(-0.316567 -0.101936 1.12179)
(-0.370288 -0.106987 1.13628)
(-0.368349 -0.22967 0.999981)
(-0.294474 -0.248171 0.769235)
(-0.457862 -0.662648 0.686847)
(-0.486183 -0.539271 0.704177)
(-0.414234 -0.40783 0.830333)
(-0.551558 -0.762218 0.851251)
(-0.687947 -0.828771 0.599936)
(-0.477637 -0.751275 0.797864)
(-0.438188 -0.573426 0.738584)
(-0.787101 -0.523816 0.743632)
(-0.906119 -0.407354 0.852178)
(-0.53245 -0.704142 0.815005)
(-0.441739 -0.576817 0.655957)
(-0.320013 -0.315226 0.396039)
(-0.298365 -0.175103 0.389612)
(-0.281032 -0.139607 0.341529)
(-0.231272 0.121452 0.103423)
(-0.163029 0.29141 -0.422505)
(-0.1535 0.178286 -0.640106)
(-0.132372 0.0255262 -0.916167)
(-0.0870961 -0.058791 -1.08667)
(-0.0292109 -0.0705654 -1.23445)
(0.0374827 -0.103168 -1.26891)
(0.0969011 -0.0993995 -1.23384)
(0.171005 -0.110332 -1.11999)
(0.214886 -0.124089 -0.920166)
(0.258962 -0.147536 -0.705712)
(0.248082 -0.139888 -0.398939)
(0.415073 -0.0554114 -0.637939)
(0.758589 -0.119565 -0.46044)
(0.707476 -0.108529 -0.418381)
(0.600535 -0.0711875 -0.414314)
(0.509146 -0.104974 -0.4278)
(0.0834593 -0.108225 -0.546227)
(0.144304 -0.118841 -0.94553)
(0.23572 -0.225163 -1.09734)
(0.329743 -0.283958 -0.981449)
(0.390622 -0.352115 -0.549204)
(0.201542 -0.00149181 0.162206)
(0.259641 0.104816 0.167213)
(0.429113 -0.323058 0.334104)
(0.515603 -0.528617 0.503601)
(0.544624 -0.522044 0.553369)
(0.412449 -0.234445 0.674567)
(0.47146 -0.336798 0.567651)
(0.48657 -0.607736 0.554325)
(0.702278 -0.671194 0.322554)
(0.744476 -0.485619 0.46125)
(0.795302 -0.344769 0.601703)
(0.230679 -0.223217 0.574171)
(-0.243427 -0.266567 0.820296)
(-0.181098 -0.191263 0.670203)
(-0.676692 -0.298506 0.813122)
(-0.476165 -0.177678 0.685585)
(-0.325454 -0.000514188 0.532497)
(-0.219296 0.170784 -0.293753)
(-0.193846 -0.0503658 -0.618595)
(-0.0572572 -0.171196 -1.10064)
(0.10286 -0.160812 -1.24958)
(0.272788 -0.0911112 -1.11827)
(0.425702 -0.107943 -0.705192)
(0.490647 -0.074289 -0.632794)
(0.47979 -0.0412555 -0.626388)
(0.514372 -0.0863195 -0.658835)
(0.570787 -0.119455 -0.7516)
(0.386556 -0.0411197 -0.698235)
(0.349232 -0.0791239 -0.676325)
(0.127537 -0.113516 -0.680552)
(-0.111286 -0.0507586 -0.591247)
(0.285304 -0.00304033 -0.603897)
(0.340466 0.00946662 -0.628627)
(0.626068 -0.101906 -0.666651)
(0.576201 -0.100007 -0.419706)
(0.270466 0.0650824 -0.39711)
(0.284105 0.0487922 -0.30093)
(-0.306744 -0.0467433 0.0748902)
(-0.306635 0.139615 -0.0262712)
(-0.281708 -0.0275522 -0.458041)
(0.0823685 -0.200056 -0.585481)
(0.353092 -0.278587 -0.575364)
(0.71448 -0.344513 -0.410612)
(0.802223 -0.418178 -0.380376)
(0.762284 -0.291255 -0.297073)
(0.804091 -0.365009 -0.220882)
(0.819612 -0.486113 -0.286587)
(0.72951 -0.428975 -0.282618)
(0.704736 -0.302455 -0.336426)
(0.734273 -0.251 -0.345222)
(0.780341 -0.310469 -0.214167)
(0.792525 -0.366051 -0.162748)
(0.884328 -0.465989 -0.157787)
(1.15283 -0.631909 -0.118581)
(1.61282 -0.726933 -0.099541)
(1.99095 -0.672817 -0.0387319)
(2.14834 -0.491208 0.0468711)
(2.06935 -0.292373 0.0949306)
(1.90464 -0.164256 0.10264)
(1.80723 -0.095813 0.0991941)
(1.71048 -0.000668668 0.09875)
(1.57291 0.0876868 0.0908992)
(1.43548 0.10596 0.047887)
(1.33092 0.0562172 0.0271269)
(1.24106 -0.0058097 0.0213911)
(1.13924 -0.0552324 0.0230669)
(1.0553 -0.0798168 0.0212124)
(0.997422 -0.0632959 0.0167091)
(0.821104 -0.110893 -0.0240922)
(0.716226 0.00158719 0.00943811)
(0.632938 0.0676503 0.00861636)
(0.497341 0.0221967 0.00626939)
(0.359216 -0.0615459 -0.0134025)
(0.138953 -0.147277 -0.0323943)
(0.225443 -0.308532 0.00128233)
(0.353188 -0.0820761 0.0119749)
(-0.0026095 -0.230447 -0.00925588)
(0.042877 -0.546215 -0.0505458)
(0.0118699 -0.712765 -0.0526874)
(-0.00817418 -0.876686 -0.0533117)
(-0.0261351 -1.00672 -0.0650449)
(-0.0361837 -1.10263 -0.0959753)
(-0.0467494 -1.15698 -0.105282)
(-0.0583125 -1.21423 -0.118418)
(-0.0885614 -1.27592 -0.134412)
(-0.113668 -1.32058 -0.14973)
(-0.137649 -1.35422 -0.16265)
(-0.159681 -1.37581 -0.173708)
(-0.178704 -1.38708 -0.183369)
(-0.194107 -1.38869 -0.190077)
(-0.206254 -1.38157 -0.193932)
(-0.216304 -1.36685 -0.19406)
(-0.224903 -1.34494 -0.192157)
(-0.233228 -1.31446 -0.186726)
(-0.240931 -1.27353 -0.178384)
(-0.246404 -1.21925 -0.165338)
(-0.244291 -1.15009 -0.147579)
(-0.191267 -1.07063 -0.127187)
(-0.141438 -0.968082 -0.112873)
(-0.166056 -0.867708 -0.0797475)
(-0.190111 -0.753899 -0.0821664)
(-0.205355 -0.542527 -0.085764)
(-0.274295 -0.449721 -0.0922459)
(0.0219743 0.0537969 -0.116502)
(-0.35095 -0.307948 0.0249175)
(-0.23194 -0.617037 -0.0549168)
(-0.270725 -0.0991432 -0.0113565)
(-0.458401 -0.182312 0.0644608)
(-0.679056 -0.198589 0.0822644)
(-0.842414 -0.209224 0.114119)
(-0.953741 -0.223126 0.144267)
(-1.0343 -0.232546 0.203862)
(-1.11745 -0.244351 0.245411)
(-1.18653 -0.244307 0.302132)
(-1.20021 -0.248609 0.336377)
(-1.17336 -0.250447 0.36626)
(-1.10668 -0.249239 0.394525)
(-0.996293 -0.243652 0.422666)
(-0.842268 -0.230763 0.454011)
(-0.669231 -0.206657 0.493328)
(-0.422145 -0.147654 0.541818)
(-0.141231 -0.11769 0.564994)
(-0.161308 0.0287913 0.821296)
(-0.165435 0.0832093 1.04245)
(-0.165218 0.115566 1.11311)
(-0.166289 0.164819 1.02248)
(-0.168721 0.153604 0.840503)
(-0.153797 0.131303 0.570225)
(-0.121825 0.143765 0.288119)
(-0.22326 0.441636 0.372753)
(-0.504686 0.469058 0.335996)
(-0.689346 0.481802 0.340306)
(-0.914295 0.466575 0.33376)
(-1.09661 0.42572 0.309599)
(-1.22394 0.354152 0.266697)
(-1.27992 0.274021 0.219378)
(-1.26283 0.206684 0.18196)
(-1.23028 0.148411 0.158633)
(-1.18764 0.115665 0.140667)
(-1.09832 0.0929146 0.0903988)
(-0.956898 0.045509 0.0700294)
(-0.765927 -0.0204517 0.0595384)
(-0.499879 -0.113759 0.0190849)
(-0.252615 -0.207725 -0.019097)
(-0.273941 -0.197575 -0.0662678)
(-0.317966 -0.176948 0.00816876)
(-0.314148 -0.174138 0.0592064)
(-0.272306 -0.15651 0.150259)
(-0.380316 -0.233472 0.117756)
(-0.422026 -0.296608 0.117728)
(-0.325993 -0.287651 0.176166)
(-0.268935 -0.214661 0.0439775)
(-0.140518 -0.100482 -0.0272214)
(-0.14057 -0.0766521 -0.00894235)
(-0.138657 -0.0739568 -0.0368938)
(-0.169557 -0.0555297 -0.069079)
(-0.167934 -0.501193 -0.149925)
(-0.126374 -0.479125 -0.140149)
(-0.110551 -0.446577 -0.097829)
(-0.100318 -0.423447 -0.147439)
(-0.265845 -0.53728 -0.0326261)
(-0.27537 -0.574483 -0.0270529)
(-0.282464 -0.630642 -0.0856098)
(-0.336293 -0.582152 -0.0217006)
(-0.339365 -0.529312 0.0538449)
(-0.300819 -0.358673 0.0839475)
(-0.443541 -0.316682 0.113955)
(-0.360611 -0.431296 0.0394264)
(-0.346167 -0.521974 0.0127149)
(-0.376911 -0.507953 -0.0250675)
(-0.427635 -0.394074 0.0311305)
(-0.496385 -0.346213 0.0723419)
(-0.527966 -0.254614 0.163321)
(-0.590213 -0.21524 0.241053)
(-0.679097 -0.197322 0.255708)
(-0.575754 -0.206484 0.21126)
(-0.516233 -0.187607 0.180961)
(-0.54455 -0.184784 0.117695)
(-0.539154 -0.171843 0.0918376)
(-0.49592 -0.183995 0.000772336)
(-0.760993 -0.086374 0.0644982)
(-0.970675 -0.00510794 0.0896588)
(-1.07801 0.0524891 0.103601)
(-1.12708 0.0754133 0.138268)
(-1.16454 0.0360907 0.238021)
(-1.24884 0.0693244 0.267358)
(-1.31433 0.119761 0.349375)
(-1.32771 0.171264 0.432329)
(-1.27016 0.222372 0.525103)
(-1.14507 0.261313 0.605047)
(-0.972384 0.281424 0.649862)
(-0.772898 0.283084 0.659156)
(-0.621942 0.28793 0.646062)
(-0.342449 0.271841 0.646864)
(-0.437079 0.243401 0.876879)
(-0.469549 0.225742 1.00482)
(-0.462712 0.177902 1.08315)
(-0.443712 0.121741 1.01539)
(-0.442228 0.0571292 0.798511)
(-0.712625 -0.00595294 0.745036)
(-0.723091 0.0704144 0.945872)
(-0.741573 0.116283 1.02441)
(-0.745906 0.163206 0.980432)
(-0.695043 0.197865 0.873538)
(-0.836384 0.185714 0.863406)
(-0.878991 0.145164 0.965814)
(-0.882469 0.0877499 1.00168)
(-0.873162 0.0413452 0.927038)
(-0.867116 -0.0395561 0.707349)
(-1.00959 -0.0606718 0.676097)
(-1.02369 0.0201308 0.901635)
(-1.03617 0.069207 0.966804)
(-1.04376 0.121664 0.94499)
(-1.0182 0.173832 0.855186)
(-1.16156 0.163029 0.80514)
(-1.16255 0.11044 0.893627)
(-1.14634 0.0569609 0.915188)
(-1.12964 0.00622481 0.859863)
(-1.11007 -0.0733278 0.64033)
(-1.16988 -0.0838634 0.595724)
(-1.19492 -0.00633133 0.797265)
(-1.22087 0.0435689 0.840684)
(-1.24983 0.091858 0.812316)
(-1.26724 0.141557 0.717821)
(-1.31694 0.111091 0.61092)
(-1.28858 0.06896 0.709909)
(-1.25042 0.0250385 0.747763)
(-1.21537 -0.0217596 0.716757)
(-1.18572 -0.0935682 0.54)
(-1.15248 -0.104728 0.472929)
(-1.18019 -0.0413481 0.621674)
(-1.21874 0.000289089 0.641127)
(-1.27289 0.0393106 0.606946)
(-1.30586 0.0745105 0.50962)
(-1.22321 0.0359506 0.414662)
(-1.18642 0.00306311 0.500463)
(-1.12681 -0.0320564 0.531451)
(-1.08483 -0.0600143 0.520398)
(-1.03899 -0.111744 0.386953)
(-0.918279 -0.120096 0.315311)
(-0.922399 -0.109306 0.358266)
(-0.971468 -0.0802959 0.438365)
(-0.955338 -0.086938 0.425132)
(-0.926445 -0.102474 0.394751)
(-1.00311 -0.0682217 0.381502)
(-0.994987 -0.0628364 0.307507)
(-0.999771 -0.0389471 0.282877)
(-1.04294 -0.0269623 0.209242)
(-1.03802 -0.00927211 0.202547)
(-0.805566 -0.104898 0.145357)
(-0.818408 -0.124954 0.157846)
(-0.787336 -0.128143 0.216206)
(-0.82305 -0.141213 0.249326)
(-0.609024 -0.281257 0.13262)
(-0.556067 -0.29095 0.11432)
(-0.502652 -0.326326 0.131889)
(-0.419356 -0.398963 0.115405)
(-0.396165 -0.383476 0.14887)
(-0.487336 -0.283775 0.164738)
(-0.605089 -0.23873 0.183237)
(-0.614168 -0.267394 0.0962613)
(-0.512487 -0.377308 0.0432712)
(-0.438762 -0.459357 0.0274114)
(-0.396622 -0.525606 0.0570239)
(-0.383384 -0.697121 0.121251)
(-0.386532 -0.662567 0.127154)
(-0.404769 -0.379869 0.106025)
(-0.407609 -0.535928 0.0804673)
(-0.398548 -0.601213 0.0426646)
(-0.215218 -0.787137 -0.160166)
(-0.193007 -0.792845 -0.260548)
(-0.115134 -0.702886 -0.369753)
(-0.0784319 -0.622864 -0.385737)
(-0.0449785 -0.587504 -0.348031)
(-0.0134148 -0.554449 -0.301523)
(0.0316934 -0.500465 -0.231825)
(0.124008 -0.453947 -0.108728)
(0.124574 -0.57827 -0.121736)
(0.116699 -0.634344 -0.119987)
(0.0848188 -0.692075 -0.157479)
(0.092265 -0.746542 -0.155738)
(0.10043 -0.803116 -0.174956)
(0.118197 -0.831352 -0.167012)
(0.126198 -0.838021 -0.152754)
(0.126346 -0.824077 -0.130086)
(0.117562 -0.787983 -0.0955371)
(0.10404 -0.731026 -0.0420996)
(0.0360247 -0.650119 0.03429)
(0.0021919 -0.540449 0.155964)
(0.016844 -0.293252 0.362741)
(-0.152223 0.0225685 0.448645)
(-0.369372 0.097786 0.34914)
(-0.393624 -0.037497 0.257153)
(-0.220414 -0.17301 0.251899)
(-0.181592 -0.190125 0.268618)
(-0.158661 -0.179877 0.215241)
(-0.093345 -0.146188 0.206802)
(-0.00200456 -0.0411976 0.0736606)
(-0.035536 0.10723 0.081641)
(-0.0808844 0.145324 0.0810091)
(-0.0493251 0.210553 0.172101)
(-0.00518304 0.177522 0.194268)
(0.0147036 0.0285311 0.144161)
(-0.0472462 -0.0333536 0.229559)
(0.0237675 0.0879258 0.3263)
(-0.00369086 -0.0673285 0.28823)
(0.0756636 0.141295 0.250022)
(0.0902131 -0.0233414 0.226384)
(-0.0222929 -0.251365 0.455231)
(0.0484506 -0.354231 0.545054)
(0.17158 -0.496628 0.516597)
(0.169146 -0.688905 0.354139)
(0.0766176 -0.813686 0.146094)
(0.0588302 -0.886139 -0.00661003)
(0.0654992 -0.921208 -0.118955)
(0.0633751 -0.947676 -0.197345)
(0.0603234 -0.962345 -0.248599)
(0.052219 -0.960609 -0.279433)
(0.0420708 -0.940768 -0.292878)
(0.0294758 -0.903267 -0.289743)
(0.023883 -0.828348 -0.249823)
(0.00748088 -0.782813 -0.32892)
(0.0436456 -0.701943 -0.225316)
(0.047726 -0.651856 -0.211231)
(0.0449325 -0.634598 -0.231987)
(0.00477859 -0.700534 -0.325468)
(-0.0224605 -0.740283 -0.383425)
(-0.0572002 -0.775815 -0.411186)
(-0.0730528 -0.842672 -0.402117)
(-0.131592 -0.90309 -0.346696)
(-0.09361 -0.967394 -0.332997)
(-0.0885981 -0.978012 -0.373937)
(-0.053598 -0.916683 -0.41856)
(-0.0434315 -0.866593 -0.432297)
(-0.0176357 -0.824223 -0.404598)
(-0.0093895 -0.86753 -0.341598)
(-0.0390677 -0.900021 -0.374692)
(-0.0557495 -0.946849 -0.397279)
(-0.0234779 -0.989768 -0.406406)
(-0.0483998 -1.05819 -0.421438)
(-0.0664028 -1.04099 -0.425159)
(-0.0930183 -0.918928 -0.346013)
(-0.185901 -0.760649 -0.225326)
(-0.196961 -0.613909 -0.0421218)
(-0.0991907 -0.732238 -0.198589)
(-0.079118 -0.838097 -0.261299)
(-0.0591236 -0.927227 -0.325161)
(-0.0608243 -0.944805 -0.33586)
(-0.0278796 -0.828133 -0.383307)
(-0.024083 -0.723223 -0.339746)
(-0.032206 -0.540699 -0.256807)
(-0.0165292 -0.352785 -0.166923)
(0.0362175 -0.0884919 -0.21279)
(-0.245636 -0.432641 0.0721975)
(-0.326883 -0.46029 0.0257709)
(0.217185 -0.119584 -0.243243)
(-0.172825 -0.247059 0.0418026)
(-0.21782 -0.266158 -0.118746)
(-0.258121 -0.268437 -0.104645)
(-0.208187 -0.28133 -0.0223063)
(0.080912 0.141285 -0.220127)
(0.102491 0.0602402 -0.233308)
(0.100656 9.22708e-05 -0.262741)
(0.0957276 -0.000409786 -0.267216)
(-0.0805796 -0.428939 -0.203653)
(-0.133468 -0.449337 -0.224053)
(-0.186669 -0.457672 -0.207755)
(-0.249647 -0.444537 -0.169891)
(-0.169237 -0.546739 -0.1849)
(-0.127066 -0.558453 -0.258286)
(-0.0965171 -0.56469 -0.292828)
(-0.0609815 -0.552891 -0.293487)
(-0.0510793 -0.74172 -0.350663)
(-0.081821 -0.756396 -0.333365)
(-0.106545 -0.768765 -0.28273)
(-0.147413 -0.75916 -0.195407)
(-0.134711 -0.820871 -0.182907)
(-0.128981 -0.881713 -0.200949)
(-0.0982854 -0.904264 -0.298368)
(-0.0728267 -0.871309 -0.375095)
(-0.0494491 -0.851 -0.401771)
(-0.0770692 -0.966444 -0.372187)
(-0.112373 -0.988256 -0.336867)
(-0.138328 -1.00855 -0.284596)
(-0.13745 -1.09115 -0.347644)
(-0.0802579 -1.06535 -0.400415)
(-0.0727011 -1.14299 -0.441832)
(-0.0493161 -1.12134 -0.474416)
(-0.0267471 -1.11221 -0.459635)
(-0.00309047 -1.04031 -0.416008)
(0.0123028 -1.07227 -0.406984)
(-0.0125821 -1.15076 -0.470363)
(-0.0398529 -1.17799 -0.494935)
(-0.06874 -1.2063 -0.463724)
(-0.131839 -1.22697 -0.379669)
(-0.135187 -1.16464 -0.369826)
(-0.284012 -1.04505 -0.225456)
(-0.458001 -1.14473 -0.0769292)
(-0.464407 -1.09874 -0.0674773)
(-0.416587 -1.0443 -0.0648537)
(-0.303367 -1.03479 -0.0739902)
(-0.256064 -0.966064 -0.0642196)
(-0.309693 -0.943617 -0.0577991)
(-0.342822 -0.84791 -0.0423577)
(-0.378522 -0.712748 -0.0380275)
(-0.474248 -0.626193 -0.0368354)
(-0.410388 -0.401152 -0.0342882)
(-0.46558 -0.660226 -0.00590618)
(-0.31729 -0.457272 0.0245013)
(-0.638944 -0.398562 0.005444)
(-0.815723 -0.379288 0.0601752)
(-0.918055 -0.384506 0.0846719)
(-0.967858 -0.39732 0.124413)
(-0.979906 -0.525317 0.0978076)
(-0.940466 -0.689313 0.0653942)
(-0.924236 -0.75002 0.0525204)
(-0.87486 -0.848266 0.0364802)
(-0.859281 -0.895413 0.0305114)
(-0.821499 -0.927582 0.00764336)
(-0.70429 -0.967023 -0.0229883)
(-0.593151 -1.00138 -0.0420137)
(-0.627405 -0.952031 -0.0172132)
(-0.485616 -0.970889 -0.0307591)
(-0.503544 -0.892668 -0.0301745)
(-0.531149 -0.796311 -0.0233388)
(-0.55999 -0.730205 -0.0195341)
(-0.687012 -0.711959 -0.00978465)
(-0.675547 -0.597824 -0.00776725)
(-0.824563 -0.57704 0.0303681)
(-0.918718 -0.559529 0.050444)
(-0.881738 -0.696858 0.02318)
(-0.800914 -0.704266 0.0122205)
(-0.77808 -0.789352 0.00230312)
(-0.661537 -0.797671 -0.0107619)
(-0.63641 -0.881968 -0.0170342)
(-0.749071 -0.865715 -0.00511735)
(-0.826009 -0.850252 0.00447449)
(-0.863569 -0.772732 0.0135428)
(-0.802008 -0.738595 -0.0117469)
(-0.624144 -0.61161 0.00187698)
(-0.847472 -0.659429 0.0117026)
(-0.868209 -0.518196 0.0520615)
(-0.870605 -0.379716 0.0581245)
(-0.843227 -0.282112 0.121603)
(-0.832358 -0.302139 0.076513)
(-0.879094 -0.350585 0.0525799)
(-0.875063 -0.203841 0.129108)
(-0.893915 -0.184197 0.174184)
(-0.760499 -0.161425 0.158508)
(-0.765827 -0.12895 0.259246)
(-0.776891 -0.120636 0.301997)
(-0.820261 -0.108516 0.355353)
(-0.827681 -0.119099 0.352691)
(-0.641277 -0.181496 0.250901)
(-0.606462 -0.173429 0.248284)
(-0.566809 -0.180278 0.215434)
(-0.550613 -0.175419 0.18887)
(-0.568681 -0.191044 0.120297)
(-0.338335 -0.194478 0.0764642)
(-0.31994 -0.188977 0.10139)
(-0.328811 -0.191722 0.1138)
(-0.359971 -0.198598 0.123997)
(-0.448381 -0.216641 0.141418)
(-0.404522 -0.253066 0.0592716)
(-0.381405 -0.284581 0.0678963)
(-0.409826 -0.340565 0.0465956)
(-0.315256 -0.426319 0.0353288)
(-0.311109 -0.393832 0.0484712)
(-0.283036 -0.415641 0.0148767)
(-0.19246 -0.418902 -0.0211738)
(-0.336455 -0.253733 0.034918)
(-0.402119 -0.330387 0.0406701)
(-0.247638 -0.456743 -0.0072399)
(-0.291 -0.459107 -0.000311547)
(-0.45089 -0.320752 0.0715591)
(-0.52363 -0.29859 0.130979)
(-0.497231 -0.318253 0.136064)
(-0.470408 -0.336422 0.111149)
(-0.458488 -0.350253 0.0941512)
(-0.493285 -0.372839 0.00843363)
(-0.710691 -0.317589 0.0631079)
(-0.717934 -0.529489 0.0388766)
(-0.549245 -0.553875 -0.00193646)
(-0.510221 -0.606444 -0.0042442)
(-0.466099 -0.648649 -0.0177851)
(-0.437283 -0.651927 -0.0216265)
(-0.413149 -0.530613 -0.023506)
(-0.411528 -0.540684 -0.0487419)
(-0.410451 -0.541115 -0.0347025)
(-0.335677 -0.550085 -0.0176469)
(-0.267835 -0.595411 -0.00794821)
(-0.319981 -0.580323 -0.00411236)
(-0.403664 -0.512546 0.00670217)
(-0.332256 -0.534932 -0.00469238)
(-0.439222 -0.629817 -0.0122178)
(-0.293173 -0.472818 -0.00566896)
(-0.210733 -0.53924 -0.0189888)
(-0.281533 -0.524137 -0.0168534)
(-0.394644 -0.435695 -0.0011112)
(-0.414043 -0.362453 -0.0107173)
(-0.260863 -0.393899 -0.0115634)
(-0.15724 -0.42242 -0.0370801)
(-0.136618 -0.398956 -0.023423)
(-0.238285 -0.204995 0.0217435)
(-0.382837 -0.342596 -0.00244196)
(-0.252153 -0.474115 -0.0203317)
(-0.219358 -0.467506 -0.0242863)
(-0.12226 -0.392291 -0.0308026)
(-0.21914 -0.194144 0.0385856)
(-0.346913 -0.337629 0.0117463)
(-0.366066 -0.362914 0.0539332)
(-0.195915 -0.510564 -0.0114693)
(-0.174085 -0.467541 0.0180386)
(-0.109968 -0.419689 0.00106187)
(-0.222147 -0.228717 0.0441723)
(-0.32573 -0.341514 0.0520072)
(-0.334762 -0.338586 0.0566003)
(-0.180493 -0.462724 0.0160708)
(-0.10923 -0.408464 -0.000736595)
(-0.23165 -0.220141 0.0615799)
(-0.28559 -0.221176 0.076963)
(-0.240131 -0.229934 0.0706744)
(-0.349932 -0.336621 0.0780617)
(-0.189474 -0.464827 0.0476856)
(-0.117696 -0.415183 0.0364939)
(-0.140387 -0.449219 -0.00484348)
(-0.196349 -0.497091 0.0250582)
(-0.381315 -0.350315 0.0788449)
(-0.334125 -0.624852 -0.00403767)
(-0.355711 -0.631565 -0.0120288)
(-0.499189 -0.511432 0.0577946)
(-0.651061 -0.444407 0.098294)
(-0.666372 -0.286576 0.136366)
(-0.797694 -0.27146 0.17055)
(-0.890361 -0.320659 0.16643)
(-1.02078 -0.488897 0.126036)
(-1.10746 -0.495286 0.167743)
(-1.13234 -0.503005 0.192869)
(-1.11247 -0.505467 0.215823)
(-1.04943 -0.501866 0.23867)
(-0.944221 -0.491055 0.260536)
(-0.795882 -0.467881 0.287128)
(-0.642024 -0.432935 0.32658)
(-0.399838 -0.38075 0.3944)
(-0.168302 -0.290535 0.480443)
(0.0291535 -0.149218 0.486071)
(0.328004 -0.158144 0.429531)
(0.331526 -0.219522 0.381255)
(0.204228 -0.126415 0.491243)
(0.270627 -0.00106963 0.770195)
(0.281674 0.048775 1.03474)
(0.267317 0.08382 1.14296)
(0.249966 0.136168 1.09023)
(0.213247 0.124744 0.950968)
(0.143838 0.121525 0.698392)
(0.0412234 0.18454 0.399822)
(0.175723 0.510831 0.422577)
(0.424926 0.513974 0.372458)
(0.612556 0.536114 0.373553)
(0.855071 0.49545 0.35024)
(1.01296 0.416298 0.317052)
(1.07878 0.323805 0.273771)
(1.06687 0.25713 0.233717)
(1.02172 0.211499 0.196956)
(1.04272 0.158321 0.16582)
(1.05188 0.119224 0.14316)
(0.991531 0.0935094 0.0900755)
(0.884848 0.0424981 0.0675496)
(0.718627 -0.0225358 0.0542886)
(0.473055 -0.109695 0.0204694)
(0.244764 -0.217114 -0.0213875)
(0.104944 -0.626676 -0.109955)
(0.18116 -0.387564 -0.0800625)
(-0.178973 -0.174527 0.00700501)
(-0.10017 -0.399877 -0.0402801)
(-0.109078 -0.326674 -0.0672202)
(-0.111287 -0.358137 -0.0759236)
(-0.108045 -0.325054 -0.0678721)
(-0.079331 -0.263527 -0.0651921)
(-0.131408 -0.21967 -0.0557036)
(-0.219242 0.0477468 0.115801)
(-0.156363 0.410767 0.146559)
(-0.0507877 0.546846 0.084193)
(0.0262841 0.629997 0.0850873)
(0.112431 0.664083 0.172698)
(0.208328 0.716471 0.287903)
(0.302627 0.753643 0.332285)
(0.388261 0.750326 0.365625)
(0.467187 0.689224 0.37301)
(0.533142 0.552902 0.370145)
(0.584242 0.334089 0.334827)
(0.564898 0.0101906 0.260425)
(0.384628 -0.327937 0.252371)
(0.28523 -0.325556 0.316999)
(0.219928 -0.279106 0.326575)
(0.153023 -0.187236 0.334502)
(0.14484 0.0111993 0.309737)
(0.288794 0.0109491 0.336233)
(0.447962 -0.155083 0.32909)
(0.597915 -0.25258 0.341733)
(0.636715 -0.34201 0.351158)
(0.617465 -0.434612 0.35311)
(0.472282 -0.540822 0.335389)
(0.102946 -0.568082 0.319997)
(-0.173293 -0.302605 0.305492)
(-0.0458683 -0.129044 0.356316)
(0.22722 -0.147003 0.23776)
(0.282972 -0.397872 0.0727138)
(0.00989807 -0.512862 0.236128)
(-0.139543 -0.741535 -0.13756)
(0.206607 -0.716004 -0.478409)
(0.304946 -0.385937 -0.175436)
(0.331526 -0.374437 0.0955243)
(0.34153 -0.548688 0.187728)
(0.321611 -0.891938 0.122333)
(0.524507 -0.870379 0.0651676)
(0.600955 -0.688083 0.0985911)
(0.565875 -0.533614 0.140114)
(0.496443 -0.390575 0.190722)
(0.329551 -0.22502 0.247482)
(0.351946 -0.339472 0.197618)
(0.41417 -0.369945 0.144324)
(0.49545 -0.357146 0.082622)
(0.601216 -0.287959 -0.0542335)
(0.851755 0.201372 -0.113673)
(0.899162 0.477982 -0.0189659)
(0.845976 0.675604 0.0528978)
(0.746189 0.773216 0.0947588)
(0.615623 0.797426 0.14134)
(0.467789 0.767835 0.157915)
(0.304829 0.705996 0.16918)
(0.133837 0.633858 0.109912)
(-0.0409109 0.57933 0.0614189)
(-0.167493 0.506607 0.0724404)
(-0.309889 0.387074 0.141147)
(-0.413009 0.117289 0.151124)
(-0.282808 -0.17379 -0.00256342)
(-0.391093 -0.110824 0.0297285)
(-0.469629 -0.0467698 0.0578619)
(-0.544415 0.0591227 0.0996614)
(-0.531187 0.0323366 0.0821288)
(-0.496181 -0.094716 0.0209286)
(-0.458205 -0.148277 0.00981874)
(-0.391891 -0.199259 -0.0121259)
(-0.297181 -0.249863 -0.0283521)
(-0.188638 -0.276725 -0.042578)
(-0.146466 -0.25704 -0.0369115)
(-0.1965 -0.230725 -0.0337958)
(-0.181351 -0.365992 -0.0528528)
(-0.12242 -0.358774 -0.0554566)
(-0.0992746 -0.374859 -0.08311)
(-0.0758701 -0.410139 -0.118733)
(-0.0467511 -0.585365 -0.233906)
(-0.0837589 -0.525509 -0.172086)
(-0.0982947 -0.611859 -0.136614)
(-0.147679 -0.592826 -0.0676324)
(-0.191639 -0.507008 -0.046232)
(-0.293968 -0.303209 -0.00802303)
(-0.240256 0.219042 0.138977)
(-0.0971457 0.393718 0.283181)
(-0.00828096 0.48355 0.420027)
(0.0648423 0.481541 0.544371)
(0.135688 0.421654 0.61554)
(0.187511 0.313124 0.647947)
(0.238281 0.163518 0.623123)
(0.226553 -0.00743464 0.525948)
(0.0935402 -0.127646 0.421618)
(-0.0201832 -0.091837 0.435254)
(-0.0378783 0.029496 0.410563)
(-0.034766 0.149984 0.41281)
(0.0388018 0.253434 0.349292)
(0.200696 0.138446 0.362674)
(0.154071 0.281624 0.439041)
(-0.0702359 0.150601 -0.126031)
(-0.177628 -0.0638469 -0.63743)
(-0.181088 -0.301683 -0.525176)
(-0.169 -0.339625 -0.292353)
(-0.146352 -0.297707 -0.0906538)
(-0.0619831 -0.581476 -0.104636)
(-0.0280563 -0.858644 -0.0933543)
(0.00236046 -1.01677 -0.0915166)
(0.0327454 -1.14183 -0.101391)
(0.0661535 -1.22631 -0.115779)
(0.0967889 -1.27975 -0.12986)
(0.123495 -1.30694 -0.141833)
(0.147513 -1.31608 -0.153848)
(0.168396 -1.31465 -0.16626)
(0.186586 -1.30613 -0.17691)
(0.202101 -1.29198 -0.185211)
(0.215915 -1.2726 -0.19018)
(0.228153 -1.24765 -0.192736)
(0.23934 -1.21586 -0.191445)
(0.248864 -1.176 -0.186157)
(0.254572 -1.12587 -0.175257)
(0.251621 -1.06285 -0.158577)
(0.194614 -0.999538 -0.138641)
(0.139645 -0.91432 -0.122372)
(0.164155 -0.829989 -0.0866428)
(0.187409 -0.729137 -0.0878574)
(0.203536 -0.560198 -0.0877605)
(0.246147 -0.442878 -0.0841557)
(0.071717 -0.0306737 -0.0950424)
(0.365844 -0.29874 0.0440076)
(0.245526 -0.551473 -0.0566991)
(0.285945 -0.0949166 -0.0265885)
(0.180567 -0.0371457 -0.146747)
(0.201868 -0.112902 -0.123868)
(0.194982 -0.119681 -0.0801328)