/*--------------------------------*- C++ -*----------------------------------*\
| =========                 |                                                 |
| \\      /  F ield         | OpenFOAM: The Open Source CFD Toolbox           |
|  \\    /   O peration     | Version:  v2012                                 |
|   \\  /    A nd           | Website:  www.openfoam.com                      |
|    \\/     M anipulation  |                                                 |
\*---------------------------------------------------------------------------*/
FoamFile
{
    version     2.0;
    format      ascii;
    class       volScalarField;
    location    "80";
    object      k;
}
// * * * * * * * * * * * * * * * * * * * * * * * * * * * * * * * * * * * * * //

dimensions      [0 2 -2 0 0 0 0];


internalField   nonuniform List<scalar> 
18258
(
0.0366126
0.0172514
0.0142116
0.0122433
0.0128289
0.0157466
0.0183333
0.0229644
0.0276685
0.0334163
0.0401986
0.0487604
0.0544077
0.061109
0.0637329
0.0619116
0.0518661
0.0476361
0.0580387
0.0827028
0.0721095
0.0522399
0.0633228
0.0626084
0.0735968
0.0779992
0.0615458
0.0563482
0.051018
0.0455182
0.0391123
0.0253484
0.02309
0.0280033
0.0315453
0.0355298
0.0386437
0.0411456
0.0428707
0.0438096
0.0438217
0.0425912
0.0399035
0.0356301
0.0298176
0.0233172
0.0214627
0.0231189
0.0287196
0.0333994
0.0384337
0.0438309
0.0523561
0.0432564
0.0284555
0.0384427
0.0467606
0.0536395
0.0581617
0.0607427
0.0616302
0.0608376
0.058661
0.0555033
0.0516261
0.0473481
0.0433521
0.0393599
0.0341092
0.0308152
0.0266369
0.0232256
0.0207173
0.0189483
0.0177926
0.0168282
0.0159962
0.0152916
0.0146901
0.0143053
0.0142147
0.0142337
0.0143158
0.0144068
0.0147386
0.0123358
0.0105252
0.0100394
0.00984337
0.00929507
0.00794049
0.0106579
0.0118738
0.0123918
0.012725
0.0139102
0.0144615
0.0138308
0.013007
0.0130087
0.0189038
0.0196587
0.0194152
0.0247808
0.0245583
0.0231077
0.0146612
0.0156422
0.0183369
0.0220738
0.0200109
0.0196175
0.0182044
0.0173893
0.0150534
0.0148989
0.0142326
0.013915
0.0147472
0.0178073
0.0172642
0.0174929
0.0186995
0.0189975
0.0202261
0.021211
0.0204056
0.0202059
0.0159992
0.0158931
0.0169281
0.0167838
0.0172697
0.0201013
0.0201444
0.0203758
0.0205394
0.0233072
0.023327
0.02328
0.0233841
0.0244474
0.0233011
0.022796
0.0228517
0.0228876
0.020742
0.0206013
0.0203306
0.0203965
0.0179163
0.017143
0.0178998
0.0188877
0.0208421
0.0244657
0.0308825
0.0397615
0.0497636
0.0598644
0.06749
0.07169
0.0759245
0.0752901
0.0758986
0.0778884
0.0782365
0.0771446
0.0753922
0.0733197
0.0704223
0.0657987
0.0654062
0.057955
0.0473461
0.0327399
0.0381608
0.0409144
0.0436116
0.0439591
0.0444913
0.04337
0.0417013
0.0382038
0.0332381
0.0248439
0.0262273
0.0308731
0.035691
0.0396066
0.0439061
0.0475962
0.0493957
0.0509914
0.0606665
0.0585436
0.0566273
0.0584783
0.0600806
0.0633777
0.0617346
0.0576872
0.0517831
0.0533254
0.0463215
0.0345788
0.0322182
0.02997
0.0272502
0.0371955
0.0484874
0.0594983
0.0654605
0.0714661
0.0760127
0.0798532
0.0842476
0.0789139
0.0739382
0.0558174
0.0806132
0.0628868
0.0481485
0.0395383
0.0326842
0.0275237
0.031533
0.0321352
0.0305673
0.0260646
0.0210673
0.0259477
0.0381932
0.0474282
0.054989
0.0567321
0.0612754
0.0632562
0.0581988
0.0586326
0.0485039
0.0498026
0.0532168
0.0480239
0.045445
0.0365726
0.0282156
0.032759
0.0480133
0.0659595
0.0812743
0.0960473
0.0631173
0.0478933
0.039329
0.0332524
0.0317969
0.0359103
0.0416742
0.0507548
0.0396501
0.0355076
0.0319872
0.029326
0.0241424
0.0260678
0.0275381
0.0267021
0.0487719
0.0534793
0.0583006
0.0795029
0.0871417
0.102989
0.101978
0.0882214
0.0913234
0.0642824
0.0643649
0.08181
0.0645814
0.0484701
0.0587305
0.07168
0.085318
0.0982779
0.109386
0.118287
0.120942
0.110337
0.0806065
0.0467243
0.0216527
0.0192156
0.0186492
0.0179018
0.0169688
0.0159804
0.0152131
0.0120911
0.00953524
0.00947584
0.0096961
0.00963001
0.00829377
0.00965267
0.0117459
0.0139362
0.0154388
0.0166422
0.0176578
0.0183841
0.0189738
0.0193752
0.0196762
0.0199429
0.020174
0.0203541
0.020484
0.0205658
0.0206004
0.020581
0.020502
0.0203618
0.0201573
0.0198709
0.0193964
0.0178531
0.0160113
0.0152061
0.0152745
0.0150327
0.0147433
0.0120912
0.0124349
0.0144879
0.0151136
0.0179031
0.019942
0.0216481
0.0231048
0.0246401
0.025427
0.0262658
0.0265339
0.0265861
0.0264832
0.0263314
0.0261058
0.0258065
0.0247426
0.02147
0.0250965
0.0275164
0.0292238
0.0305902
0.031498
0.0315961
0.0288144
0.0364257
0.0387679
0.0396774
0.0399299
0.0390677
0.0369918
0.0344129
0.0322446
0.0307069
0.0295714
0.0274005
0.0251501
0.0228458
0.0204397
0.0172412
0.0185759
0.0204575
0.0206738
0.0204047
0.021477
0.0227733
0.0210976
0.0189411
0.0161211
0.0151544
0.0147295
0.0145771
0.0150897
0.0146859
0.0145067
0.0149413
0.0178492
0.0189306
0.0206513
0.0239883
0.0228424
0.0208827
0.0282068
0.0298128
0.0302823
0.0306657
0.0305757
0.0298536
0.0266675
0.025169
0.026539
0.0250241
0.0243606
0.0244082
0.0240294
0.0220879
0.0243742
0.0263609
0.0279424
0.0287971
0.0301599
0.0317518
0.0340121
0.0359091
0.0376568
0.0386992
0.0386802
0.0380959
0.0382423
0.0389908
0.0386951
0.0370129
0.0349217
0.0327942
0.0297818
0.0295909
0.0315943
0.0331665
0.0348193
0.0365676
0.0358929
0.0340147
0.0323974
0.0309712
0.0292299
0.0291111
0.0308217
0.0322801
0.0340251
0.0361534
0.0363541
0.0342059
0.0323709
0.0308382
0.0291002
0.0290682
0.0308036
0.0323465
0.0340886
0.0359699
0.0350498
0.0336085
0.0320741
0.0305855
0.0288915
0.0284415
0.0300659
0.0314561
0.0327582
0.0337745
0.0320158
0.0315016
0.0304583
0.0290704
0.0273002
0.0260261
0.0265382
0.0279297
0.0280337
0.0284886
0.0295783
0.0293539
0.0290359
0.0289179
0.0286212
0.0263682
0.026791
0.0268966
0.0276238
0.0310882
0.0305877
0.033177
0.0355002
0.0331437
0.0317188
0.0282583
0.0340816
0.0340164
0.0347946
0.033512
0.0237225
0.0218728
0.0229117
0.0244523
0.0260764
0.0253765
0.0226386
0.0224465
0.0229797
0.0222816
0.0205864
0.0176204
0.0132606
0.0132605
0.0132262
0.0139435
0.0167444
0.0183914
0.0185058
0.0183367
0.0180003
0.0174577
0.0166012
0.0153267
0.016596
0.0344285
0.0539682
0.0590331
0.0576568
0.0437746
0.0386445
0.0304636
0.0235014
0.0183101
0.0154522
0.0130873
0.0139666
0.0156306
0.0176507
0.0211358
0.0176669
0.0247165
0.0274671
0.03107
0.0433789
0.0446985
0.0376887
0.024615
0.018021
0.0187593
0.0195707
0.0200101
0.020405
0.0207892
0.0211945
0.0216727
0.0212419
0.0186238
0.0163731
0.0164578
0.0170388
0.0195552
0.0210205
0.0219037
0.0216559
0.0220236
0.023716
0.022488
0.0211686
0.0208807
0.0200952
0.0229331
0.0233457
0.0228213
0.0228287
0.0232009
0.0231912
0.0233046
0.0240477
0.0198353
0.0221025
0.0226946
0.0229894
0.0237881
0.0192659
0.0194721
0.0195497
0.018399
0.0150207
0.0178977
0.0166982
0.0121902
0.0135169
0.0136038
0.0142425
0.0145597
0.0174473
0.016713
0.0159305
0.016505
0.0225544
0.0234251
0.0235496
0.0208026
0.0195258
0.0220613
0.0227045
0.0222532
0.0213398
0.0214731
0.0204881
0.0185681
0.0178387
0.0179765
0.019397
0.0202268
0.0203167
0.0239163
0.0234061
0.0218293
0.0228413
0.0234594
0.0230373
0.0228949
0.0227446
0.0222653
0.0218548
0.0223661
0.022645
0.0227267
0.0222802
0.0225336
0.0253176
0.0216008
0.0214094
0.020324
0.0196631
0.0180241
0.0177799
0.0178861
0.0178512
0.0177607
0.0169204
0.018779
0.0180313
0.0201958
0.0218143
0.0229695
0.0241506
0.0243115
0.0238818
0.023845
0.023451
0.0234147
0.022854
0.021997
0.0214044
0.0206249
0.0194088
0.0194104
0.0193668
0.0192233
0.0206393
0.0205387
0.0221115
0.0232382
0.0229505
0.0219792
0.021868
0.0206841
0.0206544
0.0217024
0.0226
0.0228572
0.0237414
0.0263589
0.0239231
0.0255099
0.0262115
0.0269081
0.0262554
0.0251404
0.0258754
0.0241921
0.0230689
0.0243916
0.025115
0.0263747
0.0271669
0.0251495
0.0241236
0.0229331
0.0220769
0.0210991
0.0185622
0.019151
0.019915
0.0211325
0.0229456
0.0256703
0.0283752
0.0313605
0.0313958
0.0290661
0.027419
0.0322232
0.0316687
0.0367176
0.0372945
0.0331789
0.0304308
0.0275446
0.0271075
0.0261658
0.0256156
0.02434
0.0256136
0.026057
0.0250829
0.0275235
0.0290681
0.0334241
0.0389292
0.0355055
0.0327594
0.0380054
0.0369981
0.0428565
0.0365945
0.0349916
0.0287332
0.0334682
0.0359529
0.0435873
0.034084
0.0298837
0.0297397
0.0311678
0.0386896
0.0370982
0.0396171
0.0449346
0.0443028
0.0394976
0.036181
0.0418128
0.0318179
0.0374409
0.0394873
0.0329015
0.0324629
0.0393494
0.0399831
0.040262
0.034254
0.0333236
0.025179
0.0337191
0.0402733
0.0402116
0.0334283
0.0263855
0.0362081
0.0317584
0.0315651
0.0315679
0.0271199
0.0271015
0.0263697
0.0266721
0.0274605
0.0248949
0.025735
0.0260047
0.0261637
0.026281
0.0264547
0.0267814
0.027421
0.0281697
0.0230655
0.0244803
0.0231799
0.021826
0.0204017
0.0242658
0.0268
0.028659
0.0301607
0.0313339
0.0318187
0.0302965
0.0378267
0.0392932
0.0412657
0.0416053
0.0402677
0.0372916
0.0336931
0.0306449
0.0289262
0.0276954
0.0254137
0.0232592
0.0211485
0.0189827
0.0161284
0.014686
0.0134291
0.0119708
0.011754
0.0113249
0.0108554
0.0104387
0.010489
0.0128428
0.0143993
0.0140078
0.0191238
0.0321158
0.0414104
0.0493034
0.0551994
0.0594828
0.0625217
0.0644207
0.0648931
0.0624172
0.0531505
0.0484592
0.0439502
0.0393832
0.0347688
0.0336464
0.0428082
0.0508663
0.0574747
0.0631723
0.0664391
0.0642821
0.0489749
0.0489149
0.0654991
0.0926832
0.0823825
0.105334
0.123056
0.0829538
0.0669131
0.0648513
0.078327
0.0813718
0.0757345
0.0674514
0.0580605
0.0474334
0.0522273
0.0566112
0.060635
0.0648271
0.0757859
0.0781402
0.0769917
0.0741461
0.0703295
0.0653699
0.0582369
0.048359
0.0357834
0.0206872
0.0150743
0.0167769
0.0149649
0.0162657
0.0159027
0.0157061
0.0159772
0.0116275
0.0120482
0.0123589
0.0122827
0.011746
0.0120486
0.0135091
0.018937
0.0161981
0.0150849
0.0126921
0.0149454
0.0169369
0.0181162
0.0179012
0.017244
0.0194545
0.0327865
0.0420934
0.0479361
0.0526001
0.0552828
0.0544313
0.0515732
0.0463276
0.040641
0.0381254
0.0344609
0.0314817
0.0301708
0.0307733
0.0274681
0.0191146
0.0146755
0.0157573
0.0155667
0.0145369
0.0164633
0.0176858
0.0184674
0.0191037
0.0195787
0.019937
0.0201833
0.020335
0.0203962
0.0203883
0.0203305
0.0202316
0.0200932
0.0199146
0.0196858
0.0193772
0.0188644
0.0171912
0.0153869
0.0147175
0.0148119
0.014592
0.0142429
0.0123618
0.012575
0.0144786
0.0150766
0.0146318
0.0151485
0.0155406
0.0166349
0.0187031
0.0208859
0.0227455
0.0214675
0.0208603
0.0208632
0.0204199
0.0176309
0.0209941
0.0235347
0.0240415
0.0242631
0.025048
0.0266205
0.0276321
0.0267321
0.0262904
0.0257694
0.0230317
0.0247811
0.0279316
0.0283192
0.028897
0.0294359
0.0299494
0.031296
0.0307291
0.0299786
0.0294518
0.026976
0.0261364
0.0312628
0.0216477
0.016381
0.0135153
0.0115528
0.0118539
0.0119011
0.0127726
0.0135007
0.0138502
0.0130112
0.0140642
0.0148775
0.0137219
0.0163226
0.0157659
0.0150349
0.0142508
0.0143834
0.0146511
0.0153397
0.0168749
0.02726
0.0286595
0.0236043
0.0306137
0.0326298
0.0285885
0.031917
0.0297671
0.0288913
0.0317743
0.0346771
0.0352677
0.0329292
0.031958
0.0308152
0.0206466
0.0199818
0.0192848
0.017477
0.0180127
0.017588
0.0170361
0.0165779
0.0189791
0.0201923
0.0208153
0.0204027
0.0199608
0.0194339
0.0212168
0.0271847
0.0366509
0.0431383
0.0451959
0.0440366
0.0407097
0.0347949
0.0298714
0.0294635
0.0277461
0.0267257
0.0267174
0.021309
0.0161857
0.0173933
0.0174799
0.018532
0.0191898
0.0197003
0.0201045
0.0204355
0.0207099
0.0209652
0.0212133
0.0214289
0.0216098
0.0217628
0.0218783
0.0219975
0.0221313
0.0223313
0.0224828
0.0209426
0.0184223
0.0171585
0.017015
0.0177172
0.018593
0.0197043
0.0189995
0.0153293
0.0154511
0.021831
0.0221267
0.0207331
0.0193405
0.0195574
0.0187203
0.0223449
0.0221029
0.0227787
0.0226022
0.0223602
0.0221132
0.0218548
0.0215906
0.0213775
0.0211944
0.0210337
0.0208864
0.0207517
0.0205838
0.0203229
0.0199162
0.0193016
0.0184473
0.0178925
0.0190414
0.0192075
0.0204205
0.0227177
0.0242857
0.0237607
0.0222649
0.0211302
0.0208617
0.0210806
0.0213612
0.0216719
0.0220333
0.0224297
0.0227962
0.0227263
0.0215912
0.0222257
0.0172087
0.0181008
0.0184006
0.0183512
0.0200684
0.0193277
0.0147152
0.0150929
0.0157127
0.0168549
0.0193092
0.0196499
0.0209388
0.0211682
0.017045
0.0166912
0.0162537
0.0173929
0.0150297
0.0155378
0.0259653
0.0268213
0.0345279
0.0377687
0.0395243
0.0331429
0.0454634
0.0521704
0.0500921
0.0408304
0.0234188
0.0343853
0.041978
0.0485301
0.0453269
0.0351842
0.0443768
0.0470057
0.0622714
0.0577691
0.051491
0.0622496
0.0443244
0.0266066
0.0157719
0.0163805
0.0152731
0.0305871
0.0346502
0.0312309
0.0321063
0.0397339
0.0407863
0.0359941
0.0343997
0.0361634
0.0357471
0.0396133
0.0368648
0.0336624
0.0231812
0.0189276
0.0196932
0.0210397
0.0228226
0.0251806
0.0251049
0.0239943
0.022682
0.0217662
0.0207742
0.018276
0.0177088
0.0196704
0.0213141
0.0227088
0.0242122
0.0250191
0.0258574
0.0260315
0.0259243
0.0255968
0.0251644
0.0246116
0.0239355
0.0225415
0.0238207
0.0244717
0.0246726
0.0249469
0.0252487
0.0254962
0.0255882
0.0254347
0.0245321
0.0237587
0.0226051
0.0214701
0.0198565
0.0177384
0.0184117
0.0201653
0.0217604
0.0228831
0.023934
0.0235177
0.0239726
0.0245888
0.0246642
0.0245488
0.0243519
0.0242154
0.0243204
0.0249935
0.0267556
0.0265026
0.0292905
0.0305448
0.0279415
0.0265954
0.0259074
0.0254982
0.0252702
0.0250743
0.0248702
0.0243
0.0237457
0.0242622
0.0245207
0.0248096
0.0251583
0.0256626
0.0263706
0.0274984
0.0289489
0.0287454
0.0265466
0.0263804
0.0252375
0.0243805
0.0239868
0.0239204
0.0239517
0.0240016
0.0238843
0.0233809
0.0230768
0.0234949
0.0224927
0.0225795
0.021603
0.0202529
0.0188167
0.0173612
0.0167053
0.0346729
0.0347509
0.0452196
0.0418261
0.0365304
0.0462552
0.0590141
0.0512201
0.0618324
0.0655089
0.0532332
0.0495479
0.0275186
0.0241374
0.0174231
0.0189508
0.0202903
0.0214853
0.021294
0.0222103
0.0220866
0.0230367
0.0224892
0.0216643
0.0211825
0.0201667
0.0202339
0.0189659
0.0174217
0.0172786
0.0189221
0.0198815
0.0210655
0.0210073
0.0224681
0.0230188
0.0234371
0.0236521
0.0236968
0.0237971
0.0239907
0.0244679
0.025271
0.0258216
0.0259842
0.0263852
0.026194
0.0258648
0.0253816
0.0250436
0.0247096
0.0244215
0.0241223
0.0238308
0.0233851
0.0227224
0.0225965
0.0231248
0.0234871
0.0237507
0.0239059
0.0239093
0.0237405
0.0234511
0.0231525
0.0227955
0.0228311
0.0241281
0.0243248
0.0243341
0.0240072
0.0238356
0.0238417
0.0237554
0.023635
0.0232915
0.0228733
0.0223467
0.0212506
0.0213813
0.022323
0.0228546
0.0232854
0.0236991
0.0237053
0.0235252
0.0230946
0.022796
0.0225844
0.022147
0.0214804
0.0190925
0.0195232
0.0201445
0.0209671
0.0217914
0.0224903
0.0229242
0.0230866
0.0230369
0.0228275
0.0224467
0.0216689
0.0216538
0.0222355
0.0224496
0.0224489
0.0221968
0.0216282
0.0207148
0.0195252
0.0183057
0.0173077
0.0167521
0.0159417
0.0187046
0.0196992
0.0204923
0.0211784
0.0219688
0.022873
0.0233801
0.0235266
0.0232552
0.0228694
0.0223328
0.0214653
0.0215229
0.0223611
0.0229103
0.0232756
0.0235314
0.0231274
0.0222035
0.020614
0.0191978
0.018174
0.0172106
0.0160701
0.0151831
0.0156713
0.0154412
0.0160749
0.0173246
0.018871
0.0202871
0.0212224
0.0217623
0.021987
0.0219515
0.0215619
0.0213995
0.0216079
0.0214936
0.0210642
0.0202349
0.0189526
0.0173789
0.0160207
0.01546
0.0159771
0.0165628
0.015972
0.0143241
0.0155341
0.0165308
0.017522
0.019119
0.0212083
0.0225428
0.0232046
0.0232198
0.0229386
0.0223797
0.0215555
0.0215626
0.0223975
0.0229876
0.0233015
0.0232523
0.0225193
0.0212969
0.0188278
0.0163014
0.0153245
0.0145396
0.0134092
0.0160432
0.016755
0.0160608
0.0155763
0.0164776
0.0176385
0.0189314
0.0199374
0.0206057
0.021066
0.0212536
0.0211832
0.0209349
0.0209285
0.0207893
0.0204567
0.0200364
0.0195383
0.0186614
0.017822
0.0169473
0.0179253
0.018227
0.0174416
0.0149439
0.0158134
0.0170742
0.0171622
0.0192902
0.0216317
0.0227061
0.0232919
0.0233445
0.023033
0.0223895
0.0215355
0.0214642
0.0223596
0.0230862
0.0235356
0.02382
0.0235328
0.0233578
0.0218174
0.0197599
0.0194098
0.0165249
0.0151857
0.017875
0.0187213
0.0186589
0.0182665
0.0198402
0.0204534
0.0206889
0.0208038
0.0208358
0.0207361
0.0206802
0.0206776
0.0203973
0.0203951
0.0205635
0.0207799
0.0206517
0.0203534
0.0198147
0.0191644
0.0181238
0.0197252
0.0210594
0.0205874
0.0176306
0.0187081
0.0208952
0.0200178
0.0214076
0.0228156
0.023375
0.0236844
0.0235437
0.0229697
0.0222126
0.0213105
0.0210368
0.0218429
0.0227139
0.0228097
0.0229609
0.0229519
0.0222484
0.0220599
0.0213501
0.0210421
0.0201368
0.0194833
0.0186244
0.0208191
0.0241057
0.0263584
0.027905
0.0297664
0.0282144
0.0245682
0.0221904
0.01525
0.0152701
0.0155074
0.0149129
0.0145675
0.0144
0.0189045
0.0216858
0.0243628
0.0260124
0.0235452
0.0234766
0.023349
0.023209
0.0230387
0.0228682
0.022601
0.0232058
0.0406739
0.283142
0.208499
0.234365
0.222624
0.315432
0.0745443
0.0388422
0.0434662
0.0515976
0.0613674
0.0605068
0.0566191
0.0496838
0.0455452
0.0451171
0.0444316
0.0442011
0.0416104
0.0414431
0.0395034
0.0458885
0.0874897
0.116067
0.129925
0.138859
0.14947
0.14543
0.155386
0.148472
0.149617
0.15161
0.15648
0.14932
0.141901
0.137911
0.133745
0.116603
0.117067
0.0987278
0.102696
0.0852935
0.0891366
0.0930924
0.0924034
0.0910154
0.0906129
0.0906796
0.091242
0.0941121
0.089666
0.097304
0.0915402
0.0768412
0.07482
0.0779786
0.0722101
0.0635191
0.0716281
0.0873436
0.102892
0.117517
0.0995034
0.120616
0.112829
0.111129
0.10605
0.100744
0.0974561
0.0971998
0.0980759
0.0993406
0.102073
0.103992
0.105698
0.108526
0.117256
0.119057
0.117082
0.0999867
0.0853124
0.0938103
0.0985115
0.102537
0.102942
0.0986317
0.0959464
0.0886885
0.0869351
0.0807931
0.0783368
0.0723757
0.0691596
0.064155
0.080184
0.0788994
0.0859801
0.092253
0.0969161
0.100428
0.102208
0.103223
0.102065
0.0996778
0.0953662
0.0937005
0.0892663
0.107156
0.125411
0.128868
0.12475
0.110996
0.105359
0.335209
0.406225
0.407214
0.600892
0.638486
0.821312
0.330978
0.180371
0.192184
0.188763
0.180429
0.176818
0.175861
0.186518
0.194128
0.18605
0.194548
0.176701
0.170186
0.17266
0.205733
0.205844
0.187487
0.165454
0.136203
0.112658
0.113815
0.0952221
0.095944
0.0816761
0.0807038
0.0798492
0.0928282
0.159483
0.197946
0.223792
0.249782
0.307785
0.28018
0.425097
0.344602
0.431343
0.301139
0.324071
0.31029
0.302037
0.300172
0.316014
0.335363
0.296075
0.366292
0.295003
0.640847
0.773284
0.498783
0.459463
0.407912
0.394123
0.384374
0.378778
0.369516
0.482169
0.448344
0.539282
0.500837
0.613936
0.556381
0.576657
0.542509
0.586785
0.609222
0.626092
0.507792
0.565018
0.442664
0.479609
0.395348
0.429939
0.297808
0.293747
0.329752
0.364769
0.388262
0.440488
0.692328
0.592011
0.797949
0.575929
0.697448
0.486017
0.529557
0.50672
0.489134
0.490399
0.518177
0.623635
0.60411
0.685097
0.514598
0.526963
0.516585
0.53394
0.523326
0.558275
0.562918
0.564025
0.561903
0.523289
0.533829
0.532083
0.531927
0.531963
0.532289
0.509528
0.51268
0.505177
0.510958
0.526924
0.514554
0.514505
0.512327
0.504758
0.50271
0.502233
0.503981
0.503758
0.508878
0.508749
0.509073
0.512092
0.52678
0.514367
1.7992
0.88952
0.42194
0.333101
0.219837
0.134648
0.0544656
0.0586127
0.0611611
0.0616147
0.0590246
0.0531136
0.0446754
0.034994
0.0272149
0.0257399
0.0223924
0.0256625
0.0318416
0.0392715
0.0353172
0.0434709
0.0515679
0.0601296
0.0681446
0.0750924
0.0810027
0.0843624
0.0818374
0.0697082
0.0522581
0.0355313
0.0257382
0.0233833
0.0218362
0.0197493
0.0176001
0.016046
0.0149514
0.0136525
0.0129272
0.012777
0.0129025
0.013089
0.013451
0.0149664
0.0162587
0.0174316
0.0183655
0.0186111
0.0182172
0.0187578
0.0193638
0.0197527
0.020086
0.020033
0.0200735
0.0203217
0.0202812
0.0204866
0.0203721
0.0203209
0.0201669
0.0199445
0.0197255
0.0193174
0.0190591
0.0185796
0.0182367
0.0174513
0.0174835
0.0179582
0.0183036
0.0174286
0.0175068
0.0165199
0.0209946
0.0399379
0.0585108
0.0642902
0.0701029
0.0662444
0.0539975
0.0348574
0.018638
0.0194717
0.0197955
0.02193
0.0211088
0.0182015
0.0197423
0.0216534
0.0198519
0.0194977
0.0195008
0.0205881
0.0209504
0.0219881
0.0223689
0.022781
0.0229991
0.0231893
0.0233432
0.0231665
0.0232064
0.0227351
0.0226963
0.0223688
0.0220955
0.0224738
0.023308
0.02333
0.0238821
0.0235418
0.023072
0.0225348
0.0221242
0.0214382
0.0207894
0.0201215
0.0192234
0.0187826
0.0195359
0.0203157
0.0197784
0.0221112
0.0218219
0.0208423
0.024212
0.0231975
0.0209136
0.0230361
0.0202138
0.0209419
0.0211028
0.0197359
0.0203623
0.0196537
0.0193327
0.0195976
0.0197896
0.0204676
0.0210325
0.0213719
0.0220339
0.0226561
0.0233402
0.0246838
0.0249939
0.0241219
0.0240057
0.022594
0.0217414
0.0214328
0.0225786
0.0241205
0.0238485
0.0246268
0.0243877
0.0230408
0.0222737
0.021491
0.0207515
0.0204177
0.020112
0.0194666
0.0194876
0.0186526
0.0190131
0.0179482
0.0197176
0.0198721
0.0209866
0.0193278
0.0178183
0.0212611
0.0257535
0.0406715
0.0287317
0.0190522
0.0218351
0.0288628
0.0335354
0.0240245
0.0209696
0.0169186
0.016896
0.0176582
0.0175929
0.0186678
0.0186189
0.0196394
0.0203563
0.0204939
0.021084
0.0213445
0.0220691
0.0222881
0.0229996
0.0231771
0.0245507
0.0246039
0.0246575
0.0246374
0.0239589
0.0239117
0.0241281
0.0245743
0.0242337
0.0247244
0.0247325
0.024823
0.024789
0.0233643
0.0230639
0.0223239
0.0218688
0.0210206
0.0205897
0.0200243
0.0198067
0.0192682
0.0194295
0.0200085
0.0201872
0.0209074
0.0209195
0.0216468
0.0218197
0.0222422
0.0223515
0.0230015
0.0231206
0.0233725
0.0234217
0.0247182
0.0248205
0.0248253
0.0247905
0.0247768
0.0249988
0.025012
0.0249825
0.0250276
0.0252855
0.0251984
0.0250595
0.0262878
0.0269316
0.0260881
0.0256907
0.0259408
0.0269742
0.027538
0.0288295
0.0297447
0.030995
0.031948
0.0328963
0.0336022
0.0341496
0.0342416
0.0342866
0.0337415
0.033337
0.0350665
0.0417213
0.0449917
0.0503318
0.0527062
0.0546938
0.0553918
0.0540525
0.0546811
0.0532107
0.0533501
0.0519084
0.0512472
0.0501921
0.0489006
0.0479851
0.0462272
0.0453402
0.0499551
0.0562501
0.0563913
0.0499494
0.0465569
0.0395677
0.0321838
0.0367416
0.042952
0.0377038
0.0366558
0.0332624
0.0276067
0.0203412
0.0142047
0.0217205
0.0298331
0.0374603
0.0449852
0.0515575
0.0558402
0.0580764
0.059579
0.0615327
0.0598442
0.052707
0.0418308
0.0327114
0.0293109
0.0278336
0.0251753
0.0215052
0.0194376
0.0183031
0.0170717
0.0156048
0.0146276
0.0143315
0.0144445
0.0145241
0.0158705
0.0171172
0.0171304
0.0182961
0.0182922
0.0187955
0.0193684
0.0197445
0.0204952
0.0204367
0.0194412
0.0197796
0.0200499
0.0207312
0.0206102
0.0207593
0.0205128
0.0197845
0.0192813
0.0187232
0.01823
0.0178425
0.0172788
0.0166135
0.0165793
0.0168985
0.0165028
0.01687
0.0172806
0.0176118
0.0181968
0.0190484
0.0197774
0.0215898
0.021765
0.0214991
0.0216038
0.0201744
0.0201316
0.0191314
0.0189248
0.0205703
0.0204433
0.0187281
0.0201699
0.0201193
0.0218667
0.0218559
0.0211761
0.0213895
0.0212426
0.0194348
0.0185876
0.0175827
0.0168561
0.0163397
0.0159945
0.0156658
0.0162038
0.015369
0.0146464
0.0148878
0.0148803
0.0149354
0.0152677
0.0156572
0.0163736
0.0170253
0.0180203
0.0186175
0.0194697
0.019783
0.0216759
0.0215925
0.021492
0.0215209
0.0216209
0.0220942
0.0212895
0.0212526
0.0214139
0.0214281
0.0214216
0.0214002
0.0195798
0.0193872
0.0185915
0.0182973
0.0174127
0.017083
0.0164652
0.0161834
0.0158314
0.0156555
0.0238177
0.0262685
0.0266895
0.0410999
0.0208219
0.0208378
0.03561
0.0180224
0.0239664
0.0246883
0.0257483
0.0266892
0.0233887
0.0317418
0.021936
0.0237461
0.0246734
0.0266385
0.0134498
0.0137824
0.0148845
0.0258115
0.0318026
0.038745
0.0494183
0.0543374
0.0584648
0.0616524
0.0642195
0.0671022
0.0697838
0.0719168
0.0723905
0.0691372
0.0663999
0.0573654
0.053687
0.0575249
0.0621033
0.0488057
0.0440061
0.0446261
0.0452495
0.0458616
0.0461791
0.0469654
0.0468469
0.0479687
0.0472567
0.048471
0.0473991
0.0485616
0.0471121
0.0440696
0.0407241
0.0340812
0.0319289
0.0307692
0.0279697
0.0254305
0.0229661
0.0210389
0.0206084
0.0189416
0.0173663
0.0170521
0.0157639
0.0158533
0.0169903
0.0200978
0.0171056
0.0181416
0.0264663
0.019599
0.0185432
0.0191377
0.0196772
0.0199018
0.0188138
0.0205111
0.0228018
0.0226969
0.0227206
0.0227006
0.0219198
0.0217664
0.0214641
0.0215173
0.0215501
0.0216682
0.0216329
0.0198253
0.0197711
0.0195166
0.0193883
0.0186383
0.0184859
0.0179365
0.0176391
0.0168263
0.0165636
0.0161078
0.0160772
0.0143991
0.0146319
0.0169644
0.0146292
0.0143234
0.0139714
0.0139875
0.0257159
0.0247342
0.0286703
0.0271694
0.0402808
0.0269112
0.0237243
0.0242835
0.0295653
0.0292837
0.0319861
0.042805
0.032876
0.0265735
0.0422526
0.0300345
0.0308852
0.0364405
0.0440212
0.0883085
0.115378
0.0494357
0.0510846
0.0579209
0.0582524
0.0580391
0.0442235
0.0425819
0.0332918
0.0225781
0.0138327
0.0250015
0.0319395
0.0351992
0.046159
0.0883751
0.0506153
0.0575576
0.0640974
0.0632046
0.0665923
0.063857
0.0621276
0.0631059
0.103736
0.116538
0.0759722
0.0696888
0.0609739
0.0680572
0.116824
0.141075
0.119563
0.128385
0.124237
0.0515007
0.0277973
0.0250886
0.0243347
0.0271776
0.0263889
0.0474439
0.0213396
0.0226858
0.0234164
0.028198
0.0310778
0.0542929
0.0238626
0.0260728
0.0332548
0.0355994
0.0473134
0.0279233
0.0286799
0.035232
0.0370858
0.0403909
0.0344124
0.0325785
0.0295941
0.0265054
0.0249429
0.0255521
0.0321953
0.0479227
0.028393
0.0288737
0.0307876
0.133483
0.0315199
0.0272918
0.0278289
0.0267207
0.0341456
0.0363205
0.105725
0.0345892
0.0169069
0.016027
0.0166017
0.0174078
0.0180149
0.0185857
0.019014
0.0196053
0.0199884
0.0201208
0.0202867
0.0226758
0.0225943
0.0220968
0.0215471
0.0223651
0.0216618
0.0217202
0.0223412
0.021812
0.0219377
0.0230206
0.0241788
0.0237309
0.0243357
0.0256669
0.0244962
0.0227247
0.0225364
0.0226722
0.0233802
0.0245503
0.0233316
0.0239762
0.0231428
0.0241382
0.0242121
0.0208582
0.020493
0.0203081
0.0198274
0.0191985
0.0185853
0.0178865
0.017093
0.0162113
0.0154235
0.0147501
0.015452
0.0150147
0.0143406
0.0190094
0.017576
0.0169674
0.0169726
0.0173287
0.0178208
0.0184911
0.0192301
0.0199192
0.0204656
0.0206528
0.0212393
0.0251909
0.0251922
0.0264174
0.0251834
0.0265428
0.0255007
0.024141
0.0232635
0.0244873
0.0237711
0.0242553
0.0259482
0.0268564
0.0245043
0.0248268
0.0222357
0.0207886
0.0190817
0.0194509
0.0210004
0.0216865
0.0241999
0.024227
0.0277587
0.0276401
0.0274
0.0260763
0.0253884
0.0268713
0.0253534
0.0265191
0.025381
0.0268226
0.0280017
0.028406
0.0277075
0.0267576
0.0258825
0.0215296
0.0207364
0.0204309
0.0198715
0.0192455
0.0188698
0.0196381
0.022776
0.0279338
0.0345911
0.0419104
0.0470402
0.045174
0.0222913
0.0282189
0.0218117
0.0303788
0.0334599
0.0552063
0.0277346
0.083715
0.0672769
0.0407442
0.0539756
0.0639743
0.0715689
0.0769888
0.071605
0.0562584
0.039628
0.0352755
0.0377668
0.0732892
0.0730606
0.0807081
0.0772563
0.0815812
0.079919
0.0775225
0.0761991
0.0746534
0.0707312
0.0706649
0.0684987
0.0686273
0.0611105
0.0622794
0.0626813
0.060164
0.0574037
0.0551143
0.0529277
0.0506061
0.04665
0.0453225
0.0427699
0.0409392
0.0375138
0.0370128
0.0365321
0.0343175
0.0327294
0.031451
0.0301623
0.0284229
0.028567
0.0269068
0.0267291
0.0217851
0.0214161
0.0204036
0.0200183
0.0195251
0.0190182
0.0188091
0.0190876
0.0362466
0.0309057
0.0324286
0.0336544
0.0340611
0.0402669
0.0471383
0.0718959
0.0666605
0.0736633
0.0628483
0.0654274
0.0645257
0.0640708
0.0667698
0.0704204
0.0757619
0.0882789
0.335617
0.513921
0.254847
0.238539
0.247936
0.252684
0.260241
0.341737
0.361666
0.35912
0.362456
0.33234
0.318849
0.196685
0.226252
0.238232
0.236785
0.22317
0.194729
0.362624
0.522812
0.518862
0.523664
0.523777
0.518761
0.522643
0.502907
0.514261
0.501761
0.51503
0.50231
0.521743
0.519031
0.504364
0.501133
0.501149
0.50091
0.501368
0.501547
0.504876
0.506039
0.506091
0.505087
0.503888
0.514664
0.389541
0.0891084
0.0607731
0.0965107
0.134144
0.105046
0.162509
0.192676
0.136306
0.0740716
0.0571634
0.0655014
0.0781998
0.0783293
0.0998882
0.135917
0.12958
0.104768
0.105978
0.100058
0.137756
0.133493
0.159811
0.196315
0.196211
0.136376
0.104513
0.0957683
0.164724
0.186095
0.181486
0.074815
0.0277968
0.0199579
0.0202678
0.0314663
0.0155229
0.0170149
0.0172572
0.0277728
0.0642836
0.0278989
0.0854734
0.0923449
0.158557
0.12854
0.160714
0.0965156
0.10938
0.0621236
0.0737559
0.0838958
0.090581
0.0917085
0.0802187
0.179992
0.256717
0.157013
0.51861
0.512496
0.17356
0.207733
0.567552
0.513147
0.503371
0.50175
0.501689
0.501851
0.501808
0.500962
0.500909
0.500723
0.500762
0.500714
0.501161
0.504766
0.520502
0.514695
0.505243
0.501385
0.500823
0.500796
0.500687
0.500725
0.500744
0.500799
0.501009
0.501039
0.501136
0.50165
0.503915
0.512183
0.441302
0.168997
0.182859
0.408765
0.364401
0.511587
0.504627
0.501358
0.500929
0.500845
0.500819
0.500787
0.500961
0.500885
0.501391
0.501226
0.501285
0.502782
0.508282
0.506446
0.448351
0.373638
0.422545
0.333659
0.506722
0.507799
0.503273
0.502889
0.503236
0.503399
0.501504
0.501513
0.500981
0.501047
0.500881
0.501331
0.504766
0.51114
0.348419
0.171877
0.178497
0.260204
0.0874002
0.0896303
0.0907979
0.0923821
0.236233
0.409788
0.522551
0.443799
0.457943
0.519531
0.371541
0.351914
0.282875
0.308342
0.389282
0.340064
0.308404
0.244718
0.282059
0.244808
0.301662
0.216573
0.234324
0.221484
0.281603
0.286253
0.287182
0.227108
0.216572
0.271197
0.287742
0.320144
0.218975
0.26083
0.202488
0.192098
0.0854635
0.0867683
0.0782466
0.0679116
0.0688405
0.0773473
0.0763536
0.082651
0.0800656
0.0843413
0.081803
0.0792956
0.0720515
0.0738451
0.067315
0.0696364
0.12915
0.166348
0.149966
0.150825
0.178935
0.126815
0.154731
0.144988
0.189576
0.237525
0.185397
0.229998
0.193404
0.257853
0.382561
0.732826
0.346046
0.209169
0.301539
0.342487
0.286596
0.187786
0.44811
0.544773
0.299724
0.366632
1.21915
1.05561
1.79788
0.978869
1.08321
0.63478
0.58769
1.01084
0.631215
0.63355
0.531104
0.555238
0.456908
0.295902
0.289952
0.275627
0.216168
0.24658
0.238639
0.253416
0.279506
0.239522
0.288733
0.326588
0.371752
0.309644
0.266381
0.336045
0.194879
0.251208
0.306212
0.280725
0.228818
0.295335
0.397099
0.346354
0.292346
0.352249
0.456388
0.506037
0.44818
0.374357
0.416909
0.919619
0.86514
0.870825
0.535986
1.92196
1.63508
0.274348
0.0960525
0.0586966
0.0271074
0.02183
0.0186711
0.0182083
0.0476943
0.0199605
0.0235946
0.0207421
0.0251804
0.0255015
0.0292287
0.0460434
0.0339278
0.0432933
0.0332457
0.0380368
0.032719
0.0421619
0.0441068
0.0443192
0.035387
0.0313209
0.0440225
0.0552706
0.0296908
0.062596
0.0663763
0.0434419
0.0548745
0.0655733
0.0344281
0.131709
0.0495507
0.0458469
0.0485647
0.0846004
0.18364
0.0618174
0.0890933
0.501567
1.46074
0.445772
0.161496
0.125898
0.0413382