/*--------------------------------*- C++ -*----------------------------------*\
| =========                 |                                                 |
| \\      /  F ield         | OpenFOAM: The Open Source CFD Toolbox           |
|  \\    /   O peration     | Version:  v2012                                 |
|   \\  /    A nd           | Website:  www.openfoam.com                      |
|    \\/     M anipulation  |                                                 |
\*---------------------------------------------------------------------------*/
FoamFile
{
    version     2.0;
    format      ascii;
    class       volScalarField;
    location    "730";
    object      k;
}
// * * * * * * * * * * * * * * * * * * * * * * * * * * * * * * * * * * * * * //

dimensions      [0 2 -2 0 0 0 0];


internalField   nonuniform List<scalar> 
18258
(
0.0334186
0.0157504
0.0123064
0.0101605
0.0109776
0.0139737
0.0167669
0.0211248
0.0255365
0.0314697
0.038536
0.0474692
0.0534747
0.0606345
0.0636258
0.0619363
0.052103
0.0473575
0.0567311
0.0811369
0.0708928
0.051335
0.0620537
0.0614697
0.072743
0.0770577
0.0606942
0.0553075
0.0498354
0.0441408
0.0376642
0.0237918
0.0239901
0.0286465
0.0319618
0.0357281
0.0386494
0.0410611
0.0426867
0.0435053
0.0434143
0.0421089
0.0393993
0.0352651
0.0296976
0.0235521
0.0224598
0.024485
0.030283
0.0356001
0.0409133
0.0464504
0.054833
0.0448027
0.0290729
0.0392889
0.0477944
0.0546885
0.0590985
0.0615258
0.0622675
0.0613343
0.0590271
0.0557535
0.0517823
0.0474376
0.0434186
0.0394341
0.0341921
0.0309321
0.0268236
0.0234819
0.021044
0.0193334
0.0182161
0.0172116
0.016345
0.0156109
0.0149944
0.0145703
0.0144793
0.0145064
0.0146078
0.0147054
0.0150519
0.0127031
0.0109306
0.0104637
0.0102089
0.0095576
0.00809933
0.0106517
0.0117563
0.0121721
0.0124414
0.0136196
0.0147726
0.0143447
0.0136203
0.012509
0.0125387
0.0170158
0.0177906
0.0228213
0.0216406
0.0168057
0.0148735
0.0166572
0.0194899
0.0225314
0.0192616
0.0192407
0.0179417
0.0170318
0.014887
0.0149283
0.0144163
0.0141087
0.0150322
0.0177901
0.0171989
0.0173084
0.0185322
0.0188556
0.0200834
0.0210984
0.0204389
0.0202546
0.0164013
0.0163008
0.0173412
0.0172144
0.0176949
0.0201883
0.0202456
0.020592
0.0208093
0.0235953
0.0236138
0.023577
0.0236681
0.0244978
0.023542
0.0231313
0.0231617
0.0231975
0.0210317
0.0208083
0.0204433
0.0204814
0.0183164
0.0175793
0.0183106
0.0192906
0.0212655
0.025016
0.0314493
0.0403677
0.0504597
0.0606998
0.0684723
0.0728358
0.0772042
0.0766916
0.0774026
0.0795174
0.0798966
0.0787609
0.0769173
0.074761
0.0718222
0.0672112
0.0667784
0.0591374
0.0482263
0.0334706
0.0390015
0.0418578
0.0446201
0.0449048
0.0453656
0.0441184
0.042311
0.0386948
0.0335306
0.0246357
0.0261606
0.0305817
0.0351957
0.0389466
0.0430788
0.0466235
0.048346
0.0499515
0.0591421
0.0570839
0.0552593
0.0571272
0.0586417
0.0617902
0.0601341
0.0562286
0.0504734
0.0521578
0.0453697
0.0340998
0.0318911
0.0297878
0.0272304
0.0376893
0.0495335
0.0613589
0.0678653
0.0741107
0.0790523
0.0831476
0.0877355
0.0822357
0.0770286
0.0581083
0.084547
0.0665047
0.0511664
0.0419427
0.0342507
0.0299722
0.0333229
0.0337019
0.0320491
0.0273818
0.0217835
0.023354
0.036007
0.0457932
0.0538527
0.0555032
0.0602221
0.0626189
0.057283
0.0578724
0.0469164
0.0480596
0.0517811
0.0466229
0.0442495
0.0356745
0.0279533
0.0337721
0.050303
0.0690551
0.085252
0.100435
0.0668706
0.0508942
0.0417761
0.0350409
0.0336046
0.0381476
0.0440942
0.0532962
0.0412895
0.0373007
0.0338519
0.0310314
0.0254129
0.0272043
0.0282811
0.0267572
0.04997
0.0582983
0.0620141
0.0845081
0.0928864
0.108922
0.107895
0.0932171
0.0967043
0.069247
0.0691884
0.0868772
0.068688
0.0515316
0.0617863
0.0746515
0.088433
0.101578
0.112886
0.121987
0.123677
0.112169
0.0813004
0.0468082
0.0213012
0.018646
0.0180897
0.0173815
0.0164947
0.0157028
0.0150878
0.0121435
0.00950708
0.00927842
0.00945754
0.00940264
0.00826476
0.00951326
0.0115743
0.0137677
0.0152771
0.0164874
0.0175086
0.0182437
0.0188331
0.0192326
0.0195308
0.0197996
0.0200359
0.0202225
0.0203609
0.0204518
0.0204944
0.0204807
0.0204042
0.0202635
0.0200569
0.0197684
0.0192946
0.0177655
0.0159101
0.0150778
0.0151361
0.0148857
0.0145822
0.0119474
0.0123241
0.0143405
0.0149742
0.0177677
0.0198048
0.0215088
0.0229634
0.0244908
0.0252682
0.0260986
0.0263667
0.0264223
0.026326
0.0261814
0.0259647
0.0256739
0.0246225
0.0213006
0.0248976
0.0272927
0.0289757
0.0303242
0.0312237
0.0313314
0.028604
0.0360334
0.0385204
0.0394278
0.0396867
0.0388649
0.0368631
0.0344294
0.0323863
0.0308812
0.0297656
0.027628
0.0253812
0.0230707
0.0206529
0.0174268
0.0186935
0.0205338
0.0207446
0.0204545
0.0215035
0.0227639
0.02111
0.0190231
0.0161334
0.0151333
0.0146367
0.0144412
0.0148395
0.0145039
0.0144104
0.0149139
0.017931
0.0190249
0.020729
0.0239848
0.0228478
0.0209004
0.028074
0.0296939
0.0301448
0.0304909
0.0303973
0.029642
0.0265533
0.0250969
0.0264839
0.0250267
0.0243935
0.0244813
0.0241133
0.0222464
0.0245499
0.0265525
0.0281426
0.0289892
0.0302312
0.0317844
0.0339435
0.0357335
0.0373901
0.0383987
0.0383928
0.0378809
0.0380811
0.038763
0.0385036
0.036794
0.0347129
0.0326166
0.0296599
0.0294287
0.0314026
0.0329666
0.0346294
0.0364062
0.0356965
0.0338123
0.0321856
0.0307641
0.0290528
0.02892
0.0305968
0.0320406
0.0337767
0.0358885
0.0360496
0.0339172
0.0321031
0.0306004
0.0288982
0.0288585
0.0305576
0.0320674
0.0337868
0.0356661
0.0347927
0.0333278
0.0318088
0.0303435
0.0286807
0.0282384
0.0298411
0.0312218
0.0325335
0.0335955
0.0319216
0.0313335
0.0302644
0.028876
0.0271181
0.0258614
0.0263704
0.027759
0.0278696
0.0283474
0.0294654
0.0293111
0.029028
0.0289814
0.0286996
0.0264524
0.0268601
0.0269104
0.0276035
0.0309054
0.0304267
0.0331075
0.0355294
0.0332173
0.0317206
0.0281403
0.0337158
0.033761
0.0347263
0.0335522
0.0237659
0.0219077
0.0229061
0.024443
0.0260883
0.0254024
0.0226446
0.022587
0.0231986
0.0226157
0.0210565
0.0180652
0.013566
0.0135755
0.0135685
0.0143051
0.017114
0.0187062
0.0188127
0.0186536
0.0183478
0.017873
0.017153
0.0160776
0.0156176
0.0245858
0.0445083
0.0563688
0.0557776
0.0424156
0.0355229
0.0262193
0.0181196
0.0108076
0.0106985
0.0113677
0.0136956
0.0114839
0.010657
0.0146905
0.0118871
0.0198212
0.0229581
0.0302927
0.0413097
0.0398447
0.0302116
0.0204185
0.0184517
0.0193195
0.0198369
0.0202282
0.0206132
0.0210022
0.0214257
0.0219421
0.0216269
0.0189851
0.016738
0.0168662
0.0174386
0.0199479
0.0213277
0.0221186
0.0217803
0.0220219
0.0237491
0.0224989
0.0212769
0.021074
0.0203709
0.0232197
0.0235636
0.0229273
0.0229326
0.0232092
0.0230939
0.0232262
0.024033
0.019835
0.0219479
0.0224982
0.022782
0.0235788
0.0190699
0.0192596
0.0193237
0.0181671
0.0149471
0.0180422
0.016799
0.0121809
0.013496
0.0134517
0.0140602
0.0143839
0.0171223
0.0162837
0.0155694
0.0163464
0.0223299
0.0231355
0.0233138
0.0206684
0.0194228
0.0219202
0.0225099
0.0220505
0.0211615
0.0213277
0.0203807
0.0184692
0.0177484
0.0178857
0.0193036
0.0201047
0.0201739
0.023799
0.0232936
0.021723
0.0227241
0.0233209
0.0229099
0.0227971
0.02274
0.0223682
0.0219432
0.0223583
0.0225504
0.0226054
0.0221615
0.0224153
0.0250709
0.0214776
0.0212863
0.0201996
0.0195405
0.0179074
0.0176512
0.0177491
0.0177087
0.0176137
0.0167751
0.0186364
0.017911
0.0200447
0.021661
0.0228153
0.0239914
0.0241432
0.023713
0.0236741
0.0232888
0.0232558
0.022703
0.0218538
0.0212676
0.0204861
0.0192749
0.0192669
0.0192171
0.0190728
0.0204807
0.0203793
0.0219489
0.0230738
0.0227879
0.0218183
0.0217099
0.020529
0.0205064
0.0215517
0.0224452
0.0226954
0.023564
0.0261158
0.0237499
0.0253058
0.0259995
0.026665
0.0260513
0.02495
0.0257029
0.0240387
0.0229251
0.0242473
0.0249713
0.0262344
0.0270285
0.0250505
0.0240225
0.0228237
0.0219593
0.0209696
0.0184432
0.01906
0.0198529
0.0210863
0.0229005
0.0256293
0.0283717
0.0313003
0.0313593
0.029054
0.0273556
0.0321731
0.0316388
0.0366218
0.0372332
0.0330947
0.0302758
0.027355
0.0269337
0.0260134
0.0254779
0.0241933
0.0254432
0.0258721
0.0249253
0.0274051
0.0289855
0.0333239
0.0389131
0.0355822
0.0327312
0.0377715
0.03667
0.0426612
0.0364335
0.0347627
0.0286277
0.0332234
0.035566
0.0433446
0.0339284
0.029737
0.0295015
0.030814
0.0383148
0.0368659
0.0394819
0.0446325
0.0439695
0.0390681
0.0358339
0.0416276
0.0316541
0.0370774
0.0390933
0.0324484
0.0322262
0.0391215
0.0397398
0.0398924
0.0337844
0.0330739
0.0250531
0.0336343
0.0401275
0.0400373
0.0332397
0.0260002
0.0359383
0.0315728
0.0313811
0.0313764
0.0269756
0.0269073
0.0261953
0.0264521
0.0271714
0.0247182
0.0255315
0.0257993
0.0259713
0.0261136
0.0263199
0.0266832
0.0273565
0.0281498
0.0229524
0.0244306
0.0230233
0.0216322
0.0202227
0.0240122
0.0264884
0.0282934
0.0297456
0.0308845
0.0313857
0.030052
0.0379626
0.0396211
0.0413261
0.0415026
0.0402627
0.0375772
0.0341083
0.0305763
0.0282134
0.0268727
0.0243103
0.0222177
0.0201911
0.0180775
0.015336
0.0140629
0.0127429
0.0114255
0.0110656
0.0105044
0.00987616
0.00912484
0.00863458
0.0111912
0.0205139
0.028526
0.0333384
0.0385239
0.0450812
0.0515772
0.056846
0.0607372
0.0634987
0.0652408
0.065697
0.0631253
0.052993
0.0480998
0.0433362
0.0384574
0.0334008
0.032351
0.0415016
0.0497291
0.0566519
0.0628864
0.0669345
0.0653101
0.0498115
0.0469924
0.0628533
0.0903339
0.0811648
0.104163
0.120376
0.0801598
0.0652082
0.0642215
0.0793872
0.0818149
0.0752868
0.0664631
0.0567608
0.0459749
0.0510234
0.0557424
0.0601434
0.0645755
0.076965
0.0794431
0.0782931
0.0758384
0.0726662
0.0683709
0.0618544
0.053332
0.044472
0.0370787
0.0304357
0.0213379
0.0119716
0.0142821
0.0135447
0.0174862
0.0157753
0.00975841
0.00971286
0.00991006
0.00983872
0.00967628
0.00966948
0.01108
0.0180252
0.0146425
0.0131869
0.0113248
0.0142588
0.0161726
0.0181754
0.0187546
0.0187911
0.0192936
0.0343883
0.0439853
0.0496886
0.0544331
0.0574749
0.056079
0.0526928
0.0468121
0.0403608
0.037693
0.0338543
0.0303573
0.028546
0.0293218
0.0258457
0.0163846
0.0146507
0.0156648
0.015433
0.0144599
0.0163711
0.0175631
0.0183143
0.0189192
0.0193702
0.0197157
0.0199614
0.020124
0.0202092
0.0202347
0.0202146
0.0201536
0.0200497
0.0198995
0.0196913
0.0193948
0.0188847
0.017188
0.0153584
0.0146521
0.0147367
0.0145073
0.0141466
0.0122731
0.0124932
0.0143509
0.0149486
0.0145577
0.0151375
0.015601
0.0168003
0.0189846
0.0211275
0.022968
0.0216706
0.0210276
0.020989
0.0205788
0.0173305
0.0205923
0.0235818
0.0241114
0.0243947
0.0252055
0.0267977
0.0277538
0.0268145
0.0262953
0.0257503
0.0225284
0.0241023
0.0277886
0.0282173
0.0289232
0.0295382
0.030117
0.031398
0.0307468
0.0298076
0.0291825
0.0261917
0.0253171
0.0317886
0.0205296
0.013915
0.00993037
0.0106433
0.0107189
0.0102484
0.0109358
0.0114234
0.0116584
0.0111579
0.0122348
0.0131441
0.0125065
0.0151522
0.0143811
0.0132632
0.0127612
0.0137819
0.0147495
0.0152172
0.0160911
0.0260655
0.0267167
0.0224928
0.0288191
0.0314098
0.0289791
0.0317594
0.0293654
0.0278927
0.0306366
0.034175
0.0356628
0.033288
0.0317582
0.0313044
0.0207659
0.0200667
0.0193742
0.0175142
0.0177099
0.0172101
0.0167588
0.0163513
0.0189201
0.0202847
0.0214563
0.0211462
0.0208054
0.0203256
0.0209275
0.0257201
0.0354134
0.0439297
0.0466064
0.0452827
0.0416142
0.0351616
0.0293829
0.0287898
0.0268611
0.025494
0.0251614
0.0193286
0.0150194
0.0172695
0.0173416
0.0183812
0.0190301
0.0195357
0.0199376
0.0202718
0.0205592
0.0208376
0.0211064
0.021347
0.0215548
0.0217372
0.0218917
0.0220572
0.0222543
0.0225228
0.0227434
0.0211384
0.0185308
0.0171975
0.0170512
0.017765
0.0186634
0.019786
0.0190411
0.015336
0.0154203
0.0218134
0.0222527
0.0208835
0.0194661
0.0196746
0.0188343
0.0226188
0.0224244
0.0231953
0.0229725
0.0226753
0.0223762
0.0220775
0.0217704
0.0214795
0.0212279
0.0210047
0.0208035
0.0206108
0.0204226
0.0201487
0.0197313
0.0190524
0.0182283
0.0170322
0.0183292
0.0191378
0.0207901
0.0228991
0.0240116
0.0230885
0.0216606
0.0209136
0.0210533
0.0213698
0.0217218
0.0220977
0.0225291
0.0229691
0.0233851
0.0233595
0.0220311
0.022672
0.0173828
0.0182338
0.0185344
0.0184921
0.020155
0.0193133
0.0146179
0.0151069
0.0158171
0.0171062
0.0196967
0.0200506
0.0213931
0.0216156
0.0172362
0.0169256
0.0165012
0.0175092
0.0151386
0.0157829
0.0265179
0.0271027
0.0348276
0.0382005
0.0397762
0.0330176
0.0454388
0.0522716
0.0503968
0.04077
0.0234358
0.0345296
0.0420321
0.0486741
0.0456208
0.0354789
0.0447419
0.0471961
0.0629474
0.0586044
0.052264
0.0629473
0.0445369
0.0268165
0.0157599
0.0163334
0.0151508
0.0305539
0.0346398
0.0313466
0.0321976
0.0397898
0.0408027
0.0360915
0.0343936
0.0361459
0.0356965
0.0396351
0.0369536
0.0335751
0.0232116
0.0189447
0.0197844
0.0211959
0.0230345
0.0253814
0.0252696
0.0241186
0.0227511
0.0217727
0.020722
0.0182303
0.0175793
0.0195324
0.021158
0.0225343
0.0240445
0.0248692
0.025714
0.0258817
0.0257752
0.0254516
0.0250202
0.024461
0.0237723
0.0223631
0.0235638
0.0242372
0.0244546
0.0247418
0.0250623
0.0253453
0.0254931
0.0253824
0.0244255
0.0236121
0.0224462
0.0213327
0.0197314
0.0176213
0.0183034
0.0200577
0.0216532
0.0227633
0.0238106
0.0234178
0.0239086
0.0245681
0.0245829
0.0243912
0.0241596
0.0240001
0.0240867
0.0247205
0.0264602
0.026323
0.0293119
0.0304687
0.0278573
0.0265047
0.0257947
0.0253542
0.0250973
0.0248816
0.0246747
0.0241216
0.0235818
0.0240909
0.0243524
0.0246574
0.0250219
0.0255343
0.0262287
0.0273249
0.0287481
0.0286495
0.0262752
0.0260197
0.0249383
0.0241478
0.0237735
0.0237297
0.0237818
0.0238937
0.0238436
0.0233283
0.0230051
0.0234147
0.0224062
0.0224734
0.021506
0.020151
0.0187152
0.0172692
0.0166103
0.0351095
0.0351093
0.0455519
0.04224
0.0369419
0.0469174
0.0598252
0.0518721
0.0625077
0.0662777
0.0538726
0.0500443
0.0277663
0.024305
0.0173404
0.0188602
0.0202004
0.0214013
0.0212148
0.0221315
0.0220107
0.0229737
0.0224326
0.0216535
0.0211086
0.0200973
0.0201549
0.0188886
0.0173497
0.017216
0.0188574
0.019897
0.0210741
0.0210564
0.0225107
0.0230131
0.0234003
0.0235407
0.0235252
0.0236123
0.0237781
0.0242289
0.0249483
0.0254372
0.0256347
0.0261465
0.0258848
0.0255802
0.0251456
0.0248486
0.0245364
0.0242571
0.0239581
0.0236731
0.0232338
0.0225738
0.022454
0.0229719
0.023317
0.023553
0.0236862
0.0236595
0.023451
0.0231135
0.0227665
0.0223916
0.0224308
0.0236797
0.0239186
0.024036
0.023808
0.023622
0.0235975
0.0234699
0.0233725
0.0231528
0.0227958
0.0223312
0.0212705
0.02136
0.0222317
0.0226666
0.0229849
0.0232527
0.0232807
0.0232113
0.022845
0.0225657
0.0222237
0.021658
0.0208986
0.0184814
0.0189946
0.019638
0.0205141
0.0213931
0.0221408
0.0226192
0.0228221
0.0228264
0.0226539
0.0222984
0.0215451
0.0215244
0.0220674
0.0222348
0.0221778
0.0218584
0.0212124
0.0202612
0.0190302
0.0177937
0.0168248
0.0163729
0.0156098
0.0180692
0.0191296
0.0200863
0.0209499
0.0217551
0.0226049
0.0229142
0.0229611
0.0228131
0.0225558
0.022152
0.0213919
0.0213887
0.0220809
0.0224632
0.0226754
0.0227632
0.0225128
0.0218672
0.0203284
0.0189125
0.0177316
0.0166371
0.0154987
0.0154197
0.0159288
0.0154406
0.0158169
0.0169247
0.0184088
0.0197853
0.0207995
0.0214156
0.021714
0.0217491
0.0214193
0.0212357
0.021361
0.0211563
0.020653
0.0197776
0.0184875
0.017021
0.0158196
0.0154874
0.0161543
0.0168024
0.0161938
0.0138249
0.0149448
0.0160432
0.0171654
0.0188458
0.0209133
0.0218797
0.0223474
0.0224826
0.022357
0.021997
0.0213549
0.0212935
0.0219089
0.0222641
0.0223734
0.0222848
0.0218799
0.0210889
0.0185701
0.0158014
0.0145567
0.0138427
0.0129092
0.0163435
0.0170511
0.0162275
0.0156819
0.016533
0.0175495
0.0186792
0.019551
0.0201836
0.0206853
0.0209632
0.0209936
0.0207188
0.0206026
0.0203836
0.0200483
0.0197367
0.0194214
0.0186645
0.0178439
0.0168559
0.0179222
0.0185069
0.0177419
0.0143946
0.0149491
0.0157833
0.0162724
0.0189671
0.0214598
0.0220996
0.0222577
0.0223423
0.022201
0.0218089
0.0212026
0.0210789
0.0217065
0.0221846
0.0224919
0.0228007
0.0230385
0.023206
0.0212865
0.0179838
0.0172795
0.0155191
0.0146944
0.0183053
0.0189985
0.0184882
0.0179255
0.0196228
0.0203222
0.0205571
0.0205286
0.0204274
0.0203133
0.0203248
0.0204371
0.0201366
0.0200149
0.0201254
0.0203587
0.0203348
0.0201279
0.0195662
0.0187977
0.0176876
0.0195605
0.0212798
0.0209873
0.0169231
0.0174572
0.0183591
0.0178777
0.0205749
0.0224191
0.0228991
0.0228365
0.022523
0.0220539
0.0215227
0.0208947
0.0206235
0.0211785
0.0217351
0.0217735
0.0218716
0.0218348
0.0212943
0.0211418
0.0205872
0.0203328
0.0195951
0.0190446
0.0183132
0.020459
0.0236161
0.0257943
0.0273814
0.0292648
0.0279313
0.0244617
0.0222268
0.0153821
0.0153791
0.0155877
0.0149307
0.0145407
0.0143554
0.0187029
0.0213862
0.0240202
0.0257289
0.0233097
0.02328
0.023205
0.0230941
0.0229902
0.0229013
0.0227087
0.023591
0.0415006
0.283294
0.211415
0.236336
0.225152
0.315749
0.0802813
0.0393033
0.0437608
0.051409
0.0596039
0.0581714
0.0540313
0.0470358
0.0422867
0.0418624
0.0410989
0.0408455
0.0391213
0.0390696
0.0379246
0.0441621
0.0873047
0.119752
0.133725
0.142478
0.152241
0.147847
0.157264
0.14963
0.150295
0.151974
0.156685
0.149358
0.141928
0.137971
0.133686
0.116523
0.116926
0.098688
0.102538
0.0855865
0.0899128
0.0937876
0.0931401
0.0919272
0.0916876
0.0919308
0.0927044
0.0962667
0.0917423
0.098922
0.0924694
0.0752415
0.0729127
0.0756656
0.0698298
0.0610143
0.0695367
0.085607
0.101887
0.118064
0.0995999
0.122902
0.115153
0.114035
0.108398
0.10213
0.0984276
0.0977549
0.0983796
0.0994807
0.102072
0.103922
0.105452
0.108217
0.116698
0.118859
0.117295
0.100122
0.0852077
0.0935871
0.0983519
0.102162
0.102547
0.0980702
0.095785
0.0892752
0.0876862
0.0820073
0.079528
0.0739461
0.0707497
0.0659274
0.0822711
0.0806184
0.0875556
0.0937383
0.0980708
0.101585
0.103186
0.104291
0.103058
0.100607
0.0958303
0.0939542
0.0892994
0.10738
0.125565
0.12851
0.124066
0.110673
0.10519
0.335756
0.407451
0.408373
0.605534
0.646121
0.834524
0.332755
0.17927
0.191277
0.187947
0.179867
0.176679
0.17638
0.188004
0.197032
0.188558
0.198616
0.178529
0.173488
0.172136
0.202953
0.201589
0.182378
0.160039
0.129216
0.106474
0.1077
0.0895626
0.0905974
0.0769439
0.07645
0.0763549
0.090146
0.160192
0.203356
0.229866
0.256069
0.31555
0.286234
0.433649
0.349174
0.435329
0.301351
0.325067
0.310986
0.302373
0.300346
0.316165
0.33747
0.297051
0.368984
0.296059
0.642947
0.777972
0.495889
0.457243
0.405679
0.3919
0.38228
0.3769
0.368619
0.485124
0.450645
0.548193
0.509203
0.630965
0.56192
0.576942
0.543344
0.585076
0.607274
0.621627
0.501619
0.555456
0.43392
0.470735
0.388304
0.423195
0.295595
0.292449
0.329842
0.367469
0.391909
0.445416
0.703098
0.598423
0.807394
0.580177
0.702039
0.487966
0.533371
0.509779
0.492025
0.493331
0.520972
0.625306
0.605244
0.689291
0.514646
0.526976
0.516645
0.534012
0.523428
0.55843
0.563103
0.56425
0.562179
0.52339
0.533936
0.532151
0.531957
0.531984
0.532324
0.50956
0.512729
0.505204
0.510984
0.526923
0.514551
0.514482
0.512349
0.504777
0.502727
0.502247
0.504
0.503773
0.5089
0.508771
0.509106
0.512149
0.526845
0.514414
1.81535
0.898956
0.426738
0.336594
0.218758
0.133533
0.0546865
0.0589838
0.0617672
0.0625525
0.0603767
0.0548969
0.0467248
0.0368323
0.0291291
0.028131
0.0251153
0.0276515
0.0349343
0.0424214
0.0387043
0.0464604
0.0541491
0.0624517
0.0704278
0.0773841
0.0832713
0.0862105
0.0831718
0.0704365
0.0527564
0.0353211
0.0250308
0.0226223
0.0209751
0.0189803
0.0168715
0.0152088
0.0142088
0.0130441
0.0124166
0.0123312
0.0125553
0.0127972
0.0132397
0.0147541
0.0160542
0.0172394
0.0182023
0.0184475
0.0179306
0.0184742
0.0190707
0.019467
0.0198126
0.0196376
0.0196347
0.0198865
0.0198486
0.0200643
0.0199685
0.0199895
0.0198521
0.0196954
0.0194712
0.0190443
0.0187656
0.0182042
0.017853
0.0170062
0.0170425
0.0174664
0.0177992
0.0167956
0.0167464
0.0159723
0.0268787
0.0480123
0.0611469
0.0661823
0.0714737
0.0674538
0.0570811
0.0390989
0.0192436
0.018898
0.0193637
0.0219316
0.0214306
0.0173316
0.0181031
0.0188319
0.0175761
0.0174454
0.0174737
0.0195114
0.0201008
0.0214544
0.021943
0.0223061
0.02252
0.0224518
0.0225366
0.0222395
0.0222319
0.021841
0.021819
0.0215077
0.0212856
0.0215759
0.0222764
0.0223655
0.0230298
0.0227572
0.0224947
0.0219462
0.0215462
0.020706
0.0197912
0.0187855
0.0172346
0.0167933
0.0173375
0.0178522
0.0174041
0.0189205
0.019969
0.0196518
0.0245691
0.0228222
0.0203697
0.0229122
0.0185183
0.0186678
0.0182515
0.0171682
0.0177119
0.0172178
0.0170905
0.0173888
0.0176493
0.0188255
0.0197857
0.0204118
0.0212621
0.0219079
0.0226076
0.0237542
0.024015
0.0230016
0.0228022
0.021619
0.0209465
0.0206321
0.0215462
0.0228277
0.0227639
0.0236861
0.0234767
0.022285
0.0214885
0.0206375
0.0196723
0.0190261
0.018266
0.0175413
0.0171463
0.0163578
0.0164939
0.0154617
0.0169484
0.0171974
0.0190278
0.0173407
0.0170249
0.0225965
0.0284274
0.0442932
0.0322989
0.0212083
0.02214
0.0299469
0.036916
0.0255047
0.0249417
0.0149369
0.0162243
0.0153808
0.0156156
0.0166894
0.0169667
0.0181174
0.0191607
0.0193888
0.0201292
0.0204645
0.0212333
0.0214862
0.022212
0.0224007
0.0236269
0.0236851
0.0237186
0.0236914
0.022862
0.0227848
0.0227744
0.0232385
0.0230383
0.0237695
0.0238063
0.0239189
0.0238671
0.0225719
0.0222561
0.0214954
0.0209877
0.0200869
0.0195477
0.0188383
0.01846
0.0178444
0.0181554
0.0188684
0.0190705
0.0199691
0.0199877
0.0207333
0.0209354
0.0213969
0.021526
0.0221853
0.0223205
0.0225827
0.0226367
0.0238102
0.0239185
0.0239411
0.0239045
0.0239171
0.0241337
0.0241221
0.0240567
0.0240274
0.0238911
0.0237147
0.02354
0.0245964
0.0252863
0.0248907
0.0246679
0.0249361
0.0257805
0.0263327
0.0274036
0.02825
0.0293006
0.0301812
0.0309862
0.0316527
0.0321183
0.0322413
0.0322727
0.0318374
0.0314672
0.0331732
0.0396424
0.042857
0.0480881
0.0504579
0.0524694
0.0532383
0.0520618
0.0527551
0.0514555
0.0517046
0.0504725
0.0500191
0.0491624
0.0481354
0.0473917
0.0459067
0.0451602
0.0497522
0.0561091
0.056122
0.0491517
0.0462546
0.041533
0.0356795
0.0381239
0.044193
0.0394728
0.0376433
0.0346517
0.0294922
0.0222333
0.0179303
0.02582
0.0334947
0.0406984
0.047491
0.0534808
0.0573531
0.0594648
0.0609856
0.0626805
0.060643
0.0531904
0.0415528
0.0316851
0.0277891
0.026229
0.023795
0.0203688
0.0184899
0.0174212
0.0162721
0.0149301
0.0140783
0.0138373
0.0140878
0.0142054
0.0155541
0.0168192
0.0168118
0.0179952
0.017804
0.0183174
0.0189122
0.0193196
0.0199747
0.019949
0.0189852
0.0193411
0.0196063
0.0202913
0.0201954
0.0203732
0.020167
0.0194544
0.0189456
0.0183481
0.017833
0.0173728
0.0167976
0.0160752
0.0160721
0.0162686
0.0158082
0.016222
0.0166645
0.017074
0.0176995
0.018612
0.0193662
0.0211924
0.0213167
0.0210578
0.0211398
0.0197013
0.0196314
0.0186534
0.0184133
0.0200099
0.0198455
0.0181744
0.0195672
0.0195801
0.0213712
0.0213861
0.0207112
0.0209145
0.0208188
0.0189986
0.0181115
0.0170384
0.0162603
0.0156697
0.0152691
0.0147995
0.015434
0.0142223
0.0136419
0.0140981
0.0140719
0.014137
0.0145276
0.014958
0.0157026
0.0164083
0.01746
0.0181007
0.0189988
0.0193299
0.0212333
0.0211324
0.0209856
0.0210168
0.0211525
0.0215966
0.0208157
0.020777
0.020922
0.0209381
0.0209796
0.0209684
0.0191351
0.0189332
0.0180993
0.0177811
0.0168441
0.0164853
0.0158286
0.0155131
0.0151209
0.0149244
0.0233281
0.0255355
0.0256898
0.0398916
0.0200448
0.0200196
0.0344938
0.0173842
0.023142
0.0236882
0.0247634
0.0259975
0.0226239
0.0308589
0.0212907
0.0234093
0.0241349
0.0253096
0.0128703
0.0196616
0.0372888
0.0425449
0.0438664
0.0488023
0.0554653
0.0586708
0.0617114
0.063747
0.066012
0.0684584
0.0708572
0.0725855
0.0727284
0.0690311
0.0659638
0.0564574
0.0526332
0.0563619
0.0607686
0.0472813
0.0424948
0.0430307
0.043483
0.0440038
0.0441985
0.044869
0.0446637
0.0456388
0.0449013
0.0459841
0.0448304
0.0458291
0.0446139
0.0419077
0.038696
0.0325377
0.0305781
0.0294754
0.0267715
0.0242703
0.0220389
0.0202241
0.019795
0.0182346
0.0168371
0.0165378
0.0152461
0.0155133
0.0167523
0.0199104
0.0168256
0.0176553
0.0260395
0.0191377
0.018029
0.0185729
0.0190913
0.0193324
0.018224
0.0198479
0.0221135
0.0221266
0.0221964
0.0222142
0.0214129
0.0212481
0.0209907
0.0210539
0.0210859
0.0212192
0.021192
0.0193695
0.0193134
0.0190416
0.0189048
0.0181145
0.0179472
0.0173608
0.0170293
0.016183
0.0158883
0.0154388
0.0154984
0.0167207
0.0206611
0.0302204
0.0174306
0.018133
0.0156844
0.0139849
0.0267133
0.0248228
0.0287141
0.026844
0.0395157
0.0264908
0.0232338
0.024247
0.0297927
0.0297418
0.0327142
0.0425212
0.0331351
0.0283402
0.0737604
0.05383
0.0334243
0.0465818
0.058651
0.109486
0.127578
0.0560075
0.0565079
0.0621865
0.0631174
0.0630243
0.0534466
0.0492557
0.0414413
0.0319366
0.0129192
0.0249889
0.032347
0.042937
0.0573538
0.0921034
0.0529189
0.0597499
0.0656977
0.0647595
0.0678395
0.0660036
0.0646444
0.0656081
0.102713
0.111669
0.107924
0.0866791
0.0814277
0.0744894
0.124327
0.13915
0.119996
0.130001
0.135882
0.0821646
0.030511
0.02501
0.0238847
0.0264728
0.0254149
0.0460418
0.0206629
0.0218762
0.0227097
0.0272108
0.0302799
0.0528488
0.0233512
0.0255185
0.0324667
0.0349136
0.045843
0.0275232
0.0281236
0.0344163
0.0361928
0.0395366
0.0337293
0.0318561
0.0287833
0.0259761
0.0244837
0.0255381
0.0319497
0.0464089
0.027963
0.0283926
0.0301536
0.134426
0.0308242
0.0267057
0.0277842
0.02679
0.0337585
0.0351159
0.111548
0.0356412
0.0167343
0.0154736
0.0159455
0.0167614
0.0174013
0.0180239
0.0184681
0.0191119
0.0195004
0.0196573
0.0198332
0.0222006
0.0220882
0.0216183
0.0210736
0.0218573
0.0211634
0.0212064
0.0218179
0.0212804
0.0214332
0.0224763
0.0236431
0.0231435
0.023698
0.0250545
0.0239047
0.0222188
0.0220115
0.0221278
0.0228372
0.023975
0.0227906
0.0234494
0.0226372
0.0235538
0.0236901
0.0204
0.020023
0.0198165
0.0193183
0.0186415
0.0180165
0.0173413
0.0166924
0.0161954
0.0161362
0.0166665
0.0152153
0.0156379
0.0180534
0.0397281
0.032712
0.0267543
0.0223619
0.0196393
0.0184543
0.018324
0.0187662
0.0194215
0.019979
0.0201887
0.0207842
0.0246625
0.0245625
0.0257627
0.0246326
0.0259621
0.0248992
0.0235776
0.0227075
0.0239113
0.0232229
0.0237127
0.025314
0.0261418
0.0237758
0.0240363
0.0214588
0.0200588
0.0184566
0.0187952
0.0202324
0.0208957
0.0233129
0.0233997
0.0268187
0.026812
0.0266845
0.025464
0.0247938
0.0262345
0.0247538
0.025901
0.0247971
0.0261972
0.0273869
0.0277328
0.0270309
0.0262284
0.0253604
0.0210794
0.0202801
0.0199752
0.0194863
0.0192248
0.0201528
0.0244413
0.0337173
0.0459056
0.0580765
0.0674838
0.066875
0.0602071
0.0409132
0.0418571
0.0388844
0.0423102
0.0603568
0.0868591
0.0608119
0.114637
0.0887761
0.0526558
0.0628989
0.074891
0.084045
0.0899794
0.0910525
0.0775883
0.0571249
0.0501137
0.0525671
0.084807
0.0835227
0.0824245
0.0779356
0.0824204
0.0802887
0.0776042
0.0760255
0.0742311
0.0699601
0.0699418
0.0672207
0.0671795
0.0600774
0.0612558
0.0614712
0.0588973
0.0561584
0.0538781
0.0516931
0.0493749
0.0454985
0.0442284
0.0417694
0.0400454
0.0367062
0.0361719
0.0356897
0.0335237
0.0319805
0.0307343
0.029481
0.0277925
0.0279615
0.0264056
0.0262536
0.0214109
0.0210261
0.0199974
0.019668
0.0194195
0.0196136
0.0208617
0.0235623
0.0437665
0.0331838
0.0330307
0.0335858
0.0337382
0.0397166
0.046465
0.0705082
0.065227
0.0716869
0.0613583
0.0637697
0.0629725
0.0625975
0.0653225
0.0688968
0.0742413
0.0867116
0.333336
0.513787
0.253089
0.23709
0.246739
0.251651
0.259047
0.338961
0.360097
0.355784
0.360553
0.330511
0.31853
0.196628
0.22606
0.23814
0.237024
0.223895
0.20251
0.393509
0.522651
0.518784
0.523655
0.523768
0.518768
0.522594
0.502914
0.514274
0.501759
0.515023
0.502298
0.521653
0.518913
0.504364
0.501138
0.501158
0.500917
0.501381
0.501557
0.504897
0.506058
0.506109
0.505104
0.504119
0.514521
0.437637
0.122829
0.0854137
0.142184
0.197661
0.161894
0.234017
0.268964
0.193818
0.110207
0.0899772
0.101539
0.125128
0.126622
0.153693
0.201085
0.188214
0.153631
0.15459
0.155279
0.200514
0.192032
0.218302
0.260762
0.253944
0.189203
0.150663
0.150027
0.228207
0.24291
0.238078
0.123641
0.04447
0.0219321
0.0228572
0.0328695
0.0165937
0.0168672
0.0222956
0.0584252
0.0974705
0.0503466
0.136751
0.138402
0.182176
0.147519
0.178432
0.115593
0.118842
0.0676336
0.0796268
0.0895423
0.0952976
0.0996248
0.0937521
0.216784
0.320344
0.190916
0.561613
0.5382
0.196231
0.217243
0.575926
0.513009
0.503526
0.501786
0.501699
0.50186
0.501817
0.50097
0.500916
0.500729
0.500766
0.500717
0.501164
0.504767
0.520377
0.514594
0.505239
0.501385
0.500824
0.5008
0.500691
0.500731
0.500751
0.500808
0.501018
0.501051
0.501152
0.501671
0.503942
0.512025
0.43538
0.169807
0.182194
0.405933
0.361694
0.5115
0.504622
0.50137
0.500943
0.500856
0.50083
0.500795
0.50097
0.50089
0.501398
0.501232
0.501287
0.502776
0.508255
0.506388
0.442498
0.368845
0.416385
0.329536
0.506664
0.507774
0.503277
0.502901
0.503247
0.503415
0.501515
0.501528
0.500993
0.501061
0.500894
0.501341
0.504755
0.511009
0.345841
0.170721
0.177651
0.257875
0.0878324
0.0907755
0.0927106
0.0948141
0.247227
0.441935
0.555939
0.471436
0.475375
0.542431
0.385703
0.364502
0.2942
0.317688
0.402008
0.34725
0.312763
0.250324
0.288644
0.247739
0.303473
0.217898
0.23414
0.22167
0.282997
0.286896
0.287237
0.226683
0.2165
0.271563
0.285764
0.316746
0.21873
0.258897
0.203235
0.192336
0.0870892
0.0892737
0.0811861
0.0712612
0.0710119
0.0791217
0.0775577
0.0837147
0.0807046
0.0843892
0.0814979
0.079497
0.0727358
0.0747717
0.0685788
0.0712344
0.130271
0.166479
0.150342
0.151764
0.179556
0.13103
0.157386
0.153492
0.197572
0.247979
0.227103
0.2927
0.225447
0.275667
0.405722
0.754087
0.439852
0.24492
0.318157
0.339909
0.288629
0.189546
0.449457
0.5383
0.297948
0.360047
1.19551
1.04307
1.78095
0.992386
1.11919
0.671065
0.597665
1.02894
0.653984
0.666443
0.559877
0.57358
0.499587
0.324526
0.324065
0.305897
0.242032
0.280903
0.271598
0.266845
0.296484
0.261633
0.316757
0.352516
0.397195
0.322701
0.285605
0.367113
0.215666
0.291063
0.346561
0.315861
0.259938
0.338269
0.450369
0.422148
0.363352
0.399433
0.509888
0.563738
0.533524
0.452745
0.514367
1.00756
0.964448
0.931559
0.591018
1.93378
1.71912
0.354402
0.138698
0.096595
0.0365776
0.0225193
0.0182982
0.0179126
0.0490682
0.019567
0.0235731
0.0212422
0.0301929
0.027417
0.0317005
0.0557108
0.0377371
0.0530553
0.0393105
0.0523953
0.0417165
0.0573838
0.061623
0.0649201
0.0524619
0.0413861
0.0625417
0.0834983
0.0390567
0.100531
0.10624
0.0685984
0.0834395
0.103093
0.0532838
0.165914
0.0576033
0.05734
0.0683078
0.128085
0.253357
0.0863702
0.112949
0.587498
1.53092
0.51179
0.202593
0.165509
0.0415567
0.0360537
0.0294262
0.0356892
0.031437
0.0633672