/*--------------------------------*- C++ -*----------------------------------*\
| =========                 |                                                 |
| \\      /  F ield         | OpenFOAM: The Open Source CFD Toolbox           |
|  \\    /   O peration     | Version:  v2012                                 |
|   \\  /    A nd           | Website:  www.openfoam.com                      |
|    \\/     M anipulation  |                                                 |
\*---------------------------------------------------------------------------*/
FoamFile
{
    version     2.0;
    format      ascii;
    class       volVectorField;
    location    "730";
    object      U;
}
// * * * * * * * * * * * * * * * * * * * * * * * * * * * * * * * * * * * * * //

dimensions      [0 1 -1 0 0 0 0];


internalField   nonuniform List<vector> 
18258
(
(-0.176309 0.117063 0.137473)
(-0.0516678 0.245996 0.157323)
(-0.104646 0.214384 0.0961494)
(-0.0385824 0.0701749 0.0840058)
(-0.22602 0.20285 0.017917)
(-0.158906 0.361526 0.0162186)
(-0.222559 0.0449571 0.0534475)
(-0.340791 -0.0524486 0.0748172)
(-0.447878 -0.105268 0.107851)
(-0.534712 -0.159173 0.145475)
(-0.620569 -0.216755 0.179707)
(-0.686999 -0.271123 0.309295)
(-0.678139 -0.333861 0.357107)
(-0.621887 -0.445132 0.385776)
(-0.487932 -0.542737 0.369496)
(-0.20544 -0.587371 0.340648)
(0.0734332 -0.374675 0.289236)
(0.077488 -0.163881 0.298157)
(-0.12848 -0.0787288 0.237051)
(-0.402352 -0.273165 0.117489)
(-0.140491 -0.527133 0.294211)
(-0.201237 -0.366535 0.407475)
(-0.307001 -0.738539 0.302284)
(-0.368661 -0.780581 0.262813)
(-0.138296 -0.707353 0.130889)
(0.00243018 -0.644845 0.182449)
(-0.0187628 -0.3407 0.423151)
(0.172909 -0.113057 0.805813)
(0.298267 -0.0953361 0.893973)
(0.315913 0.0577216 0.915572)
(0.316704 0.183681 0.817537)
(0.168121 0.301557 0.112303)
(0.0753351 0.135464 -0.427852)
(0.00839074 0.0831009 -0.719538)
(-0.0694327 0.079121 -0.895259)
(-0.0595004 0.0747244 -1.07787)
(-0.0724096 0.073601 -1.21672)
(-0.101028 0.0916969 -1.31001)
(-0.143155 0.0830684 -1.35717)
(-0.191311 0.0897395 -1.34311)
(-0.241174 0.0761902 -1.25918)
(-0.287988 0.0855775 -1.10566)
(-0.327137 0.0798888 -0.895041)
(-0.358277 0.0811862 -0.641053)
(-0.36797 0.084158 -0.348902)
(-0.350434 0.078525 -0.152023)
(-0.152288 0.188341 -0.192919)
(0.37431 -0.106068 -0.135226)
(0.641607 -0.132201 -0.15551)
(0.682193 -0.114141 -0.165892)
(0.792349 -0.135935 -0.175587)
(0.818802 -0.131692 -0.193363)
(0.510016 -0.00136353 -0.257369)
(0.26054 -0.137697 -0.217766)
(0.113586 -0.0410932 -0.158553)
(0.28353 -0.00904832 -0.169007)
(0.539419 -0.00215588 -0.173661)
(0.794185 -0.0299734 -0.177952)
(1.09493 -0.0347744 -0.175789)
(1.43086 -0.0489542 -0.185228)
(1.76554 -0.0646772 -0.183561)
(2.04968 -0.0811968 -0.166578)
(2.25017 -0.0928091 -0.138024)
(2.35 -0.0988404 -0.102275)
(2.3562 -0.0960824 -0.0675494)
(2.2953 -0.0883469 -0.0408033)
(2.20127 -0.0818307 -0.0242052)
(2.1085 -0.07573 -0.0175006)
(2.03887 -0.06694 -0.0185555)
(1.9931 -0.0640704 -0.0232719)
(1.96873 -0.0589333 -0.025751)
(1.95818 -0.0500352 -0.020245)
(1.94393 -0.0395353 -0.00324643)
(1.90049 -0.0247163 0.0243298)
(1.81291 -0.00766941 0.0539123)
(1.69193 0.00972145 0.0772314)
(1.57105 0.0219287 0.0800857)
(1.47836 0.0309212 0.0754343)
(1.40026 0.0380162 0.0707304)
(1.33804 0.0508606 0.0633284)
(1.2872 0.0575145 0.0651447)
(1.19357 0.0445624 0.0787736)
(1.09654 0.0192143 0.110521)
(1.01372 0.000906718 0.128101)
(0.906644 -0.0207224 0.121042)
(0.762675 0.0168488 0.146241)
(0.64184 0.0817515 0.133465)
(0.518217 0.10065 0.134408)
(0.381254 0.118172 0.118811)
(0.224723 0.127349 0.0967913)
(0.12016 0.190059 0.0922133)
(0.122326 0.0102434 0.197769)
(0.164207 -0.100781 0.144104)
(0.113212 -0.129609 0.0400469)
(0.104677 -0.11519 -0.141876)
(0.216896 -0.210457 -0.370582)
(0.263003 -0.23291 -0.556088)
(0.20456 -0.139908 -0.730156)
(0.106164 -0.0818843 -0.715701)
(0.0363565 0.056264 -0.493567)
(-0.0872033 0.229956 -0.165324)
(-0.215504 0.195641 0.178584)
(-0.234278 0.0653328 0.152765)
(-0.339957 0.0158294 0.168201)
(-0.271892 0.139666 0.17676)
(-0.245535 0.286978 -0.0520261)
(-0.106174 0.161773 -0.405311)
(0.0645867 0.00342177 -0.586304)
(0.334223 -0.0946509 -0.632739)
(0.496443 -0.230393 -0.489861)
(0.351821 -0.211018 -0.280225)
(0.271837 -0.192086 -0.100542)
(0.283056 -0.186653 0.0398786)
(0.28088 -0.140034 0.160494)
(0.225734 -0.0989628 0.191881)
(0.396964 -0.0812 0.181085)
(0.536058 -0.0631378 0.176687)
(0.588499 -0.0518863 0.164721)
(0.700499 -0.0786136 0.160951)
(0.732711 -0.133632 0.132758)
(0.601124 -0.134186 0.135463)
(0.454642 -0.151698 0.139934)
(0.461601 -0.185845 0.0357052)
(0.610967 -0.162824 0.0516622)
(0.736374 -0.162065 0.0491762)
(0.904867 -0.141733 0.0812616)
(1.08838 -0.109907 0.110793)
(1.18958 -0.0777428 0.148384)
(1.20867 -0.0106043 0.14006)
(1.24583 -0.00898185 0.12052)
(1.33576 -0.00689004 0.140038)
(1.37778 -0.00161492 0.129936)
(1.36935 -0.0124458 0.158777)
(1.32883 -0.0481601 0.194011)
(1.32315 -0.0510937 0.190918)
(1.28599 -0.0620035 0.152071)
(1.2793 -0.0602065 0.135223)
(1.25852 -0.0478191 0.108503)
(1.25 -0.0457835 0.110523)
(1.20164 0.00441853 0.109244)
(1.19461 0.0278659 0.13782)
(1.07724 0.137058 0.271527)
(1.22638 0.0529484 0.254112)
(1.21815 0.0201324 0.158845)
(1.26701 -0.0207809 0.128346)
(1.2791 -0.0249786 0.119187)
(1.28937 -0.0381718 0.144327)
(1.30826 -0.041458 0.183556)
(1.3509 -0.0366715 0.217527)
(1.38673 -0.036646 0.222461)
(1.42358 -0.0127098 0.183564)
(1.43701 -0.0018341 0.138253)
(1.51318 -0.00645305 0.151381)
(1.6112 -0.0166442 0.159459)
(1.75052 -0.031555 0.143798)
(1.88268 -0.0541351 0.0490608)
(1.96406 -0.0755828 -0.0712469)
(1.98334 -0.0904206 -0.164362)
(1.96577 -0.0964185 -0.200592)
(1.94932 -0.0967347 -0.194512)
(1.95943 -0.0911003 -0.174687)
(2.00652 -0.0825708 -0.144172)
(2.08818 -0.0700759 -0.107452)
(2.19963 -0.0597691 -0.0833999)
(2.31437 -0.0594183 -0.112109)
(2.39196 -0.0605468 -0.172407)
(2.39521 -0.0582365 -0.276424)
(2.28971 -0.0500925 -0.391922)
(2.07439 -0.0425386 -0.483542)
(1.77396 -0.0367859 -0.540164)
(1.42999 -0.0316353 -0.549054)
(1.08373 -0.0193304 -0.527904)
(0.794864 -0.0242479 -0.459525)
(0.538769 -0.0154191 -0.415584)
(0.284176 -0.0207754 -0.386928)
(0.109438 -0.0393354 -0.360763)
(0.102629 -0.0412383 -0.637345)
(0.077722 -0.036638 -0.873535)
(0.0509486 -0.0387344 -1.0581)
(0.0119176 -0.0400735 -1.17669)
(-0.0233084 -0.027767 -1.21618)
(-0.0600424 -0.0152468 -1.16805)
(-0.0938446 0.00399746 -1.03829)
(-0.119296 0.0284626 -0.818815)
(-0.120822 0.0867832 -0.557269)
(-0.147346 0.131878 -0.0234775)
(-0.19477 0.0233663 0.577537)
(-0.210715 -0.0350303 0.763193)
(-0.22887 -0.00373698 0.930634)
(-0.233995 -0.0471696 1.07171)
(-0.319472 -0.107061 1.13511)
(-0.372204 -0.114815 1.1471)
(-0.3708 -0.235729 1.00582)
(-0.300178 -0.254514 0.77125)
(-0.460663 -0.670799 0.687094)
(-0.485006 -0.548995 0.705037)
(-0.413367 -0.416283 0.832989)
(-0.547943 -0.769583 0.86083)
(-0.681483 -0.834268 0.608542)
(-0.472609 -0.757002 0.800262)
(-0.434085 -0.575915 0.743825)
(-0.78139 -0.52613 0.752212)
(-0.900749 -0.409416 0.862574)
(-0.529526 -0.708203 0.828216)
(-0.439324 -0.577743 0.669495)
(-0.320604 -0.321517 0.409278)
(-0.299957 -0.184745 0.403328)
(-0.283756 -0.148476 0.35821)
(-0.235727 0.106348 0.118379)
(-0.162078 0.299917 -0.416067)
(-0.151523 0.193751 -0.638151)
(-0.13211 0.0304503 -0.912853)
(-0.0870368 -0.0557086 -1.08588)
(-0.0286031 -0.0686737 -1.23396)
(0.0386446 -0.101198 -1.26912)
(0.0985575 -0.0982422 -1.2343)
(0.173331 -0.108784 -1.12042)
(0.217474 -0.123261 -0.920461)
(0.261885 -0.146405 -0.705889)
(0.250718 -0.139196 -0.398451)
(0.421345 -0.047209 -0.637742)
(0.779085 -0.117518 -0.455924)
(0.735584 -0.109711 -0.410323)
(0.638536 -0.0769952 -0.401908)
(0.581294 -0.106497 -0.406147)
(0.14269 -0.101114 -0.513378)
(0.186531 -0.117438 -0.895557)
(0.263801 -0.225276 -1.0477)
(0.346574 -0.282855 -0.937486)
(0.389207 -0.351704 -0.496417)
(0.198963 0.0502287 0.124772)
(0.266877 0.122525 0.183824)
(0.429206 -0.325744 0.335376)
(0.516637 -0.52934 0.505269)
(0.546529 -0.522588 0.551194)
(0.413138 -0.235365 0.67842)
(0.472314 -0.337685 0.56366)
(0.487848 -0.610115 0.543481)
(0.705425 -0.673059 0.316281)
(0.747639 -0.489425 0.451214)
(0.799862 -0.346085 0.597715)
(0.236399 -0.226358 0.57609)
(-0.233958 -0.269508 0.831523)
(-0.170679 -0.191434 0.683444)
(-0.671682 -0.29912 0.82169)
(-0.467756 -0.184311 0.698581)
(-0.318659 -0.00614163 0.547308)
(-0.21831 0.179302 -0.295712)
(-0.191957 -0.038572 -0.617465)
(-0.0574157 -0.167717 -1.1002)
(0.104974 -0.156469 -1.25065)
(0.277375 -0.085481 -1.11827)
(0.440763 -0.107542 -0.697356)
(0.511302 -0.0735899 -0.620261)
(0.506898 -0.0443276 -0.607745)
(0.563526 -0.0890807 -0.630322)
(0.601731 -0.122051 -0.72222)
(0.405723 -0.0434698 -0.674582)
(0.363485 -0.0787774 -0.655667)
(0.138095 -0.113293 -0.665547)
(-0.111259 -0.0477228 -0.576915)
(0.298459 0.00868263 -0.586495)
(0.358746 0.0166721 -0.602674)
(0.64476 -0.0960073 -0.638738)
(0.574211 -0.097418 -0.359063)
(0.270511 0.0756416 -0.347976)
(0.269297 0.0567967 -0.220214)
(-0.302354 -0.0363628 0.130935)
(-0.308439 0.145723 0.00199357)
(-0.283777 -0.0234914 -0.445425)
(0.0901912 -0.201624 -0.572584)
(0.365419 -0.280234 -0.567062)
(0.730806 -0.345699 -0.404436)
(0.814354 -0.418166 -0.377216)
(0.775946 -0.29033 -0.295405)
(0.817369 -0.36499 -0.219483)
(0.831726 -0.48667 -0.283497)
(0.745717 -0.433028 -0.277238)
(0.725324 -0.306888 -0.330084)
(0.752154 -0.251995 -0.341005)
(0.797868 -0.312069 -0.211819)
(0.810407 -0.367801 -0.160031)
(0.896667 -0.463997 -0.156227)
(1.16147 -0.63035 -0.117398)
(1.61939 -0.725715 -0.0985025)
(1.99616 -0.671023 -0.037845)
(2.15229 -0.488625 0.0475385)
(2.07168 -0.289367 0.0956412)
(1.90593 -0.161506 0.103055)
(1.80819 -0.0934055 0.0995855)
(1.71125 0.00165834 0.0991055)
(1.57372 0.0900216 0.0912364)
(1.43635 0.108479 0.0482206)
(1.3318 0.0587906 0.0274972)
(1.24197 -0.00324052 0.0218473)
(1.14021 -0.0526928 0.0236147)
(1.0562 -0.077557 0.0218018)
(0.998378 -0.0614172 0.0174479)
(0.822409 -0.109145 -0.0233724)
(0.717097 0.00361918 0.0105386)
(0.633716 0.0700444 0.00953603)
(0.498009 0.025021 0.00719403)
(0.359721 -0.0593957 -0.0128353)
(0.139238 -0.146063 -0.0319493)
(0.225767 -0.307795 0.00112868)
(0.353413 -0.0818157 0.0120801)
(-0.00238869 -0.230027 -0.00920617)
(0.0431056 -0.545881 -0.0504346)
(0.0120946 -0.712482 -0.0525592)
(-0.00794373 -0.876505 -0.0531884)
(-0.0258956 -1.00661 -0.0648825)
(-0.0359264 -1.10263 -0.0956963)
(-0.0464049 -1.1571 -0.104973)
(-0.0579119 -1.21452 -0.118116)
(-0.0881392 -1.27641 -0.134115)
(-0.113256 -1.32128 -0.149433)
(-0.137251 -1.35517 -0.162354)
(-0.159301 -1.377 -0.173422)
(-0.17836 -1.38847 -0.183095)
(-0.193794 -1.3902 -0.189822)
(-0.205953 -1.38313 -0.193687)
(-0.215984 -1.36843 -0.193812)
(-0.224534 -1.34655 -0.191892)
(-0.232804 -1.31613 -0.186441)
(-0.240461 -1.27528 -0.178075)
(-0.245905 -1.22106 -0.165022)
(-0.243803 -1.15192 -0.147269)
(-0.190923 -1.07243 -0.12687)
(-0.141212 -0.969689 -0.112486)
(-0.165724 -0.869101 -0.0794155)
(-0.189727 -0.755053 -0.0818205)
(-0.204924 -0.543495 -0.0854205)
(-0.273572 -0.450574 -0.0919231)
(0.0227211 0.0529617 -0.116093)
(-0.350851 -0.308616 0.0252637)
(-0.231643 -0.617765 -0.0544546)
(-0.270351 -0.099362 -0.010941)
(-0.458014 -0.18257 0.0646173)
(-0.678799 -0.198738 0.0822497)
(-0.842381 -0.209301 0.114046)
(-0.953942 -0.223143 0.144163)
(-1.03484 -0.232533 0.203743)
(-1.11828 -0.244327 0.245259)
(-1.18756 -0.244197 0.302012)
(-1.20126 -0.248401 0.336304)
(-1.17426 -0.250135 0.366243)
(-1.10725 -0.24882 0.394575)
(-0.996319 -0.243118 0.4228)
(-0.841477 -0.230086 0.454285)
(-0.667241 -0.20579 0.493836)
(-0.420167 -0.146727 0.543458)
(-0.135806 -0.119225 0.56812)
(-0.152853 0.0283857 0.823604)
(-0.155733 0.0828986 1.04298)
(-0.155396 0.115021 1.11215)
(-0.156692 0.163882 1.02033)
(-0.161077 0.153186 0.837293)
(-0.1496 0.131312 0.566878)
(-0.12443 0.143389 0.284916)
(-0.225932 0.438918 0.370275)
(-0.50778 0.466942 0.33486)
(-0.693085 0.480031 0.338826)
(-0.918114 0.464864 0.33238)
(-1.1004 0.424322 0.308451)
(-1.22762 0.352998 0.265788)
(-1.28339 0.27318 0.218722)
(-1.26623 0.206048 0.181534)
(-1.23319 0.147848 0.158296)
(-1.19022 0.115162 0.140408)
(-1.10074 0.0924593 0.0902422)
(-0.958885 0.0451015 0.069898)
(-0.76743 -0.0207648 0.0594792)
(-0.500892 -0.114018 0.0190152)
(-0.253193 -0.207819 -0.0189854)
(-0.274138 -0.197576 -0.0662975)
(-0.318431 -0.177005 0.00811786)
(-0.314647 -0.174205 0.0594419)
(-0.272789 -0.156675 0.150684)
(-0.381099 -0.233933 0.118336)
(-0.423047 -0.297188 0.118451)
(-0.327117 -0.288269 0.177195)
(-0.27007 -0.215392 0.0453282)
(-0.14095 -0.101025 -0.0258684)
(-0.141057 -0.0769999 -0.00719313)
(-0.138648 -0.074359 -0.03544)
(-0.169348 -0.0558243 -0.0679191)
(-0.167914 -0.50178 -0.148604)
(-0.126264 -0.48007 -0.13807)
(-0.110773 -0.447481 -0.0954619)
(-0.100602 -0.4244 -0.145665)
(-0.266864 -0.538562 -0.0315388)
(-0.27673 -0.576103 -0.0257964)
(-0.28425 -0.632532 -0.0839199)
(-0.337735 -0.583302 -0.02001)
(-0.340573 -0.530429 0.0551365)
(-0.301932 -0.359458 0.0853758)
(-0.444924 -0.31729 0.114807)
(-0.361982 -0.432157 0.0403304)
(-0.347893 -0.523127 0.0139466)
(-0.378376 -0.508812 -0.0237928)
(-0.428988 -0.394798 0.0320452)
(-0.497778 -0.346876 0.0730778)
(-0.52943 -0.255091 0.163905)
(-0.591769 -0.215647 0.24151)
(-0.680709 -0.197749 0.256098)
(-0.576956 -0.206909 0.211696)
(-0.517182 -0.187952 0.181251)
(-0.545462 -0.185072 0.117862)
(-0.540011 -0.17215 0.0918805)
(-0.496454 -0.184318 0.000741902)
(-0.762131 -0.0867574 0.0645233)
(-0.972377 -0.00543116 0.0896202)
(-1.0801 0.052088 0.103489)
(-1.12934 0.0749906 0.13807)
(-1.16702 0.0357994 0.237834)
(-1.25181 0.068971 0.267073)
(-1.31792 0.119399 0.348924)
(-1.33156 0.170875 0.431547)
(-1.27429 0.221972 0.523943)
(-1.14941 0.260997 0.60352)
(-0.976765 0.281373 0.647949)
(-0.776359 0.283813 0.65688)
(-0.623291 0.289121 0.643884)
(-0.341765 0.272905 0.643408)
(-0.435115 0.245791 0.874247)
(-0.467089 0.228585 1.00275)
(-0.460024 0.180861 1.08109)
(-0.44076 0.124724 1.0131)
(-0.439425 0.0593996 0.797837)
(-0.711043 -0.00461802 0.744152)
(-0.721659 0.0720504 0.944295)
(-0.740353 0.117823 1.02329)
(-0.745256 0.164925 0.979309)
(-0.695266 0.199364 0.872255)
(-0.838618 0.186778 0.862162)
(-0.880205 0.146408 0.964909)
(-0.88289 0.0887514 1.00104)
(-0.87314 0.0423844 0.926221)
(-0.866795 -0.0386765 0.70693)
(-1.01027 -0.0600238 0.675803)
(-1.02492 0.0208338 0.90105)
(-1.03802 0.0698574 0.966211)
(-1.04645 0.12236 0.94403)
(-1.02174 0.174257 0.853889)
(-1.16546 0.163119 0.803918)
(-1.16586 0.110802 0.892673)
(-1.14893 0.0573611 0.914569)
(-1.13162 0.00668774 0.85944)
(-1.11139 -0.0728624 0.640099)
(-1.1716 -0.0835612 0.595498)
(-1.19731 -0.00606172 0.796881)
(-1.22383 0.0437556 0.840075)
(-1.25338 0.0919588 0.811475)
(-1.27116 0.141437 0.716816)
(-1.32069 0.110886 0.610188)
(-1.2921 0.0689051 0.709254)
(-1.2535 0.0250622 0.747258)
(-1.21793 -0.0216484 0.716417)
(-1.18762 -0.0934104 0.53977)
(-1.15436 -0.104691 0.472704)
(-1.1827 -0.0413636 0.621404)
(-1.22171 0.000207526 0.64075)
(-1.27621 0.0391534 0.60647)
(-1.3094 0.0742465 0.509184)
(-1.22625 0.0356561 0.414382)
(-1.18938 0.00283157 0.500164)
(-1.12952 -0.0322193 0.53123)
(-1.08712 -0.0601149 0.520245)
(-1.04063 -0.111798 0.386779)
(-0.919624 -0.120192 0.315211)
(-0.923966 -0.109431 0.358158)
(-0.973538 -0.0804302 0.438327)
(-0.957509 -0.0870876 0.425139)
(-0.92868 -0.102715 0.394785)
(-1.00552 -0.0685154 0.381501)
(-0.997232 -0.0631322 0.307511)
(-1.00193 -0.039232 0.282865)
(-1.04504 -0.027217 0.209157)
(-1.04004 -0.00956094 0.202441)
(-0.807005 -0.105261 0.145356)
(-0.819926 -0.125302 0.157904)
(-0.788928 -0.12853 0.216351)
(-0.824896 -0.141603 0.24952)
(-0.610765 -0.281956 0.133182)
(-0.557622 -0.291723 0.114971)
(-0.504082 -0.32717 0.132642)
(-0.420624 -0.399943 0.11621)
(-0.397234 -0.384335 0.14968)
(-0.48853 -0.284453 0.165463)
(-0.606558 -0.239255 0.183837)
(-0.616004 -0.268062 0.0969586)
(-0.514049 -0.37823 0.0441318)
(-0.440028 -0.46055 0.0282076)
(-0.397663 -0.526752 0.0579058)
(-0.384222 -0.69841 0.122327)
(-0.387361 -0.663794 0.12804)
(-0.405764 -0.380632 0.107022)
(-0.40879 -0.536907 0.0815507)
(-0.399658 -0.602376 0.043874)
(-0.216038 -0.788849 -0.158663)
(-0.193632 -0.794675 -0.259651)
(-0.115489 -0.704496 -0.369385)
(-0.0786312 -0.624556 -0.385393)
(-0.0452373 -0.589426 -0.34768)
(-0.013811 -0.556543 -0.301404)
(0.031428 -0.502519 -0.232127)
(0.124143 -0.456023 -0.108986)
(0.124718 -0.58085 -0.121974)
(0.116816 -0.637414 -0.120261)
(0.0848259 -0.695473 -0.157726)
(0.0922017 -0.750181 -0.155826)
(0.100346 -0.806744 -0.174953)
(0.11808 -0.835066 -0.167026)
(0.126098 -0.841836 -0.152843)
(0.12632 -0.828037 -0.130317)
(0.117683 -0.791969 -0.0960161)
(0.104077 -0.735351 -0.0427707)
(0.0376111 -0.655581 0.0330746)
(0.00169394 -0.547261 0.152691)
(0.0152433 -0.301807 0.359462)
(-0.146265 0.0106516 0.448761)
(-0.365512 0.0944847 0.350552)
(-0.391643 -0.0401536 0.256499)
(-0.219177 -0.172512 0.252184)
(-0.179688 -0.188984 0.268499)
(-0.157111 -0.178554 0.214178)
(-0.0909041 -0.143855 0.205691)
(-0.00025799 -0.0350612 0.0717144)
(-0.0358915 0.11034 0.0808161)
(-0.0808794 0.147969 0.0802784)
(-0.0494792 0.212323 0.170239)
(-0.00612892 0.180437 0.19175)
(0.0149095 0.0350446 0.142873)
(-0.044932 -0.0300165 0.227378)
(0.0243195 0.0908369 0.323378)
(-0.00235592 -0.0650739 0.286078)
(0.0775123 0.142805 0.246821)
(0.0909322 -0.0265063 0.22704)
(-0.0199588 -0.257112 0.455934)
(0.0516455 -0.360942 0.54445)
(0.172941 -0.506101 0.513728)
(0.166124 -0.695513 0.350679)
(0.0750251 -0.818955 0.143185)
(0.0588396 -0.890494 -0.00818649)
(0.0652471 -0.924737 -0.119761)
(0.0632568 -0.951068 -0.197832)
(0.0601497 -0.9657 -0.248736)
(0.0520204 -0.963871 -0.27934)
(0.041867 -0.943942 -0.292638)
(0.0292728 -0.906332 -0.289452)
(0.0236039 -0.831595 -0.249783)
(0.00731353 -0.785783 -0.329019)
(0.0435209 -0.704935 -0.225479)
(0.047548 -0.654668 -0.211542)
(0.044744 -0.63714 -0.232243)
(0.00459308 -0.703136 -0.325395)
(-0.022593 -0.74269 -0.38314)
(-0.0573796 -0.777957 -0.410853)
(-0.0733364 -0.844731 -0.401686)
(-0.132191 -0.905189 -0.345861)
(-0.0941639 -0.969686 -0.331537)
(-0.0891146 -0.980461 -0.372947)
(-0.05386 -0.919004 -0.418082)
(-0.0436135 -0.869034 -0.432026)
(-0.0177697 -0.826924 -0.404428)
(-0.00964914 -0.870413 -0.341217)
(-0.0393969 -0.902612 -0.374126)
(-0.0561438 -0.949231 -0.396465)
(-0.0238142 -0.992387 -0.405736)
(-0.0487523 -1.06073 -0.42026)
(-0.0666611 -1.04335 -0.423934)
(-0.0936375 -0.921145 -0.344705)
(-0.186872 -0.762415 -0.224295)
(-0.19885 -0.614285 -0.0406716)
(-0.100271 -0.734042 -0.196603)
(-0.0798214 -0.840196 -0.259091)
(-0.0594795 -0.929514 -0.322985)
(-0.0608585 -0.94691 -0.333706)
(-0.0277041 -0.830016 -0.380336)
(-0.0238817 -0.725081 -0.3366)
(-0.0320441 -0.542658 -0.253158)
(-0.0160706 -0.353556 -0.162264)
(0.033102 -0.0911159 -0.207451)
(-0.248816 -0.43416 0.0734806)
(-0.329909 -0.461827 0.0263998)
(0.222205 -0.118226 -0.244467)
(-0.172569 -0.247545 0.0438353)
(-0.218127 -0.266713 -0.116318)
(-0.258487 -0.268984 -0.103042)
(-0.208644 -0.281792 -0.0211344)
(0.0812728 0.140635 -0.21898)
(0.102834 0.0594363 -0.231471)
(0.10103 -0.000401856 -0.260233)
(0.0965619 -1.26079e-05 -0.265363)
(-0.0797954 -0.430111 -0.200954)
(-0.132814 -0.450282 -0.222199)
(-0.18597 -0.458639 -0.206287)
(-0.248977 -0.44538 -0.169047)
(-0.168927 -0.547803 -0.184098)
(-0.126771 -0.559723 -0.256989)
(-0.0961818 -0.566068 -0.291103)
(-0.0605014 -0.554327 -0.291304)
(-0.0506471 -0.743372 -0.348658)
(-0.0815715 -0.757962 -0.331747)
(-0.106344 -0.770214 -0.281552)
(-0.147159 -0.760408 -0.194638)
(-0.13449 -0.822199 -0.182245)
(-0.128788 -0.883198 -0.200218)
(-0.0981638 -0.905918 -0.297264)
(-0.0726877 -0.873045 -0.373556)
(-0.0491574 -0.8529 -0.399764)
(-0.0767961 -0.968564 -0.370582)
(-0.112188 -0.99017 -0.335634)
(-0.138137 -1.01039 -0.283475)
(-0.137197 -1.09312 -0.346791)
(-0.0801455 -1.06759 -0.399018)
(-0.0725466 -1.14522 -0.440727)
(-0.0494155 -1.12378 -0.47337)
(-0.0269667 -1.11486 -0.458669)
(-0.00334273 -1.04304 -0.415421)
(0.0120801 -1.07513 -0.406602)
(-0.0127269 -1.15342 -0.469621)
(-0.039866 -1.18042 -0.494116)
(-0.0685675 -1.2085 -0.462881)
(-0.131553 -1.22896 -0.379087)
(-0.134886 -1.16666 -0.369126)
(-0.283631 -1.04677 -0.225352)
(-0.457301 -1.14611 -0.0769576)
(-0.46369 -1.10021 -0.0674735)
(-0.415994 -1.04594 -0.064751)
(-0.302838 -1.03647 -0.073797)
(-0.255709 -0.967742 -0.0639948)
(-0.309159 -0.945199 -0.057585)
(-0.342273 -0.849312 -0.0421619)
(-0.378039 -0.713928 -0.037828)
(-0.473726 -0.627157 -0.0366582)
(-0.409795 -0.401655 -0.0340097)
(-0.464723 -0.6611 -0.00579286)
(-0.316569 -0.457854 0.0246406)
(-0.638373 -0.398955 0.0054428)
(-0.81536 -0.379535 0.0601318)
(-0.917915 -0.384645 0.0846022)
(-0.967984 -0.397425 0.124331)
(-0.979939 -0.525556 0.0977577)
(-0.940236 -0.689723 0.0653627)
(-0.923917 -0.750519 0.052487)
(-0.874386 -0.848866 0.0364249)
(-0.858756 -0.896055 0.0304427)
(-0.820882 -0.928388 0.00759506)
(-0.703581 -0.968122 -0.0230335)
(-0.592392 -1.00272 -0.0420071)
(-0.626645 -0.95332 -0.0172106)
(-0.484856 -0.9724 -0.0306985)
(-0.502748 -0.894084 -0.0301142)
(-0.530365 -0.797585 -0.0232578)
(-0.559198 -0.731333 -0.0194409)
(-0.68633 -0.712876 -0.00980403)
(-0.674895 -0.598498 -0.00777914)
(-0.824106 -0.577543 0.0303336)
(-0.918499 -0.559883 0.0503896)
(-0.881353 -0.697408 0.0231299)
(-0.800358 -0.70499 0.0121858)
(-0.777466 -0.790236 0.00227172)
(-0.660819 -0.798755 -0.0107775)
(-0.635657 -0.883176 -0.0170419)
(-0.748398 -0.866709 -0.00514555)
(-0.825452 -0.851035 0.00442613)
(-0.863106 -0.773415 0.0134965)
(-0.801614 -0.739314 -0.0117882)
(-0.624244 -0.61251 0.00187917)
(-0.847173 -0.659991 0.0116781)
(-0.868212 -0.518604 0.0520585)
(-0.870638 -0.379938 0.0581493)
(-0.843614 -0.282354 0.121623)
(-0.832541 -0.302373 0.0765481)
(-0.879074 -0.350771 0.0525705)
(-0.875499 -0.203987 0.129055)
(-0.894551 -0.184291 0.174102)
(-0.761055 -0.161586 0.158474)
(-0.766942 -0.129125 0.259193)
(-0.778294 -0.120825 0.30199)
(-0.8221 -0.108711 0.355423)
(-0.829663 -0.11933 0.352769)
(-0.642939 -0.181829 0.251173)
(-0.607927 -0.173754 0.248573)
(-0.567933 -0.180583 0.215664)
(-0.551392 -0.175745 0.189)
(-0.568977 -0.1913 0.120397)
(-0.338437 -0.194929 0.0769568)
(-0.320373 -0.189436 0.101901)
(-0.329622 -0.192128 0.114469)
(-0.360972 -0.199031 0.124618)
(-0.449692 -0.217042 0.141961)
(-0.405667 -0.253547 0.0598651)
(-0.382537 -0.285105 0.068539)
(-0.411081 -0.34128 0.04716)
(-0.316299 -0.427231 0.036046)
(-0.312101 -0.394609 0.0493105)
(-0.283895 -0.416549 0.0158072)
(-0.193171 -0.419784 -0.0202991)
(-0.337487 -0.254286 0.0355519)
(-0.403342 -0.331148 0.0411945)
(-0.248531 -0.457732 -0.00653186)
(-0.291973 -0.460134 0.0004213)
(-0.452213 -0.321433 0.0720408)
(-0.525028 -0.299178 0.131334)
(-0.498362 -0.318849 0.136404)
(-0.471168 -0.336996 0.111441)
(-0.4589 -0.350843 0.0943049)
(-0.493228 -0.373354 0.00858492)
(-0.710852 -0.317953 0.0631573)
(-0.717867 -0.53009 0.0389212)
(-0.549009 -0.554677 -0.00180335)
(-0.50988 -0.607412 -0.00404996)
(-0.465631 -0.649729 -0.0175185)
(-0.436883 -0.652993 -0.0211818)
(-0.412824 -0.531179 -0.0230078)
(-0.410974 -0.541134 -0.0484879)
(-0.409837 -0.541611 -0.0344033)
(-0.335368 -0.550728 -0.0170568)
(-0.267356 -0.596247 -0.00726249)
(-0.319406 -0.581247 -0.00348264)
(-0.403338 -0.513294 0.00711865)
(-0.331896 -0.53569 -0.00414729)
(-0.438612 -0.630749 -0.0119107)
(-0.292844 -0.473506 -0.00508607)
(-0.210234 -0.540027 -0.0182115)
(-0.280935 -0.524979 -0.0161964)
(-0.39435 -0.436359 -0.000710197)
(-0.413795 -0.362981 -0.0104202)
(-0.260489 -0.39445 -0.0109848)
(-0.15687 -0.423221 -0.0362041)
(-0.136227 -0.399813 -0.0224556)
(-0.238125 -0.205517 0.0225325)
(-0.382502 -0.343086 -0.00194541)
(-0.251578 -0.474902 -0.0196174)
(-0.21893 -0.468331 -0.0235177)
(-0.122013 -0.393167 -0.0297854)
(-0.219266 -0.194665 0.0394281)
(-0.346813 -0.338175 0.0122886)
(-0.366277 -0.363539 0.0542706)
(-0.195821 -0.511499 -0.0106713)
(-0.174105 -0.468429 0.0188729)
(-0.110035 -0.42058 0.0022398)
(-0.222438 -0.229266 0.0449334)
(-0.325946 -0.342141 0.0524961)
(-0.335252 -0.339231 0.0571646)
(-0.180688 -0.463609 0.0169366)
(-0.109422 -0.409334 0.000416061)
(-0.232147 -0.220667 0.0624116)
(-0.286221 -0.22165 0.0777643)
(-0.24067 -0.230472 0.0715437)
(-0.350553 -0.337287 0.0787137)
(-0.189828 -0.465699 0.0486653)
(-0.11793 -0.415985 0.0377968)
(-0.140643 -0.450086 -0.00343381)
(-0.196618 -0.498013 0.0259838)
(-0.381936 -0.350942 0.0793181)
(-0.33454 -0.625967 -0.00338688)
(-0.35576 -0.632654 -0.0115166)
(-0.499487 -0.512274 0.0579438)
(-0.651514 -0.445021 0.0983273)
(-0.667038 -0.286968 0.136392)
(-0.7985 -0.271738 0.170555)
(-0.891209 -0.32093 0.166477)
(-1.02101 -0.489055 0.125992)
(-1.10789 -0.495323 0.167765)
(-1.13277 -0.50289 0.192959)
(-1.11274 -0.505178 0.215978)
(-1.04934 -0.50138 0.238877)
(-0.943577 -0.490336 0.260769)
(-0.79438 -0.466882 0.287368)
(-0.639311 -0.431662 0.327)
(-0.396515 -0.380646 0.396113)
(-0.160568 -0.293835 0.485099)
(0.0479046 -0.150939 0.488028)
(0.341658 -0.158292 0.428135)
(0.341444 -0.214441 0.377098)
(0.205674 -0.128246 0.486317)
(0.273781 -0.00388824 0.765699)
(0.284873 0.0451824 1.0321)
(0.269642 0.0800182 1.14285)
(0.251191 0.132636 1.0931)
(0.212962 0.122192 0.956664)
(0.142236 0.120988 0.705449)
(0.0399203 0.187894 0.405971)
(0.17391 0.513809 0.425519)
(0.421279 0.515153 0.37469)
(0.607699 0.539143 0.375825)
(0.852504 0.497706 0.351614)
(1.00981 0.416433 0.317913)
(1.07227 0.321872 0.274557)
(1.05297 0.253162 0.235345)
(0.996962 0.210115 0.201684)
(1.01184 0.158793 0.169873)
(1.0323 0.118197 0.146495)
(0.974458 0.0917381 0.0918367)
(0.872732 0.0419575 0.0685993)
(0.708547 -0.0234751 0.0545332)
(0.464119 -0.110451 0.021277)
(0.237358 -0.216906 -0.0238259)
(0.0980037 -0.616992 -0.111756)
(0.173529 -0.380809 -0.0790657)
(-0.180215 -0.169373 0.00496783)
(-0.100139 -0.385691 -0.0394251)
(-0.10962 -0.303869 -0.0650767)
(-0.111693 -0.327231 -0.0729385)
(-0.108994 -0.282767 -0.0609735)
(-0.074752 -0.199068 -0.0544345)
(-0.159635 -0.145249 -0.0148138)
(-0.223714 0.268546 0.165365)
(-0.127582 0.49256 0.123221)
(-0.0398226 0.615304 0.0734055)
(0.0312564 0.657117 0.0757672)
(0.116294 0.673532 0.16516)
(0.212379 0.717647 0.285281)
(0.307087 0.754507 0.332365)
(0.39249 0.752177 0.366578)
(0.471606 0.690607 0.374748)
(0.537988 0.55242 0.372017)
(0.590182 0.332132 0.337015)
(0.569935 0.000459713 0.262807)
(0.393688 -0.3366 0.256996)
(0.293331 -0.337237 0.319215)
(0.22804 -0.291761 0.328908)
(0.161154 -0.201177 0.334149)
(0.147778 -0.00423858 0.312688)
(0.289814 0.00904584 0.340265)
(0.452817 -0.158704 0.330667)
(0.605357 -0.256168 0.34216)
(0.644582 -0.345141 0.351332)
(0.625556 -0.436901 0.353433)
(0.478672 -0.541362 0.334887)
(0.110544 -0.566148 0.316705)
(-0.169206 -0.298641 0.302168)
(-0.0369476 -0.129353 0.355417)
(0.229948 -0.152706 0.237842)
(0.281786 -0.404168 0.0722911)
(0.00820673 -0.52023 0.238246)
(-0.141403 -0.749522 -0.142303)
(0.200965 -0.721175 -0.481341)
(0.308872 -0.395818 -0.177869)
(0.332749 -0.37725 0.0922167)
(0.347702 -0.547374 0.182949)
(0.330811 -0.890394 0.120074)
(0.534072 -0.87321 0.0652078)
(0.612933 -0.692919 0.0980916)
(0.577998 -0.539403 0.137351)
(0.508032 -0.397368 0.187603)
(0.338744 -0.232405 0.245911)
(0.36234 -0.348869 0.193949)
(0.425549 -0.379789 0.141296)
(0.506432 -0.365941 0.0789591)
(0.616008 -0.296522 -0.0566102)
(0.861006 0.191228 -0.117444)
(0.906443 0.474662 -0.0217672)
(0.852065 0.675094 0.0505188)
(0.752337 0.774951 0.0930429)
(0.622703 0.799049 0.138829)
(0.474723 0.767189 0.154723)
(0.310543 0.704614 0.165068)
(0.139253 0.640605 0.101313)
(-0.0336147 0.603729 0.0491465)
(-0.153561 0.564348 0.0590266)
(-0.272719 0.458008 0.118971)
(-0.402018 0.264807 0.16686)
(-0.288421 -0.102083 0.0207838)
(-0.408163 0.0474361 0.0790066)
(-0.492142 0.0914671 0.104394)
(-0.525808 0.212017 0.137775)
(-0.537731 0.158766 0.106551)
(-0.499898 0.0227157 0.0272903)
(-0.453946 -0.0543747 0.0144093)
(-0.382034 -0.118461 -0.00766384)
(-0.286403 -0.190119 -0.0209111)
(-0.191434 -0.226463 -0.0356705)
(-0.138321 -0.195945 -0.0271394)
(-0.199356 -0.156096 -0.0186765)
(-0.181981 -0.318242 -0.0310715)
(-0.121625 -0.314405 -0.0433813)
(-0.100435 -0.335876 -0.0707859)
(-0.0792209 -0.372307 -0.103744)
(-0.048434 -0.562283 -0.222055)
(-0.0893184 -0.502197 -0.149705)
(-0.107486 -0.609739 -0.1134)
(-0.151982 -0.618134 -0.0846238)
(-0.195589 -0.526397 -0.0771221)
(-0.301058 -0.334773 -0.0424407)
(-0.245579 0.215407 0.130443)
(-0.0935869 0.390331 0.288337)
(-0.000307496 0.482415 0.432323)
(0.0714393 0.479922 0.555278)
(0.14199 0.420016 0.621995)
(0.195084 0.309655 0.653348)
(0.247369 0.158024 0.62652)
(0.234213 -0.020043 0.53011)
(0.105351 -0.139757 0.438599)
(-0.0116588 -0.104519 0.447729)
(-0.0326045 0.0112095 0.42615)
(-0.0345949 0.136172 0.42803)
(0.0375804 0.243514 0.370696)
(0.199996 0.136548 0.386666)
(0.158938 0.270765 0.452199)
(-0.0558971 0.183513 -0.0446086)
(-0.170201 -0.0711883 -0.643888)
(-0.179936 -0.307448 -0.546819)
(-0.16802 -0.346922 -0.313424)
(-0.143942 -0.30646 -0.0966799)
(-0.0624922 -0.59025 -0.107019)
(-0.028677 -0.868113 -0.0931034)
(0.00117349 -1.02419 -0.0900464)
(0.0312439 -1.14644 -0.0988217)
(0.064105 -1.22889 -0.112821)
(0.0943681 -1.28055 -0.126705)
(0.120985 -1.30607 -0.138662)
(0.145101 -1.31374 -0.15075)
(0.166208 -1.3109 -0.163507)
(0.184722 -1.30108 -0.174611)
(0.200576 -1.2859 -0.183403)
(0.21469 -1.26595 -0.188853)
(0.227163 -1.24098 -0.191812)
(0.238528 -1.20961 -0.190852)
(0.2482 -1.1704 -0.185783)
(0.254043 -1.12094 -0.175016)
(0.251267 -1.05843 -0.158357)
(0.194453 -0.995356 -0.138602)
(0.139581 -0.9105 -0.122498)
(0.164187 -0.82661 -0.0868294)
(0.187442 -0.726259 -0.0880412)
(0.203568 -0.557855 -0.0879319)
(0.246338 -0.441085 -0.0842693)
(0.0719802 -0.0296956 -0.0952647)
(0.365287 -0.297303 0.043546)
(0.245274 -0.549527 -0.0569606)
(0.285453 -0.0942894 -0.0268214)
(0.180229 -0.036562 -0.147112)
(0.20096 -0.111966 -0.12442)
(0.193684 -0.11892 -0.0805577)
(0.21438 -0.131372 -0.0228225)