/*--------------------------------*- C++ -*----------------------------------*\
| =========                 |                                                 |
| \\      /  F ield         | OpenFOAM: The Open Source CFD Toolbox           |
|  \\    /   O peration     | Version:  v2012                                 |
|   \\  /    A nd           | Website:  www.openfoam.com                      |
|    \\/     M anipulation  |                                                 |
\*---------------------------------------------------------------------------*/
FoamFile
{
    version     2.0;
    format      ascii;
    class       volScalarField;
    location    "1170";
    object      k;
}
// * * * * * * * * * * * * * * * * * * * * * * * * * * * * * * * * * * * * * //

dimensions      [0 2 -2 0 0 0 0];


internalField   nonuniform List<scalar> 
18258
(
0.0333625
0.0157277
0.012275
0.0101257
0.0109661
0.0139502
0.0167424
0.0210995
0.0255124
0.0314525
0.0385271
0.0474691
0.0534818
0.0606489
0.0636386
0.0619366
0.0521062
0.0473577
0.0566285
0.081084
0.0709884
0.0513541
0.0621817
0.0614498
0.0723848
0.0765376
0.060306
0.0550081
0.0495612
0.0438826
0.0373928
0.0234818
0.0239664
0.0286509
0.0319136
0.0356384
0.0385155
0.0408812
0.0425231
0.0433435
0.0432589
0.0419652
0.0392725
0.0351988
0.029697
0.0236473
0.0229263
0.0241515
0.0298505
0.0353246
0.0407195
0.0462866
0.0546817
0.0447274
0.0290624
0.0392302
0.0477121
0.0546052
0.0590321
0.0614797
0.0622415
0.061326
0.0590333
0.0557707
0.0518069
0.0474663
0.0434486
0.039464
0.0342214
0.030962
0.0268532
0.023511
0.0210732
0.019363
0.0182462
0.0172405
0.0163729
0.0156379
0.0150211
0.0145962
0.0145058
0.0145341
0.0146368
0.0147353
0.0150832
0.01273
0.0109541
0.0104867
0.0102297
0.00957478
0.0081108
0.0106622
0.0117653
0.0121804
0.0124495
0.0136304
0.0147917
0.0143666
0.0136431
0.0125356
0.0124733
0.0169638
0.0177677
0.0227973
0.0215906
0.0167295
0.0149125
0.0166927
0.0195331
0.0225644
0.0192712
0.0192538
0.0179565
0.0170432
0.0149025
0.0149494
0.0144411
0.0141334
0.0150616
0.0178175
0.0172225
0.017327
0.0185535
0.0188808
0.0201129
0.0211315
0.0204753
0.0202906
0.0164372
0.0163364
0.0173779
0.0172505
0.017732
0.0202233
0.020281
0.0206294
0.0208475
0.0236339
0.0236524
0.0236138
0.0237046
0.0245204
0.0235735
0.0231663
0.0231985
0.0232345
0.0210688
0.0208446
0.0204778
0.0205155
0.0183526
0.0176146
0.0183453
0.0193257
0.0213031
0.0250604
0.0315009
0.0404285
0.0505293
0.060775
0.0685472
0.0729043
0.0772687
0.0767282
0.0774246
0.0795201
0.0798876
0.0787434
0.0768898
0.0747237
0.0717705
0.0671357
0.0666555
0.0589997
0.04811
0.0334218
0.0389205
0.04176
0.0445159
0.0448266
0.0453124
0.0441017
0.0423351
0.0387432
0.0336107
0.0246996
0.0259553
0.0303818
0.0350173
0.0387867
0.0429358
0.0465229
0.0483086
0.0499636
0.0592299
0.0570772
0.0552158
0.056999
0.0585317
0.0617052
0.0600859
0.0561685
0.0503012
0.0519828
0.0451443
0.033847
0.031641
0.0295372
0.0271262
0.0377916
0.0496019
0.0612445
0.0676138
0.0737769
0.0786198
0.0826513
0.0871805
0.0817379
0.0765905
0.0578477
0.0840035
0.0659865
0.050768
0.0415289
0.0337284
0.0307941
0.0338122
0.0340092
0.0322734
0.0276358
0.0218933
0.0231955
0.0358377
0.0455523
0.053531
0.0551739
0.0598545
0.0621878
0.0569244
0.0574993
0.0466529
0.0477895
0.0515578
0.046265
0.0439672
0.0353802
0.0276829
0.0336886
0.0500963
0.0686732
0.084623
0.0996873
0.0662272
0.0504337
0.0413853
0.034626
0.0333338
0.0379025
0.0438191
0.0529502
0.0412384
0.0372009
0.0337264
0.0308878
0.0255672
0.0273283
0.0284563
0.0268552
0.0497146
0.057586
0.0612771
0.0837204
0.0924846
0.108477
0.107274
0.0927751
0.0963702
0.0690741
0.068868
0.0863096
0.0683388
0.051421
0.0616857
0.0746122
0.0884784
0.101689
0.113035
0.122137
0.123794
0.112256
0.0813776
0.0468616
0.0213246
0.0186588
0.018098
0.0173898
0.0165036
0.0157184
0.0151078
0.0121639
0.00951911
0.00928463
0.00946207
0.00940633
0.00827088
0.00951754
0.0115786
0.0137738
0.0152842
0.0164951
0.0175165
0.0182518
0.0188411
0.0192401
0.0195371
0.0198047
0.0200401
0.0202261
0.0203642
0.0204553
0.0204984
0.0204854
0.0204097
0.0202697
0.0200638
0.0197759
0.0193028
0.0177747
0.0159181
0.0150842
0.0151422
0.0148914
0.014587
0.0119512
0.0123295
0.0143458
0.0149801
0.017776
0.0198146
0.0215201
0.0229762
0.0245053
0.0252837
0.0261154
0.0263844
0.0264411
0.0263457
0.026202
0.0259858
0.0256947
0.0246407
0.0213116
0.0249125
0.0273093
0.0289926
0.0303412
0.0312403
0.0313465
0.0286155
0.0360347
0.0385249
0.0394345
0.0396974
0.0388797
0.036881
0.0344492
0.0324074
0.0309029
0.0297878
0.0276501
0.0254034
0.0230926
0.0206742
0.0174464
0.018712
0.0205517
0.0207626
0.0204727
0.02152
0.0227805
0.0211277
0.019043
0.0161454
0.0151443
0.0146445
0.0144473
0.0148421
0.0145084
0.014418
0.0149234
0.0179492
0.0190451
0.02075
0.0240039
0.0228665
0.020918
0.0280906
0.0297134
0.0301628
0.0305068
0.0304146
0.0296596
0.0265705
0.0251141
0.0265016
0.0250441
0.0244123
0.0245008
0.0241327
0.0222675
0.0245715
0.0265746
0.028165
0.0290116
0.030251
0.0318035
0.0339608
0.0357494
0.0374043
0.0384102
0.0384004
0.0378851
0.0380836
0.038754
0.0384985
0.0367971
0.0347219
0.0326308
0.029679
0.0294501
0.0314216
0.0329821
0.0346408
0.0364129
0.0357044
0.0338245
0.0322016
0.0307833
0.029074
0.0289405
0.0306153
0.0320562
0.0337891
0.0358977
0.0360607
0.0339302
0.0321185
0.0306182
0.0289177
0.0288771
0.0305749
0.032083
0.0338006
0.0356791
0.0348073
0.0333427
0.0318247
0.0303607
0.0286986
0.0282556
0.0298581
0.0312383
0.0325495
0.0336115
0.031939
0.0313504
0.0302813
0.0288928
0.0271343
0.0258767
0.0263861
0.0277754
0.0278862
0.0283646
0.0294829
0.0293293
0.0290467
0.0290012
0.0287197
0.0264723
0.0268799
0.0269292
0.0276217
0.0309233
0.0304463
0.0331312
0.0355565
0.0332447
0.0317453
0.0281587
0.0337329
0.0337809
0.0347517
0.0335804
0.0237849
0.0219248
0.0229233
0.024462
0.0261095
0.0254238
0.0226611
0.0226073
0.0232202
0.0226413
0.0210867
0.0180937
0.0135862
0.013595
0.0135884
0.0143253
0.0171355
0.018726
0.0188314
0.0186713
0.0183651
0.0178906
0.0171723
0.0161002
0.015627
0.0245399
0.0442995
0.0563231
0.055768
0.0424235
0.0354778
0.0261222
0.0179245
0.0105387
0.010692
0.0113425
0.0136994
0.011527
0.0105069
0.0144689
0.0117857
0.0196936
0.0228779
0.0303003
0.0412788
0.0397557
0.0300905
0.0204049
0.0184693
0.0193383
0.0198521
0.0202437
0.0206295
0.0210199
0.0214453
0.0219641
0.0216526
0.0190085
0.0167601
0.0168913
0.017464
0.0199739
0.0213511
0.0221396
0.0217992
0.0220369
0.0237676
0.0225146
0.0212943
0.0210935
0.0203922
0.0232443
0.0235873
0.0229473
0.0229511
0.0232244
0.0231026
0.0232381
0.024051
0.0198501
0.0219553
0.0225028
0.0227853
0.0235819
0.0190701
0.0192578
0.0193195
0.018158
0.0149591
0.0180645
0.0168174
0.0121865
0.0135014
0.0134551
0.0140633
0.0143885
0.0171232
0.0162783
0.0155653
0.0163389
0.0223276
0.0231389
0.0233209
0.0206793
0.0194339
0.0219304
0.0225171
0.0220526
0.0211654
0.021336
0.0203911
0.0184795
0.0177584
0.0178957
0.0193136
0.0201131
0.0201795
0.0238078
0.0233029
0.0217327
0.0227292
0.023326
0.0229135
0.0228038
0.0227524
0.0223847
0.0219577
0.0223687
0.0225555
0.0226074
0.0221624
0.0224179
0.0250611
0.0214841
0.0212943
0.0202089
0.0195495
0.017916
0.0176592
0.0177571
0.0177166
0.0176215
0.0167824
0.0186454
0.0179205
0.0200545
0.0216721
0.0228278
0.0240054
0.0241576
0.0237265
0.0236874
0.0233009
0.0232674
0.0227139
0.0218638
0.0212772
0.0204956
0.0192837
0.0192757
0.0192259
0.0190817
0.0204905
0.0203891
0.0219602
0.0230865
0.0228002
0.0218294
0.0217207
0.0205387
0.020516
0.0215621
0.0224565
0.0227074
0.023577
0.026129
0.023764
0.0253215
0.0260152
0.0266809
0.0260668
0.0249646
0.0257183
0.0240524
0.022938
0.0242616
0.0249863
0.0262504
0.0270452
0.0250668
0.0240379
0.022838
0.0219724
0.0209813
0.0184531
0.0190715
0.0198663
0.0211011
0.0229173
0.0256484
0.028395
0.0313227
0.0313829
0.0290778
0.0273746
0.0321932
0.0316597
0.0366443
0.0372558
0.0331163
0.0302944
0.0273709
0.02695
0.0260292
0.0254936
0.0242073
0.0254581
0.0258879
0.0249403
0.0274227
0.0290054
0.0333455
0.038942
0.0356129
0.0327562
0.0377915
0.0366854
0.0426847
0.0364543
0.0347801
0.0286468
0.033239
0.0355785
0.0433673
0.0339478
0.0297543
0.0295148
0.0308243
0.0383298
0.0368845
0.0395065
0.0446541
0.0439884
0.0390807
0.0358461
0.0416501
0.0316725
0.0370912
0.0391079
0.0324567
0.0322419
0.0391429
0.0397594
0.0399074
0.0337922
0.0330886
0.0250678
0.0336546
0.0401514
0.0400577
0.033255
0.0260058
0.0359543
0.0315909
0.0313978
0.0313927
0.0269923
0.0269243
0.0262117
0.0264689
0.0271894
0.0247336
0.0255488
0.0258183
0.0259922
0.0261365
0.0263451
0.0267105
0.0273855
0.0281781
0.0229726
0.0244611
0.0230596
0.0216638
0.0202477
0.024041
0.0265164
0.028317
0.0297638
0.0308962
0.0313936
0.0300563
0.0379945
0.0396797
0.041361
0.0415405
0.0403145
0.037657
0.0342087
0.0306975
0.0283654
0.0270185
0.0244549
0.0223385
0.0202866
0.0181488
0.0153793
0.0140971
0.0127833
0.0114793
0.0111551
0.010621
0.0100186
0.00930586
0.00889285
0.0113877
0.019729
0.0281925
0.0330634
0.0382597
0.0447627
0.0514347
0.0569062
0.060912
0.0636749
0.0653434
0.0657196
0.062977
0.0523277
0.0474388
0.0427115
0.0379138
0.0330324
0.032251
0.0413291
0.0495739
0.0565619
0.0628777
0.0670006
0.0653919
0.0499856
0.0469989
0.0625655
0.0899326
0.0806412
0.103503
0.120057
0.0798433
0.0651337
0.0643405
0.0794782
0.0819277
0.0752676
0.066294
0.0564621
0.0456123
0.0505173
0.0551499
0.0595208
0.0639135
0.0770314
0.0797173
0.0786521
0.0763638
0.0732674
0.0688051
0.0619518
0.0531384
0.0442425
0.0368384
0.0301267
0.0206895
0.0123
0.0139197
0.0131545
0.016547
0.0152095
0.0096389
0.00992699
0.010148
0.0101027
0.00993027
0.00996223
0.0113755
0.0182626
0.0148629
0.0134396
0.0115586
0.0144197
0.0163641
0.0183678
0.0189595
0.0190316
0.0194093
0.0320844
0.0435383
0.0495767
0.0544357
0.0580052
0.0565128
0.0528603
0.0466481
0.0396667
0.0370485
0.033259
0.0299584
0.0283267
0.0292556
0.0257982
0.016323
0.0145902
0.0156344
0.0153703
0.0143959
0.0163177
0.0175293
0.0183015
0.0189264
0.0193947
0.0197556
0.0200143
0.0201876
0.020281
0.0203127
0.0202968
0.0202382
0.0201353
0.0199848
0.0197755
0.0194768
0.0189617
0.0172447
0.0153965
0.0146823
0.0147677
0.0145375
0.0141749
0.0122941
0.012514
0.014377
0.014978
0.0145899
0.0151778
0.0156486
0.0168631
0.0190586
0.0212094
0.0230529
0.0217379
0.021079
0.0210337
0.0206258
0.0173675
0.0206511
0.0236323
0.0241631
0.0244568
0.0252831
0.0268942
0.0278356
0.0268851
0.0263546
0.0258076
0.0226058
0.0242039
0.0278613
0.0282905
0.0290035
0.0296238
0.0302216
0.0314867
0.0308343
0.0298939
0.0292736
0.0263256
0.025443
0.0317299
0.0205762
0.0140972
0.0100612
0.0107072
0.0108242
0.0104075
0.0111399
0.0116596
0.0119153
0.0113851
0.0124491
0.0133477
0.0126735
0.0152366
0.014511
0.013458
0.0129676
0.0139134
0.0148143
0.015256
0.0161459
0.0261544
0.0268424
0.0225784
0.0289586
0.0315305
0.0290067
0.0318138
0.0294303
0.028001
0.0307527
0.0342521
0.035676
0.03332
0.031826
0.0313294
0.0208144
0.020119
0.0194188
0.0175664
0.0178102
0.0173424
0.016901
0.0165028
0.0191097
0.0204949
0.0217284
0.0214143
0.021086
0.0206318
0.0207394
0.0248481
0.0331909
0.0435616
0.0468703
0.0455555
0.0416139
0.0347506
0.0285675
0.0281756
0.0264036
0.0252284
0.0250333
0.0192133
0.0149101
0.017269
0.0172907
0.0183511
0.0190243
0.0195556
0.0199821
0.0203403
0.0206524
0.0209573
0.0212462
0.0215027
0.021722
0.0219126
0.0220726
0.0222423
0.0224435
0.0227153
0.0229327
0.021264
0.0186109
0.0172557
0.0171077
0.017827
0.0187293
0.0198507
0.0190821
0.015367
0.0154632
0.0218643
0.0223427
0.0209776
0.0195522
0.019768
0.0189205
0.0227749
0.0225924
0.0234222
0.0232061
0.0229092
0.0226079
0.0223057
0.0219917
0.021678
0.0214041
0.021157
0.0209301
0.0207107
0.0204835
0.0201949
0.0197677
0.0190727
0.0182498
0.0168294
0.0180307
0.0190892
0.0208514
0.0228066
0.0237409
0.0228374
0.0215679
0.0210174
0.0212673
0.0216044
0.0219652
0.0223495
0.0227941
0.0232329
0.0236422
0.0235851
0.0222163
0.0228697
0.0174733
0.0183228
0.0186288
0.0185884
0.0202476
0.0193865
0.0146489
0.0151471
0.0158716
0.017174
0.0197937
0.0201686
0.0215496
0.0217833
0.0173284
0.0170198
0.0165856
0.0175929
0.0151954
0.0158504
0.0266976
0.0272659
0.0349884
0.0383962
0.0399488
0.0331368
0.045552
0.0524288
0.0505747
0.0408678
0.0235211
0.0346385
0.042154
0.0488368
0.0457953
0.0356485
0.0449176
0.0473231
0.0631032
0.0588043
0.0524633
0.0631073
0.0446713
0.0269103
0.0157993
0.0163735
0.0151811
0.0306322
0.0347266
0.0314402
0.0323098
0.0399001
0.0409129
0.0362103
0.0344823
0.0362359
0.0357855
0.0397493
0.0370801
0.0336599
0.0232912
0.019008
0.0198575
0.0212805
0.0231273
0.0254819
0.0253727
0.0242162
0.0228382
0.0218503
0.0207872
0.0182826
0.0176204
0.0195824
0.0212143
0.0225955
0.0241128
0.0249417
0.0257885
0.0259522
0.0258398
0.0255093
0.0250709
0.0245048
0.0238095
0.0223924
0.0236039
0.0242908
0.0245177
0.0248133
0.0251418
0.0254326
0.0255868
0.025479
0.0245112
0.0236864
0.0225112
0.0213932
0.0197843
0.0176635
0.0183508
0.0201154
0.021721
0.0228371
0.0238913
0.0235042
0.0240065
0.0246771
0.0246899
0.0244916
0.0242527
0.0240858
0.0241656
0.0247916
0.0265259
0.0263819
0.0293512
0.0304963
0.0278835
0.0265292
0.0258176
0.0253751
0.0251164
0.0248988
0.0246904
0.0241357
0.0235937
0.0241036
0.0243657
0.0246714
0.0250363
0.0255485
0.0262416
0.0273358
0.0287578
0.0286711
0.0263374
0.0260948
0.0250199
0.0242374
0.0238684
0.0238318
0.0238895
0.0240072
0.0239576
0.0234327
0.0230992
0.0235067
0.0224885
0.0225504
0.0215761
0.0202111
0.0187662
0.0173128
0.0166499
0.0352234
0.0352231
0.0456482
0.0423825
0.0370821
0.047078
0.0600087
0.0520378
0.0626457
0.0664346
0.0540126
0.0501198
0.0278879
0.0244237
0.0173854
0.0189137
0.0202635
0.0214745
0.0212886
0.0222148
0.022095
0.0230721
0.0225284
0.021751
0.0211829
0.0201625
0.0202194
0.0189437
0.0173953
0.0172606
0.0189131
0.0199819
0.0211692
0.0211615
0.0226308
0.0231256
0.0235193
0.0236607
0.0236403
0.0237231
0.0238819
0.024328
0.0250395
0.0255203
0.0256923
0.0261431
0.0258717
0.0255699
0.0251412
0.0248488
0.02454
0.0242628
0.0239653
0.0236815
0.0232426
0.0225814
0.0224595
0.0229765
0.0233191
0.0235515
0.0236805
0.0236488
0.0234336
0.0230884
0.0227318
0.0223513
0.0223941
0.0237262
0.0240031
0.0241379
0.0239205
0.0237389
0.0237192
0.023593
0.0234971
0.0232758
0.0229132
0.022449
0.0213783
0.0214694
0.0223504
0.0227882
0.0231101
0.0233796
0.0234072
0.0233362
0.0229625
0.0226721
0.0223118
0.0217213
0.0209122
0.0183989
0.018918
0.0195703
0.0204605
0.0213525
0.0221113
0.0225987
0.0228093
0.0228206
0.0226531
0.0223007
0.0215499
0.0215272
0.0220657
0.022227
0.0221615
0.021831
0.0211703
0.0202075
0.0189654
0.0177216
0.0167557
0.0163207
0.015573
0.0180705
0.0191732
0.02016
0.0210498
0.0218723
0.022731
0.0230416
0.0230864
0.0229386
0.0226794
0.0222718
0.0215023
0.0214991
0.0222006
0.0225855
0.0227949
0.0228725
0.0226201
0.0219669
0.0204164
0.0189836
0.0177799
0.0166593
0.0154907
0.015441
0.0159482
0.0154319
0.015777
0.0168695
0.0183481
0.0197269
0.0207579
0.0213882
0.0216984
0.0217426
0.0214197
0.0212334
0.0213494
0.0211333
0.0206173
0.0197303
0.0184332
0.0169733
0.0157892
0.0154847
0.0161679
0.0168104
0.0162039
0.0138268
0.014961
0.016086
0.0172325
0.0189288
0.0210033
0.0219726
0.0224539
0.022598
0.0224765
0.0221146
0.0214638
0.0213991
0.0220226
0.0223791
0.0224812
0.0223737
0.0219687
0.0211798
0.0186641
0.0158788
0.0146081
0.0138705
0.0129431
0.0163531
0.0170581
0.0162389
0.0156913
0.016538
0.0175368
0.0186465
0.0195099
0.0201466
0.0206582
0.0209477
0.0209888
0.0207122
0.0205847
0.0203556
0.0200151
0.0197093
0.0194094
0.0186734
0.0178601
0.0168572
0.0179237
0.0184996
0.0177401
0.0144413
0.0150007
0.0158997
0.0164476
0.0191444
0.0216013
0.0222123
0.0223674
0.0224538
0.0223141
0.0219181
0.0213031
0.0211726
0.021811
0.0222989
0.0226126
0.0229263
0.0232111
0.0234288
0.0215559
0.0182314
0.0174184
0.0155695
0.0147331
0.0183019
0.0189805
0.0184771
0.0179159
0.0196348
0.0203341
0.0205556
0.0205136
0.0204024
0.0202877
0.0203066
0.0204296
0.0201292
0.0199972
0.0201019
0.020336
0.0203198
0.0201234
0.0195712
0.018807
0.0176712
0.0195461
0.0212522
0.0209655
0.0169674
0.0175037
0.0184773
0.0181025
0.0208467
0.0226645
0.0231108
0.0230012
0.0226571
0.0221674
0.0216199
0.0209792
0.0206952
0.0212619
0.0218198
0.0218447
0.0219262
0.0218708
0.0213148
0.0211449
0.0205749
0.0203
0.0195487
0.0189729
0.0182415
0.0203426
0.023462
0.0256222
0.0271843
0.0290477
0.0276594
0.0242173
0.0220122
0.0152607
0.0152629
0.0154751
0.0148492
0.0144762
0.0142921
0.0186035
0.0212537
0.0238432
0.0255053
0.0231625
0.0231397
0.0230753
0.0229714
0.0228716
0.0227701
0.0225648
0.0231732
0.040312
0.282294
0.208441
0.234389
0.223318
0.314519
0.0777084
0.0384852
0.0426538
0.0493987
0.0566862
0.0549778
0.0514054
0.044974
0.0407988
0.0404113
0.0400047
0.0398214
0.0386752
0.0387123
0.0379522
0.0450552
0.0925454
0.122258
0.136023
0.144626
0.153922
0.149432
0.158585
0.150649
0.151187
0.152786
0.15753
0.150173
0.142817
0.138967
0.13467
0.117388
0.11776
0.0993591
0.103172
0.0860528
0.0904295
0.0942888
0.0936174
0.092391
0.0921481
0.0923991
0.0931906
0.0968044
0.0921522
0.0978597
0.0905503
0.0722516
0.0698135
0.071694
0.0660269
0.0578548
0.0653142
0.0799463
0.0952952
0.111843
0.0958338
0.119699
0.113673
0.114593
0.108873
0.102522
0.0987699
0.098058
0.0986911
0.0998332
0.102486
0.104422
0.106029
0.108947
0.117527
0.119872
0.118458
0.101057
0.0858662
0.0943245
0.0991115
0.10279
0.103079
0.0983788
0.0962134
0.0899294
0.0883547
0.0827634
0.0801878
0.074684
0.0713966
0.0665856
0.0831048
0.0813149
0.0883031
0.0945708
0.0988496
0.102478
0.10409
0.105338
0.104159
0.101772
0.0968362
0.0947848
0.0900153
0.10838
0.126752
0.129524
0.124889
0.111384
0.105755
0.337787
0.409863
0.411075
0.610063
0.651492
0.842225
0.334787
0.17937
0.191526
0.188177
0.17998
0.176735
0.176434
0.18802
0.197009
0.18804
0.198714
0.176289
0.173361
0.165433
0.190987
0.188667
0.169915
0.148863
0.1165
0.0953732
0.0942827
0.0789725
0.0800344
0.0706967
0.072004
0.0739451
0.090474
0.166799
0.20708
0.233836
0.260299
0.32034
0.290391
0.439064
0.35226
0.437873
0.302728
0.327234
0.312984
0.304193
0.302119
0.31798
0.340081
0.299142
0.37185
0.298067
0.646363
0.782193
0.49596
0.457855
0.405886
0.391747
0.381822
0.376191
0.367856
0.485156
0.449751
0.551069
0.511069
0.639804
0.560326
0.564958
0.531402
0.568362
0.587511
0.60188
0.48019
0.521981
0.405941
0.439455
0.369272
0.405649
0.291359
0.291459
0.332683
0.370088
0.395595
0.451492
0.710666
0.603843
0.814496
0.583873
0.705916
0.490517
0.537372
0.513323
0.495628
0.497169
0.525107
0.629085
0.608421
0.694281
0.514688
0.526974
0.516687
0.53403
0.523469
0.558448
0.563142
0.564321
0.562296
0.523406
0.534016
0.532189
0.531971
0.531991
0.532334
0.509574
0.512751
0.505217
0.510999
0.526917
0.514583
0.514505
0.512364
0.504789
0.502735
0.502252
0.504009
0.503779
0.50891
0.508781
0.50912
0.512177
0.5269
0.514405
1.81951
0.89761
0.427445
0.337975
0.219122
0.134216
0.0553329
0.0597622
0.0626816
0.0636025
0.0615392
0.056115
0.0478892
0.0378285
0.0300045
0.0291008
0.0259694
0.027104
0.0346993
0.0422926
0.0386468
0.0464304
0.0541257
0.0624553
0.0704824
0.0774893
0.0834119
0.08633
0.0832791
0.0705248
0.0528295
0.0353595
0.0250393
0.0226222
0.0209706
0.0189748
0.0168629
0.0151885
0.0141915
0.0130311
0.0124072
0.0123252
0.012555
0.0127993
0.0132453
0.0147599
0.0160602
0.0172456
0.0182097
0.0184548
0.0179304
0.0184735
0.0190671
0.0194618
0.0198062
0.0196213
0.0196119
0.0198634
0.0198257
0.0200418
0.0199474
0.0199734
0.0198381
0.0196885
0.0194663
0.0190457
0.0187683
0.0182093
0.0178546
0.0169873
0.0170237
0.0174327
0.0177632
0.0167533
0.0166951
0.0159382
0.027216
0.0484061
0.0612481
0.0662559
0.0715405
0.0675007
0.0572234
0.0393118
0.0192916
0.0188531
0.0193304
0.0218878
0.0213897
0.0173544
0.0181352
0.0189009
0.017699
0.0176562
0.0176879
0.0197519
0.0203577
0.0216875
0.0221783
0.0225143
0.022725
0.0226212
0.0226986
0.0223752
0.0223604
0.0219524
0.0219275
0.0216057
0.021379
0.0216747
0.022392
0.0224935
0.0231882
0.022917
0.0226722
0.0221223
0.021748
0.0209007
0.0200042
0.0189771
0.017418
0.0169533
0.0174683
0.0179427
0.017473
0.0188815
0.0199649
0.0196561
0.0244864
0.0227479
0.0203002
0.0227911
0.0184536
0.0186092
0.0182355
0.0171802
0.017727
0.0172598
0.0171856
0.0175085
0.0178088
0.0189808
0.0199564
0.0205724
0.0214296
0.0220507
0.0227501
0.0239106
0.0241739
0.0231248
0.0229075
0.0217047
0.0210229
0.0206918
0.0216154
0.0229167
0.0228774
0.0238348
0.0236246
0.0224154
0.0216175
0.0207812
0.0198081
0.0191629
0.0183789
0.017623
0.0172085
0.0163777
0.0164627
0.0153756
0.0169255
0.0173717
0.0194143
0.0173966
0.016976
0.0225986
0.0285556
0.0444626
0.032452
0.0213363
0.0227933
0.0309105
0.0384166
0.0271486
0.0265079
0.0152746
0.0175297
0.015371
0.0156591
0.0167304
0.0170109
0.018214
0.0192689
0.0195069
0.0202496
0.0205951
0.021351
0.0216073
0.0223336
0.0225266
0.0237727
0.0238345
0.0238637
0.0238349
0.0229725
0.0228921
0.0228448
0.0233283
0.0231367
0.0239046
0.0239441
0.0240636
0.0240068
0.0226895
0.0223672
0.0216024
0.0210875
0.0201904
0.0196386
0.0189272
0.0185478
0.0178973
0.0182075
0.0189232
0.0191105
0.0200612
0.0200801
0.0208163
0.021025
0.021491
0.021626
0.0222863
0.0224262
0.0226923
0.0227489
0.0239399
0.0240529
0.0240794
0.0240445
0.0240487
0.0242606
0.0242478
0.0241873
0.0241521
0.0239801
0.0237935
0.0235878
0.0246572
0.0253658
0.0249949
0.024773
0.0250348
0.0258708
0.0264212
0.0274863
0.028329
0.029371
0.0302419
0.0310342
0.0316837
0.0321346
0.0322333
0.0322497
0.0317867
0.0314027
0.0330865
0.0395465
0.042761
0.0480048
0.050376
0.0523292
0.0530441
0.0518995
0.0526253
0.0513547
0.0516234
0.050434
0.0500171
0.0491978
0.0482119
0.0474922
0.0460482
0.0453134
0.0499022
0.0563664
0.0563847
0.04924
0.0462728
0.0420277
0.0366064
0.0385142
0.0448864
0.0403467
0.0380082
0.0352388
0.0302607
0.0231237
0.0178493
0.0257442
0.0334958
0.0407348
0.0475188
0.0535053
0.0573908
0.0595285
0.0610745
0.0627642
0.0607203
0.0532534
0.0415827
0.0316778
0.0277545
0.0261848
0.0237554
0.020337
0.0184629
0.0173974
0.0162515
0.0149135
0.0140655
0.0138272
0.0140863
0.0142057
0.0155537
0.0168189
0.0168107
0.0179943
0.0177899
0.0183033
0.0188965
0.0193037
0.0199491
0.0199246
0.0189605
0.0193176
0.0195826
0.0202683
0.0201744
0.0203544
0.0201544
0.0194414
0.0189362
0.0183405
0.0178273
0.0173658
0.0167855
0.0160465
0.0160424
0.0162285
0.0157686
0.016195
0.0166451
0.0170592
0.0176844
0.0185984
0.0193508
0.0211812
0.0212973
0.0210371
0.0211176
0.0196762
0.0196047
0.0186271
0.0183853
0.0199828
0.0198161
0.0181465
0.0195375
0.0195518
0.0213481
0.0213652
0.0206886
0.0208926
0.020806
0.018982
0.0180953
0.0170192
0.0162396
0.0156432
0.0152349
0.0147547
0.0153847
0.0141461
0.0135868
0.0140614
0.0140365
0.0141041
0.0144986
0.0149312
0.0156763
0.016384
0.0174395
0.0180823
0.0189824
0.0193136
0.0212218
0.0211157
0.0209607
0.0209922
0.0211302
0.0215711
0.0207925
0.0207537
0.0208985
0.020915
0.0209651
0.0209565
0.0191186
0.0189169
0.0180822
0.017763
0.0168227
0.0164627
0.0158045
0.0154865
0.0150909
0.0148928
0.023293
0.0254961
0.0256438
0.0398217
0.0200205
0.0199769
0.0344444
0.0173508
0.023098
0.023638
0.0247204
0.0259667
0.0225811
0.0308165
0.0212544
0.0233899
0.0241116
0.0252767
0.0129371
0.0202635
0.0379627
0.0428297
0.0441244
0.0490202
0.0556125
0.0587721
0.0617918
0.063793
0.0660495
0.0684761
0.0708623
0.0725811
0.0727144
0.0690034
0.0659274
0.0564077
0.0525842
0.056302
0.0606967
0.0472088
0.0424292
0.0429558
0.0433962
0.0439051
0.0440889
0.0447433
0.0445297
0.0454848
0.0447451
0.0458078
0.0446502
0.0456262
0.0444323
0.0417491
0.0385521
0.0324339
0.0304915
0.0293957
0.026704
0.0242092
0.0219951
0.0201937
0.01977
0.0182144
0.016822
0.016523
0.0152333
0.0155118
0.0167603
0.0199258
0.0168277
0.0176451
0.0260544
0.0191314
0.0180131
0.0185529
0.0190677
0.0193082
0.0181989
0.0198173
0.0220738
0.0220955
0.0221679
0.0221903
0.0213885
0.0212219
0.020971
0.0210363
0.0210682
0.0212063
0.0211815
0.0193526
0.0192964
0.0190243
0.0188879
0.0180953
0.0179276
0.0173391
0.0170063
0.0161574
0.0158621
0.0154142
0.0154842
0.0168608
0.0209773
0.030723
0.0175949
0.0183705
0.0158604
0.0139924
0.0267318
0.0247745
0.0286951
0.0268144
0.0394481
0.0264557
0.0231969
0.0242013
0.0297467
0.0297118
0.0327183
0.0425085
0.0331176
0.028419
0.0747844
0.0550776
0.0337605
0.0471617
0.0591934
0.11024
0.127966
0.0561982
0.0566614
0.0623011
0.0632602
0.0631866
0.0537108
0.0494582
0.0418011
0.0323836
0.012873
0.0249891
0.0323731
0.0434117
0.0580441
0.0922266
0.0529975
0.0598105
0.0657404
0.0648008
0.0678679
0.066058
0.0647165
0.0656818
0.102681
0.111585
0.108437
0.0875287
0.082201
0.0747806
0.124466
0.13911
0.120065
0.130069
0.136194
0.083213
0.0306491
0.0249739
0.0238562
0.0264423
0.0253801
0.0459352
0.020652
0.021849
0.0226843
0.0271639
0.0302632
0.052755
0.0233467
0.0254955
0.0324357
0.0348915
0.0457467
0.0275243
0.0280987
0.0343737
0.036145
0.0394996
0.0337135
0.0318395
0.0287416
0.0259485
0.0244589
0.0255125
0.0319072
0.0462989
0.0279346
0.0283648
0.0301209
0.134753
0.0307946
0.0266783
0.0277756
0.0267752
0.0337207
0.0350533
0.111927
0.0357001
0.0167365
0.0154573
0.0159213
0.0167366
0.0173771
0.0180024
0.0184463
0.0190935
0.0194796
0.0196394
0.0198197
0.0221866
0.0220681
0.0215987
0.0210535
0.0218333
0.0211399
0.0211806
0.0217905
0.0212515
0.0214089
0.0224483
0.0236146
0.0231094
0.0236592
0.0250184
0.0238723
0.0221947
0.0219851
0.0220977
0.0228079
0.023943
0.0227625
0.0234246
0.0226151
0.0235256
0.0236734
0.0203867
0.0200041
0.0197953
0.019299
0.0186193
0.0179952
0.0173225
0.0166845
0.0162117
0.0161938
0.0167859
0.0152192
0.0156897
0.0182558
0.0403875
0.033406
0.0272395
0.0226493
0.0197755
0.018501
0.0183257
0.0187498
0.019403
0.0199581
0.0201693
0.0207707
0.0246481
0.0245293
0.0257272
0.0246049
0.02593
0.0248637
0.0235456
0.0226761
0.0238783
0.0231945
0.023685
0.0252775
0.0260964
0.0237302
0.0239864
0.0214192
0.0200284
0.0184346
0.0187754
0.0202056
0.0208603
0.0232626
0.0233511
0.0267571
0.0267573
0.0266406
0.0254293
0.0247609
0.0261955
0.0247182
0.0258628
0.024763
0.0261587
0.0273499
0.0276934
0.0269931
0.0262154
0.02535
0.0210654
0.0202602
0.0199558
0.0194728
0.019228
0.020214
0.0246404
0.0341216
0.046491
0.0587184
0.0680225
0.0673406
0.0605472
0.0413858
0.0421433
0.0392716
0.0425683
0.0609512
0.0882006
0.0619742
0.115245
0.0892229
0.0529154
0.0630838
0.0750942
0.0842591
0.0902495
0.0914978
0.0781523
0.057655
0.0505722
0.0530039
0.0850343
0.0837246
0.0824403
0.0779255
0.0824208
0.0802729
0.077575
0.0759819
0.0741716
0.0698758
0.0698603
0.0671068
0.06706
0.0599799
0.0611513
0.0613562
0.0587814
0.0560463
0.0537684
0.051585
0.0492687
0.0454005
0.0441358
0.0416877
0.0399741
0.0366445
0.0361091
0.0356276
0.0334663
0.0319274
0.0306846
0.0294351
0.0277533
0.0279268
0.026388
0.0262384
0.0214031
0.0210137
0.019978
0.0196533
0.0194174
0.0196422
0.0209523
0.0237429
0.0441126
0.0333005
0.033072
0.0335949
0.0337162
0.0397058
0.0464416
0.0703927
0.0651018
0.0715051
0.0612361
0.0636273
0.0628346
0.0624688
0.0651993
0.0687674
0.0741134
0.0865823
0.333146
0.513773
0.252951
0.236975
0.246646
0.251573
0.258944
0.338718
0.359993
0.355475
0.360398
0.330386
0.318558
0.196604
0.226051
0.23814
0.237043
0.223947
0.202925
0.394634
0.522642
0.51878
0.523653
0.523766
0.518768
0.522589
0.502914
0.514274
0.501758
0.515021
0.502296
0.521642
0.518901
0.504363
0.501138
0.501158
0.500918
0.501381
0.501557
0.504896
0.506057
0.506108
0.505103
0.504125
0.514517
0.439056
0.123815
0.0862727
0.143835
0.199976
0.16398
0.236174
0.271225
0.195512
0.111358
0.0912397
0.102964
0.126907
0.128338
0.155431
0.203061
0.189892
0.155062
0.155948
0.15703
0.202379
0.193647
0.219825
0.262426
0.255351
0.190544
0.151906
0.15178
0.230006
0.244321
0.239433
0.12521
0.045288
0.0220758
0.0230553
0.0329512
0.0166665
0.0168814
0.0226172
0.059647
0.0988641
0.0513646
0.138143
0.139374
0.182572
0.147812
0.178638
0.115909
0.118966
0.0677443
0.0797322
0.0896244
0.095354
0.0997101
0.094013
0.217494
0.321798
0.19169
0.562648
0.538565
0.196635
0.217406
0.576005
0.513006
0.50353
0.501786
0.501699
0.50186
0.501817
0.50097
0.500916
0.500729
0.500766
0.500717
0.501164
0.504767
0.520364
0.514584
0.505239
0.501385
0.500825
0.5008
0.500691
0.500731
0.500751
0.500809
0.501018
0.501051
0.501152
0.501671
0.503942
0.51202
0.435092
0.169802
0.182141
0.40582
0.361602
0.511498
0.504622
0.50137
0.500943
0.500856
0.50083
0.500796
0.50097
0.500891
0.501398
0.501232
0.501287
0.502775
0.508252
0.506383
0.441994
0.368415
0.415829
0.329173
0.506658
0.507771
0.503277
0.502901
0.503248
0.503416
0.501515
0.501529
0.500993
0.501062
0.500894
0.501341
0.504755
0.511005
0.345763
0.170657
0.177596
0.257765
0.0878184
0.0907807
0.0927302
0.0948437
0.247416
0.442619
0.556626
0.471926
0.475742
0.542944
0.386015
0.364805
0.294441
0.317801
0.402267
0.347358
0.31281
0.250386
0.288699
0.247665
0.303401
0.217833
0.234047
0.2216
0.28295
0.286818
0.287154
0.226598
0.216427
0.271496
0.285657
0.316575
0.218661
0.258795
0.203196
0.192292
0.0871077
0.0893094
0.0812407
0.0713316
0.0710568
0.0791527
0.0775782
0.0837202
0.0806968
0.08436
0.0814509
0.0794727
0.072738
0.0747845
0.0686078
0.0712695
0.130284
0.1665
0.150341
0.151751
0.179565
0.131083
0.157404
0.153589
0.19762
0.24799
0.227899
0.294367
0.226017
0.275861
0.405888
0.754154
0.442532
0.245649
0.318314
0.339696
0.28859
0.189517
0.449344
0.538039
0.297835
0.359801
1.19464
1.04242
1.78013
0.992466
1.11993
0.671665
0.597785
1.0292
0.654453
0.667078
0.560382
0.573959
0.500273
0.324846
0.324517
0.306236
0.242256
0.28139
0.272056
0.26689
0.29661
0.261851
0.317089
0.352824
0.397593
0.32285
0.285856
0.367621
0.21579
0.291747
0.347183
0.316345
0.260346
0.339013
0.451349
0.423839
0.36496
0.400236
0.510898
0.564807
0.535444
0.454576
0.517109
1.00958
0.966897
0.932596
0.592056
1.93349
1.7212
0.356964
0.140461
0.0979779
0.0370786
0.0225826
0.0182886
0.0179048
0.0491746
0.0195515
0.0235812
0.0212806
0.0304741
0.0275336
0.0318489
0.0562107
0.0379458
0.0535291
0.0395962
0.0530645
0.042236
0.0581314
0.0624273
0.0658347
0.0532053
0.0419624
0.0633976
0.0846362
0.0396036
0.101889
0.107698
0.0696253
0.0846173
0.104551
0.0540571
0.167417
0.0580491
0.0579365
0.0692439
0.129839
0.25617
0.087535
0.114132
0.590831
1.53308
0.515059
0.20459
0.167333
0.0415764
0.0360328
0.0295519