/*--------------------------------*- C++ -*----------------------------------*\
| =========                 |                                                 |
| \\      /  F ield         | OpenFOAM: The Open Source CFD Toolbox           |
|  \\    /   O peration     | Version:  v2012                                 |
|   \\  /    A nd           | Website:  www.openfoam.com                      |
|    \\/     M anipulation  |                                                 |
\*---------------------------------------------------------------------------*/
FoamFile
{
    version     2.0;
    format      ascii;
    class       surfaceScalarField;
    location    "1170";
    object      phi;
}
// * * * * * * * * * * * * * * * * * * * * * * * * * * * * * * * * * * * * * //

dimensions      [1 0 -1 0 0 0 0];
oriented        oriented;


internalField   nonuniform List<scalar> 
50655
(
0.00257494
-0.00359646
-0.00142219
-0.00512744
0.00141703
0.00356461
-0.00338418
0.00394293
0.00442283
-0.00249309
-0.00284579
0.00307629
-0.00369351
-0.00379481
0.00264255
-0.00175632
-0.00486195
0.000785117
0.000234933
-0.00473033
0.0015659
-0.0017681
-0.00716807
0.00235021
-0.0104476
0.00279001
0.00039079
-0.0112717
-0.00342525
0.00413934
-0.0120293
-0.00482013
0.00547531
-0.0128928
-0.00561984
0.00637921
-0.0261588
-0.00929801
0.0223701
-0.0486803
-0.0282186
0.0501798
-0.0482848
-0.0526829
0.0515902
-0.0311149
-0.0711007
0.0531528
-0.00462315
-0.0780174
0.0507427
0.0077962
-0.0547658
0.0415351
-0.0017687
-0.0314653
0.0402573
-0.0211155
-0.0216802
0.0402603
-0.0170943
-0.05127
0.0465264
-0.0072079
-0.0553457
0.0449016
-0.0389308
0.0313938
-0.041482
0.0188031
-0.0165532
-0.0160781
-0.0756787
0.0497801
0.0201228
-0.0797955
0.0430982
0.030527
-0.0292517
0.0185405
0.0341093
-0.0039196
0.0365658
0.0177959
-0.020575
0.0254599
-0.0179437
0.0287737
0.0165649
-0.00950252
0.0182283
0.00370593
-0.00144005
0.0141721
-0.0063326
0.00685031
0.00309302
-0.00538453
0.000295758
-0.00128452
-0.00536396
-0.00117455
0.00113559
-0.00628935
0.000197944
0.000710166
-0.00755168
0.000192342
0.00105338
-0.00868364
7.68239e-05
0.00103801
-0.00907592
-0.000260965
0.00063689
-0.00934275
-0.000679157
0.000929398
-0.00890848
-0.00110607
0.000655523
-0.00828589
-0.0015753
0.000936038
-0.00706294
-0.00202385
0.000784479
-0.00563653
-0.00248941
0.00104613
-0.00376606
-0.00278854
0.000901895
-0.00194285
-0.00297835
0.00113819
0.000992582
-0.00295302
0.000715706
-0.00242603
0.00267726
-0.0057579
0.00497849
0.00145335
-0.0112033
0.00470032
0.000688572
-0.0132291
0.00512921
-0.00317034
-0.0130414
0.00536266
-0.0056174
-0.00547295
0.00464579
-0.0122707
0.000494477
0.00560111
-0.0116103
0.000597982
0.00357082
-0.00369997
-0.00150505
0.00208544
-0.00295527
0.0021401
-0.000707014
-0.00451634
0.00218728
-0.000642361
-0.00583015
0.00234572
-0.00104829
-0.00709689
0.00230278
-0.001051
-0.00859884
0.00249512
-0.00100719
-0.0101656
0.0025815
-0.00102814
-0.0114618
0.00237397
-0.00109089
-0.012365
0.00201243
-0.00112224
-0.012833
0.00159909
-0.00114414
-0.0131513
0.00143318
-0.00112813
-0.0137553
0.00156033
-0.000970613
-0.0139628
0.00111659
-0.00092415
-0.0136686
0.000890971
-0.00120052
-0.0136591
0.000777041
-0.000802289
-0.0133849
0.00082145
-0.00111166
-0.0131378
0.000896091
-0.00115914
-0.0129933
0.000839052
-0.000999349
-0.0127174
0.000568958
-0.0008604
-0.0121781
0.000119784
-0.000674577
-0.0112762
-0.000456847
-0.000460298
-0.0101545
-0.000917487
-0.000219534
-0.0088363
-0.00101353
-0.000319455
-0.0073874
-0.000764028
-0.000698724
-0.00758372
-0.000695397
0.00087972
-0.0163887
0.000814319
0.00796406
-0.0211657
0.000374356
0.00434211
-0.022617
0.00112694
0.000259148
-0.0426262
0.0163234
0.00356838
-0.0546269
0.005495
0.00620742
-0.029486
-0.0164413
-0.00900718
-0.0131279
-0.0150147
-0.00147559
-0.0112752
-0.00401847
0.00208776
-0.0100279
-0.00311712
0.00177977
-0.00811077
-0.00347001
0.00145139
-0.00473763
-0.00332758
-0.000140825
-0.003206
-0.00161694
-0.00448323
0.00461612
-0.00343376
-0.00271541
0.00674235
-0.00862381
0.000860893
0.00622282
-0.00993131
0.0061457
0.00591561
-0.0113452
0.0148899
0.00883269
-0.017758
0.0284607
0.0138325
-0.0276858
0.0249426
0.0196939
-0.0164573
0.0166559
0.00642834
0.00167363
0.00813479
5.26092e-05
0.00832118
-0.0008625
-0.00382938
0.0126917
-0.00437587
-0.0067148
0.0101118
-0.00755771
0.0054346
0.00432003
0.00100893
-0.0101941
0.00194875
-0.00811106
0.00365388
-0.00526345
-0.00415122
0.00740826
-0.0125856
0.00197927
0.00526268
-0.0143705
0.00571864
0.00235774
-0.0384027
0.0270973
0.0232966
-0.00724928
-0.0132664
0.0372283
-0.009673
-0.0394366
-0.00476512
0.00931945
-0.00912255
-0.000503989
0.00898566
-0.00746125
0.00270281
0.00960854
-0.00671493
0.00461431
0.00962723
-0.0049063
0.00715292
-0.00134389
0.0113005
-0.00503089
-0.00270385
0.0124793
-0.0019573
-0.00244102
0.00882047
-0.000390308
-0.00422539
-0.00201922
-0.0211142
-0.00221013
0.0295814
-0.010657
-0.0143511
-0.00175198
-0.00711415
-0.00257566
-0.00732567
0.0159056
0.00123058
-0.0102672
0.0219606
0.00103944
-0.00900274
0.0325434
0.000234854
-0.0132046
0.0833038
-0.00230905
-0.0359868
0.0468502
-0.00191703
0.0455469
-0.0023507
0.00752413
-0.0031855
0.0384709
0.00387049
0.0218275
0.00197331
0.0232392
-0.000311855
0.0113258
0.0139364
0.00625386
-0.00800131
9.25193e-05
0.00681299
0.00521953
-0.00150225
0.00732326
0.00819065
-0.00154139
0.00712486
-0.0150868
0.00798294
-0.00212262
0.00737206
-0.015318
0.00850729
-0.00128152
0.00743833
-0.016718
0.00841806
-0.00132486
0.00742201
-0.0160169
0.00861746
-0.000643067
0.00728833
-0.0166037
0.00861296
-0.00027037
0.00703733
-0.015997
0.008567
0.00070135
0.00624066
-0.0154657
0.00823475
0.00576758
0.00442404
-0.0169593
0.00745453
0.00149364
-0.0041593
0.00568705
0.00273186
0.0008095
0.00538501
-0.000283815
0.000633107
0.00714488
-0.000738583
0.000788907
0.0080218
-0.00115257
0.000946419
0.00832389
-0.00120605
0.00128384
0.00838919
-0.00131785
0.00150795
0.00856353
-0.00136259
0.0015095
0.00870989
-0.00135235
0.00127166
0.00872132
-0.00137093
0.000941863
0.00883686
-0.00119569
0.00731153
-0.00026247
0.00935971
-0.00201068
-0.000815502
0.0110384
-0.00185597
-0.000851701
0.0123229
-0.00155254
-0.000665264
0.0131087
-0.000315479
-0.000942905
0.0135394
0.000849681
-0.00117626
0.0137167
0.00170749
-0.0013317
0.0137152
0.00223636
-0.00141205
0.0137739
0.00224916
-0.00142843
0.0137288
0.00182503
-0.000974903
0.0137356
0.00134768
-0.000593451
0.0139176
0.00122717
-0.000533816
0.0133052
0.00114491
0.000568855
0.0124531
0.00243465
0.000231176
-0.000267618
0.0126938
-0.000412332
0.00243973
-0.000848146
0.0123552
-0.000236852
0.00280232
-0.00064102
0.011481
-7.33781e-05
0.00311488
-0.000168047
0.0102173
5.00621e-05
0.000295705
0.00327866
0.00861751
0.0007211
0.00331599
0.000130647
0.0068714
0.00103952
0.00304945
0.00013844
0.00586627
0.000962545
0.00224132
8.90862e-05
0.0044226
0.00462162
-0.00084862
0.00286832
0.00427772
-0.00055237
0.00142072
-0.000502633
0.00407392
0.0038949
-0.000405671
0.00560404
-0.000513738
-0.00121154
0.00682751
-0.000408268
-0.000832054
0.00779829
-0.000605751
-0.000381513
0.00816213
-0.000471897
9.13354e-05
0.00821805
-0.000605093
0.000532711
0.00752871
-0.000258092
0.00093084
0.00655104
-0.000292751
0.00125385
0.00473103
0.000296557
0.00150637
0.00202873
0.00115257
0.0015326
-0.0017461
0.00205855
0.00169833
-0.00448739
0.000542015
0.00218129
-0.00600587
-0.000888144
0.00238736
-0.00728533
0.00061046
0.000647062
-0.0137429
0.000489566
0.00592318
-0.0248322
-0.00657331
0.0175467
-0.0309874
-0.0161583
0.0221482
-0.0391163
-0.0261127
0.0339752
-0.0317025
0.0236696
0.0161894
-0.0384512
0.00912652
0.0259142
-0.0166547
0.00686136
-0.00457894
0.00432647
-0.0322351
0.026136
0.00147137
-0.0147049
-0.0232782
0.00571281
-0.0374237
0.00601782
0.0411444
-0.0573616
-0.000676292
0.0289822
-0.0499674
0.0151545
0.0125734
-0.00994924
0.0169457
-0.0102648
0.0109253
-0.00250928
0.0189464
0.00786183
0.0113294
-0.0125635
0.0134914
0.00533163
-0.00622224
0.0013546
0.0112302
0.00490372
0.00102692
0.00271342
0.00129194
-0.00101766
0.00150385
0.00274767
-0.00487005
0.00383462
0.00205479
-0.00543415
-0.000472213
0.00216792
-0.00956631
0.00198781
0.00242042
-0.008219
-0.00368425
0.0020241
-0.0118685
0.00195168
0.00141988
-0.00891077
-0.0041796
0.000596957
-0.0112459
0.00214995
-0.000306477
-0.0073262
-0.00320266
-0.00134245
-0.00816412
0.00228916
-0.00187968
-0.00441056
-0.00171662
-0.00256992
0.0012976
-0.00256207
0.00398299
0.0117615
-0.0106217
0.0114426
0.00655532
-0.00942167
0.0129359
0.00889561
-0.00509592
0.0100001
0.0104954
-0.00250018
0.00416601
0.00947121
0.00101076
0.0126868
-0.00225367
-0.00216777
0.000819769
0.0150027
-0.00595737
0.00475701
-0.00327642
0.00208561
0.0148947
-0.00753013
-0.00308288
0.00321005
0.00743761
0.0102633
-0.00791074
-0.00268852
0.00324594
0.0119106
0.00167998
-0.00672311
-0.00198922
0.00110727
0.0161033
-0.000857798
-0.00442577
0.00749654
-0.000349268
-0.00528783
0.0111832
-1.09596e-05
-0.0103766
0.0125641
-0.00902687
-0.014245
-0.0141542
0.00841008
0.00569549
-0.0241048
0.00411578
-0.01854
0.0062371
-0.0164898
-0.0113997
0.00928037
0.00794402
0.00963322
-0.0341136
-0.0237649
0.00756891
0.0111804
0.0075121
-0.0100414
-0.0325046
-0.00917434
0.00778417
-0.00164125
2.91126e-05
0.00777978
-0.0065993
-0.0104471
0.0115032
-0.00763827
-0.0141638
0.0105404
0.0105439
-0.000824408
-0.00884213
0.010335
-0.00150199
0.00794967
-0.00780451
0.00389625
0.00106234
0.00460915
-0.0036755
0.00588232
-0.00631072
0.0139795
-0.0121421
-0.00354799
0.0108175
-0.0170302
-0.00264684
0.0057289
-0.0169716
-0.00101306
-0.00114863
0.00201842
-0.00821739
0.00833057
0.00967736
-0.00950305
0.0107917
0.0113192
-0.00496485
0.0114552
0.0119476
-0.00219586
0.0107134
0.00418671
-0.010862
0.011067
0.00290783
-0.00904713
0.0122096
-0.00216034
-0.00487181
0.0117928
-0.00473254
0.00977397
-0.00605227
0.00212455
0.00382026
0.00110963
0.00786971
0.0075486
-0.00158824
0.0109085
0.00879192
0.000291882
0.0075646
0.00642862
-0.00909013
0.0101452
-0.000285035
-0.00698867
0.00376708
0.00283494
0.000244473
0.00171778
-0.0014918
0.00505089
-0.0066218
-0.00148744
-0.00231908
0.0187695
-0.00345614
-0.0194522
0.0169857
-0.00139501
-0.00181069
-0.0162569
-0.0118636
-0.000780514
0.00324005
-0.0086707
-0.0106427
-0.0130691
0.00649328
-0.00595206
-0.00495322
0.000862205
0.00135901
0.000383219
-0.00208904
-0.0042487
-0.000991351
0.00396577
-0.00259279
-0.000417739
0.00180017
-0.00237516
0.00129821
-0.00380718
0.00674381
0.00068815
-0.011099
0.000647118
-0.00347826
0.0104226
-0.0034606
-0.0044592
-0.0189212
0.0139174
-0.0118148
-0.0194059
-0.0117634
0.00785103
0.00430483
-0.0265971
-0.0153653
0.00258253
0.00932439
0.0105386
-0.0355795
-0.0164451
0.0130775
0.00183496
0.0104128
-0.0422927
-0.0146097
0.00984284
8.63777e-05
0.0112903
-0.0436667
-0.0107744
0.00324477
-0.00152861
0.0103279
-0.0431652
-0.00615929
-0.00149293
-0.00183998
0.00888081
-0.0394876
-0.00333511
-0.00450196
0.00406541
-0.0347417
-0.00116808
-0.00711447
0.00648182
-0.00305319
-0.0321814
0.00136557
-0.00612001
0.00560528
-0.00351309
-0.0291371
0.00268766
0.00447518
-0.00400072
-0.00630923
-0.0289401
0.00209753
0.00396043
-0.00357549
-0.00279152
-0.0298492
0.000235849
0.00179976
-0.00123359
-0.027795
-0.00156127
0.00134803
-0.00195462
-0.0230085
-0.0025988
0.00152595
-0.00380996
-0.0302042
0.00168752
0.0226559
-0.0172233
-0.0593542
0.0293344
-0.0128734
0.0123158
0.00608388
-0.0199397
-0.00127788
-0.0131716
-0.0252146
-0.00926443
-0.0122624
-0.000458934
-0.00877581
-0.0111687
0.000647196
0.000277695
-0.00944118
-0.000545949
0.00050167
-0.00581451
-0.00373442
0.00144885
-0.0031138
-0.00398207
0.00104215
-0.00453466
-0.000265751
-0.00445643
0.000808507
-0.000933973
-0.00684113
0.00205249
0.000269018
-0.0107832
0.00221122
0.00165127
-0.0130967
0.000820647
0.00141426
-0.0133657
-0.00034986
0.000549025
-0.0130765
-0.00174742
0.00140422
-0.0236496
0.0014255
0.00907292
-0.0568543
0.0175146
0.0154833
-0.101306
0.00886491
0.0350135
-0.117973
-0.00586639
0.0218399
-0.127337
-0.0115873
0.0201766
-0.133776
-0.0164876
0.0220922
-0.137441
-0.0221846
0.0249651
-0.138775
-0.0272653
0.0276884
-0.138699
-0.0307619
0.0297621
-0.137886
-0.0329232
0.0311851
-0.136428
-0.0341723
0.0317982
-0.134285
-0.034814
0.0317693
-0.130452
-0.0353152
0.0306102
-0.122487
0.0278223
-0.0366205
-0.10334
0.0207853
-0.0406922
-0.0534949
0.00328779
-0.0537512
-0.022629
-0.00124253
-0.0298423
-0.0123891
-0.00429128
-0.0060259
-0.0121111
0.00198839
-0.00232144
-0.011211
0.00432695
-0.00529778
-0.00877413
0.0038407
-0.00635807
-0.00425805
0.00400633
-0.00860676
-0.00479199
0.00347184
-0.00300913
-0.00806023
-6.57147e-05
0.00328313
-0.00782237
0.00235378
-0.00266281
-0.00893092
0.00102075
-0.0138025
0.00698618
-0.00221321
-0.0166386
0.00715285
-0.00442669
-0.0189176
0.00764862
-0.0054722
-0.0237771
0.00700691
-0.00225211
-0.0533339
0.0187424
0.0106179
-0.0979777
-0.00807412
0.0521443
-0.110985
-0.0316726
0.0439589
-0.11245
-0.0418263
0.0424806
-0.107747
-0.0476689
0.0421442
-0.0989449
-0.052135
0.0424756
-0.0862222
-0.0543481
0.0408009
-0.069206
-0.0558426
0.0380065
-0.0494056
-0.0568105
0.0362441
-0.0236888
-0.0481192
0.0217657
-0.0376646
0.0135372
-0.0534968
0.0231466
-0.00778158
-0.0592734
0.0253431
-0.0200693
-0.0593212
0.0266751
-0.0271535
-0.0502906
0.0264645
-0.0360213
-0.0402062
0.0243907
-0.0349779
-0.0230361
0.0165752
-0.0342124
0.00942307
-0.0328979
0.0272359
0.0380786
-0.0565282
0.0510042
0.0494651
-0.0739993
0.0748933
0.0495691
-0.0742779
0.0950977
0.0498058
-0.0708346
0.110868
0.0470217
-0.0636482
0.119104
0.0397131
-0.0487719
0.117076
0.0329519
-0.0317343
0.101366
0.0300823
-0.0150922
0.0545613
0.0398908
0.00634035
0.0254999
0.025071
0.00379403
0.0213867
0.00418295
-0.000174472
0.0194731
0.000590931
0.00122015
0.0158928
0.000299593
0.00317079
0.0091475
-0.000248295
0.00689506
-0.000923261
0.00998298
-0.000965487
-0.00972454
0.00967102
0.000726699
-0.0131179
0.0113168
0.00257384
-0.0142494
0.0122791
0.0040838
-0.013582
0.0119365
0.00433675
-0.0191813
0.0187504
0.00786906
-0.0286644
0.024847
0.00384789
0.0236504
-0.0199129
-0.000176154
0.0169225
-0.0130776
-0.000376115
0.00844752
-0.00838322
-0.000536302
0.00775433
-0.00771734
-0.00108228
0.00738039
-0.00694339
0.00632118
-0.00647849
0.00342898
0.0054631
-0.000279666
0.00320169
0.00620054
0.00133508
0.0032953
0.00592492
0.00165807
0.00396219
0.0047911
0.0029113
0.0103226
0.0116261
-0.00116963
0.0194316
-0.0090324
-0.000122148
0.0090886
-0.00421937
0.0145217
-0.0230952
-0.0114349
0.0435488
-0.0155455
-0.00576272
-0.00186548
-0.000984113
0.0035895
0.00487222
-0.00946156
0.00606004
-0.00260344
0.00361244
-0.00178669
-0.00827925
0.00042825
-0.00919432
-0.0102642
-0.0126565
0.0184634
-0.00486258
-0.0307751
0.00323735
0.00367169
0.00406017
-0.0176021
-0.0497318
0.00588879
0.010163
0.000832277
-0.058224
-0.0156994
0.0262314
-0.00423939
-0.0204227
0.00617557
-0.00326004
-0.0203092
0.00561535
-0.0022767
-0.0206686
0.00531125
-0.000901924
-0.0190471
0.00444185
-0.0150061
0.00403459
-0.0211508
0.00227053
0.00404894
-0.0219673
-0.00134571
0.00263898
-0.0179084
8.61548e-05
0.00544305
0.00165468
-0.0466367
0.035485
0.00831349
0.00806513
-0.115182
0.0350883
0.0515328
0.0209233
-0.125279
0.0473369
-0.00801191
-0.126118
0.0548027
-0.0218779
-0.118278
0.0645492
-0.0335533
-0.103323
0.0731863
-0.0420013
-0.0841971
0.0768981
-0.047086
-0.0615819
0.0746556
-0.0485409
-0.036687
0.074299
-0.0505427
0.050406
-0.0330067
0.0588516
0.0458128
-0.0304751
0.0684401
0.0517094
-0.0354584
0.0687378
0.0528707
-0.0271183
0.0633301
0.0506033
-0.02046
0.043909
-0.00611899
-0.0881844
0.0718808
0.00258814
-0.0979829
0.0755104
-0.0160173
-0.099495
0.0799623
-0.0265218
-0.0881688
0.0791883
-0.0397474
0.0719087
-0.0408743
0.0879946
0.0945213
-0.0368425
0.0976247
0.10171
-0.0330814
0.0944855
0.101127
-0.0189547
0.0819128
0.0960691
-0.0088769
0.0903591
0.00675255
-0.081261
0.103468
0.0129364
-0.094473
0.110565
-0.00220524
-0.0983673
0.116055
-0.0119955
-0.0904678
0.116954
-0.0241038
0.111509
-0.0314785
0.0870141
0.124374
-0.0276288
0.094679
0.128397
-0.0200847
0.0912592
0.126524
-0.00802567
0.0783334
0.120413
0.00214177
0.112155
0.0166289
-0.0724625
0.116735
0.0193372
-0.0844054
0.125516
0.0059019
-0.086743
0.132123
-0.00424102
-0.0788255
0.134543
-0.0150427
0.131487
-0.0223273
0.0682282
0.13218
-0.0150543
0.0761209
0.134907
-0.00923435
0.0750285
0.131294
0.000945057
0.0640864
0.124865
0.0106567
0.115546
0.0225823
-0.0525923
0.105822
0.0297883
-0.0646379
0.116415
0.0195522
-0.0641981
0.120021
0.00986998
-0.0562599
0.12546
0.000545062
0.126363
-0.00404902
0.0351777
0.0191988
0.0614295
0.0447059
0.0514674
0.0948128
0.013483
0.0547724
0.0925645
0.0232762
0.0357451
0.0483306
0.0452619
0.040911
0.0445353
0.0365415
0.0515248
-0.012301
0.0268584
0.015389
0.0143727
-0.0187353
0.0276821
0.0150921
-0.0152953
0.031162
0.0135252
-0.0135434
0.0290812
0.0142198
-0.0400065
0.0275744
0.0408089
-0.000800046
0.0248955
-0.0284253
-0.0082833
0.0385482
0.00581042
-0.0370754
-0.00680575
0.0299979
0.00549186
-0.0371438
-0.00459447
0.0291157
-0.0365952
0.00509833
0.0259053
0.00347764
0.00381731
0.00515737
0.00493288
0.00716084
0.00681966
0.0076227
0.00905561
0.00894508
0.00840603
-0.00416157
-0.0199757
0.0157038
0.00266953
-0.00060681
0.000596678
0.00625551
0.00290299
0.000299731
-0.000537234
0.000357165
0.00409505
-0.00155409
-0.00244176
-0.0013265
0.00412125
-0.0016541
-0.000491578
0.00117464
0.0106108
0.0121054
0.0316584
-0.0532892
0.00539197
0.017829
-0.00425509
-0.00731291
0.0569152
0.00124648
-0.0150806
0.00285112
0.00351793
-0.00655954
0.00505484
0.0039942
-0.00621263
-0.0222352
0.00972645
0.0175233
-0.00940122
-0.0125594
-0.000318242
0.0179669
-0.00257498
0.0239429
-0.00791786
0.0463362
-0.0127365
0.0215384
0.0767271
-0.0246395
-0.0327871
0.00454163
0.00706318
0.0298111
0.00208543
-0.0175808
0.00801433
0.0136824
-0.00405727
-0.0106687
0.00844903
0.0149904
-0.00405312
-0.0114786
0.00755492
0.0144704
-0.00237692
-0.0113059
0.00612138
0.0128251
-0.0104576
-0.00103259
0.00367251
0.0105596
-0.00881959
0.000621525
0.00875814
-0.00792586
0.0027598
0.00846223
-0.00315344
0.00337865
0.00806096
-0.0028024
0.0031486
0.0152357
-0.00810158
0.000849603
0.0393785
-0.0159788
-0.00838279
0.0730075
-0.0389325
0.00468494
0.0831061
-0.027641
0.0167831
0.084671
-0.0234959
0.0210971
0.0821178
-0.0202496
0.0219302
0.0769301
-0.0158473
0.0201321
0.0700315
-0.00877839
0.0147586
0.060708
0.00159669
0.0067988
0.0422307
0.0172944
0.000255099
0.0151402
0.0412034
-0.0150308
-0.00507577
0.0551344
-0.0358208
-0.00165602
0.050315
-0.0546065
0.0122317
0.039246
-0.0539667
0.0153682
0.0263889
-0.0302838
0.00945607
0.0286659
-0.0233711
0.00203238
0.0112154
-0.00400996
0.000327128
0.00375053
-0.00212224
-0.000514516
0.00174112
-0.000954048
-0.00214873
0.00323246
-0.00166777
0.00312823
-0.00227844
0.0032842
0.00518725
-0.00148537
0.000332127
0.00654582
-0.000436709
0.00222182
-0.000170127
0.0065276
-0.000583901
0.00182665
0.00589078
-0.00388843
0.00258582
0.00577443
0.00613784
0.000958522
0.0117896
0.0169969
-0.0110494
0.0157233
-0.0107289
0.023701
0.024301
-0.0304619
0.0434327
0.0146273
-0.0449559
0.0504824
0.0133914
-0.0632722
0.0461158
0.0263826
-0.0790022
0.0291347
0.0268336
-0.0899653
0.00744088
0.0198441
-0.0954282
-0.00872955
0.0148162
-0.0987983
-0.0209127
0.0145382
-0.100988
-0.0294466
0.014835
-0.101172
-0.0351727
0.01417
-0.0977897
-0.0395138
0.0117144
-0.0889066
-0.0439058
0.00647337
-0.0319926
-0.0406742
-0.0447406
-0.011415
-0.0184804
-0.0104213
-0.0192415
0.00260685
-0.0154197
-0.007099
0.0013182
-0.00578333
0.000259712
-0.00946458
0.000857111
-0.00379105
0.00165618
-0.00747571
0.00098567
-0.00880246
0.0158721
-0.000181055
-0.00794636
0.0158761
-0.00184204
-0.00613888
0.0139587
-0.00216521
-0.00199184
0.0198395
0.00568339
0.0204329
0.107217
-0.0444336
-0.00960742
0.00400039
0.0307158
0.00545088
0.00761557
0.0105393
-0.000247895
0.00842683
0.0143184
0.000667724
0.0151818
0.00192812
-0.0162435
-0.0198148
-0.0126614
0.0309104
-0.0203063
0.0463868
-0.0178972
-0.0510391
0.107151
-0.0246625
-0.0520543
0.12211
-0.0150429
-0.104621
-0.0443228
0.125914
-0.0301893
-0.0753858
-0.0285672
-0.0173531
-0.0288753
-0.0142583
-0.00279203
-0.0403825
0.0170397
-0.00205224
-0.0241726
-0.00525971
0.028014
-0.00539535
-0.00853044
0.0164001
-0.00781228
-0.00928218
0.0145379
-0.0061585
-0.00943783
-0.011842
-0.00269595
0.0502401
-0.0212684
-0.0125968
-0.00607306
0.000617263
-0.0119393
-0.00844423
-0.000107064
-0.00875412
-0.00710322
-0.00156968
-0.00499083
-0.00433945
-0.00157577
-0.000134786
-0.0007366
-0.00372716
-0.000458561
-0.00988927
-3.60729e-06
0.00044184
0.00127845
-0.00169214
0.00137819
-0.00205739
0.00335233
0.00175418
-0.00263316
0.00438117
0.00206268
-0.00196737
0.00372553
0.00175605
0.00267753
0.000706325
0.00449113
0.00264429
-0.00105496
0.00468206
0.00385738
-0.000398547
0.00453394
0.00493296
-0.000484715
0.00483006
-0.000744399
-0.00633132
0.0108889
-0.00417746
-0.0061734
0.0109141
-0.00625075
-0.00531618
0.0100681
-0.00717343
0.00902355
-0.00778033
0.00655597
0.0118857
-0.00566474
0.00797482
0.013617
-0.00506645
0.00815231
0.0151402
-0.00451011
0.0149453
-0.00311383
-0.00916765
0.0168884
-0.00132008
-0.00929793
0.0178948
-0.00273048
-0.00964892
0.0177919
-0.00392834
0.010493
-0.00400585
0.012875
-0.000415372
0.0102292
-0.00167431
0.00748202
0.0233199
-0.00289408
0.00733078
0.0183304
-0.000374429
0.0173229
0.000744573
-0.00880338
0.0485279
-0.0252297
-0.00517298
0.0422291
-0.0276737
0.0450545
-0.028322
0.0293062
0.117835
-0.0575531
0.127706
-0.0450622
0.0506954
0.135155
-0.0386118
-0.0205786
0.0553335
0.135099
-0.014939
0.0519661
0.130361
-0.00599883
0.115536
-0.00137019
-0.0501761
0.120008
0.00516925
-0.0558859
0.135341
-0.00035382
-0.0534248
0.141028
-0.00947311
-0.0447904
-0.014605
0.140106
-0.128399
-0.0232924
0.133802
-0.0292991
-0.0128355
-0.0511328
-0.114561
0.0286253
0.119542
-0.106207
-0.0667698
0.118533
-0.0384565
-0.0495973
-0.0680713
-0.00481959
0.0138604
-0.0135211
-0.0193613
-0.0195885
-0.00999905
-0.00603521
-0.01314
-0.00290832
-0.014032
-0.00405923
0.0025752
-0.0144061
-0.00817321
0.00316924
-0.0127639
-0.010612
0.00252508
-0.00981488
-0.0145023
0.00285618
-0.010743
0.00113969
-0.0137887
0.0160737
-0.0137338
0.000609705
-0.00948393
-8.15253e-05
-0.0153534
0.0144887
-0.00158054
-0.0167578
0.0116626
-0.00271391
-0.0180418
0.00966584
-0.00145899
0.0149562
-0.0254695
0.01109
0.0252221
0.0187236
0.0207346
-0.0498604
0.0188652
0.0161691
0.0178281
-0.0277719
0.0305858
0.0160509
0.0191703
-0.0470775
0.0213756
0.0134243
-0.0227355
0.018393
0.039289
-0.0422107
0.00893082
0.0152658
0.0201019
0.0463835
-0.0101194
-0.0171784
0.0253824
0.0301528
-0.0202648
-0.0152967
-0.0172461
-0.0206267
0.00991028
-0.0182778
0.00381847
-0.0127795
-0.0179654
0.00437341
-0.0172536
-0.0122872
0.00330473
-0.0161421
-0.0141015
0.00227949
-0.0167741
0.00209642
-0.0176778
-0.0170548
0.0174692
0.000372694
-0.0162681
-0.000772891
-0.0183767
0.0156503
-0.00199118
0.0130147
-0.00309195
0.0175512
0.0143364
-0.00279084
0.0174457
-0.00140766
0.0164775
0.0182575
-0.0170289
-0.0003656
0.0184064
0.00133177
-0.0151175
0.0028585
-0.0154822
0.00100937
0.0175165
-0.0154205
-0.0012027
0.014489
-0.00214709
-0.00753144
-0.0160321
0.023607
0.0168596
-0.00150898
-0.0143974
-0.0171616
-0.0262242
-0.0242864
-0.0025883
-0.105279
0.103942
0.00754947
0.00121046
0.0182444
0.0127088
0.0239188
0.0146956
-0.0202717
0.0176482
-0.00846564
0.0179662
-0.0122493
-0.00477501
0.00235945
-0.000511947
-0.00555262
0.00485045
-0.00582632
-0.00170898
-0.00210776
-0.00217547
-0.003793
0.0131656
-0.000991208
-0.0031628
-0.00140392
-0.00338426
0.0163881
-0.020082
-0.0115701
0.0154809
0.00689092
-0.0116114
0.0176144
0.00912337
-0.0132781
0.0202353
0.00894363
-0.0142156
0.0229953
0.00892755
0.0302292
0.0120106
0.00990274
0.0135094
0.0125157
0.00949807
0.0132926
0.00992814
0.00785958
0.0119386
0.00976436
0.00608273
0.0108116
0.00842556
0.0100043
0.00700772
-0.00221313
0.00342896
-0.00262795
0.00417046
-0.00329815
0.0047668
-0.00393411
0.00541273
0.00652288
0.0016634
0.00290848
0.00142879
0.000512376
0.000411067
0.00139674
-0.000146866
0.00198975
-0.00155067
-3.09615e-05
-0.000932077
0.00195546
0.000962928
-0.000328663
0.000790531
-0.00043146
0.00183045
-0.00111767
0.0012167
-0.000533604
0.00031224
-3.59062e-06
0.0020277
-0.00174921
3.04537e-05
0.00379742
-0.000557434
-0.00359941
0.0111689
-0.00639835
0.00358999
-0.0180526
0.00335642
0.0170853
0.00389905
-0.0181565
0.0204597
0.00715764
0.002944
0.00677639
-0.017088
0.0208734
0.000293598
0.00596464
0.0198186
-0.0148539
-0.013631
0.0142047
0.00503387
0.0109932
-0.00739471
0.0172004
-0.00766413
0.0172943
0.010912
-0.000414386
0.0200031
0.00718257
0.00333811
-0.00115393
0.00152983
-0.00352367
0.000372519
-0.0022939
0.0126139
0.00135521
-0.00233903
0.000786028
0.000620254
-0.000777861
0.00151098
-0.00056844
0.00155952
-0.000393392
-0.00124247
0.00106615
-0.00207104
0.000898305
-0.000210961
-0.000224532
-0.00163704
-0.000454411
-0.00209757
0.000247826
-0.00185815
0.00140423
-0.00138234
0.000391016
0.000112164
-0.00188678
0.000171188
-0.00141863
-0.00065994
-0.00126838
-0.00240778
0.00114999
0.00124006
0.000226171
0.000471296
-0.00130064
0.000447934
-0.00168363
-0.000479967
0.000537732
0.000388653
0.000110002
6.78479e-05
-0.000659168
0.00104453
0.000303793
0.00031185
-0.000893706
-0.00161362
0.00281577
-0.000776152
0.000268447
0.000180526
-0.000891237
-0.00113225
0.00380656
0.00137596
-0.000362181
-0.0030352
0.0122949
-0.00265273
-0.00129683
-0.00174997
7.52683e-06
-0.000831065
0.000257393
-0.000726093
0.000330625
-4.27673e-05
-0.00112129
-4.65032e-05
0.00188449
-0.00030812
-0.00162619
-0.00132507
0.00321276
-0.000895642
-0.000175175
-0.00124907
0.00111807
0.00204543
0.000343987
0.000324983
0.00092238
-0.000131868
0.00191745
-0.00142167
-0.000174146
-0.00137286
0.00320514
8.07997e-05
-0.00064985
0.000196193
0.00286595
-0.00405955
0.0133268
-0.00111769
-0.0180678
0.000730477
0.00705615
0.0245833
-0.0164945
0.0219346
0.00640671
-0.0177818
0.0226183
-0.00211076
-0.0149099
-0.00439941
-0.0206984
-0.0218772
-0.00632507
-0.0219083
-0.00574039
0.0151746
-0.00262061
0.0198065
0.03181
0.0374758
-0.0236222
-0.101175
0.066647
-0.096781
0.0701077
-0.107868
0.0713184
-0.0171168
-0.110112
0.068727
-0.0248783
-0.106644
0.067469
-0.0296833
-0.098144
0.0662912
-0.033217
-0.0860199
0.0636046
-0.0358221
-0.0685603
0.0576179
-0.0379546
-0.0487137
0.0531666
-0.0376695
-0.0385558
0.0425547
-0.0316942
0.00457144
-0.0300014
0.0173011
0.0321136
-0.0455108
0.0148508
0.0448455
-0.0430627
-0.00704631
0.047952
-0.0264662
-0.0341856
0.0267006
-0.0509669
-0.0129561
0.0292702
-0.0597298
-0.0245121
0.0327721
-0.0621305
-0.0309943
0.0328687
-0.0557874
-0.0381737
0.0313044
-0.0477899
-0.0352437
0.0267434
-0.0303875
-0.0335404
0.0156708
0.00321736
-0.0340436
0.0201027
0.0445817
-0.0621038
0.0428563
0.0555961
-0.0791158
0.0681065
0.0548743
-0.0809444
0.0881005
0.0524182
-0.0732368
0.0991292
0.0478219
-0.0597072
0.099851
0.0401504
-0.0416944
0.0938012
0.0342821
-0.0290427
0.081774
0.0311073
-0.0198004
0.0462666
0.0378327
-0.00289882
0.0223261
0.0228274
0.00091676
0.0192217
0.00393519
-0.000935555
0.0178682
0.000530343
0.000720357
0.0146977
0.000155141
0.00290507
0.00845634
1.83865e-05
0.00612399
0.00902263
-0.000653905
0.00708775
0.00353835
-0.0016741
0.00448531
0.00387583
-0.0013205
0.0046955
0.00174722
-0.00202021
0.00563666
0.00195366
-0.00297367
0.00532378
0.00312771
-0.00289264
0.00418392
0.00338521
-0.00231491
0.0031836
0.00271531
-0.0017696
0.00521636
0.00166626
-0.00377603
0.0100766
0.00246002
-0.00753875
-0.0240933
0.0330848
0.000467179
-0.0509194
0.0235798
0.00248737
-0.0636534
0.0116822
0.000217941
-0.067171
0.00090926
0.00173552
-0.0691928
-0.0130661
0.0141836
-0.0733454
-0.0283304
0.031561
-0.074376
-0.043693
0.0437865
-0.0717187
-0.0576949
0.0540926
-0.0618464
-0.0703626
0.0595383
-0.0442685
-0.0804474
0.0619124
-0.0169694
-0.0869612
0.0586989
0.016784
-0.0829458
0.0482316
0.0322195
-0.0574777
0.041081
0.0313987
-0.0443234
0.0442219
0.0238154
-0.0348307
0.0415107
0.00986877
-0.025946
0.0390655
-0.00065597
-0.0231566
0.0328796
-0.0350034
0.0335982
-0.0504697
-0.0197441
0.0344125
-0.0575983
-0.0345208
0.0408388
-0.0580545
-0.049327
0.0489086
-0.0495398
-0.0643493
0.0549595
-0.0257091
-0.0818472
0.0571178
0.00433975
-0.0833552
0.0524304
0.00986046
-0.0476051
0.041219
-0.00743442
-0.0268798
0.0433648
-0.0206812
-0.028603
0.041064
-0.00460021
-0.0603157
0.0434966
-0.0521359
0.0430469
-0.0149898
-0.0689077
0.00180766
0.0182982
-0.0551013
-0.0393872
0.0283866
-0.0398896
0.000322871
0.0322462
-0.0484223
0.0167887
0.0307565
-0.0783665
0.0313271
0.0413515
-0.126857
0.0319681
0.0545223
-0.123677
0.0277141
0.057076
-0.0964934
0.0286593
0.0519908
-0.0730129
0.0278655
0.0414484
-0.0521049
0.0272665
-0.0305071
0.0282321
-0.0372383
-0.0469228
0.0268372
-0.0392659
-0.0563044
0.022572
-0.0335171
-0.0673038
0.0162613
-0.00500584
-0.082692
-0.00429489
0.0353928
-0.118036
-0.00631369
0.0605932
-0.124482
0.0113145
0.0751553
-0.117986
0.0219753
0.0817762
-0.103292
0.0253129
0.0808341
-0.0843451
0.0266025
0.0768813
-0.0633246
0.0226021
0.0700438
-0.0413955
0.0189309
0.0659742
-0.0196803
0.00972572
0.0607909
0.000569474
0.00458166
0.0487985
0.0159709
0.00677718
0.0253673
0.0325964
0.0134985
-0.00780064
0.00287038
0.0459837
0.0164131
0.00843423
-0.0029606
-0.00889984
-0.00452831
0.0153105
-0.00205346
-0.00208895
0.0107766
-0.00161568
0.00550635
0.000514968
0.0152506
-0.000138409
-0.00770958
0.0032727
-0.00658511
0.0269012
0.00350444
-0.00867058
-0.00766059
-0.000632485
0.00151991
-0.00793174
-0.00289292
0.00147323
-0.00656183
-0.00415182
0.000646111
-0.00490546
-0.00508215
0.000383745
0.00197617
-0.00370613
-0.000514442
0.00461368
-0.000994539
-0.00187836
-0.000323022
-0.000338952
-0.00122032
-0.000715925
-0.000603677
-0.000573764
-0.000553406
0.000408679
-0.00107559
-0.00330288
0.0130283
-0.00545262
-0.0117655
0.00300138
0.0227302
-0.00765089
-0.00976127
0.065378
-0.0312615
-0.0291307
0.0172292
0.0638741
-0.024854
0.0279374
0.0496985
-0.0197453
0.0332174
0.01329