/*--------------------------------*- C++ -*----------------------------------*\
| =========                 |                                                 |
| \\      /  F ield         | OpenFOAM: The Open Source CFD Toolbox           |
|  \\    /   O peration     | Version:  v2012                                 |
|   \\  /    A nd           | Website:  www.openfoam.com                      |
|    \\/     M anipulation  |                                                 |
\*---------------------------------------------------------------------------*/
FoamFile
{
    version     2.0;
    format      ascii;
    class       volScalarField;
    location    "505";
    object      k;
}
// * * * * * * * * * * * * * * * * * * * * * * * * * * * * * * * * * * * * * //

dimensions      [0 2 -2 0 0 0 0];


internalField   nonuniform List<scalar> 
18258
(
0.0334803
0.0157785
0.0123206
0.0101693
0.0109895
0.0139956
0.016794
0.0211625
0.0255844
0.0315254
0.0385961
0.0475311
0.0535354
0.0606908
0.0636603
0.0619311
0.0520523
0.0473014
0.0564664
0.0809683
0.0710823
0.0513994
0.0623442
0.061502
0.0722327
0.076308
0.0600669
0.054855
0.0494395
0.0437541
0.0371871
0.0230067
0.024101
0.0288735
0.0320824
0.03579
0.0386418
0.0409615
0.0426205
0.0434366
0.0433398
0.0420431
0.0393544
0.0353272
0.0298864
0.0239343
0.0237008
0.0236732
0.0293683
0.0350234
0.0405016
0.0461107
0.054537
0.0446479
0.0290382
0.0391805
0.0476484
0.0545369
0.0589678
0.0614225
0.0621919
0.0612841
0.058999
0.0557432
0.051785
0.0474484
0.0434327
0.0394489
0.0342075
0.030948
0.0268383
0.0234953
0.0210562
0.0193446
0.0182265
0.0172222
0.0163558
0.0156219
0.0150057
0.0145816
0.0144896
0.0145149
0.0146142
0.0147094
0.0150508
0.012704
0.0109335
0.0104652
0.0102091
0.00955738
0.00810112
0.0106519
0.0117544
0.0121706
0.0124399
0.0136166
0.0147783
0.0143581
0.0136327
0.0125177
0.0125831
0.0170453
0.0178171
0.0228602
0.0216855
0.0168786
0.0148769
0.0166635
0.0194968
0.0225292
0.0192474
0.0192271
0.0179318
0.0170261
0.0148831
0.0149232
0.0144119
0.014106
0.0150262
0.0177811
0.0171907
0.0173006
0.0185212
0.0188446
0.020071
0.0210887
0.0204347
0.0202535
0.0164047
0.0163053
0.0173466
0.0172209
0.0177006
0.0201911
0.0202486
0.0205957
0.0208132
0.0236009
0.0236195
0.0235855
0.0236767
0.024518
0.0235533
0.0231401
0.0231682
0.0232038
0.0210366
0.0208128
0.0204471
0.0204848
0.0183221
0.0175865
0.0183173
0.0192967
0.0212713
0.0250214
0.0314572
0.0403797
0.050475
0.0607149
0.0684824
0.0728351
0.077197
0.0766494
0.0773456
0.0794364
0.0798023
0.0786584
0.0768056
0.0746403
0.0716855
0.0670467
0.0665587
0.0589156
0.0480479
0.0333813
0.0388709
0.0417032
0.0444576
0.044774
0.0452669
0.0440708
0.0423303
0.0387592
0.033666
0.0247757
0.0257136
0.0301634
0.0348316
0.038623
0.0427903
0.0464297
0.0482904
0.0500039
0.0593677
0.0571043
0.0551956
0.0568889
0.0584503
0.0616556
0.0600844
0.0561454
0.0501787
0.0518196
0.0449211
0.0335642
0.0313516
0.0292338
0.0269798
0.0378821
0.04967
0.0611756
0.0674747
0.0736043
0.0784116
0.082415
0.0869181
0.08148
0.0763508
0.0576812
0.0836964
0.0656476
0.0504303
0.0411168
0.0331606
0.0316991
0.0344308
0.0344574
0.0326355
0.0280813
0.0220639
0.022961
0.0358143
0.0456041
0.0536071
0.055184
0.0598776
0.0622963
0.0570263
0.0576015
0.0467773
0.0479863
0.0514061
0.0460006
0.043738
0.0351216
0.0274165
0.0335694
0.0499369
0.068504
0.0843448
0.0993393
0.0658809
0.0500883
0.0410132
0.0341692
0.0330339
0.0376717
0.0436159
0.0527736
0.0412088
0.0371403
0.0336183
0.0307391
0.025834
0.0275622
0.0287916
0.0269574
0.0498466
0.057335
0.0609993
0.0833957
0.0923137
0.10824
0.106916
0.0924901
0.0961775
0.0689917
0.0687026
0.0859987
0.068107
0.0512792
0.0615448
0.0744738
0.0883263
0.101524
0.112863
0.121964
0.123648
0.112139
0.0812994
0.046807
0.0212929
0.0186379
0.0180833
0.0173761
0.0164906
0.0156988
0.0150798
0.0121393
0.00950872
0.00928137
0.00945956
0.00940409
0.00826624
0.00951545
0.0115782
0.0137712
0.0152801
0.0164899
0.0175107
0.0182456
0.0188345
0.0192334
0.0195305
0.0197987
0.0200349
0.0202216
0.0203605
0.0204521
0.0204952
0.0204816
0.0204047
0.0202632
0.0200554
0.0197654
0.0192897
0.0177575
0.0159054
0.0150784
0.0151375
0.0148879
0.0145861
0.0119514
0.0123235
0.0143439
0.0149762
0.0177661
0.0198007
0.0215026
0.0229551
0.0244797
0.0252543
0.0260799
0.0263426
0.0263919
0.026288
0.0261337
0.0259045
0.0255961
0.0245265
0.0212841
0.0248868
0.0272815
0.028973
0.0303279
0.0312351
0.0313378
0.0285848
0.0360728
0.0385271
0.0394301
0.0396952
0.0388769
0.0368705
0.0344273
0.0323763
0.0308694
0.0297523
0.0276098
0.0253626
0.0230536
0.0206384
0.0174171
0.0186882
0.0205236
0.0207335
0.0204428
0.0214879
0.0227471
0.0210929
0.0190018
0.0161146
0.0151175
0.0146289
0.0144406
0.0148489
0.0145032
0.0143997
0.0148967
0.0179066
0.0190003
0.0207006
0.0239578
0.0228253
0.0208824
0.0280535
0.0296641
0.0301119
0.0304603
0.0303678
0.0296108
0.0265353
0.0250789
0.0264651
0.025008
0.0243772
0.0244666
0.0240993
0.0222363
0.0245364
0.026537
0.0281279
0.0289758
0.0302134
0.0317676
0.0339277
0.0357208
0.0373791
0.0383814
0.0383573
0.0378161
0.0379906
0.0386318
0.0383031
0.0366146
0.0345425
0.0324546
0.0294975
0.0293263
0.0312935
0.0328514
0.0345089
0.0362836
0.0356065
0.0337183
0.032095
0.0306795
0.028976
0.0288594
0.0305296
0.0319687
0.0337054
0.0358271
0.0360092
0.0338645
0.0320471
0.0305465
0.0288493
0.0288191
0.0305145
0.0320241
0.0337474
0.0356378
0.0347693
0.0332966
0.0317745
0.0303092
0.0286491
0.0282132
0.0298134
0.0311938
0.0325073
0.0335738
0.0319006
0.03131
0.0302405
0.0288531
0.0270983
0.025844
0.0263522
0.0277376
0.0278484
0.028327
0.0294443
0.0292904
0.0290078
0.0289636
0.028682
0.0264363
0.0268435
0.0268918
0.0275835
0.0308791
0.0303993
0.0330679
0.0354767
0.0331698
0.031684
0.0281212
0.0336764
0.033718
0.0346758
0.0335031
0.0237394
0.0218872
0.0228882
0.0244196
0.0260581
0.0253696
0.0226198
0.0225479
0.0231484
0.0225602
0.020999
0.0180198
0.0135439
0.013553
0.0135445
0.014278
0.01708
0.0186804
0.0187939
0.0186404
0.0183392
0.017868
0.0171515
0.0160804
0.0156248
0.0246376
0.0446517
0.0564249
0.0558304
0.0424581
0.035543
0.02619
0.0180055
0.0106203
0.0107396
0.0113821
0.0137332
0.0115737
0.0105548
0.0145551
0.0118245
0.0197503
0.0229183
0.0302543
0.0413174
0.0398803
0.0302724
0.0204406
0.0184553
0.0193187
0.0198338
0.0202208
0.0206013
0.0209849
0.0214011
0.0219068
0.0215744
0.0189428
0.0167026
0.0168278
0.0173987
0.0198998
0.0212793
0.0220737
0.0217456
0.0219998
0.0237208
0.0224757
0.0212458
0.0210352
0.0203284
0.0231678
0.0235166
0.022894
0.0229039
0.0231842
0.0230667
0.0231973
0.024001
0.0198061
0.0219188
0.022469
0.0227521
0.0235461
0.019049
0.0192375
0.0193006
0.0181456
0.0148836
0.0180123
0.0167706
0.0121599
0.0134748
0.01344
0.0140526
0.0143786
0.0171247
0.0162884
0.0155616
0.0163231
0.0223007
0.0231094
0.0232886
0.0206473
0.0194031
0.0218915
0.0224801
0.0220206
0.0211339
0.0212993
0.0203556
0.0184531
0.0177338
0.017871
0.0192823
0.0200802
0.0201479
0.0237585
0.0232575
0.0216955
0.0226941
0.0232882
0.0228815
0.0227726
0.0227185
0.022346
0.0219264
0.0223402
0.0225288
0.0225811
0.0221403
0.0223898
0.0250276
0.0214724
0.0212793
0.0201926
0.0195332
0.0179025
0.0176495
0.0177476
0.0177073
0.0176124
0.0167737
0.0186336
0.0179063
0.0200416
0.0216555
0.0228079
0.0239803
0.0241308
0.0237015
0.023662
0.0232781
0.0232445
0.0226939
0.0218462
0.0212606
0.0204834
0.0192731
0.0192654
0.0192156
0.019071
0.0204779
0.0203763
0.021943
0.023065
0.0227798
0.0218128
0.0217048
0.0205263
0.0205038
0.021547
0.0224379
0.0226873
0.0235484
0.0260769
0.0237359
0.0252874
0.0259863
0.0266481
0.0260375
0.0249409
0.0256897
0.0240273
0.0229141
0.0242316
0.0249541
0.0262145
0.0270089
0.0250316
0.0240037
0.0228074
0.0219452
0.0209602
0.0184359
0.0190472
0.0198361
0.0210671
0.0228819
0.0256026
0.0283373
0.0312569
0.0313127
0.0290148
0.0273181
0.0321162
0.031592
0.0365628
0.0371622
0.0330409
0.0302396
0.0273288
0.0269037
0.0259849
0.0254501
0.0241759
0.0254258
0.0258506
0.0249047
0.0273729
0.0289443
0.0332745
0.0388353
0.0355005
0.0326722
0.0377264
0.0366416
0.0426042
0.0363876
0.034729
0.0285911
0.0331939
0.0355482
0.0432907
0.0338867
0.0297053
0.0294806
0.0308034
0.0382864
0.0368293
0.0394255
0.0445825
0.0439207
0.0390429
0.0358105
0.0415689
0.0316124
0.0370411
0.0390508
0.0324282
0.0321922
0.0390676
0.0396848
0.0398438
0.0337609
0.033039
0.0250267
0.0335804
0.0400604
0.0399662
0.0331854
0.0259836
0.0358887
0.0315322
0.0313328
0.0313333
0.0269398
0.0268735
0.0261674
0.026423
0.0271334
0.0247026
0.0255059
0.0257641
0.025925
0.0260541
0.026244
0.0265859
0.0272267
0.0279503
0.0228864
0.0243269
0.0229777
0.0216356
0.0202819
0.0240601
0.0265354
0.0283411
0.0297945
0.030928
0.0314081
0.0299828
0.0379596
0.0396813
0.0413096
0.0414716
0.0402519
0.0376226
0.0342098
0.0307621
0.0285646
0.0272349
0.0247252
0.022594
0.0205181
0.0183612
0.0155557
0.0142383
0.0129329
0.0115946
0.011281
0.0107601
0.0101746
0.00950985
0.00916701
0.011562
0.0180981
0.0276288
0.0327409
0.038122
0.0447407
0.0515067
0.0570663
0.0611654
0.0640022
0.0657207
0.0661417
0.0634562
0.0525144
0.0474967
0.0426222
0.037698
0.0327384
0.0320708
0.0411592
0.0494659
0.0565144
0.0628866
0.0670577
0.0654577
0.0499757
0.0467476
0.0622246
0.0896586
0.0803982
0.103311
0.119785
0.0793732
0.0648263
0.064188
0.079561
0.0820328
0.0753516
0.0663236
0.0564082
0.0454476
0.0504551
0.0552252
0.0597772
0.0643411
0.0777419
0.0803187
0.0791706
0.0768094
0.0735977
0.0689792
0.0620065
0.0531114
0.0440775
0.0364533
0.0294849
0.0192885
0.0126652
0.0134851
0.0129779
0.0145364
0.0141849
0.00995563
0.0103012
0.0105225
0.0104647
0.0102312
0.0102889
0.0116834
0.0183346
0.0150388
0.013667
0.0117681
0.0145222
0.0164263
0.018343
0.0189583
0.0191254
0.0196561
0.0320898
0.0434879
0.0495793
0.0544501
0.0582229
0.0568463
0.0532043
0.0469568
0.0396226
0.0369674
0.0330135
0.0297026
0.0280501
0.0290262
0.0254971
0.0158273
0.014652
0.0157229
0.0154134
0.014419
0.0163701
0.0175936
0.0183723
0.0190022
0.0194731
0.0198355
0.0200942
0.020266
0.0203563
0.0203835
0.020362
0.0202968
0.0201866
0.0200286
0.0198123
0.0195076
0.0189883
0.0172739
0.0154295
0.0147104
0.0147938
0.0145619
0.0141972
0.0123182
0.0125445
0.0144043
0.0150081
0.0146195
0.0152137
0.0156875
0.0168986
0.0190728
0.0212114
0.0230494
0.0217375
0.0210784
0.0210472
0.0206435
0.0174676
0.0207802
0.0236726
0.0241891
0.0244637
0.025285
0.0268852
0.027838
0.0269006
0.0263942
0.0258606
0.0227577
0.0243921
0.0279361
0.0283528
0.0290299
0.0296288
0.0302034
0.031491
0.0308598
0.0299708
0.0293734
0.0265323
0.0256556
0.0316674
0.0206854
0.0144906
0.0103862
0.0108327
0.0110343
0.0106999
0.0114794
0.0120275
0.0122773
0.0116573
0.0127393
0.0136581
0.0129516
0.0154868
0.0147873
0.0137757
0.0133096
0.0141339
0.0149065
0.0152973
0.0163405
0.0264432
0.027235
0.0227803
0.0292981
0.0318714
0.0290386
0.0319208
0.0295653
0.0282218
0.0310094
0.0344106
0.0356738
0.0333234
0.0319303
0.0313
0.0208459
0.0201608
0.0194416
0.0175914
0.0178712
0.0174139
0.0169613
0.016557
0.0190972
0.0204948
0.0216986
0.0214008
0.0211065
0.0207028
0.0208659
0.0247552
0.0326921
0.0432101
0.0469373
0.0457415
0.0417787
0.034768
0.0283306
0.0279811
0.026147
0.0249841
0.0247636
0.0188361
0.0148891
0.017426
0.0173694
0.0184408
0.0191193
0.0196551
0.0200843
0.0204445
0.0207577
0.0210623
0.021345
0.0215917
0.0217987
0.0219755
0.0221216
0.0222778
0.022466
0.0227256
0.0229334
0.0212849
0.018645
0.0172921
0.0171443
0.0178628
0.0187685
0.019896
0.0191351
0.015408
0.0154921
0.0219152
0.0223796
0.0210122
0.0195864
0.0197898
0.0189467
0.022781
0.0225889
0.0234004
0.023199
0.0229199
0.0226383
0.022357
0.0220644
0.0217683
0.0215086
0.0212712
0.02105
0.0208326
0.0205984
0.0203152
0.0198992
0.0192037
0.0183952
0.016889
0.0180108
0.0192787
0.0209978
0.0228299
0.0236725
0.0227806
0.021596
0.0211248
0.0213764
0.0216922
0.0220271
0.0223841
0.0228001
0.023215
0.0236026
0.0235391
0.0221955
0.0228428
0.0174913
0.0183442
0.0186451
0.0186039
0.0202632
0.0193966
0.0146667
0.0151846
0.0159145
0.0172058
0.0198063
0.0201755
0.0215391
0.0217703
0.0173467
0.0170429
0.0166146
0.0176179
0.0152404
0.0158857
0.0266685
0.0272657
0.0350209
0.0383958
0.0399871
0.0331717
0.0456351
0.0525056
0.0506418
0.0409391
0.0235377
0.0346944
0.0422154
0.0488844
0.0458321
0.0356714
0.0449958
0.0474359
0.0633696
0.0590356
0.052666
0.0634092
0.044803
0.0269697
0.0158357
0.0164058
0.0152026
0.0306952
0.0348075
0.0315135
0.0323678
0.0400017
0.0410136
0.0362783
0.0345693
0.036327
0.0358753
0.0398452
0.0371524
0.0337462
0.0233251
0.019041
0.0198852
0.021299
0.0231299
0.0254735
0.0253698
0.0242234
0.0228543
0.0218748
0.0208162
0.0183158
0.0176539
0.0196159
0.0212465
0.0226253
0.0241365
0.0249581
0.0257996
0.0259634
0.0258537
0.0255293
0.0250997
0.024544
0.0238597
0.0224504
0.023693
0.0243744
0.024582
0.0248589
0.0251709
0.0254472
0.0255892
0.0254749
0.0245211
0.0237071
0.0225375
0.02142
0.0198125
0.017694
0.0183777
0.0201391
0.0217412
0.0228556
0.0239068
0.0235182
0.0240124
0.0246728
0.0246957
0.0245141
0.0242917
0.0241435
0.0242394
0.0248742
0.0265886
0.0262975
0.0291064
0.0302887
0.027726
0.0264
0.0257113
0.0252894
0.0250478
0.0248451
0.0246491
0.0241061
0.0235674
0.0240664
0.0243161
0.0246081
0.0249591
0.0254578
0.0261401
0.0272255
0.0286263
0.0285091
0.026313
0.0261763
0.0251183
0.0243286
0.0239454
0.0238889
0.0239298
0.0240303
0.0239671
0.0234441
0.0231134
0.0235178
0.0225044
0.0225686
0.0215958
0.0202345
0.0187918
0.0173393
0.0166767
0.035351
0.035332
0.0458318
0.0425108
0.0371817
0.0472566
0.06026
0.052236
0.0629391
0.0667398
0.054244
0.0503516
0.027944
0.0244524
0.0174124
0.0189391
0.0202863
0.0214933
0.0213098
0.0222329
0.0221152
0.0230867
0.0225431
0.0217608
0.0212062
0.0201883
0.0202434
0.01897
0.0174233
0.0172904
0.0189411
0.0199992
0.0211799
0.0211773
0.0226395
0.0231402
0.0235427
0.0236998
0.0236975
0.023796
0.0239744
0.0244304
0.0251469
0.0256108
0.0257434
0.0261082
0.0258443
0.0255344
0.0250914
0.0247931
0.0244849
0.0242136
0.0239247
0.0236501
0.0232201
0.0225641
0.022446
0.0229591
0.0232969
0.0235263
0.0236543
0.0236271
0.0234239
0.0230979
0.0227694
0.0224099
0.0224723
0.0238318
0.0240893
0.0242298
0.024016
0.023835
0.0238049
0.0236673
0.023556
0.0233174
0.0229429
0.0224716
0.0214022
0.0215024
0.0223853
0.0228314
0.0231672
0.0234557
0.0234944
0.0234283
0.023059
0.0227645
0.022404
0.0218233
0.021065
0.0185675
0.0190387
0.0196722
0.0205312
0.0213946
0.0221312
0.0226037
0.0228062
0.0228112
0.0226429
0.0222914
0.0215412
0.0215213
0.0220612
0.0222255
0.0221669
0.0218505
0.0212147
0.0202708
0.0190466
0.0178125
0.0168304
0.0163452
0.0155696
0.0181972
0.0192645
0.0202454
0.021139
0.0219662
0.0228223
0.0231336
0.0231739
0.0230075
0.0227343
0.0223176
0.0215445
0.0215502
0.0222557
0.0226495
0.0228724
0.0229694
0.0227138
0.0220515
0.0205019
0.0190603
0.0178515
0.0167334
0.0155852
0.0152833
0.0157879
0.0153598
0.0157925
0.0169224
0.0184142
0.0197916
0.0207956
0.0214073
0.0217057
0.0217431
0.0214165
0.0212324
0.0213542
0.0211468
0.0206423
0.0197677
0.0184782
0.0170041
0.0157816
0.0154055
0.0160388
0.0166809
0.0160843
0.0138798
0.0150109
0.0161351
0.0172931
0.0189998
0.0210768
0.0220607
0.0225398
0.0226752
0.0225452
0.0221768
0.0215229
0.0214651
0.0220904
0.0224513
0.0225597
0.0224639
0.0220434
0.0212283
0.018706
0.015912
0.0146417
0.0139057
0.0129691
0.016239
0.0169311
0.0161191
0.0155833
0.0164418
0.0174811
0.0186304
0.0195184
0.0201637
0.0206717
0.0209542
0.0209891
0.0207126
0.0205903
0.0203641
0.0200167
0.0196796
0.0193461
0.0185745
0.0177411
0.0167653
0.017826
0.0183885
0.0176376
0.0144712
0.0150367
0.0159064
0.0164565
0.0191631
0.0216301
0.0222705
0.0224401
0.022528
0.0223878
0.0219901
0.0213747
0.021249
0.0218874
0.0223763
0.0226883
0.0230024
0.0232569
0.0234438
0.0215571
0.0181969
0.0173802
0.0155999
0.0147576
0.0181983
0.018877
0.0184053
0.0178512
0.01954
0.0202432
0.0204818
0.020462
0.0203809
0.0202875
0.0203093
0.0204291
0.0201275
0.0199984
0.0201003
0.0203209
0.0202869
0.0200757
0.0195116
0.0187414
0.0176309
0.0194781
0.0211422
0.0208699
0.0169989
0.0175367
0.0184156
0.0180404
0.0208191
0.0226733
0.0231476
0.0230665
0.0227338
0.0222483
0.0217003
0.0210594
0.020778
0.0213452
0.0219175
0.0219521
0.0220526
0.022008
0.0214484
0.021285
0.0207118
0.020442
0.0196793
0.0190966
0.0183497
0.0205156
0.0237387
0.0259576
0.0275482
0.0294467
0.027986
0.0244458
0.0221659
0.0152682
0.0152759
0.0154968
0.0148697
0.0144933
0.0143081
0.0187466
0.0214942
0.0241787
0.0258938
0.0234564
0.0234204
0.0233317
0.0232136
0.0230946
0.02298
0.0227575
0.0233799
0.0406192
0.282461
0.208445
0.234481
0.223577
0.314569
0.0783493
0.0385945
0.0427727
0.0495022
0.0566971
0.0550128
0.0515004
0.0450598
0.0409544
0.0405766
0.0401417
0.0399596
0.0386334
0.0386443
0.037799
0.0455697
0.0965624
0.12457
0.138106
0.146539
0.155427
0.15083
0.159764
0.15157
0.152029
0.153605
0.158368
0.150986
0.143667
0.139881
0.135586
0.118226
0.118564
0.100059
0.103866
0.0866669
0.0911985
0.0950995
0.0944388
0.0932254
0.0930054
0.0932864
0.0941137
0.0977917
0.0930724
0.0988758
0.0912495
0.0728108
0.0702861
0.0720691
0.066288
0.0580036
0.0654186
0.080249
0.0959688
0.113016
0.0969313
0.121158
0.114999
0.115855
0.110019
0.103547
0.0997222
0.0989535
0.0995573
0.100688
0.103347
0.105302
0.106926
0.109883
0.118497
0.120901
0.119546
0.101974
0.0865601
0.095038
0.0998794
0.103526
0.103758
0.0989441
0.0968373
0.0907154
0.0891495
0.0836403
0.0810126
0.0755751
0.072231
0.0674288
0.0840224
0.082133
0.0891492
0.0954678
0.099704
0.103399
0.105005
0.106327
0.105155
0.10279
0.0977517
0.0956053
0.0907587
0.109353
0.127857
0.130557
0.125845
0.112279
0.106581
0.340188
0.41262
0.414117
0.61468
0.65658
0.849118
0.336752
0.180014
0.192587
0.189262
0.181042
0.177842
0.177635
0.189385
0.198406
0.189241
0.200395
0.177461
0.17523
0.166505
0.191893
0.189198
0.170035
0.148801
0.116363
0.095684
0.09482
0.0797604
0.0808766
0.0712486
0.0723729
0.0741289
0.0919156
0.171994
0.210314
0.237072
0.263574
0.324141
0.293685
0.443378
0.35473
0.44005
0.303788
0.328822
0.314483
0.305638
0.303624
0.31966
0.342482
0.301061
0.374486
0.299936
0.649219
0.786035
0.496832
0.459612
0.407419
0.39316
0.383187
0.377569
0.369463
0.487178
0.451397
0.554276
0.514066
0.644925
0.562808
0.566679
0.533009
0.569136
0.587775
0.601986
0.480288
0.521617
0.406981
0.440686
0.370841
0.407016
0.291528
0.292006
0.335127
0.372188
0.398345
0.455739
0.716111
0.607681
0.819512
0.586448
0.708581
0.492178
0.539906
0.515566
0.49792
0.499667
0.527859
0.631983
0.61094
0.698277
0.514723
0.526979
0.516721
0.534049
0.523494
0.558413
0.563107
0.564298
0.562294
0.523425
0.534036
0.532201
0.531975
0.531993
0.532341
0.509587
0.512771
0.50523
0.511012
0.526913
0.514606
0.51452
0.512375
0.504799
0.502743
0.502257
0.504017
0.503785
0.50892
0.508789
0.50913
0.512191
0.526911
0.514425
1.82582
0.902776
0.430931
0.340831
0.220758
0.135536
0.0560992
0.0606108
0.0636019
0.0645866
0.0625815
0.0572064
0.0490029
0.0389369
0.0311066
0.0302897
0.0270061
0.0265936
0.0344482
0.0421285
0.0385385
0.0463407
0.0540328
0.0623545
0.0703705
0.0773702
0.0832928
0.0862216
0.0831833
0.070446
0.0527572
0.0353126
0.0250163
0.0226074
0.0209618
0.0189677
0.0168612
0.015204
0.0142048
0.0130408
0.0124145
0.0123308
0.0125564
0.0127988
0.0132417
0.0147556
0.0160551
0.0172399
0.0182032
0.018448
0.0179263
0.0184684
0.019063
0.0194585
0.0198035
0.0196226
0.0196145
0.019863
0.0198235
0.020031
0.0199342
0.0199484
0.0198105
0.0196505
0.019426
0.0189973
0.0187181
0.0181543
0.0178028
0.0169535
0.0169888
0.0173834
0.0177077
0.0167024
0.0166402
0.0158949
0.0271027
0.0482816
0.061196
0.0662054
0.0714807
0.0674408
0.0571591
0.0392389
0.0192279
0.0187783
0.0192622
0.0217757
0.0212904
0.0173714
0.0181621
0.0188168
0.0176308
0.0175973
0.0176309
0.0197198
0.0203337
0.0216896
0.0221878
0.0225441
0.0227607
0.022678
0.0227621
0.0224471
0.0224358
0.0220302
0.0220064
0.0216854
0.0214528
0.0217527
0.0224756
0.0225699
0.0232552
0.0229699
0.022697
0.0221374
0.0217472
0.0208898
0.0199726
0.0189334
0.0173587
0.016892
0.0174001
0.0178666
0.0173934
0.0187744
0.0199947
0.0196801
0.0243768
0.022647
0.0202023
0.0226648
0.0184224
0.0185939
0.0181375
0.017079
0.0176318
0.0171667
0.0171096
0.017432
0.0177419
0.0189226
0.0199104
0.020546
0.0214162
0.0220508
0.0227626
0.0239684
0.0242516
0.0232181
0.0230119
0.0217919
0.0210972
0.0207687
0.0217117
0.0230363
0.0229705
0.0239086
0.0236781
0.0224237
0.0216118
0.0207617
0.0197737
0.0191101
0.0183067
0.017544
0.0171124
0.0162695
0.0163397
0.0152351
0.0167985
0.0173345
0.0195843
0.0174269
0.0169297
0.0225257
0.0285012
0.044418
0.0324507
0.0214612
0.023362
0.0317662
0.0396884
0.0281226
0.0276621
0.0154496
0.0182697
0.015249
0.0155687
0.0166384
0.0169326
0.0181522
0.0192262
0.0194696
0.0202225
0.020573
0.021339
0.0215992
0.0223373
0.022534
0.0238234
0.0238903
0.023936
0.0239103
0.0230681
0.0229917
0.0229787
0.0234533
0.0232426
0.0239819
0.0240148
0.0241195
0.0240552
0.0226952
0.0223669
0.0215906
0.0210694
0.0201624
0.0196033
0.0188825
0.0184946
0.0178346
0.0181528
0.0188776
0.0190656
0.0200315
0.0200507
0.0207938
0.0210054
0.0214766
0.0216135
0.0222831
0.0224251
0.0226964
0.0227542
0.0239835
0.0240998
0.024133
0.024099
0.0241015
0.0243192
0.0243135
0.0242588
0.0242356
0.0241097
0.0239366
0.0237507
0.0248312
0.0255281
0.0250962
0.0248564
0.0251169
0.0259736
0.0265276
0.0276231
0.0284792
0.0295524
0.0304401
0.0312581
0.0319227
0.0323921
0.0324988
0.0325258
0.0320616
0.0316823
0.0333624
0.0398663
0.0430957
0.0483802
0.0507614
0.0527156
0.0533994
0.0522824
0.0530225
0.0517804
0.052054
0.0509023
0.0504976
0.0497158
0.0487388
0.0480466
0.0466012
0.0458863
0.0505184
0.0572283
0.0573464
0.0501581
0.0471656
0.0430297
0.0376802
0.0393926
0.0460666
0.0414813
0.0388318
0.0360851
0.0311169
0.0239787
0.0179119
0.0256581
0.0334286
0.0406799
0.0474527
0.0534337
0.0573156
0.0594507
0.0609995
0.0626936
0.0606583
0.0532004
0.0415541
0.0316801
0.0277872
0.0262321
0.0237975
0.0203666
0.0184867
0.0174165
0.0162673
0.0149256
0.0140746
0.0138355
0.0140881
0.0142063
0.0155539
0.0168171
0.0168087
0.01799
0.0177951
0.0183071
0.0189013
0.0193068
0.0199639
0.0199348
0.0189733
0.0193236
0.0195864
0.0202653
0.0201671
0.0203414
0.0201283
0.0194169
0.0189047
0.0183095
0.0177914
0.0173292
0.0167513
0.0160254
0.0160144
0.0162015
0.0157552
0.0161744
0.0166225
0.0170348
0.0176641
0.0185709
0.0193278
0.0211546
0.0212888
0.0210332
0.0211177
0.019686
0.0196205
0.0186461
0.0184096
0.0200038
0.0198428
0.0181715
0.0195638
0.0195726
0.0213576
0.0213661
0.0206935
0.0208931
0.0207856
0.0189628
0.0180732
0.0170042
0.0162215
0.0156258
0.0152173
0.0147404
0.0153613
0.0141323
0.0135732
0.0140441
0.0140218
0.0140924
0.0144864
0.0149196
0.015666
0.016374
0.0174221
0.0180626
0.0189613
0.0192945
0.0211999
0.0211069
0.0209712
0.0210024
0.0211387
0.0215864
0.0208006
0.0207624
0.0209044
0.0209197
0.02095
0.0209347
0.0190995
0.0188962
0.0180614
0.0177428
0.0168103
0.0164491
0.0157897
0.0154716
0.0150764
0.0148759
0.0232786
0.0254785
0.0256313
0.0397987
0.0199851
0.0199593
0.0343508
0.0173376
0.0230589
0.0236097
0.024692
0.0259307
0.0225513
0.0307419
0.0212127
0.0233474
0.024086
0.0252349
0.0129072
0.0201808
0.0378005
0.0427285
0.0440386
0.048969
0.0556055
0.0587872
0.061817
0.0638291
0.0660915
0.0685338
0.0709335
0.0726694
0.0728147
0.0691159
0.0660448
0.0565225
0.0526919
0.0564358
0.0608627
0.0473438
0.0425435
0.0430856
0.0435463
0.0440746
0.0442772
0.0449577
0.0447582
0.0457459
0.0450096
0.046105
0.0449531
0.0459668
0.0447406
0.0420184
0.0387951
0.0326049
0.0306326
0.0295248
0.0268087
0.0242986
0.0220522
0.0202248
0.019791
0.0182289
0.0168309
0.0165326
0.0152424
0.0155122
0.0167417
0.0198874
0.0168194
0.0176462
0.0260078
0.0191237
0.0180207
0.0185666
0.0190863
0.0193272
0.018219
0.0198454
0.0221194
0.0221229
0.0221912
0.0222039
0.0214007
0.0212364
0.0209708
0.0210301
0.0210623
0.0211883
0.0211575
0.0193356
0.0192792
0.019006
0.0188678
0.0180779
0.0179098
0.0173244
0.0169926
0.0161504
0.0158553
0.0154068
0.015473
0.016793
0.0208317
0.0304993
0.0175106
0.0182495
0.0157672
0.0139853
0.0266757
0.02475
0.0286434
0.0267908
0.0394174
0.0264328
0.0231817
0.0241806
0.0297131
0.0296716
0.032651
0.0424022
0.0330374
0.0283091
0.0742275
0.0546078
0.0336003
0.046842
0.0587725
0.109714
0.127885
0.0561545
0.056651
0.0623165
0.0632389
0.0631392
0.0536382
0.0493918
0.0416974
0.0322605
0.0128566
0.0249383
0.0322433
0.0431651
0.0577039
0.0921379
0.0529597
0.0597813
0.0657403
0.0648182
0.0679101
0.0660876
0.0647167
0.0656616
0.102656
0.111545
0.108247
0.0871422
0.0817677
0.0743415
0.124218
0.139067
0.120052
0.130161
0.136204
0.0826304
0.0304921
0.0249355
0.023823
0.0264037
0.0253416
0.0459963
0.0205964
0.0218235
0.0226596
0.0271532
0.0301856
0.0528796
0.0232683
0.0254649
0.0324062
0.0348762
0.0459105
0.0274556
0.0280911
0.0344056
0.0361846
0.0395127
0.0336483
0.0317577
0.0287185
0.0259172
0.0244227
0.0254692
0.0318568
0.0463112
0.0278918
0.0283195
0.0300784
0.133954
0.0307453
0.0266492
0.027727
0.026728
0.033667
0.0350854
0.111635
0.0355672
0.016718
0.0154541
0.0159202
0.01673
0.0173689
0.0179894
0.0184352
0.0190776
0.0194707
0.0196248
0.0197946
0.0221681
0.0220648
0.0215978
0.0210542
0.0218426
0.0211487
0.0211947
0.0218089
0.0212738
0.0214217
0.0224693
0.0236396
0.0231455
0.0237057
0.0250601
0.0239041
0.0222091
0.0220032
0.0221231
0.022831
0.023969
0.0227806
0.0234348
0.0226193
0.023537
0.0236562
0.020362
0.0199921
0.019788
0.0192849
0.0186097
0.0179856
0.0173166
0.016678
0.0162013
0.0161692
0.0167377
0.0152094
0.0156599
0.0181714
0.0401333
0.0331288
0.0270539
0.0225441
0.019727
0.0184817
0.0183151
0.0187408
0.0193901
0.0199514
0.0201602
0.0207478
0.0246243
0.02455
0.0257519
0.0246211
0.0259551
0.0248971
0.0235748
0.022705
0.023911
0.0232184
0.0237086
0.0253203
0.0261575
0.0237899
0.0240554
0.021466
0.0200568
0.0184493
0.0187876
0.0202287
0.0209
0.0233328
0.0234177
0.02685
0.0268371
0.0267003
0.0254691
0.0247961
0.0262413
0.0247566
0.0259052
0.0247969
0.0261984
0.0273846
0.0277275
0.0270233
0.0261917
0.0253189
0.0210455
0.0202543
0.0199499
0.0194624
0.0192222
0.0202021
0.0245969
0.0340092
0.0463056
0.0585137
0.0678752
0.0672199
0.060467
0.0412058
0.042055
0.039126
0.0424858
0.0607184
0.0873593
0.0614353
0.115015
0.089108
0.0528606
0.0630828
0.0751099
0.0842948
0.0902835
0.0914362
0.0780289
0.0575389
0.0505065
0.0529113
0.085049
0.0837394
0.0825379
0.0780432
0.0825533
0.0804185
0.0777314
0.0761526
0.0743577
0.0700783
0.0700599
0.067334
0.0672928
0.0601691
0.061349
0.0615709
0.0589941
0.056248
0.0539622
0.0517725
0.0494497
0.0455616
0.0442862
0.0418166
0.0400824
0.0367313
0.0361944
0.0357113
0.0335415
0.0319939
0.0307443
0.0294871
0.0277911
0.0279559
0.0263803
0.0262265
0.0213779
0.0209976
0.0199786
0.0196495
0.0194133
0.0196427
0.020945
0.0237095
0.0439806
0.0332573
0.0330314
0.0335537
0.0337275
0.0396475
0.0464181
0.0705759
0.0652807
0.071798
0.0614049
0.063837
0.0630425
0.0626649
0.0653908
0.068975
0.0743203
0.0868062
0.333524
0.513796
0.253214
0.237183
0.246807
0.251697
0.25909
0.339095
0.360113
0.355956
0.360597
0.330508
0.318417
0.196641
0.226048
0.238129
0.23703
0.223937
0.202689
0.394192
0.522648
0.518784
0.523655
0.523768
0.518766
0.522598
0.502913
0.514274
0.501758
0.515027
0.502298
0.521664
0.518923
0.504364
0.501137
0.501157
0.500917
0.50138
0.501556
0.504895
0.506056
0.506108
0.505103
0.504123
0.514519
0.438434
0.123471
0.0860205
0.143137
0.198919
0.163008
0.235223
0.270224
0.194836
0.110935
0.0907142
0.102331
0.126062
0.127541
0.154658
0.20221
0.189223
0.154499
0.155434
0.156268
0.201588
0.193018
0.219233
0.26174
0.254779
0.190054
0.151461
0.151013
0.22923
0.243739
0.238928
0.124474
0.0448704
0.0219851
0.0229463
0.0328113
0.0166192
0.016867
0.0224542
0.0590673
0.0979639
0.0508632
0.137495
0.138962
0.182572
0.147843
0.178693
0.115925
0.119097
0.0677805
0.0797983
0.0897326
0.0954738
0.0998143
0.0940348
0.21737
0.321316
0.19149
0.562317
0.538563
0.196628
0.217513
0.576219
0.513007
0.503528
0.501786
0.501698
0.501859
0.501816
0.50097
0.500915
0.500728
0.500765
0.500716
0.501163
0.504767
0.520386
0.514601
0.50524
0.501385
0.500824
0.500799
0.500691
0.50073
0.50075
0.500808
0.501018
0.50105
0.501151
0.501671
0.503943
0.512024
0.435476
0.17003
0.182432
0.406126
0.36189
0.5115
0.504622
0.50137
0.500942
0.500856
0.500829
0.500795
0.500969
0.50089
0.501397
0.501232
0.501287
0.502777
0.508257
0.506393
0.44295
0.369236
0.416881
0.329875
0.506669
0.507776
0.503277
0.5029
0.503247
0.503415
0.501514
0.501528
0.500992
0.501061
0.500893
0.501341
0.504756
0.51101
0.346051
0.17097
0.177896
0.258209
0.0879827
0.0909304
0.0928714
0.0949711
0.247565
0.442577
0.556663
0.472055
0.475938
0.543052
0.386182
0.364955
0.294571
0.318054
0.402512
0.347662
0.313135
0.250659
0.288984
0.248001
0.303783
0.218142
0.234402
0.221953
0.283335
0.287209
0.287555
0.226953
0.216784
0.271893
0.286104
0.317071
0.219004
0.259214
0.20352
0.192591
0.0872452
0.0894395
0.0813312
0.0713859
0.0711169
0.0792504
0.0776794
0.0838642
0.0808468
0.0845361
0.0816426
0.0796359
0.0728462
0.0748869
0.0686732
0.0713352
0.130452
0.166682
0.150556
0.151977
0.179757
0.131244
0.157606
0.153745
0.197841
0.248256
0.22768
0.293589
0.225882
0.276046
0.406132
0.754642
0.441352
0.24538
0.318537
0.340175
0.288934
0.189785
0.449781
0.538622
0.298219
0.360304
1.19577
1.0434
1.78092
0.992964
1.12005
0.671794
0.598153
1.02939
0.654603
0.667199
0.560543
0.574171
0.500222
0.324952
0.324557
0.306343
0.24239
0.281363
0.272034
0.267114
0.296811
0.262014
0.317222
0.352983
0.397738
0.323064
0.285998
0.367673
0.215976
0.291605
0.347149
0.316379
0.260368
0.338934
0.451166
0.423229
0.364353
0.400126
0.510699
0.564583
0.534721
0.453858
0.515879
1.00891
0.965951
0.932297
0.591828
1.9339
1.72098
0.355764
0.13947
0.097351
0.0368091
0.0225279
0.0182781
0.0178853
0.0489668
0.0195476
0.0235557
0.0212362
0.0303175
0.0274535
0.0317491
0.0559647
0.0378222
0.0533098
0.0394877
0.0527811
0.0420159
0.0578037
0.0620649
0.0654247
0.0529126
0.0417132
0.0630191
0.0840869
0.039374
0.101229
0.106989
0.0692173
0.0840974
0.103842
0.0537752
0.166586
0.0577096
0.057525
0.0686605
0.128777
0.254681
0.086793
0.113412
0.589469
1.53281
0.513615
0.203483
0.166114
0.0414476
0.0359427
0.0294065