/*--------------------------------*- C++ -*----------------------------------*\
| =========                 |                                                 |
| \\      /  F ield         | OpenFOAM: The Open Source CFD Toolbox           |
|  \\    /   O peration     | Version:  v2012                                 |
|   \\  /    A nd           | Website:  www.openfoam.com                      |
|    \\/     M anipulation  |                                                 |
\*---------------------------------------------------------------------------*/
FoamFile
{
    version     2.0;
    format      ascii;
    class       volScalarField;
    location    "505";
    object      nut;
}
// * * * * * * * * * * * * * * * * * * * * * * * * * * * * * * * * * * * * * //

dimensions      [0 2 -1 0 0 0 0];


internalField   nonuniform List<scalar> 
18258
(
0.00419322
0.0018226
0.00149251
0.00129277
0.000857259
0.00140224
0.00194777
0.0023188
0.00243301
0.0024126
0.00249825
0.00421619
0.00591728
0.00731307
0.00768156
0.00766782
0.00695909
0.00664549
0.00721183
0.00886994
0.00746222
0.00477997
0.00572831
0.006617
0.00719173
0.00636629
0.00514758
0.00476841
0.00431724
0.00359783
0.00301498
0.00205202
0.00151727
0.00140781
0.00127505
0.0014529
0.00158177
0.00168567
0.00172386
0.00175105
0.00173904
0.00172919
0.00168258
0.00165459
0.00160663
0.00133096
0.00161956
0.00164062
0.00179573
0.00248673
0.00267405
0.0022499
0.00248984
0.00222198
0.00146543
0.00167687
0.00182018
0.0018594
0.00183566
0.00175964
0.00173413
0.00171254
0.00168513
0.00165254
0.00163273
0.00164925
0.00166649
0.00164853
0.00156769
0.0015022
0.00139616
0.00128982
0.00121098
0.0011499
0.00110384
0.00105265
0.00099512
0.000874105
0.00081013
0.00107263
0.00134654
0.00143865
0.00203897
0.00248578
0.00250235
0.00187347
0.00133541
0.00138595
0.00154056
0.00155579
0.00131839
0.00156664
0.00177412
0.00183873
0.00191606
0.00214172
0.00243983
0.00237931
0.00211913
0.00195301
0.00190903
0.0021897
0.00208306
0.00270163
0.00272011
0.00237024
0.00219254
0.00246686
0.00318171
0.00342068
0.00265618
0.00249522
0.0024463
0.00241481
0.0021846
0.00226164
0.00205444
0.00185126
0.00201691
0.00243654
0.00231096
0.00252374
0.00261535
0.00245379
0.00284327
0.00327875
0.00323199
0.00258646
0.00210985
0.00196678
0.00198165
0.00121201
0.00130876
0.00140964
0.00144419
0.00146852
0.00148913
0.00158765
0.00158407
0.0015608
0.00155736
0.00158474
0.000873345
0.000946183
0.000969706
0.000976502
0.000927639
0.000918041
0.000900843
0.000886893
0.000836618
0.000800586
0.000957865
0.00107551
0.00117138
0.00128349
0.00145059
0.001655
0.00186979
0.00208678
0.00223023
0.00227102
0.0023122
0.00222836
0.00214389
0.00222018
0.00223297
0.00221852
0.00218871
0.00215105
0.00210014
0.00200678
0.002114
0.00210785
0.00198027
0.00169797
0.00173559
0.00173247
0.00177762
0.00176884
0.001787
0.0017621
0.00173285
0.0016498
0.00153386
0.00127688
0.00124211
0.00125803
0.00161603
0.00196232
0.00303175
0.0036993
0.00429652
0.0045987
0.00492242
0.00398114
0.00443041
0.00341367
0.00306486
0.00389585
0.00509742
0.00290796
0.00158691
0.00300958
0.00266845
0.00193426
0.00172139
0.00177342
0.00177828
0.00204554
0.00235761
0.00261483
0.00273925
0.00284946
0.00293721
0.00303426
0.00315734
0.00319148
0.00308346
0.00261101
0.00314467
0.0025539
0.00298313
0.00269361
0.00181537
0.00193668
0.00205026
0.00187451
0.00182244
0.00174616
0.00156963
0.00192707
0.00249949
0.00290154
0.0033171
0.00442227
0.00409136
0.00392406
0.00303879
0.00293852
0.00152583
0.00217716
0.00225479
0.00253386
0.00168514
0.00153636
0.0014573
0.00193482
0.0022412
0.00264428
0.00293134
0.00348122
0.00269867
0.00308248
0.00278845
0.00194135
0.00187045
0.00268052
0.00288785
0.00237478
0.0021259
0.00266668
0.00252302
0.00178928
0.00143624
0.00220556
0.00228476
0.00163676
0.00406851
0.00432425
0.00412349
0.00502266
0.00629785
0.00717887
0.00668354
0.00593102
0.00662242
0.00526272
0.00509628
0.00543308
0.00456363
0.00320081
0.0032812
0.0033932
0.00348509
0.00374172
0.00397488
0.00425961
0.00453066
0.00411916
0.00342205
0.00259076
0.00178202
0.00175725
0.0017482
0.00156985
0.00232661
0.00352107
0.00349773
0.00198841
0.00115906
0.00131037
0.00147932
0.00146469
0.00106334
0.000800173
0.00137839
0.00157604
0.00160151
0.00156176
0.00147456
0.00154094
0.00247471
0.00381257
0.00418923
0.00433902
0.00448086
0.00458117
0.00463718
0.00465518
0.00466534
0.00467766
0.00468842
0.00470462
0.00469004
0.00459006
0.00403715
0.00253799
0.0014836
0.00137827
0.00152118
0.00163486
0.00173412
0.00147564
0.000902218
0.00144104
0.00184526
0.00212069
0.00213871
0.00199588
0.00193605
0.00305279
0.00405887
0.00478392
0.0049305
0.00499552
0.00494026
0.00493264
0.00482437
0.00479002
0.00419952
0.00300621
0.00328641
0.00352843
0.00356893
0.00365143
0.00377543
0.00368784
0.00348386
0.00509291
0.00587663
0.00595201
0.0060792
0.00600787
0.00590456
0.00563655
0.00533019
0.00448737
0.00336519
0.00212327
0.00216764
0.0023077
0.00228569
0.00198995
0.00209647
0.00227506
0.00229782
0.00237298
0.00266098
0.00302224
0.00288304
0.00248106
0.00210701
0.00196191
0.00192072
0.00184288
0.00138021
0.00140081
0.00136168
0.00138412
0.00185949
0.0022133
0.0025523
0.00361997
0.00322927
0.0026264
0.00416307
0.00426534
0.00458175
0.00506116
0.00518673
0.00574594
0.00400157
0.00360695
0.00370524
0.00302689
0.00280186
0.00283184
0.00284255
0.00264956
0.00289991
0.00287426
0.00277033
0.00305858
0.00336997
0.00444367
0.00538427
0.00568088
0.00585217
0.00592192
0.00589903
0.00578331
0.00581902
0.00511019
0.00510373
0.00488785
0.00474753
0.00469797
0.00446535
0.00511258
0.00530702
0.0053717
0.00550555
0.00571452
0.00556048
0.00538756
0.00525627
0.00516139
0.00506236
0.00511677
0.00521132
0.0053124
0.00545479
0.00564543
0.00567783
0.00548019
0.00533111
0.0052294
0.00513407
0.00513843
0.00522345
0.00532286
0.00546421
0.00564507
0.00554535
0.00540473
0.00527976
0.00517743
0.00508755
0.00490994
0.00502818
0.00515844
0.00526593
0.00533588
0.0046105
0.00492792
0.00484306
0.0043848
0.00410413
0.00311685
0.00337313
0.00355689
0.00387414
0.00430042
0.00438413
0.00367918
0.00315299
0.00307259
0.00304782
0.00311981
0.0031456
0.00316073
0.00357135
0.00537844
0.00541491
0.00543009
0.00543198
0.00464569
0.00451464
0.00420655
0.007685
0.00715476
0.00619952
0.0051112
0.00274116
0.00234988
0.00278359
0.00338485
0.00378425
0.00417618
0.00277261
0.00171718
0.00200109
0.00207476
0.00202402
0.00187107
0.00155931
0.00143939
0.00130634
0.00140572
0.00248911
0.00397282
0.00447565
0.00452378
0.00447948
0.00439291
0.00428773
0.00414125
0.00408189
0.00513791
0.00694238
0.00785432
0.00782538
0.00672308
0.00547484
0.00308119
0.0015781
0.00114728
0.0012615
0.00138431
0.00162885
0.00145551
0.00120703
0.00132275
0.0012588
0.00255376
0.00441637
0.00563969
0.00669419
0.00658158
0.00571511
0.00468311
0.00444353
0.00454753
0.00461642
0.00467567
0.00473652
0.00477807
0.00475088
0.0043235
0.00267041
0.00159436
0.00141668
0.00152328
0.00178526
0.00189683
0.00191613
0.00188951
0.00163818
0.00270966
0.0043028
0.00273647
0.00149291
0.00161291
0.0016011
0.00282399
0.00281983
0.00275945
0.00429368
0.00454029
0.00452897
0.00425519
0.004062
0.00240484
0.00272931
0.00273847
0.002753
0.00279811
0.00141361
0.00154086
0.00158883
0.00171044
0.00149518
0.00189977
0.000491594
0.000681491
0.000791573
0.000860819
0.000927475
0.000909833
0.00174081
0.00176628
0.00168542
0.00164096
0.00208267
0.002235
0.00228435
0.00210411
0.00194156
0.0020666
0.00207111
0.0019518
0.00184886
0.001917
0.0019184
0.00183854
0.00156379
0.00146532
0.0016086
0.00159127
0.00157853
0.0028343
0.00282943
0.00267793
0.00440013
0.00432928
0.00484934
0.004818
0.0048124
0.0047927
0.00484455
0.00487146
0.00489171
0.00491549
0.00490615
0.00485853
0.00675393
0.00477981
0.00417083
0.00241195
0.00232335
0.00164093
0.00143816
0.00169349
0.00181125
0.00196364
0.00191922
0.00202318
0.00202076
0.00214422
0.0019901
0.00176703
0.00270637
0.00289117
0.00282384
0.0028797
0.00281204
0.00279552
0.002775
0.00273558
0.00268806
0.00160064
0.00157015
0.00183867
0.00193007
0.00207387
0.00209261
0.00213802
0.00202757
0.00178313
0.00172607
0.00198794
0.00196114
0.00199936
0.00188504
0.00187717
0.00167226
0.00171459
0.00345622
0.00637484
0.00328386
0.0036472
0.00330492
0.00375824
0.00329238
0.00283991
0.00290663
0.00256043
0.00267088
0.00280141
0.00285204
0.0029974
0.00353319
0.00340181
0.00298611
0.00289953
0.00284249
0.00268028
0.00241254
0.00252711
0.0025498
0.00260445
0.0028946
0.00331971
0.00372085
0.00451969
0.00438587
0.00384322
0.00351357
0.00368402
0.00374867
0.00471743
0.00440684
0.00438114
0.0046219
0.00457649
0.00434313
0.00411551
0.00397256
0.00341146
0.00346753
0.00396758
0.00383929
0.00395655
0.0038873
0.00404134
0.00411438
0.00394895
0.0036704
0.00385883
0.00385112
0.00427632
0.00415882
0.00385823
0.00352956
0.00377315
0.00372778
0.00430551
0.00405271
0.00379062
0.00348987
0.00334328
0.00379398
0.0037247
0.00422262
0.00434513
0.00434701
0.00379035
0.00370229
0.00440187
0.00423454
0.00409092
0.00426087
0.00352934
0.00362997
0.00447059
0.00456396
0.0043302
0.00361588
0.00367119
0.00314801
0.00370154
0.00460611
0.00435006
0.00356591
0.00295949
0.00413987
0.00435566
0.00460682
0.00435445
0.00474145
0.00510754
0.00416478
0.00453066
0.00591725
0.00452314
0.00524811
0.00536374
0.00539465
0.00539668
0.00541666
0.00544262
0.00573244
0.00557354
0.00354699
0.00424068
0.00412139
0.0034487
0.00293458
0.00323135
0.00347982
0.00352981
0.00361917
0.00375682
0.00369196
0.00356804
0.00522441
0.00596399
0.00609223
0.00621375
0.0061132
0.0059645
0.00561867
0.00519569
0.00431688
0.00321997
0.00201036
0.00204921
0.00218357
0.00216238
0.00187549
0.00141478
0.000929979
0.00138042
0.00142821
0.00134605
0.00122806
0.00108588
0.0011264
0.00204823
0.00390878
0.00542618
0.00599558
0.00645829
0.00695049
0.00742792
0.00779276
0.00805706
0.00823388
0.00834015
0.00835959
0.00819251
0.00743422
0.00710105
0.0066896
0.00635317
0.0058919
0.00553969
0.00626146
0.00687991
0.0072624
0.00769191
0.00789092
0.00780763
0.00678329
0.00657267
0.00755876
0.00931421
0.00791555
0.0099469
0.0117004
0.00910503
0.00819098
0.00819136
0.00915867
0.00933709
0.0090038
0.00848348
0.00788598
0.00713184
0.00750437
0.00784442
0.00817402
0.00847711
0.00931709
0.00946693
0.00939903
0.00925765
0.00906496
0.00878265
0.00833828
0.00772821
0.00704629
0.00637755
0.0056
0.00396962
0.00190863
0.00214025
0.00210837
0.00222092
0.00218381
0.00102433
0.00113141
0.00114629
0.00115428
0.00108965
0.00124041
0.00179396
0.00291847
0.00209899
0.00172771
0.00118974
0.00139559
0.00233058
0.00395692
0.00447198
0.00456151
0.00462616
0.00588861
0.0068314
0.0072746
0.00761029
0.00786012
0.0077602
0.00750232
0.00704688
0.00647262
0.00625844
0.00590795
0.00560175
0.0054365
0.00526802
0.00494181
0.00387248
0.00372902
0.0038869
0.00383865
0.00367415
0.0039267
0.00406923
0.00406633
0.004112
0.00415195
0.00427501
0.00441978
0.00454583
0.00461215
0.00463699
0.00464505
0.0046549
0.00466272
0.00467719
0.00466152
0.00455959
0.00400377
0.00250352
0.00146125
0.00135063
0.00148085
0.00156591
0.00160223
0.00142284
0.00091592
0.00142317
0.00184226
0.00188958
0.00207375
0.00213982
0.00226934
0.00252739
0.00292022
0.00301319
0.00267382
0.00253228
0.00247831
0.00241559
0.0020654
0.00257495
0.00284034
0.00283491
0.00280811
0.00303523
0.00373503
0.00358797
0.00316386
0.00312859
0.00309698
0.00280112
0.00275922
0.00301367
0.00304692
0.00316059
0.00370611
0.00444434
0.00412309
0.00375535
0.00360059
0.00332507
0.00292829
0.00264703
0.0032554
0.00267128
0.00140971
0.00119773
0.00119115
0.00119617
0.00115492
0.00136995
0.00144185
0.00146142
0.00135935
0.00150841
0.00167904
0.00162545
0.00183601
0.00181222
0.00162293
0.00160775
0.00173844
0.00183403
0.00188222
0.00193296
0.00316679
0.0032707
0.0025331
0.00366539
0.00422068
0.0041867
0.00444215
0.00365564
0.00327849
0.00389148
0.00449622
0.00515592
0.00407565
0.00385566
0.00394462
0.00181096
0.000952992
0.00134438
0.00166949
0.00186195
0.00180729
0.00170786
0.00144461
0.00256426
0.00263344
0.00418121
0.00469111
0.00475327
0.0047245
0.00473678
0.00514827
0.00590409
0.00677608
0.0070537
0.00695714
0.006644
0.00605882
0.00547202
0.00544266
0.00525817
0.0051235
0.00508486
0.00441444
0.00390339
0.00418405
0.00411407
0.00425354
0.00431895
0.00436658
0.0044151
0.00449572
0.00459297
0.00468167
0.00474218
0.00478248
0.00481624
0.00485058
0.00488496
0.00492211
0.00494213
0.00489522
0.0044241
0.00265292
0.0015813
0.00144209
0.00153871
0.00180856
0.00190437
0.00204675
0.00181715
0.000956812
0.00112547
0.00195555
0.00216905
0.00200707
0.00187835
0.00184477
0.00154535
0.00280063
0.00276471
0.0043418
0.00488367
0.00495239
0.00493894
0.00490101
0.00485783
0.00481505
0.00477979
0.00475133
0.00472118
0.00467891
0.00462766
0.00458046
0.0045324
0.00445045
0.00433447
0.00419832
0.00436366
0.00452126
0.00471621
0.00492064
0.0050189
0.00492768
0.00479631
0.00474357
0.00477685
0.00481947
0.00486283
0.00490176
0.00492139
0.0048659
0.00458502
0.00430056
0.00272279
0.00275848
0.00135639
0.00150651
0.00173834
0.00179542
0.00194951
0.00193971
0.00152428
0.00118829
0.00134107
0.00125367
0.00224025
0.00246394
0.00273308
0.0027063
0.00146908
0.00150705
0.00156619
0.00176618
0.00164206
0.0015873
0.00392547
0.00375977
0.00393368
0.00482491
0.00415667
0.00286893
0.00314154
0.00437187
0.00461161
0.00278676
0.00209143
0.00231781
0.0029357
0.00432299
0.0043774
0.00415959
0.00413559
0.00301746
0.00371012
0.00446716
0.00434542
0.00338469
0.00233196
0.0017381
0.000844653
0.00160653
0.00137329
0.003368
0.00372775
0.00368503
0.00402937
0.00428098
0.0043246
0.00420218
0.003726
0.00380061
0.00383829
0.00437398
0.00439351
0.00371836
0.00313721
0.00254741
0.00257052
0.00262051
0.00290377
0.00363557
0.00342548
0.00300243
0.00291131
0.00284835
0.00267894
0.0024174
0.00212031
0.00213503
0.00198715
0.00192304
0.0030314
0.00403515
0.00475822
0.00489488
0.00494433
0.00486844
0.00483407
0.00469597
0.00462467
0.00401785
0.00513154
0.00542386
0.00523348
0.00527178
0.00530438
0.00534462
0.00534535
0.00524489
0.00450707
0.00269156
0.00175808
0.00198452
0.00214206
0.00201138
0.00200005
0.0021318
0.00202284
0.00177676
0.00287861
0.00281366
0.00449898
0.00509504
0.00520423
0.00521075
0.0051902
0.00517331
0.00518034
0.0054527
0.00532716
0.00539433
0.00567514
0.00568576
0.00575679
0.00540628
0.00533864
0.00529572
0.00526715
0.00521998
0.00509249
0.00450709
0.00436975
0.00496174
0.00511386
0.00518085
0.00522697
0.00528216
0.00535492
0.00556633
0.00572262
0.00578153
0.00555436
0.00547226
0.00534658
0.00516604
0.00512286
0.00511368
0.00510893
0.00508371
0.00495161
0.00435859
0.00280242
0.00287151
0.00170827
0.00171936
0.00198039
0.00208005
0.00204289
0.00189184
0.0018445
0.00317903
0.00361831
0.00384771
0.00414603
0.00396058
0.00393782
0.00449991
0.00435487
0.00387984
0.00403819
0.00362333
0.00345137
0.00334034
0.00336013
0.00176351
0.00190292
0.0019849
0.00195197
0.00186652
0.0016648
0.00152668
0.00278618
0.00276586
0.00273017
0.00162332
0.00158776
0.00187059
0.00181662
0.00166185
0.00141658
0.00155297
0.00239842
0.00268232
0.00415973
0.00430842
0.00461116
0.0049314
0.00505323
0.00508697
0.00510781
0.005131
0.00517975
0.00523666
0.00525155
0.00524724
0.00528429
0.00527544
0.00527686
0.00524935
0.00521788
0.00518121
0.00514203
0.00507716
0.00494262
0.00461913
0.00430154
0.00484991
0.0048943
0.00498498
0.00507862
0.00511816
0.00512404
0.00510525
0.00506817
0.0050244
0.00497385
0.00497325
0.00512148
0.00515687
0.00518301
0.00516791
0.00514986
0.00514325
0.00511954
0.00508183
0.00498715
0.00489246
0.00485245
0.00477163
0.00489909
0.00495546
0.00496399
0.00501243
0.00509013
0.00511318
0.00511328
0.00507585
0.00504377
0.00500208
0.00493428
0.00484588
0.00454956
0.00460872
0.00468723
0.00478999
0.0048893
0.00496977
0.00501535
0.00501923
0.00497386
0.00494352
0.00494512
0.00490357
0.00492532
0.00494735
0.00492168
0.00491806
0.004921
0.00486417
0.00476131
0.00461848
0.00446757
0.00434288
0.00427947
0.00417639
0.00451507
0.00464596
0.00476311
0.00486683
0.00495976
0.00505207
0.00507934
0.00506773
0.00501029
0.00497748
0.00497589
0.00492805
0.00492567
0.00497186
0.00497395
0.00500125
0.00505022
0.00503778
0.00497116
0.00479704
0.00462691
0.00447835
0.00433574
0.00418417
0.00414345
0.00421147
0.00415406
0.00421164
0.00435821
0.00454268
0.00470261
0.00480541
0.0048386
0.00486961
0.00491468
0.00491038
0.00488351
0.00486828
0.00480749
0.00475436
0.00468942
0.0045489
0.00437048
0.00421371
0.00416443
0.00424945
0.00433333
0.00425482
0.00395251
0.00411071
0.00426219
0.00441218
0.0046234
0.00486571
0.00497018
0.00500713
0.00498234
0.00496291
0.00496018
0.00491647
0.00490092
0.00494116
0.00494472
0.00496446
0.00499594
0.00496658
0.0048815
0.00458514
0.00422968
0.00405832
0.00395613
0.00382145
0.0042762
0.00436539
0.00425818
0.00418581
0.00429871
0.00442983
0.00456616
0.00465746
0.00469461
0.00474661
0.00481471
0.00484785
0.00479956
0.00474298
0.00467354
0.00463745
0.00463616
0.0046134
0.00452611
0.00442266
0.00430245
0.00444711
0.00453098
0.00444956
0.00403031
0.00409714
0.00420073
0.00426251
0.00459643
0.00488406
0.00494946
0.00494987
0.00491801
0.00489722
0.00489737
0.00487196
0.00482398
0.00481533
0.00481171
0.00486972
0.00494603
0.00499186
0.00501569
0.00480144
0.00440193
0.00433053
0.00414555
0.00406076
0.00450947
0.00456041
0.00445664
0.00436015
0.00457135
0.00466093
0.00468507
0.00466569
0.00461686
0.00458517
0.00464471
0.00473838
0.00466754
0.00436393
0.00409435
0.00423262
0.00426687
0.00425689
0.0041996
0.00410279
0.00389197
0.00434583
0.0047871
0.0048227
0.00435237
0.00435956
0.00422497
0.00393694
0.00432504
0.00452745
0.00457049
0.00454931
0.0044761
0.00430409
0.00454567
0.00475889
0.00471788
0.0042706
0.00277188
0.00280994
0.00282997
0.00283237
0.00279537
0.00278504
0.00274457
0.00272363
0.00266068
0.00259644
0.00253549
0.00270456
0.00285048
0.0030458
0.00306231
0.00314316
0.00300821
0.00284773
0.00265928
0.00207013
0.00262676
0.00313346
0.00332987
0.0035815
0.00363302
0.00419194
0.00441154
0.0045299
0.00444231
0.00356381
0.00302299
0.00241554
0.00157083
0.000978652
0.00114854
0.00119436
0.00125354
0.00153099
0.00282142
0.00143746
0.00199098
0.00155697
0.00267544
0.00141889
0.000888391
0.000588086
0.000747418
0.000885059
0.000892938
0.000858098
0.000716632
0.000565838
0.000578511
0.000540999
0.000575063
0.000518343
0.000593858
0.000554481
0.00077446
0.00116413
0.00131995
0.00134895
0.00109016
0.00122913
0.0010269
0.0011842
0.00105738
0.00115234
0.00110544
0.00135191
0.00148165
0.00141869
0.00142281
0.00124513
0.000870906
0.00100949
0.000793067
0.000952186
0.000728499
0.000940885
0.000806731
0.00104825
0.00108057
0.00107743
0.00103738
0.000792513
0.000939537
0.000739619
0.000906387
0.000742118
0.00078891
0.000656139
0.000949729
0.000966643
0.000891082
0.00094603
0.00106136
0.00113918
0.0012578
0.00119424
0.00136365
0.0013202
0.00134199
0.00127118
0.00123619
0.00120803
0.00121053
0.00119065
0.0011972
0.00123579
0.0012377
0.00124261
0.00128201
0.00126329
0.00123301
0.00121487
0.0010793
0.000870783
0.00151677
0.00156414
0.00158709
0.00158649
0.00155034
0.00153309
0.00148045
0.00146638
0.00142055
0.00139346
0.001332
0.00128127
0.00122364
0.00137541
0.000769518
0.000873666
0.000922333
0.000949606
0.000968744
0.000977501
0.000984708
0.000979251
0.000967188
0.000943234
0.000935006
0.000908938
0.00116306
0.00132286
0.00138263
0.00139852
0.00131087
0.00124814
0.00272842
0.00330145
0.00502175
0.00513296
0.00385276
0.00384168
0.00133003
0.00140241
0.000958879
0.00134752
0.00138936
0.00137518
0.00129909
0.000936945
0.00140615
0.000979348
0.00131952
0.000987905
0.00122218
0.0010036
0.00142253
0.0018114
0.00174637
0.00158127
0.00107692
0.000897918
0.000896653
0.000769581
0.000844715
0.000698828
0.0008592
0.000726819
0.00108188
0.00154094
0.00170403
0.00173819
0.00137053
0.00189071
0.00142152
0.00205747
0.00163292
0.00201291
0.00161532
0.00186988
0.00231368
0.00232396
0.0022688
0.00182856
0.00146579
0.00164523
0.00145759
0.00167864
0.00242463
0.00158895
0.00240913
0.000995617
0.00135699
0.00139844
0.00137901
0.00130002
0.00087567
0.00222999
0.00117884
0.00209994
0.00135865
0.00218245
0.00157967
0.00208618
0.00249384
0.0026042
0.00259216
0.00211706
0.00190647
0.00196518
0.0015703
0.00188476
0.00141004
0.00204882
0.00116738
0.00151889
0.00168223
0.00177119
0.00177891
0.00146293
0.00288806
0.00181299
0.00273634
0.00190219
0.00243664
0.0019532
0.00213722
0.0025238
0.00250816
0.00248722
0.00210912
0.00170613
0.00225187
0.00160677
0.0477358
0.110385
0.0439042
0.111555
0.050536
0.0717212
0.0706658
0.0708022
0.0710535
0.053354
0.116364
0.137495
0.143419
0.145192
0.144127
0.232919
0.189922
0.285375
0.185
0.108795
0.0471232
0.0650073
0.167918
0.277386
0.416207
0.528105
0.359864
0.372457
0.23767
0.234292
0.220528
0.178361
0.109297
0.0548111
0.00940991
0.010289
0.0147244
0.0196043
0.015464
0.00948887
0.00187712
0.00193762
0.00198208
0.00201051
0.00200529
0.00196499
0.00199882
0.00189048
0.00178077
0.00199423
0.00217413
0.00230593
0.00272318
0.00301095
0.00271489
0.00297541
0.00315274
0.00329734
0.00341725
0.00359589
0.00379702
0.00397321
0.00398271
0.00364969
0.00311102
0.00253031
0.00212603
0.00201395
0.00189117
0.00166771
0.0015256
0.00142841
0.00138158
0.00136228
0.0014001
0.00153033
0.0016434
0.00168306
0.00165011
0.0016198
0.00159339
0.00141885
0.00165903
0.00227571
0.00229301
0.00392859
0.0045268
0.00462108
0.00462774
0.00410164
0.00261995
0.0026257
0.00263916
0.00268949
0.00270013
0.00270736
0.00270468
0.00269571
0.00268009
0.0026512
0.00263654
0.00259373
0.00255757
0.00246684
0.00247084
0.00250183
0.00252664
0.00248485
0.00249451
0.00244284
0.00318914
0.00425941
0.00479856
0.00501404
0.00519937
0.00504599
0.00699543
0.0059873
0.00420286
0.00413303
0.00408214
0.00484131
0.00487419
0.00440271
0.00442109
0.00403456
0.0025197
0.00251494
0.0025167
0.00269371
0.0027473
0.00283974
0.00286556
0.00288718
0.00290067
0.00289344
0.00289122
0.00286407
0.00284444
0.00277916
0.00275754
0.00274822
0.00151511
0.00165382
0.00171619
0.00172808
0.00175409
0.0017438
0.00173407
0.00171329
0.00170023
0.00167169
0.00163912
0.00158981
0.00149401
0.00136055
0.00149698
0.00253885
0.00253756
0.00413359
0.0046651
0.00469948
0.00523038
0.00496517
0.0047023
0.00504428
0.00454765
0.00451118
0.00408415
0.00253678
0.00257149
0.00152708
0.0015144
0.00177146
0.00172321
0.00184196
0.00189291
0.00189843
0.00192465
0.00194913
0.00198006
0.00203035
0.00204473
0.00201152
0.00200487
0.00188777
0.00163092
0.00165008
0.00194584
0.00204184
0.0018965
0.00186448
0.00185054
0.00180502
0.00177067
0.00173798
0.00176062
0.00189573
0.00189288
0.00185864
0.00176813
0.00172096
0.00149089
0.00143944
0.00251594
0.00255745
0.00423231
0.00431952
0.00428584
0.00494362
0.00552378
0.00628246
0.00536383
0.00436235
0.00455673
0.00521643
0.00388732
0.00325862
0.00193937
0.0014492
0.00181967
0.00166425
0.00173613
0.00179873
0.00159762
0.00171741
0.00158813
0.00144331
0.00143526
0.00143367
0.00146894
0.0014839
0.00151084
0.00151454
0.00155152
0.00154799
0.00155205
0.00157091
0.00157838
0.00174385
0.00189453
0.00159496
0.00135234
0.00131822
0.00124486
0.00118543
0.00121439
0.00118495
0.00117762
0.00115592
0.00113622
0.00108422
0.00112973
0.00119876
0.00140237
0.00134196
0.00108466
0.000969166
0.000662338
0.00067583
0.000680502
0.000701392
0.000709118
0.000718586
0.000722139
0.000733929
0.000736246
0.000740003
0.000739731
0.00075789
0.000755315
0.000746591
0.000740993
0.000744518
0.000747869
0.000747312
0.00109439
0.00121854
0.00133063
0.00158025
0.00185917
0.00160071
0.001357
0.00116988
0.00075198
0.000763216
0.000777165
0.000784351
0.000801092
0.000816292
0.000833265
0.000843931
0.000851938
0.000860273
0.000869092
0.00087255
0.000870377
0.000853496
0.000843582
0.000864918
0.000950646
0.00100046
0.00106447
0.00108862
0.00110905
0.00111905
0.00111407
0.00112589
0.00111297
0.00111125
0.00109266
0.00108481
0.00107744
0.00106797
0.00105613
0.00102646
0.00101669
0.00106961
0.00181231
0.00237104
0.0027298
0.0030061
0.00278453
0.00226448
0.0023736
0.00417564
0.00395647
0.00233025
0.00217767
0.0020124
0.00176222
0.00153026
0.00184739
0.0021085
0.00230584
0.00247866
0.00263686
0.0027445
0.00288318
0.00306426
0.0033835
0.00342358
0.00312284
0.00253016
0.00214106
0.00199909
0.00193128
0.00181343
0.00168456
0.00172683
0.00173929
0.00168758
0.0016234
0.00160532
0.00163206
0.00166637
0.00164652
0.00164586
0.00147038
0.0014698
0.00251153
0.00255807
0.00393504
0.00414638
0.0041868
0.00269159
0.00265477
0.00155069
0.00144016
0.00157109
0.00163096
0.00163439
0.00164114
0.00163285
0.00160446
0.00158361
0.00155936
0.00153953
0.00152193
0.00149161
0.00143382
0.0013243
0.00144284
0.00161797
0.00168997
0.00170889
0.00171806
0.00174533
0.0017898
0.00182543
0.001908
0.00191638
0.00191553
0.00192225
0.00179663
0.00185281
0.0015681
0.0015658
0.0027138
0.00270629
0.00155478
0.00183589
0.00184847
0.00182739
0.00196738
0.00180036
0.00174333
0.00173409
0.00166071
0.00162162
0.00156945
0.00153815
0.00156796
0.0016676
0.00161427
0.00143052
0.00137789
0.00154626
0.00148823
0.00123479
0.00105506
0.00102617
0.000982385
0.000955847
0.00100197
0.00103794
0.00105847
0.00108451
0.00109223
0.00113998
0.00110914
0.00116388
0.00123426
0.00129031
0.00153051
0.00165861
0.0014984
0.00146968
0.00145145
0.00144993
0.00145452
0.00139462
0.00139064
0.00135964
0.00134434
0.00130378
0.00128541
0.00126202
0.00126606
0.00127926
0.00140625
0.00362353
0.00462076
0.00481121
0.00822044
0.00331872
0.00338935
0.00664667
0.00274949
0.00413398
0.00442974
0.00463153
0.0048378
0.00442693
0.00562526
0.00392723
0.00437582
0.00455827
0.00398142
0.00149852
0.00172066
0.00197697
0.00175906
0.0015534
0.00105829
0.00114034
0.00117723
0.00120734
0.00122667
0.00124846
0.00127171
0.00129358
0.0013089
0.00130904
0.00126911
0.0012261
0.00112732
0.00109441
0.0011368
0.00118061
0.00103664
0.000975961
0.000987472
0.0010037
0.0010128
0.00101472
0.00102464
0.0010273
0.00104297
0.00103455
0.00104243
0.00102456
0.00103357
0.00102012
0.000985374
0.000936506
0.0008535
0.000833213
0.00120012
0.0012779
0.00134228
0.00152321
0.00175872
0.0018767
0.00168217
0.00155149
0.0014893
0.00165208
0.00165334
0.00300499
0.00576754
0.00258273
0.00289267
0.00842938
0.00335249
0.00260603
0.00264534
0.00267316
0.00267705
0.00155572
0.0018425
0.00178658
0.00179404
0.00152173
0.00127768
0.00114597
0.00102461
0.000694829
0.000692539
0.000697763
0.000708458
0.000711782
0.000681332
0.000681251
0.000677354
0.000675825
0.000661461
0.000657446
0.00064576
0.000638656
0.00062185
0.000612728
0.000596758
0.000594098
0.00062194
0.000693368
0.000838572
0.000930829
0.00105945
0.00107802
0.00120922
0.00299022
0.00346936
0.00478203
0.0047462
0.00748804
0.00467742
0.00353238
0.00318937
0.00466814
0.00482313
0.00446847
0.0060534
0.00418847
0.00277604
0.00421808
0.00351807
0.0041129
0.00405046
0.00430397
0.00684104
0.00720084
0.00202445
0.00180432
0.00189741
0.00215279
0.00255627
0.00235689
0.00268337
0.00268675
0.00207865
0.00131304
0.0041828
0.00503977
0.00406528
0.00489917
0.00753932
0.00302524
0.00294997
0.00261008
0.00217866
0.00198006
0.00195399
0.00217886
0.00260712
0.00652497
0.00698054
0.00646914
0.00645591
0.00585266
0.00640113
0.00798349
0.00794198
0.0070251
0.00657429
0.00682058
0.00425132
0.00261778
0.00304812
0.00338092
0.00451213
0.00465187
0.00983689
0.00333399
0.00368288
0.00374035
0.00500317
0.00484328
0.00856659
0.0036288
0.00391322
0.00515609
0.00689463
0.0127214
0.00463917
0.00488602
0.00702922
0.00713577
0.00652081
0.00470965
0.00426535
0.00464852
0.00350176
0.00342362
0.00292045
0.00431143
0.00580783
0.0045935
0.00445986
0.00379238
0.00337945
0.00345769
0.00358949
0.00298143
0.00293933
0.00339131
0.00252025
0.00244158
0.00257605
0.000716432
0.000367095
0.000375213
0.000384942
0.000392869
0.000401039
0.000407016
0.000414101
0.000417302
0.00041765
0.000418716
0.000442785
0.000438681
0.000424817
0.000385754
0.000440178
0.00069852
0.000698978
0.000439669
0.000387605
0.000695482
0.00110817
0.00130648
0.00154548
0.00156458
0.00135005
0.00117052
0.000720495
0.000709172
0.000429858
0.000502031
0.000545184
0.00048356
0.000539671
0.000500198
0.000529796
0.000535299
0.00049531
0.000492549
0.00049445
0.000490663
0.000481928
0.000471268
0.00045831
0.000448209
0.000442901
0.000439018
0.000430132
0.00035643
0.000332644
0.000401367
0.000641633
0.000641524
0.000600684
0.000565174
0.000534612
0.000520342
0.000516059
0.000512992
0.000521897
0.000538775
0.000543541
0.000548323
0.000590786
0.00057233
0.000611309
0.000573735
0.000612965
0.000575321
0.000529252
0.000444389
0.000458491
0.000739645
0.00074752
0.00120777
0.0013816
0.00156654
0.00157453
0.00175743
0.00185077
0.00156742
0.00162721
0.00186472
0.00173674
0.00154823
0.00155436
0.00139828
0.00139969
0.00123998
0.000774933
0.000764406
0.000480072
0.000466231
0.000555942
0.000546216
0.000607476
0.000650139
0.000650329
0.000648216
0.000631947
0.00062609
0.000550605
0.000539796
0.000540525
0.000524224
0.000520982
0.000543994
0.000595066
0.000699604
0.00084654
0.000921208
0.000952286
0.000912636
0.000816692
0.000604145
0.000544881
0.000945542
0.00097986
0.00176421
0.00418387
0.00196217
0.00370855
0.00267635
0.000664326
0.000740562
0.000944326
0.00105813
0.00114275
0.00119199
0.00109051
0.000910619
0.000685719
0.000566048
0.000843464
0.000729265
0.000822894
0.000718623
0.000930037
0.00107528
0.00104014
0.00104789
0.000885508
0.000721264
0.000763861
0.00068567
0.00075577
0.000632706
0.00076125
0.000687222
0.000863559
0.000871629
0.000853458
0.000808932
0.000615905
0.00064619
0.00054205
0.000588006
0.000527945
0.000545639
0.000517041
0.00060291
0.00069474
0.000666759
0.000664144
0.000545686
0.000427598
0.000472291
0.000408419
0.000462275
0.000359302
0.000435269
0.000365001
0.000472564
0.000487326
0.000490341
0.000487885
0.000397547
0.000467353
0.000571534
0.000599412
0.00060401
0.000575239
0.000443362
0.000686074
0.000619115
0.000755904
0.000653758
0.000715656
0.000651685
0.000759579
0.000972833
0.00101573
0.00102251
0.000829605
0.000824454
0.00150418
0.083433
0.00135306
0.00159926
0.00164912
0.00164316
0.00135846
0.00132527
0.00164144
0.00121419
0.00171958
0.00108269
0.00183412
0.000699321
0.00106311