/*--------------------------------*- C++ -*----------------------------------*\
| =========                 |                                                 |
| \\      /  F ield         | OpenFOAM: The Open Source CFD Toolbox           |
|  \\    /   O peration     | Version:  v2012                                 |
|   \\  /    A nd           | Website:  www.openfoam.com                      |
|    \\/     M anipulation  |                                                 |
\*---------------------------------------------------------------------------*/
FoamFile
{
    version     2.0;
    format      ascii;
    class       volScalarField;
    location    "75";
    object      epsilon;
}
// * * * * * * * * * * * * * * * * * * * * * * * * * * * * * * * * * * * * * //

dimensions      [0 2 -3 0 0 0 0];


internalField   nonuniform List<scalar> 
18258
(
0.0291026
0.0142659
0.0119924
0.0103657
0.0175731
0.0162423
0.0156784
0.0205991
0.0284079
0.041698
0.0582245
0.0507284
0.0450088
0.0459823
0.0476546
0.0450724
0.0348163
0.0306707
0.0416569
0.0690559
0.0628326
0.0513679
0.0632403
0.0532101
0.0669629
0.0847145
0.065137
0.0591349
0.0535557
0.0510216
0.044652
0.026276
0.0327584
0.0514051
0.0711209
0.078471
0.0847236
0.0898759
0.0952441
0.0976399
0.0981121
0.0929968
0.0837408
0.0680987
0.0494542
0.0372037
0.0275072
0.0273876
0.0391015
0.0391467
0.0486715
0.0756371
0.0979656
0.0750987
0.0495025
0.0789468
0.107593
0.138665
0.16531
0.188298
0.196886
0.194442
0.183859
0.167951
0.147146
0.12258
0.101716
0.0847612
0.0669494
0.0570266
0.0458425
0.0377215
0.0319585
0.0281442
0.0258435
0.0242485
0.0231817
0.0241207
0.0240174
0.017208
0.0135355
0.0127029
0.00905695
0.00752281
0.00781865
0.00730985
0.00745631
0.0065346
0.00565193
0.00499399
0.00429453
0.00651686
0.00715084
0.00752505
0.00761112
0.00815743
0.00782049
0.00747365
0.00727967
0.0114294
0.015245
0.0157255
0.0164568
0.0206239
0.0198339
0.0191565
0.0128853
0.00892493
0.00994005
0.0132024
0.013657
0.0139059
0.0121894
0.0112964
0.009354
0.00883589
0.0088705
0.00941137
0.00969652
0.0117117
0.011603
0.0109118
0.0120318
0.0132478
0.0129702
0.012407
0.0116791
0.0143057
0.0109333
0.0115756
0.0130385
0.0209514
0.0205415
0.0259619
0.025449
0.0255743
0.0256073
0.0308396
0.0309614
0.0313012
0.0316533
0.0339993
0.056024
0.0494859
0.0485217
0.0483401
0.0418964
0.0418124
0.041541
0.0424713
0.0345892
0.0330815
0.030153
0.0299045
0.0334313
0.0420112
0.0592621
0.0861285
0.119408
0.154801
0.184069
0.203901
0.224603
0.228933
0.241773
0.245755
0.246463
0.241136
0.233333
0.224438
0.211932
0.193443
0.181375
0.14278
0.101391
0.0564605
0.074953
0.0862381
0.095412
0.0973094
0.0985993
0.0950202
0.0894055
0.0789684
0.0644847
0.0434171
0.0487601
0.0669464
0.0698883
0.0710383
0.0566074
0.0546813
0.0509051
0.0508433
0.0674635
0.0772954
0.0648497
0.0893854
0.105213
0.0922347
0.0670206
0.102482
0.150459
0.0840786
0.0712951
0.0545043
0.0531264
0.0445589
0.0369953
0.0606292
0.0891674
0.120552
0.139039
0.159197
0.174552
0.186494
0.199389
0.1732
0.157394
0.106089
0.183016
0.136264
0.0680328
0.0503272
0.049889
0.0385103
0.0456645
0.051044
0.0472857
0.0362254
0.0261925
0.0296879
0.0514954
0.0690867
0.0815288
0.0649232
0.0819212
0.091345
0.0998022
0.104771
0.137577
0.101613
0.111611
0.0802904
0.108404
0.0766523
0.0480494
0.0494062
0.0914744
0.145969
0.199454
0.234507
0.129616
0.0650061
0.0482292
0.0488955
0.0470326
0.042196
0.0528283
0.0955243
0.0656663
0.0417987
0.0358256
0.042334
0.0367049
0.0277028
0.0298435
0.0389698
0.0520747
0.0598115
0.0733238
0.113139
0.108002
0.132463
0.138969
0.117528
0.112753
0.0701317
0.0723436
0.10944
0.0813713
0.0652724
0.0937998
0.135525
0.187141
0.23133
0.269748
0.29431
0.28958
0.26521
0.170595
0.0758583
0.0237813
0.0190162
0.0179832
0.0184395
0.0111725
0.00654418
0.00596106
0.00664905
0.00711343
0.00618399
0.00572257
0.00568651
0.00580478
0.0104611
0.00898469
0.0110604
0.013356
0.0159121
0.0189707
0.0196764
0.0130497
0.00883214
0.00828937
0.00822199
0.00814781
0.00811275
0.00811767
0.00815096
0.00816034
0.00812312
0.00804194
0.00790461
0.00777051
0.00771552
0.00835819
0.0112646
0.0155064
0.0150643
0.0137734
0.0124148
0.0112608
0.00890554
0.0153997
0.0130864
0.0111195
0.0135701
0.0166912
0.0210727
0.02474
0.0178385
0.0142846
0.0129289
0.0127974
0.0126746
0.0127099
0.0125746
0.0126254
0.0124097
0.0129918
0.0137466
0.0171974
0.0192597
0.0214931
0.0230293
0.0236285
0.0243347
0.0213929
0.0234909
0.023023
0.0238126
0.0236175
0.0228696
0.0208425
0.0188837
0.0175251
0.0188766
0.0233421
0.031756
0.0262033
0.0203086
0.0164119
0.0134126
0.0147828
0.0165182
0.0167007
0.0157503
0.0155609
0.0154014
0.0138487
0.0129589
0.0110599
0.0104965
0.0101349
0.0103528
0.0148252
0.0138249
0.0138662
0.0144645
0.0153529
0.0145082
0.0149715
0.0142506
0.0144887
0.0148925
0.0171105
0.0186509
0.0178865
0.016616
0.01611
0.0138103
0.0159134
0.0157592
0.0170626
0.0185738
0.019016
0.0188914
0.0182419
0.0165376
0.0184002
0.0217138
0.0253146
0.0243541
0.0242443
0.0203804
0.019303
0.0203974
0.0217835
0.0227456
0.0227996
0.022521
0.0225186
0.0265988
0.0261329
0.0249824
0.0228904
0.0203919
0.0176671
0.0152877
0.0167995
0.0182959
0.0196809
0.0209218
0.0207556
0.0192228
0.0178645
0.0166203
0.0150875
0.0148208
0.016319
0.017568
0.0190241
0.020777
0.0209085
0.0191571
0.0176212
0.0162935
0.0147712
0.0147351
0.0162853
0.0176322
0.0190902
0.0205907
0.0199004
0.0187634
0.017484
0.0162048
0.0147085
0.0147741
0.0161277
0.017215
0.0182969
0.0192023
0.0199671
0.0180796
0.017192
0.0172917
0.0162881
0.0194934
0.0187288
0.0196758
0.0182004
0.0169372
0.0179148
0.0210298
0.0240114
0.0244437
0.0241398
0.0200153
0.0204919
0.0205515
0.0191846
0.0159871
0.015376
0.0180498
0.0206499
0.0211024
0.0199129
0.016986
0.0133797
0.014332
0.0173287
0.0195915
0.0184173
0.018269
0.0169241
0.015846
0.0161146
0.0138169
0.0165758
0.0262969
0.0236396
0.0214234
0.0187262
0.0148367
0.0100909
0.0109324
0.0119801
0.0123757
0.0100838
0.00762809
0.0068575
0.00666192
0.00648272
0.00621421
0.00574923
0.00508128
0.0059922
0.0217633
0.0356043
0.0396607
0.0381684
0.0255835
0.024223
0.0263992
0.0299561
0.022768
0.0165928
0.0118057
0.0113592
0.0155484
0.0206205
0.0281514
0.0207234
0.0204935
0.0147233
0.0151435
0.0250376
0.0268751
0.021804
0.0123474
0.00656358
0.00693108
0.00743804
0.00767737
0.00787932
0.00810653
0.00847203
0.009731
0.0151273
0.0194754
0.0169389
0.0159047
0.0145482
0.0180426
0.0206497
0.0227468
0.0256607
0.0160543
0.0117116
0.0165681
0.0269082
0.0242219
0.0225908
0.0166773
0.0173081
0.0169106
0.0108738
0.0106218
0.0106399
0.0114378
0.0127548
0.0146666
0.0160529
0.0168661
0.0172106
0.0181215
0.0235397
0.0220606
0.0215663
0.0177468
0.0135185
0.015098
0.0508057
0.0195271
0.0206834
0.0192838
0.0196256
0.0209137
0.0157147
0.014204
0.0135117
0.0148681
0.0218866
0.0220094
0.0217617
0.0184385
0.0176025
0.0211
0.0223015
0.0227331
0.0220692
0.0215502
0.0196059
0.0168135
0.0182461
0.019775
0.0209626
0.0230391
0.0234304
0.018073
0.0173425
0.0159448
0.0106201
0.0113855
0.00980237
0.009747
0.0096312
0.00926747
0.00883529
0.00920228
0.00939166
0.00941233
0.0090653
0.00936202
0.00839288
0.00875184
0.00985268
0.0153616
0.0149294
0.017766
0.0197311
0.0169576
0.015794
0.0144219
0.0133942
0.0156462
0.0144419
0.0170736
0.0214579
0.0267864
0.0193256
0.0183271
0.0181035
0.0176942
0.0175258
0.0175722
0.0168693
0.0158581
0.0152845
0.023845
0.0215314
0.0183911
0.0174425
0.0159944
0.0182682
0.0177073
0.0216343
0.0271615
0.027366
0.0218002
0.021873
0.0192017
0.0203063
0.0225058
0.0273854
0.0273215
0.0145827
0.00966412
0.0155966
0.015942
0.0185934
0.0172031
0.0187311
0.0199455
0.020649
0.0205062
0.0178759
0.0190502
0.0198388
0.0208199
0.0187425
0.0166809
0.0174816
0.016269
0.0153799
0.0149018
0.0128148
0.013017
0.0139484
0.0153771
0.0163152
0.0177823
0.0193719
0.0194486
0.0200882
0.019671
0.0191686
0.0252444
0.0239486
0.0255472
0.0282318
0.0224706
0.0179047
0.0148005
0.0150973
0.0148561
0.0147568
0.0155447
0.016927
0.0152856
0.0146498
0.0171014
0.0194066
0.0246706
0.0328335
0.0284098
0.0261045
0.0334586
0.0317968
0.038351
0.0287879
0.0283924
0.0209315
0.026556
0.0310356
0.0394095
0.0256312
0.0210732
0.0226739
0.0260193
0.0352833
0.0330321
0.0331747
0.041512
0.0403249
0.0368164
0.0316885
0.0354557
0.0213458
0.0306062
0.0326787
0.0274144
0.0259576
0.0309121
0.0313005
0.0334485
0.0290168
0.0270704
0.0180221
0.0274255
0.0314062
0.0331595
0.0279757
0.0210447
0.0282812
0.0206821
0.0192864
0.0204174
0.0138294
0.012809
0.0149085
0.0140073
0.0113347
0.0122802
0.0113017
0.0112841
0.0113495
0.0114383
0.0115361
0.0117518
0.0116742
0.0126147
0.0133865
0.0125854
0.0116461
0.0123933
0.0128067
0.0164157
0.0185855
0.0209561
0.0226446
0.0235511
0.0246966
0.0230329
0.0246373
0.0234008
0.0251035
0.0249603
0.0237765
0.0210104
0.0183263
0.0163942
0.0174698
0.021448
0.0288344
0.0236879
0.0183715
0.0149303
0.0124141
0.0136774
0.0174214
0.00938339
0.00876528
0.00863835
0.00868749
0.00903194
0.00868911
0.00721357
0.00560344
0.00487275
0.0043407
0.012869
0.020947
0.0287327
0.0349166
0.039529
0.0428233
0.0448548
0.0453552
0.0426493
0.0334835
0.0290818
0.0253069
0.0212883
0.0177931
0.0179297
0.0257559
0.0332747
0.0404591
0.0464333
0.0504082
0.0479422
0.032259
0.0322074
0.0499892
0.0817637
0.0761116
0.0992584
0.115311
0.0668372
0.0486249
0.0461202
0.0606456
0.0638437
0.0569769
0.0476783
0.0377731
0.0276748
0.0319709
0.036048
0.0398051
0.0438625
0.0556029
0.0584018
0.0571776
0.0540304
0.049741
0.0440738
0.0362133
0.0260736
0.0149346
0.00490234
0.00566228
0.00713835
0.0101725
0.010476
0.0100945
0.0100912
0.0102686
0.0112801
0.0110098
0.0114983
0.0114102
0.0112317
0.0103408
0.00898403
0.0106176
0.0107057
0.0109159
0.0122226
0.0145981
0.011244
0.00766924
0.00680475
0.0063189
0.00689935
0.0128521
0.0221997
0.0278816
0.0324082
0.0354444
0.0347448
0.0320585
0.0272545
0.02228
0.020289
0.0174647
0.015349
0.014481
0.0156691
0.0131678
0.00743825
0.00521881
0.00575691
0.00568029
0.00517537
0.00620393
0.00689813
0.00751721
0.00794669
0.00826256
0.00832181
0.00825353
0.00815262
0.00809337
0.00805485
0.00800632
0.00792156
0.00780826
0.00765199
0.0075062
0.00743804
0.00803081
0.0106739
0.0146548
0.0144746
0.0133619
0.012256
0.0114026
0.00967885
0.0155812
0.0132575
0.011109
0.0102156
0.0100069
0.0102328
0.0110858
0.0125922
0.0135375
0.015532
0.0156063
0.0155586
0.0159014
0.0156458
0.0135649
0.0154227
0.0176243
0.0184249
0.018945
0.0186732
0.0171184
0.0191936
0.0203808
0.0199396
0.0193533
0.0170548
0.0200269
0.0233358
0.0237295
0.023811
0.021067
0.0181721
0.0213867
0.0226391
0.0224848
0.0234906
0.0223718
0.0232159
0.0269312
0.0160264
0.0168801
0.0130665
0.0100246
0.0103346
0.0106288
0.0103526
0.0109801
0.011538
0.0111093
0.0117051
0.011779
0.0104461
0.0129364
0.0121681
0.0123077
0.0110574
0.0105277
0.0104725
0.0113031
0.0131985
0.0209302
0.0222227
0.0194276
0.023041
0.0228622
0.0179758
0.0211234
0.022162
0.0231068
0.0235982
0.0245144
0.0223765
0.0244895
0.0243059
0.0221277
0.0213603
0.0380479
0.0251039
0.0166407
0.0158304
0.0155812
0.0155061
0.0174039
0.0129064
0.0142114
0.00959891
0.00823484
0.00781182
0.00749617
0.00786438
0.0111624
0.0170862
0.023914
0.0261824
0.0252963
0.0224554
0.0176061
0.0139639
0.0137863
0.0126682
0.0120756
0.0121316
0.0085489
0.00570739
0.00650275
0.00667883
0.00725447
0.00765587
0.00797796
0.0082168
0.00833966
0.00838912
0.00844197
0.00853743
0.00864313
0.00873183
0.00879623
0.00883108
0.00886439
0.00894335
0.00920276
0.0103376
0.0149981
0.0194777
0.0185077
0.0170577
0.0157357
0.0164743
0.0172273
0.0180345
0.0222602
0.0191537
0.0220495
0.0204814
0.0194514
0.0180791
0.018775
0.0205478
0.0161648
0.0160297
0.0108346
0.00948122
0.00915104
0.00897722
0.00884276
0.00870887
0.00859983
0.00850118
0.00840775
0.00832884
0.00827914
0.0082266
0.00810083
0.00785871
0.00749313
0.00703153
0.00660916
0.0072189
0.00731694
0.00808851
0.00941898
0.0103462
0.00992425
0.00901744
0.00839874
0.00828967
0.00840902
0.00856096
0.00874186
0.00900303
0.009421
0.0103196
0.0109449
0.0155581
0.0162624
0.0197972
0.0197001
0.0176282
0.0169758
0.0186725
0.0173385
0.0127603
0.0173553
0.0167276
0.020667
0.0151917
0.0142911
0.0146028
0.0150623
0.017945
0.0168174
0.0153756
0.0155124
0.0125114
0.0138897
0.0159139
0.0175676
0.0278245
0.027124
0.0344138
0.0347233
0.0597285
0.0566092
0.0496519
0.0542718
0.0238101
0.046293
0.0543308
0.0494293
0.0426921
0.0271238
0.0434287
0.0662566
0.0954045
0.0686479
0.0560714
0.104279
0.0760961
0.0371015
0.0266382
0.0150738
0.0152706
0.0252251
0.0293099
0.0241839
0.0233356
0.0336421
0.0350633
0.0281213
0.0288899
0.0313136
0.0302973
0.0327266
0.028243
0.0277045
0.0155283
0.0127153
0.0136573
0.0152956
0.0162317
0.0157497
0.0166115
0.0173178
0.0159598
0.0150158
0.0145319
0.012473
0.0133243
0.0163252
0.0205866
0.0241394
0.0174046
0.0139589
0.0126422
0.0124573
0.012238
0.0121272
0.0118161
0.0116468
0.0111964
0.0114401
0.0100189
0.00999374
0.0105095
0.0106491
0.0108262
0.0109462
0.0110214
0.0111009
0.0120182
0.0188764
0.0261638
0.0209183
0.0165811
0.0140961
0.0152722
0.0171852
0.0210854
0.0265361
0.0179122
0.0176952
0.0114977
0.0106792
0.0105138
0.0104053
0.0102925
0.0102276
0.0103168
0.0103571
0.012132
0.0116422
0.0134068
0.0145859
0.0120767
0.0116632
0.0112187
0.0109657
0.0108377
0.0107746
0.0108728
0.0117373
0.0115586
0.0106195
0.0105175
0.010621
0.0108193
0.0111346
0.0115955
0.0121308
0.0130685
0.012728
0.0113726
0.0114689
0.010764
0.0104007
0.0101442
0.0100907
0.0101108
0.0101938
0.0103686
0.011291
0.0171095
0.0173055
0.0266717
0.0267025
0.0212295
0.0177673
0.015618
0.0143617
0.0136378
0.0347893
0.030661
0.0487737
0.0387228
0.0309384
0.0500128
0.0712163
0.0553788
0.0902297
0.0974634
0.0719176
0.0654617
0.0207765
0.0158886
0.0155222
0.0170107
0.0186911
0.0213067
0.0218905
0.0266894
0.0287827
0.0171493
0.0164682
0.0154954
0.0249116
0.0230969
0.0197289
0.0178545
0.016476
0.0190225
0.0208001
0.0148825
0.014923
0.00957811
0.0105608
0.0103528
0.0100282
0.00996187
0.00994529
0.010003
0.0101306
0.0104367
0.0109959
0.0114232
0.0115549
0.0118069
0.0116733
0.0113706
0.0109918
0.0107569
0.0105425
0.0103769
0.0102563
0.0102866
0.010605
0.0107562
0.00943548
0.00978938
0.00991262
0.00995004
0.0100052
0.0100027
0.00990918
0.00975614
0.009615
0.00943107
0.00945643
0.0102154
0.0102981
0.0102718
0.0100496
0.0099456
0.00995249
0.00991073
0.00987011
0.00977565
0.00962022
0.00926785
0.00853671
0.00840836
0.00904058
0.009441
0.00968744
0.00985886
0.00983597
0.00970939
0.00944367
0.00925936
0.00914459
0.00890842
0.00855945
0.00726829
0.00749697
0.00783762
0.00828601
0.0087475
0.00914982
0.00940785
0.00952642
0.00956586
0.00944858
0.0091334
0.00858534
0.00853645
0.00896093
0.00918431
0.00919624
0.00899596
0.00865726
0.00812936
0.00746293
0.00679857
0.00626307
0.0059542
0.00551262
0.00694442
0.00746294
0.0078859
0.00826656
0.00873259
0.00927632
0.00960626
0.00972421
0.00963156
0.00939777
0.00899108
0.00841344
0.00844827
0.00899557
0.00940147
0.00961996
0.00970117
0.00942159
0.00883443
0.007908
0.00711484
0.00656681
0.00607665
0.00550447
0.00493432
0.00517445
0.00514404
0.00553861
0.00622624
0.00708409
0.0078949
0.00844043
0.00879584
0.00891049
0.00879491
0.00849127
0.00841126
0.00860604
0.00863
0.00839294
0.00786733
0.00712859
0.00623857
0.00549009
0.00514912
0.00534868
0.00564382
0.00534938
0.00462467
0.00520847
0.00567805
0.00618368
0.0070267
0.00819912
0.00903172
0.0094743
0.00956654
0.00940685
0.00900297
0.00847227
0.00848502
0.00902016
0.00943904
0.00961243
0.00949279
0.00899771
0.00822126
0.0068556
0.00556249
0.00510071
0.00474901
0.00422418
0.00538493
0.005746
0.00540283
0.0051713
0.00565486
0.00631449
0.00707099
0.00768736
0.00813558
0.0083991
0.00842092
0.00830401
0.00819266
0.00828941
0.00830724
0.00811337
0.0077881
0.0074357
0.00689629
0.00641382
0.00595784
0.00645711
0.00655769
0.00611725
0.00497951
0.00545274
0.00613725
0.00613785
0.0072256
0.00850469
0.00918818
0.00959585
0.00971389
0.00953448
0.00906495
0.0084938
0.00850319
0.00916999
0.00972609
0.00996094
0.01006
0.00983356
0.0097037
0.00887062
0.00779888
0.00759178
0.00586806
0.00509699
0.00634495
0.00687702
0.00699375
0.00683923
0.00769648
0.00803949
0.00819872
0.00833057
0.00843817
0.00841828
0.00826343
0.00809542
0.00799587
0.00855163
0.00926688
0.00915425
0.00897518
0.0087341
0.00837871
0.0080107
0.00755218
0.00802101
0.00828675
0.00787258
0.00639812
0.00712926
0.00895322
0.00889805
0.00946901
0.0102403
0.0106079
0.0108525
0.010849
0.0107531
0.0095691
0.00848258
0.00833186
0.00984513
0.0162899
0.0161807
0.0162486
0.0161988
0.0154648
0.0152655
0.014552
0.0142536
0.0134163
0.0128948
0.0121214
0.0141804
0.0179998
0.0201153
0.0224305
0.0248686
0.023403
0.0188221
0.0165081
0.0100987
0.00797607
0.00689072
0.00599761
0.00532282
0.00513289
0.00766775
0.00955312
0.0116983
0.0135912
0.0139043
0.0163125
0.0202214
0.0307483
0.0487129
0.0409661
0.0385374
0.0387557
0.0970478
2.55343
2.72127
2.48341
2.87074
3.33854
0.360942
0.151619
0.284193
0.308082
0.356312
0.338296
0.30826
0.283374
0.298394
0.286379
0.297335
0.276934
0.278668
0.242289
0.242557
0.247245
0.674565
0.980485
1.18725
1.6643
1.68554
1.90673
1.87278
1.90444
1.76877
1.88913
1.64365
1.36479
1.28871
1.21552
1.30614
1.42042
1.23396
1.1179
1.00593
0.909781
0.772957
0.982056
0.744636
0.701636
0.698232
0.727152
0.96504
0.86947
1.00199
0.945597
1.00983
0.639229
0.722002
0.534921
0.448218
0.374794
0.448763
0.596798
0.780137
0.943825
0.72027
0.953883
0.87345
0.84972
0.814891
0.752294
0.718578
0.711214
0.735003
0.749401
0.766123
0.794389
0.817189
0.835482
0.988455
1.04718
1.03108
0.845265
0.759326
0.526015
0.56275
0.598616
0.602786
0.563845
0.54208
0.484473
0.47088
0.422881
0.404826
0.364323
0.345824
0.313244
0.433678
0.747199
0.778916
0.848011
0.90494
0.953214
0.977145
0.991636
0.975473
0.942892
0.881322
0.856163
0.797637
0.901358
1.08526
1.09213
1.00915
0.854067
0.808274
3.6825
4.45865
2.97067
6.3468
9.51644
15.8664
7.51655
2.08722
3.47726
2.38712
2.11581
2.05574
2.15818
3.37638
2.44512
3.2125
2.62308
2.8379
2.14999
2.56845
2.50533
1.94732
1.65704
1.41341
1.34453
1.09191
1.09162
0.890127
0.823643
0.74591
0.609769
0.735214
0.726866
1.6306
2.18633
2.72354
4.27775
4.70118
5.16705
8.19001
6.70371
8.45786
5.08496
5.10261
3.77601
3.55873
3.60073
4.9549
7.01781
4.85644
8.42855
4.72591
15.3824
34.287
9.27086
19.1001
11.0355
9.98845
9.62954
9.9175
14.0356
9.44434
15.4033
12.6634
16.8547
15.9837
17.6782
14.0544
10.3895
11.5263
12.4125
15.9751
11.5388
13.576
10.381
10.1219
9.35253
7.67978
6.68332
5.09114
5.93821
6.89282
7.80722
12.3113
15.3447
17.7705
21.3878
15.9145
18.18
10.9768
11.9579
9.25424
8.67982
8.80506
11.5924
20.6934
14.6925
26.6451
0.494183
0.225616
0.541433
0.229109
0.488907
0.391073
0.403485
0.404165
0.399086
0.459325
0.219019
0.18462
0.177175
0.175161
0.176741
0.100228
0.124413
0.0804373
0.126943
0.228686
0.500644
0.363612
0.140268
0.082622
0.0546135
0.0429474
0.0634661
0.0612295
0.0979168
0.0991903
0.105322
0.131407
0.225641
0.42749
31.2344
7.02596
1.09559
0.508507
0.281031
0.173142
0.144419
0.162463
0.173556
0.174546
0.161795
0.13516
0.095255
0.0626908
0.0411533
0.0333531
0.0233608
0.0240268
0.0325436
0.0453015
0.0407509
0.0566392
0.0754604
0.0983128
0.121987
0.140828
0.155227
0.160979
0.151292
0.119863
0.0790624
0.0450708
0.0282144
0.0245612
0.0227662
0.0210896
0.0182767
0.0161905
0.0145268
0.0122744
0.0107017
0.00956808
0.00908868
0.00913417
0.0098405
0.0124082
0.0148841
0.0192113
0.0182375
0.0136529
0.0129765
0.00802966
0.00742588
0.00757086
0.00781895
0.00877496
0.0137965
0.0141115
0.0139836
0.0140023
0.013794
0.0136963
0.0135016
0.0132463
0.0130287
0.0126185
0.0123478
0.011914
0.0116409
0.0110479
0.0110714
0.0115223
0.0118509
0.0109054
0.0109387
0.0100374
0.0131135
0.0336275
0.0640411
0.0742844
0.0852016
0.0780418
0.0375855
0.0183458
0.00757086
0.00818557
0.00858791
0.00886923
0.00816959
0.00671136
0.00784628
0.00999669
0.0135487
0.0132058
0.0132041
0.0139795
0.0142509
0.0151488
0.0155393
0.0159516
0.0161757
0.0163895
0.0165955
0.0164433
0.0165947
0.0163172
0.0163937
0.0159779
0.0282878
0.0267795
0.0277238
0.0276429
0.0286426
0.0280562
0.0271787
0.0262514
0.02553
0.0243665
0.023368
0.022437
0.0215363
0.0225732
0.0220615
0.0140203
0.0132667
0.0100548
0.0090093
0.00821084
0.0100109
0.0096585
0.00825938
0.00933921
0.00787651
0.00847082
0.00929775
0.013106
0.013781
0.0216254
0.0212637
0.0186766
0.0196781
0.0198593
0.0205433
0.0212127
0.0222729
0.0232546
0.0242851
0.0264993
0.0269034
0.0253516
0.0251203
0.0236699
0.0254248
0.0243965
0.0228958
0.0248719
0.0262816
0.0286432
0.0283719
0.0259488
0.0247143
0.0234103
0.0214849
0.0192256
0.0185174
0.0175745
0.01836
0.0171945
0.020535
0.018792
0.0131111
0.0132319
0.00921308
0.00759667
0.00657688
0.00824452
0.010867
0.0237529
0.0139167
0.00768181
0.00989963
0.0151455
0.0284978
0.0175524
0.0240265
0.0171739
0.0148525
0.0158207
0.0151828
0.0165924
0.0186869
0.019512
0.0228295
0.025517
0.0272132
0.0279641
0.029211
0.0295193
0.0308835
0.0312964
0.0342994
0.0345203
0.034501
0.0340141
0.0318684
0.0287144
0.0267856
0.0330582
0.0380071
0.0408055
0.0432791
0.0458805
0.0446808
0.0406543
0.039837
0.0379917
0.0370264
0.0357802
0.0328659
0.0292238
0.0243654
0.0239806
0.030259
0.0360195
0.0536316
0.0567422
0.056425
0.058679
0.0590295
0.0606165
0.0609514
0.0635487
0.0640289
0.0651317
0.0654374
0.0711866
0.072021
0.0728627
0.073204
0.0727689
0.0736884
0.0737624
0.0502278
0.045202
0.0419725
0.0350118
0.0293592
0.0374952
0.0465652
0.0510219
0.0771703
0.0775242
0.0821496
0.084882
0.0908381
0.0948551
0.100611
0.105435
0.110454
0.113986
0.116297
0.116334
0.116775
0.11528
0.113772
0.122739
0.1582
0.174994
0.206145
0.221246
0.233554
0.237165
0.227339
0.230655
0.221409
0.223285
0.215651
0.212384
0.205797
0.197884
0.193241
0.18536
0.180474
0.208066
0.156278
0.119941
0.0809866
0.0644166
0.052558
0.0447838
0.0526851
0.04081
0.0337457
0.0530858
0.047549
0.0364084
0.0236403
0.0121589
0.0224216
0.0375244
0.0543591
0.0731102
0.0904265
0.102119
0.105302
0.104352
0.100803
0.094227
0.0801178
0.0623402
0.0451245
0.038766
0.0361137
0.0314695
0.0247292
0.0196422
0.0172886
0.0154984
0.0134517
0.0119401
0.0112784
0.0112288
0.0114916
0.0137236
0.017868
0.0179016
0.0119495
0.0117153
0.0080408
0.00810543
0.00834623
0.0139846
0.0141037
0.0218565
0.0243692
0.0229487
0.0236265
0.0233106
0.0235725
0.0231236
0.0218991
0.0210607
0.0201579
0.0193429
0.0187245
0.0179117
0.0172164
0.0185627
0.0176722
0.0150285
0.015046
0.0156254
0.0161653
0.0170065
0.0181769
0.0192224
0.0219072
0.0221746
0.0216195
0.0217421
0.0203033
0.0195916
0.0209213
0.0204908
0.0139666
0.0138299
0.0201967
0.0198248
0.0196003
0.0233925
0.0217197
0.0223133
0.0235398
0.0233318
0.0204006
0.0191001
0.0176515
0.0165297
0.0152116
0.0136853
0.0135328
0.0163515
0.0151572
0.0123033
0.0132748
0.0159739
0.018851
0.0202961
0.0223241
0.0250979
0.0259088
0.0280287
0.029349
0.0313365
0.0321328
0.036942
0.037694
0.0355947
0.0336472
0.03243
0.028534
0.0244725
0.0269999
0.0279829
0.028373
0.028377
0.0282246
0.0246539
0.0242362
0.0227883
0.0223182
0.0208372
0.0203293
0.0192144
0.0184886
0.0174924
0.0155512
0.0137388
0.0131364
0.0129976
0.0181338
0.011476
0.0112521
0.0166466
0.0104749
0.0122594
0.0120522
0.012555
0.0129266
0.0109253
0.0157776
0.0109544
0.0116124
0.0116629
0.0143412
0.010876
0.0122082
0.015513
0.0368705
0.0587802
0.127853
0.194996
0.228415
0.257603
0.280366
0.298531
0.319664
0.339738
0.356212
0.360734
0.33929
0.323909
0.262912
0.237206
0.26202
0.293924
0.206648
0.17842
0.181225
0.183207
0.186375
0.188511
0.192962
0.191433
0.197575
0.193295
0.201718
0.196227
0.204054
0.194705
0.176429
0.158535
0.121879
0.109602
0.0706799
0.0548868
0.0431207
0.0309886
0.0225399
0.020291
0.0191258
0.0174079
0.0174869
0.0134742
0.0136308
0.00860878
0.00624584
0.0101594
0.0101704
0.00741855
0.0103181
0.0118162
0.0123972
0.0129675
0.0132482
0.0203655
0.0204247
0.0259995
0.0256581
0.0303355
0.0360796
0.0375773
0.0414687
0.059463
0.0599541
0.0596874
0.0594087
0.0589235
0.0517357
0.0514585
0.0504203
0.0498636
0.0470728
0.0465797
0.0446329
0.0436294
0.0407748
0.0400914
0.0389495
0.0391011
0.033122
0.0329262
0.0369391
0.0230443
0.0199783
0.0176362
0.0148764
0.0180978
0.0152101
0.0149604
0.0136526
0.0188058
0.0135773
0.0139702
0.0158611
0.0160165
0.015381
0.0186075
0.0238447
0.02036
0.020413
0.045849
0.0267358
0.018857
0.0267531
0.0388689
0.111573
0.176756
0.109067
0.132034
0.162022
0.143023
0.118416
0.0732276
0.0605396
0.0367155
0.0231283
0.012966
0.0128026
0.0165497
0.025585
0.0389794
0.0959423
0.07604
0.100885
0.141991
0.165521
0.202086
0.188642
0.160138
0.13767
0.144684
0.173577
0.0996145
0.0741362
0.0641032
0.0643971
0.155753
0.216183
0.181904
0.221714
0.215748
0.0643665
0.023682
0.0176651
0.0153436
0.0143706
0.0130923
0.0201023
0.0120078
0.0122876
0.0129008
0.0139194
0.0174936
0.0300084
0.0138885
0.0153993
0.0189218
0.0163446
0.0154428
0.0150344
0.0149911
0.0156465
0.0171344
0.0222491
0.0222198
0.0218146
0.0165152
0.0176009
0.0159354
0.0192095
0.0204796
0.0341424
0.0153571
0.0163329
0.0216426
0.461906
0.0249057
0.018244
0.0228308
0.0211633
0.0296295
0.0483537
0.4191
0.0382982
0.0357248
0.0630996
0.0659277
0.070541
0.0740143
0.0771934
0.0796322
0.0832263
0.0858864
0.0869409
0.0881524
0.104066
0.104356
0.103105
0.107956
0.101943
0.0602477
0.0605331
0.101824
0.1101
0.0620278
0.0428293
0.0400109
0.03257
0.0338249
0.0436234
0.0458801
0.0642065
0.0641683
0.107243
0.0976615
0.0992222
0.101019
0.0955806
0.0960633
0.0986584
0.0981285
0.0787686
0.0764809
0.0748297
0.0718422
0.0685759
0.0657397
0.0627407
0.0589411
0.0544046
0.050904
0.0493368
0.0611579
0.0636759
0.0524421
0.0595196
0.051927
0.0506286
0.0513615
0.0537644
0.0563717
0.0600191
0.0647931
0.0682016
0.0697516
0.0704068
0.0737841
0.0962272
0.0995097
0.102465
0.0992037
0.103175
0.101458
0.0987722
0.109212
0.117253
0.0684066
0.0704622
0.0498779
0.0466652
0.0342464
0.0349804
0.0251512
0.0208951
0.0207994
0.0208355
0.0211853
0.024226
0.0338185
0.0337527
0.0492585
0.0487884
0.0541619
0.0785304
0.0754728
0.134794
0.123591
0.113461
0.105782
0.106309
0.108286
0.111419
0.106333
0.101533
0.0958488
0.0755131
0.0714904
0.0693265
0.0677267
0.0644401
0.060682
0.0623453
0.072254
0.0876243
0.118058
0.160241
0.210255
0.22375
0.0742185
0.122725
0.0477955
0.0847104
0.0755212
0.0754611
0.0574425
0.203046
0.18045
0.225758
0.357732
0.390905
0.433205
0.463479
0.384952
0.263252
0.160042
0.169382
0.232846
0.574364
0.660309
0.71453
0.749007
0.646224
0.535902
0.520814
0.49908
0.566437
0.623334
0.587574
0.6142
0.559346
0.529783
0.45713
0.512846
0.375952
0.339069
0.319209
0.310577
0.372904
0.302055
0.339922
0.279077
0.284857
0.231466
0.237823
0.198676
0.152164
0.144241
0.133738
0.149721
0.169696
0.155168
0.159008
0.138642
0.118498
0.094584
0.102475
0.0762635
0.0707113
0.0675946
0.0679769
0.0878295
0.267159
0.154229
0.159197
0.168868
0.181471
0.327959
0.290709
0.751314
0.529031
0.747483
0.496433
0.59077
0.492819
0.379231
0.394346
0.435643
0.621386
0.849122
6.73459
0.286719
4.31688
3.20036
3.35341
3.49601
4.4852
7.9301
7.17013
9.56097
6.8749
9.17578
4.98494
4.97952
4.3332
4.47526
4.4328
4.24249
4.85696
5.70128
0.219968
0.0891636
0.0853528
0.0856968
0.0874875
0.197969
0.0527594
0.203087
0.0542962
0.214859
0.0498822
0.248262
0.197921
0.0383204
0.0192597
0.0201118
0.0168106
0.0203948
0.0169224
0.0250521
0.0235299
0.023623
0.0260491
0.0686924
0.260427
11.0303
0.883974
0.364304
0.432237
0.669537
0.417335
0.676986
0.997119
0.632744
0.293349
0.175608
0.213124
0.244736
0.225922
0.316607
0.488443
0.486426
0.379134
0.385353
0.307017
0.486138
0.492329
0.637027
0.776982
0.741751
0.518159
0.385541
0.287162
0.61113
0.66829
0.619419
0.182152
0.0525524
0.0370535
0.0349787
0.0293962
0.03451
0.0342066
0.034301
0.054135
0.104278
0.0521654
0.206077
0.219397
0.451735
0.330276
0.341026
0.257923
0.313855
0.454938
0.503614
0.567117
0.610831
0.613071
0.490281
0.941247
1.5177
1.68774
10.9786
15.7743
2.49957
2.83883
13.5479
0.303888
0.0797896
0.0227258
0.0173002
0.016185
0.0161211
0.0149977
0.015538
0.0160007
0.0169668
0.0188409
0.0232264
0.0459723
0.202548
0.204586
0.064631
0.0325377
0.0230026
0.0196267
0.0170504
0.0163891
0.0155318
0.0154606
0.0149993
0.0156304
0.0173806
0.0235627
0.0769381
0.275253
11.6311
2.41702
2.27459
8.50184
5.88015
0.208633
0.0440935
0.02012
0.0169312
0.0158857
0.0167652
0.0162704
0.0182169
0.0184068
0.0230257
0.0250444
0.0318542
0.0573868
0.110931
0.31909
9.81068
8.85549
8.598
7.98856
0.313513
0.11617
0.054648
0.0382935
0.0346522
0.0338304
0.0226559
0.0236964
0.0190004
0.0216999
0.0183279
0.0227792
0.0486866
0.213848
5.42951
1.59213
1.71896
1.23184
0.607661
0.640833
0.644454
0.655667
1.59515
3.42857
4.363
3.01014
3.09454
4.27997
2.90797
2.28509
1.66892
1.63054
2.3664
1.86981
1.7674
1.29133
1.38872
1.04705
1.45269
0.804072
0.985465
1.07432
1.51132
1.39495
1.41444
0.917226
1.05467
1.46419
1.75909
1.69361
0.848366
1.24639
1.01652
0.652994
0.586935
0.601349
0.563332
0.528726
0.543036
0.555849
0.542656
0.562775
0.548049
0.587289
0.551055
0.530217
0.498122
0.514756
0.525566
0.553035
0.3523
0.415336
0.42205
0.433814
0.4441
0.354797
0.436447
0.407263
0.617031
0.929462
0.598997
0.737425
0.487942
0.89084
1.81056
5.04445
1.52696
0.575433
1.23942
1.61021
1.1255
0.617547
2.54741
3.65917
1.24749
1.84986
10.8317
8.69326
17.006
10.5428
17.4249
5.42587
4.47313
17.1208
6.20322
6.22943
4.05202
4.22305
2.59114
1.35463
1.34469
1.42754
1.01689
1.05001
0.982958
1.04474
1.30925
1.20845
1.56588
1.73601
2.22961
1.64879
1.51223
2.14029
0.901726
1.10214
1.48542
1.47119
1.09711
1.83318
2.55236
2.15401
1.50268
1.89033
2.94731
4.0816
3.55715
2.40461
2.97897
8.97403
11.988
12.556
3.64341
19.625
17.652
1.48539
0.336469
0.143387
0.0515957
0.0389801
0.0374893
0.04011
0.133621
0.0474278
0.0564181
0.0426528
0.0522908
0.0613645
0.0758204
0.165008
0.105103
0.156345
0.119475
0.110607
0.0803814
0.116874
0.131225
0.126565
0.0964088
0.0712766
0.119711
0.159986
0.0655532
0.163674
0.18043
0.124231
0.169009
0.190882
0.095171
0.777646
0.145995
0.0795662
0.0754553
0.198799
0.807207
0.11984
0.323466
3.74396
14.2361
3.04835
0.674723
0.442714
0.0501482
0.0274025
0.02534
0.0243827
0.0185042
0.0479875
0.0595061
0.275001
0.144649
0.27577
0.662899
3.07641
2.19331
0.754319
4.49357
10.0978
15.0063
8.78757
1.66645
9.01735