/*--------------------------------*- C++ -*----------------------------------*\
| =========                 |                                                 |
| \\      /  F ield         | OpenFOAM: The Open Source CFD Toolbox           |
|  \\    /   O peration     | Version:  v2012                                 |
|   \\  /    A nd           | Website:  www.openfoam.com                      |
|    \\/     M anipulation  |                                                 |
\*---------------------------------------------------------------------------*/
FoamFile
{
    version     2.0;
    format      ascii;
    class       volScalarField;
    location    "75";
    object      nut;
}
// * * * * * * * * * * * * * * * * * * * * * * * * * * * * * * * * * * * * * //

dimensions      [0 2 -1 0 0 0 0];


internalField   nonuniform List<scalar> 
18258
(
0.00429925
0.00191526
0.00163311
0.00145973
0.00095577
0.00152719
0.00207154
0.00245377
0.00256606
0.00250895
0.00256706
0.00428788
0.00598072
0.00734797
0.00769085
0.0076709
0.00694423
0.00667237
0.00732287
0.00898122
0.00753869
0.00483144
0.00579545
0.00669173
0.00725245
0.00642747
0.00520286
0.00483304
0.00438948
0.00367462
0.00309493
0.00213854
0.00149194
0.00139095
0.00126602
0.00144752
0.00158029
0.0016875
0.00172631
0.00175504
0.00174441
0.00173542
0.00168865
0.00165634
0.00160039
0.00131317
0.00155269
0.00157865
0.00173672
0.00238465
0.00256406
0.00216363
0.00241387
0.00216896
0.00144356
0.00165317
0.00179459
0.00183631
0.00181691
0.00174536
0.00172298
0.00170402
0.00167892
0.00164838
0.00163026
0.00164802
0.00166562
0.00164724
0.00156592
0.00149909
0.00139023
0.00128086
0.00119871
0.00113473
0.0010867
0.00103705
0.000981043
0.000862274
0.000799216
0.00105981
0.00133045
0.00142108
0.00201192
0.00245246
0.00246824
0.00183707
0.00130139
0.00134739
0.00150279
0.00152678
0.00129994
0.00156652
0.001786
0.00186168
0.00194566
0.00217474
0.00241581
0.00234587
0.00206281
0.00227566
0.00242199
0.00240005
0.00221345
0.00285858
0.00294928
0.00286753
0.00246299
0.00236495
0.00309954
0.00340769
0.0027319
0.00253039
0.00247083
0.00245093
0.00220268
0.0022594
0.00203709
0.00183439
0.00199132
0.00243885
0.00231723
0.00254234
0.00263201
0.00246769
0.00285943
0.00329649
0.00323669
0.00258839
0.00207584
0.00193445
0.00195085
0.00119206
0.00128811
0.00140843
0.00144226
0.00146052
0.00147817
0.00157523
0.00157173
0.00154813
0.00154537
0.00158258
0.000867477
0.000937139
0.000961224
0.000968012
0.000920098
0.000913308
0.000899198
0.000886119
0.000824683
0.000787422
0.00094376
0.00106087
0.00115621
0.0012648
0.00143359
0.00163905
0.00185326
0.00206833
0.00220968
0.002248
0.00228749
0.00220191
0.00211691
0.00219075
0.00220295
0.00218908
0.00216057
0.00212408
0.00207346
0.00197934
0.00208665
0.00208181
0.00195779
0.00167265
0.00171013
0.00170579
0.00174961
0.00174129
0.00176004
0.00173699
0.00170984
0.00162953
0.00151819
0.00127837
0.00124944
0.00126989
0.00163432
0.00198707
0.00307306
0.00375111
0.004356
0.00465772
0.00499818
0.00404451
0.00449997
0.00346698
0.00311384
0.00396008
0.00518338
0.00295602
0.00161478
0.00305604
0.0027101
0.0019596
0.00174057
0.00178948
0.00178079
0.00201808
0.00231503
0.00255771
0.00267329
0.0027817
0.00286342
0.00295713
0.00307731
0.00310972
0.00300439
0.00254408
0.00305055
0.00246324
0.00286592
0.00259195
0.00176253
0.00181615
0.00196286
0.00180674
0.00175889
0.00168043
0.00153668
0.00205108
0.00259182
0.00296859
0.00336681
0.00449128
0.00414346
0.00395809
0.00307503
0.00296857
0.00155866
0.00222507
0.00229766
0.00259025
0.00171873
0.00156687
0.00147415
0.00189704
0.0021746
0.00256609
0.0028439
0.00338479
0.00260114
0.00296221
0.0026806
0.00187672
0.00180309
0.00257414
0.00277896
0.00229709
0.00206269
0.00257262
0.00242569
0.0017216
0.00137512
0.00212445
0.00221725
0.00162315
0.0039506
0.0040155
0.00390285
0.00474904
0.00600596
0.00688977
0.00640753
0.00568416
0.00636541
0.0050063
0.00484212
0.00520704
0.00436338
0.00307056
0.00317131
0.00330171
0.00340047
0.00365638
0.00388724
0.00416738
0.00445933
0.00407091
0.00340069
0.00258791
0.00180464
0.00179668
0.00178707
0.00160328
0.00237378
0.00356608
0.00351948
0.00198632
0.00116414
0.00132981
0.00150412
0.00148702
0.00106465
0.000807365
0.00139045
0.00158714
0.00161101
0.00156977
0.00148125
0.00154706
0.00248418
0.00382702
0.00420529
0.00435521
0.00449666
0.00459621
0.00465095
0.00466744
0.00467625
0.00468766
0.00469808
0.00471455
0.00470056
0.0046011
0.00404738
0.00254423
0.00148873
0.00138498
0.00152922
0.0016443
0.0017455
0.00148651
0.000907155
0.00144982
0.00185533
0.00212989
0.00214699
0.00200298
0.00194247
0.00306265
0.00407247
0.00480044
0.00494737
0.00501216
0.00495596
0.00494753
0.00483806
0.00480294
0.00421035
0.00301977
0.00330158
0.00354539
0.00358708
0.00367057
0.00379541
0.00370662
0.00349946
0.00512924
0.00590155
0.00597751
0.00610427
0.00602797
0.00591606
0.00563245
0.00531266
0.00446888
0.00334939
0.00211103
0.0021539
0.00229206
0.00226923
0.00197498
0.00208663
0.00226845
0.00229159
0.002368
0.0026578
0.00302176
0.00288026
0.00247227
0.00210497
0.0019627
0.00192754
0.001853
0.00139438
0.00141147
0.001367
0.00138524
0.00185282
0.00220464
0.00254446
0.0036183
0.00322694
0.00262344
0.00418428
0.00428465
0.00460938
0.00509276
0.00522327
0.00581294
0.0040202
0.00361198
0.00370886
0.00302572
0.00279833
0.00282521
0.00283498
0.00263593
0.00288513
0.00285955
0.0027563
0.00304401
0.00336375
0.00443939
0.00539006
0.00569794
0.00587893
0.00595325
0.00592974
0.0058063
0.00583601
0.0051305
0.00512087
0.00490742
0.00476642
0.00471449
0.00447637
0.0051292
0.00532741
0.00539283
0.00552563
0.00573173
0.00558163
0.00540926
0.00527872
0.0051831
0.00508047
0.00513665
0.00523521
0.00533824
0.00548182
0.00567416
0.00571033
0.00551136
0.00535996
0.00525475
0.00515526
0.00516048
0.00524957
0.00535259
0.00549624
0.00567668
0.00557162
0.00543402
0.0053076
0.00520279
0.00510951
0.00493044
0.00505107
0.00518243
0.0052888
0.00535357
0.00461837
0.004944
0.00486178
0.0044022
0.0041198
0.00312797
0.00338523
0.00356952
0.00388728
0.00431269
0.00439374
0.0036817
0.00315268
0.00306723
0.00304142
0.00311226
0.00313925
0.00315868
0.00357202
0.00545055
0.00548187
0.00547975
0.00547139
0.004661
0.00453202
0.00423134
0.00784646
0.00727848
0.00627462
0.00513523
0.00273691
0.00234652
0.00278283
0.00338418
0.00378156
0.00417081
0.00277079
0.00170965
0.00198827
0.00205405
0.00199324
0.00183931
0.00153454
0.00141593
0.00128324
0.00138101
0.00245206
0.00392584
0.00442357
0.0044684
0.00441798
0.00431853
0.00418692
0.0040046
0.00423046
0.00652305
0.00772446
0.00807612
0.00799061
0.00685525
0.00576307
0.00337791
0.00185346
0.00157211
0.00159367
0.00154916
0.00167629
0.00179543
0.00163429
0.00165336
0.00160501
0.00291728
0.00491154
0.00570797
0.00689115
0.00706262
0.00655775
0.00540514
0.00437044
0.00445216
0.00456959
0.00463714
0.00470001
0.00474168
0.00471329
0.00428582
0.00263826
0.00157363
0.00139548
0.00149779
0.00175704
0.00187137
0.00189737
0.00187691
0.00163147
0.00270846
0.00429577
0.00273395
0.00148734
0.00160266
0.0015863
0.00280021
0.00280146
0.00274951
0.00427773
0.00453561
0.00453845
0.0042622
0.00406111
0.00240406
0.00274135
0.00275346
0.0027685
0.00281314
0.00142248
0.00155135
0.00160042
0.00172421
0.00150204
0.0018885
0.000489404
0.000681488
0.000792076
0.000866825
0.000934885
0.000916643
0.00176173
0.00179563
0.00171027
0.00165044
0.00209537
0.00225233
0.00229829
0.00211192
0.00194715
0.00207415
0.00208179
0.00196261
0.00185809
0.00192452
0.00192388
0.00184384
0.001568
0.00146928
0.00161272
0.00159669
0.001585
0.00284213
0.00283691
0.002685
0.00441206
0.00434344
0.00486352
0.00482789
0.00480885
0.00477398
0.00482711
0.00486823
0.00490105
0.00492883
0.0049194
0.00487172
0.00687727
0.00479269
0.00418243
0.0024197
0.00233115
0.00164675
0.00144397
0.00170081
0.0018195
0.00197301
0.00192888
0.00203191
0.00202835
0.00215327
0.00199788
0.00177347
0.00271587
0.0029018
0.00283428
0.0028904
0.0028219
0.00280499
0.00278417
0.00274464
0.00269694
0.00160636
0.00157603
0.00184618
0.00193844
0.00208306
0.00210158
0.00214735
0.00203582
0.00178997
0.00173261
0.00199588
0.00196877
0.00200762
0.00189235
0.00188407
0.00167819
0.001721
0.00347728
0.0064667
0.00330174
0.00367434
0.00332827
0.00379335
0.00331501
0.0028543
0.00291912
0.00256937
0.00268007
0.0028106
0.00286112
0.00300638
0.00354334
0.00340888
0.00299273
0.00290688
0.00285064
0.00268932
0.0024211
0.00253339
0.00255347
0.00260673
0.00289672
0.00332512
0.00372447
0.00453665
0.00439972
0.00384927
0.00352054
0.00368908
0.00375614
0.00473766
0.00441896
0.00439753
0.00465112
0.00461664
0.0043803
0.00414457
0.00399699
0.00342941
0.00348887
0.00399691
0.00386328
0.00397846
0.00390516
0.00406349
0.00413419
0.00396392
0.00368089
0.00388493
0.00388196
0.00430431
0.00418016
0.00387989
0.00353909
0.00379642
0.00376171
0.00433622
0.00407335
0.00380993
0.00351267
0.003374
0.00382826
0.00375023
0.00424784
0.00437949
0.00438537
0.00382853
0.00372998
0.00443194
0.00426288
0.00413177
0.00430399
0.00357224
0.00365484
0.00450378
0.00459605
0.00436988
0.00365961
0.00369613
0.00316308
0.00371881
0.00463561
0.0043796
0.00359098
0.00299526
0.00417385
0.00438611
0.00464389
0.00438896
0.00477807
0.00515661
0.00419544
0.00457192
0.00599308
0.00454024
0.00527081
0.00538712
0.00541648
0.00541533
0.00543119
0.00545253
0.00573834
0.00557354
0.00355552
0.00424358
0.00413523
0.00346531
0.00294931
0.00325077
0.00350351
0.00355696
0.00365002
0.00379124
0.00372489
0.00358669
0.00521138
0.00593365
0.00608367
0.00621785
0.00610664
0.00593195
0.0055764
0.00519592
0.00435533
0.00325661
0.00204562
0.00208712
0.00222551
0.00220758
0.0019177
0.00144277
0.00095304
0.00141215
0.00147117
0.00139615
0.00128478
0.0011555
0.00122746
0.00219339
0.00354024
0.0039469
0.00387414
0.00555283
0.00647432
0.00715536
0.00760212
0.00790905
0.00811253
0.00823416
0.00825515
0.00809339
0.00744146
0.00714137
0.00676771
0.00647255
0.00605768
0.00567133
0.00637973
0.00696942
0.00731575
0.00770081
0.00784557
0.00773056
0.0067228
0.00673576
0.0077655
0.00947487
0.0080084
0.0100383
0.0118726
0.00932223
0.0083333
0.0082424
0.00908159
0.00928787
0.00901554
0.00854437
0.00799024
0.00727571
0.00762056
0.00792263
0.00820584
0.00847142
0.00916691
0.00931386
0.00924833
0.00907523
0.00883223
0.00849187
0.00796818
0.00715562
0.00594957
0.00407814
0.00414407
0.00375474
0.00210675
0.00237701
0.00236086
0.00234586
0.00234507
0.0011166
0.00123617
0.00125827
0.00127137
0.00118895
0.00136964
0.00196386
0.0031592
0.00233849
0.00200659
0.00125247
0.00142891
0.00239047
0.00395971
0.00438181
0.00436381
0.00449612
0.00550459
0.00657375
0.00706711
0.00741327
0.0076257
0.0075668
0.00735976
0.00697048
0.00651683
0.00632532
0.00600844
0.0057524
0.00563191
0.00541923
0.0051201
0.00420209
0.00373798
0.00389431
0.0038638
0.0036939
0.00393981
0.00407952
0.00407474
0.00411955
0.00415913
0.00428167
0.0044254
0.00454978
0.00461353
0.00463518
0.00463984
0.00464642
0.00465137
0.00466362
0.00464664
0.00454469
0.00399154
0.00249939
0.00146098
0.00135234
0.0014831
0.00156885
0.00160602
0.00142682
0.000918245
0.00142809
0.00184811
0.00189178
0.00207112
0.00213166
0.00225323
0.00250364
0.00289694
0.00299175
0.00265698
0.0025198
0.00246875
0.00240377
0.00207926
0.00259357
0.00283326
0.00282722
0.00279654
0.00302
0.00371356
0.00357281
0.00315337
0.00312332
0.00309264
0.00282417
0.00278831
0.00301493
0.00304626
0.00315238
0.00369149
0.00442005
0.00410652
0.00374522
0.00360232
0.00333157
0.0029611
0.0026796
0.0032271
0.00268521
0.00152225
0.00140432
0.0012409
0.00124521
0.00122432
0.00145409
0.00153898
0.0015713
0.00145831
0.00160684
0.00177326
0.00169038
0.00189546
0.00188226
0.00170988
0.00166718
0.00174879
0.00180951
0.00188858
0.00197187
0.00325608
0.0034283
0.00264918
0.00377697
0.00425666
0.00407937
0.00436922
0.00364305
0.00332466
0.00393478
0.00447094
0.00500565
0.00400085
0.00382572
0.00386741
0.00180435
0.000950187
0.00134083
0.00166809
0.00187761
0.00182625
0.00172073
0.00145371
0.00257131
0.00262461
0.00410621
0.00459075
0.0046332
0.00459182
0.0046577
0.00521943
0.00599871
0.00669456
0.00688865
0.00680205
0.00653075
0.0060192
0.00557549
0.00555786
0.00539912
0.00529098
0.00527702
0.00466731
0.00404959
0.00417781
0.00413038
0.00426515
0.00432619
0.0043694
0.00441404
0.00449074
0.00458314
0.00466585
0.00472209
0.00475871
0.00478938
0.00482077
0.00485134
0.00488379
0.00489728
0.00484445
0.00437368
0.00263137
0.00157304
0.00143812
0.0015347
0.00180312
0.00189773
0.0020397
0.00181379
0.000955799
0.00112471
0.00195394
0.00215856
0.00199528
0.001868
0.00183404
0.00153645
0.00277163
0.0027321
0.00427499
0.00481086
0.00488301
0.00487434
0.00484047
0.00480141
0.00476797
0.00474113
0.00472104
0.00469908
0.00466599
0.00462295
0.00457889
0.00453159
0.00445747
0.00433559
0.00430859
0.00447566
0.0045046
0.0046546
0.00490095
0.00506789
0.00500378
0.00484442
0.00473082
0.00471698
0.00474932
0.004786
0.00481908
0.0048329
0.00477519
0.00449733
0.00421855
0.00268172
0.00271669
0.00134509
0.00149637
0.00172634
0.00178243
0.00193977
0.00193533
0.00152665
0.00118584
0.00133395
0.00124205
0.002213
0.00243164
0.00269225
0.00266569
0.00145596
0.00149158
0.00154999
0.00175478
0.00163258
0.00157165
0.00380084
0.00367601
0.0038614
0.00473343
0.00409058
0.00284299
0.00312619
0.00434177
0.0045659
0.00277361
0.00207229
0.00230907
0.00293031
0.00430184
0.00434586
0.00411678
0.00410462
0.00302153
0.00370429
0.00443002
0.00430648
0.00338984
0.00233958
0.00172744
0.000843786
0.00160637
0.00137702
0.00335308
0.0037065
0.00365134
0.00399261
0.0042493
0.00429449
0.00416652
0.00370763
0.00378002
0.00381569
0.00433858
0.00435001
0.0036986
0.00312047
0.00254117
0.00255887
0.00260444
0.0028832
0.00361173
0.00340517
0.00298692
0.00290002
0.00284182
0.00267738
0.00241633
0.00212539
0.00213962
0.00199173
0.00192789
0.00303773
0.00404149
0.00476478
0.00490315
0.00495394
0.00487902
0.00484598
0.00470967
0.00464097
0.00403556
0.00516149
0.00544858
0.00525317
0.00528824
0.00531689
0.00535143
0.00534477
0.00523937
0.00450849
0.00269553
0.0017617
0.00198803
0.00214588
0.00201555
0.0020033
0.00213438
0.00202461
0.00177845
0.00288092
0.00281382
0.00449419
0.00508336
0.00519877
0.00521508
0.00520035
0.00518801
0.00519872
0.00547831
0.005355
0.00541053
0.00567118
0.00569416
0.00576614
0.0054157
0.00535048
0.00531135
0.00528632
0.00524145
0.00511376
0.00452432
0.00438485
0.00497957
0.00513207
0.00519745
0.00524204
0.0052968
0.00537216
0.00558889
0.00574926
0.00579307
0.00557962
0.00550439
0.00537054
0.00518089
0.00513483
0.00512161
0.00511284
0.00507886
0.0049402
0.00435113
0.00279984
0.00286988
0.00170804
0.00172024
0.00198147
0.00208207
0.00204554
0.00189444
0.00184756
0.00314492
0.00357773
0.00381595
0.00410185
0.00391358
0.00389477
0.00445725
0.00431291
0.00386548
0.00401603
0.0035901
0.00342111
0.0032989
0.00330871
0.00176536
0.00190465
0.001986
0.00195218
0.00186636
0.00166412
0.00152581
0.00278253
0.00276206
0.00272347
0.00162287
0.00158763
0.00187097
0.00181751
0.00166305
0.0014173
0.00155317
0.00239168
0.00267466
0.00414177
0.00428875
0.00459665
0.00491718
0.00504618
0.00508864
0.00511218
0.00513927
0.00519075
0.0052571
0.00527978
0.00527601
0.00531408
0.00531804
0.00531615
0.0052812
0.00524307
0.00520248
0.00516118
0.00509541
0.00495905
0.00463369
0.00431544
0.00486475
0.00491046
0.0050042
0.00510293
0.00514683
0.00515824
0.00514653
0.00511798
0.00508291
0.0050358
0.00503017
0.0051613
0.00518565
0.00519609
0.00516877
0.00515283
0.00514953
0.00513054
0.00508923
0.00498101
0.00488186
0.00483546
0.00475262
0.00488261
0.0049445
0.00496224
0.00502116
0.00511291
0.00513417
0.0051218
0.00507868
0.00504601
0.00502293
0.0049759
0.00490746
0.00464712
0.0046978
0.00477124
0.00486261
0.00495077
0.00502151
0.00505861
0.00505488
0.00500018
0.00496366
0.00496144
0.00491672
0.00493945
0.00496723
0.004949
0.004955
0.00497009
0.00492755
0.0048342
0.00470264
0.00456038
0.00443764
0.00436299
0.00425192
0.00459212
0.00470419
0.00479188
0.00486742
0.0049554
0.00505163
0.00510136
0.00510062
0.00503179
0.00498677
0.00497263
0.00491572
0.00491845
0.00497729
0.00499514
0.00503742
0.00510319
0.00507482
0.00497696
0.0048015
0.00463742
0.00451591
0.0044005
0.00425756
0.00410521
0.00417097
0.00416288
0.00426599
0.00443365
0.00462375
0.00478443
0.00487191
0.00488948
0.00490715
0.00494055
0.0049268
0.00490362
0.00490192
0.00485643
0.0048177
0.00476485
0.00463113
0.00443897
0.00425824
0.00416986
0.00422343
0.00429928
0.00422275
0.00402273
0.00418575
0.0043084
0.00443226
0.00462333
0.00486222
0.00501102
0.00506899
0.0050317
0.00499667
0.00497484
0.004915
0.00490552
0.00496549
0.0049918
0.00503274
0.00506855
0.00500252
0.00486438
0.00458232
0.004275
0.0041546
0.00405837
0.00390418
0.00423337
0.00432465
0.00423512
0.00417242
0.00429746
0.00445486
0.0046167
0.00472513
0.00476212
0.00480385
0.00485607
0.0048725
0.00482879
0.00479056
0.00473537
0.00470358
0.00469097
0.0046415
0.00453398
0.00442469
0.00432145
0.00445314
0.00449501
0.00440793
0.00411555
0.00422664
0.00437818
0.00436435
0.00460393
0.00486194
0.00498027
0.00502794
0.00499215
0.00495387
0.00492994
0.0048823
0.00483908
0.00485379
0.00487274
0.0049449
0.00501894
0.00500579
0.0049887
0.00483066
0.00461448
0.00461371
0.00429316
0.00413513
0.00444847
0.00452658
0.00448955
0.00441717
0.00460743
0.00468567
0.00471205
0.0047141
0.00468073
0.00464851
0.00469663
0.0047717
0.00470397
0.00441681
0.0041528
0.00429184
0.00431454
0.00429209
0.00423702
0.00415636
0.00395657
0.00437584
0.00476481
0.00477163
0.0044527
0.00453132
0.00453821
0.00417891
0.00439575
0.00453057
0.00457872
0.00459589
0.00454083
0.00435922
0.00458525
0.00477682
0.00473616
0.00430637
0.00281231
0.0028545
0.00287692
0.00288111
0.0028359
0.00282412
0.00277576
0.00275261
0.00268193
0.00261372
0.00254742
0.00271573
0.0028615
0.00305624
0.00306809
0.00314486
0.00300695
0.00284449
0.00265285
0.00206767
0.00262465
0.00313241
0.00333385
0.00359149
0.0036476
0.00421449
0.00443138
0.00454067
0.00444309
0.00356462
0.00302189
0.0024131
0.00156869
0.000976405
0.00114469
0.00118934
0.0012483
0.00153127
0.00282451
0.00143762
0.00199046
0.00155359
0.00267803
0.00138344
0.00088978
0.000590982
0.00075814
0.000910638
0.000923983
0.00088767
0.000742019
0.000587077
0.00060014
0.000559736
0.000594796
0.000530867
0.000607322
0.000562754
0.00078065
0.00113859
0.00128686
0.00131811
0.00106746
0.00120952
0.00101173
0.0011704
0.00104813
0.00114456
0.00109931
0.00134486
0.00147451
0.00141119
0.00141428
0.00123802
0.000866054
0.00100428
0.000788789
0.000947887
0.000723716
0.00093188
0.000799495
0.00103853
0.00106939
0.0010652
0.00102446
0.000781635
0.000923314
0.000727218
0.000898402
0.000742048
0.000803378
0.000669954
0.000976124
0.000996174
0.000920364
0.000976914
0.00109287
0.00116553
0.00127094
0.00120069
0.00135636
0.00130619
0.00131641
0.00125
0.00122104
0.00119578
0.00120115
0.00118307
0.00119048
0.00122955
0.00123157
0.00123712
0.00127585
0.00125826
0.00122535
0.00120421
0.00107016
0.000865104
0.00150736
0.00155387
0.00157911
0.00157961
0.00154629
0.00152525
0.00146471
0.00144925
0.00139849
0.00137226
0.00130668
0.00125673
0.00119726
0.00134676
0.000755696
0.000859281
0.000907828
0.000936946
0.00095556
0.000965153
0.00097131
0.000965981
0.000953805
0.000932638
0.000926562
0.00090222
0.00115293
0.00131211
0.00137537
0.00139392
0.00130506
0.00124261
0.00276554
0.00335609
0.005056
0.00516599
0.00389925
0.00387455
0.00132088
0.00140412
0.000958506
0.00134652
0.00138775
0.00137202
0.00129353
0.000930648
0.00139215
0.000971472
0.00130056
0.000984244
0.00120161
0.00101428
0.00145693
0.00186633
0.00180868
0.00164228
0.00113998
0.000950806
0.000954544
0.000816201
0.00089221
0.00072963
0.000889422
0.000745512
0.00109384
0.00151143
0.00166679
0.00170023
0.00134145
0.00185212
0.00139558
0.00202432
0.00161454
0.00199728
0.00160935
0.00185766
0.00229936
0.00231129
0.00225714
0.0018195
0.0014532
0.00163389
0.00144452
0.00166726
0.00241098
0.00157815
0.00241341
0.00099569
0.00135806
0.00140032
0.00138124
0.00130212
0.000875787
0.00221948
0.00117495
0.00207277
0.00134157
0.00213161
0.00156871
0.00209591
0.00250448
0.00262924
0.00262141
0.00214239
0.00194312
0.00202146
0.00161714
0.00193971
0.0014396
0.00208521
0.00117497
0.00152268
0.0016756
0.00175885
0.00176246
0.00144492
0.00284924
0.00179432
0.00270707
0.00188815
0.00242056
0.00194236
0.00211866
0.00250373
0.00248767
0.00246603
0.00209139
0.00169593
0.00224048
0.00159359
0.0482299
0.110772
0.0443618
0.111998
0.0504182
0.0717282
0.070684
0.0708455
0.071212
0.0536576
0.117111
0.138019
0.14373
0.145401
0.14428
0.23313
0.190147
0.28555
0.185101
0.109265
0.0475952
0.065517
0.168413
0.277536
0.41647
0.528591
0.360194
0.373018
0.238022
0.234847
0.221458
0.17961
0.110688
0.0557008
0.00934288
0.0101582
0.0146902
0.019735
0.0154943
0.00942654
0.00184988
0.00190616
0.00194496
0.00196577
0.00195065
0.00189839
0.00191617
0.00180374
0.00168122
0.00185551
0.00199595
0.00220177
0.00255902
0.0028566
0.00254904
0.0028426
0.00305006
0.0032144
0.00334198
0.00352247
0.00372477
0.00391403
0.0039392
0.00362454
0.00309214
0.00254387
0.00217111
0.00206331
0.00194551
0.00171431
0.00156992
0.00147968
0.0014284
0.00140303
0.00143657
0.00156523
0.00167173
0.00170672
0.00166588
0.00163355
0.00160515
0.00142779
0.00166705
0.00228656
0.00231483
0.00396443
0.00456838
0.00466179
0.00466623
0.00415374
0.00265775
0.00266322
0.00267686
0.00272736
0.00273692
0.00273889
0.00273488
0.00272018
0.00270497
0.00267742
0.00266474
0.00262937
0.00259433
0.00251011
0.00251382
0.00255085
0.00257702
0.00254885
0.00257107
0.00250503
0.00273772
0.00375067
0.0046531
0.00491899
0.00513506
0.00498132
0.00673946
0.00554118
0.00414069
0.00422203
0.00414886
0.00485122
0.00483506
0.00452819
0.00465657
0.00436416
0.00269258
0.00266632
0.0026653
0.00276025
0.00279424
0.00285484
0.00287033
0.00289377
0.0029068
0.00291691
0.00291889
0.00290036
0.00288366
0.00281411
0.00279131
0.00278217
0.00153247
0.00167557
0.00174241
0.00175191
0.00177275
0.00176124
0.00174357
0.0017245
0.00171138
0.00169213
0.00167488
0.00164392
0.00158162
0.00144417
0.00159607
0.00272684
0.00272356
0.00452309
0.00491305
0.0048614
0.00519364
0.00502876
0.00479051
0.00507599
0.00479564
0.00483093
0.00443739
0.00274459
0.00278224
0.00164284
0.00161918
0.00188754
0.00182963
0.00192144
0.00194803
0.00193564
0.00194904
0.00197209
0.00200042
0.00205746
0.00207114
0.00204521
0.00204208
0.00191596
0.00164981
0.00167017
0.00197782
0.00208405
0.00192735
0.00188785
0.00187521
0.00182585
0.00179456
0.00176579
0.00180353
0.00196219
0.00199008
0.0019636
0.00189533
0.00184994
0.00161628
0.00156892
0.00274505
0.00275588
0.00440776
0.00459083
0.00441441
0.00475977
0.00517251
0.00592876
0.00495361
0.00406382
0.00442915
0.00497967
0.00358051
0.0030295
0.00170256
0.00152207
0.00175666
0.00179663
0.00184917
0.0019103
0.00167719
0.00178882
0.00163432
0.00148059
0.00146396
0.00145832
0.00149162
0.001505
0.00153026
0.00153309
0.00157286
0.00156851
0.00157171
0.00159081
0.0016044
0.00177386
0.00193645
0.00162884
0.00137763
0.00133522
0.00126043
0.00120057
0.00123112
0.00120023
0.00119386
0.00117366
0.00115595
0.0011056
0.00115678
0.00123434
0.00145198
0.00139535
0.00112194
0.000996929
0.000680766
0.000689491
0.000694112
0.000714617
0.000721684
0.000730203
0.000733262
0.000744464
0.000746309
0.000749648
0.000749179
0.000768398
0.000765421
0.000755888
0.000750213
0.000753424
0.000756578
0.000756198
0.00110803
0.00123534
0.00135995
0.00161777
0.00190462
0.0016431
0.00139113
0.0011902
0.000762756
0.000773782
0.000790286
0.000797516
0.000816713
0.000832495
0.000851369
0.000862369
0.000871396
0.000879667
0.000889004
0.000891861
0.000889532
0.000871196
0.000860776
0.000881812
0.000966665
0.00101603
0.00107905
0.00110245
0.00112208
0.00113164
0.00112492
0.0011357
0.00112078
0.00111769
0.00109646
0.00108622
0.00107628
0.00106386
0.00104987
0.0010173
0.00100583
0.00105841
0.00178837
0.00233968
0.00270814
0.00297285
0.00266658
0.00209656
0.00228777
0.00401988
0.00376558
0.00225938
0.00208963
0.00189935
0.00163931
0.00132176
0.00163964
0.00194648
0.00217704
0.00238799
0.00257195
0.00269606
0.00283875
0.00301746
0.0033426
0.00339387
0.00310423
0.00254271
0.00218962
0.00207307
0.0020093
0.00188303
0.00174725
0.00178405
0.00179622
0.00174109
0.00167028
0.00164454
0.00166847
0.00169234
0.00166909
0.00166611
0.00148599
0.00148664
0.00253668
0.00260127
0.00399825
0.00420799
0.00424408
0.00273516
0.00269562
0.00157416
0.00146113
0.00159392
0.00165376
0.00165634
0.00166212
0.00165194
0.00162323
0.00160286
0.0015808
0.00156244
0.00154904
0.00151986
0.0014656
0.0013524
0.00148002
0.00166431
0.00173384
0.00174991
0.00175364
0.00177787
0.00181806
0.00185162
0.00193175
0.00194272
0.00194081
0.00194835
0.00182367
0.00188181
0.00159302
0.00159241
0.00276043
0.00275605
0.00158359
0.00186988
0.00187927
0.00185218
0.0019933
0.00182542
0.00176884
0.0017572
0.00168625
0.00165008
0.00160253
0.00157499
0.00161136
0.00171883
0.00167498
0.00147733
0.00144855
0.00161874
0.00154226
0.00128029
0.00109331
0.00106016
0.00101246
0.00098252
0.00102668
0.00105994
0.00107853
0.00110238
0.00110926
0.00115539
0.00112472
0.0011817
0.00125295
0.0013075
0.00155132
0.00168172
0.00151947
0.00149172
0.00147318
0.00146977
0.00147404
0.00141624
0.0014129
0.00138426
0.00137026
0.00133277
0.00131598
0.00129509
0.00130157
0.00131809
0.00145077
0.0037656
0.00479384
0.00501928
0.00849361
0.00345668
0.0035349
0.00692958
0.00283996
0.00427871
0.00462905
0.00483149
0.00501654
0.00456786
0.00580442
0.00400591
0.00440237
0.00474331
0.00446922
0.00154076
0.00142923
0.00122599
0.00129041
0.00125172
0.000905797
0.0010582
0.00112148
0.00116754
0.00120076
0.00122645
0.00125526
0.00128074
0.00130056
0.00130449
0.00126977
0.00123084
0.00113878
0.00110842
0.00115143
0.00119647
0.00105761
0.000997899
0.00101034
0.00102897
0.00103901
0.00104241
0.0010535
0.00105748
0.0010747
0.0010669
0.00107579
0.00105937
0.00106984
0.00105385
0.00101535
0.000965579
0.000877626
0.000855214
0.00123175
0.00131286
0.00138107
0.00156205
0.00180263
0.0019256
0.00172362
0.00158158
0.00151788
0.0016869
0.00167543
0.00303214
0.00582218
0.00260801
0.00294796
0.00855128
0.00338441
0.00265177
0.00269471
0.00272325
0.0027252
0.0015865
0.00187963
0.00181867
0.00182057
0.00154253
0.00129404
0.0011628
0.00104035
0.000704848
0.000702353
0.000707652
0.000718164
0.000721386
0.000691972
0.00069197
0.000688569
0.000687297
0.000674137
0.000670506
0.000659871
0.000653673
0.000638027
0.000629761
0.000613773
0.000609172
0.000580143
0.000579742
0.000602029
0.000855849
0.000943434
0.00102106
0.00121799
0.00326788
0.00363444
0.00494893
0.00490739
0.00782208
0.00484487
0.00367154
0.00335196
0.0048992
0.00501317
0.00491742
0.00698495
0.00474879
0.00308548
0.00303496
0.00291159
0.00455961
0.00440784
0.00421494
0.00558081
0.00599286
0.00186199
0.00169213
0.001818
0.00204364
0.00241549
0.00205887
0.00242706
0.00230383
0.00166435
0.00137343
0.00433837
0.00549578
0.00397961
0.0043574
0.00708468
0.00293306
0.00287461
0.00256838
0.00214451
0.00195605
0.00191256
0.00212348
0.00254024
0.00669234
0.00710047
0.0043906
0.00527093
0.00469926
0.00618399
0.00755092
0.00811576
0.00706632
0.00659361
0.00606452
0.00292722
0.00286208
0.00320736
0.00350993
0.00468666
0.00487338
0.0102386
0.00346291
0.0038317
0.00388487
0.0052367
0.00502363
0.00897302
0.00372198
0.00401693
0.00532192
0.00703227
0.0132542
0.00468816
0.00498334
0.00721668
0.00730064
0.00666528
0.00483761
0.00441932
0.00484104
0.00363264
0.00354958
0.00305213
0.00455101
0.00614116
0.00476176
0.00463177
0.00398105
0.00341327
0.00362706
0.00371682
0.00305298
0.00302634
0.00354948
0.00249988
0.00232938
0.00275953
0.000730021
0.000376358
0.000385488
0.000394695
0.00040195
0.000409275
0.000414951
0.000421177
0.000424201
0.000424168
0.000425133
0.000448875
0.000445132
0.000430865
0.000391311
0.000446689
0.000708949
0.000709657
0.000446287
0.000393674
0.000705655
0.00112438
0.00132339
0.00156783
0.0015884
0.00136869
0.00118755
0.000730464
0.000719511
0.000436427
0.000509469
0.000553451
0.000490843
0.000547401
0.00050735
0.000538196
0.000542852
0.000502719
0.000500183
0.000502542
0.000499203
0.000491426
0.000481136
0.000468099
0.000456318
0.000445832
0.000431536
0.000406111
0.000361929
0.000328112
0.000357773
0.000411338
0.000446553
0.000464263
0.000485683
0.000500528
0.000512266
0.000520484
0.000521654
0.000530774
0.000547433
0.000551785
0.000556296
0.000598893
0.000581703
0.000621227
0.000581887
0.000621645
0.000584066
0.000537091
0.000451105
0.00046523
0.000750057
0.000757641
0.00122524
0.00140291
0.00159386
0.00160418
0.00179518
0.00189188
0.00160027
0.00166289
0.00190883
0.00177648
0.00158285
0.00158634
0.00142641
0.00142422
0.001259
0.000785732
0.000775101
0.000487035
0.000473065
0.000564047
0.000554129
0.000616545
0.000659346
0.0006604
0.000658579
0.000640108
0.000634357
0.000558393
0.000547808
0.000548714
0.000531368
0.000522635
0.000524969
0.000523629
0.000549907
0.000615537
0.000651052
0.000682477
0.00071055
0.000671317
0.000401477
0.000408118
0.000652131
0.000783385
0.000885287
0.00301107
0.000857174
0.00234787
0.00189176
0.000559202
0.000669763
0.000849149
0.000946989
0.00102519
0.00101086
0.000879147
0.0007175
0.000546412
0.000456103
0.000764363
0.000666403
0.00081149
0.000714265
0.000923757
0.00107169
0.00103882
0.00104859
0.000887857
0.000725375
0.000767915
0.000692926
0.000765044
0.000638712
0.000768122
0.000694694
0.000873936
0.000882509
0.000864557
0.000819959
0.000624731
0.000655684
0.00054986
0.00059626
0.000534904
0.000552837
0.000524334
0.000611551
0.000704795
0.000676387
0.000673767
0.00055358
0.000433763
0.000478794
0.000413377
0.000467653
0.000363462
0.000440644
0.000369947
0.000478341
0.000489901
0.000482785
0.000460337
0.000351322
0.000418343
0.000548832
0.000593718
0.00060534
0.000578978
0.000447431
0.000692534
0.000626781
0.000766497
0.000665169
0.000726678
0.000662307
0.000771179
0.000986857
0.00102937
0.00103607
0.00083971
0.000833227
0.00151009
0.0829161
0.00135855
0.00160505
0.00165391
0.00164726
0.00136231
0.00133209
0.00164603
0.00122144
0.0017254
0.00108647
0.00183532
0.000699467
0.00106372