/*--------------------------------*- C++ -*----------------------------------*\
| =========                 |                                                 |
| \\      /  F ield         | OpenFOAM: The Open Source CFD Toolbox           |
|  \\    /   O peration     | Version:  v2012                                 |
|   \\  /    A nd           | Website:  www.openfoam.com                      |
|    \\/     M anipulation  |                                                 |
\*---------------------------------------------------------------------------*/
FoamFile
{
    version     2.0;
    format      ascii;
    class       volScalarField;
    location    "520";
    object      k;
}
// * * * * * * * * * * * * * * * * * * * * * * * * * * * * * * * * * * * * * //

dimensions      [0 2 -2 0 0 0 0];


internalField   nonuniform List<scalar> 
18258
(
0.0336599
0.0158582
0.0124145
0.0102603
0.0110265
0.0140632
0.0168658
0.0212427
0.025669
0.0316005
0.0386569
0.0475761
0.053564
0.0606962
0.0636522
0.0619275
0.0520337
0.0472781
0.0564789
0.0809989
0.0711187
0.0514374
0.0623561
0.0615585
0.0724228
0.0765904
0.0602637
0.0550356
0.0496253
0.0439376
0.0373607
0.023137
0.0241701
0.0289188
0.0321485
0.0358738
0.0387487
0.0411037
0.0427546
0.0435672
0.0434679
0.0421564
0.0394488
0.0353876
0.029915
0.0239247
0.0235371
0.0237009
0.0294333
0.0350106
0.0404484
0.0460506
0.0544944
0.0446136
0.0290143
0.0391766
0.0476547
0.0545471
0.0589739
0.0614229
0.0621856
0.0612718
0.0589816
0.0557218
0.0517604
0.0474212
0.0434026
0.0394162
0.0341734
0.0309102
0.0267966
0.0234504
0.0210081
0.019294
0.018174
0.0171722
0.0163078
0.0155756
0.0149599
0.0145379
0.0144457
0.0144701
0.0145685
0.0146634
0.015004
0.0126569
0.0108883
0.0104207
0.0101701
0.00952651
0.00807982
0.0106366
0.0117464
0.0121639
0.0124351
0.013607
0.0147397
0.0143099
0.0135835
0.0124602
0.0127467
0.0171716
0.0178853
0.0229383
0.0218151
0.0170732
0.014794
0.0165848
0.0193966
0.0224561
0.0192465
0.0192146
0.0179145
0.0170194
0.0148678
0.0148954
0.0143751
0.0140685
0.0149821
0.017749
0.0171627
0.0172805
0.0184931
0.0188134
0.0200375
0.0210562
0.0203958
0.0202151
0.0163505
0.0162507
0.0172915
0.0171652
0.0176452
0.0201527
0.0202093
0.02055
0.0207646
0.0235537
0.0235726
0.0235404
0.0236315
0.0244802
0.0235121
0.0230971
0.0231238
0.0231588
0.0209893
0.0207693
0.0204087
0.020448
0.0182691
0.0175312
0.0182647
0.0192451
0.0212178
0.0249586
0.0313902
0.0403073
0.0503966
0.0606318
0.0683999
0.0727555
0.0771201
0.0765847
0.0772933
0.0793953
0.0797679
0.078629
0.0767809
0.0746205
0.0716731
0.0670472
0.0665961
0.0589702
0.0480952
0.0333779
0.038887
0.0417241
0.0444775
0.0447747
0.0452503
0.0440341
0.042276
0.0386998
0.0336087
0.0247543
0.0257835
0.0302473
0.0349204
0.038715
0.0428849
0.0465149
0.0483574
0.0500591
0.0594296
0.0571867
0.0552768
0.057002
0.05857
0.0617744
0.0602119
0.0562658
0.0503242
0.0519413
0.0450568
0.0336902
0.0314663
0.0293388
0.0270104
0.0378035
0.0495821
0.0611347
0.0674924
0.073672
0.0785346
0.0825797
0.0871227
0.0816513
0.0764925
0.0577344
0.0838505
0.0657517
0.0504496
0.0411445
0.0332474
0.0313065
0.034183
0.0342918
0.0325103
0.0279649
0.0220273
0.0229807
0.0359903
0.0458349
0.0538818
0.0554417
0.0601535
0.0626319
0.0573221
0.0579
0.0470298
0.0482537
0.0515797
0.0462236
0.0439175
0.0352977
0.0275566
0.0335489
0.0499284
0.0685755
0.0845513
0.0996307
0.0660698
0.0501438
0.0410345
0.0342133
0.033036
0.0376527
0.043612
0.0528336
0.0411483
0.0370883
0.0335764
0.0307098
0.0257315
0.0274634
0.0286807
0.0269096
0.0499164
0.0574919
0.0612763
0.0837277
0.0923933
0.108355
0.107087
0.0925798
0.0962349
0.068944
0.0687106
0.0861374
0.0681381
0.0511855
0.0614586
0.0743575
0.0881283
0.10125
0.112535
0.121618
0.12337
0.111928
0.0811607
0.0467381
0.0212902
0.0186554
0.0181074
0.0173964
0.0165059
0.0156972
0.0150662
0.0121125
0.00949199
0.00927751
0.00946044
0.00940658
0.00825912
0.00951366
0.0115769
0.013766
0.0152714
0.0164777
0.0174952
0.0182264
0.0188128
0.0192095
0.0195042
0.0197693
0.0200016
0.0201842
0.0203185
0.0204055
0.0204445
0.0204278
0.0203496
0.0202083
0.0200023
0.0197152
0.0192442
0.0177231
0.0158792
0.0150558
0.015115
0.0148666
0.0145667
0.0119373
0.0123064
0.0143244
0.0149546
0.0177374
0.0197674
0.0214648
0.0229128
0.0244328
0.025206
0.0260307
0.0262928
0.0263416
0.0262374
0.0260829
0.0258539
0.0255462
0.0244792
0.0212613
0.0248684
0.0272677
0.0289654
0.0303257
0.0312386
0.0313449
0.028587
0.0360685
0.0385156
0.0394197
0.0396826
0.0388585
0.0368451
0.034396
0.0323407
0.0308323
0.0297142
0.0275718
0.0253248
0.0230164
0.0206021
0.0173829
0.0186555
0.0204917
0.0207014
0.0204095
0.0214562
0.0227129
0.0210547
0.0189586
0.016084
0.0150884
0.014605
0.0144194
0.0148359
0.0144865
0.0143778
0.0148714
0.0178667
0.0189574
0.0206565
0.0239165
0.0227851
0.0208442
0.028017
0.0296239
0.030073
0.0304245
0.0303303
0.0295727
0.0264976
0.0250413
0.0264298
0.0249754
0.0243435
0.0244327
0.0240657
0.0222
0.0244995
0.0264994
0.0280896
0.0289375
0.0301796
0.0317352
0.0338994
0.0356966
0.0373595
0.038366
0.0383435
0.0377988
0.0379673
0.0386029
0.038268
0.0365862
0.0345109
0.032417
0.0294472
0.0292823
0.0312583
0.032821
0.034481
0.0362557
0.0355833
0.0336915
0.0320645
0.0306438
0.0289327
0.0288162
0.0304936
0.0319388
0.0336807
0.0358079
0.0359907
0.0338409
0.0320177
0.0305104
0.0288062
0.0287761
0.0304782
0.0319941
0.033723
0.0356175
0.0347458
0.0332702
0.031743
0.0302721
0.028606
0.0281699
0.0297754
0.0311605
0.0324779
0.0335468
0.0318701
0.031278
0.0302055
0.0288143
0.0270553
0.025802
0.0263108
0.0276984
0.0278095
0.0282903
0.0294101
0.0292577
0.0289747
0.0289296
0.0286477
0.0264022
0.0268094
0.0268583
0.0275503
0.0308513
0.0303682
0.0330304
0.0354339
0.0331239
0.0316412
0.0280862
0.0336469
0.0336837
0.0346366
0.0334573
0.0237039
0.0218539
0.0228532
0.0243816
0.026018
0.02532
0.0225814
0.0225092
0.0231106
0.0225179
0.0209496
0.0179719
0.0135052
0.0135139
0.0135039
0.0142363
0.0170363
0.0186292
0.0187374
0.0185796
0.0182745
0.0177993
0.0170773
0.0160003
0.0156334
0.0248164
0.0452559
0.0565878
0.0559209
0.0425277
0.0357292
0.0264727
0.0184839
0.0112691
0.0107871
0.0114642
0.0137528
0.011511
0.0109605
0.0150997
0.0120941
0.0200939
0.0231711
0.0302942
0.0414456
0.0401496
0.0306184
0.0204762
0.0183799
0.0192344
0.0197606
0.0201508
0.020534
0.0209208
0.0213411
0.0218523
0.0215289
0.0188987
0.0166602
0.0167823
0.0173536
0.0198541
0.0212375
0.0220344
0.0217069
0.0219621
0.0236666
0.0224309
0.0212067
0.0209959
0.0202875
0.0231223
0.0234692
0.0228467
0.0228474
0.023125
0.0230102
0.0231492
0.0239515
0.0197725
0.0218914
0.0224428
0.0227225
0.0235128
0.019031
0.019223
0.0192911
0.0181466
0.0148707
0.0179683
0.0167322
0.0121449
0.0134568
0.0134267
0.0140399
0.0143648
0.017119
0.0162913
0.0155613
0.0163203
0.0222856
0.0230891
0.0232628
0.0206176
0.0193714
0.0218585
0.0224508
0.0219979
0.0211081
0.021267
0.0203219
0.0184222
0.0177038
0.0178409
0.019249
0.020048
0.0201198
0.0237156
0.0232116
0.0216541
0.0226349
0.0232336
0.0228186
0.0227098
0.0226549
0.0222839
0.0218605
0.0222727
0.0224606
0.0225124
0.0220725
0.0223251
0.024946
0.0214114
0.0212228
0.0201497
0.0194953
0.017871
0.0176189
0.0177171
0.0176774
0.0175836
0.0167478
0.0186017
0.0178752
0.020007
0.0216162
0.0227638
0.0239309
0.0240787
0.0236462
0.0236039
0.0232177
0.0231814
0.022634
0.0217918
0.021211
0.0204406
0.019236
0.0192292
0.0191807
0.0190375
0.0204398
0.0203399
0.0219012
0.0230182
0.0227308
0.0217691
0.0216591
0.0204863
0.0204621
0.0214997
0.0223846
0.0226358
0.0234922
0.0260112
0.0236835
0.0252352
0.0259364
0.0265997
0.02599
0.0248935
0.0256441
0.0239852
0.0228749
0.0241917
0.0249144
0.0261758
0.0269706
0.0249937
0.0239659
0.0227695
0.0219079
0.0209244
0.0184047
0.019014
0.0198007
0.0210308
0.0228435
0.0255607
0.028289
0.0312091
0.0312643
0.0289665
0.0272782
0.0320744
0.0315485
0.0365163
0.0371169
0.0329966
0.030197
0.0272893
0.0268616
0.0259407
0.0254047
0.0241344
0.025381
0.0258003
0.0248586
0.0273235
0.0288925
0.0332221
0.0387726
0.0354328
0.0326153
0.0376829
0.0366063
0.0425535
0.0363384
0.0346881
0.0285429
0.0331555
0.0355182
0.0432421
0.0338388
0.0296599
0.0294456
0.030776
0.0382523
0.0367861
0.0393696
0.0445365
0.0438791
0.0390138
0.0357795
0.0415173
0.0315643
0.0370055
0.0390153
0.0324042
0.0321535
0.0390178
0.0396398
0.0398086
0.0337393
0.033004
0.0249893
0.0335344
0.0400071
0.039921
0.0331491
0.0259637
0.0358496
0.0314863
0.0312858
0.0312868
0.0268888
0.0268201
0.0261194
0.0263737
0.0270812
0.0246487
0.0254497
0.0257074
0.0258682
0.0259973
0.0261873
0.0265291
0.027168
0.0278812
0.0228434
0.0242714
0.0229277
0.0216054
0.0202781
0.024052
0.02653
0.0283408
0.0297985
0.0309337
0.0314097
0.0299687
0.0379399
0.0396252
0.0412708
0.0414206
0.0401807
0.0375165
0.0340839
0.0306563
0.0285667
0.0272645
0.0248077
0.0226921
0.0206278
0.0184852
0.015684
0.0143458
0.0130307
0.0116532
0.0113239
0.0107994
0.0102196
0.00957725
0.00927035
0.011615
0.0160591
0.0269965
0.0326139
0.0384194
0.0453505
0.0518804
0.0571297
0.0610749
0.0639244
0.0657513
0.0662749
0.0638083
0.0532237
0.0481409
0.0431628
0.0381076
0.0329607
0.0321343
0.0412916
0.0496089
0.0566251
0.0629466
0.0670613
0.0654185
0.0498363
0.046706
0.0624001
0.0899322
0.0807069
0.103727
0.12005
0.0795978
0.0648327
0.0640459
0.0795159
0.0820287
0.0754582
0.0665341
0.0566941
0.0457409
0.0509069
0.0558084
0.0604674
0.065153
0.0779573
0.0802382
0.0789376
0.0762915
0.0728942
0.0684461
0.0619756
0.0535332
0.0441885
0.0360299
0.028573
0.0172334
0.0128631
0.0138229
0.0133523
0.0135403
0.0138666
0.0102068
0.0105472
0.0107405
0.0106401
0.0103446
0.0104069
0.0118066
0.0182169
0.0150215
0.0136832
0.0118088
0.0144876
0.0163219
0.0180698
0.0186196
0.0188255
0.0202796
0.036616
0.0443667
0.0498675
0.054557
0.0575986
0.0563743
0.053041
0.0472108
0.0402496
0.0375295
0.0334318
0.0299627
0.0281566
0.0290352
0.0254428
0.0156995
0.0147333
0.015782
0.0154508
0.0144538
0.0164109
0.0176329
0.0184075
0.0190323
0.0194972
0.0198524
0.0201035
0.0202676
0.0203506
0.0203707
0.0203427
0.0202719
0.0201571
0.0199958
0.0197775
0.0194718
0.0189537
0.0172509
0.0154186
0.0147076
0.0147916
0.0145609
0.0141983
0.0123227
0.0125504
0.014412
0.0150152
0.0146227
0.01521
0.0156761
0.0168653
0.0190255
0.021159
0.0229932
0.0216898
0.0210397
0.021019
0.0206163
0.0175328
0.0208424
0.0236545
0.0241584
0.0244184
0.0252304
0.0268202
0.0277779
0.0268516
0.0263616
0.0258399
0.0228152
0.0244503
0.027914
0.0283203
0.0289779
0.029564
0.030126
0.0314188
0.0308
0.0299342
0.0293522
0.0265694
0.0257074
0.0316827
0.020738
0.0146493
0.0106212
0.0109651
0.0112029
0.0109065
0.0116766
0.0122112
0.0124355
0.011747
0.0128259
0.0137341
0.0129826
0.0156244
0.0149258
0.0139209
0.0134748
0.0142232
0.0149279
0.0153108
0.0164645
0.026572
0.0274
0.0228489
0.0293912
0.0319649
0.0290013
0.031897
0.0295844
0.0282598
0.0310494
0.0343908
0.0355679
0.0332469
0.0318971
0.0311964
0.0208197
0.0201338
0.0194115
0.0175575
0.0178277
0.0173575
0.0168936
0.0164751
0.0189122
0.0203103
0.021375
0.0210717
0.0207604
0.0203512
0.021558
0.0262489
0.0355465
0.04393
0.0466363
0.0453886
0.0416669
0.0350823
0.0289741
0.0284403
0.0264227
0.0251154
0.0247794
0.0187831
0.014994
0.0174938
0.0174076
0.0184734
0.0191436
0.0196697
0.020088
0.020435
0.0207327
0.0210188
0.021285
0.0215175
0.0217134
0.0218823
0.0220229
0.0221748
0.0223577
0.0226115
0.0228154
0.021205
0.0185989
0.0172632
0.0171166
0.0178309
0.0187322
0.0198591
0.019114
0.0153995
0.0154747
0.021895
0.0223277
0.0209553
0.0195356
0.0197395
0.0189003
0.0226798
0.022476
0.0232369
0.0230306
0.0227505
0.0224707
0.0221916
0.0219061
0.021637
0.0214016
0.0211879
0.0209889
0.0207915
0.0205757
0.0203057
0.0199074
0.0192327
0.0184462
0.0170512
0.0181655
0.0193502
0.0209623
0.0228056
0.0237708
0.0229202
0.0216702
0.0210602
0.0212235
0.0215102
0.0218291
0.0221732
0.0225724
0.0229948
0.0233932
0.0233598
0.0220646
0.0227002
0.0174419
0.0182973
0.0185959
0.0185546
0.020217
0.0193704
0.0146702
0.0151775
0.0158941
0.0171651
0.0197345
0.0200926
0.0214306
0.0216543
0.0172958
0.0169877
0.0165643
0.0175791
0.015218
0.0158452
0.0265324
0.0271678
0.034916
0.0382555
0.0398824
0.0331279
0.0455934
0.0524346
0.050539
0.0409075
0.0234987
0.0346309
0.0421622
0.0488047
0.0457271
0.0355633
0.0448906
0.0473755
0.0632715
0.0588958
0.0525233
0.0633041
0.0447275
0.0269056
0.0158282
0.0164021
0.0152075
0.0306665
0.0347737
0.0314634
0.0323096
0.0399521
0.0409678
0.0362158
0.0345373
0.0362943
0.0358485
0.0397984
0.0370914
0.0337287
0.023294
0.0190211
0.0198541
0.0212548
0.0230737
0.02541
0.0253095
0.0241714
0.0228135
0.0218449
0.0207979
0.0183059
0.017655
0.019612
0.021239
0.022615
0.0241197
0.0249353
0.0257724
0.025937
0.02583
0.02551
0.0250857
0.024536
0.0238574
0.0224528
0.0236892
0.0243647
0.0245659
0.0248368
0.0251428
0.0254126
0.0255477
0.0254298
0.0244901
0.023687
0.0225243
0.021408
0.0198045
0.0176919
0.0183711
0.0201261
0.021722
0.0228339
0.0238813
0.023489
0.0239734
0.024621
0.0246479
0.024473
0.0242539
0.0241086
0.0242057
0.024842
0.0265505
0.0262343
0.0290403
0.0302381
0.0276723
0.0263429
0.0256513
0.0252274
0.0249846
0.0247815
0.0245861
0.0240459
0.0235019
0.0239981
0.0242481
0.0245424
0.0248976
0.0254028
0.0260943
0.0271912
0.0286016
0.02847
0.0262483
0.0261227
0.025066
0.0242754
0.0238958
0.0238392
0.0238828
0.0239821
0.0239167
0.0234025
0.0230791
0.0234843
0.0224765
0.0225448
0.0215748
0.02022
0.0187826
0.0173326
0.016672
0.0352554
0.0352464
0.0457747
0.0424086
0.0370739
0.0471191
0.0601206
0.0521111
0.0628486
0.0666286
0.0541252
0.050305
0.0278585
0.0243747
0.0174042
0.0189275
0.0202693
0.0214698
0.0212864
0.0222046
0.0220866
0.0230498
0.0225069
0.021718
0.0211824
0.0201686
0.0202249
0.0189563
0.0174137
0.0172802
0.0189257
0.0199594
0.0211359
0.0211241
0.0225801
0.0230883
0.0234891
0.0236444
0.0236377
0.0237272
0.0239021
0.0243511
0.0250666
0.0255331
0.0256782
0.0261084
0.0258576
0.0255345
0.0250716
0.0247567
0.024435
0.0241539
0.0238584
0.0235806
0.0231514
0.0224986
0.0223786
0.022891
0.023232
0.0234697
0.0236103
0.0235994
0.0234166
0.0231137
0.0228119
0.0224699
0.0225297
0.0237868
0.0240056
0.0241257
0.0239064
0.0237343
0.0237153
0.0235959
0.0234991
0.023266
0.0228943
0.0224198
0.0213523
0.0214562
0.0223388
0.0227864
0.0231196
0.0234027
0.0234193
0.0233294
0.0229504
0.0226577
0.0223166
0.02177
0.0210735
0.0187034
0.0191601
0.0197739
0.0205999
0.0214312
0.0221386
0.0225867
0.022769
0.0227584
0.0225808
0.0222257
0.0214783
0.0214594
0.0220014
0.0221756
0.0221338
0.0218416
0.0212381
0.020324
0.0191298
0.0179189
0.0169413
0.016434
0.0156399
0.0182349
0.0192463
0.0201814
0.0210402
0.0218502
0.0227064
0.0230477
0.023122
0.0229626
0.022694
0.0222766
0.0215024
0.0215133
0.0222215
0.0226168
0.0228377
0.0229394
0.0226468
0.0219564
0.0204179
0.018999
0.0178221
0.0167451
0.0156327
0.0152228
0.0157243
0.0153557
0.0158422
0.0169932
0.0184845
0.0198471
0.0208161
0.021398
0.0216727
0.0216935
0.0213585
0.0211813
0.0213175
0.0211318
0.0206526
0.0198027
0.0185308
0.0170531
0.0158059
0.0153837
0.0159871
0.0166334
0.0160373
0.0139155
0.015034
0.0161114
0.0172355
0.0189136
0.0209765
0.021995
0.0224896
0.0226384
0.022517
0.0221491
0.0214921
0.0214409
0.0220688
0.0224266
0.0225245
0.0224237
0.0219528
0.0210891
0.0185728
0.0158378
0.014612
0.013918
0.0129719
0.016188
0.0168791
0.0160642
0.0155315
0.0163996
0.0174682
0.018647
0.0195463
0.0201814
0.0206698
0.0209302
0.0209464
0.0206787
0.0205767
0.0203691
0.0200313
0.0196861
0.0193242
0.018518
0.0176724
0.0167201
0.017785
0.0183528
0.0176011
0.0144662
0.0150324
0.0158166
0.0162823
0.0189161
0.0214088
0.0221237
0.0223615
0.0224793
0.0223608
0.0219727
0.0213571
0.0212375
0.0218719
0.0223421
0.0226187
0.0228827
0.0230177
0.0231143
0.0211886
0.0179401
0.0172544
0.0155935
0.0147563
0.0181566
0.0188501
0.0183856
0.0178258
0.0194768
0.0201773
0.0204405
0.0204495
0.0203862
0.020294
0.0203031
0.0204031
0.0201082
0.0199981
0.0201085
0.0203241
0.0202731
0.0200382
0.0194582
0.0186922
0.0176194
0.0194548
0.0211131
0.0208493
0.0169975
0.0175338
0.0182955
0.0178001
0.0204631
0.0223405
0.0228708
0.0228914
0.0226414
0.0222081
0.021687
0.0210541
0.0207797
0.0213388
0.0219088
0.0219542
0.0220742
0.0220468
0.0214826
0.0213211
0.0207453
0.020477
0.0197099
0.0191302
0.0183737
0.020545
0.023759
0.0259698
0.0275512
0.0294423
0.0279945
0.0244618
0.0221829
0.0152637
0.0152747
0.0155011
0.0148741
0.0145022
0.014328
0.0187753
0.0215231
0.0242348
0.0259888
0.0235331
0.0235026
0.023416
0.0232964
0.023182
0.0230856
0.0228803
0.023679
0.0414442
0.283167
0.210144
0.235678
0.224832
0.315601
0.0801491
0.0392038
0.0436753
0.0511804
0.0591298
0.0575566
0.053462
0.0465542
0.0418158
0.0414071
0.0405992
0.0403557
0.0386618
0.0386262
0.0376534
0.0450502
0.0943503
0.123564
0.137135
0.14559
0.154626
0.150066
0.159072
0.151007
0.151502
0.153104
0.157829
0.150464
0.143113
0.139275
0.134998
0.117734
0.118085
0.0997009
0.103526
0.0864517
0.0909844
0.0949013
0.0942589
0.09306
0.09285
0.0931363
0.0939654
0.0976524
0.0930059
0.0999554
0.0928629
0.0751373
0.0727407
0.0751767
0.0692549
0.0604137
0.0688616
0.0849629
0.101669
0.118792
0.100492
0.124331
0.116632
0.115803
0.109951
0.10348
0.0996623
0.0989018
0.0994915
0.100592
0.10321
0.10511
0.106684
0.109536
0.118075
0.120359
0.118907
0.101464
0.0861974
0.0946794
0.099493
0.103198
0.103475
0.0987877
0.0966197
0.0904444
0.0888728
0.0833698
0.0807895
0.0753422
0.0720396
0.0672396
0.083712
0.0818728
0.0888459
0.0951029
0.0993375
0.102959
0.104539
0.105782
0.104575
0.102175
0.0972129
0.095151
0.0903656
0.108801
0.127194
0.129997
0.125409
0.111928
0.106329
0.339275
0.411523
0.412792
0.612571
0.654163
0.84557
0.335803
0.180017
0.192556
0.189249
0.181097
0.177936
0.177737
0.189517
0.198606
0.189724
0.200877
0.179599
0.17707
0.172899
0.202383
0.200301
0.180689
0.158339
0.126712
0.104402
0.105142
0.0876225
0.0885179
0.0755636
0.0753572
0.0758488
0.0920643
0.169379
0.20878
0.235287
0.261539
0.321842
0.291597
0.44076
0.353194
0.438771
0.302894
0.327409
0.313157
0.304432
0.30248
0.318555
0.34109
0.299905
0.373039
0.298893
0.647352
0.783988
0.496867
0.45949
0.407546
0.393513
0.383732
0.378271
0.370224
0.487493
0.452312
0.553494
0.514364
0.642532
0.567283
0.578716
0.54531
0.585487
0.607133
0.620922
0.499219
0.54956
0.429361
0.465273
0.385331
0.420327
0.294534
0.292828
0.334052
0.371046
0.396602
0.452741
0.712277
0.604856
0.815844
0.584474
0.706429
0.49062
0.537481
0.513355
0.495683
0.497315
0.525344
0.62974
0.609063
0.695553
0.514703
0.526982
0.516702
0.534045
0.523475
0.558398
0.563076
0.564246
0.562215
0.523417
0.533988
0.532178
0.531967
0.53199
0.532337
0.509581
0.512762
0.505224
0.511006
0.526916
0.514586
0.514502
0.512367
0.504794
0.50274
0.502255
0.504014
0.503783
0.508916
0.508786
0.509124
0.512178
0.526877
0.514436
1.82516
0.905273
0.431383
0.340635
0.22083
0.135323
0.0557734
0.0602138
0.0631275
0.0640356
0.0619728
0.0565894
0.0484513
0.0385136
0.030754
0.0298577
0.0265949
0.0267085
0.0343905
0.0420259
0.0384028
0.0462184
0.0539316
0.0622478
0.0702198
0.0771682
0.0830524
0.0860136
0.083007
0.0703165
0.0526639
0.0352979
0.0250597
0.0226614
0.0210176
0.019019
0.0169119
0.0152678
0.0142592
0.013083
0.012447
0.0123546
0.0125677
0.0128046
0.0132396
0.0147514
0.0160481
0.0172293
0.0181866
0.0184304
0.0179249
0.0184648
0.0190575
0.0194489
0.0197892
0.0196269
0.0196269
0.0198727
0.0198329
0.0200364
0.0199365
0.0199382
0.0197958
0.0196184
0.019391
0.0189511
0.0186729
0.0181127
0.0177682
0.0169476
0.0169829
0.0173912
0.0177193
0.0167259
0.0166759
0.0159146
0.0265468
0.047624
0.0610062
0.0660517
0.0713552
0.067349
0.0569131
0.038873
0.0191091
0.0187947
0.0192664
0.0217669
0.0212852
0.017387
0.0181711
0.0187199
0.0174977
0.017377
0.0174069
0.0194216
0.0200076
0.0213862
0.0218799
0.02228
0.0225027
0.0224951
0.0225961
0.0223452
0.0223512
0.0219841
0.0219695
0.021658
0.0214263
0.0217141
0.0224037
0.0224692
0.0230881
0.0227817
0.0224656
0.0219024
0.0214789
0.0206297
0.0196937
0.0186912
0.0171585
0.0167223
0.0172447
0.01776
0.0173091
0.0187624
0.0200407
0.0197205
0.0243848
0.0226693
0.0202297
0.0227157
0.0184987
0.0186829
0.0181339
0.0170393
0.0175861
0.0170748
0.0169845
0.017271
0.0175493
0.0187081
0.0196675
0.0203155
0.0211808
0.0218393
0.022557
0.0237596
0.0240712
0.0231174
0.0229482
0.0217641
0.0210833
0.0207695
0.021699
0.0229891
0.0228801
0.0237415
0.0234806
0.0222332
0.0214186
0.0205552
0.0195737
0.018908
0.0181333
0.0174035
0.0169903
0.0161865
0.0163032
0.0152276
0.0167937
0.0171711
0.0193088
0.0174225
0.0169417
0.0224279
0.0282559
0.0441256
0.0321773
0.0212671
0.0230128
0.0311802
0.0387428
0.0269948
0.0266064
0.0151073
0.0172507
0.0151882
0.0154699
0.016535
0.0168239
0.017994
0.0190533
0.0192876
0.0200381
0.0203798
0.0211555
0.021413
0.0221513
0.0223447
0.0236205
0.023691
0.0237689
0.0237502
0.0229782
0.0229074
0.0229517
0.0233932
0.0231662
0.0238327
0.0238561
0.0239297
0.0238569
0.0225137
0.0221909
0.0214185
0.0209042
0.0199969
0.0194481
0.0187292
0.0183428
0.0177155
0.0180344
0.0187568
0.0189591
0.0198791
0.0198986
0.0206469
0.020853
0.0213197
0.0214517
0.0221194
0.0222585
0.0225265
0.0225827
0.0237965
0.0239118
0.0239533
0.0239179
0.0239356
0.024168
0.0241695
0.0241091
0.0240997
0.02404
0.0238884
0.0237449
0.024805
0.0254669
0.0249821
0.0247404
0.0250102
0.0258725
0.0264253
0.0275276
0.0283864
0.0294721
0.0303706
0.0312057
0.0318877
0.0323736
0.0325006
0.0325401
0.0320925
0.03172
0.0334172
0.0399263
0.0431541
0.0484229
0.0507988
0.0527816
0.0535001
0.0523363
0.0530497
0.0517687
0.052023
0.0508244
0.0503851
0.0495618
0.0485477
0.047827
0.0463508
0.0456201
0.0502348
0.0568581
0.0569852
0.0499628
0.0470588
0.0426916
0.0371075
0.0391186
0.0456149
0.0409561
0.0385873
0.0357478
0.0307199
0.0235739
0.0178159
0.0255105
0.0332534
0.0405112
0.0473242
0.0533377
0.057227
0.0593435
0.0608657
0.062571
0.060553
0.0531226
0.0415469
0.0317446
0.0278964
0.0263499
0.0239012
0.0204546
0.018562
0.0174846
0.0163269
0.014974
0.0141117
0.0138654
0.0140995
0.0142136
0.0155596
0.0168192
0.0168131
0.0179902
0.0178223
0.0183311
0.0189194
0.0193175
0.0199872
0.0199528
0.018993
0.0193381
0.0196003
0.0202751
0.0201728
0.0203397
0.020117
0.0193979
0.0188807
0.0182809
0.0177642
0.0173089
0.0167407
0.0160369
0.0160249
0.016226
0.0157841
0.0161884
0.0166239
0.0170258
0.017651
0.0185572
0.0193169
0.0211466
0.021293
0.0210417
0.0211298
0.0197048
0.0196455
0.0186717
0.018441
0.0200337
0.0198801
0.0182077
0.019604
0.0196037
0.0213801
0.0213808
0.0207085
0.0209047
0.0207835
0.0189573
0.0180666
0.0170011
0.0162249
0.0156413
0.0152459
0.0147864
0.0154035
0.01422
0.0136377
0.0140802
0.0140561
0.0141224
0.0145093
0.0149377
0.015681
0.0163837
0.0174262
0.0180631
0.0189601
0.0192933
0.0212005
0.0211144
0.0209913
0.0210221
0.0211569
0.0216097
0.0208178
0.0207801
0.0209203
0.0209349
0.0209523
0.0209333
0.019096
0.0188926
0.0180579
0.0177409
0.0168122
0.0164545
0.0158001
0.0154872
0.0150988
0.0149021
0.0232737
0.0254717
0.0256375
0.0397928
0.0199853
0.0199774
0.0343363
0.0173549
0.0230737
0.0236287
0.0247023
0.0259122
0.0225588
0.030732
0.0212214
0.0233294
0.0240649
0.0252454
0.0127807
0.0191279
0.0365849
0.042225
0.0435746
0.0485505
0.0552993
0.058547
0.0616079
0.0636701
0.0659426
0.068407
0.0708221
0.0725759
0.0727406
0.0690777
0.0660332
0.0565599
0.0527427
0.0564914
0.0609247
0.0474419
0.0426459
0.0431973
0.0436721
0.0442129
0.0444275
0.0451253
0.0449352
0.0459452
0.0452119
0.0463298
0.0451859
0.0462267
0.0449724
0.0422197
0.0389809
0.0327424
0.030748
0.0296317
0.0269041
0.0243926
0.0221268
0.0202877
0.0198479
0.0182762
0.0168645
0.0165646
0.0152749
0.0155206
0.0167296
0.0198424
0.0168175
0.01767
0.0259695
0.0191405
0.018051
0.0186026
0.019124
0.0193613
0.0182562
0.0198911
0.0221733
0.022159
0.0222202
0.0222257
0.0214225
0.0212602
0.0209845
0.0210395
0.021072
0.0211916
0.0211579
0.0193361
0.0192798
0.0190068
0.0188684
0.0180805
0.0179134
0.0173313
0.0170022
0.0161636
0.0158703
0.0154203
0.0154702
0.0165404
0.0202935
0.0296453
0.0172173
0.0178341
0.0154535
0.0139446
0.0265687
0.0247647
0.0285984
0.0267623
0.0394124
0.0264164
0.0231817
0.0241951
0.0297075
0.0296381
0.0325607
0.0423312
0.0329896
0.028119
0.0724027
0.0523374
0.0329742
0.0457596
0.0577743
0.108356
0.127121
0.0557988
0.0563415
0.0620543
0.0629485
0.0628211
0.0531521
0.049029
0.0411014
0.0315343
0.0129068
0.024894
0.0321258
0.0423896
0.0565619
0.0918999
0.0528101
0.0596483
0.0656113
0.0646861
0.0677851
0.0659214
0.0645367
0.0654864
0.102647
0.111683
0.10724
0.085674
0.0804167
0.0738234
0.123896
0.139084
0.119846
0.129896
0.135502
0.0807651
0.0302103
0.0249396
0.0238155
0.0263909
0.0253395
0.0460298
0.0205719
0.0218159
0.0226435
0.027159
0.03017
0.0529298
0.023237
0.025454
0.0324072
0.0348769
0.0459815
0.027427
0.0280939
0.034432
0.0362256
0.0395395
0.0336399
0.0317445
0.028719
0.0259074
0.0244094
0.0254588
0.031855
0.0463685
0.0278714
0.0282995
0.0300659
0.133454
0.0307309
0.0266397
0.0276928
0.0267013
0.0336593
0.0351191
0.111001
0.0354246
0.0166885
0.0154558
0.0159336
0.0167442
0.0173814
0.0179976
0.0184429
0.0190815
0.0194772
0.0196284
0.0197963
0.0221727
0.0220788
0.0216118
0.0210684
0.0218638
0.0211688
0.0212186
0.0218362
0.0213034
0.0214452
0.0224976
0.0236688
0.0231842
0.023752
0.0251002
0.0239394
0.0222342
0.0220303
0.0221553
0.0228622
0.0240033
0.0228086
0.0234585
0.0226381
0.0235625
0.0236648
0.0203647
0.0199984
0.0197963
0.0192914
0.0186194
0.0179949
0.0173222
0.0166672
0.0161526
0.0160555
0.0165246
0.0151793
0.0155522
0.0178208
0.0390038
0.0321035
0.0263158
0.0220925
0.0194993
0.0183881
0.0182897
0.0187426
0.0193962
0.0199603
0.0201683
0.0207515
0.0246308
0.0245835
0.0257907
0.0246495
0.0259897
0.024937
0.0236107
0.0227402
0.023949
0.0232495
0.0237396
0.0253612
0.0262112
0.0238484
0.024121
0.0215258
0.0201079
0.0184878
0.0188281
0.020281
0.0209613
0.023406
0.0234851
0.0269297
0.0269048
0.0267515
0.0255095
0.0248338
0.0262876
0.0247985
0.0259502
0.0248361
0.026243
0.027426
0.0277729
0.0270669
0.0261985
0.0253214
0.0210503
0.0202637
0.0199572
0.0194607
0.0191914
0.0200755
0.0242387
0.0332968
0.0452574
0.0573064
0.0667432
0.0663414
0.0598163
0.0403735
0.0415339
0.038446
0.0420199
0.0596313
0.0850169
0.0594246
0.113802
0.0881962
0.0523598
0.0626903
0.074665
0.0838147
0.089686
0.0905485
0.0769657
0.0565726
0.0496727
0.0521145
0.0845575
0.0832925
0.0824168
0.0779765
0.0824594
0.0803507
0.0776875
0.0761325
0.0743631
0.0701251
0.0701041
0.0674325
0.0674043
0.0602603
0.0614487
0.0616846
0.0591124
0.0563655
0.0540797
0.0518906
0.0495679
0.0456729
0.0443918
0.0419111
0.0401655
0.0368052
0.0362717
0.035787
0.0336114
0.0320581
0.0308039
0.0295413
0.0278365
0.0279952
0.0263945
0.0262367
0.0213769
0.0209999
0.0199874
0.0196503
0.0193927
0.0195694
0.0207685
0.0233829
0.0433647
0.0330313
0.0329322
0.0335104
0.0337255
0.0396349
0.0464254
0.0706992
0.0654149
0.0720121
0.061546
0.0640023
0.0632059
0.0628161
0.0655322
0.0691209
0.0744602
0.0869604
0.333714
0.513813
0.253357
0.237309
0.246912
0.251786
0.259216
0.339387
0.360241
0.356317
0.360766
0.330622
0.318359
0.196642
0.226047
0.238116
0.236985
0.223834
0.201969
0.392207
0.522663
0.518791
0.523658
0.52377
0.518765
0.522606
0.502912
0.514274
0.501758
0.51503
0.502299
0.521678
0.518939
0.504364
0.501137
0.501156
0.500916
0.501378
0.501555
0.504893
0.506055
0.506107
0.505102
0.504111
0.514526
0.435847
0.121663
0.0844956
0.140237
0.19485
0.159376
0.231298
0.26608
0.191707
0.108825
0.0885743
0.0999159
0.123021
0.124589
0.151575
0.198627
0.186101
0.151858
0.152878
0.153145
0.198187
0.189977
0.216293
0.258558
0.252067
0.187444
0.149089
0.14791
0.225907
0.241055
0.236325
0.121718
0.0435082
0.0217229
0.0225944
0.0326294
0.0164754
0.0168175
0.0219046
0.0569812
0.095567
0.0491619
0.134966
0.137105
0.181609
0.14711
0.178079
0.115193
0.11868
0.0675064
0.0795152
0.0894732
0.0952479
0.0995231
0.0934591
0.215808
0.318318
0.189905
0.560258
0.537631
0.195731
0.216996
0.575815
0.513013
0.503521
0.501784
0.501698
0.501858
0.501816
0.500969
0.500915
0.500728
0.500765
0.500716
0.501163
0.504767
0.520403
0.514614
0.50524
0.501385
0.500824
0.500799
0.50069
0.50073
0.50075
0.500807
0.501017
0.501049
0.50115
0.50167
0.503941
0.512032
0.435788
0.16993
0.182328
0.406121
0.361865
0.511505
0.504622
0.501369
0.500941
0.500855
0.500829
0.500794
0.500969
0.50089
0.501397
0.501231
0.501287
0.502777
0.50826
0.506399
0.443494
0.369692
0.417478
0.330228
0.506675
0.507779
0.503277
0.502899
0.503246
0.503413
0.501513
0.501527
0.500992
0.50106
0.500892
0.50134
0.504756
0.511017
0.346014
0.170877
0.177785
0.258065
0.0878921
0.0908045
0.0927179
0.0947984
0.246875
0.440849
0.554907
0.470682
0.47489
0.541693
0.385316
0.364079
0.293801
0.317465
0.401732
0.34713
0.312714
0.250218
0.288498
0.247728
0.303517
0.217897
0.234189
0.221755
0.283066
0.28695
0.287315
0.226741
0.216596
0.271661
0.285974
0.316984
0.21878
0.259056
0.203306
0.192357
0.0871061
0.0892661
0.0811381
0.071179
0.0709563
0.0791032
0.0775537
0.0837512
0.0807567
0.0844734
0.0816125
0.0795734
0.0727538
0.0747762
0.0685495
0.0711954
0.130239
0.16641
0.150325
0.151755
0.179489
0.130947
0.157327
0.153328
0.197437
0.247843
0.225992
0.290414
0.224587
0.275329
0.405357
0.75409
0.436567
0.243824
0.317884
0.340176
0.288628
0.189526
0.449514
0.538632
0.298033
0.360378
1.19685
1.04412
1.78199
0.992236
1.11823
0.670147
0.597394
1.0283
0.65322
0.665504
0.55912
0.573029
0.498537
0.323894
0.323286
0.305203
0.241547
0.280086
0.270814
0.266597
0.296096
0.261167
0.316101
0.351902
0.396527
0.322364
0.285111
0.366219
0.215349
0.290011
0.345603
0.315029
0.25921
0.337172
0.448969
0.419705
0.361038
0.398257
0.508508
0.56223
0.530742
0.450119
0.510722
1.00492
0.961207
0.929851
0.58953
1.93394
1.71711
0.351179
0.136453
0.0949668
0.0359667
0.0223949
0.0182654
0.0178718
0.048764
0.0195421
0.0235113
0.0211466
0.0298341
0.0272348
0.031474
0.0550912
0.0374428
0.0524754
0.0389674
0.0516441
0.0411294
0.0565167
0.0606847
0.0638653
0.0516462
0.0407323
0.0615477
0.0821388
0.0384412
0.0989022
0.104506
0.067484
0.0821112
0.101364
0.0524556
0.164021
0.0569401
0.0565009
0.0670685
0.125761
0.249919
0.0848221
0.111431
0.583789
1.52892
0.508443
0.200244
0.163133
0.0413497
0.0359057
0.0291527
0.0355151
0.0313394
0.0624479