/*--------------------------------*- C++ -*----------------------------------*\
| =========                 |                                                 |
| \\      /  F ield         | OpenFOAM: The Open Source CFD Toolbox           |
|  \\    /   O peration     | Version:  v2012                                 |
|   \\  /    A nd           | Website:  www.openfoam.com                      |
|    \\/     M anipulation  |                                                 |
\*---------------------------------------------------------------------------*/
FoamFile
{
    version     2.0;
    format      ascii;
    class       volScalarField;
    location    "520";
    object      nut;
}
// * * * * * * * * * * * * * * * * * * * * * * * * * * * * * * * * * * * * * //

dimensions      [0 2 -1 0 0 0 0];


internalField   nonuniform List<scalar> 
18258
(
0.00419987
0.0018272
0.00149819
0.00129854
0.0008587
0.00140562
0.00195193
0.00232318
0.00243703
0.00241547
0.00250021
0.00421818
0.00591886
0.0073134
0.00768107
0.0076676
0.00695785
0.00664385
0.00721263
0.00887162
0.00746412
0.00478173
0.00572885
0.00662004
0.00720119
0.00637806
0.005156
0.00477625
0.00432535
0.00360537
0.00302201
0.00205783
0.00151944
0.00140891
0.00127636
0.0014546
0.00158396
0.0016886
0.00172657
0.00175368
0.00174161
0.00173152
0.0016846
0.00165601
0.0016074
0.0013307
0.00161396
0.00164158
0.00179772
0.00248628
0.0026723
0.00224843
0.00248887
0.00222113
0.00146482
0.00167679
0.00182029
0.00185958
0.00183576
0.00175965
0.00173404
0.00171237
0.00168488
0.00165222
0.00163235
0.00164878
0.00166591
0.00164784
0.00156691
0.00150128
0.00139507
0.00128858
0.0012096
0.0011484
0.00110225
0.00105112
0.00099366
0.000872807
0.000808892
0.00107102
0.0013445
0.00143643
0.00203578
0.00248189
0.00249846
0.00186999
0.00133264
0.001383
0.00153761
0.00155327
0.00131666
0.0015655
0.00177352
0.00183823
0.00191569
0.00214097
0.00243664
0.00237531
0.0021153
0.00194852
0.0019214
0.00219779
0.00208704
0.00270624
0.00272823
0.00238387
0.00218642
0.00246103
0.00317352
0.00341513
0.00265612
0.00249441
0.00244512
0.00241433
0.00218348
0.00225953
0.00205181
0.0018488
0.00201395
0.00243434
0.00230908
0.00252226
0.00261336
0.00245175
0.0028409
0.00327623
0.0032289
0.00258401
0.00210636
0.00196349
0.00197851
0.00121005
0.00130671
0.0014083
0.00144278
0.00146688
0.00148739
0.00158606
0.00158249
0.00155931
0.00155588
0.00158352
0.000872579
0.000945303
0.000968777
0.000975555
0.000926597
0.000917081
0.000899998
0.000886097
0.000835407
0.000799328
0.000956487
0.00107407
0.0011699
0.00128187
0.00144904
0.00165351
0.00186834
0.00208536
0.00222889
0.00226978
0.00231105
0.00222742
0.00214316
0.00221961
0.00223249
0.0022181
0.00218835
0.00215076
0.00209996
0.00200679
0.0021146
0.00210883
0.00198124
0.00169788
0.00173595
0.0017329
0.00177802
0.00176885
0.00178667
0.00176136
0.00173174
0.00164853
0.00153255
0.00127633
0.0012438
0.00125978
0.00161809
0.00196466
0.0030351
0.00370269
0.0042995
0.00460123
0.00492498
0.00398401
0.00443366
0.00341706
0.00306799
0.0038996
0.00510282
0.00291107
0.00158921
0.00301311
0.00267248
0.00193789
0.00172454
0.00177661
0.00177929
0.00204342
0.00235552
0.00261396
0.00273961
0.00285077
0.00293952
0.00303729
0.00316105
0.00319483
0.00308632
0.00261221
0.00314757
0.00255592
0.0029837
0.00269452
0.00181775
0.00192465
0.00204287
0.00187001
0.00181894
0.00174253
0.00156833
0.00192789
0.00250562
0.00290887
0.00332559
0.00443259
0.00410077
0.00393461
0.00304666
0.00294613
0.00152994
0.00218322
0.00225859
0.00254
0.00168859
0.0015402
0.00146102
0.00193423
0.00224101
0.00264566
0.00293493
0.00348633
0.00270254
0.00308419
0.00278918
0.0019426
0.00187051
0.00267985
0.00288772
0.00237613
0.00212434
0.00266481
0.00252145
0.00178842
0.00143339
0.0022016
0.00228035
0.00163531
0.00407423
0.00434029
0.00414915
0.00505369
0.00632796
0.00720666
0.00671317
0.00595177
0.00664569
0.00528101
0.00511838
0.00545945
0.00457958
0.00319789
0.0032789
0.00339055
0.00348118
0.00373667
0.0039691
0.00425355
0.00452556
0.00411527
0.00341913
0.00258885
0.00178191
0.00175807
0.00174936
0.00157076
0.00232769
0.0035209
0.00349615
0.00198621
0.00115804
0.00131009
0.00147939
0.00146488
0.00106288
0.000800097
0.00137832
0.00157574
0.00160105
0.00156118
0.00147391
0.00154013
0.00247328
0.00381021
0.00418641
0.0043358
0.00447714
0.00457693
0.00463239
0.00464988
0.00465956
0.00467152
0.00468208
0.00469824
0.00468382
0.00458423
0.00403239
0.00253553
0.00148238
0.00137724
0.00152005
0.00163368
0.00173297
0.00147477
0.000901591
0.00144006
0.00184392
0.00211898
0.00213691
0.00199412
0.00193427
0.00304987
0.00405498
0.00477941
0.00492583
0.00499076
0.0049355
0.00492784
0.00481965
0.00478535
0.00419547
0.0030046
0.00328519
0.00352753
0.00356846
0.00365129
0.00377565
0.00368826
0.003484
0.00509261
0.00587575
0.00595123
0.00607824
0.00600645
0.00590253
0.00563399
0.00532726
0.00448467
0.00336303
0.00212181
0.00216603
0.00230583
0.00228367
0.00198799
0.00209464
0.0022733
0.00229603
0.00237105
0.00265901
0.00301996
0.00288042
0.00247824
0.00210501
0.00196002
0.00191915
0.00184152
0.0013796
0.00140001
0.00136064
0.00138294
0.00185742
0.0022108
0.00254958
0.00361684
0.00322642
0.002624
0.00416134
0.00426362
0.00458062
0.00505971
0.00518519
0.00574529
0.00399942
0.00360424
0.00370277
0.00302491
0.00279993
0.00282988
0.00284057
0.0026474
0.00289773
0.00287222
0.00276844
0.00305656
0.00336808
0.0044414
0.00538203
0.00567896
0.00585064
0.00592073
0.00589796
0.00578199
0.00581724
0.00510827
0.00510139
0.00488596
0.00474536
0.00469525
0.00446154
0.00510874
0.00530403
0.00536921
0.00550332
0.00571233
0.00555866
0.00538542
0.00525378
0.00515839
0.00505858
0.00511294
0.00520825
0.00530992
0.0054528
0.00564391
0.00567638
0.00547828
0.00532866
0.00522631
0.00513024
0.00513459
0.00522034
0.00532037
0.00546224
0.00564347
0.00554349
0.00540258
0.00527714
0.00517426
0.00508372
0.00490617
0.00502498
0.00515569
0.00526355
0.00533373
0.00460829
0.00492541
0.00484026
0.00438185
0.00410088
0.00311432
0.00337047
0.00355437
0.00387143
0.00429764
0.00438159
0.00367712
0.0031512
0.00307079
0.003046
0.00311779
0.0031436
0.00315877
0.00356919
0.00537903
0.00541513
0.00543003
0.00543193
0.00464436
0.00451299
0.00420487
0.00768808
0.00715724
0.00620129
0.00511039
0.00273911
0.00234809
0.00278146
0.00338222
0.00378134
0.0041721
0.00277026
0.00171571
0.00199946
0.00207281
0.00202164
0.00186859
0.00155708
0.00143732
0.00130439
0.00140366
0.00248592
0.00396736
0.00446892
0.0045164
0.00447158
0.00438446
0.00427845
0.00413093
0.004083
0.00515653
0.00698919
0.00786565
0.00783172
0.00672858
0.00548917
0.00309778
0.00159893
0.0011818
0.00126429
0.0013893
0.00163001
0.00145156
0.00123001
0.00134727
0.00127306
0.00257589
0.00444066
0.00564342
0.00670456
0.00660377
0.00574768
0.00468719
0.00443445
0.0045376
0.0046079
0.00466756
0.00472877
0.00477077
0.00474421
0.00431812
0.00266758
0.0015925
0.00141488
0.00152122
0.00178294
0.00189465
0.00191425
0.00188783
0.00163673
0.00270733
0.00429788
0.00273375
0.00149153
0.00161141
0.00159949
0.00282122
0.00281698
0.0027566
0.00428838
0.00453449
0.00452343
0.00425077
0.00405781
0.0024028
0.00272761
0.00273687
0.00275121
0.00279613
0.00141294
0.00154028
0.00158844
0.00171049
0.00149453
0.00189745
0.000491031
0.00068107
0.000791044
0.000860392
0.000927055
0.000909398
0.00174052
0.00176644
0.00168541
0.00164082
0.00208196
0.00223402
0.00228309
0.0021026
0.00193998
0.00206505
0.00206976
0.0019508
0.00184773
0.00191555
0.00191681
0.001837
0.00156247
0.00146409
0.00160721
0.00158999
0.00157743
0.00283174
0.00282663
0.00267537
0.00439439
0.00432421
0.00484267
0.00481135
0.00480565
0.00478603
0.00483728
0.00486409
0.0048843
0.004908
0.00489863
0.0048515
0.00674127
0.00477302
0.00416529
0.00240939
0.0023211
0.00163949
0.00143691
0.00169203
0.00180972
0.00196203
0.00191774
0.00202145
0.00201901
0.00214237
0.00198829
0.00176532
0.00270358
0.00288805
0.00282054
0.00287616
0.00280839
0.00279172
0.00277133
0.00273217
0.00268492
0.00159897
0.00156864
0.00183694
0.00192832
0.00207205
0.00209067
0.00213611
0.00202564
0.00178132
0.00172422
0.00198595
0.00195907
0.00199741
0.00188313
0.00187511
0.00167027
0.00171264
0.0034524
0.00636869
0.00328071
0.00364406
0.00330215
0.00375537
0.0032898
0.00283752
0.00290423
0.00255819
0.00266859
0.0027991
0.00284977
0.00299519
0.00353069
0.00339922
0.00298376
0.00289712
0.00284007
0.00267799
0.0024105
0.00252491
0.00254752
0.0026022
0.00289217
0.00331744
0.00371819
0.00451774
0.00438399
0.00384086
0.00351168
0.00368231
0.00374679
0.0047159
0.0044054
0.0043795
0.00462032
0.00457482
0.00434145
0.00411352
0.00397049
0.00340935
0.00346519
0.0039648
0.00383687
0.0039542
0.00388489
0.00403927
0.00411242
0.00394669
0.00366807
0.00385768
0.00385029
0.00427506
0.00415713
0.00385685
0.00352701
0.00377195
0.00372719
0.00430438
0.00405099
0.00378877
0.00348872
0.00334261
0.0037932
0.00372332
0.00422097
0.00434413
0.00434614
0.00378972
0.00370099
0.00440035
0.00423287
0.00409014
0.00426037
0.00352905
0.00362861
0.00446935
0.00456267
0.00432959
0.00361579
0.00366999
0.00314631
0.0037001
0.0046049
0.00434938
0.00356528
0.00295934
0.00413906
0.00435411
0.00460518
0.0043526
0.00473931
0.00510467
0.00416216
0.00452757
0.00591407
0.0045182
0.00524233
0.00535784
0.00538874
0.00539079
0.0054108
0.0054368
0.00572625
0.00556665
0.00354365
0.00423584
0.00411689
0.00344629
0.00293431
0.00323081
0.00347947
0.00352979
0.00361942
0.00375717
0.00369206
0.0035672
0.00522305
0.00595978
0.00608937
0.00620993
0.00610779
0.00595608
0.00560831
0.00518675
0.00431704
0.00322172
0.00201371
0.00205365
0.0021894
0.00216968
0.0018832
0.00142011
0.000933486
0.00138391
0.00143092
0.00134851
0.00123077
0.00108973
0.00113273
0.00205293
0.00368201
0.00536373
0.00598394
0.00648344
0.0069977
0.00745481
0.00779709
0.0080511
0.00822888
0.00834209
0.008368
0.00821521
0.00748425
0.00714905
0.00673188
0.00638759
0.00591187
0.00554517
0.00627153
0.00688985
0.00726951
0.00769558
0.00789113
0.00780529
0.00677382
0.00656975
0.00756942
0.00932841
0.00793073
0.00996694
0.0117133
0.0091179
0.00819138
0.00818229
0.00915608
0.00933686
0.00901017
0.00849694
0.00790594
0.00715481
0.00753789
0.00788573
0.00822108
0.00853043
0.00932999
0.00946218
0.00938519
0.00922639
0.00902153
0.00874864
0.00833621
0.00775884
0.00705515
0.00634041
0.00551273
0.00375219
0.00192349
0.00216689
0.00213857
0.00214348
0.00215917
0.00103718
0.00114484
0.00115811
0.00116391
0.00109568
0.0012475
0.0018034
0.00290462
0.00208858
0.00172451
0.0011918
0.00139393
0.00232316
0.00392734
0.00443185
0.0045256
0.00469895
0.0062902
0.00690008
0.00729571
0.00761776
0.00781787
0.00772791
0.0074908
0.00706591
0.00652363
0.00630584
0.00594526
0.00562622
0.00544681
0.00526883
0.00493654
0.00385682
0.00373935
0.00389421
0.00384331
0.00367859
0.00393159
0.00407377
0.00407023
0.00411526
0.00415451
0.00427683
0.0044208
0.00454601
0.0046115
0.00463553
0.00464285
0.00465204
0.00465931
0.00467336
0.00465742
0.00455541
0.00400012
0.00250185
0.00146074
0.0013505
0.00148074
0.00156586
0.00160229
0.0014231
0.000916133
0.00142356
0.0018427
0.00188978
0.0020735
0.00213905
0.0022671
0.00252425
0.00291661
0.00300952
0.00267088
0.00252996
0.00247666
0.002414
0.00206925
0.0025788
0.00283926
0.00283311
0.00280551
0.00303196
0.00373051
0.00358409
0.00316098
0.00312665
0.00309574
0.00280465
0.00276252
0.00301248
0.00304518
0.00315776
0.00370205
0.00443865
0.00411836
0.00375171
0.00359839
0.00332387
0.00293034
0.0026497
0.00324858
0.00266094
0.00141741
0.0012112
0.00119841
0.00120527
0.00116602
0.00138166
0.00145283
0.00147081
0.00136456
0.00151353
0.0016837
0.0016274
0.00184415
0.00182069
0.00163146
0.0016177
0.00174393
0.00183534
0.00188305
0.00194028
0.00317193
0.00327853
0.00253544
0.0036604
0.00421759
0.00417295
0.00442528
0.00364694
0.00327097
0.00388093
0.00447939
0.0051291
0.00405995
0.00384163
0.00392763
0.00180983
0.000952352
0.00134334
0.00166788
0.00185969
0.00180437
0.00170444
0.00144103
0.00255181
0.00262155
0.00414992
0.0046549
0.00471413
0.00468421
0.0048147
0.00530132
0.00615645
0.0068323
0.00703105
0.00693025
0.0066351
0.00608613
0.00553382
0.00548714
0.00528582
0.00513695
0.00508649
0.00440823
0.00391711
0.00419219
0.00411858
0.00425729
0.00432169
0.00436821
0.0044155
0.00449469
0.0045902
0.00467683
0.00473551
0.00477426
0.00480682
0.00484028
0.00487405
0.00491073
0.00493021
0.00488291
0.0044127
0.00264793
0.00157934
0.00144089
0.00153747
0.00180694
0.00190252
0.00204485
0.00181615
0.000956549
0.00112484
0.00195464
0.00216653
0.00200435
0.00187592
0.00184243
0.00154345
0.0027944
0.00275779
0.0043266
0.0048659
0.00493405
0.00492062
0.00488285
0.00484038
0.0048005
0.00476789
0.00474202
0.00471432
0.00467428
0.00462512
0.00457939
0.00453334
0.00445381
0.00434047
0.00421844
0.00438237
0.00452965
0.00471222
0.00491803
0.00502931
0.00494276
0.00480454
0.00473631
0.00475973
0.00479922
0.00484091
0.00487861
0.00489675
0.00484277
0.00456464
0.00428415
0.00271475
0.00274985
0.00135447
0.00150458
0.00173605
0.00179304
0.00194729
0.0019384
0.00152446
0.00118802
0.00134022
0.00125219
0.00223618
0.00245888
0.00272618
0.00269908
0.00146693
0.00150461
0.00156382
0.00176423
0.00164085
0.00158527
0.0038985
0.00373965
0.00391605
0.00480258
0.00413856
0.00285952
0.00313256
0.00435843
0.00459558
0.00277926
0.00208559
0.00231171
0.00292831
0.00431072
0.00436355
0.00414456
0.00412227
0.00301101
0.0037019
0.00445305
0.00433078
0.00337873
0.00232827
0.00173356
0.000844452
0.00160635
0.00137351
0.00336242
0.00372055
0.00367606
0.00401918
0.00427122
0.00431503
0.00419182
0.0037196
0.00379345
0.00383071
0.00436335
0.00438163
0.00371187
0.00313244
0.00254608
0.00256851
0.00261778
0.00290024
0.00363104
0.00342141
0.00299921
0.00290871
0.0028464
0.00267776
0.00241675
0.00212038
0.00213481
0.0019868
0.00192259
0.00303035
0.0040333
0.0047557
0.00489239
0.00494206
0.00486659
0.00483272
0.0046952
0.00462444
0.00401807
0.00513113
0.00542279
0.00523176
0.00526944
0.00530142
0.00534099
0.00534102
0.00524024
0.00450422
0.00269041
0.00175756
0.00198396
0.00214162
0.00201126
0.00199969
0.0021311
0.00202195
0.00177592
0.00287707
0.00281191
0.00449532
0.00508969
0.00519919
0.00520639
0.00518616
0.00516957
0.00517674
0.00544917
0.00532334
0.00538785
0.0056687
0.005681
0.00575121
0.00540043
0.00533241
0.00528922
0.0052605
0.0052133
0.00508598
0.00450146
0.00436367
0.0049547
0.00510671
0.00517393
0.00522053
0.00527645
0.00535023
0.00556283
0.00572016
0.00577757
0.00554753
0.00546666
0.00534102
0.00516039
0.00511755
0.00510835
0.00510391
0.0050786
0.0049464
0.00435472
0.00280034
0.00286946
0.00170721
0.00171845
0.00197943
0.0020793
0.00204239
0.00189148
0.00184424
0.00316902
0.00360676
0.00383794
0.00413245
0.00394668
0.00392417
0.00448557
0.00434102
0.00387137
0.00402772
0.00361229
0.00344312
0.00332652
0.00334427
0.00176309
0.00190234
0.00198406
0.0019509
0.00186549
0.00166374
0.0015257
0.00278395
0.00276364
0.00272748
0.00162241
0.00158698
0.00186973
0.00181597
0.0016614
0.00141617
0.00155233
0.00239603
0.00267953
0.00415451
0.00430276
0.00460599
0.00492578
0.00504733
0.00508054
0.00510042
0.00512325
0.00517132
0.0052283
0.00524358
0.00524059
0.00528431
0.0052768
0.00527687
0.00524727
0.00521404
0.00517593
0.00513569
0.00507012
0.00493535
0.00461229
0.00429529
0.00484263
0.00488705
0.00497803
0.00507252
0.0051134
0.00512103
0.00510445
0.0050699
0.00502908
0.00498051
0.0049796
0.00511664
0.0051479
0.00517186
0.0051561
0.00513896
0.00513355
0.00511181
0.00507569
0.00498165
0.00488728
0.00484685
0.00476607
0.00489382
0.00495032
0.0049591
0.00500727
0.00508438
0.005105
0.00510248
0.00506389
0.00503193
0.0049923
0.00492826
0.00484686
0.00456617
0.00462339
0.00469932
0.004798
0.00489348
0.0049706
0.00501346
0.00501514
0.00496809
0.00493674
0.00493783
0.00489641
0.00491823
0.00494064
0.00491615
0.00491439
0.00491999
0.00486684
0.00476756
0.00462857
0.00448089
0.00435716
0.00429108
0.00418581
0.00451974
0.00464377
0.00475557
0.00485543
0.00494665
0.00503923
0.00506991
0.00506206
0.0050054
0.00497306
0.00497131
0.00492324
0.00492146
0.00496803
0.00497036
0.00499745
0.00504691
0.00503034
0.00496043
0.0047872
0.00461947
0.00447466
0.00433725
0.00419054
0.00413524
0.00420297
0.0041535
0.00421826
0.00436731
0.00455136
0.00470919
0.00480777
0.00483755
0.00486591
0.00490906
0.00490374
0.00487763
0.0048641
0.00480578
0.00475555
0.00469357
0.00455536
0.00437677
0.00421695
0.00416149
0.00424259
0.00432715
0.0042486
0.00395759
0.00411387
0.00425906
0.00440483
0.00461291
0.00485412
0.00496277
0.00500156
0.0049783
0.00495981
0.00495709
0.00491295
0.00489815
0.00493875
0.00494199
0.00496058
0.00499147
0.00495637
0.00486547
0.00456879
0.00421981
0.0040542
0.00395788
0.00382187
0.00426948
0.00435868
0.00425092
0.00417886
0.0042932
0.00442819
0.00456819
0.00466079
0.00469668
0.00474639
0.00481196
0.00484293
0.00479563
0.00474142
0.00467411
0.00463914
0.00463692
0.00461079
0.00451922
0.00441408
0.00429665
0.00444199
0.00452658
0.00444495
0.0040296
0.00409655
0.00418885
0.00423989
0.00456672
0.00485901
0.00493312
0.0049412
0.00491268
0.00489427
0.00489543
0.00486995
0.00482268
0.00481362
0.00480803
0.00486224
0.00493315
0.00496612
0.00498031
0.00476022
0.00437077
0.00431483
0.0041447
0.00406059
0.00450431
0.00455716
0.00445424
0.00435704
0.00456395
0.00465333
0.00468035
0.00466426
0.00461746
0.0045859
0.004644
0.00473537
0.0046653
0.0043639
0.00409519
0.00423295
0.00426541
0.00425292
0.00419386
0.0040974
0.0038907
0.00434322
0.0047838
0.00482032
0.0043522
0.00435921
0.00421117
0.00391063
0.00428791
0.0044941
0.00454309
0.00453201
0.00446699
0.0043002
0.00454427
0.0047583
0.00471807
0.00426995
0.00277133
0.00281007
0.00283136
0.00283486
0.0027976
0.0027874
0.0027468
0.00272597
0.00266275
0.00259873
0.00253715
0.00270649
0.0028517
0.00304652
0.00306247
0.00314293
0.00300866
0.00284866
0.0026603
0.00206983
0.00262666
0.0031339
0.00333036
0.0035826
0.00363554
0.00419514
0.0044145
0.00453514
0.00445045
0.00356963
0.00302829
0.0024199
0.00157363
0.000980502
0.00115117
0.00119757
0.00126154
0.00154645
0.00282494
0.00144331
0.00199606
0.00156133
0.00267982
0.0014351
0.000895376
0.000594259
0.000759982
0.000903848
0.00091335
0.000874287
0.000728418
0.000571758
0.000584401
0.000544073
0.000577906
0.000518534
0.00059372
0.000553411
0.000770033
0.00115072
0.00131461
0.0013442
0.00108663
0.00122595
0.0010243
0.00118163
0.00105542
0.00115034
0.00110364
0.0013496
0.00147908
0.00141595
0.00141973
0.00124242
0.000869093
0.00100745
0.000791644
0.000950629
0.000727594
0.00093978
0.00080589
0.00104725
0.00107961
0.00107653
0.00103655
0.000791888
0.000938868
0.000739355
0.000911321
0.00074865
0.000801414
0.000667498
0.000969988
0.000988039
0.000909406
0.000970605
0.00109209
0.00117253
0.00128954
0.00121597
0.00138139
0.00132954
0.00134168
0.00127079
0.00123578
0.00120767
0.00121022
0.00119026
0.00119662
0.00123497
0.00123658
0.0012412
0.00127999
0.00126104
0.00123024
0.00121162
0.0010766
0.000868957
0.0015139
0.00156111
0.00158457
0.00158433
0.00154912
0.00153137
0.00147824
0.0014641
0.00141825
0.00139154
0.00132995
0.00127957
0.00122193
0.00137287
0.000768298
0.000872178
0.000920569
0.000947859
0.000966681
0.00097533
0.00098218
0.000976545
0.00096429
0.000940631
0.000932782
0.000906967
0.00116012
0.00131943
0.00137966
0.00139609
0.00130882
0.00124667
0.00272819
0.00330157
0.00501805
0.00512709
0.00385002
0.0038376
0.00132815
0.00140243
0.000958802
0.00134747
0.00138957
0.00137554
0.00129946
0.000937272
0.00140686
0.000980597
0.0013211
0.000993839
0.00122858
0.00102269
0.0014609
0.00186379
0.00180025
0.00163117
0.00112379
0.000937934
0.000944196
0.000806619
0.00088372
0.000719678
0.000876736
0.000735202
0.00108275
0.00152918
0.00169781
0.00173164
0.00136522
0.00188399
0.00141646
0.00205139
0.00162938
0.00200998
0.00161294
0.00186586
0.00230879
0.00231936
0.00226452
0.00182539
0.00146281
0.00164206
0.00145477
0.00167572
0.00242115
0.00158688
0.00240921
0.000995486
0.0013572
0.00139907
0.00138
0.00130123
0.000876572
0.00223072
0.00118003
0.00209846
0.00135905
0.0021784
0.00158593
0.00210822
0.00252245
0.00264135
0.0026345
0.0021501
0.00194368
0.00201713
0.00161289
0.00193662
0.00143733
0.00208205
0.00117338
0.00152103
0.00167953
0.00176847
0.00177502
0.00145811
0.00288032
0.00180877
0.00273021
0.00189898
0.00243294
0.00195011
0.00213241
0.00251838
0.00250252
0.00248136
0.00210409
0.00170309
0.0022484
0.00160363
0.0478746
0.110507
0.0440105
0.111642
0.0505345
0.0717151
0.0706412
0.0707624
0.0710096
0.0533027
0.116323
0.137474
0.1434
0.145184
0.144137
0.232943
0.189986
0.285466
0.1851
0.108953
0.0472724
0.0651657
0.168117
0.277552
0.41637
0.528209
0.35992
0.372477
0.237671
0.234276
0.220509
0.178347
0.109319
0.0548274
0.00941306
0.0103083
0.0147362
0.01962
0.0154724
0.00947933
0.00187166
0.00193126
0.00197467
0.00200191
0.00199552
0.00195436
0.00198754
0.00188018
0.00177065
0.00197996
0.00215752
0.0023109
0.0027209
0.00300728
0.0027101
0.00297148
0.00314978
0.00329452
0.00341359
0.00359119
0.00379154
0.00396842
0.00397849
0.00364633
0.00310827
0.00252978
0.00212787
0.00201636
0.00189368
0.00166997
0.0015279
0.0014314
0.00138423
0.00136448
0.00140193
0.00153181
0.00164414
0.00168345
0.00164998
0.00161957
0.00159305
0.00141841
0.00165828
0.00227463
0.00229292
0.00392821
0.00452614
0.00461995
0.00462608
0.00410209
0.00262078
0.00262634
0.00263978
0.00268985
0.00270028
0.00270666
0.00270368
0.0026935
0.00267767
0.00264798
0.00263336
0.00259076
0.00255508
0.00246641
0.00247041
0.00250239
0.00252747
0.00248659
0.00249718
0.00244435
0.00315626
0.0042303
0.00479111
0.00500822
0.0051948
0.00504256
0.00698036
0.00595932
0.00418986
0.00413483
0.00408259
0.00484033
0.00487359
0.00440468
0.00442219
0.00402416
0.00251017
0.00249915
0.00250066
0.00267327
0.00272518
0.0028198
0.00284561
0.00287022
0.00288418
0.00288174
0.00288066
0.00285755
0.00283907
0.00277625
0.00275523
0.00274648
0.00151418
0.00165235
0.00171345
0.00172422
0.00174778
0.00173664
0.00172521
0.00170417
0.00168971
0.00166125
0.00162764
0.00157961
0.00148537
0.00135371
0.00149028
0.00253127
0.0025314
0.00413227
0.00467046
0.0047043
0.00523124
0.00496761
0.0047055
0.00504994
0.00455706
0.00452196
0.00408374
0.00253383
0.00256816
0.00152298
0.00150886
0.00176326
0.00171383
0.00183149
0.00188133
0.00188775
0.00191405
0.00193976
0.0019711
0.00202148
0.00203711
0.00200716
0.00200209
0.00188656
0.00163039
0.00165011
0.00194527
0.00203974
0.00189277
0.00185795
0.00184281
0.00179734
0.00176274
0.00172932
0.00175169
0.00188568
0.0018839
0.00185118
0.00176181
0.00171656
0.00148923
0.00143908
0.00251557
0.00254536
0.00420244
0.00431898
0.00428735
0.00493288
0.00549996
0.00626175
0.00534119
0.00434257
0.00452255
0.0051681
0.00384073
0.00319262
0.001902
0.00143305
0.00176819
0.00166093
0.00173061
0.00179313
0.00159249
0.00170991
0.00158097
0.00143654
0.0014287
0.00142692
0.00146262
0.00147749
0.00150453
0.00150817
0.0015449
0.00154152
0.00154663
0.00156564
0.0015753
0.00174065
0.00189342
0.00159292
0.00135012
0.00131411
0.00124074
0.00118076
0.00120938
0.0011802
0.00117298
0.00115131
0.00113176
0.00107976
0.00112525
0.00119388
0.0013966
0.00133747
0.00108112
0.000966059
0.000660484
0.000673253
0.000677916
0.000698912
0.000706541
0.000715955
0.000719431
0.000731229
0.000733506
0.000737229
0.000736938
0.00075493
0.000752363
0.000743806
0.000738204
0.000741951
0.00074554
0.000745096
0.00109101
0.00121511
0.0013287
0.00157866
0.00185895
0.00159987
0.00135538
0.00116721
0.000750224
0.000761593
0.000775651
0.000782837
0.000799705
0.00081496
0.000832133
0.000842967
0.000851224
0.000859801
0.000868843
0.000872575
0.000870568
0.000853907
0.000844085
0.000865627
0.000951361
0.00100114
0.00106494
0.00108902
0.00110975
0.0011201
0.00111464
0.00112618
0.00111284
0.00111092
0.00109182
0.0010836
0.00107577
0.00106587
0.00105372
0.0010237
0.00101374
0.0010666
0.00180644
0.00236356
0.00272448
0.00300269
0.00277357
0.00224721
0.00236533
0.00415511
0.00393134
0.0023229
0.00216747
0.00199952
0.00174728
0.00152615
0.00184206
0.00210297
0.00230105
0.0024753
0.0026345
0.00274238
0.00288058
0.0030609
0.00338019
0.00342061
0.00312056
0.00252994
0.00214324
0.00200302
0.00193561
0.00181737
0.0016882
0.00173035
0.00174269
0.00169067
0.00162603
0.00160743
0.00163382
0.00166704
0.00164694
0.00164616
0.00147048
0.00146999
0.00251154
0.00256002
0.00393762
0.00414837
0.00418796
0.00269316
0.00265597
0.0015515
0.0014407
0.00157164
0.00163135
0.00163462
0.00164108
0.00163239
0.00160367
0.00158261
0.00155814
0.00153836
0.00152104
0.00149114
0.00143433
0.00132473
0.00144393
0.00161946
0.0016907
0.00170896
0.00171761
0.00174468
0.00178914
0.00182492
0.00190765
0.00191657
0.00191592
0.0019228
0.00179749
0.00185399
0.00156918
0.00156713
0.00271583
0.00270883
0.00155633
0.00183777
0.00184994
0.00182835
0.00196806
0.00180101
0.00174381
0.001734
0.00166047
0.00162132
0.00156931
0.00153831
0.00156873
0.00166917
0.00161679
0.00143249
0.00138216
0.00154993
0.00149014
0.0012363
0.00105618
0.00102698
0.000982979
0.000956304
0.00100227
0.00103806
0.00105848
0.00108447
0.0010922
0.00113999
0.00110934
0.00116443
0.00123484
0.00129087
0.00153133
0.0016593
0.00149904
0.00147024
0.00145198
0.00145001
0.00145447
0.00139449
0.00139051
0.00135951
0.00134427
0.00130386
0.00128562
0.00126244
0.0012667
0.0012802
0.00140749
0.00362697
0.00462198
0.00481363
0.00821234
0.00332119
0.00339242
0.00664053
0.00275259
0.00413525
0.00443149
0.00463409
0.00483864
0.00442754
0.00561381
0.003926
0.0043698
0.00456215
0.00401205
0.00149116
0.00167517
0.00194492
0.00174866
0.0015452
0.00105376
0.00113719
0.00117483
0.00120529
0.00122514
0.00124705
0.00127053
0.00129257
0.00130806
0.00130837
0.00126876
0.00122599
0.00112769
0.00109494
0.00113736
0.00118121
0.00103772
0.000977135
0.000988752
0.00100515
0.00101439
0.00101644
0.00102655
0.00102933
0.00104524
0.00103688
0.00104497
0.00102721
0.00103648
0.00102276
0.00098773
0.000938746
0.000855298
0.00083478
0.00120229
0.00128017
0.00134487
0.00152578
0.00176145
0.00187939
0.00168435
0.00155303
0.00149074
0.00165384
0.00165379
0.00299976
0.00575419
0.002581
0.0028931
0.00841167
0.00334934
0.00260822
0.0026479
0.00267579
0.00267941
0.00155731
0.00184462
0.00178876
0.0017955
0.00152273
0.00127831
0.00114655
0.00102518
0.000695057
0.000692693
0.000697924
0.000708514
0.000711789
0.000681342
0.000681261
0.000677368
0.000675836
0.000661509
0.000657512
0.00064589
0.000638837
0.000622103
0.000613019
0.000597021
0.000594044
0.000617245
0.000684353
0.000826748
0.000922999
0.00104733
0.00106724
0.00120746
0.00300145
0.00347899
0.00479067
0.00474844
0.007491
0.00467951
0.00353559
0.00319834
0.00467815
0.00483204
0.0044915
0.00608559
0.00421192
0.00278486
0.00413399
0.00342673
0.00412499
0.00402596
0.00426443
0.00677565
0.00715305
0.00201802
0.00179939
0.00189342
0.00214784
0.00254983
0.00234619
0.0026735
0.00266748
0.00205512
0.00131561
0.00419039
0.00505244
0.00403754
0.00483431
0.00750896
0.00302097
0.00294669
0.00260752
0.00217644
0.00197824
0.00195153
0.00217583
0.00260364
0.00652962
0.00698198
0.0063953
0.00635698
0.00577301
0.00637855
0.0079732
0.00795037
0.00701996
0.00656843
0.0067882
0.00417134
0.00262319
0.00305636
0.00338357
0.00451377
0.00465436
0.0098347
0.00333353
0.00368455
0.00374156
0.0050072
0.00484436
0.00857578
0.00362683
0.00391374
0.00515643
0.00688657
0.0127133
0.00463073
0.00488394
0.00702683
0.00713146
0.00651834
0.00470813
0.00426785
0.00465286
0.00350476
0.0034257
0.00292625
0.0043214
0.00582044
0.00459581
0.00446296
0.00380012
0.00337343
0.00346399
0.00359245
0.00298323
0.0029428
0.00339938
0.00251469
0.00243056
0.00258375
0.000716043
0.000367115
0.000375371
0.000385106
0.00039301
0.000401131
0.000407101
0.000414144
0.000417371
0.000417688
0.000418734
0.00044283
0.00043882
0.000424954
0.000385884
0.000440392
0.000698853
0.000699371
0.000439944
0.000387874
0.000695863
0.00110887
0.00130728
0.00154677
0.00156611
0.00135113
0.00117139
0.000720902
0.000709609
0.000430172
0.000502375
0.000545574
0.000483857
0.000539943
0.000500406
0.000530083
0.000535396
0.000495343
0.000492626
0.000494554
0.000490746
0.000482053
0.000471391
0.000458384
0.000448063
0.000442236
0.000437471
0.000427385
0.000356076
0.000331499
0.000397477
0.000632539
0.000631519
0.000592433
0.000559483
0.000531518
0.000519023
0.000515702
0.000513017
0.00052198
0.000538896
0.00054365
0.000548372
0.000590864
0.000572721
0.000611769
0.000574066
0.000613374
0.000575782
0.000529655
0.000444733
0.000458854
0.000740141
0.000748008
0.00120875
0.00138302
0.00156846
0.00157668
0.00175988
0.00185313
0.00156905
0.00162896
0.00186712
0.00173928
0.00155066
0.0015566
0.00140036
0.00140146
0.00124117
0.000775548
0.000764985
0.000480494
0.000466625
0.000556424
0.000546649
0.000607993
0.000650631
0.000650861
0.000648739
0.000632029
0.000626121
0.000550668
0.000539921
0.000540625
0.0005242
0.000520565
0.000542287
0.000590716
0.000692238
0.000836904
0.000911656
0.000944311
0.000906652
0.000812286
0.000598011
0.000541495
0.00093729
0.000974473
0.00173357
0.00410331
0.00189437
0.00367125
0.00265065
0.000661171
0.000738254
0.000941526
0.00105511
0.00113896
0.00118619
0.00108305
0.00090294
0.000680035
0.000561769
0.000841024
0.000727317
0.00082229
0.000718316
0.000929508
0.00107482
0.00103985
0.00104775
0.000885541
0.000721504
0.000764102
0.000686172
0.000756396
0.000633185
0.000761868
0.000687856
0.000864424
0.000872539
0.000854387
0.000809855
0.000616641
0.000646978
0.000542696
0.00058867
0.000528491
0.000546188
0.000517592
0.000603548
0.000695463
0.000667427
0.000664787
0.000546187
0.000427946
0.000472622
0.000408529
0.000462364
0.000359294
0.000435293
0.000365081
0.000472574
0.000487069
0.000489426
0.000485825
0.000394799
0.000464069
0.000569588
0.000598512
0.00060362
0.000575222
0.000443291
0.000686128
0.000619655
0.00075668
0.000654732
0.000716478
0.000652528
0.000760562
0.000974006
0.00101683
0.00102359
0.000830386
0.000825185
0.00150461
0.0833883
0.00135345
0.00159969
0.00164947
0.00164345
0.00135879
0.00132584
0.00164174
0.00121481
0.00171998
0.00108288
0.00183395
0.000699323
0.00106311
0.00114138
0.00113892
0.0010584
0.000709065