/*--------------------------------*- C++ -*----------------------------------*\
| =========                 |                                                 |
| \\      /  F ield         | OpenFOAM: The Open Source CFD Toolbox           |
|  \\    /   O peration     | Version:  v2012                                 |
|   \\  /    A nd           | Website:  www.openfoam.com                      |
|    \\/     M anipulation  |                                                 |
\*---------------------------------------------------------------------------*/
FoamFile
{
    version     2.0;
    format      ascii;
    class       surfaceScalarField;
    location    "520";
    object      phi;
}
// * * * * * * * * * * * * * * * * * * * * * * * * * * * * * * * * * * * * * //

dimensions      [1 0 -1 0 0 0 0];
oriented        oriented;


internalField   nonuniform List<scalar> 
50655
(
0.00257508
-0.00361127
-0.00137946
-0.00511731
0.00127846
0.0036649
-0.00342452
0.00386909
0.00454343
-0.00249938
-0.0027901
0.0029777
-0.00369094
-0.00376328
0.00271721
-0.00180683
-0.0048096
0.000867789
0.000131444
-0.00466491
0.00165924
-0.00187452
-0.00721434
0.0024619
-0.0105096
0.00288602
0.000310473
-0.0113316
-0.00349455
0.00420657
-0.0120797
-0.0048632
0.00550888
-0.0129368
-0.00565123
0.00640422
-0.0262294
-0.00933813
0.0224368
-0.0487596
-0.0283142
0.0502841
-0.0483346
-0.0527816
0.0516594
-0.0310824
-0.0711771
0.0531471
-0.00451909
-0.0780479
0.0507016
0.00791007
-0.054695
0.0414545
-0.00167804
-0.031443
0.0402582
-0.0209497
-0.0217508
0.0402557
-0.0168431
-0.0513077
0.0464787
-0.00700696
-0.055208
0.0448141
-0.038748
0.031412
-0.0411967
0.0188275
-0.0166801
-0.0159082
-0.0755293
0.0497461
0.0201987
-0.0798044
0.043201
0.0306017
-0.0292638
0.0185538
0.0341067
-0.00384237
0.0365264
0.0179314
-0.0206736
0.0253861
-0.0180017
0.0288662
0.0164449
-0.00949728
0.0182693
0.00335828
-0.00130992
0.0142695
-0.00652009
0.00685705
0.00292604
-0.00543382
0.000116566
-0.00124353
-0.00539977
-0.00123419
0.00118175
-0.00632214
0.000228873
0.000676207
-0.0075894
0.000217491
0.00103316
-0.0087305
9.62482e-05
0.00102773
-0.00912652
-0.000246193
0.000625844
-0.00939215
-0.000664445
0.000913482
-0.00895467
-0.00109103
0.000637264
-0.00832705
-0.00155782
0.000913533
-0.00710152
-0.00200534
0.000763375
-0.00567332
-0.0024675
0.00102243
-0.00380002
-0.00276564
0.000876166
-0.00196815
-0.00295376
0.00110494
0.000949814
-0.00293556
0.000711439
-0.00251391
0.00272664
-0.00549227
0.00499672
0.00116522
-0.011033
0.00474218
0.000742018
-0.013148
0.00515695
-0.00310897
-0.0129915
0.00537444
-0.00559788
-0.00543873
0.00464861
-0.0122578
0.000504333
0.00560517
-0.01159
0.000600287
0.00357231
-0.0036939
-0.00150351
0.00208621
-0.00294939
0.00214163
-0.000712883
-0.00450741
0.00218935
-0.000647483
-0.00581949
0.00234834
-0.00105264
-0.00708558
0.00230586
-0.00105472
-0.00858652
0.00249771
-0.00101078
-0.0101522
0.00258371
-0.00103139
-0.0114475
0.00237608
-0.00109395
-0.0123499
0.00201457
-0.00112519
-0.0128169
0.00160117
-0.00114716
-0.0131339
0.00143491
-0.00113125
-0.0137359
0.00156184
-0.000973988
-0.0139423
0.00111883
-0.000927586
-0.0136482
0.000894172
-0.00120364
-0.013639
0.000781153
-0.000806023
-0.0133656
0.00082625
-0.00111573
-0.0131195
0.00090137
-0.00116346
-0.0129757
0.000844699
-0.00100424
-0.0127007
0.000575283
-0.000865851
-0.0121622
0.000126759
-0.000680716
-0.0112625
-0.000447764
-0.000467246
-0.0101432
-0.000906751
-0.000227834
-0.00882694
-0.00100248
-0.000328541
-0.0073797
-0.000753118
-0.000707969
-0.00757806
-0.000686582
0.000872936
-0.016381
0.000829762
0.00794667
-0.0211474
0.000416789
0.00428902
-0.0225875
0.00116113
0.00021375
-0.0425504
0.0163557
0.00348971
-0.0545234
0.00564599
0.00602873
-0.0294423
-0.0162387
-0.00915003
-0.013104
-0.0149202
-0.00155026
-0.0112441
-0.00397522
0.00203739
-0.00998701
-0.00306002
0.00171282
-0.00806903
-0.00340841
0.00138892
-0.00471234
-0.00327485
-0.000177115
-0.00316261
-0.00163503
-0.00442167
0.00457576
-0.00341159
-0.00263685
0.00672448
-0.00862292
0.00095893
0.00619993
-0.0099279
0.00626137
0.00588838
-0.0113356
0.0150576
0.00876121
-0.0177385
0.0285815
0.0137207
-0.0275272
0.0248412
0.0196366
-0.0161777
0.0163568
0.00633181
0.00196788
0.00742605
9.12776e-05
0.00869215
-0.00140659
-0.00416069
0.0128584
-0.0045642
-0.00690066
0.0099419
-0.00758627
0.00538652
0.0044821
0.000965806
-0.0102456
0.00229269
-0.00836202
0.0035371
-0.0048605
-0.0044675
0.00733423
-0.0123676
0.00206725
0.0053983
-0.0143025
0.00567501
0.00245481
-0.0385579
0.0268298
0.023222
-0.00674121
-0.0133568
0.0370013
-0.00984185
-0.0392172
-0.00486309
0.00925731
-0.00912434
-0.000599085
0.00895141
-0.0074571
0.0026241
0.00957143
-0.00671711
0.00455354
0.00959105
-0.00490593
0.00710584
-0.00134521
0.0112486
-0.00494081
-0.00272755
0.0124252
-0.00187789
-0.00246114
0.00881834
-0.00039899
-0.0041173
-0.00203498
-0.0210586
-0.00210344
0.0295393
-0.010669
-0.0143082
-0.00164723
-0.00712681
-0.00246546
-0.00733909
0.0158631
0.00135625
-0.0102774
0.0219084
0.00115808
-0.00900677
0.0324431
0.0003864
-0.0132014
0.0831747
-0.00210232
-0.0360043
0.0467709
-0.00196932
0.0455078
-0.00215801
0.00741223
-0.00309374
0.0384332
0.00384903
0.021771
0.00195024
0.023226
-0.000321029
0.0113099
0.0139345
0.00622087
-0.00792142
0.000105456
0.00680616
0.00521305
-0.00147701
0.00731728
0.00818252
-0.00152165
0.00711829
-0.0150667
0.00797492
-0.0020926
0.00736592
-0.0153139
0.00849912
-0.00126053
0.00743276
-0.0166973
0.00841195
-0.00129747
0.00741668
-0.0160116
0.008611
-0.00062815
0.00727937
-0.0165741
0.00860485
-0.000253873
0.00702776
-0.0159791
0.0085571
0.000707482
0.00623093
-0.0154378
0.00822689
0.00575942
0.00441896
-0.0169355
0.00745011
0.00149135
-0.00415233
0.00567158
0.00273449
0.00080541
0.00537745
-0.000279535
0.000624219
0.00713526
-0.000733903
0.000777079
0.00801179
-0.00114918
0.00093152
0.00831508
-0.00120312
0.00126809
0.00838344
-0.00131658
0.00149149
0.00855814
-0.00136206
0.00149385
0.00870245
-0.00135186
0.00125721
0.00871348
-0.00137086
0.000930752
0.00882819
-0.00119634
0.00730414
-0.000264212
0.00935064
-0.00199453
-0.000819071
0.0110271
-0.0018397
-0.000854651
0.0123092
-0.00153679
-0.000667971
0.0130939
-0.000303001
-0.000945133
0.0135231
0.000860213
-0.00117836
0.0137
0.00171599
-0.00133344
0.0136982
0.00224367
-0.00141342
0.0137562
0.00225628
-0.00142953
0.0137104
0.00183195
-0.000976376
0.0137168
0.0013537
-0.000594978
0.0138988
0.00123133
-0.000534785
0.0132881
0.0011476
0.000566699
0.0124381
0.00243326
0.000233079
-0.000268603
0.0126795
-0.000412997
0.00243879
-0.000845565
0.0123414
-0.000237357
0.0028016
-0.000638258
0.0114678
-7.37496e-05
0.00311413
-0.000165326
0.0102049
4.94515e-05
0.000298364
0.00327792
0.00860608
0.00072367
0.00331541
0.000129889
0.00686127
0.0010421
0.00304923
0.000137376
0.00585636
0.000965345
0.00224234
8.81171e-05
0.00441359
0.00462469
-0.00084997
0.00286208
0.0042804
-0.000555748
0.00141877
-0.000507285
0.00407581
0.00389571
-0.00040766
0.00560549
-0.00051645
-0.00120947
0.00682986
-0.000410708
-0.000830516
0.00780372
-0.000609269
-0.000381072
0.00817052
-0.000474278
9.07566e-05
0.0082309
-0.000608209
0.000531368
0.00754543
-0.000260279
0.000929157
0.00657386
-0.000297551
0.00125255
0.0047649
0.000286616
0.00150526
0.00209463
0.0011172
0.00153594
-0.00167219
0.00205686
0.001692
-0.00444151
0.000589183
0.00216215
-0.00597069
-0.000858377
0.00236829
-0.00725607
0.000627186
0.00063625
-0.0137024
0.000512477
0.00588899
-0.0247543
-0.00653788
0.017474
-0.0309127
-0.0160935
0.0220866
-0.0391027
-0.0259805
0.0339039
-0.0315595
0.0235585
0.0161937
-0.0383663
0.00920483
0.0258529
-0.0166744
0.00694667
-0.00456995
0.00438836
-0.0322057
0.0260547
0.00153228
-0.014671
-0.0233546
0.0057846
-0.0375237
0.00613196
0.0411571
-0.0573226
-0.000848617
0.0289471
-0.0499117
0.0151417
0.0125782
-0.0100049
0.0169483
-0.0102947
0.0109126
-0.00248211
0.0188709
0.00792353
0.0112342
-0.0125558
0.0135388
0.00523671
-0.00617204
0.00131495
0.0112423
0.0048299
0.00102255
0.00267692
0.00128438
-0.00104328
0.00156616
0.00272165
-0.0048922
0.00382444
0.00205981
-0.00545494
-0.000523063
0.00218205
-0.00958792
0.00197284
0.00242627
-0.00823339
-0.00369865
0.00202649
-0.0118845
0.00194967
0.00142128
-0.0089192
-0.00419154
0.000598222
-0.0112534
0.00214482
-0.000304648
-0.00732861
-0.00321355
-0.00134018
-0.00816605
0.00228197
-0.00187541
-0.00441143
-0.0017253
-0.00256501
0.00129163
-0.00255748
0.00395619
0.0117656
-0.0106097
0.011411
0.00656689
-0.00942558
0.0128752
0.00892448
-0.00508394
0.00985991
0.0105445
-0.00244199
0.00399059
0.00952534
0.00103366
0.0127537
-0.00249386
-0.00216894
0.000837055
0.0151645
-0.00578415
0.00447657
-0.00328771
0.00210909
0.0150936
-0.00741244
-0.00308977
0.00324356
0.0072563
0.0104857
-0.0078545
-0.00270234
0.0032761
0.0118144
0.00181478
-0.00670135
-0.00201191
0.0011463
0.0161528
-0.000857886
-0.00435241
0.00747153
-0.000441814
-0.00516725
0.0110457
1.25998e-05
-0.0103499
0.0127037
-0.0089424
-0.0142568
-0.014139
0.00843848
0.00572587
-0.0241434
0.00411226
-0.0185631
0.00623263
-0.0164851
-0.0114122
0.00926504
0.00798427
0.0096068
-0.0341227
-0.0237459
0.00755157
0.0112229
0.00754548
-0.0100191
-0.0325838
-0.00915429
0.00780295
-0.00162236
4.87124e-05
0.00777715
-0.00656774
-0.0104756
0.0114709
-0.00763227
-0.0141479
0.0105559
0.0105126
-0.00084348
-0.00883949
0.0103204
-0.00147693
0.00791418
-0.00784275
0.00400555
0.00103068
0.00450742
-0.0037008
0.0060055
-0.00632923
0.0139788
-0.0121668
-0.00360187
0.0108117
-0.0170565
-0.00262857
0.00569586
-0.016986
-0.00102282
-0.00116787
0.00199751
-0.00822479
0.00832025
0.00970762
-0.00953234
0.0107687
0.0113715
-0.00497564
0.0113551
0.0120198
-0.00214197
0.0107841
0.0042433
-0.0108127
0.0111532
0.00296067
-0.00906182
0.0122995
-0.00211405
-0.00489258
0.0118648
-0.00474616
0.00982196
-0.00610054
0.00218048
0.00393056
0.00100966
0.00786968
0.00777844
-0.00169012
0.0108943
0.00894226
0.000245601
0.00771942
0.00640202
-0.0092018
0.0102362
-8.77792e-05
-0.0071932
0.00367774
0.00316747
0.000158677
0.00158695
-0.00124985
0.00491979
-0.00668572
-0.00157409
-0.00230748
0.0187405
-0.00341925
-0.0195244
0.0169032
-0.00142305
-0.00179185
-0.0163108
-0.0119019
-0.000840058
0.00327134
-0.00870236
-0.0106737
-0.0130812
0.0064849
-0.00594777
-0.00496634
0.000843431
0.00135494
0.000384423
-0.0020936
-0.00424105
-0.000992706
0.00396271
-0.00258717
-0.000418051
0.00179311
-0.00236915
0.00128495
-0.00379879
0.00673234
0.000685603
-0.0111113
0.000656417
-0.00347379
0.0103786
-0.00346235
-0.00446607
-0.0188528
0.0138502
-0.01181
-0.0193457
-0.0117921
0.00788155
0.00431117
-0.0265537
-0.0154111
0.00260126
0.00933883
0.010568
-0.0355276
-0.0164862
0.0130868
0.00185164
0.0104194
-0.042235
-0.0146442
0.00985642
9.97391e-05
0.0112921
-0.0436077
-0.0108051
0.00326123
-0.00151529
0.0103274
-0.0431033
-0.00619423
-0.0014767
-0.00182357
0.00888019
-0.0394324
-0.00338022
-0.00446937
0.00408462
-0.0346986
-0.00122905
-0.0070775
0.00649318
-0.00302846
-0.0321409
0.00128326
-0.00608427
0.00562278
-0.0034814
-0.0290966
0.00258237
0.00449978
-0.00396036
-0.00626884
-0.0289046
0.00196912
0.00399452
-0.00352286
-0.00274486
-0.0298085
0.000100363
0.00188949
-0.00119309
-0.0277516
-0.00170668
0.00144534
-0.00190913
-0.0229279
-0.00274585
0.00159345
-0.00376755
-0.0300943
0.00175331
0.022609
-0.0172716
-0.0591975
0.0293131
-0.0130395
0.0124528
0.00590888
-0.0198627
-0.00147556
-0.0132945
-0.0251669
-0.0090548
-0.0122433
-0.00053249
-0.00871915
-0.0111395
0.000557383
0.000307182
-0.0094118
-0.000666734
0.00055524
-0.00578861
-0.00383022
0.00148567
-0.00308529
-0.00403453
0.0010557
-0.00454152
-0.000248482
-0.00446157
0.000791626
-0.000918822
-0.00685236
0.00204316
0.00028445
-0.0107921
0.00219561
0.00166448
-0.0131023
0.000806263
0.00142538
-0.0133675
-0.000362854
0.000558265
-0.0130755
-0.00175637
0.00141037
-0.0236466
0.00141588
0.00908045
-0.0568474
0.0174877
0.0155064
-0.101256
0.00876793
0.0350675
-0.117882
-0.00597044
0.0219032
-0.127203
-0.0116989
0.0202449
-0.133596
-0.0165989
0.0221569
-0.137218
-0.0222872
0.0250244
-0.138525
-0.0273442
0.0277406
-0.138438
-0.0308179
0.0298067
-0.137624
-0.0329635
0.0312247
-0.136167
-0.0342098
0.0318369
-0.134019
-0.0348611
0.0318114
-0.130176
-0.0353733
0.0306586
-0.122207
0.0278817
-0.0366844
-0.103081
0.0208642
-0.040749
-0.0533454
0.00341769
-0.0537724
-0.0225742
-0.00117961
-0.0298105
-0.0123619
-0.00426342
-0.00602621
-0.0120837
0.00199851
-0.00233183
-0.0111844
0.00434015
-0.00531018
-0.00875159
0.00385688
-0.00637015
-0.00423669
0.00402544
-0.0086247
-0.00478
0.00349429
-0.00302221
-0.00804832
-4.76664e-05
0.00326516
-0.00780906
0.00237525
-0.00268569
-0.00894319
0.00104632
-0.0138139
0.00697195
-0.00219987
-0.0166418
0.00713998
-0.00442195
-0.0189141
0.00764018
-0.00547049
-0.023767
0.00700125
-0.00225316
-0.0532958
0.0187308
0.0106016
-0.0978764
-0.00810057
0.0521075
-0.110858
-0.031679
0.0439396
-0.112323
-0.0418252
0.04248
-0.107644
-0.0476654
0.0421636
-0.0988851
-0.0521322
0.0425168
-0.0862259
-0.0543494
0.0408656
-0.0692974
-0.055848
0.0380995
-0.049604
-0.0568288
0.0363694
-0.0239412
-0.0481009
0.0218014
-0.0375481
0.0131682
-0.0534154
0.0235691
-0.00816896
-0.0592949
0.0258764
-0.0204996
-0.0594054
0.0272013
-0.0276171
-0.0504343
0.0269638
-0.0364612
-0.0403912
0.0247868
-0.0353327
-0.0231981
0.0167593
-0.0344195
0.00924611
-0.0328829
0.027032
0.0382745
-0.056697
0.0507662
0.0496668
-0.074167
0.0745978
0.0497484
-0.0743997
0.0947641
0.0499453
-0.070936
0.110487
0.0471187
-0.063698
0.118698
0.039768
-0.0488011
0.116656
0.03297
-0.0317391
0.101
0.0300637
-0.0151274
0.0543702
0.0398104
0.00624576
0.0254113
0.0250001
0.00376242
0.0213132
0.0041746
-0.000181234
0.0194074
0.000593387
0.00120986
0.0158351
0.000299185
0.00316325
0.00910904
-0.000249211
0.0068767
-0.000929505
0.00995077
-0.000973726
-0.00969779
0.00964626
0.000710101
-0.0130805
0.0112877
0.00254553
-0.0142071
0.0122485
0.00404325
-0.0135387
0.0119054
0.00428029
-0.0191215
0.0187066
0.00777994
-0.0285611
0.0247763
0.00376509
0.0235617
-0.0198306
-0.000240517
0.0168497
-0.0130233
-0.000431999
0.00841498
-0.00835915
-0.000593519
0.00773043
-0.00769211
-0.00112417
0.00736016
-0.00693849
0.00630817
-0.0064818
0.00346427
0.00545176
-0.000295156
0.00324761
0.00618471
0.00132006
0.00334049
0.0059082
0.00165162
0.00399424
0.00477905
0.00290394
0.0103358
0.0115675
-0.00116502
0.0193629
-0.00895979
-0.000112745
0.00911497
-0.00418615
0.0143934
-0.02297
-0.0113893
0.0434044
-0.0155216
-0.00574765
-0.0017793
-0.000976235
0.00356759
0.00486701
-0.00942656
0.00604339
-0.0025993
0.00362738
-0.00178507
-0.00824003
0.000449514
-0.00914526
-0.0102465
-0.0126341
0.0183853
-0.0047755
-0.0306829
0.00322085
0.00365413
0.00405468
-0.0175203
-0.049563
0.00586748
0.0101082
0.000843898
-0.0580357
-0.0156418
0.026159
-0.00421357
-0.0203609
0.00615933
-0.00323839
-0.0202479
0.00560152
-0.00226228
-0.0206075
0.00529964
-0.000894001
-0.0189928
0.00443158
-0.0149648
0.00402705
-0.021087
0.00226211
0.00403444
-0.0218978
-0.00133668
0.00262674
-0.017847
8.59039e-05
0.00544316
0.00164505
-0.0464791
0.0353751
0.00830446
0.00802649
-0.114784
0.0350461
0.0513705
0.0208071
-0.124843
0.0473064
-0.00803794
-0.125681
0.0548075
-0.0218666
-0.11786
0.0645902
-0.0335191
-0.102947
0.0732674
-0.0419439
-0.0838785
0.0770204
-0.0470116
-0.0614266
0.0748094
-0.0483521
-0.0367592
0.0744684
-0.0502829
0.0505994
-0.0328922
0.0589949
0.0460283
-0.0302446
0.0685546
0.052005
-0.0352258
0.0688639
0.0531789
-0.0269119
0.0634125
0.0509141
-0.0201938
0.0441496
-0.00583635
-0.088297
0.0719441
0.00285978
-0.0980974
0.0755762
-0.0157704
-0.0995784
0.0800176
-0.0262999
-0.0882892
0.0792074
-0.0394339
0.0718476
-0.0405487
0.0880982
0.0942661
-0.0365983
0.0976751
0.101525
-0.0328241
0.0945405
0.101008
-0.0187853
0.0819639
0.0959897
-0.00872783
0.090311
0.00690971
-0.0812896
0.103342
0.0130418
-0.0945064
0.110387
-0.00210131
-0.0984099
0.115819
-0.0118681
-0.0905546
0.11665
-0.0239406
0.111157
-0.031346
0.0870752
0.12396
-0.0275471
0.0947082
0.128014
-0.0199741
0.0912747
0.126208
-0.00793227
0.0783421
0.120161
0.00222238
0.111972
0.0166967
-0.072463
0.116521
0.019372
-0.08441
0.125226
0.00594459
-0.0867569
0.131764
-0.00418949
-0.0788557
0.134126
-0.0149922
0.131048
-0.022291
0.0682303
0.131736
-0.0150477
0.0761168
0.134483
-0.00922103
0.0750222
0.130922
0.000960384
0.0640837
0.124561
0.0106663
0.115326
0.0225873
-0.0525911
0.105621
0.0297618
-0.0646192
0.116123
0.0195235
-0.0641794
0.119671
0.00984743
-0.0562419
0.125067
0.000515561
0.125942
-0.00408359
0.0351697
0.0190857
0.0612402
0.044553
0.0514345
0.0945128
0.0134141
0.0547265
0.0922917
0.0232122
0.0357405
0.0482167
0.0451313
0.0408216
0.044461
0.0364617
0.0514468
-0.0122968
0.0268096
0.0153644
0.0143675
-0.0187233
0.0276223
0.0150644
-0.0152819
0.0310786
0.0134934
-0.013541
0.0289955
0.0141858
-0.0399422
0.0275128
0.0407045
-0.000814967
0.0248067
-0.028369
-0.00827028
0.0384267
0.0057894
-0.0369609
-0.00679289
0.029906
0.00546777
-0.0370277
-0.00458894
0.0290269
-0.0364808
0.00508003
0.0258278
0.00345973
0.0038038
0.00513927
0.00491295
0.00713958
0.00679567
0.00759624
0.00902959
0.00889302
0.00837092
-0.00412434
-0.0198966
0.0156486
0.0026599
-0.00061383
0.000583448
0.00623333
0.00289283
0.000295543
-0.000532507
0.000350944
0.00408171
-0.00154469
-0.00243364
-0.00131895
0.00409936
-0.00165433
-0.000487407
0.00117806
0.0105753
0.0120579
0.0315361
-0.0530737
0.00539307
0.0177248
-0.00422062
-0.00726735
0.0567024
0.00122953
-0.0150531
0.00282698
0.0035405
-0.00653683
0.00503867
0.00396561
-0.00619202
-0.0221649
0.00966414
0.0174992
-0.0093967
-0.0124946
-0.000317319
0.0178877
-0.00256184
0.0239026
-0.00787061
0.0461754
-0.0126783
0.021603
0.0764537
-0.0249452
-0.0325347
0.00464301
0.00709206
0.0297114
0.00215856
-0.0175184
0.00804124
0.0136352
-0.00404356
-0.0106332
0.00847661
0.0149293
-0.00403852
-0.0114328
0.00757867
0.0144006
-0.00235474
-0.0112544
0.00612877
0.0127553
-0.0104039
-0.00100012
0.00366953
0.0104979
-0.00877095
0.000644969
0.00869914
-0.00787767
0.00276763
0.00840189
-0.00315468
0.00338122
0.0079998
-0.00279713
0.00314415
0.0151253
-0.00806795
0.000865234
0.0391095
-0.0159388
-0.00826432
0.0725427
-0.0388846
0.0048329
0.0825755
-0.027656
0.0168638
0.0841065
-0.0235141
0.0211492
0.0815149
-0.020242
0.0219612
0.0763013
-0.0157851
0.0200959
0.069212
-0.0086612
0.0148321
0.0596147
0.00186898
0.00680029
0.0409734
0.0179299
-0.000216532
0.0133137
0.0418991
-0.0151573
-0.00633081
0.0554276
-0.0366855
-0.00213987
0.0502372
-0.0553
0.0121083
0.039269
-0.0543502
0.0156234
0.0262374
-0.030511
0.00978284
0.0289982
-0.023775
0.00224133
0.0114051
-0.00408189
0.00051396
0.00390549
-0.00225509
-0.000288203
0.00181831
-0.00107073
-0.00201111
0.00330547
-0.00165209
0.00318125
-0.00229244
0.00313076
0.00529101
-0.00145651
3.80757e-05
0.00669732
-0.000374584
0.00202773
-0.000192913
0.00653954
-0.000634969
0.00156934
0.00602996
-0.0036834
0.00251086
0.00541048
0.00630235
0.00109039
0.0116729
0.0171973
-0.0105459
0.0151043
-0.0100679
0.023244
0.0238289
-0.0293374
0.0432707
0.0143488
-0.043453
0.0506705
0.0127472
-0.061795
0.0466768
0.0261404
-0.0779588
0.0297876
0.0273101
-0.0890765
0.00796454
0.0201106
-0.0947477
-0.00846327
0.0150306
-0.0982455
-0.0207939
0.0146643
-0.10046
-0.0294044
0.0148802
-0.100671
-0.0351978
0.0142294
-0.0973122
-0.0395792
0.0117846
-0.0884598
-0.0439864
0.0065697
-0.0318048
-0.0405013
-0.0448131
-0.0112085
-0.0183763
-0.010427
-0.0191121
0.00262953
-0.0153349
-0.00711197
0.00132777
-0.00573256
0.000265262
-0.00940858
0.000857155
-0.00381137
0.00166954
-0.00750004
0.00100464
-0.00882694
0.0157939
-0.000172498
-0.007974
0.0158094
-0.00183333
-0.00617014
0.0139089
-0.00215904
-0.0021258
0.0197787
0.00574719
0.020535
0.10684
-0.0447397
-0.00943384
0.00402492
0.0306751
0.00550829
0.00763184
0.0104962
-0.00024628
0.00843985
0.0142538
0.000668945
0.0151058
0.00192595
-0.0162662
-0.0197008
-0.0126759
0.0307387
-0.0202073
0.0462122
-0.0178209
-0.0512234
0.106723
-0.024469
-0.0522964
0.121669
-0.014921
-0.104259
-0.0445656
0.125504
-0.03014
-0.0751207
-0.0286714
-0.0175229
-0.0288106
-0.0143907
-0.00299312
-0.0402339
0.0169935
-0.00217697
-0.0241167
-0.00527706
0.0279066
-0.00549235
-0.00857328
0.016323
-0.00789062
-0.00933834
0.0143901
-0.00620867
-0.00948668
-0.0118155
-0.00277017
0.0500862
-0.0212146
-0.0125557
-0.00613604
0.000615525
-0.0118995
-0.00852515
-0.000103233
-0.008731
-0.00719418
-0.00155901
-0.00495711
-0.00447517
-0.00157539
1.50609e-05
-0.000776439
-0.00381621
-0.000445799
-0.00983776
2.22199e-05
0.000443661
0.00126954
-0.00171929
0.00136732
-0.00209784
0.00336085
0.00174691
-0.0026666
0.00436362
0.00205651
-0.00199022
0.00370451
0.00175065
0.00266185
0.00070587
0.00453108
0.00262378
-0.00106764
0.0047396
0.0038262
-0.000405975
0.00459902
0.00490753
-0.000484388
0.00482412
-0.000753904
-0.00641824
0.0108581
-0.00420139
-0.00623573
0.0108814
-0.00626801
-0.00535802
0.0100371
-0.00719411
0.00899862
-0.00779865
0.00658777
0.0118542
-0.00567379
0.00802393
0.0135777
-0.00507548
0.00822167
0.0150971
-0.00452005
0.0149044
-0.00312537
-0.00922734
0.0168422
-0.00133602
-0.00933936
0.0178474
-0.00274438
-0.00966946
0.0177445
-0.00394106
0.0104639
-0.00401558
0.0128594
-0.000418709
0.0102422
-0.00167512
0.00751518
0.0232617
-0.00290346
0.0073787
0.0182828
-0.000389012
0.0172775
0.000728661
-0.00888511
0.0484301
-0.0251697
-0.00522114
0.0420882
-0.027614
0.0449506
-0.0282615
0.0294877
0.117531
-0.0575458
0.127354
-0.0450233
0.0508884
0.134783
-0.0387573
-0.0206056
0.055531
0.134674
-0.014929
0.0521273
0.129902
-0.00594506
0.115085
-0.00126699
-0.0502991
0.119536
0.00524839
-0.0560387
0.134875
-0.000316271
-0.0535668
0.140602
-0.00948251
-0.0448972
-0.0146403
0.139733
-0.128076
-0.0233425
0.133481
-0.029346
-0.0128557
-0.0511989
-0.114244
0.0286558
0.119233
-0.105953
-0.0668527
0.118284
-0.0383429
-0.0495042
-0.0681389
-0.00472563
0.0138833
-0.0135381
-0.0193162
-0.0195259
-0.00996158
-0.00601795
-0.0131119
-0.00289927
-0.0139975
-0.00407885
0.00257806
-0.014371
-0.00819678
0.00317981
-0.0127338
-0.010631
0.002537
-0.00979292
-0.0145222
0.00286622
-0.0107601
0.0011477
-0.0137572
0.0160398
-0.013755
0.00061616
-0.00950578
-6.52716e-05
-0.015366
0.0144628
-0.00157679
-0.0167624
0.0116444
-0.00271209
-0.0180418
0.00965529
-0.00145874
0.0149446
-0.025467
0.0110876
0.0251964
0.0187252
0.0207317
-0.049845
0.018843
0.0161759
0.0178349
-0.0277889
0.0305477
0.0160593
0.0191796
-0.0470793
0.0213519
0.0134363
-0.0227747
0.0184057
0.0392675
-0.0422356
0.00894002
0.0152793
0.020108
0.0463015
-0.0100987
-0.0171446
0.0254028
0.0300579
-0.0202188
-0.0152622
-0.0172056
-0.0205705
0.00992787
-0.0182359
0.00381362
-0.0127936
-0.0179195
0.00437061
-0.0172117
-0.0123102
0.00330813
-0.0161033
-0.0141241
0.00228618
-0.0167951
0.00210252
-0.0176449
-0.0170731
0.0174324
0.000373924
-0.0162837
-0.000771333
-0.0183856
0.0156246
-0.00199054
0.0129977
-0.00309277
0.0175635
0.0143157
-0.0027926
0.0174146
-0.00140838
0.0164971
0.0182226
-0.017043
-0.000367411
0.0183659
0.00133239
-0.015137
0.0028564
-0.0154971
0.00100553
0.0174809
-0.0153965
-0.00120617
0.0144655
-0.00214954
-0.00752283
-0.0160074
0.0235684
0.0168719
-0.00150212
-0.0143623
-0.0171185
-0.0261764
-0.0242426
-0.0025453
-0.105235
0.103696
0.00754308
0.00121497
0.0182392
0.0127142
0.0239104
0.0146958
-0.0202449
0.0176579
-0.00845649
0.0179688
-0.012238
-0.00477053
0.00236093
-0.000510842
-0.00555052
0.00484796
-0.00582196
-0.00170668
-0.00210745
-0.0021756
-0.00379004
0.0131618
-0.000990235
-0.00316255
-0.00140218
-0.00338207
0.016372
-0.0200653
-0.0115602
0.0154686
0.00687896
-0.0116006
0.0175833
0.00910468
-0.0132604
0.0201884
0.00892371
-0.0141935
0.02293
0.00890509
0.0301346
0.01198
0.00987358
0.0134583
0.01248
0.00947152
0.0132518
0.00990105
0.00784219
0.0119067
0.00974022
0.00607149
0.0107978
0.00840219
0.0100025
0.0069908
-0.00219401
0.00341805
-0.00260439
0.00415711
-0.00326732
0.00475288
-0.00390209
0.00539477
0.00650338
0.00166223
0.00289876
0.00142104
0.000511527
0.000410278
0.00139196
-0.000142474
0.00198272
-0.00154859
-2.68118e-05
-0.00092921
0.00194337
0.000965126
-0.000332969
0.000792925
-0.000435752
0.00182533
-0.00111367
0.00121341
-0.000538603
0.000311459
-6.56114e-06
0.0020207
-0.00173925
2.67181e-05
0.00379258
-0.000562885
-0.00358696
0.0111344
-0.00637471
0.00356827
-0.0179954
0.00336003
0.0170341
0.00387791
-0.0181092
0.0204055
0.00713691
0.00293008
0.00676358
-0.0170569
0.0208238
0.000285117
0.00596408
0.0197734
-0.014837
-0.0136304
0.0141756
0.0050408
0.0109714
-0.00738622
0.0172053
-0.00765407
0.0172607
0.0109156
-0.000400318
0.0199628
0.0071751
0.0033434
-0.00114762
0.00152923
-0.00351131
0.000377434
-0.00229116
0.0125864
0.00135505
-0.00233551
0.000800315
0.000617715
-0.000777206
0.0015127
-0.000567944
0.0015614
-0.000391318
-0.00124558
0.00106768
-0.00206948
0.000899473
-0.000211317
-0.000226751
-0.0016329
-0.000457335
-0.00209148
0.000247203
-0.00185415
0.00139875
-0.0013797
0.000392716
0.000112245
-0.00188592
0.000170218
-0.00141182
-0.000662135
-0.00126107
-0.0024059
0.00114894
0.00124417
0.000231928
0.000479592
-0.00129289
0.000448109
-0.0016842
-0.000480212
0.000534557
0.000392249
0.000108692
7.09528e-05
-0.000661208
0.00104466
0.000306466
0.000316119
-0.000887729
-0.00161273
0.00281318
-0.000775546
0.000277414
0.000178048
-0.000885049
-0.00113117
0.00380124
0.00137834
-0.000358726
-0.00302033
0.0122607
-0.00264133
-0.00129161
-0.001747
1.42082e-05
-0.000829446
0.00026292
-0.000728015
0.000328473
-3.92862e-05
-0.001121
-4.33072e-05
0.00188033
-0.00030663
-0.00162032
-0.0013203
0.00321052
-0.000893255
-0.00016727
-0.00124171
0.00111833
0.00204015
0.000342443
0.000323657
0.000919916
-0.000127819
0.00191275
-0.0014224
-0.000170044
-0.00136896
0.0031894
8.79382e-05
-0.000654704
0.000202486
0.00285727
-0.00405034
0.0132909
-0.00114167
-0.018037
0.00075986
0.00704672
0.0245207
-0.0164844
0.0218787
0.0064086
-0.0177668
0.022565
-0.00209356
-0.0148788
-0.00438962
-0.0206791
-0.0218498
-0.00631463
-0.0218822
-0.00573455
0.0151498
-0.00261731
0.0197772
0.031768
0.037433
-0.0235873
-0.101039
0.0665345
-0.0967265
0.0700375
-0.107793
0.0712636
-0.017102
-0.110038
0.0686997
-0.0248506
-0.106593
0.0674755
-0.0296476
-0.098138
0.0663391
-0.0331783
-0.0860811
0.0637031
-0.0357887
-0.0687181
0.0577925
-0.0379396
-0.0490184
0.0534519
-0.0376824
-0.0389554
0.0427911
-0.0318001
0.00367334
-0.0298719
0.0159592
0.0325431
-0.0454964
0.0140055
0.0444314
-0.0431452
-0.00726147
0.0474599
-0.0266043
-0.034354
0.0266539
-0.0510964
-0.0128544
0.0291296
-0.059712
-0.024528
0.0326408
-0.061985
-0.0311053
0.0328521
-0.0555353
-0.0383742
0.0313982
-0.0474746
-0.0354768
0.0269132
-0.0300786
-0.0337252
0.015862
0.00341301
-0.0339303
0.0203529
0.0443376
-0.0619143
0.0430473
0.0554359
-0.0788964
0.0682725
0.0547225
-0.0807675
0.0883091
0.0522718
-0.073133
0.0995565
0.0476737
-0.0597776
0.100688
0.0399458
-0.0418996
0.0955499
0.0339875
-0.0296599
0.0838945
0.0305775
-0.0196424
0.0472863
0.0376748
-0.00164011
0.0227338
0.022972
0.00138409
0.0195052
0.00390519
-0.000781301
0.0181135
0.00048351
0.000805377
0.0149782
0.000138388
0.0028866
0.0086988
1.57816e-05
0.00616463
0.00914413
-0.000532953
0.00725122
0.00339672
-0.00157444
0.00463872
0.00389035
-0.00132496
0.00484715
0.00166598
-0.00193723
0.0058448
0.00185728
-0.00293377
0.00559561
0.00304009
-0.0028687
0.00449715
0.00333152
-0.00230262
0.00355412
0.00271357
-0.00182516
0.00584289
0.00167232
-0.00403811
0.0128971
0.00151649
-0.00878926
-0.0122553
0.0304158
-0.00588132
-0.0434332
0.0259663
0.00445257
-0.0587505
0.0117077
0.00277572
-0.0649266
-0.000487156
0.00579031
-0.0698385
-0.0154052
0.0194127
-0.0750869
-0.0306444
0.0349707
-0.076246
-0.0454091
0.0456311
-0.0733773
-0.0588622
0.0550485
-0.0630977
-0.0710656
0.0598339
-0.0451644
-0.0809472
0.0620568
-0.0174452
-0.087558
0.0588756
0.0166911
-0.0837692
0.0486721
0.0321624
-0.0582865
0.041854
0.0311201
-0.0448059
0.0449258
0.0234516
-0.0352049
0.0419701
0.00941807
-0.0261495
0.0393558
-0.000878514
-0.0231758
0.0326706
-0.0348021
0.0331743
-0.050262
-0.0193558
0.0340179
-0.0574234
-0.0341364
0.040487
-0.0578284
-0.048995
0.0485253
-0.0493203
-0.0640686
0.0546854
-0.0253818
-0.0817139
0.0568767
0.00475014
-0.0832349
0.052227
0.0100282
-0.047217
0.0410737
-0.0076572
-0.0264116
0.0432871
-0.0210487
-0.0281434
0.0407492
-0.00479216
-0.0603274
0.0433327
-0.0522081
0.0430043
-0.0149135
-0.0689095
0.00164896
0.0185881
-0.0546514
-0.0400624
0.0285437
-0.0390476
7.32499e-05
0.0320941
-0.0476581
0.016802
0.0303881
-0.0776051
0.0311698
0.0410236
-0.126555
0.0317454
0.0543846
-0.12335
0.02733
0.0570087
-0.0960691
0.0284452
0.0520265
-0.0725389
0.0276205
0.0414592
-0.0515389
0.0271099
-0.029925
0.02803
-0.0366749
-0.0472591
0.0269885
-0.0387377
-0.0569222
0.0228508
-0.0332488
-0.0680795
0.0168144
-0.00499126
-0.0840769
-0.00346523
0.0354928
-0.119354
-0.00590523
0.0613016
-0.125167
0.0107943
0.076428
-0.118531
0.021456
0.0836763
-0.104279
0.0249688
0.0829687
-0.0860709
0.0269264
0.078844
-0.0657183
0.0234516
0.0709108
-0.0443919
0.0207088
0.063688
-0.0227793
0.0136389
0.0558819
-0.00119429
0.00757175
0.0415747
0.0162414
0.00884691
0.0157325
0.0363582
0.0145341
-0.0100875
-0.00129385
0.047558
0.00898581
0.00818784
-0.00375535
-0.00877991
-0.00589392
0.0146428
-0.00335011
-0.00453525
0.0103692
-0.00291091
0.00902439
-0.00196803
0.0130838
-0.00129156
-0.00217219
0.000647774
-0.00672449
0.0270417
0.00167984
-0.00901385
-0.00776587
-0.00173893
0.00143911
-0.00799359
-0.00406105
0.00130271
-0.0067103
-0.00519769
0.000481945
-0.00498144
-0.00581441
0.000248765
0.00237971
-0.0041312
-0.000570633
0.00513818
-0.00110943
-0.00217748
-0.000309033
-0.00050066
-0.00137172
-0.000759517
-0.00066099
-0.000562995
-0.000598779
0.00039969
-0.00115947
-0.00347031
0.013213
-0.00548481
-0.0119721
0.00297157
0.0223163
-0.00794985
-0.0101143
0.0600578
-0.0310675
-0.0296403
0.0161026
0.0559876
-0.0215715
0.0291865
0.0368794
-0.0148449
0.0358075
-0.002748
-0.00547198
0.049952
-0.0358763
0.0118358