/*--------------------------------*- C++ -*----------------------------------*\
| =========                 |                                                 |
| \\      /  F ield         | OpenFOAM: The Open Source CFD Toolbox           |
|  \\    /   O peration     | Version:  v2012                                 |
|   \\  /    A nd           | Website:  www.openfoam.com                      |
|    \\/     M anipulation  |                                                 |
\*---------------------------------------------------------------------------*/
FoamFile
{
    version     2.0;
    format      ascii;
    class       volScalarField;
    location    "765";
    object      k;
}
// * * * * * * * * * * * * * * * * * * * * * * * * * * * * * * * * * * * * * //

dimensions      [0 2 -2 0 0 0 0];


internalField   nonuniform List<scalar> 
18258
(
0.0336565
0.015857
0.0124115
0.0102565
0.0110254
0.0140612
0.016864
0.0212413
0.0256683
0.0316009
0.0386582
0.047578
0.0535664
0.0606991
0.0636538
0.0619271
0.0520332
0.0472825
0.0564784
0.0809896
0.0711407
0.0514437
0.0623826
0.0615669
0.0723621
0.0765056
0.0602107
0.054998
0.0495897
0.0439017
0.0373216
0.0230813
0.0241805
0.028935
0.0321495
0.0358584
0.0387136
0.0410444
0.0426869
0.0434953
0.0433977
0.0420963
0.0394024
0.0353598
0.0299038
0.0239331
0.0236094
0.0236463
0.0293795
0.0349831
0.0404237
0.0460097
0.0544306
0.0445799
0.0290102
0.0391518
0.0476191
0.054513
0.0589516
0.0614129
0.0621862
0.0612809
0.0589968
0.0557408
0.0517809
0.0474412
0.0434206
0.0394312
0.0341849
0.0309206
0.0268046
0.0234564
0.0210127
0.0192977
0.0181775
0.0171754
0.0163108
0.0155784
0.0149627
0.0145406
0.0144487
0.0144734
0.0145722
0.0146674
0.0150088
0.0126599
0.0108906
0.0104229
0.010172
0.00952796
0.00808065
0.0106374
0.0117475
0.0121652
0.0124369
0.0136092
0.0147436
0.0143141
0.0135873
0.0124639
0.0127405
0.0171666
0.0178834
0.022937
0.0218113
0.0170683
0.0147992
0.0165908
0.0194051
0.0224662
0.0192516
0.0192199
0.0179181
0.0170216
0.0148694
0.0148979
0.014378
0.0140714
0.0149862
0.0177548
0.0171674
0.0172842
0.0184986
0.0188201
0.0200459
0.0210654
0.0204036
0.0202221
0.0163556
0.0162556
0.0172964
0.0171698
0.0176501
0.0201586
0.0202153
0.0205564
0.0207713
0.0235616
0.0235804
0.0235478
0.023639
0.024485
0.0235181
0.0231035
0.0231307
0.0231658
0.0209957
0.0207754
0.0204145
0.0204537
0.018274
0.0175356
0.0182691
0.0192499
0.0212242
0.0249685
0.031405
0.0403285
0.0504241
0.0606635
0.0684319
0.0727832
0.0771476
0.0765936
0.077294
0.079387
0.0797582
0.0786219
0.076772
0.0746109
0.0716598
0.0670218
0.0665438
0.0589005
0.048032
0.0333562
0.038846
0.0416762
0.0444285
0.0447449
0.0452386
0.0440449
0.0423072
0.0387403
0.0336527
0.0247823
0.0257477
0.0302129
0.0348905
0.0386899
0.0428644
0.0465035
0.0483554
0.0500609
0.0594401
0.0571897
0.05528
0.0569913
0.0585564
0.0617612
0.0601933
0.0562526
0.0503055
0.0519252
0.0450291
0.0336516
0.0314258
0.0292972
0.0270033
0.0378622
0.0496343
0.0611232
0.0674135
0.0735358
0.0783409
0.0823414
0.0868478
0.0814127
0.0762849
0.0576193
0.083598
0.0655603
0.0503654
0.0410983
0.0331879
0.031407
0.0342355
0.0343214
0.0325328
0.0280037
0.0220542
0.0229554
0.0359645
0.0458035
0.0538448
0.0554038
0.0601135
0.0625877
0.057284
0.0578623
0.0469961
0.0482193
0.0515561
0.0461876
0.043888
0.0352634
0.0275223
0.0335557
0.0498957
0.0684473
0.0842825
0.0992679
0.0658158
0.0500479
0.0409981
0.0341736
0.0330172
0.0376441
0.0435763
0.0527201
0.0411518
0.0371
0.0335824
0.0307037
0.0257632
0.0274924
0.0287242
0.0269378
0.0499273
0.0573689
0.0609699
0.0832754
0.0920352
0.107992
0.106722
0.0923052
0.0959285
0.0687139
0.0684721
0.0858266
0.0679434
0.0511379
0.0613953
0.0743217
0.0881581
0.101333
0.112642
0.121707
0.12343
0.111961
0.0811938
0.0467586
0.0212967
0.0186593
0.0181113
0.0174005
0.0165099
0.0157014
0.0150709
0.0121152
0.00949295
0.00927784
0.00946067
0.00940676
0.0082595
0.00951426
0.0115779
0.0137675
0.0152734
0.0164801
0.017498
0.0182295
0.0188161
0.0192129
0.0195074
0.0197723
0.0200043
0.0201866
0.0203205
0.020407
0.0204455
0.0204284
0.0203497
0.0202081
0.0200018
0.0197146
0.0192435
0.0177228
0.0158795
0.0150563
0.0151154
0.0148669
0.014567
0.0119378
0.012307
0.0143249
0.014955
0.0177376
0.0197672
0.0214644
0.0229121
0.0244319
0.025205
0.0260295
0.0262917
0.0263404
0.0262362
0.0260817
0.0258525
0.0255444
0.0244768
0.0212609
0.0248688
0.0272686
0.0289669
0.0303273
0.0312398
0.031345
0.0285855
0.0360715
0.0385172
0.0394215
0.0396851
0.0388611
0.0368474
0.0343978
0.0323422
0.0308337
0.0297156
0.0275732
0.0253262
0.0230179
0.0206037
0.0173846
0.0186571
0.020493
0.0207025
0.0204105
0.0214569
0.0227133
0.0210551
0.0189594
0.0160843
0.0150887
0.0146053
0.0144198
0.014836
0.0144866
0.0143779
0.0148715
0.0178673
0.0189581
0.0206567
0.0239159
0.0227848
0.0208446
0.0280162
0.0296229
0.0300711
0.0304221
0.0303279
0.0295697
0.0264971
0.0250412
0.0264299
0.0249758
0.0243443
0.0244338
0.0240669
0.0222017
0.024501
0.0265008
0.0280911
0.028939
0.0301807
0.0317365
0.0339009
0.0356986
0.0373621
0.0383687
0.0383455
0.037799
0.0379661
0.0385998
0.0382632
0.0365831
0.0345083
0.0324143
0.0294438
0.0292807
0.0312573
0.0328205
0.0344804
0.0362545
0.0355837
0.0336922
0.0320649
0.0306436
0.0289317
0.0288154
0.0304937
0.0319396
0.0336822
0.0358096
0.035993
0.0338427
0.0320187
0.0305105
0.0288055
0.0287753
0.0304782
0.031995
0.0337247
0.0356196
0.0347476
0.0332714
0.0317436
0.0302719
0.0286051
0.0281689
0.0297749
0.0311607
0.0324787
0.033548
0.0318709
0.0312784
0.0302054
0.0288137
0.0270543
0.025801
0.0263098
0.0276976
0.0278088
0.02829
0.0294102
0.0292582
0.0289754
0.0289307
0.0286488
0.0264033
0.0268104
0.026859
0.0275507
0.0308504
0.0303671
0.0330293
0.0354327
0.0331234
0.0316409
0.028086
0.0336435
0.0336802
0.0346343
0.0334561
0.023704
0.0218542
0.0228535
0.0243814
0.0260174
0.0253185
0.0225807
0.0225087
0.02311
0.0225179
0.0209503
0.0179732
0.0135066
0.0135152
0.0135052
0.0142375
0.0170373
0.0186301
0.0187386
0.018581
0.0182762
0.0178014
0.0170799
0.0160035
0.0156345
0.0248122
0.0452389
0.0565846
0.0559209
0.0425299
0.0357245
0.0264599
0.0184574
0.0112297
0.0107877
0.0114622
0.0137556
0.0115194
0.0109345
0.0150677
0.0120793
0.020076
0.0231601
0.030292
0.0414419
0.0401416
0.0306083
0.0204765
0.0183836
0.0192377
0.0197629
0.0201524
0.0205352
0.0209216
0.0213416
0.0218526
0.0215293
0.0188994
0.0166613
0.0167836
0.0173549
0.0198549
0.0212377
0.0220341
0.0217065
0.0219615
0.0236652
0.0224301
0.0212064
0.0209958
0.0202878
0.0231221
0.0234686
0.0228461
0.0228467
0.0231235
0.0230072
0.0231467
0.0239495
0.0197719
0.0218893
0.0224402
0.0227193
0.023509
0.0190291
0.0192209
0.0192886
0.0181442
0.0148685
0.0179688
0.0167328
0.0121449
0.0134563
0.0134261
0.0140393
0.0143647
0.0171185
0.0162898
0.0155593
0.0163181
0.0222827
0.0230865
0.0232607
0.0206168
0.0193707
0.0218567
0.0224484
0.0219953
0.0211058
0.021265
0.0203205
0.0184217
0.0177034
0.0178405
0.0192479
0.0200464
0.020118
0.0237119
0.0232079
0.0216516
0.0226303
0.0232294
0.0228145
0.0227068
0.0226534
0.0222835
0.0218605
0.0222716
0.0224579
0.0225086
0.0220684
0.0223205
0.0249354
0.0214095
0.0212209
0.0201485
0.0194944
0.017871
0.0176191
0.0177171
0.0176775
0.0175836
0.0167479
0.0186016
0.0178753
0.0200067
0.0216156
0.0227629
0.0239296
0.024077
0.0236441
0.0236016
0.0232153
0.0231786
0.0226315
0.0217897
0.0212092
0.0204399
0.0192358
0.0192289
0.0191804
0.0190373
0.0204392
0.0203394
0.0219002
0.0230169
0.0227293
0.0217681
0.0216579
0.0204856
0.0204614
0.0214985
0.0223828
0.022634
0.023489
0.0260037
0.0236812
0.0252325
0.0259347
0.0265974
0.0259884
0.0248925
0.0256433
0.0239845
0.0228742
0.0241908
0.0249136
0.0261751
0.02697
0.0249932
0.0239653
0.0227689
0.0219073
0.020924
0.0184047
0.0190138
0.0198005
0.0210305
0.0228434
0.0255602
0.0282886
0.0312071
0.0312626
0.0289658
0.027277
0.0320726
0.0315474
0.0365134
0.037114
0.0329942
0.0301945
0.0272868
0.0268588
0.025938
0.0254021
0.024133
0.0253792
0.0257974
0.0248562
0.0273209
0.02889
0.0332196
0.0387697
0.03543
0.0326132
0.0376813
0.0366048
0.0425515
0.0363361
0.0346865
0.028541
0.033154
0.0355169
0.0432399
0.0338366
0.0296581
0.0294445
0.030775
0.0382508
0.0367851
0.0393673
0.0445343
0.0438766
0.0390122
0.0357782
0.0415146
0.0315612
0.0370025
0.039012
0.0324019
0.0321519
0.0390147
0.0396364
0.0398052
0.0337369
0.0330023
0.0249882
0.0335326
0.0400036
0.0399174
0.0331464
0.0259614
0.0358462
0.0314831
0.0312813
0.0312828
0.0268847
0.0268155
0.0261163
0.0263702
0.0270766
0.0246467
0.0254471
0.0257045
0.0258652
0.0259943
0.0261842
0.0265258
0.0271641
0.0278758
0.0228418
0.0242691
0.0229274
0.0216066
0.0202809
0.0240543
0.0265323
0.0283432
0.0298011
0.0309362
0.0314116
0.0299663
0.0379418
0.0396333
0.041273
0.0414219
0.0401844
0.0375272
0.0341008
0.0306766
0.0285852
0.0272813
0.0248219
0.0227035
0.0206365
0.0184912
0.0156871
0.0143487
0.0130347
0.0116599
0.0113342
0.0108119
0.0102337
0.0095935
0.00929139
0.0116345
0.0160579
0.0269922
0.0325942
0.0383725
0.0453073
0.0518738
0.0571512
0.0611123
0.0639645
0.0657862
0.0663042
0.0638219
0.0531695
0.0480773
0.0430936
0.0380394
0.0329064
0.0321108
0.0412608
0.0495832
0.0566096
0.0629429
0.0670689
0.065431
0.0498547
0.0466852
0.0623191
0.0898289
0.0806196
0.103592
0.120007
0.0794528
0.0647574
0.0640431
0.0795349
0.0820448
0.0754575
0.0665145
0.0566562
0.0456908
0.0508483
0.0557499
0.0604183
0.0651151
0.0780094
0.0803064
0.0790103
0.0763788
0.0729881
0.0685206
0.062007
0.0535102
0.0441595
0.0360253
0.0285821
0.0172495
0.0128881
0.0138453
0.0133697
0.0135281
0.0138637
0.0102147
0.0105585
0.0107554
0.0106583
0.0103649
0.0104306
0.0118317
0.0182438
0.0150445
0.0137091
0.0118305
0.0145071
0.0163478
0.0180972
0.0186527
0.0188575
0.0200276
0.0364067
0.0443208
0.0498679
0.0545775
0.0576823
0.0564496
0.0530885
0.0472176
0.040179
0.0374595
0.0333595
0.0299076
0.0281178
0.0290131
0.0254195
0.0156673
0.0147313
0.0157831
0.0154458
0.0144483
0.0164079
0.0176322
0.0184091
0.0190357
0.0195021
0.0198585
0.0201106
0.0202755
0.020359
0.0203794
0.0203514
0.0202804
0.0201653
0.0200038
0.0197852
0.0194794
0.0189609
0.0172564
0.0154226
0.0147105
0.0147945
0.0145637
0.0142008
0.0123246
0.0125525
0.0144143
0.015018
0.0146259
0.0152145
0.0156819
0.016874
0.0190358
0.0211704
0.0230058
0.0217014
0.0210502
0.021029
0.0206264
0.017538
0.0208503
0.0236655
0.02417
0.0244309
0.0252441
0.0268348
0.0277927
0.0268654
0.0263744
0.0258521
0.0228252
0.0244623
0.0279275
0.0283342
0.0289924
0.0295792
0.0301417
0.0314342
0.0308151
0.0299491
0.0293668
0.0265849
0.0257216
0.0316849
0.0207472
0.0146651
0.0106331
0.0109698
0.0112075
0.0109124
0.0116866
0.0122249
0.012453
0.0117666
0.0128451
0.0137527
0.0129973
0.0156322
0.0149366
0.0139355
0.0134871
0.0142338
0.0149364
0.0153179
0.0164696
0.0265842
0.0274157
0.0228623
0.0294143
0.0319832
0.0290152
0.0319165
0.0296007
0.0282802
0.0310721
0.0344138
0.0355904
0.0332648
0.0319167
0.0312145
0.0208309
0.020145
0.0194219
0.0175682
0.017844
0.0173765
0.0169129
0.0164951
0.0189398
0.0203384
0.0214078
0.021103
0.0207939
0.0203838
0.0215227
0.0261265
0.0352771
0.0438977
0.0466853
0.0454418
0.0416868
0.0350491
0.0288824
0.028368
0.0263639
0.0250753
0.024751
0.0187539
0.0149898
0.0175006
0.0174055
0.0184738
0.0191465
0.019675
0.0200953
0.0204442
0.0207438
0.0210319
0.0212994
0.0215328
0.021729
0.0218977
0.022038
0.0221896
0.0223726
0.0226267
0.022831
0.0212166
0.0186068
0.0172693
0.0171227
0.0178375
0.0187396
0.0198667
0.0191189
0.0154029
0.0154783
0.0218997
0.022337
0.0209651
0.0195443
0.0197476
0.0189077
0.0226935
0.0224906
0.0232562
0.0230498
0.0227697
0.0224901
0.0222115
0.0219264
0.0216558
0.0214191
0.0212038
0.021003
0.0208038
0.0205855
0.0203147
0.0199158
0.01924
0.018454
0.0170333
0.0181401
0.0193528
0.0209751
0.0228057
0.0237519
0.0228985
0.0216604
0.0210692
0.0212444
0.0215326
0.0218515
0.0221959
0.0225965
0.0230188
0.0234176
0.0233834
0.0220817
0.0227182
0.0174497
0.0183046
0.0186038
0.0185632
0.0202249
0.019376
0.0146719
0.0151819
0.015901
0.0171746
0.019748
0.0201071
0.0214472
0.0216709
0.0173042
0.0169974
0.0165742
0.0175872
0.0152249
0.0158543
0.0265557
0.0271867
0.0349361
0.0382806
0.0399032
0.0331391
0.0456061
0.0524527
0.0505615
0.0409182
0.0235078
0.0346446
0.0421751
0.0488227
0.0457483
0.0355841
0.0449125
0.0473902
0.0632973
0.0589279
0.0525559
0.0633333
0.044745
0.026919
0.0158325
0.0164062
0.0152099
0.0306761
0.0347849
0.0314763
0.0323247
0.0399674
0.0409827
0.036232
0.0345492
0.0363062
0.0358598
0.0398135
0.0371082
0.0337391
0.0233035
0.0190285
0.0198631
0.0212657
0.0230861
0.0254236
0.0253228
0.0241836
0.022824
0.0218541
0.0208053
0.0183117
0.0176592
0.0196174
0.0212452
0.0226217
0.0241272
0.0249432
0.0257803
0.0259444
0.0258367
0.0255159
0.0250911
0.0245409
0.0238618
0.0224567
0.0236947
0.0243713
0.024573
0.0248445
0.0251512
0.025422
0.0255581
0.0254408
0.0244998
0.0236953
0.0225315
0.0214147
0.0198102
0.0176963
0.0183761
0.0201323
0.0217296
0.0228422
0.0238904
0.0234987
0.0239844
0.0246335
0.0246601
0.0244843
0.0242645
0.0241186
0.0242153
0.0248506
0.0265574
0.0262356
0.0290342
0.0302317
0.0276667
0.0263376
0.0256464
0.0252227
0.0249801
0.0247774
0.0245824
0.0240431
0.0234987
0.0239938
0.024243
0.0245367
0.0248915
0.0253962
0.0260876
0.0271844
0.0285952
0.0284635
0.0262511
0.0261309
0.0250762
0.0242869
0.0239077
0.0238516
0.0238954
0.0239951
0.0239297
0.023414
0.0230895
0.0234946
0.0224856
0.0225534
0.0215826
0.0202264
0.0187879
0.017337
0.016676
0.0352732
0.0352644
0.0457921
0.0424302
0.0370945
0.0471445
0.0601515
0.0521387
0.0628746
0.0666565
0.0541479
0.0503206
0.0278739
0.0243882
0.0174087
0.018933
0.020276
0.0214779
0.0212943
0.0222137
0.0220958
0.0230605
0.0225172
0.0217283
0.0211903
0.0201754
0.0202317
0.018962
0.0174183
0.0172848
0.0189315
0.0199679
0.0211458
0.0211345
0.0225924
0.0231007
0.0235025
0.0236583
0.0236515
0.0237411
0.0239155
0.0243639
0.0250781
0.0255426
0.0256832
0.0261039
0.0258529
0.0255283
0.0250647
0.0247495
0.0244281
0.0241475
0.0238527
0.0235759
0.023148
0.0224956
0.0223758
0.0228874
0.0232272
0.023464
0.0236038
0.0235926
0.02341
0.0231078
0.0228072
0.022467
0.0225274
0.0237938
0.0240164
0.0241387
0.0239211
0.0237495
0.0237308
0.0236108
0.0235135
0.0232796
0.0229069
0.0224316
0.0213626
0.0214665
0.0223507
0.0227992
0.0231333
0.0234172
0.0234346
0.0233454
0.022966
0.0226723
0.0223291
0.0217802
0.02108
0.0187004
0.0191564
0.0197692
0.0205944
0.021425
0.0221323
0.0225805
0.0227635
0.0227537
0.0225772
0.0222231
0.0214766
0.021458
0.021999
0.0221722
0.0221293
0.0218362
0.0212321
0.0203178
0.0191236
0.0179129
0.0169361
0.0164294
0.0156359
0.01824
0.019255
0.0201931
0.0210549
0.0218667
0.0227236
0.0230638
0.0231368
0.0229767
0.0227071
0.0222886
0.021513
0.0215242
0.0222338
0.0226302
0.0228517
0.022953
0.0226614
0.0219713
0.0204315
0.0190105
0.017831
0.0167513
0.0156364
0.0152213
0.0157226
0.0153528
0.0158379
0.0169879
0.0184787
0.0198413
0.0208109
0.0213938
0.0216696
0.0216913
0.0213575
0.0211806
0.0213157
0.0211289
0.0206487
0.0197979
0.0185255
0.0170481
0.0158018
0.0153809
0.0159853
0.0166312
0.0160356
0.013919
0.0150388
0.0161192
0.0172464
0.0189266
0.0209908
0.0220087
0.0225042
0.0226529
0.0225308
0.0221617
0.0215032
0.0214521
0.0220817
0.0224407
0.0225392
0.0224376
0.0219677
0.0211048
0.0185878
0.0158487
0.0146197
0.0139234
0.0129778
0.0161863
0.0168769
0.0160628
0.0155296
0.016397
0.0174649
0.0186432
0.0195426
0.0201782
0.0206674
0.0209288
0.0209462
0.0206789
0.0205758
0.0203673
0.020029
0.0196834
0.0193217
0.018516
0.0176706
0.016718
0.0177831
0.0183491
0.0175981
0.0144735
0.0150402
0.0158294
0.0163019
0.0189397
0.02143
0.022142
0.0223756
0.0224944
0.0223753
0.0219856
0.0213683
0.0212484
0.0218848
0.0223573
0.0226355
0.022901
0.0230433
0.0231445
0.0212222
0.0179651
0.0172674
0.015601
0.0147625
0.0181538
0.0188456
0.0183831
0.0178233
0.0194752
0.0201758
0.0204391
0.0204481
0.0203852
0.0202931
0.0203028
0.0204037
0.0201093
0.0199984
0.0201084
0.0203238
0.0202722
0.0200371
0.019457
0.018691
0.0176164
0.0194517
0.0211085
0.0208461
0.0170046
0.0175411
0.0183054
0.0178215
0.0204941
0.022371
0.0228994
0.0229142
0.0226599
0.0222234
0.0216993
0.0210644
0.0207888
0.0213497
0.0219209
0.0219651
0.0220833
0.0220538
0.0214881
0.021325
0.0207476
0.0204773
0.0197086
0.0191263
0.0183691
0.0205371
0.023749
0.025959
0.0275384
0.0294284
0.0279728
0.0244386
0.0221577
0.0152542
0.0152644
0.0154891
0.0148655
0.0144956
0.014322
0.0187689
0.0215143
0.0242219
0.0259709
0.0235202
0.0234894
0.023403
0.0232839
0.0231703
0.0230731
0.0228668
0.0236356
0.0413005
0.282992
0.209848
0.235427
0.224467
0.31481
0.0796032
0.0389841
0.0431188
0.0498502
0.0569313
0.0551222
0.0514728
0.0448988
0.0405076
0.0401132
0.0396245
0.0394255
0.0382739
0.0383017
0.0375589
0.0450227
0.0947508
0.123823
0.137419
0.145897
0.154947
0.150375
0.159435
0.151344
0.151889
0.15353
0.158294
0.15093
0.143592
0.139775
0.13549
0.118154
0.118496
0.100029
0.103856
0.0866922
0.0912359
0.0951549
0.0945036
0.0932914
0.0930708
0.093348
0.0941661
0.097768
0.0930648
0.0986623
0.0912183
0.0727043
0.0701766
0.0720827
0.0663408
0.0580414
0.0656585
0.0805106
0.0960167
0.112737
0.0965537
0.12076
0.114715
0.115853
0.110055
0.1037
0.0998733
0.0991109
0.0997088
0.100825
0.103462
0.105389
0.106989
0.109889
0.118479
0.120807
0.119376
0.101844
0.08648
0.0949864
0.0998116
0.103482
0.103739
0.0989608
0.0967998
0.0905741
0.0889932
0.0834325
0.0808258
0.0753477
0.0720298
0.0672181
0.0837237
0.0819018
0.0889038
0.0952038
0.0994796
0.103155
0.104781
0.106074
0.104903
0.102528
0.0975513
0.0954754
0.0906676
0.109216
0.127695
0.13048
0.125839
0.112292
0.106637
0.339966
0.412328
0.413658
0.613835
0.655576
0.847407
0.336458
0.180236
0.192803
0.189492
0.181298
0.178102
0.177873
0.189598
0.198579
0.189482
0.200053
0.177302
0.174051
0.166044
0.191524
0.189093
0.170182
0.148959
0.116324
0.0949022
0.0937659
0.0782789
0.0793399
0.0699669
0.0713
0.0732606
0.0905946
0.16968
0.209218
0.235885
0.2623
0.322852
0.292488
0.442038
0.354011
0.439578
0.303545
0.328391
0.31412
0.305353
0.303382
0.319444
0.342055
0.300731
0.373981
0.299635
0.64843
0.78512
0.497058
0.459783
0.407737
0.393604
0.383733
0.378202
0.370133
0.487625
0.451998
0.553605
0.513129
0.641447
0.561057
0.56554
0.531734
0.568148
0.586867
0.600508
0.4788
0.520381
0.404369
0.437832
0.36788
0.404212
0.290848
0.291423
0.333972
0.371393
0.397205
0.45385
0.713939
0.606075
0.817571
0.585448
0.707569
0.491495
0.538792
0.514612
0.496961
0.498663
0.526781
0.631072
0.610186
0.697064
0.514712
0.526978
0.51671
0.534042
0.523479
0.55839
0.563074
0.564253
0.562237
0.523417
0.534013
0.532186
0.531966
0.531986
0.532334
0.509581
0.512763
0.505225
0.511007
0.526911
0.514594
0.514509
0.512369
0.504795
0.50274
0.502255
0.504014
0.503782
0.508915
0.508784
0.509125
0.512184
0.526902
0.514435
1.82661
0.904146
0.431315
0.340899
0.220869
0.135367
0.0558506
0.0603265
0.0632802
0.0642281
0.0621952
0.0568145
0.0486398
0.038657
0.0308703
0.0299969
0.0267191
0.0266401
0.0343698
0.0420039
0.0383917
0.0461924
0.0538974
0.06223
0.0702428
0.0772332
0.083145
0.0860804
0.0830637
0.070362
0.0526946
0.0353162
0.0250687
0.0226682
0.0210235
0.019024
0.0169155
0.0152694
0.0142603
0.0130834
0.012447
0.0123548
0.0125682
0.0128055
0.0132409
0.014753
0.0160502
0.0172318
0.0181896
0.0184335
0.0179271
0.0184671
0.0190596
0.0194508
0.0197907
0.0196276
0.0196271
0.0198726
0.0198328
0.0200363
0.0199362
0.0199374
0.019795
0.0196174
0.0193899
0.0189498
0.0186718
0.0181115
0.0177668
0.0169446
0.0169799
0.0173859
0.0177134
0.0167195
0.0166683
0.0159091
0.0265803
0.0476784
0.0610303
0.0660555
0.0713598
0.0673501
0.0569254
0.0389017
0.0191121
0.0187876
0.0192604
0.0217597
0.0212799
0.0173906
0.0181766
0.0187257
0.0175085
0.0173968
0.0174272
0.0194476
0.0200362
0.0214138
0.0219084
0.0223068
0.0225297
0.0225177
0.0226179
0.0223635
0.0223687
0.0219991
0.021984
0.0216713
0.021439
0.0217277
0.0224202
0.022487
0.0231098
0.0228035
0.0224889
0.0219248
0.0215028
0.0206521
0.0197169
0.0187111
0.0171755
0.0167367
0.0172565
0.0177675
0.0173138
0.0187567
0.0200405
0.0197202
0.0243774
0.0226613
0.0202196
0.0227017
0.0184892
0.0186748
0.0181295
0.0170372
0.017585
0.0170769
0.0169923
0.0172814
0.0175641
0.0187238
0.0196856
0.0203335
0.0212004
0.0218578
0.0225764
0.0237823
0.0240939
0.0231356
0.0229648
0.0217767
0.0210942
0.0207786
0.02171
0.0230042
0.0228968
0.0237624
0.0235015
0.0222505
0.0214346
0.0205714
0.0195881
0.0189217
0.0181437
0.0174099
0.0169944
0.0161851
0.0162963
0.0152158
0.0167852
0.0171887
0.019358
0.0174296
0.0169349
0.0224274
0.0282715
0.0441483
0.0321997
0.0212905
0.0230965
0.0312967
0.0389179
0.0271955
0.026809
0.0151592
0.0174277
0.0151828
0.0154708
0.0165361
0.0168258
0.0180026
0.0190642
0.0192998
0.0200511
0.0203942
0.0211697
0.021428
0.0221673
0.0223614
0.0236411
0.0237119
0.0237891
0.0237703
0.0229946
0.0229236
0.0229648
0.0234084
0.0231816
0.0238517
0.0238752
0.0239497
0.0238765
0.0225292
0.0222052
0.0214315
0.0209159
0.0200079
0.0194574
0.0187377
0.0183508
0.0177192
0.0180384
0.0187616
0.0189622
0.0198886
0.0199082
0.0206563
0.0208633
0.0213309
0.0214636
0.0221323
0.022272
0.0225408
0.0225973
0.0238145
0.0239305
0.0239722
0.0239371
0.0239534
0.0241852
0.0241867
0.0241272
0.0241176
0.0240556
0.0239031
0.0237564
0.0248188
0.025483
0.0249985
0.024756
0.0250249
0.0258874
0.0264403
0.0275432
0.0284021
0.0294882
0.0303862
0.0312208
0.0319014
0.0323864
0.032511
0.0325491
0.0320984
0.0317245
0.0334197
0.0399306
0.0431597
0.048432
0.050809
0.0527868
0.0535003
0.0523407
0.0530582
0.05178
0.0520365
0.050842
0.0504066
0.0495872
0.0485774
0.0478595
0.0463875
0.0456585
0.0502776
0.0569206
0.057049
0.0499972
0.0470774
0.0427589
0.0372236
0.0391724
0.0457041
0.0410644
0.0386438
0.0358264
0.0308163
0.023685
0.01782
0.025508
0.033256
0.0405104
0.0473156
0.0533307
0.0572356
0.0593756
0.0609153
0.0626142
0.0605949
0.0531557
0.0415696
0.0317568
0.0279039
0.0263566
0.0239073
0.0204592
0.0185657
0.0174877
0.0163292
0.0149752
0.0141122
0.0138657
0.0141004
0.0142146
0.0155611
0.0168211
0.0168148
0.0179924
0.0178237
0.0183327
0.0189209
0.0193187
0.0199885
0.0199537
0.0189933
0.0193381
0.0196005
0.0202756
0.020173
0.0203393
0.0201166
0.0193967
0.0188796
0.0182794
0.0177628
0.017307
0.0167385
0.0160331
0.0160208
0.0162203
0.0157791
0.0161848
0.0166212
0.0170238
0.0176491
0.018556
0.0193159
0.0211469
0.0212931
0.021043
0.0211314
0.0197055
0.0196464
0.018672
0.0184416
0.0200354
0.0198818
0.0182085
0.0196057
0.0196051
0.0213827
0.0213831
0.0207099
0.0209048
0.0207838
0.0189562
0.0180652
0.016999
0.0162224
0.0156379
0.0152415
0.01478
0.0153969
0.0142105
0.0136306
0.0140754
0.0140517
0.0141184
0.0145059
0.0149346
0.0156782
0.0163811
0.0174242
0.0180614
0.0189589
0.0192923
0.0212011
0.0211148
0.0209916
0.0210227
0.0211591
0.0216122
0.0208196
0.0207817
0.0209206
0.0209351
0.0209527
0.0209338
0.019095
0.0188914
0.0180564
0.0177392
0.0168099
0.016452
0.0157974
0.0154841
0.0150951
0.0148982
0.0232678
0.0254645
0.0256298
0.0397813
0.0199807
0.0199705
0.0343255
0.0173492
0.0230651
0.02362
0.0246949
0.0259062
0.0225524
0.0307213
0.0212148
0.0233234
0.0240599
0.0252391
0.0127853
0.0191939
0.0366615
0.0422587
0.0436046
0.048578
0.0553226
0.0585643
0.0616231
0.063683
0.0659563
0.0684224
0.0708387
0.0725969
0.0727634
0.0691007
0.066056
0.0565782
0.0527605
0.0565117
0.0609493
0.0474576
0.0426588
0.0432099
0.043685
0.044225
0.0444394
0.0451359
0.0449454
0.0459536
0.04522
0.0463361
0.0451915
0.0462303
0.0449772
0.0422244
0.0389856
0.0327472
0.0307536
0.0296378
0.0269099
0.0243975
0.0221315
0.020292
0.0198523
0.0182792
0.0168658
0.0165655
0.0152755
0.0155219
0.0167332
0.0198501
0.0168198
0.0176727
0.0259851
0.0191453
0.0180526
0.0186046
0.019126
0.0193632
0.0182579
0.0198936
0.0221763
0.0221621
0.0222232
0.0222288
0.0214237
0.0212606
0.0209847
0.0210398
0.0210723
0.0211921
0.0211585
0.0193351
0.0192787
0.0190055
0.0188671
0.0180788
0.0179116
0.0173292
0.0169999
0.0161609
0.0158675
0.0154176
0.0154681
0.0165467
0.0203117
0.0296791
0.0172254
0.0178477
0.0154643
0.0139456
0.0265682
0.0247571
0.0285933
0.0267562
0.0394017
0.0264096
0.0231754
0.0241875
0.0296991
0.0296318
0.0325569
0.0423252
0.0329815
0.0281194
0.0725037
0.0524673
0.0330038
0.0458142
0.0578247
0.108471
0.127188
0.0558274
0.0563665
0.0620722
0.0629684
0.062845
0.0531912
0.0490583
0.0411461
0.0315846
0.0129007
0.0248911
0.0321182
0.0424355
0.0566383
0.0919469
0.0528245
0.059659
0.0656155
0.0646939
0.0677993
0.065934
0.0645462
0.0654963
0.102651
0.111684
0.107326
0.0857908
0.0805216
0.0738682
0.12397
0.139124
0.119874
0.129935
0.135572
0.080858
0.0302115
0.0249329
0.0238105
0.0263855
0.0253345
0.0460202
0.0205691
0.0218107
0.02264
0.0271535
0.0301693
0.0529299
0.0232363
0.0254527
0.0324064
0.034881
0.0459891
0.0274292
0.0280956
0.0344356
0.0362303
0.0395441
0.0336401
0.0317429
0.028713
0.0259025
0.0244046
0.0254531
0.0318471
0.0463562
0.0278658
0.0282938
0.0300595
0.133454
0.0307249
0.026635
0.0276886
0.0266964
0.033651
0.0351087
0.111011
0.0354195
0.0166868
0.0154536
0.015931
0.0167417
0.0173791
0.0179956
0.018441
0.0190801
0.0194756
0.0196272
0.0197952
0.0221732
0.0220789
0.021612
0.0210685
0.0218639
0.0211691
0.0212189
0.0218366
0.0213036
0.0214461
0.0224996
0.0236727
0.0231878
0.0237559
0.0251046
0.0239424
0.0222359
0.0220317
0.0221558
0.0228629
0.0240035
0.0228087
0.0234589
0.0226385
0.0235623
0.0236653
0.0203637
0.0199971
0.0197947
0.0192898
0.0186174
0.0179929
0.0173201
0.0166655
0.0161521
0.0160572
0.0165298
0.0151782
0.0155536
0.017831
0.039047
0.0321355
0.0263368
0.0221038
0.0195037
0.0183887
0.0182885
0.0187408
0.0193946
0.0199587
0.020167
0.0207506
0.0246313
0.0245831
0.0257903
0.02465
0.0259903
0.0249374
0.0236114
0.0227409
0.0239502
0.0232518
0.0237422
0.0253653
0.0262159
0.0238522
0.024125
0.021529
0.0201112
0.0184903
0.0188313
0.0202853
0.0209651
0.0234104
0.0234892
0.0269345
0.0269097
0.0267563
0.0255132
0.0248371
0.0262898
0.0248
0.0259515
0.0248372
0.0262437
0.0274267
0.0277727
0.0270665
0.0261993
0.0253221
0.0210493
0.0202624
0.0199556
0.0194592
0.0191904
0.0200773
0.0242477
0.0333178
0.0452914
0.0573506
0.0667924
0.0663842
0.0598518
0.0404099
0.0415619
0.0384807
0.0420483
0.0596834
0.0851117
0.0595065
0.113865
0.0882489
0.0523895
0.0627169
0.0746955
0.0838455
0.0897193
0.0905894
0.0770078
0.0566067
0.0497002
0.05214
0.0845814
0.083315
0.0824301
0.0779906
0.0824792
0.0803727
0.0777109
0.0761565
0.0743869
0.0701453
0.0701242
0.0674485
0.0674196
0.0602724
0.0614598
0.061696
0.059123
0.0563749
0.0540882
0.0518981
0.0495746
0.0456784
0.0443971
0.0419159
0.0401696
0.0368076
0.0362732
0.0357888
0.0336129
0.0320592
0.0308047
0.0295419
0.0278366
0.0279956
0.0263953
0.0262374
0.0213765
0.020999
0.0199859
0.0196488
0.0193916
0.0195694
0.0207714
0.0233901
0.0433768
0.0330336
0.0329312
0.0335088
0.0337231
0.0396333
0.0464229
0.0706906
0.0654103
0.0720042
0.0615442
0.0640005
0.0632062
0.0628185
0.065537
0.0691272
0.074468
0.0869642
0.333724
0.513811
0.253369
0.237316
0.246917
0.25179
0.259215
0.339382
0.360242
0.356303
0.360761
0.330616
0.318361
0.196641
0.226045
0.238115
0.236984
0.223834
0.201982
0.392278
0.522663
0.518791
0.523658
0.52377
0.518765
0.522606
0.502912
0.514274
0.501758
0.51503
0.502299
0.521677
0.518937
0.504364
0.501137
0.501156
0.500916
0.501378
0.501555
0.504893
0.506055
0.506107
0.505102
0.504111
0.514526
0.435938
0.121725
0.0845445
0.140333
0.194988
0.159499
0.231446
0.266234
0.191822
0.1089
0.0886437
0.0999927
0.12312
0.124688
0.151687
0.198763
0.186222
0.151959
0.152979
0.153263
0.198321
0.190098
0.216414
0.258692
0.252186
0.187555
0.149187
0.14803
0.226043
0.241174
0.236447
0.121815
0.043545
0.0217265
0.0226012
0.0326251
0.0164778
0.0168164
0.02192
0.0570529
0.0956559
0.0492132
0.135065
0.137193
0.18168
0.147173
0.178154
0.115251
0.118717
0.0675256
0.0795368
0.0894936
0.0952675
0.0995442
0.093488
0.215882
0.318452
0.189974
0.560349
0.537676
0.195775
0.217035
0.575861
0.513013
0.503521
0.501784
0.501698
0.501858
0.501816
0.500969
0.500915
0.500728
0.500765
0.500716
0.501163
0.504767
0.520402
0.514613
0.50524
0.501385
0.500824
0.500799
0.50069
0.50073
0.50075
0.500807
0.501017
0.501049
0.50115
0.50167
0.503941
0.512032
0.435798
0.169958
0.182373
0.406169
0.361921
0.511505
0.504622
0.501369
0.500941
0.500855
0.500829
0.500794
0.500969
0.50089
0.501397
0.501231
0.501287
0.502777
0.50826
0.506399
0.443484
0.3697
0.417481
0.330251
0.506675
0.507779
0.503277
0.502899
0.503246
0.503413
0.501513
0.501527
0.500992
0.50106
0.500892
0.50134
0.504756
0.511017
0.346077
0.170935
0.177838
0.258148
0.0879189
0.0908275
0.0927372
0.0948163
0.246935
0.440975
0.555049
0.470799
0.474999
0.541817
0.385396
0.364171
0.293876
0.317534
0.401823
0.347206
0.312786
0.250278
0.288562
0.247777
0.303578
0.217946
0.234247
0.22181
0.283133
0.287019
0.287387
0.226801
0.216653
0.27173
0.286047
0.31706
0.218841
0.259133
0.203363
0.192412
0.0871263
0.0892845
0.0811563
0.0711954
0.0709714
0.0791211
0.0775744
0.0837749
0.0807837
0.0845025
0.0816422
0.0796026
0.0727784
0.0747992
0.0685686
0.0712127
0.130277
0.166467
0.150374
0.151796
0.179544
0.130982
0.157368
0.153373
0.197485
0.247889
0.226089
0.290595
0.224691
0.275414
0.40544
0.754178
0.436851
0.243947
0.317982
0.340253
0.288696
0.189573
0.449595
0.53873
0.298108
0.36047
1.19695
1.04418
1.78196
0.992351
1.1184
0.670292
0.597513
1.02841
0.653352
0.665651
0.559245
0.573152
0.498646
0.323964
0.323361
0.305277
0.241597
0.280157
0.270884
0.266644
0.296159
0.261229
0.316181
0.351987
0.396628
0.322435
0.285181
0.366326
0.215391
0.290092
0.345688
0.315108
0.259274
0.337264
0.449081
0.419862
0.361184
0.398355
0.508625
0.56235
0.530919
0.450285
0.510949
1.0051
0.961418
0.929972
0.589662
1.93388
1.71726
0.351371
0.13655
0.0950436
0.0359854
0.0223941
0.018263
0.0178699
0.048763
0.0195402
0.0235092
0.0211455
0.0298426
0.0272363
0.0314759
0.0551109
0.0374466
0.0524939
0.0389782
0.0516762
0.0411548
0.056554
0.0607236
0.0639113
0.0516846
0.0407613
0.0615916
0.0821967
0.0384699
0.0989727
0.104582
0.0675392
0.0821728
0.101441
0.052497
0.164095
0.0569546
0.0565258
0.0671193
0.125866
0.250115
0.0848906
0.111495
0.584005
1.52904
0.508686
0.20038
0.163268
0.041341
0.0358955
0.0291526