/*--------------------------------*- C++ -*----------------------------------*\
| =========                 |                                                 |
| \\      /  F ield         | OpenFOAM: The Open Source CFD Toolbox           |
|  \\    /   O peration     | Version:  v2012                                 |
|   \\  /    A nd           | Website:  www.openfoam.com                      |
|    \\/     M anipulation  |                                                 |
\*---------------------------------------------------------------------------*/
FoamFile
{
    version     2.0;
    format      ascii;
    class       volScalarField;
    location    "1115";
    object      epsilon;
}
// * * * * * * * * * * * * * * * * * * * * * * * * * * * * * * * * * * * * * //

dimensions      [0 2 -3 0 0 0 0];


internalField   nonuniform List<scalar> 
18258
(
0.0239931
0.0122593
0.00911808
0.00716476
0.0126579
0.012536
0.012997
0.0173394
0.0241576
0.0370075
0.0535929
0.0481778
0.0435579
0.045305
0.0474627
0.0450029
0.035057
0.0303265
0.0398653
0.0665799
0.0608909
0.0497117
0.0609854
0.051407
0.0653124
0.0823687
0.0631484
0.0568254
0.0509699
0.0479012
0.0413274
0.0234017
0.0344024
0.0531421
0.0724998
0.0791953
0.0848218
0.0894747
0.094704
0.0968394
0.0970837
0.0918727
0.0827053
0.0677114
0.0498319
0.0384657
0.0306825
0.0310123
0.0435729
0.0446095
0.0554023
0.085289
0.107745
0.0808669
0.0518299
0.0824791
0.112388
0.14412
0.170647
0.193121
0.200877
0.197493
0.185998
0.169296
0.147869
0.122892
0.101907
0.0849916
0.0672079
0.0574157
0.0464698
0.0385609
0.0329965
0.0293385
0.0271389
0.0254083
0.0242404
0.0251749
0.0250626
0.0178731
0.0140604
0.0132095
0.00945085
0.0078553
0.00817329
0.00778049
0.0080854
0.00713962
0.00611159
0.00530153
0.00449066
0.00652869
0.00701719
0.00725682
0.00727432
0.00780023
0.00806613
0.00780506
0.00790105
0.00723293
0.00739803
0.0118844
0.013683
0.0173699
0.0154969
0.010731
0.00910931
0.0101507
0.010777
0.0133781
0.0125631
0.0133496
0.0118462
0.0108139
0.0091407
0.00888422
0.00912701
0.00970269
0.0101107
0.0117057
0.0115335
0.0106914
0.0118257
0.0130505
0.0127773
0.0122318
0.0116542
0.0143037
0.0115145
0.0122024
0.0137043
0.022082
0.0216048
0.0260785
0.0256003
0.0260502
0.0262359
0.0316202
0.0317414
0.0321158
0.0324355
0.0341493
0.0572232
0.0509943
0.0498864
0.0496929
0.0430185
0.0425469
0.0418451
0.0426586
0.0362045
0.0348591
0.0316009
0.0312307
0.0348407
0.0440012
0.0615181
0.0888208
0.122819
0.159209
0.189512
0.210518
0.232267
0.23762
0.251482
0.256147
0.257029
0.251335
0.242888
0.233395
0.220506
0.201882
0.188881
0.148409
0.105043
0.0591239
0.0784333
0.0904451
0.100168
0.10209
0.103277
0.0992607
0.0930967
0.0819677
0.0664807
0.0432071
0.0480888
0.0652653
0.0676935
0.0685099
0.0544066
0.0524643
0.0488333
0.0488954
0.0643331
0.0736465
0.0618572
0.0853203
0.100284
0.0877604
0.0636626
0.0974647
0.14277
0.0803404
0.0681416
0.0525617
0.0515573
0.0435393
0.036923
0.0631053
0.0941722
0.128933
0.149791
0.171374
0.188718
0.201866
0.215804
0.187655
0.170547
0.114936
0.201005
0.152357
0.0770244
0.056786
0.0549582
0.046069
0.0515879
0.0566526
0.0523278
0.0403676
0.0278589
0.0247046
0.0461101
0.0643812
0.0778358
0.0619123
0.0787866
0.0888529
0.0961359
0.10143
0.128676
0.0947873
0.105464
0.0752081
0.102247
0.0723521
0.0465203
0.0525182
0.100342
0.159987
0.218873
0.255718
0.145177
0.0735212
0.0545451
0.0544701
0.0527374
0.0478044
0.0594397
0.105742
0.0719499
0.0466111
0.0403904
0.047643
0.0416661
0.0308847
0.0324867
0.0398834
0.0548746
0.0685659
0.0814007
0.124883
0.121958
0.14708
0.154219
0.13004
0.12588
0.0815174
0.0835128
0.122777
0.0916693
0.0741165
0.104121
0.147403
0.201862
0.248384
0.288929
0.314801
0.304131
0.275111
0.174036
0.0762078
0.022925
0.0177984
0.0168323
0.0173076
0.0105192
0.00630547
0.00586275
0.00668995
0.00703357
0.005919
0.00544461
0.00543415
0.00578877
0.0101855
0.00875118
0.0108299
0.0131222
0.0156721
0.0187181
0.0194475
0.0129041
0.00873451
0.00819657
0.00813237
0.00806385
0.00803503
0.00804753
0.00808897
0.00810594
0.00807452
0.00799644
0.00785956
0.00772395
0.00766633
0.00830267
0.0111937
0.015359
0.0148524
0.013562
0.0122055
0.0110433
0.0087117
0.015157
0.0128531
0.0109437
0.013405
0.0165137
0.020871
0.0245241
0.0176903
0.0141626
0.0128169
0.0126902
0.0125749
0.0126191
0.0124947
0.0125567
0.0123531
0.0129426
0.0135827
0.0169847
0.019009
0.0211876
0.0226835
0.023262
0.0239685
0.0211188
0.0229885
0.0227354
0.0235141
0.0233345
0.0226503
0.020732
0.018939
0.0177165
0.0191334
0.0237036
0.0323594
0.0267525
0.0207651
0.0168043
0.0137475
0.0150175
0.0166901
0.0168651
0.0158771
0.0156425
0.0154337
0.0139144
0.0131286
0.0111144
0.0105036
0.0100394
0.01019
0.0143724
0.0135196
0.0137228
0.0144559
0.0155581
0.0147169
0.0151484
0.0142993
0.0145488
0.0149713
0.0170363
0.0185953
0.0178356
0.0165162
0.0160205
0.0137512
0.0158594
0.0157181
0.0170384
0.0186243
0.0191187
0.0190547
0.0184171
0.0168238
0.0187145
0.0220841
0.0257389
0.024738
0.0244101
0.020463
0.01926
0.0202324
0.0215046
0.0224063
0.0224662
0.0222784
0.0223534
0.0263306
0.0259471
0.0247615
0.0226998
0.0202602
0.0176197
0.0151945
0.016663
0.0181357
0.0195179
0.0207795
0.0205574
0.0190358
0.0176842
0.0164604
0.0149729
0.014689
0.0161378
0.0173543
0.0187809
0.0204931
0.0205797
0.018866
0.0173734
0.0160948
0.0146246
0.0145776
0.0160753
0.0173711
0.0187868
0.020272
0.0196422
0.0184873
0.0172379
0.0159973
0.0145469
0.0146152
0.0159352
0.0170024
0.0180847
0.0190343
0.0198897
0.017928
0.0170189
0.0171134
0.0161276
0.0193144
0.0185561
0.0194969
0.0180435
0.0168176
0.0178226
0.0210159
0.0240523
0.0246057
0.0243261
0.0201911
0.0206469
0.0206226
0.0192021
0.0159779
0.0153818
0.0181555
0.0208952
0.0213586
0.0200493
0.016944
0.0132992
0.0143228
0.0174893
0.0198046
0.0185401
0.0183811
0.0169667
0.0158854
0.0161827
0.0139029
0.0166423
0.0267179
0.0241735
0.022156
0.0196886
0.0156844
0.0106243
0.0115252
0.0126852
0.0131006
0.0105864
0.00792867
0.00712101
0.0069286
0.00677128
0.00655367
0.00618677
0.00563126
0.00538563
0.0105826
0.0255731
0.0363937
0.0357957
0.0241051
0.0207049
0.0199252
0.0182507
0.00861979
0.0082017
0.00839284
0.0104112
0.00828709
0.00819886
0.0141689
0.00990709
0.0136405
0.0106565
0.0146227
0.0229153
0.0216501
0.014311
0.00801355
0.00690792
0.00739861
0.00768059
0.00788372
0.00807988
0.00831295
0.0086985
0.0100199
0.0157466
0.0203296
0.0177891
0.0167979
0.0153211
0.0188612
0.0213411
0.0232784
0.0260458
0.0161066
0.0117959
0.0166477
0.027278
0.0247611
0.0233047
0.0171645
0.0177064
0.0171383
0.0110225
0.0106771
0.0105934
0.0114044
0.0127925
0.0147133
0.015869
0.0166171
0.0169482
0.0178598
0.0231261
0.0216363
0.0211178
0.0173316
0.0133945
0.0154147
0.0516359
0.0195605
0.0206787
0.018903
0.0191731
0.0204607
0.0151548
0.0135049
0.0129292
0.0146197
0.0215111
0.0215275
0.0213928
0.0182593
0.0174769
0.0209044
0.021993
0.0223882
0.021772
0.0213336
0.0194711
0.0166916
0.0181235
0.0196419
0.0208354
0.0228418
0.0231793
0.017961
0.0172401
0.0158468
0.0105536
0.0112955
0.00973382
0.00970428
0.00967095
0.0093973
0.00894843
0.00923643
0.00935306
0.00935069
0.00900483
0.00930133
0.00835379
0.00868942
0.00978117
0.0152301
0.0147943
0.0175927
0.0195066
0.0167502
0.01559
0.0142262
0.0132019
0.0154578
0.0142934
0.0168736
0.0212298
0.0265261
0.0191498
0.0181532
0.0179304
0.017525
0.0173677
0.0174204
0.0167255
0.0157203
0.0151507
0.0236114
0.021307
0.0181806
0.0172302
0.0157953
0.0180507
0.0174925
0.0213951
0.026885
0.0270908
0.0215635
0.021642
0.018982
0.020089
0.0222821
0.0271288
0.0270516
0.0144564
0.00961138
0.0154586
0.0157985
0.0184102
0.0170243
0.0185531
0.0197356
0.0204607
0.0203187
0.0177148
0.0188906
0.0196792
0.020665
0.0186096
0.0166029
0.0173929
0.0161702
0.0152698
0.0147697
0.0126931
0.0129388
0.0139112
0.0153634
0.0163071
0.0178024
0.0194596
0.0194877
0.0201569
0.0197527
0.01915
0.025245
0.024005
0.0255466
0.0282564
0.0224658
0.0178322
0.0147071
0.0150206
0.014787
0.0146951
0.0154366
0.016798
0.0151755
0.0145554
0.0170686
0.0194301
0.0247007
0.0330699
0.0288054
0.0262315
0.0332414
0.0314045
0.0382597
0.0286953
0.0281658
0.0208753
0.0263095
0.0305274
0.0392304
0.0255379
0.0209794
0.0224347
0.0255558
0.0348022
0.0328154
0.0331867
0.0412211
0.0399858
0.0362195
0.0311953
0.0353852
0.0212733
0.030215
0.0322451
0.0268318
0.0257272
0.0307729
0.0310987
0.033032
0.0283867
0.0267919
0.0179345
0.0274692
0.0314133
0.0331054
0.0278408
0.0205436
0.0280389
0.0205751
0.0192096
0.0203219
0.013796
0.0127425
0.0148173
0.0138877
0.0112121
0.0121617
0.0111794
0.0111654
0.0112454
0.0113587
0.0114884
0.0117401
0.0116984
0.0126958
0.0133363
0.0126209
0.0115662
0.012232
0.0126042
0.0161187
0.0182066
0.0204726
0.0220659
0.0229075
0.024049
0.0227112
0.0248341
0.0237639
0.0252301
0.0249358
0.0238745
0.0213726
0.0187514
0.0163731
0.016927
0.0206129
0.0271486
0.0222306
0.0172028
0.0139051
0.0115063
0.0127928
0.0160366
0.00869504
0.00794781
0.00766126
0.00749341
0.00736612
0.00654839
0.00579369
0.00821628
0.0128949
0.0162213
0.0202821
0.025857
0.0320469
0.0375055
0.0416673
0.0446276
0.0464386
0.0469031
0.043998
0.0332707
0.028536
0.0244409
0.0201738
0.0164399
0.0167573
0.0243934
0.0320322
0.0395834
0.0462555
0.051252
0.049349
0.0331235
0.0299987
0.0462162
0.0777819
0.0735401
0.096599
0.110538
0.0624764
0.0462634
0.0452922
0.0621454
0.0648022
0.0566983
0.0466288
0.036306
0.0260948
0.0305188
0.0349223
0.0391939
0.043706
0.0580255
0.0610513
0.05979
0.0571747
0.0536473
0.0486615
0.041406
0.0327769
0.0248624
0.0189277
0.0142532
0.00901435
0.0073848
0.00780334
0.00716697
0.00953841
0.00880072
0.00848973
0.00819637
0.00843988
0.0082982
0.00843781
0.00748175
0.00669419
0.0103821
0.00963165
0.00962792
0.0103195
0.0135235
0.0103927
0.00767894
0.00725064
0.00720455
0.00742992
0.0152867
0.0248165
0.030346
0.0350022
0.0387537
0.0373785
0.0338418
0.0280219
0.0218162
0.0196509
0.0166555
0.0142291
0.0130898
0.014457
0.0119243
0.00593012
0.00516349
0.0057002
0.00555698
0.0050859
0.00613111
0.00683291
0.00745559
0.00788624
0.00820205
0.00826529
0.00820495
0.00811522
0.00807106
0.00805055
0.00802114
0.00795462
0.00785697
0.00771221
0.00757326
0.00750718
0.00810046
0.010716
0.0146416
0.0144002
0.0132845
0.0121724
0.0113084
0.00958306
0.015433
0.0131002
0.0109857
0.010163
0.0100265
0.0103313
0.0113117
0.0129521
0.0138692
0.0158708
0.0159035
0.0157888
0.0160762
0.0158655
0.0132343
0.0150196
0.0177302
0.0185562
0.0191726
0.0189525
0.0174199
0.0194328
0.020571
0.0200136
0.019401
0.016556
0.0192952
0.0232566
0.0237026
0.0239763
0.0213107
0.0184791
0.0216404
0.0228054
0.0224077
0.0232931
0.0215132
0.0222432
0.027756
0.0143107
0.0131275
0.00787599
0.00876585
0.00900682
0.00872108
0.00844609
0.00880205
0.00905747
0.00882506
0.00950373
0.00981785
0.00913916
0.0116039
0.0106926
0.0103236
0.00970424
0.0102085
0.0108507
0.0111646
0.0123142
0.0197203
0.0202176
0.0183321
0.0208782
0.0214859
0.0180764
0.0205406
0.0214114
0.0217138
0.02207
0.0235712
0.0221444
0.0244708
0.0237006
0.0223251
0.0215648
0.038315
0.0252744
0.0166604
0.0153903
0.0150481
0.0151157
0.0170365
0.0128149
0.0143632
0.0101664
0.00881127
0.00845038
0.00816639
0.0082021
0.0106516
0.0162998
0.0248119
0.028101
0.0270287
0.0236082
0.0179375
0.013238
0.0129794
0.011756
0.0110201
0.0109213
0.00731974
0.005105
0.00649464
0.00658172
0.0071759
0.00759719
0.00794125
0.00820109
0.00834626
0.00842307
0.00850978
0.00863152
0.00876164
0.00887181
0.00895635
0.00901524
0.00907678
0.00919587
0.00950185
0.0107077
0.0153642
0.0197625
0.0186353
0.0171676
0.0158576
0.0166249
0.0173798
0.0180978
0.0222842
0.0191619
0.0220575
0.0207551
0.019776
0.0183603
0.0190887
0.0208845
0.0166799
0.0166159
0.0113681
0.00993297
0.00955853
0.00934687
0.00918187
0.00901685
0.00884806
0.00869641
0.00855205
0.00842531
0.00832448
0.0082291
0.00808435
0.00783443
0.0074264
0.00699144
0.00609445
0.00668351
0.0073554
0.00838267
0.00953662
0.0100769
0.00949921
0.00874844
0.00844734
0.00859528
0.00878055
0.00898113
0.00920856
0.00952352
0.00998946
0.0109606
0.0116186
0.0162971
0.0170427
0.0202792
0.0200817
0.0179802
0.0173299
0.0189388
0.0174385
0.0126798
0.0174243
0.0169595
0.0212281
0.0157565
0.014865
0.0152817
0.0157677
0.0184133
0.0173221
0.0158381
0.0157902
0.0126977
0.0142852
0.0162902
0.0177661
0.0280026
0.0274618
0.0345319
0.0344107
0.0594286
0.056567
0.0499041
0.0539158
0.02379
0.0465844
0.0544378
0.0496141
0.0430857
0.0274737
0.0439128
0.0668255
0.0968916
0.0698839
0.0571796
0.106283
0.0771199
0.0375492
0.026667
0.0150507
0.0151249
0.025122
0.0291769
0.024197
0.0233522
0.0335441
0.034907
0.0281255
0.028788
0.0311625
0.0300885
0.0325699
0.0282026
0.0274805
0.0155832
0.0127935
0.0138321
0.0155733
0.0165833
0.0160689
0.0169138
0.0175875
0.0161408
0.0151088
0.0145434
0.0124726
0.0132093
0.0161995
0.0204232
0.023937
0.0172865
0.0138894
0.0125886
0.012393
0.0121646
0.0120439
0.0117215
0.0115341
0.0110641
0.0112719
0.00982541
0.00983792
0.010375
0.0105384
0.0107432
0.0109023
0.0110269
0.0111402
0.0120061
0.0187844
0.0259833
0.02079
0.0164756
0.0139902
0.0151815
0.0171092
0.0210185
0.0264492
0.0178644
0.017689
0.0115361
0.0107581
0.0105484
0.0103756
0.0102237
0.0101273
0.0101906
0.0101954
0.0119362
0.0115751
0.0135256
0.0146034
0.0120791
0.0116567
0.0111914
0.0109091
0.0107541
0.010671
0.010761
0.0116234
0.0114582
0.0105278
0.0104327
0.0105514
0.0107627
0.0110829
0.0115268
0.0120278
0.0129356
0.012711
0.0112376
0.0112583
0.0106007
0.0102908
0.0100552
0.0100307
0.010079
0.0102195
0.0104419
0.0113497
0.0171551
0.0173343
0.0266751
0.0266513
0.0211841
0.0177022
0.0155424
0.0142871
0.013554
0.0352642
0.0309559
0.0489363
0.0390993
0.0313254
0.0508468
0.0723003
0.0561622
0.0914088
0.0987603
0.0727774
0.0658069
0.0209812
0.0159813
0.0154566
0.0169493
0.0186472
0.0212905
0.0218855
0.0267141
0.0288219
0.0172157
0.016535
0.0156116
0.0249191
0.0230858
0.0197031
0.0178126
0.0164224
0.0189718
0.0207727
0.0150044
0.0150523
0.00970418
0.0107106
0.0104519
0.0101128
0.00999589
0.00992265
0.00996085
0.0100611
0.0103495
0.0108493
0.0112305
0.0113662
0.0116244
0.0114042
0.0111341
0.0108148
0.0106275
0.0104401
0.0102871
0.010169
0.0102039
0.0105211
0.0106657
0.00935928
0.00970518
0.00981312
0.00982362
0.0098535
0.00981649
0.00967779
0.00947054
0.00927194
0.00906416
0.00911341
0.0099636
0.0101198
0.0101843
0.0100302
0.00991041
0.00989817
0.00983047
0.0098139
0.00980401
0.00967946
0.00936544
0.00863869
0.0084909
0.00909716
0.00944374
0.00962483
0.00970956
0.00969626
0.00964289
0.0094115
0.00923402
0.00901911
0.00867058
0.00820589
0.00676421
0.00703231
0.007392
0.00789306
0.00840963
0.00886331
0.00916893
0.00933095
0.00942316
0.00934212
0.00905102
0.00852314
0.00846836
0.0088583
0.00903608
0.00899171
0.00872531
0.00831063
0.00774264
0.007038
0.00635682
0.0058393
0.00560053
0.00521575
0.00657068
0.00717233
0.00773219
0.00825096
0.00874124
0.00926272
0.00946283
0.00951655
0.00949345
0.00933511
0.00900235
0.00847197
0.00847852
0.00895747
0.00926976
0.00939649
0.00937771
0.0091957
0.00878831
0.0078725
0.00705513
0.00639284
0.00579785
0.00520186
0.00510688
0.0053615
0.00512529
0.00531994
0.00589242
0.00669165
0.00747035
0.0080834
0.00851604
0.00870522
0.00865872
0.0084099
0.0083097
0.0084282
0.00836496
0.00805381
0.00748209
0.00673571
0.00594017
0.00531793
0.00514699
0.00547743
0.00580364
0.00549227
0.00437344
0.00492442
0.00549176
0.00609352
0.00701909
0.00820665
0.00879429
0.00911233
0.00927091
0.00920419
0.00891346
0.00847107
0.00845083
0.0088772
0.00916105
0.00920997
0.00907015
0.00879226
0.00830744
0.00687095
0.00538885
0.00475306
0.00439559
0.00395863
0.00556812
0.00593292
0.00551737
0.00524756
0.00568608
0.00622377
0.00684271
0.0073535
0.00778363
0.00809403
0.0082035
0.00817859
0.00804369
0.00803992
0.00797844
0.00777031
0.00752397
0.0073213
0.00689282
0.00644052
0.00590104
0.00645029
0.00673522
0.0063079
0.00467237
0.00496301
0.00542687
0.00572765
0.00720382
0.00862936
0.00901236
0.00914249
0.00927344
0.00919827
0.00887496
0.00842839
0.00841133
0.0089417
0.0093525
0.00950026
0.00961426
0.00975202
0.00987753
0.00873349
0.00679201
0.00629461
0.00528026
0.00482303
0.00662541
0.0070493
0.00685441
0.00659195
0.00754723
0.00794494
0.00808454
0.00809161
0.00809981
0.00807383
0.00798757
0.00792549
0.00780972
0.00824296
0.00887574
0.0087813
0.00869109
0.00853977
0.00818219
0.00772734
0.00719363
0.00786755
0.00842164
0.00814212
0.00596807
0.00634227
0.0072432
0.00746773
0.00904817
0.0102355
0.0105544
0.0105167
0.0103787
0.0103364
0.00931048
0.00837402
0.00822181
0.00958823
0.0155715
0.0154068
0.0154325
0.0153539
0.0147781
0.0146073
0.0140357
0.0137767
0.0130703
0.0126136
0.0119251
0.0139622
0.0177038
0.0197957
0.0221704
0.0246739
0.0232982
0.0187786
0.016545
0.010107
0.00797404
0.00688259
0.00596484
0.00527093
0.00506557
0.00750397
0.00934609
0.0114849
0.0134062
0.0137179
0.0161197
0.0200272
0.0304958
0.0484757
0.0409092
0.0385987
0.0387658
0.0959127
2.54271
2.7168
2.48287
2.88505
3.32706
0.385968
0.150067
0.278384
0.293016
0.324553
0.302344
0.275252
0.252206
0.26295
0.252405
0.264219
0.246323
0.257079
0.224777
0.231575
0.240438
0.714612
1.05256
1.26699
1.76596
1.76357
1.98816
1.93531
1.95139
1.80159
1.91693
1.66597
1.38141
1.30575
1.23376
1.32422
1.43892
1.2486
1.13153
1.01557
0.92383
0.791354
1.00332
0.76127
0.719504
0.718066
0.750184
0.999347
0.91026
1.04722
0.960659
0.997786
0.596064
0.668401
0.48562
0.40415
0.336071
0.403433
0.540316
0.71797
0.900687
0.698421
0.956346
0.89187
0.894269
0.851239
0.775246
0.735794
0.723092
0.744316
0.75732
0.773105
0.801572
0.823389
0.843024
0.995358
1.06193
1.05383
0.863332
0.771444
0.534084
0.572042
0.605794
0.608962
0.566815
0.549046
0.49853
0.486091
0.441356
0.422152
0.384061
0.364745
0.332678
0.459921
0.785954
0.815722
0.886108
0.939058
0.989841
1.01177
1.02954
1.01251
0.979316
0.908256
0.876532
0.812572
0.921445
1.10734
1.10465
1.01441
0.861128
0.814876
3.80143
4.62354
3.06005
6.59838
10.0313
16.8247
7.64859
2.07304
3.46601
2.38122
2.11268
2.05904
2.1739
3.42571
2.50559
3.27321
2.72648
2.85431
2.25519
2.46427
2.30807
1.76407
1.48003
1.25243
1.1184
0.90009
0.879445
0.721444
0.675482
0.638498
0.539481
0.67425
0.698311
1.71667
2.32615
2.89858
4.54497
4.98458
5.44352
8.57746
6.92212
8.64602
5.13459
5.19287
3.83821
3.60893
3.6474
5.01515
7.17773
4.94205
8.62921
4.80715
15.6072
34.9028
9.20593
19.0389
10.9745
9.91615
9.55088
9.83487
13.9761
9.55221
15.5145
13.1459
17.4807
17.1506
18.0266
13.8194
10.2328
11.1786
11.9784
15.3773
10.8355
12.3694
9.38173
9.16065
8.68256
7.21438
6.53306
5.04509
5.9987
7.02863
8.01318
12.7453
15.9437
18.2955
22.0465
16.2482
18.5192
11.1449
12.2477
9.45763
8.87483
9.01061
11.8573
21.0159
14.8833
27.2315
0.49871
0.226232
0.546418
0.229844
0.487411
0.390807
0.403326
0.40424
0.399931
0.461338
0.220313
0.18522
0.177437
0.175287
0.176815
0.100264
0.1245
0.0804467
0.126966
0.22948
0.505009
0.366105
0.140613
0.0826341
0.0546205
0.0429646
0.0634872
0.061282
0.0979996
0.0993576
0.105691
0.132247
0.228444
0.434031
31.8455
7.10532
1.12903
0.530544
0.282302
0.173213
0.149468
0.169056
0.181997
0.185016
0.174089
0.148314
0.106796
0.0710867
0.0479904
0.0405309
0.0295515
0.0278648
0.0394041
0.0532135
0.0493722
0.0650903
0.0834903
0.106298
0.130633
0.15006
0.164676
0.168597
0.156525
0.122489
0.0806134
0.0443816
0.026477
0.0228162
0.0208824
0.0193895
0.0167435
0.0145153
0.0131035
0.0112067
0.00988644
0.0089274
0.00862684
0.00875502
0.00956353
0.0120974
0.0145597
0.0188539
0.0179788
0.0134619
0.0126095
0.00781223
0.00722296
0.00737222
0.00762518
0.00844278
0.0132047
0.0135144
0.0133933
0.0134255
0.0132459
0.0132394
0.0130726
0.012915
0.0126972
0.0122814
0.0119904
0.0114657
0.011179
0.0104925
0.0105195
0.0108776
0.0111776
0.0101102
0.00999667
0.0093157
0.0209045
0.0494985
0.0702755
0.0786883
0.0884593
0.0811461
0.0420866
0.0232202
0.00794429
0.00768943
0.00818816
0.00883364
0.00838338
0.00616255
0.00670779
0.0079179
0.0111337
0.0111217
0.0111559
0.0130334
0.0135847
0.0149355
0.0154841
0.0158506
0.0160776
0.0159866
0.0161138
0.0158151
0.0159069
0.0156962
0.015785
0.0153793
0.0273044
0.025716
0.0264539
0.0264966
0.0277213
0.0272161
0.0267466
0.0257618
0.0250703
0.0235382
0.0219639
0.0203572
0.0182137
0.0189372
0.0182567
0.0113453
0.0107577
0.00769243
0.00770073
0.00740691
0.0102399
0.00931062
0.00782552
0.00917958
0.00671614
0.00689189
0.00726461
0.0103785
0.0109087
0.017422
0.017449
0.0154896
0.0164938
0.0175505
0.0189012
0.020054
0.0214801
0.0224733
0.0235627
0.02545
0.0258575
0.024082
0.0237301
0.0226068
0.0245325
0.0234971
0.0217664
0.0233411
0.0250002
0.0275616
0.0272514
0.0250844
0.0237644
0.0223562
0.0200303
0.0173863
0.0159872
0.0149537
0.0149592
0.0138963
0.016179
0.0145779
0.010129
0.0105809
0.00811677
0.00631766
0.006028
0.00926076
0.0132769
0.02832
0.0177055
0.00949196
0.0106306
0.0171297
0.0358083
0.0214544
0.0347628
0.0147428
0.0162029
0.012628
0.0126059
0.0139005
0.0162024
0.0173169
0.0209957
0.0236874
0.0256871
0.0266104
0.0279303
0.0283239
0.0297407
0.0301897
0.0329063
0.0331623
0.0331866
0.0327153
0.0302933
0.0272357
0.0250208
0.0309698
0.0358848
0.0392182
0.0416495
0.0441375
0.0428643
0.0391404
0.0382589
0.0363318
0.0352053
0.033798
0.0306701
0.0268281
0.0220071
0.0213889
0.0274074
0.0331599
0.0494887
0.0535201
0.0532536
0.0555529
0.056067
0.0578293
0.0582775
0.0609312
0.0615125
0.0626808
0.0630217
0.0682787
0.0691725
0.0701608
0.0704903
0.0701703
0.0711128
0.0711209
0.048342
0.0433237
0.0392281
0.0325497
0.0272274
0.0345661
0.0431085
0.0483755
0.073849
0.0742969
0.0780072
0.080625
0.0855669
0.0892514
0.0941224
0.0985933
0.102972
0.106357
0.108393
0.108686
0.109141
0.108165
0.106866
0.115627
0.150277
0.166895
0.197708
0.212847
0.225425
0.229378
0.220817
0.224697
0.216706
0.219324
0.213183
0.211271
0.206066
0.199735
0.196181
0.189825
0.185727
0.214063
0.161745
0.123924
0.0821367
0.0658532
0.0590395
0.055536
0.0580243
0.0449933
0.038468
0.0574102
0.0529946
0.0425755
0.0287878
0.0188498
0.0321993
0.0478301
0.064719
0.0818868
0.0975671
0.107835
0.110431
0.109373
0.104612
0.0967643
0.0815906
0.0613918
0.0420967
0.0346168
0.0319041
0.0279686
0.0220654
0.0177435
0.0156412
0.0140678
0.0123166
0.0110812
0.0105351
0.0107095
0.0110237
0.01322
0.0173024
0.0172913
0.011594
0.0111254
0.0076557
0.00774533
0.00800516
0.0133036
0.0134536
0.0208606
0.02331
0.0219552
0.022649
0.0223892
0.0226931
0.0223502
0.0211691
0.0203402
0.0193776
0.0185373
0.0177873
0.0169531
0.0161181
0.0174309
0.0163658
0.0137948
0.0139344
0.0145618
0.0152168
0.0161028
0.0173609
0.0184315
0.0211237
0.0212776
0.020773
0.0208614
0.0193863
0.0186652
0.0199138
0.0194311
0.0132415
0.0130595
0.0190602
0.0187099
0.0186096
0.0224305
0.0208623
0.0213827
0.022517
0.0224315
0.0194975
0.0181423
0.0165876
0.0154049
0.0140178
0.0124946
0.0121012
0.0148326
0.0130161
0.0107075
0.0119228
0.0143243
0.0169336
0.0184016
0.0203897
0.0231046
0.0240794
0.0263283
0.0277552
0.029853
0.0306893
0.0354964
0.0361393
0.0339592
0.0321178
0.0311237
0.027352
0.0234459
0.0258568
0.0267295
0.0271067
0.0272453
0.027129
0.0235525
0.0231217
0.0216069
0.0210877
0.01951
0.0189481
0.0177835
0.0170183
0.0159901
0.0141627
0.0134602
0.012643
0.0122878
0.0173305
0.0108431
0.0105752
0.0159818
0.00983799
0.0115753
0.011321
0.0118495
0.0125149
0.0103412
0.0151181
0.0103157
0.0112176
0.0114608
0.0144171
0.0100512
0.0216167
0.0656586
0.0937597
0.112703
0.204288
0.244087
0.264078
0.284617
0.298536
0.314432
0.331787
0.349321
0.362203
0.363507
0.337661
0.319038
0.253993
0.227337
0.250975
0.280947
0.193501
0.165973
0.168176
0.168914
0.1714
0.172562
0.176078
0.173994
0.178902
0.174561
0.18166
0.175644
0.181932
0.174767
0.159701
0.143271
0.111183
0.100611
0.0649068
0.0502834
0.0393322
0.0285898
0.0208546
0.0187252
0.0177318
0.0164017
0.0164863
0.0126316
0.0130887
0.00839297
0.00617944
0.0098534
0.00967676
0.00722989
0.00980518
0.0111968
0.0117032
0.0122355
0.0125294
0.0191503
0.0191783
0.0245537
0.0244888
0.0290597
0.034669
0.0359114
0.0395471
0.0569198
0.057452
0.0571958
0.0570447
0.0566294
0.049402
0.0491207
0.0480162
0.0474317
0.0444833
0.0439271
0.0418381
0.0406951
0.0377391
0.0369128
0.0357882
0.0362734
0.041047
0.0569324
0.100984
0.0298477
0.0285521
0.0209101
0.0145521
0.0214632
0.0158968
0.0154572
0.0136133
0.0186779
0.0134468
0.0136941
0.0165081
0.0170321
0.01644
0.0215128
0.0267981
0.0235142
0.0261073
0.118492
0.0772028
0.0249005
0.0491863
0.0727629
0.159097
0.204544
0.140354
0.160125
0.184105
0.167242
0.140477
0.110126
0.081995
0.0585282
0.0454361
0.0113197
0.0134052
0.0186174
0.0415443
0.0615728
0.101377
0.0834729
0.109024
0.148909
0.173368
0.209281
0.200934
0.172905
0.148807
0.145358
0.160366
0.163279
0.106339
0.103335
0.0780591
0.174212
0.219194
0.184679
0.231809
0.244823
0.145605
0.0321758
0.0183817
0.0151199
0.0139171
0.0124367
0.0193443
0.011474
0.0116491
0.0123701
0.0132697
0.0169678
0.0293482
0.0134615
0.0149286
0.0183358
0.0158727
0.0148716
0.0146368
0.0145352
0.0151436
0.0164877
0.0215341
0.0216504
0.0213244
0.015977
0.0172787
0.015695
0.020018
0.0212117
0.0332457
0.0152573
0.0162025
0.0215068
0.479719
0.0246475
0.0178231
0.0232419
0.0219082
0.0301295
0.0437215
0.460441
0.0443911
0.0351449
0.0585323
0.0607564
0.0654192
0.069096
0.072633
0.0751503
0.0791231
0.0817545
0.0830097
0.0842805
0.0999061
0.0998278
0.0987563
0.103343
0.0974272
0.0575527
0.0577464
0.0971828
0.104869
0.0592855
0.0409172
0.0384089
0.0311056
0.0322133
0.041738
0.0438186
0.0615045
0.0613229
0.102244
0.0932534
0.0946458
0.0964248
0.0914715
0.0919684
0.0939847
0.0940914
0.0753878
0.0730344
0.0712577
0.0682281
0.0646689
0.0617711
0.0588711
0.0558531
0.0533741
0.0537195
0.0588903
0.0584351
0.0665126
0.0745964
0.228355
0.156203
0.111001
0.0816185
0.0658042
0.0591776
0.0585234
0.0616158
0.0648427
0.0664774
0.0672899
0.0706977
0.0923948
0.0946078
0.0974459
0.0949449
0.0987225
0.0967364
0.0942882
0.104155
0.111942
0.0654494
0.0675241
0.0476251
0.0443953
0.0323764
0.0329175
0.0235003
0.0194978
0.0194952
0.019477
0.0196891
0.0225464
0.0314821
0.0315973
0.0461433
0.046087
0.0515449
0.075113
0.0721908
0.128698
0.117979
0.108327
0.101057
0.101417
0.103574
0.10616
0.101178
0.0977228
0.0921988
0.0724282
0.0683799
0.0662511
0.0650357
0.0638411
0.0676193
0.0918929
0.149812
0.229692
0.336655
0.437192
0.447143
0.403963
0.254782
0.29319
0.146586
0.166312
0.188782
0.165944
0.174521
0.321663
0.267376
0.379317
0.483804
0.537747
0.604311
0.642005
0.632351
0.504235
0.328744
0.33618
0.446975
0.772008
0.86552
0.743719
0.760933
0.657755
0.539653
0.521024
0.49618
0.559573
0.609856
0.575579
0.591876
0.536274
0.512423
0.442722
0.49378
0.360695
0.324879
0.305381
0.296566
0.355334
0.287576
0.323967
0.26639
0.272735
0.221704
0.22718
0.189657
0.145216
0.137702
0.127682
0.142988
0.162178
0.148635
0.153299
0.133893
0.114564
0.0911908
0.0983659
0.0735132
0.0696012
0.0708424
0.0810625
0.12774
0.374426
0.17454
0.164023
0.167913
0.177838
0.319398
0.282751
0.722437
0.505917
0.706571
0.47254
0.560503
0.468837
0.361689
0.377266
0.416922
0.596747
0.819544
6.64628
0.284538
4.25877
3.16205
3.32136
3.4675
4.44373
7.79972
7.1077
9.37947
6.80177
9.0789
4.97764
4.97572
4.32565
4.47135
4.43959
4.26379
5.21412
6.66812
0.239244
0.0910451
0.0854285
0.0856047
0.087382
0.197777
0.0525629
0.20193
0.0539413
0.21333
0.0494873
0.246469
0.196762
0.0382253
0.019257
0.020089
0.0168069
0.020375
0.0169229
0.0250479
0.0235425
0.0237013
0.026601
0.0764462
0.29277
13.8769
1.68156
0.703445
0.804059
1.20359
0.819454
1.22055
1.69343
1.14038
0.57026
0.3753
0.442845
0.535571
0.510858
0.649786
0.933772
0.912831
0.717725
0.721314
0.637878
0.898136
0.906268
1.07237
1.25147
1.14412
0.898296
0.708585
0.601809
1.03218
1.03507
0.967605
0.41313
0.117522
0.0474925
0.0499807
0.0360713
0.0379927
0.0349347
0.0562767
0.164566
0.226029
0.136633
0.435505
0.418735
0.56672
0.404253
0.413859
0.3272
0.350805
0.535471
0.584646
0.643913
0.674879
0.725943
0.672432
1.29244
2.21745
2.50855
12.8848
17.4361
3.21041
3.09885
13.948
0.315035
0.0839533
0.0233283
0.0174339
0.0162176
0.01613
0.0150006
0.015538
0.0159989
0.0169627
0.0188264
0.0231906
0.0458143
0.201345
0.203302
0.0643059
0.0324132
0.0229644
0.0196135
0.0170451
0.0163861
0.015531
0.0154587
0.015008
0.0156581
0.0174654
0.0237827
0.0774158
0.27085
11.3145
2.43455
2.25263
8.37658
5.78998
0.206645
0.0437777
0.020092
0.0169259
0.0158833
0.0167528
0.0162649
0.0182098
0.0184006
0.0230128
0.0250159
0.0317514
0.0570357
0.110105
0.315172
9.56395
8.63525
8.35549
7.79674
0.309793
0.115092
0.0543571
0.0382174
0.0346158
0.0338118
0.0226464
0.0236703
0.0189805
0.0216372
0.0182934
0.0226779
0.0482896
0.211801
5.34774
1.56812
1.6992
1.20761
0.611919
0.65485
0.669013
0.68881
1.77829
4.07446
5.00548
3.43646
3.36681
4.71812
3.17666
2.48612
1.83267
1.74932
2.54921
1.96444
1.82573
1.35717
1.46716
1.06711
1.46634
0.810591
0.975763
1.07181
1.53046
1.39644
1.40916
0.907401
1.04926
1.47421
1.72281
1.64695
0.84303
1.22536
1.01274
0.654196
0.606737
0.633514
0.603771
0.578856
0.575347
0.579364
0.558108
0.575044
0.555031
0.586671
0.546076
0.531626
0.506452
0.526312
0.544172
0.576886
0.359775
0.422344
0.426429
0.440896
0.453765
0.374842
0.450754
0.441942
0.658922
0.994616
0.838467
1.16234
0.682167
1.00443
2.0086
5.2075
2.36576
0.823816
1.34832
1.58106
1.13845
0.627724
2.55124
3.55544
1.22893
1.78156
10.3665
8.42023
16.4992
10.9755
18.6568
6.04486
4.63577
17.8208
6.68358
6.92234
4.52191
4.52601
2.96295
1.58717
1.63174
1.7454
1.22849
1.30261
1.21249
1.13372
1.47598
1.44245
1.8904
2.03889
2.58318
1.81379
1.7801
2.60703
1.06419
1.40423
1.84195
1.83432
1.36317
2.35006
3.16619
2.9846
2.15215
2.3425
3.51218
4.82854
4.59671
3.184
3.99054
10.151
13.5509
13.7048
4.23156
19.302
18.3097
2.09446
0.575231
0.330158
0.0913243
0.0448593
0.0366893
0.0387301
0.144443
0.045814
0.0571714
0.045754
0.0741653
0.070356
0.0879466
0.220812
0.127728
0.218966
0.157262
0.193352
0.123469
0.197406
0.231426
0.241787
0.192549
0.118313
0.217471
0.312835
0.108434
0.361336
0.397598
0.265779
0.339264
0.404228
0.200682
1.0043
0.187504
0.129561
0.150098
0.401017
1.27637
0.223166
0.468002
4.50218
14.7251
3.70704
0.949719
0.690982
0.0558414
0.0302775
0.0321915
0.0280334
0.0194288
0.0852056
0.100366
0.409386
0.210598
0.278221
0.661569
2.92386
2.39985
1.13977
5.51523
10.2722
15.1502