/*--------------------------------*- C++ -*----------------------------------*\
| =========                 |                                                 |
| \\      /  F ield         | OpenFOAM: The Open Source CFD Toolbox           |
|  \\    /   O peration     | Version:  v2012                                 |
|   \\  /    A nd           | Website:  www.openfoam.com                      |
|    \\/     M anipulation  |                                                 |
\*---------------------------------------------------------------------------*/
FoamFile
{
    version     2.0;
    format      ascii;
    class       volScalarField;
    location    "1115";
    object      k;
}
// * * * * * * * * * * * * * * * * * * * * * * * * * * * * * * * * * * * * * //

dimensions      [0 2 -2 0 0 0 0];


internalField   nonuniform List<scalar> 
18258
(
0.0333957
0.015749
0.0122888
0.0101365
0.0109773
0.0139689
0.0167639
0.0211275
0.0255453
0.0314873
0.0385614
0.0474996
0.0535078
0.0606682
0.0636429
0.061917
0.0520687
0.0473274
0.0565373
0.0810169
0.0710446
0.0513777
0.0622885
0.0614701
0.0722459
0.0763392
0.0601086
0.0548753
0.0494493
0.0437613
0.0372154
0.0231299
0.0240765
0.0288178
0.0320375
0.0357444
0.0385999
0.0409288
0.0425806
0.0433964
0.0433026
0.0420042
0.039311
0.0352671
0.0298054
0.0238227
0.0234302
0.0238111
0.0295246
0.0351363
0.0405956
0.0461964
0.0546161
0.0446936
0.0290544
0.0392083
0.0476844
0.0545766
0.0590057
0.0614561
0.0622207
0.061308
0.059018
0.0557579
0.0517962
0.0474575
0.0434414
0.0394585
0.0342178
0.0309599
0.0268529
0.0235123
0.0210758
0.0193665
0.0182502
0.0172444
0.0163766
0.0156416
0.0150247
0.0145995
0.0145088
0.0145365
0.0146386
0.0147364
0.0150828
0.0127339
0.0109596
0.0104923
0.0102344
0.0095784
0.00811385
0.0106633
0.0117635
0.0121781
0.0124461
0.0136269
0.0147904
0.0143667
0.0136418
0.0125317
0.0125082
0.0169906
0.0177889
0.0228259
0.0216274
0.0167886
0.0149035
0.0166856
0.0195264
0.0225559
0.0192583
0.0192421
0.0179483
0.0170364
0.0148996
0.0149479
0.0144415
0.0141344
0.0150614
0.0178088
0.0172151
0.0173196
0.0185433
0.0188691
0.0200981
0.0211165
0.0204652
0.0202819
0.0164379
0.0163379
0.017379
0.0172524
0.017733
0.0202168
0.0202746
0.020624
0.0208422
0.0236234
0.0236418
0.0236048
0.0236958
0.0245228
0.0235682
0.0231587
0.0231894
0.0232254
0.0210638
0.0208392
0.0204718
0.0205091
0.018353
0.0176169
0.0183465
0.019326
0.0213024
0.0250595
0.0314989
0.0404258
0.0505264
0.060772
0.0685442
0.0729008
0.0772645
0.076721
0.0774163
0.0795091
0.0798748
0.0787287
0.0768723
0.0747037
0.0717474
0.0671086
0.0666242
0.0589696
0.0480848
0.033404
0.0388981
0.0417332
0.0444873
0.0448
0.0452895
0.0440886
0.0423401
0.038764
0.0336585
0.0247533
0.0257783
0.0302177
0.0348748
0.0386579
0.0428174
0.0464403
0.0482807
0.0499772
0.0593012
0.0570674
0.0551772
0.0568868
0.0584347
0.0616285
0.0600354
0.0561078
0.0501715
0.0518363
0.0449575
0.0336255
0.0314195
0.0293093
0.0270204
0.0378683
0.0496672
0.0612139
0.0675361
0.073679
0.0785015
0.0825239
0.0870405
0.081606
0.0764695
0.0577656
0.0838413
0.0657874
0.0505602
0.0412619
0.0333398
0.0314147
0.0342316
0.0343149
0.0325237
0.0279539
0.0220353
0.0230122
0.0357753
0.0455437
0.0535455
0.0551462
0.0598361
0.0622237
0.0569558
0.0575296
0.0466834
0.0478512
0.051401
0.0460203
0.0437598
0.0351513
0.0274555
0.0336117
0.0500041
0.0685795
0.0844613
0.0994933
0.0660111
0.0502113
0.0411412
0.0343138
0.0331306
0.0377536
0.0436909
0.052838
0.041231
0.0371703
0.0336599
0.0307888
0.02577
0.0274943
0.0286933
0.0269234
0.0497258
0.057393
0.0610895
0.0835449
0.092443
0.108408
0.107115
0.0926557
0.0963199
0.0690778
0.0688065
0.0861581
0.0682297
0.0513619
0.0616344
0.0745727
0.088441
0.101651
0.112996
0.122095
0.123763
0.112236
0.0813628
0.0468474
0.0213095
0.018643
0.0180815
0.0173747
0.0164904
0.0157088
0.0150996
0.0121635
0.00952035
0.00928385
0.00946019
0.00940411
0.00827132
0.0095164
0.0115767
0.0137713
0.0152811
0.0164915
0.0175127
0.0182481
0.0188374
0.0192364
0.0195334
0.0198015
0.0200376
0.0202244
0.0203635
0.0204556
0.0204996
0.0204871
0.0204116
0.0202714
0.0200649
0.0197761
0.0193015
0.01777
0.0159139
0.0150825
0.0151411
0.0148907
0.0145873
0.0119515
0.0123275
0.0143463
0.0149803
0.0177748
0.0198126
0.0215175
0.022973
0.0245014
0.0252789
0.0261084
0.0263749
0.0264284
0.0263292
0.0261803
0.0259572
0.0256561
0.0245908
0.0213055
0.0249097
0.027305
0.0289903
0.0303394
0.0312392
0.0313394
0.0285944
0.0360659
0.0385304
0.0394358
0.0397029
0.038887
0.0368834
0.0344444
0.0323973
0.0308924
0.029777
0.0276368
0.0253907
0.0230816
0.0206651
0.0174404
0.0187086
0.0205458
0.0207563
0.0204661
0.0215115
0.0227717
0.0211188
0.0190317
0.0161362
0.0151364
0.0146403
0.0144463
0.0148453
0.014507
0.0144123
0.0149149
0.0179364
0.0190322
0.0207352
0.0239903
0.0228553
0.0209086
0.0280806
0.0296975
0.0301454
0.0304914
0.0304008
0.0296463
0.0265623
0.0251051
0.0264918
0.0250339
0.0244032
0.0244922
0.0241244
0.0222612
0.0245627
0.0265639
0.028154
0.0290012
0.0302391
0.0317919
0.0339502
0.0357415
0.0373991
0.038402
0.0383791
0.0378431
0.0380256
0.0386772
0.0383777
0.0366903
0.0346243
0.0325423
0.02959
0.029397
0.0313633
0.0329168
0.0345687
0.0363367
0.0356491
0.0337695
0.0321515
0.0307393
0.0290357
0.0289113
0.0305815
0.0320182
0.0337496
0.0358623
0.0360398
0.0339031
0.0320905
0.0305921
0.028895
0.0288595
0.0305549
0.0320623
0.0337815
0.0356652
0.0347952
0.0333275
0.0318086
0.030345
0.028685
0.028245
0.0298456
0.031225
0.0325363
0.0335996
0.0319269
0.0313383
0.0302698
0.0288823
0.027126
0.0258692
0.0263782
0.0277655
0.0278763
0.0283545
0.0294719
0.0293176
0.0290349
0.0289899
0.0287085
0.0264624
0.0268698
0.0269186
0.0276106
0.030911
0.0304339
0.0331112
0.0355288
0.033219
0.031726
0.0281502
0.0337159
0.0337619
0.0347272
0.0335552
0.023771
0.0219139
0.0229141
0.0244503
0.0260943
0.0254092
0.0226504
0.0225882
0.0231954
0.0226133
0.0210568
0.0180701
0.0135752
0.0135845
0.0135775
0.0143134
0.0171214
0.0187173
0.0188263
0.0186689
0.0183644
0.0178911
0.0171738
0.0161027
0.0156302
0.0245598
0.0443357
0.0563341
0.0557749
0.0424264
0.0354719
0.026094
0.0178503
0.0104369
0.0107161
0.0113551
0.0137247
0.0115778
0.0104633
0.0143894
0.0117538
0.0196481
0.0228506
0.0302759
0.041274
0.03976
0.0301036
0.0204133
0.018472
0.0193403
0.0198535
0.0202436
0.0206276
0.0210156
0.0214374
0.0219505
0.0216289
0.0189889
0.0167441
0.0168727
0.0174446
0.0199505
0.0213278
0.0221182
0.0217828
0.0220281
0.0237566
0.0225059
0.0212803
0.0210755
0.0203725
0.0232205
0.0235658
0.0229328
0.0229408
0.0232166
0.0230958
0.0232285
0.0240377
0.0198352
0.0219432
0.0224915
0.0227746
0.02357
0.0190621
0.0192495
0.0193107
0.0181501
0.0149285
0.0180471
0.016802
0.0121737
0.0134898
0.0134483
0.0140577
0.0143832
0.0171198
0.0162772
0.0155599
0.0163278
0.0223145
0.0231255
0.0233065
0.0206658
0.019422
0.0219151
0.0225025
0.0220394
0.0211534
0.0213226
0.0203781
0.0184698
0.0177495
0.0178868
0.0193027
0.0201017
0.020168
0.0237912
0.0232885
0.0217208
0.022722
0.023317
0.022908
0.0227993
0.0227474
0.0223783
0.0219541
0.0223658
0.0225529
0.0226046
0.0221609
0.0224141
0.0250594
0.0214855
0.0212942
0.0202064
0.0195458
0.0179122
0.0176571
0.0177552
0.0177148
0.0176197
0.0167804
0.0186435
0.0179172
0.020053
0.0216702
0.0228255
0.0240024
0.0241545
0.0237247
0.023686
0.0233005
0.0232673
0.0227141
0.0218635
0.0212762
0.020495
0.0192825
0.0192747
0.0192249
0.0190804
0.0204895
0.0203879
0.0219584
0.0230842
0.0227986
0.0218281
0.0217199
0.020538
0.0205154
0.0215616
0.022456
0.0227063
0.0235737
0.0261191
0.0237602
0.0253156
0.0260109
0.0266755
0.0260618
0.0249618
0.0257125
0.0240478
0.0229332
0.0242545
0.0249785
0.0262409
0.0270358
0.0250575
0.0240287
0.0228302
0.0219658
0.0209769
0.0184493
0.0190652
0.0198579
0.0210915
0.0229079
0.0256341
0.0283754
0.0312987
0.0313568
0.0290557
0.027354
0.0321601
0.0316318
0.0366098
0.0372139
0.0330859
0.0302758
0.0273597
0.026937
0.0260171
0.0254815
0.0241992
0.0254508
0.0258798
0.0249314
0.0274066
0.0289832
0.0333172
0.038895
0.0355649
0.0327201
0.0377604
0.0366643
0.0426472
0.0364267
0.0347575
0.0286252
0.0332193
0.0355635
0.0433313
0.0339235
0.0297368
0.029501
0.0308144
0.0383075
0.0368586
0.0394715
0.0446202
0.0439558
0.0390602
0.0358296
0.0416143
0.0316508
0.0370683
0.0390808
0.0324415
0.0322203
0.039111
0.0397271
0.0398769
0.0337755
0.0330668
0.0250536
0.0336223
0.0401124
0.0400157
0.0332224
0.0259961
0.0359255
0.0315703
0.0313743
0.0313709
0.0269777
0.026912
0.0262006
0.0264583
0.0271763
0.0247295
0.0255411
0.0258065
0.0259751
0.0261126
0.0263121
0.026665
0.0273202
0.0280697
0.0229391
0.0244059
0.0230264
0.0216546
0.0202695
0.0240556
0.026531
0.0283345
0.0297861
0.030921
0.0314095
0.0300142
0.0379713
0.0396838
0.0413319
0.0414991
0.0402758
0.0376394
0.0342163
0.0307385
0.0284705
0.0271305
0.0245926
0.0224664
0.0204003
0.0182506
0.0154612
0.0141619
0.0128527
0.011533
0.0112137
0.0106858
0.010091
0.00940002
0.00901529
0.0114565
0.0191619
0.0279678
0.0329169
0.0381593
0.0446684
0.0514027
0.0569599
0.0610451
0.0638624
0.0655601
0.0659585
0.0632286
0.0523935
0.0474345
0.0426224
0.0377501
0.0328289
0.0321312
0.041208
0.0494898
0.0565172
0.062871
0.0670266
0.0654209
0.0499616
0.0468254
0.0623276
0.089741
0.0804316
0.103331
0.119907
0.0795448
0.0649088
0.0642106
0.079512
0.0819804
0.0753017
0.066288
0.0564002
0.0454819
0.0504419
0.0551529
0.0596252
0.0641015
0.0774259
0.080076
0.0789692
0.0766485
0.0734783
0.0688873
0.0619136
0.0530323
0.0441334
0.0366798
0.0298794
0.0201617
0.0124645
0.0136684
0.0129506
0.0156204
0.0147588
0.00978827
0.0101011
0.010317
0.0102673
0.0100664
0.0101102
0.0115077
0.0182962
0.014942
0.0135422
0.0116505
0.0144675
0.0163979
0.0183846
0.0189884
0.0191034
0.0195048
0.0314727
0.0433727
0.0495084
0.054388
0.0581615
0.0567458
0.053083
0.0468024
0.0396062
0.0369656
0.0330829
0.0297788
0.0281424
0.0291111
0.0256184
0.0160228
0.0146183
0.0156792
0.0153892
0.014406
0.0163505
0.0175711
0.0183474
0.0189752
0.0194451
0.0198071
0.0200662
0.0202391
0.0203311
0.0203604
0.0203415
0.0202791
0.0201719
0.0200169
0.0198031
0.0195002
0.0189814
0.0172622
0.0154145
0.0146972
0.0147814
0.01455
0.0141858
0.0123054
0.0125283
0.0143891
0.0149916
0.0146033
0.0151949
0.0156678
0.0168851
0.0190711
0.0212142
0.0230517
0.0217362
0.0210766
0.0210378
0.020633
0.017414
0.0207128
0.023649
0.0241723
0.0244565
0.0252808
0.0268881
0.0278322
0.0268885
0.0263705
0.0258306
0.0226805
0.0242985
0.0278962
0.028319
0.0290128
0.0296218
0.0302097
0.0314848
0.0308436
0.0299309
0.0293228
0.0264317
0.0255514
0.0316946
0.0206275
0.0142894
0.0101889
0.0107506
0.0109102
0.0105388
0.011292
0.0118245
0.0120779
0.0115081
0.0125815
0.0134925
0.012813
0.0153522
0.0146354
0.0136005
0.0131191
0.014012
0.0148578
0.0152748
0.0162369
0.0262972
0.0270426
0.0226715
0.0291204
0.031718
0.0290182
0.0318536
0.0294861
0.0281047
0.0308703
0.0343147
0.035654
0.0333064
0.031866
0.0312983
0.0208258
0.020136
0.0194265
0.0175759
0.0178346
0.0173732
0.016928
0.0165297
0.0191117
0.0205024
0.021744
0.0214406
0.0211322
0.0207055
0.0207475
0.0246604
0.0327025
0.0432251
0.0469272
0.0456989
0.0417364
0.0347439
0.0283836
0.0280281
0.0262277
0.0250679
0.0248659
0.0189855
0.0148767
0.0173596
0.0173374
0.0184076
0.0190854
0.0196201
0.0200491
0.0204099
0.0207247
0.0210321
0.0213198
0.0215726
0.0217859
0.0219689
0.0221203
0.0222811
0.0224734
0.0227363
0.0229455
0.02128
0.0186303
0.017276
0.0171281
0.0178471
0.0187515
0.0198757
0.0191091
0.0153865
0.0154757
0.0218846
0.0223607
0.0209965
0.0195715
0.0197775
0.0189333
0.0227831
0.0225937
0.0234245
0.023222
0.0229388
0.0226512
0.0223621
0.02206
0.0217535
0.0214849
0.0212405
0.0210141
0.0207934
0.0205606
0.0202738
0.0198511
0.0191498
0.0183346
0.0168517
0.0179983
0.0192039
0.0209458
0.0228357
0.0237162
0.0228141
0.021591
0.0210923
0.0213531
0.0216813
0.0220292
0.0223986
0.022827
0.023248
0.0236393
0.0235701
0.0222074
0.0228592
0.0174792
0.018331
0.0186325
0.0185899
0.0202514
0.0193833
0.0146503
0.015162
0.015891
0.0171926
0.0198035
0.0201726
0.0215433
0.0217761
0.0173334
0.0170272
0.0165974
0.0175982
0.0152142
0.0158684
0.0266785
0.0272544
0.0349933
0.0383922
0.0399547
0.0331291
0.0455748
0.0524488
0.0505987
0.0408851
0.0235171
0.0346618
0.0421716
0.0488477
0.0458096
0.0356627
0.0449566
0.0473731
0.0632454
0.0589358
0.0525852
0.0632766
0.0447418
0.026943
0.0158147
0.0163858
0.015188
0.0306596
0.0347628
0.0314779
0.0323405
0.0399483
0.0409591
0.036246
0.034524
0.0362763
0.0358231
0.0397918
0.0371159
0.0336972
0.0233073
0.0190254
0.0198732
0.0212926
0.0231314
0.025479
0.0253731
0.0242221
0.0228486
0.0218645
0.0208029
0.0182993
0.0176365
0.0195992
0.0212314
0.0226123
0.0241276
0.0249533
0.0257978
0.0259615
0.0258504
0.0255229
0.0250888
0.024528
0.0238386
0.0224263
0.0236609
0.0243408
0.0245557
0.0248408
0.0251604
0.0254438
0.025592
0.0254812
0.0245201
0.0236998
0.0225264
0.0214078
0.0197989
0.0176783
0.0183645
0.0201284
0.021733
0.0228491
0.0239026
0.0235155
0.0240146
0.0246805
0.024698
0.024508
0.0242781
0.024122
0.0242123
0.0248465
0.0265775
0.0263537
0.0292368
0.0304022
0.0278197
0.0264821
0.0257834
0.0253514
0.0251005
0.0248889
0.0246847
0.0241333
0.023593
0.0241
0.0243578
0.0246577
0.0250156
0.0255197
0.0262046
0.0272909
0.0286971
0.0285974
0.0263423
0.0261595
0.025087
0.0242962
0.0239167
0.023868
0.0239161
0.0240248
0.023969
0.0234449
0.0231119
0.0235171
0.0225004
0.0225628
0.0215885
0.0202244
0.0187798
0.0173266
0.0166635
0.0353021
0.0352881
0.0457466
0.0424561
0.0371432
0.047187
0.0601535
0.0521537
0.0628058
0.0666022
0.0541458
0.0502422
0.0279244
0.0244445
0.0173999
0.0189278
0.0202771
0.021487
0.0213028
0.0222284
0.02211
0.0230856
0.0225419
0.0217623
0.0211986
0.0201786
0.0202342
0.0189588
0.0174106
0.0172771
0.0189295
0.0199954
0.0211806
0.0211786
0.022645
0.0231412
0.0235386
0.0236874
0.0236771
0.0237698
0.0239417
0.0243975
0.0251178
0.025595
0.0257422
0.0261306
0.0258582
0.0255555
0.0251235
0.0248319
0.0245262
0.0242533
0.02396
0.0236797
0.0232432
0.0225826
0.0224617
0.0229782
0.0233195
0.0235504
0.0236776
0.0236454
0.0234322
0.0230922
0.0227452
0.022372
0.0224304
0.0238046
0.0240769
0.0242138
0.0239932
0.0238063
0.0237763
0.0236406
0.0235349
0.023305
0.0229372
0.0224709
0.0214007
0.0214975
0.0223792
0.0228197
0.0231477
0.0234265
0.0234628
0.0233989
0.0230323
0.0227431
0.0223841
0.0217961
0.0210047
0.0184662
0.0189559
0.0196038
0.0204843
0.0213675
0.0221203
0.0226043
0.0228137
0.0228235
0.0226559
0.0223036
0.0215521
0.0215297
0.0220687
0.0222305
0.0221663
0.0218394
0.0211863
0.0202282
0.0189903
0.0177475
0.0167713
0.01631
0.0155534
0.0181421
0.0192343
0.0202236
0.0211175
0.021942
0.0227959
0.0231017
0.0231402
0.022983
0.0227177
0.022307
0.0215361
0.0215383
0.0222413
0.022629
0.0228436
0.0229294
0.022679
0.0220259
0.0204785
0.0190397
0.0178301
0.0167057
0.0155398
0.0153501
0.0158566
0.0153876
0.0157735
0.0168818
0.0183661
0.0197453
0.0207681
0.0213939
0.0217018
0.0217452
0.021422
0.0212349
0.021351
0.0211355
0.0206212
0.019737
0.0184421
0.0169774
0.0157783
0.0154414
0.0160961
0.0167281
0.0161235
0.0138519
0.0149928
0.0161242
0.0172807
0.0189853
0.0210593
0.0220299
0.0225078
0.0226477
0.0225235
0.0221599
0.021508
0.0214476
0.022072
0.0224293
0.0225327
0.0224301
0.0220217
0.0212266
0.0187108
0.0159147
0.0146393
0.0138984
0.0129634
0.0162741
0.0169748
0.0161695
0.0156355
0.0164926
0.0175096
0.018633
0.0195038
0.0201451
0.0206575
0.0209473
0.020989
0.0207108
0.0205819
0.0203513
0.0200072
0.0196896
0.0193812
0.0186329
0.0178066
0.016806
0.0178618
0.0184227
0.0176668
0.0144629
0.0150293
0.0159183
0.0164748
0.0191869
0.0216434
0.02226
0.0224183
0.0225053
0.0223669
0.021971
0.0213552
0.0212278
0.0218677
0.022356
0.0226672
0.0229807
0.0232573
0.0234683
0.0215947
0.0182362
0.0174111
0.015594
0.0147498
0.0182272
0.0189072
0.0184293
0.0178769
0.0195923
0.020298
0.0205256
0.0204875
0.020385
0.0202792
0.0203012
0.0204264
0.0201244
0.0199901
0.0200923
0.0203221
0.0203028
0.0201052
0.0195491
0.0187778
0.0176397
0.0194953
0.0211723
0.0208938
0.0169852
0.0175246
0.0184478
0.0180851
0.0208634
0.0226974
0.0231527
0.023053
0.0227148
0.0222284
0.0216802
0.021037
0.0207545
0.021325
0.0218933
0.0219257
0.0220206
0.021973
0.0214163
0.0212527
0.020681
0.0204109
0.0196496
0.0190691
0.0183223
0.0204728
0.0236597
0.0258582
0.0274382
0.0293244
0.0278791
0.0243526
0.0220918
0.0152402
0.0152488
0.0154742
0.014851
0.0144794
0.0142969
0.0186782
0.0213736
0.0239978
0.0256674
0.0232569
0.0232186
0.0231355
0.0230234
0.0229141
0.0228051
0.022591
0.023189
0.0403174
0.28229
0.208262
0.234324
0.22335
0.314463
0.0778922
0.0384524
0.0426095
0.049272
0.0564274
0.0546889
0.0511383
0.0447311
0.0405615
0.0401809
0.039757
0.0395772
0.0384273
0.038468
0.0377627
0.0454585
0.0960026
0.124138
0.137704
0.146162
0.155116
0.150543
0.159513
0.151363
0.151829
0.15339
0.158134
0.150743
0.143401
0.139585
0.135275
0.117925
0.118269
0.099786
0.103586
0.0864108
0.0908756
0.0947453
0.0940712
0.0928504
0.0926202
0.0928901
0.0937064
0.0973772
0.092668
0.0981892
0.090525
0.0721085
0.0696472
0.0714254
0.0657506
0.0575774
0.0650213
0.0796828
0.0951177
0.111922
0.0960481
0.120115
0.114174
0.115348
0.109527
0.103072
0.0992655
0.0985087
0.0991232
0.100263
0.102927
0.10489
0.106521
0.109484
0.118102
0.120523
0.119177
0.101677
0.0863394
0.0948182
0.0996512
0.103301
0.103558
0.0987691
0.0966663
0.090504
0.0889421
0.0834059
0.0807912
0.0753325
0.0720031
0.0671959
0.0837756
0.0819238
0.0889319
0.0952363
0.0994851
0.103161
0.10477
0.10607
0.104896
0.10252
0.0975025
0.0953672
0.0905329
0.109046
0.127485
0.130174
0.125453
0.111898
0.106214
0.339191
0.411536
0.41288
0.612992
0.65489
0.846937
0.336018
0.179636
0.192025
0.188672
0.180445
0.177219
0.176976
0.188669
0.197674
0.188556
0.199781
0.176854
0.174923
0.165525
0.190703
0.188171
0.169276
0.148187
0.115457
0.0944583
0.0932024
0.0781413
0.07921
0.0701346
0.0715638
0.0736784
0.0915222
0.171257
0.209713
0.236447
0.262916
0.323417
0.293067
0.442631
0.354276
0.439641
0.303499
0.328346
0.313998
0.305145
0.303095
0.319059
0.341716
0.300406
0.37362
0.299267
0.64817
0.784642
0.496273
0.458702
0.406567
0.392319
0.382334
0.376691
0.368524
0.486274
0.450588
0.553682
0.513582
0.644889
0.562391
0.565743
0.532315
0.568603
0.58723
0.601245
0.478693
0.519066
0.403791
0.437102
0.368154
0.404671
0.290959
0.291724
0.334757
0.371828
0.397855
0.45497
0.715003
0.606886
0.818452
0.58587
0.70792
0.491678
0.539097
0.514796
0.497121
0.498797
0.526894
0.630923
0.610004
0.696913
0.514711
0.526977
0.51671
0.534044
0.523488
0.558438
0.563135
0.564324
0.562316
0.52342
0.534039
0.532201
0.531975
0.531993
0.532339
0.509582
0.512764
0.505226
0.511007
0.526913
0.514595
0.51451
0.51237
0.504795
0.50274
0.502255
0.504014
0.503783
0.508916
0.508786
0.509127
0.512189
0.526913
0.514416
1.82391
0.900505
0.429455
0.339668
0.219892
0.13487
0.0557459
0.0602358
0.0632128
0.0641899
0.0621808
0.0568047
0.0486017
0.0385442
0.0307182
0.0298617
0.0266233
0.0267617
0.0345564
0.0422146
0.0386096
0.0464045
0.0540965
0.0624227
0.0704466
0.0774511
0.0833715
0.0862899
0.0832404
0.0704891
0.052798
0.0353274
0.0250066
0.0225917
0.0209428
0.0189507
0.0168423
0.0151695
0.0141754
0.0130186
0.0123973
0.0123173
0.0125491
0.0127944
0.0132417
0.0147555
0.0160553
0.0172406
0.0182053
0.0184503
0.017923
0.0184659
0.0190595
0.0194549
0.0198002
0.0196132
0.0196032
0.0198542
0.0198159
0.0200295
0.019935
0.0199593
0.019824
0.019674
0.0194513
0.0190283
0.0187498
0.0181856
0.0178305
0.0169603
0.0169959
0.0173908
0.0177166
0.0167091
0.0166474
0.0159035
0.0272548
0.0484401
0.0612172
0.0662124
0.0714888
0.0674539
0.0572069
0.0393246
0.0192721
0.0187958
0.0192746
0.0218063
0.0213137
0.0173599
0.0181491
0.0188478
0.0176634
0.0176396
0.0176728
0.0197611
0.0203737
0.0217147
0.022209
0.0225514
0.0227644
0.0226682
0.0227486
0.0224296
0.0224171
0.0220109
0.021987
0.0216658
0.0214353
0.0217334
0.0224546
0.0225509
0.0232403
0.0229615
0.0227024
0.022148
0.0217679
0.020916
0.0200097
0.018973
0.0173981
0.0169291
0.0174346
0.0178975
0.0174235
0.0188037
0.0199738
0.0196617
0.0244006
0.0226696
0.0202265
0.0226883
0.0184216
0.0185838
0.018163
0.0171118
0.0176623
0.0172021
0.0171435
0.0174704
0.0177805
0.0189623
0.0199476
0.0205743
0.0214379
0.0220649
0.0227702
0.0239587
0.0242329
0.0231939
0.022985
0.0217703
0.0210805
0.0207514
0.0216871
0.0230036
0.0229463
0.0238907
0.0236691
0.0224316
0.0216264
0.0207832
0.019802
0.0191458
0.018347
0.0175829
0.0171533
0.0163114
0.0163816
0.0152809
0.0168368
0.0173415
0.0195213
0.0174084
0.0169471
0.0225635
0.0285609
0.0444769
0.0324953
0.0214456
0.0231459
0.0314243
0.0392078
0.0277878
0.0272726
0.0153935
0.0180434
0.0152918
0.0156024
0.0166776
0.0169681
0.0181869
0.0192553
0.0194971
0.0202453
0.0205939
0.0213551
0.0216138
0.0223464
0.0225417
0.0238156
0.0238803
0.0239185
0.0238916
0.023043
0.0229657
0.0229403
0.0234187
0.0232136
0.0239622
0.0239974
0.0241086
0.0240476
0.0227026
0.0223766
0.0216053
0.0210864
0.0201835
0.0196271
0.0189104
0.0185256
0.0178664
0.0181816
0.0189029
0.0190903
0.0200526
0.0200715
0.0208116
0.0210222
0.0214915
0.0216278
0.0222934
0.0224346
0.0227038
0.0227611
0.023977
0.0240921
0.0241223
0.024088
0.0240903
0.0243055
0.0242971
0.0242408
0.0242138
0.0240737
0.0238964
0.0237045
0.0247827
0.0254837
0.0250695
0.0248347
0.0250955
0.0259474
0.0265008
0.0275892
0.0284426
0.0295093
0.0303943
0.0312082
0.0318719
0.0323397
0.0324484
0.0324758
0.032016
0.0316382
0.0333255
0.039833
0.043065
0.0483489
0.050733
0.0527021
0.0534062
0.0522817
0.0530169
0.0517629
0.0520339
0.0508648
0.0504518
0.0496523
0.0486656
0.0479587
0.0465054
0.0457777
0.0504119
0.057018
0.0570689
0.0498314
0.0468112
0.0426428
0.0372818
0.0390281
0.0455642
0.041004
0.0384624
0.0357173
0.0307673
0.0236633
0.0178994
0.0257257
0.03349
0.0407335
0.0475013
0.0534762
0.057354
0.0594877
0.0610314
0.0627186
0.0606745
0.05321
0.0415406
0.0316345
0.02771
0.026143
0.0237197
0.0203079
0.0184393
0.0173759
0.0162328
0.0148984
0.0140537
0.0138173
0.0140793
0.0141995
0.0155468
0.0168117
0.0168029
0.0179863
0.0177783
0.0182917
0.0188863
0.0192946
0.0199408
0.0199165
0.0189536
0.0193098
0.019574
0.0202573
0.0201629
0.0203426
0.0201397
0.0194297
0.0189228
0.0183278
0.0178125
0.017348
0.0167658
0.0160241
0.0160154
0.0161966
0.0157455
0.0161761
0.01663
0.0170465
0.0176737
0.0185842
0.0193373
0.0211643
0.0212842
0.0210247
0.0211053
0.0196678
0.0195964
0.0186207
0.0183786
0.0199746
0.0198078
0.0181373
0.0195268
0.0195428
0.0213354
0.0213516
0.020678
0.0208816
0.0207908
0.0189693
0.0180823
0.0170088
0.0162273
0.0156279
0.0152149
0.0147301
0.0153522
0.0141112
0.01356
0.0140402
0.0140179
0.0140884
0.0144844
0.0149181
0.0156643
0.0163727
0.0174261
0.0180687
0.0189683
0.0193002
0.0212054
0.0211029
0.0209511
0.0209822
0.0211188
0.0215607
0.020782
0.0207434
0.0208882
0.0209045
0.0209509
0.0209404
0.0191055
0.0189033
0.0180689
0.0177497
0.0168121
0.0164511
0.015792
0.015473
0.0150757
0.0148759
0.023252
0.0254488
0.0256047
0.0397593
0.0199871
0.0199424
0.0343621
0.0173226
0.0230442
0.0235886
0.0246728
0.0259091
0.0225303
0.0307446
0.0212032
0.0233416
0.0240639
0.0252227
0.0129464
0.020379
0.0380365
0.0428348
0.0441274
0.0490264
0.0556141
0.058768
0.0617821
0.0637748
0.0660272
0.0684491
0.0708328
0.0725482
0.072679
0.0689655
0.0658876
0.0563652
0.0525401
0.0562595
0.0606562
0.0471656
0.0423844
0.0429128
0.0433545
0.0438664
0.0440528
0.0447118
0.0445008
0.0454617
0.0447236
0.0457923
0.0446374
0.0456235
0.0444303
0.0417475
0.0385501
0.0324268
0.030482
0.0293845
0.0266907
0.0241939
0.0219786
0.0201748
0.0197498
0.018197
0.0168097
0.0165118
0.0152222
0.0155043
0.0167504
0.0199105
0.0168193
0.0176323
0.0260266
0.0191156
0.0180011
0.0185404
0.0190559
0.0192977
0.0181859
0.0198045
0.0220634
0.0220846
0.0221581
0.0221787
0.0213779
0.0212125
0.0209602
0.0210244
0.0210564
0.0211914
0.0211646
0.0193399
0.0192837
0.0190113
0.0188741
0.0180824
0.0179144
0.0173267
0.0169938
0.0161471
0.0158518
0.0154037
0.0154743
0.0168584
0.0209803
0.0307329
0.0175897
0.0183612
0.0158456
0.013982
0.0266796
0.0247212
0.0286236
0.0267607
0.0393644
0.0264026
0.0231559
0.0241532
0.0296784
0.0296419
0.0326426
0.0423962
0.0330306
0.0283547
0.0747456
0.0551289
0.0337362
0.0471152
0.0590897
0.110143
0.128001
0.0561992
0.056661
0.0622953
0.063252
0.0631752
0.0537237
0.0494613
0.0418342
0.0324392
0.0128491
0.0249419
0.0323021
0.0434117
0.0580543
0.0921629
0.0529737
0.0597783
0.065707
0.0647707
0.0678369
0.0660361
0.0646932
0.0656535
0.102609
0.111508
0.108472
0.0875341
0.0821492
0.0745729
0.124338
0.13904
0.120029
0.130056
0.136229
0.0831756
0.0305798
0.024921
0.0238105
0.0263908
0.0253364
0.0459031
0.0206188
0.0218203
0.0226608
0.0271302
0.0302116
0.0527658
0.0233065
0.0254723
0.0324036
0.034864
0.0457627
0.027488
0.0280805
0.0343587
0.0361264
0.0394753
0.0336693
0.031782
0.0286947
0.0259047
0.0244131
0.025461
0.0318336
0.0462208
0.0278751
0.0283056
0.0300611
0.134262
0.0307335
0.0266363
0.0277278
0.0267256
0.0336473
0.0350259
0.111849
0.0356219
0.0167243
0.0154504
0.0159136
0.0167266
0.0173666
0.0179906
0.0184353
0.0190811
0.0194694
0.0196274
0.019804
0.022171
0.0220566
0.021588
0.0210437
0.0218244
0.0211304
0.0211716
0.0217823
0.0212445
0.0213982
0.022438
0.0236037
0.0231003
0.0236506
0.0250091
0.023862
0.022183
0.0219749
0.0220901
0.0227996
0.023936
0.0227549
0.023415
0.0226047
0.0235161
0.0236567
0.0203712
0.0199926
0.0197852
0.0192869
0.0186085
0.0179845
0.0173138
0.0166779
0.0162086
0.0161939
0.0167895
0.0152136
0.0156855
0.018262
0.0404205
0.0334481
0.0272737
0.0226712
0.0197855
0.0185021
0.0183198
0.0187403
0.0193914
0.0199481
0.0201587
0.0207559
0.0246284
0.0245209
0.0257188
0.0245956
0.0259218
0.0248574
0.023538
0.0226687
0.0238701
0.0231836
0.0236732
0.0252675
0.0260887
0.0237221
0.0239784
0.021407
0.0200129
0.0184185
0.0187583
0.0201872
0.0208448
0.0232514
0.0233413
0.0267501
0.0267507
0.0266317
0.0254187
0.0247503
0.0261875
0.0247104
0.0258555
0.0247549
0.0261521
0.0273427
0.0276862
0.0269854
0.026196
0.0253278
0.0210515
0.0202506
0.0199464
0.0194634
0.0192244
0.0202216
0.0246666
0.0341643
0.0465397
0.0587644
0.0680604
0.0673755
0.0605711
0.0414056
0.0421567
0.0392825
0.0425745
0.0609742
0.0881276
0.0619979
0.115268
0.0892554
0.0529318
0.0630989
0.0751171
0.0842889
0.0902878
0.091542
0.0782097
0.0577184
0.0506448
0.0530574
0.085063
0.0837472
0.082437
0.0779157
0.0824081
0.0802557
0.0775545
0.0759591
0.0741474
0.069854
0.0698385
0.06709
0.0670451
0.05997
0.0611422
0.0613479
0.0587746
0.0560409
0.053764
0.0515816
0.0492664
0.0453991
0.0441342
0.0416858
0.0399705
0.0366392
0.0361039
0.0356219
0.0334607
0.031922
0.0306793
0.0294299
0.0277473
0.0279191
0.026374
0.0262239
0.0213889
0.0210017
0.0199714
0.0196459
0.0194132
0.0196471
0.0209686
0.0237689
0.0441325
0.0333042
0.0330585
0.0335746
0.03371
0.0396728
0.0464294
0.0704694
0.0651539
0.0715895
0.0612631
0.0636636
0.0628575
0.0624807
0.0652054
0.0687736
0.0741157
0.0865925
0.333207
0.513781
0.252975
0.236993
0.24666
0.25158
0.258951
0.338833
0.360022
0.355645
0.360463
0.330474
0.318523
0.196623
0.226043
0.238134
0.23704
0.223955
0.202918
0.39471
0.522643
0.518782
0.523654
0.523767
0.518768
0.522593
0.502914
0.514276
0.501758
0.515025
0.502297
0.521652
0.51891
0.504364
0.501138
0.501158
0.500917
0.501381
0.501557
0.504896
0.506057
0.506109
0.505104
0.504126
0.514517
0.439115
0.123892
0.0863628
0.14391
0.200052
0.164036
0.236252
0.271312
0.195608
0.11144
0.0912943
0.103008
0.126942
0.12838
0.155491
0.203139
0.189983
0.155141
0.156029
0.157096
0.202455
0.193737
0.219904
0.262482
0.255387
0.190623
0.151985
0.151843
0.230065
0.244354
0.239485
0.125249
0.0452945
0.0220614
0.0230458
0.0328771
0.0166582
0.0168737
0.0226157
0.0596774
0.0987795
0.0513836
0.138174
0.139402
0.182612
0.147846
0.178657
0.115949
0.118999
0.0677521
0.0797456
0.0896423
0.0953648
0.0997252
0.0940454
0.217565
0.321906
0.191764
0.562727
0.538609
0.196683
0.217424
0.57603
0.513006
0.50353
0.501786
0.501699
0.50186
0.501817
0.50097
0.500916
0.500729
0.500766
0.500717
0.501164
0.504767
0.520372
0.51459
0.505239
0.501385
0.500825
0.5008
0.500691
0.500731
0.500751
0.500809
0.501018
0.501051
0.501152
0.501671
0.503942
0.512022
0.435115
0.169808
0.182138
0.405828
0.361597
0.511499
0.504622
0.50137
0.500943
0.500856
0.50083
0.500796
0.50097
0.500891
0.501398
0.501232
0.501287
0.502776
0.508254
0.506386
0.442184
0.368548
0.415998
0.329264
0.506661
0.507773
0.503277
0.502901
0.503248
0.503416
0.501515
0.501529
0.500993
0.501062
0.500894
0.501341
0.504755
0.511007
0.345753
0.170638
0.177582
0.257755
0.0878023
0.0907717
0.0927305
0.0948454
0.247438
0.442663
0.556659
0.471955
0.475741
0.542949
0.386033
0.364801
0.294438
0.317801
0.402265
0.347361
0.312818
0.2504
0.288706
0.247682
0.303415
0.217843
0.234052
0.221611
0.282963
0.286825
0.287158
0.226598
0.216436
0.271506
0.285666
0.316583
0.218659
0.258782
0.203198
0.192287
0.0871046
0.0893158
0.0812451
0.0713319
0.0710488
0.0791487
0.0775674
0.0837092
0.0806783
0.0843389
0.0814267
0.079449
0.0727157
0.0747673
0.0685908
0.0712573
0.130272
0.166479
0.150327
0.15175
0.179561
0.131098
0.157412
0.153614
0.197645
0.248017
0.227935
0.294355
0.226034
0.2759
0.405927
0.754293
0.442571
0.245648
0.318358
0.339733
0.288612
0.189522
0.449358
0.53806
0.297835
0.359817
1.19477
1.04257
1.78031
0.992518
1.11995
0.671693
0.597781
1.02917
0.654457
0.667112
0.560414
0.573962
0.500315
0.324882
0.324559
0.306297
0.242309
0.281422
0.272085
0.266907
0.296629
0.261902
0.317149
0.352863
0.397623
0.322853
0.285894
0.367677
0.215841
0.291777
0.34723
0.316408
0.260394
0.339098
0.451421
0.42394
0.36504
0.400292
0.510957
0.564875
0.535552
0.454665
0.517181
1.0097
0.967011
0.932641
0.592091
1.93369
1.72165
0.357019
0.140424
0.098024
0.0370711
0.0225631
0.0182763
0.0178904
0.0490822
0.0195431
0.0235642
0.0212619
0.0304636
0.0275171
0.0318294
0.056211
0.0379299
0.0535375
0.039612
0.0530899
0.0422549
0.058159
0.0624507
0.0658617
0.0532462
0.0419824
0.0634294
0.0846565
0.0396265
0.101913
0.10772
0.0696793
0.0846549
0.104572
0.0541116
0.167395
0.057982
0.0578702
0.069191
0.129767
0.256149
0.0874594
0.114061
0.591011
1.53352
0.515156
0.204545
0.167191
0.0414752
0.035941
0.0294888
0.0355755
0.0313141