/*--------------------------------*- C++ -*----------------------------------*\
| =========                 |                                                 |
| \\      /  F ield         | OpenFOAM: The Open Source CFD Toolbox           |
|  \\    /   O peration     | Version:  v2012                                 |
|   \\  /    A nd           | Website:  www.openfoam.com                      |
|    \\/     M anipulation  |                                                 |
\*---------------------------------------------------------------------------*/
FoamFile
{
    version     2.0;
    format      ascii;
    class       volScalarField;
    location    "1115";
    object      nut;
}
// * * * * * * * * * * * * * * * * * * * * * * * * * * * * * * * * * * * * * //

dimensions      [0 2 -1 0 0 0 0];


internalField   nonuniform List<scalar> 
18258
(
0.00418348
0.0018209
0.00149058
0.00129068
0.000856783
0.0014009
0.00194602
0.00231688
0.00243115
0.00241114
0.00249712
0.00421479
0.00591576
0.00731171
0.00768052
0.00766695
0.00696019
0.00664732
0.00721636
0.0088726
0.00746024
0.00477896
0.00572575
0.00661528
0.00719239
0.00636759
0.00514936
0.00476929
0.00431767
0.00359813
0.00301613
0.00205751
0.0015165
0.00140645
0.00127416
0.00145197
0.00158091
0.001685
0.00172305
0.00175024
0.0017383
0.00172839
0.00168166
0.00165318
0.00160445
0.00132786
0.00161029
0.00164539
0.00180051
0.00249074
0.00267715
0.00225199
0.00249165
0.00222312
0.00146583
0.00167747
0.00182086
0.00186008
0.00183625
0.00176013
0.00173453
0.00171288
0.0016854
0.00165276
0.00163291
0.00164941
0.00166665
0.00164873
0.00156793
0.00150249
0.00139654
0.00129028
0.00121155
0.00115056
0.00110456
0.00105332
0.000995753
0.000874656
0.000810644
0.00107329
0.00134743
0.00143972
0.00204067
0.00248806
0.00250501
0.00187567
0.001337
0.00138774
0.00154247
0.0015575
0.00131943
0.00156747
0.00177481
0.0018393
0.00191653
0.00214253
0.00244083
0.00238002
0.00211984
0.0019541
0.00190334
0.00218618
0.00208141
0.0026996
0.00271647
0.00236392
0.00219449
0.00246849
0.00318412
0.00342271
0.00265693
0.00249619
0.00244742
0.00241554
0.00218582
0.00226351
0.00205654
0.00185312
0.00201927
0.00243844
0.0023126
0.00252512
0.00261691
0.00245538
0.00284519
0.00328091
0.00323439
0.00258827
0.00211199
0.00196874
0.0019835
0.00121312
0.00130995
0.00141053
0.00144511
0.00146952
0.00149017
0.00158841
0.00158481
0.00156144
0.00155799
0.0015849
0.00087362
0.000946563
0.00097015
0.000976957
0.000928239
0.000918624
0.000901388
0.00088742
0.000837323
0.000801277
0.000958628
0.00107632
0.00117223
0.00128446
0.00145155
0.00165594
0.00187074
0.00208777
0.00223124
0.00227205
0.00231321
0.0022294
0.00214487
0.0022212
0.00223398
0.00221951
0.00218966
0.00215196
0.00210105
0.00200771
0.00211504
0.00210882
0.00198103
0.00169854
0.0017362
0.00173309
0.00177822
0.00176935
0.00178745
0.00176245
0.00173305
0.0016499
0.00153368
0.00127631
0.00124367
0.00125917
0.00161703
0.00196321
0.00303271
0.00369972
0.00429609
0.00459747
0.00491966
0.00397985
0.00442967
0.00341361
0.00306445
0.00389499
0.00509534
0.00290698
0.00158679
0.00301006
0.00266953
0.00193603
0.00172325
0.00177571
0.00177962
0.00204517
0.00235755
0.00261565
0.0027405
0.00285091
0.0029389
0.00303626
0.00315956
0.00319395
0.00308586
0.00261292
0.0031474
0.00255662
0.00298697
0.00269836
0.00182027
0.00192797
0.00204432
0.00187064
0.00181932
0.00174219
0.00156861
0.00192921
0.00249813
0.00289962
0.00331519
0.00442076
0.00408994
0.00392177
0.00303691
0.00293669
0.0015243
0.0021741
0.00225468
0.00253441
0.00168556
0.00153701
0.00145834
0.00193604
0.0022427
0.00264574
0.00293336
0.00348392
0.00270134
0.00308626
0.0027928
0.00194545
0.00187319
0.00268343
0.00289033
0.00237623
0.00212648
0.00266775
0.00252458
0.00179072
0.00143446
0.00220284
0.00228085
0.00163573
0.0040554
0.00432366
0.00412617
0.00503013
0.0063064
0.00719136
0.00669587
0.0059417
0.00663314
0.00526829
0.00510209
0.0054415
0.00457052
0.00320339
0.00328358
0.00339545
0.00348735
0.00374406
0.00397723
0.00426189
0.00453277
0.00412093
0.00342339
0.00259187
0.00178271
0.00175749
0.00174811
0.00156978
0.0023266
0.0035222
0.00350003
0.00199039
0.00115977
0.00131054
0.00147937
0.00146469
0.00106367
0.000800213
0.0013783
0.00157604
0.00160156
0.00156184
0.00147465
0.00154104
0.0024749
0.00381287
0.00418954
0.00433933
0.00448116
0.00458149
0.00463752
0.00465558
0.00466583
0.00467829
0.00468921
0.00470558
0.00469115
0.0045913
0.0040384
0.00253888
0.001484
0.00137846
0.00152136
0.00163501
0.00173419
0.00147564
0.000902364
0.00144116
0.00184551
0.00212121
0.00213935
0.00199657
0.00193681
0.00305415
0.00406084
0.00478654
0.00493352
0.00499898
0.00494413
0.00493703
0.00482927
0.00479563
0.00420502
0.00300772
0.00328791
0.00352994
0.00357
0.00365212
0.00377569
0.00368793
0.00348445
0.00509242
0.00587688
0.00595244
0.0060798
0.00600865
0.00590559
0.00563795
0.00533192
0.00448905
0.00336659
0.00212431
0.00216884
0.0023091
0.00228717
0.00199128
0.00209761
0.00227629
0.00229908
0.00237434
0.00266244
0.00302388
0.0028848
0.00248302
0.00210842
0.00196314
0.00192147
0.00184324
0.00138004
0.001401
0.00136227
0.00138496
0.00186104
0.00221516
0.00255443
0.00362242
0.00323139
0.00262805
0.00416561
0.00426853
0.00458563
0.00506625
0.00519205
0.00575233
0.00400394
0.00360883
0.00370711
0.00302845
0.00280336
0.00283332
0.00284403
0.00265104
0.00290147
0.00287571
0.00277161
0.00305992
0.0033714
0.00444537
0.00538605
0.00568253
0.00585374
0.0059235
0.0059007
0.00578538
0.0058217
0.00511319
0.0051087
0.00489291
0.00475315
0.00470431
0.00447235
0.00511874
0.00531293
0.00537704
0.00551032
0.0057187
0.00556381
0.00539165
0.0052609
0.00516642
0.00506757
0.00512138
0.00521575
0.00531651
0.00545837
0.0056482
0.00568025
0.00548331
0.00533472
0.00523331
0.00513814
0.00514203
0.00522691
0.00532603
0.00546697
0.00564725
0.00554742
0.00540724
0.00528259
0.00518049
0.00509073
0.00491271
0.0050309
0.00516102
0.00526828
0.00533792
0.0046124
0.00493015
0.0048454
0.00438702
0.00410623
0.00311837
0.00337479
0.00355867
0.00387608
0.00430252
0.00438619
0.00368089
0.00315447
0.00307399
0.00304923
0.00312135
0.00314714
0.00316231
0.0035731
0.00538206
0.00541936
0.00543481
0.00543698
0.00464989
0.00451829
0.00420909
0.00769288
0.00716258
0.00620597
0.00511679
0.00274298
0.00235131
0.00278516
0.00338697
0.00378688
0.00417944
0.00277449
0.00171872
0.00200312
0.0020772
0.00202681
0.00187368
0.00156111
0.00144107
0.00130793
0.00140746
0.00249212
0.00397673
0.00447951
0.00452723
0.00448256
0.00439575
0.00429052
0.00414412
0.00408259
0.0051298
0.00691777
0.007848
0.00782149
0.00672057
0.00546936
0.00307554
0.00157128
0.00113733
0.00126012
0.00138267
0.00162834
0.00145576
0.00120179
0.0013152
0.00125502
0.00254715
0.00440984
0.00564171
0.00669067
0.00657165
0.00569916
0.00467998
0.00444555
0.00455007
0.00461872
0.00467831
0.00473955
0.00478157
0.00475491
0.00432782
0.00267377
0.0015963
0.00141844
0.00152531
0.00178761
0.00189924
0.00191831
0.00189142
0.00163959
0.0027114
0.00430605
0.00273832
0.00149412
0.00161446
0.00160283
0.00282721
0.00282278
0.00276178
0.00429714
0.00454347
0.00453183
0.00425805
0.00406511
0.00240661
0.00273083
0.00273984
0.00275436
0.00279953
0.0014141
0.00154134
0.00158925
0.00171066
0.00149744
0.00190161
0.000492054
0.000681876
0.000792015
0.000861083
0.000927645
0.000909978
0.00174056
0.00176568
0.00168533
0.00164119
0.00208331
0.00223578
0.00228523
0.00210505
0.00194251
0.00206772
0.00207215
0.00195263
0.00184971
0.00191805
0.00191946
0.00183937
0.00156449
0.00146597
0.00160945
0.00159212
0.00157932
0.00283625
0.00283131
0.00267949
0.00440283
0.00433196
0.00485215
0.00482082
0.00481545
0.00479616
0.00484762
0.00487425
0.00489433
0.00491805
0.00490843
0.00486117
0.0067655
0.00478127
0.00417229
0.00241277
0.0023241
0.00164138
0.00143847
0.00169385
0.00181163
0.00196405
0.00191961
0.00202372
0.00202138
0.00214483
0.00199077
0.00176771
0.00270761
0.00289259
0.00282522
0.00288115
0.00281339
0.00279689
0.00277624
0.00273667
0.00268904
0.00160109
0.00157054
0.00183911
0.00193054
0.00207438
0.0020932
0.00213863
0.00202829
0.00178387
0.00172679
0.00198863
0.00196182
0.00199993
0.00188558
0.00187781
0.00167293
0.00171531
0.0034597
0.00638812
0.00328679
0.00365094
0.00330745
0.00376181
0.00329482
0.00284148
0.00290812
0.00256152
0.00267199
0.00280273
0.00285343
0.00299891
0.00353495
0.00340356
0.00298766
0.00290098
0.00284382
0.00268135
0.00241342
0.0025283
0.0025512
0.00260596
0.00289624
0.003322
0.00372387
0.00452411
0.00439018
0.00384662
0.00351653
0.00368724
0.00375136
0.00472174
0.00441099
0.00438538
0.00462626
0.00458078
0.00434765
0.00411984
0.00397668
0.00341422
0.00347047
0.00397212
0.00384338
0.00396053
0.00389098
0.00404454
0.00411715
0.00395196
0.00367324
0.00386045
0.00385244
0.00427841
0.00416171
0.00386028
0.00353271
0.00377495
0.00372873
0.00430747
0.00405562
0.00379347
0.00349136
0.00334396
0.00379492
0.003726
0.00422518
0.00434696
0.00434879
0.00379113
0.0037037
0.0044046
0.00423816
0.00409284
0.0042629
0.00353016
0.00363168
0.00447374
0.00456745
0.00433261
0.00361686
0.00367302
0.00314986
0.00370383
0.00460984
0.00435315
0.00356797
0.00296063
0.00414273
0.00435972
0.00461181
0.00435847
0.00474789
0.0051154
0.00416963
0.00453667
0.0059284
0.0045256
0.00525173
0.00536816
0.00539987
0.00540274
0.00542368
0.00545071
0.00574228
0.00558543
0.00355107
0.00424756
0.00412575
0.00345021
0.00293368
0.00323105
0.00347954
0.0035294
0.00361867
0.00375639
0.00369204
0.00356991
0.00522521
0.00596418
0.00609387
0.00621581
0.00611501
0.00596583
0.0056192
0.00519369
0.00430976
0.00321379
0.00200496
0.00204341
0.00217729
0.00215586
0.00186978
0.00141097
0.000927091
0.00137675
0.00142395
0.0013414
0.00122301
0.0010796
0.00111704
0.00203887
0.00402201
0.00545937
0.00601168
0.00646145
0.00694487
0.00742041
0.00778549
0.00804913
0.00822488
0.00832995
0.008348
0.00817781
0.00742565
0.0070964
0.00668961
0.00635756
0.00590003
0.00554491
0.00626518
0.00688157
0.00726258
0.00769096
0.00788909
0.00780544
0.00678233
0.00657814
0.00756502
0.00931849
0.00791719
0.00994787
0.0117064
0.00911487
0.00819619
0.0081928
0.00915585
0.00933412
0.00900082
0.0084812
0.00788542
0.00713453
0.00750339
0.00783928
0.00816362
0.00846132
0.00929814
0.00945262
0.00938707
0.00924795
0.0090576
0.00877679
0.00833204
0.00772246
0.00705076
0.00639733
0.00563734
0.00405848
0.00189345
0.00215475
0.00210615
0.00230224
0.00222755
0.00101569
0.00112037
0.00113504
0.00114334
0.00108084
0.0012296
0.00178042
0.00290188
0.00208623
0.0017143
0.00118378
0.00139296
0.00232857
0.0039614
0.00447552
0.00455888
0.00460832
0.00583171
0.00682235
0.0072694
0.00760595
0.00785597
0.00775333
0.00749376
0.00703529
0.00647128
0.00625829
0.00591416
0.00560893
0.00544544
0.00527572
0.00495355
0.00389632
0.00372473
0.00388149
0.00383564
0.00367249
0.00392434
0.00406663
0.00406358
0.00410908
0.00414895
0.00427195
0.0044167
0.00454282
0.00460929
0.00463436
0.0046427
0.00465287
0.00466103
0.00467583
0.00466044
0.00455873
0.00400305
0.00250267
0.00146054
0.00135002
0.00148023
0.00156527
0.00160158
0.0014221
0.000915327
0.00142242
0.00184125
0.00188852
0.00207247
0.00213848
0.00226843
0.00252728
0.00292041
0.00301335
0.00267374
0.00253217
0.00247776
0.00241498
0.00206223
0.00257077
0.00283893
0.00283392
0.0028077
0.00303498
0.00373523
0.00358759
0.00316315
0.00312718
0.00309518
0.00279636
0.00275393
0.00301152
0.00304511
0.00315966
0.00370567
0.0044448
0.00412269
0.00375437
0.00359819
0.00332221
0.00292273
0.00264165
0.0032573
0.00267593
0.00139989
0.00118629
0.00118663
0.00118942
0.00114619
0.00135872
0.00142964
0.00144951
0.00135062
0.00149905
0.00166883
0.00161674
0.00182801
0.00180289
0.00161257
0.0015962
0.00173093
0.00183103
0.00188083
0.00192682
0.00315609
0.00325544
0.00252343
0.00365549
0.00421406
0.00419248
0.00444575
0.00365455
0.0032739
0.00388617
0.00449595
0.00516648
0.00407989
0.003856
0.00394903
0.00181009
0.000952405
0.00134386
0.00166875
0.00186005
0.00180518
0.00170618
0.00144341
0.00256523
0.00263393
0.00418559
0.00469547
0.00475616
0.00472481
0.00472332
0.00513841
0.00590502
0.00677726
0.00705294
0.00695391
0.00664064
0.00605671
0.00547714
0.00544723
0.00526628
0.00513209
0.00509536
0.00443192
0.00390176
0.00417608
0.00411027
0.00424971
0.00431511
0.00436269
0.00441123
0.00449192
0.00458931
0.00467831
0.00473938
0.00478036
0.00481483
0.00484985
0.00488482
0.00492248
0.00494294
0.00489637
0.00442526
0.00265261
0.00158067
0.00144142
0.00153799
0.00180777
0.0019035
0.00204571
0.00181591
0.000956144
0.00112487
0.00195418
0.00216813
0.00200632
0.00187764
0.0018442
0.0015448
0.00280076
0.00276501
0.00434403
0.00488608
0.00495443
0.00494034
0.00490157
0.00485735
0.00481341
0.00477715
0.0047479
0.00471715
0.0046745
0.00462342
0.00457578
0.00452692
0.0044442
0.00432733
0.00419369
0.00436215
0.00451249
0.00471037
0.00492127
0.00502353
0.0049313
0.00479575
0.00473992
0.00477425
0.00481826
0.00486305
0.00490335
0.00492429
0.00486936
0.00458858
0.00430339
0.00272352
0.00275947
0.00135592
0.00150597
0.00173775
0.00179474
0.00194894
0.00193904
0.00152343
0.00118741
0.00134009
0.00125319
0.00224009
0.00246376
0.00273335
0.00270666
0.00146852
0.00150636
0.00156538
0.0017652
0.00164064
0.00158643
0.00393221
0.00376291
0.00393563
0.00483057
0.00416062
0.00287058
0.00314555
0.00437674
0.00461726
0.00279033
0.00209226
0.00232116
0.00294024
0.00432838
0.00438351
0.00416633
0.00414226
0.00302248
0.00371547
0.00447326
0.0043524
0.00339052
0.00233616
0.00173994
0.000844091
0.00160555
0.00137263
0.00336761
0.00372764
0.00368546
0.00403096
0.00428177
0.00432545
0.004204
0.00372627
0.00380063
0.00383855
0.00437536
0.00439617
0.00371882
0.00313738
0.00254637
0.00256974
0.00262011
0.00290387
0.00363597
0.0034257
0.00300235
0.00291095
0.00284767
0.00267808
0.00241631
0.00211926
0.00213412
0.00198644
0.00192248
0.00303085
0.00403476
0.00475805
0.0048947
0.00494401
0.00486782
0.00483302
0.00469443
0.00462262
0.0040157
0.00512806
0.00542013
0.00523068
0.00526986
0.00530328
0.00534427
0.00534565
0.00524554
0.00450697
0.00269114
0.00175764
0.00198395
0.00214132
0.00201049
0.00199933
0.00213123
0.00202247
0.00177651
0.00287836
0.0028135
0.00449919
0.00509584
0.00520447
0.00521011
0.00518874
0.00517101
0.00517743
0.00544966
0.00532605
0.00540009
0.00568785
0.0056964
0.00576651
0.00541469
0.00534612
0.0053022
0.00527269
0.00522458
0.00509617
0.00450963
0.00437212
0.00496521
0.00511825
0.00518607
0.00523288
0.00528858
0.00536152
0.00557302
0.0057297
0.00579047
0.00555745
0.0054705
0.00534325
0.0051626
0.00511978
0.00511144
0.00510747
0.00508313
0.0049518
0.00435866
0.00280233
0.00287147
0.00170812
0.00171914
0.00198006
0.00207953
0.00204224
0.00189115
0.00184377
0.0031806
0.00362039
0.00384883
0.00414909
0.00396373
0.00394116
0.00450427
0.00435882
0.00388378
0.00404238
0.00362556
0.00345229
0.00334487
0.00336505
0.00176288
0.00190235
0.00198444
0.00195168
0.00186622
0.00166463
0.00152651
0.00278611
0.00276579
0.00273027
0.00162303
0.00158738
0.00187016
0.00181609
0.00166125
0.00141604
0.00155249
0.00239819
0.00268236
0.00415986
0.00430894
0.00461126
0.00493098
0.00505192
0.00508478
0.005105
0.0051275
0.00517626
0.00523363
0.00524993
0.00524712
0.00528656
0.00527686
0.00527904
0.0052527
0.00522196
0.00518557
0.00514625
0.00508091
0.00494571
0.00462143
0.00430331
0.00485162
0.00489634
0.0049874
0.00508123
0.00512068
0.00512602
0.00510616
0.00506755
0.00502173
0.00496964
0.00496861
0.00511855
0.00515554
0.0051813
0.00516545
0.00514675
0.00514015
0.00511666
0.00507955
0.00498582
0.00489186
0.00485237
0.00477147
0.00489853
0.00495479
0.00496272
0.00501032
0.00508697
0.00510974
0.00511008
0.00507291
0.0050414
0.00499985
0.00493122
0.00483895
0.00453713
0.00459869
0.00467907
0.00478452
0.0048862
0.00496855
0.00501542
0.00502007
0.00497519
0.00494494
0.00494647
0.00490481
0.00492629
0.00494819
0.00492224
0.004918
0.00491975
0.0048609
0.00475631
0.00461165
0.00445941
0.00433524
0.00427487
0.00417421
0.00450822
0.00464233
0.00476054
0.00486435
0.00495703
0.00504916
0.00507584
0.00506405
0.00500762
0.00497565
0.0049747
0.00492709
0.00492431
0.00497025
0.0049717
0.0049981
0.00504582
0.00503392
0.00496827
0.0047943
0.00462441
0.00447567
0.00433214
0.00417807
0.0041525
0.00422062
0.00415781
0.0042091
0.00435297
0.00453676
0.0046971
0.00480223
0.00483708
0.00486918
0.00491492
0.00491102
0.00488381
0.00486792
0.0048062
0.00475193
0.00468578
0.00454446
0.00436705
0.00421326
0.00416928
0.00425703
0.00433946
0.00426001
0.00394853
0.00410824
0.00426075
0.0044106
0.00462165
0.0048637
0.00496671
0.00500358
0.00497932
0.00496052
0.0049583
0.00491476
0.00489892
0.00493911
0.0049423
0.00496149
0.00499218
0.00496414
0.0048813
0.00458573
0.00423004
0.00405798
0.0039551
0.00382061
0.00428082
0.00437102
0.00426482
0.00419282
0.00430535
0.00443343
0.00456648
0.00465572
0.00469244
0.00474498
0.00481392
0.00484785
0.00479935
0.00474201
0.00467207
0.00463634
0.00463733
0.00461758
0.00453322
0.00443082
0.00430767
0.00445157
0.00453519
0.00445324
0.00402914
0.00409613
0.0042023
0.00426487
0.00459929
0.00488556
0.00494829
0.00494747
0.00491552
0.00489493
0.00489525
0.00486974
0.00482158
0.00481316
0.00480953
0.00486745
0.00494369
0.0049919
0.0050183
0.00480563
0.00440669
0.00433438
0.00414476
0.00405969
0.00451305
0.00456406
0.00445954
0.00436328
0.00457746
0.00466723
0.00469008
0.00466859
0.00461732
0.00458423
0.00464379
0.00473808
0.00466719
0.00436302
0.00409353
0.00423275
0.00426854
0.00426002
0.00420364
0.00410677
0.00389295
0.00434775
0.00479051
0.00482545
0.00435063
0.00435806
0.00422867
0.00394181
0.00432964
0.00452986
0.004571
0.00454798
0.00447423
0.00430216
0.00454355
0.00475635
0.00471521
0.00426857
0.00277034
0.00280824
0.00282792
0.00283012
0.00279328
0.00278293
0.00274253
0.00272156
0.00265867
0.00259458
0.0025336
0.00270173
0.00284573
0.00303997
0.00305618
0.00313663
0.00300246
0.0028423
0.00265483
0.00206823
0.00262443
0.00313118
0.00332777
0.00357978
0.00363159
0.00418428
0.00439915
0.00451291
0.00442284
0.00354862
0.00300994
0.00240536
0.00156438
0.00097482
0.00114416
0.00118998
0.00124842
0.00152529
0.00282056
0.00143683
0.00199031
0.00155618
0.00267499
0.00141475
0.000886754
0.000586963
0.000745678
0.000882952
0.000890306
0.000855075
0.000714013
0.000563117
0.000575684
0.0005384
0.000572305
0.000516959
0.000592502
0.000554215
0.000773514
0.00116075
0.00131766
0.00134698
0.00108876
0.00122789
0.00102592
0.00118327
0.00105666
0.00115158
0.00110467
0.00135091
0.00148045
0.00141737
0.00142131
0.0012437
0.000869796
0.00100823
0.000791982
0.000950905
0.000727422
0.000939218
0.000805227
0.00104621
0.00107839
0.0010752
0.00103517
0.000790796
0.000937544
0.00073801
0.000903234
0.000739165
0.000785096
0.00065315
0.000945478
0.000962717
0.000887802
0.000943153
0.00105761
0.00113412
0.0012517
0.00118878
0.00135777
0.00131546
0.00133905
0.00126833
0.00123335
0.00120527
0.00120781
0.00118805
0.00119467
0.00123328
0.00123528
0.00124025
0.00127968
0.00126118
0.00123108
0.001213
0.00107772
0.000869672
0.00151501
0.00156235
0.00158537
0.00158496
0.00154897
0.00153174
0.00147872
0.00146467
0.00141856
0.00139156
0.00132986
0.00127925
0.00122153
0.00137339
0.000768538
0.0008726
0.000921214
0.000948563
0.000967631
0.000976406
0.000983516
0.000978041
0.000965918
0.000942031
0.00093384
0.000907806
0.00116142
0.00132094
0.00138059
0.00139634
0.00130865
0.00124599
0.00272385
0.00329674
0.00501375
0.00512525
0.00384788
0.00383706
0.00132858
0.00140094
0.000957478
0.00134542
0.00138707
0.00137276
0.00129668
0.00093517
0.00140356
0.000977573
0.0013175
0.000986216
0.00122111
0.00100064
0.00141811
0.00180647
0.00174247
0.00157801
0.00107272
0.000892149
0.000888972
0.00076173
0.000835967
0.000693343
0.000854383
0.000724607
0.00107956
0.00153764
0.00170159
0.0017359
0.00136881
0.0018886
0.00142002
0.00205574
0.00163187
0.00201197
0.00161455
0.00186853
0.00231189
0.00232208
0.00226683
0.00182684
0.00146415
0.00164344
0.0014559
0.00167677
0.00242268
0.00158754
0.00240777
0.000994631
0.00135557
0.00139694
0.00137748
0.0012985
0.000874557
0.00222792
0.00117778
0.00209881
0.00135801
0.00218239
0.00157908
0.00208445
0.00249221
0.00260298
0.00259096
0.00211575
0.0019033
0.00196037
0.00156413
0.00187708
0.00140492
0.00204291
0.00116624
0.00151816
0.0016813
0.00177033
0.00177782
0.00146169
0.00288583
0.0018118
0.00273457
0.00190125
0.0024355
0.00195221
0.00213561
0.00252191
0.00250614
0.00248506
0.00210719
0.00170469
0.00225014
0.0016052
0.0478102
0.110477
0.0439755
0.111677
0.0506011
0.0718174
0.0707637
0.0709024
0.0711572
0.0534471
0.116506
0.137628
0.143543
0.145313
0.144245
0.233092
0.190068
0.285565
0.185102
0.108887
0.0471926
0.0650766
0.168029
0.277533
0.41646
0.528422
0.360116
0.372732
0.237854
0.234483
0.220728
0.178532
0.109381
0.054872
0.00940156
0.0102714
0.0147019
0.0195717
0.0154151
0.00945128
0.0018712
0.00193161
0.001976
0.00200432
0.00199887
0.00195808
0.00199062
0.00188092
0.00176962
0.00198009
0.00215867
0.0023132
0.00272745
0.00301403
0.00271739
0.00297746
0.0031546
0.00329915
0.00341909
0.00359777
0.00379881
0.00397478
0.00398408
0.0036508
0.00311222
0.00253084
0.00212561
0.00201326
0.00189031
0.00166696
0.00152475
0.00142679
0.00138015
0.00136112
0.00139913
0.0015295
0.00164292
0.00168277
0.00165011
0.0016198
0.0015934
0.00141888
0.00165913
0.00227585
0.0022928
0.00392833
0.00452639
0.00462066
0.00462736
0.00410066
0.0026192
0.00262512
0.00263865
0.00268939
0.00270018
0.00270809
0.0027056
0.00269731
0.00268183
0.00265337
0.00263878
0.00259597
0.00255955
0.00246733
0.00247135
0.00250236
0.00252727
0.00248534
0.00249505
0.0024435
0.00319807
0.00426639
0.00479939
0.00501431
0.00519966
0.00504648
0.00699836
0.00599383
0.00420769
0.00413495
0.00408347
0.00484471
0.00487685
0.00440126
0.00441951
0.00403788
0.00252203
0.00251796
0.00251968
0.00269653
0.00275
0.00284138
0.00286692
0.00288765
0.0029009
0.00289281
0.00289037
0.00286295
0.00284325
0.00277794
0.00275632
0.00274698
0.0015145
0.00165309
0.00171539
0.00172735
0.00175353
0.00174348
0.00173428
0.0017137
0.00170104
0.00167273
0.00164064
0.00159147
0.00149571
0.00136205
0.00149847
0.00254105
0.00253975
0.00413682
0.00466266
0.00469728
0.00523293
0.00496764
0.00470512
0.00504689
0.00454756
0.00450994
0.00408702
0.00253921
0.00257372
0.00152865
0.00151591
0.00177342
0.00172508
0.0018439
0.00189468
0.00189973
0.00192563
0.00194975
0.00198039
0.00202994
0.00204394
0.00201048
0.0020037
0.00188683
0.00163028
0.00164939
0.00194474
0.00204039
0.0018955
0.00186378
0.00185019
0.00180534
0.00177127
0.00173888
0.00176188
0.0018975
0.00189496
0.00186069
0.00177024
0.00172317
0.0014928
0.0014416
0.0025188
0.00255797
0.00422551
0.00431723
0.00428804
0.00494777
0.00552956
0.00628662
0.00536752
0.00436076
0.00453561
0.00518828
0.00386371
0.00323917
0.00192566
0.00144657
0.00180837
0.00166659
0.00173801
0.00180084
0.0015993
0.00171905
0.00158933
0.00144433
0.00143607
0.0014344
0.0014695
0.0014844
0.00151115
0.0015148
0.00155127
0.00154767
0.00155149
0.0015703
0.00157752
0.00174287
0.00189295
0.00159379
0.0013515
0.00131768
0.00124441
0.00118517
0.0012142
0.00118514
0.00117788
0.00115632
0.00113668
0.00108479
0.00113042
0.00119964
0.00140354
0.00134316
0.00108553
0.000969815
0.000662765
0.000676185
0.000680855
0.000701694
0.000709402
0.000718835
0.000722378
0.000734099
0.000736401
0.000740124
0.000739843
0.000757789
0.000755193
0.000746426
0.000740825
0.000744346
0.000747658
0.00074706
0.00109399
0.00121799
0.00132963
0.00157893
0.00185736
0.00159915
0.00135582
0.00116926
0.000751652
0.000762891
0.000776773
0.000783954
0.0008006
0.000815767
0.000832657
0.000843297
0.000851258
0.000859589
0.000868388
0.000871872
0.000869709
0.000852889
0.000842995
0.000864439
0.000950248
0.00100011
0.00106412
0.00108832
0.00110891
0.00111912
0.00111406
0.00112583
0.00111278
0.00111103
0.00109226
0.00108431
0.00107675
0.00106717
0.00105517
0.0010254
0.00101549
0.00106848
0.00180898
0.0023653
0.00272089
0.00299479
0.00277199
0.00225248
0.00236259
0.0041528
0.00393364
0.00231914
0.00216655
0.00200106
0.0017506
0.00152973
0.00184981
0.00211043
0.00230736
0.00247993
0.00263791
0.00274542
0.00288408
0.00306506
0.00338417
0.00342404
0.00312313
0.00252975
0.00213952
0.00199631
0.00192799
0.00181046
0.00168213
0.00172462
0.00173726
0.00168579
0.00162192
0.00160412
0.00163099
0.00166585
0.00164613
0.00164549
0.00147015
0.00146955
0.00251127
0.00255686
0.00393339
0.00414474
0.00418547
0.00269003
0.00265356
0.00154989
0.00143965
0.00157059
0.00163064
0.00163423
0.00164119
0.00163332
0.00160499
0.00158437
0.00156014
0.00154045
0.00152275
0.00149225
0.00143376
0.00132434
0.00144262
0.00161747
0.00169005
0.00170928
0.00171865
0.00174581
0.00179044
0.00182588
0.00190844
0.00191617
0.00191514
0.00192168
0.0017958
0.00185167
0.00156703
0.00156448
0.00271182
0.0027039
0.00155332
0.00183415
0.00184706
0.00182644
0.00196672
0.00179969
0.00174284
0.00173431
0.001661
0.00162203
0.00156967
0.00153843
0.00156806
0.00166747
0.00161371
0.0014301
0.00137686
0.00154551
0.00148803
0.00123461
0.00105491
0.00102609
0.000982336
0.000955793
0.00100193
0.00103806
0.00105865
0.00108471
0.00109239
0.00114013
0.00110904
0.00116332
0.00123367
0.00128971
0.0015296
0.00165787
0.00149772
0.00146911
0.00145093
0.00144996
0.00145472
0.00139484
0.0013909
0.00135992
0.0013446
0.00130385
0.00128549
0.00126211
0.00126612
0.00127922
0.00140625
0.00361503
0.00461027
0.00480183
0.00820938
0.00331582
0.00338463
0.00664928
0.00274513
0.0041289
0.00442343
0.00462356
0.0048275
0.0044178
0.0056271
0.00392233
0.00437123
0.00454738
0.00397145
0.00150079
0.00172909
0.00198313
0.00176124
0.00155497
0.00105891
0.00114043
0.00117704
0.001207
0.00122615
0.00124785
0.00127092
0.00129266
0.00130781
0.00130782
0.00126773
0.00122464
0.00112575
0.00109283
0.00113502
0.0011786
0.00103469
0.000974135
0.00098549
0.00100149
0.0010104
0.00101215
0.00102183
0.00102434
0.00103972
0.00103126
0.00103889
0.00102096
0.0010297
0.00101658
0.000982191
0.000933544
0.000851166
0.000831161
0.00119726
0.00127508
0.00133938
0.00152066
0.00175654
0.00187474
0.00168069
0.00155051
0.00148836
0.00165098
0.00165292
0.00300868
0.00577376
0.00258386
0.00289156
0.00843232
0.00335398
0.00260461
0.00264347
0.00267102
0.002675
0.0015543
0.0018406
0.00178432
0.00179249
0.0015206
0.00127696
0.00114536
0.00102403
0.000694654
0.000692445
0.000697666
0.00070851
0.0007119
0.000681409
0.00068133
0.000677448
0.000675938
0.000661544
0.000657531
0.000645803
0.00063868
0.000621787
0.00061266
0.000596699
0.000594122
0.00062315
0.000695838
0.000841777
0.000932928
0.00106269
0.0010807
0.00120908
0.00298474
0.00345999
0.00477044
0.00473447
0.00746658
0.0046657
0.00352399
0.00318048
0.00465432
0.00481009
0.00445774
0.0060366
0.00417586
0.00277161
0.00424352
0.00354297
0.00411365
0.00406182
0.00431873
0.00686273
0.00720915
0.00202525
0.00180448
0.00189709
0.00215301
0.002557
0.00235877
0.00268526
0.00269116
0.0020844
0.00131266
0.00417668
0.00504414
0.00408267
0.00492633
0.00754076
0.00302564
0.0029499
0.00260942
0.00217787
0.00197899
0.00195323
0.00217847
0.00260696
0.00651895
0.00697814
0.00648552
0.00648493
0.00587763
0.00641181
0.00798681
0.00793764
0.00702092
0.0065671
0.00682229
0.00427621
0.00261567
0.00304079
0.00337467
0.00450398
0.00464543
0.00980332
0.0033347
0.00367851
0.00373609
0.00499216
0.00484135
0.00853818
0.00363164
0.00391165
0.00515381
0.00689204
0.0126739
0.00464604
0.00488237
0.00701595
0.00712411
0.00651279
0.00471244
0.00426312
0.00463821
0.00349532
0.00341764
0.00291455
0.00429972
0.00578337
0.00458348
0.00445046
0.00378161
0.0033819
0.00344901
0.00358268
0.00297716
0.00293422
0.00338181
0.00252538
0.00244531
0.00257265
0.000716272
0.000367051
0.000375135
0.000384903
0.000392843
0.000401053
0.000407016
0.00041414
0.000417288
0.000417677
0.000418816
0.000442813
0.000438599
0.000424721
0.000385658
0.000439995
0.000698218
0.000698597
0.000439401
0.000387338
0.0006951
0.0011074
0.00130548
0.00154397
0.00156276
0.00134868
0.00116949
0.000720071
0.000708716
0.000429538
0.000501686
0.000544809
0.000483287
0.000539443
0.000500037
0.000529561
0.000535304
0.000495422
0.000492555
0.000494416
0.000490689
0.000481912
0.000471255
0.000458272
0.000448208
0.000443001
0.000439352
0.000430796
0.000356479
0.000332916
0.000402367
0.000643924
0.000644608
0.000603119
0.000566764
0.000535405
0.000520629
0.000516126
0.000512985
0.000521915
0.000538731
0.00054352
0.00054843
0.000590835
0.000571992
0.000610916
0.000573439
0.000612572
0.000574862
0.000528838
0.000444033
0.000458098
0.00073909
0.000746962
0.00120651
0.00137978
0.0015643
0.00157201
0.00175501
0.00184874
0.00156611
0.00162594
0.0018628
0.00173444
0.00154553
0.00155183
0.00139568
0.00139744
0.00123839
0.000774166
0.000763699
0.000479579
0.000465795
0.000555408
0.000545753
0.00060694
0.000649642
0.000649844
0.000647761
0.000631998
0.000626201
0.000550684
0.000539746
0.000540479
0.000524237
0.000521012
0.000544257
0.000595908
0.000701197
0.000848677
0.00092318
0.000953584
0.000913691
0.000817394
0.000605607
0.00054554
0.000947432
0.000980883
0.00177244
0.00421216
0.0019822
0.00371756
0.00268157
0.000664773
0.000740656
0.000944372
0.00105809
0.00114278
0.00119268
0.00109177
0.000912038
0.000686657
0.000566829
0.000843534
0.000729299
0.000822391
0.000718036
0.000929218
0.00107419
0.00103896
0.00104656
0.000884255
0.000720109
0.000762653
0.000684426
0.000754378
0.000631658
0.000759966
0.000685977
0.000861951
0.000870023
0.000851889
0.000807439
0.000614762
0.000645036
0.000541119
0.000587085
0.000527207
0.000544955
0.000516394
0.000602155
0.000693903
0.000666009
0.000663441
0.000545156
0.000427261
0.000471979
0.00040837
0.000462252
0.000359394
0.000435311
0.000364936
0.000472522
0.000487325
0.000490397
0.00048816
0.000398044
0.000468159
0.000571937
0.000599658
0.000604197
0.00057509
0.000443503
0.000686157
0.000618648
0.000755169
0.000652808
0.00071483
0.000650799
0.000758463
0.000971402
0.00101429
0.00102101
0.000828463
0.000823438
0.00150346
0.0834944
0.00135242
0.00159862
0.00164863
0.00164277
0.0013581
0.00132476
0.00164124
0.00121366
0.00171926
0.00108264
0.00183443
0.00069929
0.0010631
0.00114142