/*--------------------------------*- C++ -*----------------------------------*\
| =========                 |                                                 |
| \\      /  F ield         | OpenFOAM: The Open Source CFD Toolbox           |
|  \\    /   O peration     | Version:  v2012                                 |
|   \\  /    A nd           | Website:  www.openfoam.com                      |
|    \\/     M anipulation  |                                                 |
\*---------------------------------------------------------------------------*/
FoamFile
{
    version     2.0;
    format      ascii;
    class       surfaceScalarField;
    location    "1115";
    object      phi;
}
// * * * * * * * * * * * * * * * * * * * * * * * * * * * * * * * * * * * * * //

dimensions      [1 0 -1 0 0 0 0];
oriented        oriented;


internalField   nonuniform List<scalar> 
50655
(
0.00258295
-0.00360044
-0.00141872
-0.00513901
0.00140684
0.00357887
-0.00338903
0.00394735
0.004436
-0.00249783
-0.00284216
0.0030764
-0.0037021
-0.00379383
0.00265409
-0.00176521
-0.00485936
0.000797349
0.00022109
-0.0047241
0.00158486
-0.00179071
-0.00718591
0.00237428
-0.0104727
0.00281162
0.000376378
-0.0112966
-0.00344126
0.00415516
-0.0120496
-0.00483083
0.00548143
-0.0129112
-0.00562832
0.00638584
-0.0261883
-0.00930748
0.0223906
-0.0487139
-0.0282411
0.0502064
-0.0483018
-0.0527095
0.0516002
-0.0311088
-0.0711112
0.0531403
-0.00461529
-0.0779786
0.0507021
0.00780858
-0.0547078
0.0414726
-0.00169118
-0.0314891
0.0402161
-0.0209115
-0.021715
0.0401686
-0.016816
-0.0512448
0.0464268
-0.00697666
-0.0551195
0.0447225
-0.0386909
0.0313852
-0.0410609
0.0188221
-0.0167534
-0.0157261
-0.0755533
0.0497238
0.02027
-0.0797579
0.0432653
0.0305514
-0.0291327
0.0185443
0.0340325
-0.00381842
0.0364516
0.017897
-0.0206386
0.0252906
-0.01793
0.0288152
0.0163604
-0.00948689
0.0182479
0.00333349
-0.00135459
0.0142545
-0.00649406
0.00674223
0.00299005
-0.00542297
0.000101361
-0.00121315
-0.00539144
-0.00125119
0.00120127
-0.00631563
0.000255731
0.000651176
-0.00758326
0.000247359
0.00100367
-0.00873099
0.00012581
0.00100479
-0.00912987
-0.000218223
0.000600736
-0.00940026
-0.000634893
0.000888692
-0.00896316
-0.00106061
0.000607224
-0.00833995
-0.00152607
0.000886186
-0.00711476
-0.00197139
0.000729776
-0.00569059
-0.00243288
0.000991837
-0.0038139
-0.00273329
0.00084043
-0.00197811
-0.00292598
0.00107324
0.000915814
-0.00291152
0.00065306
-0.00252046
0.00275757
-0.00549285
0.00503077
0.00107337
-0.0109177
0.00477387
0.00059445
-0.0130567
0.00519141
-0.00311935
-0.0129413
0.00540191
-0.00558434
-0.00542595
0.00466837
-0.0122401
0.000508125
0.00561396
-0.0115898
0.000601175
0.00357584
-0.00369452
-0.00150428
0.00208787
-0.00295278
0.00214177
-0.000710408
-0.00451291
0.00218865
-0.000644672
-0.00582668
0.00234669
-0.0010493
-0.00709366
0.00230337
-0.00105134
-0.00859572
0.00249527
-0.00100723
-0.0101625
0.00258143
-0.00102804
-0.0114588
0.00237388
-0.00109074
-0.0123622
0.0020125
-0.00112209
-0.0128306
0.00159938
-0.00114404
-0.0131494
0.00143362
-0.00112807
-0.0137539
0.00156085
-0.000970594
-0.0139619
0.00111704
-0.000924096
-0.0136681
0.000891253
-0.00120042
-0.0136589
0.000777161
-0.000802102
-0.0133849
0.000821409
-0.00111146
-0.0131379
0.000895899
-0.00115887
-0.0129933
0.000838744
-0.000999032
-0.0127175
0.000568586
-0.000860049
-0.0121781
0.000119383
-0.000674192
-0.0112761
-0.000457354
-0.00045988
-0.0101543
-0.000918075
-0.000219054
-0.00883607
-0.0010141
-0.00031893
-0.00738718
-0.000764568
-0.00069818
-0.00758337
-0.0006958
0.000879988
-0.0163877
0.000813469
0.00796426
-0.0211645
0.000372149
0.00434413
-0.022616
0.00112533
0.000260912
-0.0426241
0.0163201
0.00357061
-0.0546207
0.00548692
0.00621136
-0.0294814
-0.0164436
-0.00900331
-0.0131262
-0.0150138
-0.00147358
-0.0112743
-0.00401857
0.00208872
-0.0100277
-0.00311767
0.00178096
-0.00811114
-0.00347041
0.00145239
-0.00473826
-0.00332741
-0.000140744
-0.0032055
-0.00161807
-0.0044823
0.00461716
-0.00343525
-0.00271529
0.00674195
-0.00862259
0.00085984
0.00622216
-0.00992947
0.00614102
0.00591551
-0.0113415
0.0148786
0.00883241
-0.0177511
0.0284359
0.0138311
-0.0276709
0.024899
0.0196887
-0.0164333
0.0165837
0.00641701
0.00171363
0.00798374
6.09076e-05
0.00839168
-0.000976733
-0.00390447
0.01273
-0.00441835
-0.00675766
0.0100829
-0.00757177
0.00543025
0.00435862
0.00099952
-0.0102158
0.00203594
-0.00817743
0.00362878
-0.00515532
-0.00423548
0.00739648
-0.0125214
0.00200073
0.00529339
-0.0143338
0.00571923
0.00237333
-0.0383661
0.0270679
0.0232553
-0.00718354
-0.0132576
0.0372111
-0.0096625
-0.0394035
-0.00476085
0.0093185
-0.00911737
-0.000502592
0.00898428
-0.00745709
0.00270323
0.00960657
-0.00671266
0.00461381
0.00962583
-0.00490439
0.00715294
-0.00134319
0.0112994
-0.00503069
-0.00270332
0.0124779
-0.0019578
-0.00244081
0.00881905
-0.000390377
-0.00422615
-0.002019
-0.0211099
-0.00221171
0.0295743
-0.0106533
-0.0143482
-0.00175362
-0.00711164
-0.00257666
-0.00732299
0.0159017
0.00122815
-0.010264
0.0219554
0.00103631
-0.00899986
0.0325361
0.000231077
-0.0132002
0.0832905
-0.00232648
-0.0359729
0.0468481
-0.00190619
0.0455414
-0.00237529
0.00752837
-0.0031911
0.0384675
0.00387318
0.0218277
0.00197403
0.0232374
-0.000311442
0.0113254
0.0139349
0.00625505
-0.00800471
9.18524e-05
0.00681266
0.00521934
-0.00150352
0.00732283
0.00819025
-0.00154255
0.00712437
-0.015086
0.00798254
-0.00212475
0.00737157
-0.0153161
0.00850693
-0.00128336
0.00743823
-0.0167184
0.00841824
-0.00132821
0.00742191
-0.0160156
0.00861773
-0.000646109
0.00728812
-0.0166042
0.00861342
-0.000275667
0.00703684
-0.0159944
0.00856712
0.00069654
0.00623799
-0.0154609
0.00823205
0.00575747
0.00442227
-0.0169502
0.00745246
0.00149632
-0.0041711
0.0056806
0.00273732
0.000812977
0.00538164
-0.000283015
0.000635991
0.00714172
-0.000737499
0.000791256
0.008021
-0.00115173
0.000948194
0.00832354
-0.00120533
0.00128526
0.0083891
-0.0013175
0.00150912
0.00856339
-0.0013623
0.00151041
0.00870945
-0.00135214
0.00127236
0.00872081
-0.0013707
0.000942378
0.00883646
-0.00119554
0.00731121
-0.000262373
0.00935934
-0.00201141
-0.000815263
0.0110381
-0.00185678
-0.000851524
0.0123227
-0.00155337
-0.000665147
0.0131086
-0.000316123
-0.000942829
0.0135393
0.000849149
-0.0011762
0.0137167
0.00170707
-0.00133169
0.0137152
0.00223608
-0.00141211
0.0137739
0.00224919
-0.00142859
0.0137286
0.00182547
-0.000975193
0.013735
0.00134855
-0.000593854
0.0139166
0.00122843
-0.000534414
0.0133037
0.00114668
0.000568041
0.012451
0.00243524
0.000232404
-0.000268243
0.0126911
-0.000412881
0.00244015
-0.000847023
0.0123521
-0.000237328
0.00280243
-0.000639972
0.0114777
-7.37275e-05
0.00311468
-0.000167257
0.010214
4.97075e-05
0.000296295
0.00327831
0.00861432
0.000721602
0.00331564
0.000130379
0.00686828
0.00104008
0.00304925
0.000138157
0.0058629
0.00096336
0.00224165
8.87753e-05
0.00441901
0.00462342
-0.000849228
0.00286544
0.00428016
-0.00055415
0.00141939
-0.000505203
0.00407661
0.00389801
-0.000407682
0.00560823
-0.000516266
-0.00121009
0.00683239
-0.000410021
-0.000830992
0.00780476
-0.000607741
-0.000381111
0.00817001
-0.000472928
9.09621e-05
0.0082282
-0.000606382
0.00053172
0.00754119
-0.000259064
0.000929486
0.00656767
-0.000295855
0.00125281
0.00475706
0.000287591
0.00150593
0.00208349
0.00111928
0.00153717
-0.0016808
0.00205154
0.00169481
-0.00444345
0.00057995
0.00216472
-0.00596753
-0.000865675
0.00237049
-0.00724774
0.000619488
0.000638775
-0.0136827
0.00050276
0.00588731
-0.0247194
-0.00655183
0.0174727
-0.030873
-0.0160884
0.0220767
-0.0390549
-0.0259613
0.0338768
-0.0315247
0.0235447
0.0161762
-0.0383015
0.00918686
0.0258235
-0.0166346
0.00691883
-0.00456381
0.00437199
-0.0321631
0.0260299
0.00152063
-0.0146544
-0.0233122
0.00576832
-0.0374418
0.00610647
0.0410881
-0.0572773
-0.000768471
0.0289007
-0.0498397
0.0151143
0.0125626
-0.00998856
0.0169304
-0.0102986
0.0108911
-0.00246626
0.0188552
0.0079015
0.0112255
-0.0125616
0.0135237
0.0052487
-0.00617764
0.001317
0.0112154
0.00483366
0.00102307
0.00267272
0.00128504
-0.0010426
0.00154859
0.00272511
-0.00488667
0.00381131
0.00206276
-0.0054498
-0.00051967
0.00218112
-0.00958152
0.00197518
0.00242365
-0.0082296
-0.00369184
0.00202397
-0.011881
0.00195337
0.00141914
-0.00891845
-0.00418589
0.000597114
-0.0112546
0.00214914
-0.000305664
-0.00733129
-0.00321053
-0.0013402
-0.00817088
0.00228579
-0.00187639
-0.00441436
-0.00172633
-0.0025657
0.00129299
-0.00255826
0.00394652
0.0117782
-0.0106035
0.011349
0.006605
-0.00939163
0.0127604
0.00897554
-0.00505471
0.00972493
0.0105926
-0.00243553
0.00398644
0.00955711
0.000902756
0.0127972
-0.00260989
-0.00213336
0.000903876
0.0152313
-0.00578007
0.0043492
-0.00324707
0.00216849
0.0151509
-0.00740834
-0.00305428
0.00329564
0.00717409
0.0105205
-0.00785734
-0.00266722
0.00331795
0.0117629
0.00175635
-0.00669677
-0.00197478
0.0011932
0.0161574
-0.00103976
-0.0042684
0.00752325
-0.000469312
-0.00525044
0.0110049
-0.000160164
-0.0103452
0.0126187
-0.00899002
-0.0142385
-0.0141282
0.00842452
0.00569647
-0.0240975
0.00411408
-0.0185205
0.00623228
-0.0164407
-0.0114185
0.00926963
0.00797914
0.00962256
-0.034089
-0.0237133
0.00755968
0.0112052
0.00755477
-0.0100105
-0.0325513
-0.00913736
0.00776888
-0.00161221
6.92635e-05
0.00773933
-0.00655684
-0.0104523
0.01144
-0.00761236
-0.0141202
0.0105928
0.010487
-0.000903735
-0.00882158
0.0103028
-0.00144962
0.00789582
-0.00792681
0.00408477
0.00105503
0.00445741
-0.0037882
0.00610022
-0.00633262
0.0139779
-0.012169
-0.00360196
0.0108164
-0.017052
-0.00263254
0.00570364
-0.0169868
-0.00102536
-0.00115003
0.0019925
-0.00820115
0.00824512
0.00973864
-0.00945512
0.010655
0.0114246
-0.00493919
0.0112324
0.0120808
-0.00214578
0.010847
0.00409363
-0.0107043
0.011222
0.00285056
-0.00894776
0.0123677
-0.00212698
-0.00481833
0.0119196
-0.00470798
0.00985108
-0.00602694
0.00210959
0.00398409
0.00105216
0.0077571
0.00786437
-0.0016796
0.0108054
0.00903691
0.000195491
0.00780672
0.00629168
-0.00913069
0.0101913
-2.2186e-05
-0.00712096
0.00358706
0.00335167
0.000190488
0.00163314
-0.0011697
0.00495503
-0.00675381
-0.0015378
-0.00232051
0.018746
-0.00334471
-0.0195864
0.0169193
-0.00136352
-0.00183108
-0.016352
-0.0118631
-0.000746021
0.00319128
-0.00872404
-0.0106178
-0.0130118
0.00641739
-0.00594662
-0.00495899
0.000830412
0.00133778
0.000379995
-0.0020903
-0.00423877
-0.000992019
0.00395496
-0.00258453
-0.000414856
0.00178964
-0.00236819
0.00129105
-0.00379839
0.00671247
0.000676093
-0.0110685
0.000649075
-0.00347521
0.0103544
-0.00346065
-0.00447879
-0.0188564
0.01383
-0.0117813
-0.0193677
-0.0117605
0.0078655
0.00431413
-0.026579
-0.0153689
0.00258857
0.00932789
0.0105527
-0.0355674
-0.0164482
0.0130825
0.00183854
0.0104132
-0.0422834
-0.0146137
0.00984625
8.93099e-05
0.0112907
-0.0436601
-0.0107793
0.00324837
-0.00152571
0.0103289
-0.0431618
-0.00616433
-0.00148834
-0.00183772
0.00888222
-0.0394858
-0.00333845
-0.00449938
0.00406779
-0.0347411
-0.00116917
-0.00711279
0.00648229
-0.00305315
-0.0321809
0.00136714
-0.00611999
0.00560466
-0.00351396
-0.0291364
0.00269133
0.00447383
-0.00400232
-0.00631005
-0.0289389
0.00210238
0.00395839
-0.00357785
-0.00279256
-0.0298477
0.00024024
0.00179546
-0.00123391
-0.0277931
-0.00155786
0.0013441
-0.00195446
-0.0230069
-0.0025967
0.00152362
-0.00380941
-0.0302024
0.00168546
0.0226541
-0.0172197
-0.0593457
0.0293314
-0.01287
0.0123112
0.00608536
-0.0199366
-0.00127913
-0.0131706
-0.0252096
-0.00926009
-0.0122602
-0.000458369
-0.00877358
-0.0111664
0.000648061
0.000277801
-0.00943854
-0.000545156
0.000501699
-0.00581203
-0.00373325
0.00144885
-0.0031121
-0.00398149
0.00104243
-0.00453414
-0.000265707
-0.00445634
0.000808037
-0.000933074
-0.00684094
0.00205129
0.00027012
-0.0107819
0.00220878
0.00165252
-0.0130942
0.000818112
0.00141568
-0.0133625
-0.000352325
0.000550767
-0.0130729
-0.00174891
0.00140531
-0.0236429
0.00142273
0.00907257
-0.0568388
0.0175027
0.0154865
-0.10127
0.00883572
0.035023
-0.117925
-0.0058965
0.0218571
-0.127276
-0.0116211
0.020198
-0.133702
-0.0165227
0.0221136
-0.137354
-0.0222175
0.0249848
-0.138679
-0.0272907
0.0277045
-0.138598
-0.0307781
0.0297734
-0.137784
-0.0329317
0.0311923
-0.136326
-0.0341774
0.0318032
-0.134181
-0.034821
0.0317745
-0.130344
-0.0353263
0.0306176
-0.122377
0.0278344
-0.0366349
-0.103237
0.0208061
-0.0407057
-0.0534338
0.00333045
-0.053752
-0.0226056
-0.00122015
-0.0298269
-0.0123772
-0.00428037
-0.00602532
-0.0120991
0.00199187
-0.00232507
-0.0111993
0.00433129
-0.00530184
-0.00876425
0.00384641
-0.00636197
-0.00424911
0.00401295
-0.00861245
-0.00478636
0.00348
-0.00301397
-0.00805381
-5.8739e-05
0.00327538
-0.00781545
0.00236258
-0.00267211
-0.00893417
0.0010309
-0.0138042
0.00697987
-0.00220841
-0.0166362
0.00714781
-0.00442581
-0.0189119
0.00764584
-0.00547266
-0.0237678
0.00700568
-0.0022546
-0.0533062
0.0187389
0.0106032
-0.0979118
-0.00810126
0.0521331
-0.110903
-0.0316904
0.0439608
-0.112367
-0.0418409
0.0424942
-0.107677
-0.0476818
0.0421696
-0.0989005
-0.0521471
0.0425138
-0.0862177
-0.0543604
0.0408531
-0.0692568
-0.0558561
0.0380754
-0.0495213
-0.0568328
0.0363313
-0.0238336
-0.0481203
0.0217959
-0.0376081
0.0133359
-0.0534639
0.0233855
-0.0079968
-0.0593014
0.0256455
-0.0203108
-0.0593887
0.0269727
-0.0274116
-0.0503957
0.0267396
-0.0362588
-0.0403388
0.0245918
-0.0351515
-0.0231565
0.0166356
-0.0342851
0.00923115
-0.0328263
0.0270255
0.0382233
-0.0566543
0.0507919
0.0496029
-0.0741352
0.0746584
0.0496973
-0.0743835
0.09486
0.0499249
-0.070951
0.110638
0.0471247
-0.0637591
0.118895
0.0397925
-0.0488722
0.116885
0.0330056
-0.0318057
0.101209
0.0301095
-0.0151541
0.0544846
0.0398863
0.00626505
0.0254657
0.0250531
0.00376946
0.02136
0.00418404
-0.000183004
0.0194518
0.000596005
0.00120956
0.0158763
0.00030313
0.00316251
0.00913757
-0.000245805
0.00688597
-0.000923056
0.00997285
-0.000961523
-0.00972154
0.00966426
0.000729819
-0.0131069
0.0113066
0.00257443
-0.0142362
0.0122685
0.0040817
-0.0135682
0.0119254
0.00433172
-0.0191564
0.0187285
0.00785366
-0.0286215
0.0248145
0.00382988
0.0236135
-0.0198734
-0.000191947
0.0168929
-0.0130503
-0.000393593
0.00843233
-0.00836634
-0.000556438
0.00774191
-0.00770227
-0.00109841
0.00736996
-0.00693697
0.00631435
-0.00647764
0.00344273
0.00545732
-0.000285669
0.00321812
0.00619247
0.00133005
0.0033092
0.00591633
0.00165676
0.00396859
0.00478461
0.0029101
0.0103176
0.0116025
-0.00116416
0.0194003
-0.00900917
-0.000119028
0.009089
-0.00420679
0.0144774
-0.0230502
-0.0114135
0.0434829
-0.0155275
-0.0057525
-0.00184882
-0.000979764
0.00358246
0.00486734
-0.00944529
0.006052
-0.00259932
0.003614
-0.00178373
-0.00826456
0.000436518
-0.00917431
-0.0102514
-0.0126375
0.0184337
-0.0048446
-0.0307353
0.00323222
0.00366731
0.00405893
-0.0175967
-0.0496482
0.0058937
0.0101483
0.00082475
-0.0581366
-0.0156921
0.0261925
-0.00423943
-0.0203968
0.00616709
-0.00326123
-0.0202876
0.00560866
-0.00227864
-0.0206491
0.0053057
-0.00090398
-0.0190307
0.00443663
-0.0149989
0.0040308
-0.021133
0.00227401
0.00403839
-0.0219447
-0.00133536
0.00262897
-0.0178834
8.48591e-05
0.0054568
0.00164799
-0.0465673
0.0354426
0.00832284
0.00804246
-0.114993
0.0351085
0.0514676
0.0208445
-0.125056
0.0473728
-0.0080547
-0.12587
0.054864
-0.021911
-0.118007
0.0646328
-0.0335802
-0.103043
0.0732848
-0.0420058
-0.0839437
0.0770015
-0.0470437
-0.0614351
0.0747565
-0.048407
-0.0366787
0.0744078
-0.0503753
0.0505451
-0.0329324
0.0589573
0.0458915
-0.0303194
0.0685261
0.051847
-0.0353012
0.0688262
0.0530342
-0.0269865
0.0633908
0.0507764
-0.020303
0.0440442
-0.00595581
-0.088267
0.0719091
0.00275535
-0.0980718
0.0755328
-0.0158603
-0.0995678
0.0799662
-0.0263783
-0.0882523
0.0791547
-0.0395655
0.0718213
-0.0406828
0.0880653
0.0943192
-0.0366976
0.0976759
0.101558
-0.0329435
0.094539
0.101023
-0.0188499
0.0819596
0.0960011
-0.00877972
0.0903179
0.00685535
-0.0812984
0.10338
0.0130085
-0.0945194
0.110439
-0.00213835
-0.0984223
0.115886
-0.0119206
-0.0905451
0.116738
-0.0240177
0.111256
-0.0314019
0.0870946
0.124108
-0.0275979
0.0947383
0.128152
-0.020035
0.0913029
0.126319
-0.00797465
0.0783639
0.12025
0.00219234
0.112036
0.016678
-0.0724914
0.116602
0.0193671
-0.0844481
0.125339
0.00593002
-0.0868012
0.131907
-0.00421438
-0.0788988
0.134297
-0.0150262
0.131233
-0.0223279
0.0682867
0.131944
-0.0150704
0.0761708
0.134674
-0.00923861
0.0750668
0.131082
0.000951895
0.0641145
0.124688
0.0106664
0.115413
0.0225952
-0.05262
0.105704
0.0297843
-0.0646681
0.11625
0.0195434
-0.064238
0.11983
0.00985904
-0.056304
0.125255
0.000522014
0.126152
-0.00408255
0.0352185
0.0191281
0.0613452
0.04463
0.0514961
0.0946605
0.0134418
0.0547824
0.0924227
0.0232459
0.0357657
0.0482703
0.0451857
0.0408711
0.0444923
0.0364923
0.0514922
-0.0123052
0.0268281
0.0153782
0.0143749
-0.0187405
0.0276465
0.0150795
-0.0152986
0.0311148
0.0135103
-0.0135603
0.0290337
0.0142047
-0.0400202
0.0275586
0.0407633
-0.000827147
0.0248414
-0.0284228
-0.00829256
0.0384946
0.00579451
-0.0370238
-0.00681439
0.0299605
0.00547762
-0.0370929
-0.0046037
0.0290833
-0.0365498
0.00508601
0.0258778
0.00346381
0.00382221
0.00514492
0.00493775
0.00714789
0.00682367
0.0076079
0.00903933
0.00892844
0.00839067
-0.00415359
-0.0199399
0.0156758
0.00266489
-0.000605943
0.000594568
0.00624474
0.00289801
0.000299029
-0.000536179
0.000355763
0.00408856
-0.00155119
-0.00243785
-0.00132438
0.00411382
-0.00165157
-0.000490898
0.00117386
0.0105945
0.012087
0.0316025
-0.0531933
0.00538643
0.0177916
-0.00424407
-0.00729643
0.0568184
0.00123969
-0.0150604
0.00284353
0.00351887
-0.00654835
0.00504645
0.00398607
-0.0062037
-0.0222064
0.00970912
0.0175035
-0.00939104
-0.0125422
-0.000316811
0.0179394
-0.00256977
0.0239153
-0.00790113
0.0462672
-0.0127124
0.0215454
0.0766085
-0.0247148
-0.0326919
0.00456441
0.0070675
0.0297665
0.00210623
-0.0175542
0.00801734
0.0136609
-0.00405104
-0.010652
0.00845236
0.0149642
-0.00404636
-0.0114595
0.0075576
0.0144419
-0.00236866
-0.011285
0.0061199
0.0127974
-0.0104366
-0.00102175
0.00366919
0.0105354
-0.00880063
0.000628618
0.00873586
-0.00790785
0.00276075
0.00843961
-0.00315188
0.00337742
0.00803841
-0.00279916
0.00314529
0.0151946
-0.00808694
0.000853476
0.0392782
-0.015959
-0.00834339
0.0728402
-0.0389031
0.00472248
0.0829266
-0.0276376
0.0167918
0.084496
-0.0234968
0.0210936
0.0819523
-0.0202466
0.0219178
0.0767858
-0.015835
0.0200986
0.0698906
-0.00875978
0.0147365
0.0605503
0.00163226
0.00678002
0.0420552
0.0173666
0.000200666
0.0149075
0.0412913
-0.0150616
-0.00523887
0.0551744
-0.0359303
-0.00172516
0.0503087
-0.0546943
0.0122088
0.0392419
-0.0540089
0.0153738
0.0263799
-0.0303033
0.00944783
0.0286945
-0.0233859
0.00201403
0.011225
-0.00400945
0.000309277
0.00374261
-0.00211482
-0.000531486
0.00173578
-0.000949603
-0.00214967
0.00323451
-0.00168585
0.00313598
-0.00228703
0.003292
0.00519893
-0.00149269
0.000360706
0.00654788
-0.0004575
0.00224583
-0.000170911
0.00654091
-0.00058111
0.00185439
0.0058906
-0.00390904
0.00259217
0.00581154
0.0061404
0.000956165
0.0118866
0.017008
-0.0110933
0.0157248
-0.0105984
0.0236356
0.0243239
-0.0303158
0.0434057
0.0146345
-0.0447663
0.0504938
0.0133302
-0.0630747
0.0461714
0.026359
-0.0788386
0.0292025
0.0268875
-0.0898139
0.00749006
0.0198794
-0.0952892
-0.00870553
0.0148401
-0.0986525
-0.0209003
0.0145377
-0.100827
-0.0294426
0.014828
-0.101002
-0.0351797
0.0141711
-0.0976151
-0.0395278
0.0117226
-0.0887345
-0.0439202
0.00649363
-0.03192
-0.040602
-0.0447491
-0.0113497
-0.0184397
-0.0104184
-0.0191927
0.00261186
-0.0153861
-0.00709909
0.00132034
-0.00576509
0.000261136
-0.00944257
0.000856578
-0.00379481
0.00165929
-0.00747889
0.000991021
-0.00880523
0.0158403
-0.000178195
-0.00795044
0.0158477
-0.00183853
-0.00614524
0.0139363
-0.00216217
-0.00203205
0.0198117
0.00570044
0.0204565
0.107056
-0.0445155
-0.00954715
0.00400621
0.0306899
0.00546683
0.00761677
0.010521
-0.000247254
0.00842659
0.0142915
0.000667654
0.0151511
0.00192661
-0.016244
-0.01977
-0.0126604
0.0308417
-0.0202658
0.0463111
-0.0178648
-0.0510826
0.106975
-0.0245957
-0.0521184
0.121928
-0.015001
-0.104469
-0.0443918
0.125745
-0.0301668
-0.0752725
-0.028591
-0.0174032
-0.0288445
-0.0142918
-0.00285424
-0.0403148
0.0170188
-0.00209177
-0.0241447
-0.0052606
0.0279697
-0.00542497
-0.00853959
0.0163697
-0.00783545
-0.00929667
0.014485
-0.00617308
-0.00945082
-0.0118295
-0.00272026
0.0501747
-0.0212442
-0.0125786
-0.00609285
0.000616778
-0.0119212
-0.00846932
-0.000105015
-0.00874232
-0.00713195
-0.00156426
-0.00497679
-0.004384
-0.00157299
-8.45169e-05
-0.000749924
-0.00375655
-0.000452079
-0.00986777
8.67912e-06
0.000443659
0.00127452
-0.00170004
0.00137458
-0.00206989
0.00335334
0.00175128
-0.00264446
0.0043734
0.00206067
-0.0019755
0.00371653
0.00175381
0.00267095
0.000705975
0.00450556
0.00263613
-0.00105965
0.00470221
0.00384488
-0.000400777
0.00455586
0.00492269
-0.000483988
0.00482574
-0.00074654
-0.00636002
0.010874
-0.00418271
-0.00619457
0.0108991
-0.00625357
-0.00533088
0.0100543
-0.00717856
0.00901251
-0.00778553
0.00656693
0.0118718
-0.00566718
0.00799127
0.0135996
-0.00506837
0.00817487
0.0151207
-0.00451169
0.014926
-0.0031157
-0.00918664
0.0168675
-0.00132443
-0.00931122
0.0178736
-0.00273442
-0.00965497
0.0177711
-0.00393216
0.0104805
-0.00400885
0.0128671
-0.000416541
0.0102322
-0.00167436
0.00749261
0.0232945
-0.00289707
0.00734611
0.0183095
-0.000379496
0.0173027
0.00073929
-0.00882984
0.0484827
-0.0252025
-0.00518894
0.0421711
-0.0276471
0.045009
-0.0282955
0.0293605
0.117709
-0.0575423
0.127559
-0.0450397
0.0507465
0.135003
-0.0386506
-0.0205864
0.0553839
0.134928
-0.0149365
0.0520046
0.130178
-0.00598634
0.115359
-0.0013458
-0.0502057
0.119835
0.00518117
-0.0559233
0.135163
-0.000351037
-0.0534591
0.14086
-0.00947973
-0.0448145
-0.0146176
0.139956
-0.128268
-0.0233068
0.133673
-0.029312
-0.0128376
-0.0511521
-0.114435
0.0286294
0.119421
-0.106111
-0.0667892
0.118441
-0.038412
-0.0495606
-0.0680876
-0.00478944
0.013867
-0.0135259
-0.0193431
-0.0195641
-0.00998401
-0.00602823
-0.0131281
-0.00290464
-0.0140175
-0.00406602
0.00257582
-0.0143912
-0.00818103
0.00317255
-0.0127509
-0.0106179
0.00252904
-0.00980505
-0.014508
0.00285933
-0.0107486
0.00114248
-0.0137747
0.0160588
-0.0137406
0.00061179
-0.00949157
-7.54457e-05
-0.0153557
0.014478
-0.00158017
-0.0167564
0.0116562
-0.00271399
-0.0180382
0.00966275
-0.0014594
0.0149527
-0.0254612
0.0110852
0.0252145
0.0187207
0.0207285
-0.0498474
0.0188585
0.016169
0.0178269
-0.0277715
0.0305738
0.0160516
0.0191702
-0.0470728
0.0213679
0.0134268
-0.0227441
0.0183948
0.0392803
-0.0422146
0.00893293
0.0152685
0.0201025
0.0463558
-0.0101124
-0.017167
0.0253872
0.0301194
-0.0202481
-0.0152842
-0.0172305
-0.0206054
0.00991566
-0.0182615
0.00381622
-0.0127833
-0.0179468
0.00437171
-0.0172363
-0.0122943
0.00330531
-0.0161259
-0.0141083
0.0022814
-0.01678
0.00209798
-0.0176641
-0.0170594
0.0174545
0.000372388
-0.0162716
-0.000773143
-0.0183768
0.0156407
-0.00199153
0.0130092
-0.00309235
0.0175532
0.0143295
-0.00279151
0.0174341
-0.00140827
0.0164827
0.0182446
-0.0170318
-0.000366626
0.0183904
0.00133141
-0.015123
0.00285713
-0.0154858
0.00100765
0.0175034
-0.0154122
-0.00120396
0.0144809
-0.00214799
-0.007529
-0.0160234
0.0235933
0.0168612
-0.00150587
-0.0143841
-0.017146
-0.0262045
-0.0242686
-0.00257983
-0.10524
0.103849
0.00754725
0.00121247
0.0182387
0.0127071
0.0239098
0.0146903
-0.020262
0.0176485
-0.00846247
0.0179626
-0.0122457
-0.00477335
0.00235883
-0.000511522
-0.00555091
0.00484852
-0.00582573
-0.00170733
-0.0021064
-0.00217467
-0.00379098
0.0131603
-0.000991125
-0.00316207
-0.00140336
-0.00338272
0.0163759
-0.0200717
-0.0115678
0.0154706
0.00688619
-0.0116117
0.017594
0.00911608
-0.0132776
0.0202071
0.00893538
-0.0142152
0.0229577
0.00891803
0.0301781
0.0119989
0.0098987
0.0134817
0.0125011
0.00949333
0.013267
0.00991685
0.00785686
0.0119187
0.00975408
0.00608085
0.0107999
0.00841604
0.0100001
0.00700068
-0.00220695
0.00342423
-0.0026213
0.00416473
-0.00329016
0.00476066
-0.00392753
0.0054054
0.00651446
0.00166191
0.00290356
0.00142646
0.000512702
0.000411073
0.00139444
-0.000146069
0.00198633
-0.00154799
-3.02284e-05
-0.000931382
0.00195177
0.000962513
-0.000330121
0.000790383
-0.000431048
0.00182914
-0.00111569
0.00121592
-0.000534391
0.000312332
-4.03058e-06
0.00202418
-0.00174504
2.98938e-05
0.0037938
-0.00055811
-0.00359321
0.0111541
-0.00638497
0.0035871
-0.0180224
0.00335111
0.0170622
0.0038955
-0.0181296
0.0204351
0.00714473
0.00294201
0.00676757
-0.0170686
0.020851
0.000293074
0.0059613
0.0197986
-0.0148415
-0.013627
0.014192
0.00503538
0.0109849
-0.00739252
0.0171982
-0.00766112
0.0172812
0.0109112
-0.000411591
0.0199859
0.00717852
0.00333913
-0.00115136
0.00152949
-0.00351865
0.000374309
-0.00229236
0.0126015
0.00135492
-0.0023372
0.000790524
0.000619221
-0.00077745
0.00151131
-0.000568122
0.00155996
-0.00039253
-0.00124343
0.00106656
-0.00207005
0.000898584
-0.000211063
-0.000225351
-0.00163512
-0.000455379
-0.00209488
0.000247582
-0.00185631
0.0014019
-0.00138107
0.000391612
0.000112135
-0.00188608
0.000170783
-0.00141571
-0.000660592
-0.00126544
-0.00240662
0.00114953
0.00124114
0.000228219
0.000474498
-0.00129753
0.000447945
-0.00168353
-0.00047996
0.000536442
0.000389948
0.000109499
6.88973e-05
-0.000659708
0.00104435
0.000304556
0.000313317
-0.000891373
-0.00161284
0.00281413
-0.000775721
0.000271643
0.000179707
-0.000888939
-0.00113152
0.00380331
0.00137567
-0.000361265
-0.00302936
0.0122796
-0.00264821
-0.00129483
-0.00174824
9.64455e-06
-0.000830153
0.000259229
-0.000726842
0.000329955
-4.17625e-05
-0.00112072
-4.57295e-05
0.00188224
-0.000307733
-0.00162356
-0.00132326
0.00321083
-0.000894427
-0.000172747
-0.00124646
0.00111749
0.00204256
0.000343897
0.000324694
0.000921064
-0.000130838
0.00191492
-0.00142036
-0.00017321
-0.00137143
0.00319926
8.27162e-05
-0.000651579
0.000198037
0.00286247
-0.00405459
0.0133105
-0.00112441
-0.0180491
0.000737868
0.00704894
0.0245549
-0.0164853
0.0219097
0.006405
-0.0177703
0.0225954
-0.00210738
-0.014898
-0.00439792
-0.0206841
-0.0218587
-0.00632434
-0.02189
-0.00574111
0.0151653
-0.00260656
0.0197858
0.0317839
0.03745
-0.023622
-0.101094
0.0666096
-0.0967387
0.0700896
-0.107816
0.071311
-0.017117
-0.110062
0.0687357
-0.0248718
-0.106607
0.0674971
-0.0296724
-0.0981344
0.066343
-0.0332037
-0.0860519
0.0636865
-0.0358101
-0.0686518
0.0577441
-0.0379524
-0.0488906
0.0533545
-0.0376846
-0.0387884
0.0427085
-0.0317621
0.00407367
-0.0299375
0.0165317
0.0323872
-0.0455127
0.0143681
0.0446408
-0.0431446
-0.00717926
0.0477033
-0.0265673
-0.034307
0.026689
-0.0510779
-0.0128948
0.0291985
-0.0597559
-0.0245209
0.0326962
-0.0620693
-0.0310612
0.0328482
-0.0556317
-0.038303
0.0313391
-0.04757
-0.035399
0.0268345
-0.0301613
-0.0336676
0.0157917
0.00336909
-0.0339691
0.0203205
0.04439
-0.0619782
0.0431895
0.0554461
-0.0790812
0.0684212
0.0546847
-0.0807363
0.0883565
0.0522693
-0.0730292
0.0993956
0.0477052
-0.059601
0.100245
0.0400641
-0.0417359
0.0944664
0.0341882
-0.0292198
0.0825696
0.0309484
-0.0197719
0.0466581
0.0378012
-0.00246326
0.0224874
0.0228919
0.00108238
0.0193347
0.00392475
-0.000876806
0.0179609
0.000511314
0.000759727
0.0147921
0.000145142
0.00291337
0.00853093
1.30903e-05
0.00614911
0.00906709
-0.000623783
0.00714639
0.00350182
-0.00165174
0.00453806
0.00388713
-0.0013259
0.00475782
0.00172499
-0.00200756
0.00573304
0.0019297
-0.00298378
0.00545115
0.00310947
-0.00290537
0.00432793
0.00337722
-0.00232356
0.00334322
0.00272698
-0.00179688
0.00550193
0.00165584
-0.00389156
0.0110053
0.00210314
-0.00782506
-0.0217543
0.0325521
-0.00041039
-0.0494207
0.0240896
0.00281771
-0.0628315
0.0119882
0.00058873
-0.0669566
0.00117677
0.00207543
-0.069095
-0.0127367
0.0139707
-0.0732077
-0.0279802
0.0311708
-0.0742472
-0.0433954
0.0434979
-0.071588
-0.057439
0.0538347
-0.0617658
-0.0701448
0.0593706
-0.0442571
-0.0802521
0.0617863
-0.0170805
-0.086756
0.058616
0.016568
-0.0827591
0.0481499
0.0319683
-0.0571261
0.0407645
0.0310476
-0.044055
0.0440533
0.0234272
-0.0345767
0.0412937
0.00940035
-0.0257041
0.0389038
-0.000935935
-0.0229758
0.0325102
-0.0348551
0.0331699
-0.050226
-0.0194941
0.0340671
-0.0573367
-0.0342549
0.0405549
-0.057777
-0.0490741
0.0486398
-0.0492892
-0.0641335
0.0547704
-0.025451
-0.0817375
0.0570006
0.00459938
-0.0833715
0.052445
0.0100712
-0.0476098
0.0412727
-0.007364
-0.0267226
0.043348
-0.0207813
-0.0282609
0.0408925
-0.00470969
-0.0601431
0.0433333
-0.0519803
0.0428829
-0.0148124
-0.0687059
0.00170315
0.0184649
-0.0547062
-0.039599
0.028426
-0.039305
0.000207672
0.0321489
-0.0481339
0.0167942
0.0304953
-0.0782505
0.03137
0.0410325
-0.126795
0.0319479
0.0541835
-0.123437
0.0276037
0.0567109
-0.096137
0.0285448
0.0516415
-0.0726213
0.0277109
0.0411265
-0.051701
0.027101
-0.0301331
0.0279671
-0.0368583
-0.0466038
0.0267539
-0.0389119
-0.0559611
0.0225085
-0.0332525
-0.0669595
0.0162748
-0.00476702
-0.0822793
-0.00433025
0.0355297
-0.117785
-0.00627632
0.0605703
-0.124266
0.0114641
0.0750546
-0.117742
0.0220042
0.0816242
-0.102993
0.0252823
0.0807593
-0.0839635
0.0263996
0.0768475
-0.0629361
0.0224701
0.0700471
-0.0409929
0.0188413
0.0658586
-0.0193058
0.00979954
0.0600924
0.000849751
0.00515172
0.0473503
0.0163848
0.00741888
0.023117
0.0333591
0.0140476
-0.00852291
0.00123717
0.0463076
0.0156616
0.00836173
-0.00324558
-0.0088452
-0.00494773
0.0150921
-0.00260392
-0.00302584
0.010641
-0.00215056
0.00691767
-0.000444212
0.014496
-0.000568524
-0.00577942
0.00239165
-0.00663475
0.0269683
0.00283223
-0.0087704
-0.00768442
-0.00106576
0.00149726
-0.00797743
-0.00337037
0.00143767
-0.0066667
-0.00458215
0.000585171
-0.00495685
-0.00537624
0.000339393
0.0021398
-0.00388964
-0.00053429
0.00481302
-0.00104066
-0.00198127
-0.000320332
-0.000396133
-0.00126874
-0.000734016
-0.000629015
-0.000569332
-0.000575419
0.000408169
-0.00110047
-0.00338909
0.0131698
-0.00546994
-0.011895
0.00298176
0.022871
-0.0077267
-0.00997103
0.0657072
-0.0314443
-0.0293138
0.0165292
0.0643626
-0.0244969
0.0277514
0.0503662
-0.0192765
0.0329402
0.014559
-0.0108147
0.0477596
-0.02497