/*--------------------------------*- C++ -*----------------------------------*\
| =========                 |                                                 |
| \\      /  F ield         | OpenFOAM: The Open Source CFD Toolbox           |
|  \\    /   O peration     | Version:  v2012                                 |
|   \\  /    A nd           | Website:  www.openfoam.com                      |
|    \\/     M anipulation  |                                                 |
\*---------------------------------------------------------------------------*/
FoamFile
{
    version     2.0;
    format      ascii;
    class       volVectorField;
    location    "1115";
    object      U;
}
// * * * * * * * * * * * * * * * * * * * * * * * * * * * * * * * * * * * * * //

dimensions      [0 1 -1 0 0 0 0];


internalField   nonuniform List<vector> 
18258
(
(-0.177009 0.117967 0.137366)
(-0.0520654 0.246643 0.156992)
(-0.105055 0.215257 0.0961248)
(-0.0381202 0.0706778 0.0838231)
(-0.226485 0.203495 0.017409)
(-0.15911 0.362592 0.0159758)
(-0.222912 0.0450083 0.0533472)
(-0.341362 -0.0523995 0.074794)
(-0.448676 -0.105348 0.107922)
(-0.535513 -0.159316 0.145504)
(-0.621248 -0.216918 0.179762)
(-0.68754 -0.271289 0.309365)
(-0.678515 -0.334037 0.357123)
(-0.622037 -0.445292 0.385761)
(-0.487775 -0.542695 0.3694)
(-0.205117 -0.586515 0.34013)
(0.0731774 -0.373864 0.288071)
(0.0788918 -0.165402 0.298094)
(-0.125377 -0.0784139 0.235665)
(-0.393781 -0.273869 0.115533)
(-0.134688 -0.523301 0.288455)
(-0.189775 -0.363082 0.405836)
(-0.291695 -0.733709 0.299023)
(-0.349315 -0.774637 0.262432)
(-0.126175 -0.708973 0.139142)
(0.00903386 -0.644824 0.186839)
(-0.0130696 -0.337289 0.421461)
(0.176457 -0.111402 0.800687)
(0.300211 -0.0945539 0.886138)
(0.317772 0.0586521 0.902213)
(0.320524 0.189378 0.799039)
(0.163743 0.302353 0.0677006)
(0.0864334 0.117479 -0.436837)
(0.0236416 0.0694004 -0.733404)
(-0.0579816 0.0711602 -0.904412)
(-0.0488054 0.0687527 -1.0846)
(-0.0633585 0.068495 -1.22766)
(-0.0909273 0.0870854 -1.32492)
(-0.130222 0.0776222 -1.37399)
(-0.175807 0.0828901 -1.36032)
(-0.22447 0.0687859 -1.27621)
(-0.269849 0.0771137 -1.12219)
(-0.307554 0.0716583 -0.911019)
(-0.337949 0.0713795 -0.655134)
(-0.348864 0.0726215 -0.359584)
(-0.334473 0.0685092 -0.159375)
(-0.167512 0.144311 -0.204152)
(0.328825 -0.0915938 -0.140983)
(0.584387 -0.131003 -0.163682)
(0.648822 -0.110318 -0.171438)
(0.768991 -0.135274 -0.179203)
(0.802652 -0.134331 -0.195685)
(0.503993 -0.00932645 -0.257923)
(0.259048 -0.13853 -0.218913)
(0.11335 -0.0431205 -0.159083)
(0.28183 -0.0100563 -0.169139)
(0.53669 -0.00268833 -0.173673)
(0.79093 -0.0299526 -0.177851)
(1.09144 -0.0345159 -0.175578)
(1.42727 -0.0485952 -0.185009)
(1.76197 -0.0643066 -0.183376)
(2.04626 -0.0808667 -0.16647)
(2.24712 -0.0925552 -0.138029)
(2.34757 -0.0986756 -0.102417)
(2.3546 -0.0960019 -0.0678198)
(2.29461 -0.088328 -0.0411295)
(2.20132 -0.0818242 -0.0244304)
(2.10903 -0.0757011 -0.0176284)
(2.03969 -0.0668952 -0.0185791)
(1.99409 -0.0640093 -0.0231944)
(1.96975 -0.0588505 -0.0255775)
(1.95918 -0.0499288 -0.0200002)
(1.94488 -0.0394026 -0.00294946)
(1.90136 -0.0245565 0.0246631)
(1.81366 -0.0074856 0.0542632)
(1.69252 0.00993921 0.0776218)
(1.57153 0.0221753 0.0804867)
(1.4788 0.0311973 0.0758243)
(1.40067 0.0383354 0.071084)
(1.33835 0.0512821 0.0636562)
(1.28747 0.0579328 0.0655259)
(1.19384 0.0449084 0.0792686)
(1.09686 0.0195217 0.111228)
(1.01412 0.00120667 0.128938)
(0.907191 -0.0204391 0.12188)
(0.763232 0.017017 0.146957)
(0.642333 0.0818241 0.13397)
(0.518725 0.100679 0.134998)
(0.381779 0.11827 0.119407)
(0.225132 0.127605 0.0974376)
(0.120324 0.190078 0.0927664)
(0.122744 0.00982621 0.198217)
(0.164308 -0.10084 0.144808)
(0.113351 -0.129564 0.0408832)
(0.104938 -0.115259 -0.140824)
(0.21721 -0.210516 -0.3691)
(0.263275 -0.233367 -0.554476)
(0.204821 -0.14038 -0.728963)
(0.106537 -0.0823951 -0.71505)
(0.0363888 0.0557106 -0.493256)
(-0.0867567 0.22962 -0.166654)
(-0.215318 0.195956 0.178606)
(-0.234624 0.0653716 0.152831)
(-0.340467 0.0159165 0.168414)
(-0.272015 0.139759 0.176925)
(-0.245847 0.287263 -0.0509255)
(-0.106237 0.16182 -0.404379)
(0.0651589 0.00322316 -0.585595)
(0.334883 -0.0947507 -0.631614)
(0.496961 -0.230536 -0.48842)
(0.352107 -0.210956 -0.278886)
(0.271973 -0.19196 -0.0995011)
(0.283189 -0.186562 0.0408539)
(0.281074 -0.140017 0.1612)
(0.226221 -0.0990193 0.192398)
(0.397488 -0.0811318 0.181723)
(0.536615 -0.0630309 0.177371)
(0.589047 -0.0517633 0.165341)
(0.701106 -0.0785027 0.161694)
(0.733142 -0.133519 0.133671)
(0.601479 -0.13411 0.136299)
(0.454926 -0.15164 0.140714)
(0.461813 -0.185741 0.036708)
(0.611251 -0.162756 0.0526918)
(0.736675 -0.162017 0.0502515)
(0.905207 -0.14166 0.0821774)
(1.08871 -0.10988 0.111735)
(1.18984 -0.0777208 0.149385)
(1.20904 -0.0104975 0.140898)
(1.24618 -0.00886725 0.12123)
(1.336 -0.00679119 0.140761)
(1.37808 -0.00148429 0.130568)
(1.3696 -0.0123631 0.159529)
(1.3291 -0.0481296 0.194919)
(1.32341 -0.0510742 0.191822)
(1.28629 -0.0619878 0.153042)
(1.27962 -0.0602014 0.13621)
(1.259 -0.0477976 0.109409)
(1.25048 -0.0457431 0.111401)
(1.20172 0.00435154 0.1102)
(1.19466 0.0277588 0.138698)
(1.07742 0.1367 0.27215)
(1.22638 0.0528319 0.254677)
(1.21833 0.0200543 0.159665)
(1.26748 -0.0207721 0.129152)
(1.27956 -0.024985 0.120056)
(1.28969 -0.0381739 0.145257)
(1.30856 -0.0414505 0.184466)
(1.35119 -0.0366652 0.218422)
(1.38703 -0.0366251 0.223356)
(1.42387 -0.0126426 0.184338)
(1.43736 -0.00172849 0.138876)
(1.51356 -0.00636931 0.152014)
(1.61163 -0.0165834 0.160068)
(1.75108 -0.0315188 0.144352)
(1.88337 -0.0541259 0.0494769)
(1.96485 -0.0755986 -0.0709605)
(1.98423 -0.0904707 -0.164187)
(1.96672 -0.0965077 -0.200523)
(1.9503 -0.0968625 -0.194559)
(1.96039 -0.0912578 -0.174879)
(2.00732 -0.0827719 -0.144568)
(2.08867 -0.0703654 -0.10809)
(2.19964 -0.0601738 -0.084379)
(2.31353 -0.0598249 -0.113258)
(2.39007 -0.0608935 -0.173561)
(2.39241 -0.0584762 -0.277277)
(2.28629 -0.0502013 -0.392323)
(2.0707 -0.0425178 -0.483581)
(1.77021 -0.0367055 -0.539961)
(1.42631 -0.0315557 -0.548723)
(1.08025 -0.0193079 -0.527574)
(0.7917 -0.024366 -0.459322)
(0.536073 -0.0158936 -0.415524)
(0.282349 -0.0215403 -0.386947)
(0.108869 -0.0407111 -0.360926)
(0.101954 -0.0425214 -0.637503)
(0.0771213 -0.037555 -0.873594)
(0.0504801 -0.0394179 -1.05814)
(0.0116808 -0.0406454 -1.17689)
(-0.023376 -0.0283238 -1.21687)
(-0.0599352 -0.0158795 -1.16971)
(-0.0936388 0.00293033 -1.04127)
(-0.119053 0.0258987 -0.826113)
(-0.121588 0.0805908 -0.563964)
(-0.145699 0.132952 -0.0563078)
(-0.191391 0.0275952 0.562483)
(-0.20739 -0.0328 0.749041)
(-0.226057 -0.00143306 0.918338)
(-0.231274 -0.0439099 1.06145)
(-0.317114 -0.103002 1.12385)
(-0.370524 -0.108604 1.13798)
(-0.368589 -0.230955 1.0007)
(-0.295334 -0.249414 0.769251)
(-0.4579 -0.663989 0.686525)
(-0.485386 -0.541116 0.703973)
(-0.413676 -0.409499 0.830657)
(-0.550361 -0.7633 0.853256)
(-0.685953 -0.829351 0.601831)
(-0.475957 -0.751985 0.798206)
(-0.436782 -0.57348 0.73964)
(-0.7853 -0.523761 0.745325)
(-0.904903 -0.407274 0.853929)
(-0.53159 -0.704528 0.817622)
(-0.441276 -0.576848 0.658535)
(-0.320219 -0.316577 0.398487)
(-0.298744 -0.177376 0.392037)
(-0.281623 -0.141787 0.344703)
(-0.23236 0.118042 0.106023)
(-0.162842 0.293131 -0.421357)
(-0.153003 0.181679 -0.640082)
(-0.13215 0.0267013 -0.915771)
(-0.0869116 -0.0579638 -1.08682)
(-0.0289155 -0.0700331 -1.2346)
(0.0378499 -0.102565 -1.26922)
(0.0973688 -0.0990404 -1.23419)
(0.171581 -0.109842 -1.12034)
(0.215549 -0.123833 -0.920487)
(0.259676 -0.147214 -0.705974)
(0.24874 -0.139725 -0.398975)
(0.416594 -0.0532172 -0.638267)
(0.762379 -0.118608 -0.460136)
(0.711879 -0.10848 -0.417547)
(0.60601 -0.0724456 -0.412819)
(0.520613 -0.106555 -0.424829)
(0.0948226 -0.110428 -0.540608)
(0.152455 -0.121166 -0.937058)
(0.241131 -0.227022 -1.08873)
(0.332906 -0.284756 -0.973094)
(0.391371 -0.354279 -0.539576)
(0.200888 0.00968215 0.164407)
(0.260753 0.104982 0.171899)
(0.428673 -0.325282 0.33337)
(0.51573 -0.528676 0.503619)
(0.544915 -0.521484 0.552941)
(0.412473 -0.234046 0.675117)
(0.471683 -0.336257 0.567146)
(0.487132 -0.607257 0.55307)
(0.702986 -0.670707 0.321528)
(0.745275 -0.485338 0.459643)
(0.796081 -0.344826 0.600158)
(0.231329 -0.223503 0.573307)
(-0.242509 -0.266654 0.822126)
(-0.180672 -0.191101 0.672139)
(-0.676342 -0.298373 0.814539)
(-0.475491 -0.178385 0.687557)
(-0.324827 -0.000919989 0.534931)
(-0.219131 0.171958 -0.295654)
(-0.193374 -0.0475866 -0.619538)
(-0.0571202 -0.170096 -1.10099)
(0.10339 -0.159446 -1.25011)
(0.273795 -0.0894888 -1.11853)
(0.428192 -0.10725 -0.704212)
(0.49346 -0.073802 -0.631286)
(0.48328 -0.0420922 -0.624032)
(0.52195 -0.0878779 -0.655147)
(0.575142 -0.12066 -0.747821)
(0.388324 -0.0417228 -0.695068)
(0.350632 -0.0786272 -0.67355)
(0.128891 -0.112967 -0.678277)
(-0.111568 -0.0500886 -0.589136)
(0.286412 -0.000885161 -0.60142)
(0.342053 0.0102689 -0.625326)
(0.628367 -0.101578 -0.661974)
(0.575065 -0.0988554 -0.413462)
(0.266375 0.0667854 -0.390612)
(0.280167 0.0507417 -0.28918)
(-0.306492 -0.0445556 0.0832383)
(-0.307408 0.141811 -0.020823)
(-0.282275 -0.0263667 -0.456054)
(0.0830065 -0.199735 -0.583129)
(0.355135 -0.278205 -0.573879)
(0.718318 -0.343727 -0.409544)
(0.805442 -0.416973 -0.379793)
(0.765673 -0.289976 -0.296991)
(0.807629 -0.363913 -0.220746)
(0.822995 -0.484963 -0.285871)
(0.733917 -0.428593 -0.281528)
(0.709411 -0.302505 -0.335397)
(0.738263 -0.250452 -0.344761)
(0.784637 -0.310112 -0.213869)
(0.797274 -0.365848 -0.16234)
(0.888206 -0.464602 -0.157335)
(1.1559 -0.630443 -0.118145)
(1.61564 -0.725586 -0.0992181)
(1.99363 -0.671522 -0.0383708)
(2.15075 -0.489804 0.0472159)
(2.07134 -0.290759 0.0954019)
(1.90626 -0.162459 0.10316)
(1.80866 -0.0937717 0.0996783)
(1.7118 0.00201946 0.0992396)
(1.57428 0.0909197 0.0914081)
(1.43691 0.109801 0.0484215)
(1.33233 0.0602835 0.0277384)
(1.24251 -0.00169609 0.0221397)
(1.14077 -0.0511566 0.0239678)
(1.05671 -0.0762041 0.022196)
(0.998919 -0.0603067 0.0179451)
(0.823116 -0.10817 -0.0229306)
(0.717569 0.00473345 0.0111621)
(0.634146 0.0713745 0.0100472)
(0.498354 0.0265433 0.00770995)
(0.359961 -0.0582993 -0.0125363)
(0.139328 -0.145471 -0.0317428)
(0.225879 -0.307424 0.00103213)
(0.353493 -0.0817196 0.0120988)
(-0.00231737 -0.229868 -0.0092008)
(0.0431682 -0.545733 -0.0504061)
(0.0121408 -0.712308 -0.0525266)
(-0.00791254 -0.87632 -0.0531667)
(-0.0258785 -1.0064 -0.0648618)
(-0.03592 -1.1024 -0.0956725)
(-0.046406 -1.15686 -0.104954)
(-0.0579292 -1.21427 -0.118111)
(-0.0881825 -1.27615 -0.134133)
(-0.113321 -1.32101 -0.14947)
(-0.13733 -1.35489 -0.162401)
(-0.159386 -1.37669 -0.17347)
(-0.178445 -1.38813 -0.183137)
(-0.193867 -1.38981 -0.189852)
(-0.206013 -1.38271 -0.193705)
(-0.216036 -1.36799 -0.193824)
(-0.224589 -1.34609 -0.191908)
(-0.232874 -1.31565 -0.186467)
(-0.24055 -1.27477 -0.178114)
(-0.246015 -1.22051 -0.165071)
(-0.243922 -1.15133 -0.147328)
(-0.191009 -1.07181 -0.126942)
(-0.141272 -0.969108 -0.112589)
(-0.165816 -0.868584 -0.0795107)
(-0.189833 -0.75461 -0.0819213)
(-0.205045 -0.543134 -0.085523)
(-0.273767 -0.450232 -0.0920132)
(0.022456 0.0532244 -0.116218)
(-0.350834 -0.308309 0.0251336)
(-0.231724 -0.617386 -0.0546287)
(-0.270434 -0.0992587 -0.0110967)
(-0.458066 -0.182471 0.0645697)
(-0.678751 -0.198691 0.082279)
(-0.842207 -0.209301 0.114102)
(-0.953645 -0.223184 0.14424)
(-1.03438 -0.232599 0.203842)
(-1.11769 -0.244401 0.245386)
(-1.18687 -0.244324 0.302138)
(-1.20055 -0.248584 0.336407)
(-1.17363 -0.250379 0.366309)
(-1.10682 -0.249127 0.394594)
(-0.996234 -0.243498 0.42276)
(-0.84192 -0.230554 0.454161)
(-0.668434 -0.206369 0.493588)
(-0.421375 -0.147319 0.542565)
(-0.13902 -0.118326 0.566324)
(-0.157913 0.0286088 0.822325)
(-0.16164 0.0830594 1.04283)
(-0.161478 0.11531 1.11296)
(-0.162694 0.164408 1.02192)
(-0.165718 0.153294 0.839564)
(-0.151845 0.13114 0.569276)
(-0.122029 0.143578 0.287195)
(-0.223612 0.440976 0.372073)
(-0.505224 0.468514 0.335592)
(-0.690169 0.481327 0.339856)
(-0.915261 0.466256 0.333462)
(-1.09783 0.425659 0.309452)
(-1.22549 0.3542 0.26666)
(-1.28171 0.274114 0.219424)
(-1.26478 0.206754 0.182064)
(-1.23216 0.148446 0.15876)
(-1.18944 0.115693 0.140802)
(-1.1 0.0929296 0.0904918)
(-0.958388 0.0455323 0.0701095)
(-0.767176 -0.0204165 0.0596347)
(-0.500802 -0.113753 0.0191173)
(-0.253239 -0.207798 -0.018978)
(-0.27438 -0.197622 -0.0660405)
(-0.318408 -0.176982 0.00860324)
(-0.31459 -0.174175 0.0598698)
(-0.272765 -0.156645 0.151138)
(-0.380768 -0.233774 0.118743)
(-0.422604 -0.296931 0.118778)
(-0.326713 -0.288023 0.177289)
(-0.269656 -0.215168 0.0454201)
(-0.140593 -0.10086 -0.0260596)
(-0.140756 -0.0768307 -0.00759415)
(-0.138514 -0.0741785 -0.0359023)
(-0.169353 -0.0556814 -0.0683154)
(-0.167877 -0.501457 -0.149077)
(-0.12622 -0.479614 -0.138763)
(-0.110597 -0.447029 -0.0960985)
(-0.100369 -0.423938 -0.145922)
(-0.266469 -0.538048 -0.0314854)
(-0.276309 -0.575505 -0.0257311)
(-0.283769 -0.631871 -0.0839127)
(-0.337268 -0.582795 -0.0199734)
(-0.340146 -0.529978 0.0552224)
(-0.301533 -0.359134 0.0854714)
(-0.444339 -0.317025 0.114951)
(-0.361514 -0.431785 0.040431)
(-0.347379 -0.522661 0.0139301)
(-0.377851 -0.508379 -0.0237543)
(-0.428425 -0.39446 0.0321586)
(-0.497191 -0.34657 0.0731584)
(-0.528784 -0.254875 0.164105)
(-0.591052 -0.215454 0.241771)
(-0.679989 -0.197538 0.256456)
(-0.57642 -0.206693 0.212015)
(-0.516911 -0.18774 0.181631)
(-0.545266 -0.184885 0.118243)
(-0.539852 -0.171933 0.0922101)
(-0.496631 -0.184059 0.000945752)
(-0.762098 -0.0864366 0.0647073)
(-0.972094 -0.00508657 0.08984)
(-1.07959 0.0525188 0.103761)
(-1.12874 0.0754613 0.138454)
(-1.16615 0.0360899 0.23833)
(-1.25059 0.0693162 0.267644)
(-1.31616 0.119781 0.349643)
(-1.32947 0.171327 0.432525)
(-1.27171 0.222456 0.525179)
(-1.14635 0.261377 0.604934)
(-0.973488 0.281415 0.64948)
(-0.773728 0.283258 0.658475)
(-0.622053 0.288354 0.645336)
(-0.341837 0.272294 0.645876)
(-0.436045 0.244232 0.876129)
(-0.468387 0.226709 1.00428)
(-0.46156 0.17894 1.08258)
(-0.442502 0.122846 1.01467)
(-0.441091 0.0579891 0.798356)
(-0.711943 -0.00548269 0.744772)
(-0.722424 0.0709962 0.945412)
(-0.740903 0.116825 1.02418)
(-0.745317 0.163858 0.980142)
(-0.694731 0.198446 0.873055)
(-0.836862 0.186093 0.86292)
(-0.87915 0.145659 0.965574)
(-0.88241 0.0881161 1.00161)
(-0.873013 0.0417085 0.926865)
(-0.866905 -0.0392628 0.707263)
(-1.00975 -0.0604655 0.676085)
(-1.02401 0.0203767 0.90159)
(-1.03666 0.0694522 0.966808)
(-1.04451 0.121943 0.944839)
(-1.01917 0.173981 0.854883)
(-1.16279 0.163128 0.805075)
(-1.16363 0.110622 0.893618)
(-1.14717 0.0571254 0.915268)
(-1.13029 0.00638996 0.859934)
(-1.11049 -0.0731887 0.640376)
(-1.17049 -0.0837875 0.595797)
(-1.19579 -0.00623744 0.797393)
(-1.22196 0.043658 0.840829)
(-1.25117 0.0919497 0.812442)
(-1.26872 0.141609 0.71795)
(-1.31858 0.11111 0.611166)
(-1.29007 0.0689915 0.710131)
(-1.25167 0.025062 0.747974)
(-1.21637 -0.02173 0.71692)
(-1.18643 -0.0935501 0.540083)
(-1.15321 -0.104762 0.473008)
(-1.18123 -0.0413775 0.621864)
(-1.22004 0.00026106 0.641386)
(-1.27442 0.0392828 0.607235)
(-1.30757 0.0744833 0.509956)
(-1.22482 0.0358921 0.415043)
(-1.18786 0.00298423 0.500805)
(-1.12805 -0.0321308 0.531763)
(-1.08582 -0.0600835 0.52063)
(-1.03963 -0.111818 0.387041)
(-0.918778 -0.120191 0.315387)
(-0.923016 -0.109406 0.358402)
(-0.972353 -0.0803885 0.438613)
(-0.956279 -0.0870334 0.425427)
(-0.927543 -0.102588 0.395191)
(-1.00437 -0.068349 0.381981)
(-0.99626 -0.0629179 0.308)
(-1.00108 -0.0390283 0.283343)
(-1.04436 -0.0269951 0.209619)
(-1.03943 -0.00929239 0.202871)
(-0.806642 -0.104997 0.145692)
(-0.819515 -0.12508 0.158295)
(-0.788373 -0.128306 0.216747)
(-0.824116 -0.141376 0.249921)
(-0.610019 -0.281604 0.133261)
(-0.556969 -0.291355 0.11504)
(-0.503469 -0.326762 0.132712)
(-0.420083 -0.39948 0.116278)
(-0.396742 -0.383957 0.149792)
(-0.487935 -0.284176 0.165624)
(-0.605902 -0.239014 0.184078)
(-0.615253 -0.267706 0.0969684)
(-0.513421 -0.377792 0.0441269)
(-0.439463 -0.460007 0.028272)
(-0.397144 -0.526234 0.0580463)
(-0.383784 -0.697824 0.122535)
(-0.386956 -0.663268 0.128292)
(-0.405339 -0.380322 0.107309)
(-0.408345 -0.536447 0.0817123)
(-0.399186 -0.601883 0.0440123)
(-0.215742 -0.788112 -0.158712)
(-0.193408 -0.793933 -0.25957)
(-0.11534 -0.703771 -0.369141)
(-0.0785088 -0.623888 -0.385097)
(-0.0451291 -0.588742 -0.347441)
(-0.0137144 -0.555859 -0.301155)
(0.0314571 -0.501863 -0.231873)
(0.124042 -0.455419 -0.108828)
(0.124601 -0.580079 -0.121819)
(0.116699 -0.63652 -0.120105)
(0.0847451 -0.694486 -0.157534)
(0.0921269 -0.749132 -0.155678)
(0.100247 -0.805716 -0.174822)
(0.117959 -0.834097 -0.166901)
(0.125956 -0.840976 -0.152723)
(0.126158 -0.827342 -0.130203)
(0.117523 -0.791513 -0.0959199)
(0.103913 -0.735303 -0.0427274)
(0.037995 -0.656021 0.0329897)
(0.00144671 -0.547708 0.152203)
(0.014275 -0.302226 0.359015)
(-0.14549 0.00866385 0.448731)
(-0.364698 0.0942179 0.35085)
(-0.390978 -0.0405112 0.25608)
(-0.218654 -0.172265 0.252661)
(-0.178487 -0.188323 0.26893)
(-0.155753 -0.177223 0.214178)
(-0.0868431 -0.140643 0.205433)
(0.00245901 -0.0241052 0.068476)
(-0.0384757 0.112414 0.0805144)
(-0.0815539 0.150774 0.0802213)
(-0.0502829 0.214904 0.169854)
(-0.00934613 0.183618 0.189884)
(0.0139925 0.0472421 0.141681)
(-0.0411493 -0.0241564 0.22559)
(0.0253996 0.0967749 0.321746)
(-0.000739656 -0.0616902 0.285663)
(0.0793123 0.144824 0.246132)
(0.0922478 -0.0255919 0.227382)
(-0.0190471 -0.258066 0.455968)
(0.0523186 -0.361861 0.544251)
(0.172974 -0.507597 0.513078)
(0.165257 -0.695861 0.350053)
(0.0747953 -0.81919 0.142591)
(0.0589935 -0.890648 -0.00846182)
(0.0651922 -0.924522 -0.119785)
(0.0631898 -0.950533 -0.197763)
(0.0600911 -0.964964 -0.248629)
(0.0519785 -0.962987 -0.279227)
(0.0418452 -0.942958 -0.292527)
(0.0292729 -0.905297 -0.289336)
(0.0236317 -0.830544 -0.249601)
(0.00734401 -0.784798 -0.328719)
(0.0435041 -0.703978 -0.225235)
(0.0475351 -0.653786 -0.211308)
(0.0447443 -0.636318 -0.231999)
(0.00463777 -0.702268 -0.325126)
(-0.0225238 -0.741827 -0.382882)
(-0.0572909 -0.777103 -0.410583)
(-0.073223 -0.843846 -0.401465)
(-0.132009 -0.904314 -0.345762)
(-0.093999 -0.968804 -0.331622)
(-0.088963 -0.979509 -0.372908)
(-0.0537599 -0.918044 -0.417879)
(-0.0435374 -0.868077 -0.431753)
(-0.0177102 -0.825956 -0.404142)
(-0.00959352 -0.869385 -0.341064)
(-0.0393203 -0.901612 -0.373992)
(-0.0560328 -0.948268 -0.39638)
(-0.0237602 -0.99139 -0.405668)
(-0.048663 -1.05981 -0.420307)
(-0.066576 -1.04253 -0.424069)
(-0.093459 -0.920347 -0.344847)
(-0.186563 -0.761742 -0.224333)
(-0.198427 -0.613883 -0.0409037)
(-0.100013 -0.733371 -0.196922)
(-0.0796403 -0.839442 -0.259458)
(-0.059368 -0.928725 -0.323352)
(-0.0608071 -0.946167 -0.334092)
(-0.027693 -0.829306 -0.380887)
(-0.0238572 -0.724398 -0.337172)
(-0.0319846 -0.542043 -0.253791)
(-0.0160173 -0.353233 -0.163051)
(0.0336715 -0.0907429 -0.208346)
(-0.248161 -0.433723 0.0733354)
(-0.329224 -0.461311 0.0264344)
(0.221348 -0.118421 -0.244308)
(-0.172386 -0.247348 0.0433015)
(-0.217921 -0.266461 -0.116903)
(-0.25827 -0.268735 -0.10352)
(-0.208436 -0.281573 -0.0215)
(0.0811422 0.140801 -0.219317)
(0.102713 0.0596576 -0.232011)
(0.10094 -0.000275041 -0.26085)
(0.0964491 -6.62762e-05 -0.265831)
(-0.0798104 -0.429633 -0.201525)
(-0.132878 -0.449864 -0.222634)
(-0.186097 -0.458235 -0.20668)
(-0.249126 -0.445032 -0.169285)
(-0.168998 -0.547402 -0.184334)
(-0.12682 -0.55924 -0.257351)
(-0.0962125 -0.565541 -0.291534)
(-0.0605166 -0.553772 -0.291805)
(-0.0506808 -0.742723 -0.349121)
(-0.0816043 -0.757351 -0.332146)
(-0.106382 -0.769652 -0.281875)
(-0.147221 -0.759924 -0.194856)
(-0.134545 -0.82169 -0.182429)
(-0.128835 -0.88264 -0.200418)
(-0.0981912 -0.905297 -0.297559)
(-0.0727091 -0.872383 -0.373935)
(-0.0491807 -0.852186 -0.400224)
(-0.0768138 -0.967817 -0.370924)
(-0.112216 -0.989485 -0.335913)
(-0.138178 -1.00973 -0.28375)
(-0.137248 -1.09246 -0.346954)
(-0.080138 -1.06683 -0.399251)
(-0.0725556 -1.14448 -0.440878)
(-0.0493755 -1.12297 -0.473462)
(-0.026921 -1.11396 -0.458685)
(-0.00332294 -1.04208 -0.415345)
(0.0120764 -1.07426 -0.406513)
(-0.0127061 -1.1526 -0.46961)
(-0.0398494 -1.17966 -0.494166)
(-0.0685819 -1.2078 -0.462969)
(-0.131596 -1.22835 -0.379161)
(-0.134941 -1.16601 -0.369236)
(-0.283707 -1.04626 -0.225316)
(-0.45745 -1.14576 -0.0769195)
(-0.463861 -1.09979 -0.0674576)
(-0.416144 -1.04542 -0.064766)
(-0.302973 -1.0359 -0.0738376)
(-0.255803 -0.967162 -0.0640502)
(-0.309303 -0.944651 -0.0576392)
(-0.342418 -0.848811 -0.0422129)
(-0.378163 -0.713499 -0.0378808)
(-0.473841 -0.626776 -0.0367028)
(-0.409954 -0.401447 -0.0340856)
(-0.464976 -0.660739 -0.00582087)
(-0.316806 -0.457601 0.0245941)
(-0.638482 -0.39881 0.00546839)
(-0.815357 -0.379478 0.0601659)
(-0.917802 -0.384658 0.0846567)
(-0.967746 -0.397469 0.124402)
(-0.979769 -0.525586 0.0977998)
(-0.940201 -0.689702 0.0653887)
(-0.923929 -0.75049 0.0525071)
(-0.87447 -0.848808 0.0364523)
(-0.858864 -0.896005 0.0304717)
(-0.821027 -0.928259 0.00761549)
(-0.703756 -0.967854 -0.0230105)
(-0.592582 -1.00234 -0.0419981)
(-0.626843 -0.952941 -0.0172029)
(-0.485055 -0.97191 -0.0307092)
(-0.502956 -0.893608 -0.0301253)
(-0.530567 -0.797143 -0.0232741)
(-0.559396 -0.730911 -0.0194605)
(-0.686476 -0.712568 -0.00978296)
(-0.675029 -0.598259 -0.00775417)
(-0.824149 -0.577414 0.0303621)
(-0.918439 -0.559848 0.0504297)
(-0.88138 -0.69731 0.0231627)
(-0.800452 -0.704792 0.0122104)
(-0.777592 -0.790001 0.00229246)
(-0.660989 -0.798412 -0.0107612)
(-0.635848 -0.882807 -0.0170305)
(-0.748557 -0.866451 -0.00512736)
(-0.825568 -0.850886 0.00445233)
(-0.863174 -0.77329 0.0135235)
(-0.801641 -0.739156 -0.0117526)
(-0.624094 -0.612253 0.00194021)
(-0.847151 -0.659871 0.0117082)
(-0.868048 -0.518528 0.0520934)
(-0.870455 -0.379906 0.0581748)
(-0.843268 -0.282297 0.12168)
(-0.832271 -0.302315 0.0765773)
(-0.8789 -0.350736 0.0526098)
(-0.875088 -0.203954 0.129143)
(-0.894046 -0.184287 0.174216)
(-0.760609 -0.161542 0.158564)
(-0.766218 -0.12908 0.259344)
(-0.777446 -0.120766 0.302197)
(-0.821049 -0.108644 0.355655)
(-0.828605 -0.119229 0.353075)
(-0.642052 -0.181692 0.251372)
(-0.607075 -0.173633 0.248697)
(-0.567258 -0.180464 0.215766)
(-0.550859 -0.175624 0.18907)
(-0.568682 -0.191198 0.120432)
(-0.33829 -0.194758 0.0768301)
(-0.320041 -0.189266 0.101811)
(-0.329147 -0.191975 0.114414)
(-0.360381 -0.198888 0.124628)
(-0.449062 -0.216865 0.142132)
(-0.405089 -0.253341 0.0600221)
(-0.382024 -0.28488 0.0687121)
(-0.410448 -0.340988 0.0472752)
(-0.315777 -0.426885 0.036139)
(-0.311658 -0.394314 0.0494042)
(-0.283453 -0.416216 0.0158618)
(-0.192805 -0.419466 -0.0202565)
(-0.336982 -0.254078 0.0356749)
(-0.402684 -0.330858 0.0412635)
(-0.248035 -0.457361 -0.00649313)
(-0.291452 -0.459749 0.000478556)
(-0.451516 -0.321158 0.0721129)
(-0.524311 -0.298941 0.13144)
(-0.49773 -0.318612 0.136467)
(-0.470709 -0.336764 0.111493)
(-0.458595 -0.35061 0.0943477)
(-0.493131 -0.373145 0.00860052)
(-0.710611 -0.317833 0.063193)
(-0.717736 -0.529901 0.0389437)
(-0.548974 -0.55438 -0.00179794)
(-0.509892 -0.607035 -0.0040672)
(-0.465694 -0.649293 -0.0175647)
(-0.436914 -0.652547 -0.0212804)
(-0.412842 -0.530908 -0.0231346)
(-0.411081 -0.540908 -0.0485319)
(-0.409975 -0.541362 -0.0344782)
(-0.335413 -0.55041 -0.0172376)
(-0.267479 -0.595856 -0.00748067)
(-0.319529 -0.580845 -0.00366045)
(-0.403374 -0.512973 0.00701799)
(-0.331979 -0.535353 -0.00431022)
(-0.438749 -0.630347 -0.0119884)
(-0.292932 -0.473203 -0.00526346)
(-0.210379 -0.539667 -0.0184651)
(-0.281077 -0.524617 -0.0163801)
(-0.394375 -0.436081 -0.000798463)
(-0.413794 -0.362755 -0.0104635)
(-0.260607 -0.394197 -0.0111618)
(-0.156982 -0.422878 -0.0364983)
(-0.136339 -0.399472 -0.0227595)
(-0.238125 -0.205326 0.0223129)
(-0.382522 -0.342872 -0.0020533)
(-0.251718 -0.474572 -0.0198159)
(-0.219 -0.467985 -0.0237206)
(-0.122066 -0.392831 -0.0300904)
(-0.219144 -0.194487 0.0392129)
(-0.346721 -0.33794 0.0121808)
(-0.366039 -0.363277 0.0542434)
(-0.195757 -0.511101 -0.0108691)
(-0.17399 -0.468061 0.0186733)
(-0.109949 -0.420232 0.00191464)
(-0.222225 -0.229063 0.0447812)
(-0.325702 -0.34187 0.052426)
(-0.334916 -0.338951 0.0571029)
(-0.18051 -0.463237 0.0167543)
(-0.109297 -0.408996 0.00013283)
(-0.231872 -0.220475 0.0622715)
(-0.285856 -0.221466 0.0776598)
(-0.240357 -0.230275 0.0714261)
(-0.350142 -0.336997 0.0786436)
(-0.189571 -0.465323 0.0484789)
(-0.117759 -0.415654 0.0375037)
(-0.140458 -0.449697 -0.00378686)
(-0.196407 -0.497607 0.0257966)
(-0.381528 -0.350669 0.0793011)
(-0.334255 -0.625489 -0.00349038)
(-0.355617 -0.632193 -0.0116181)
(-0.499228 -0.511964 0.0579626)
(-0.651168 -0.444835 0.098384)
(-0.666576 -0.286843 0.13648)
(-0.797967 -0.271679 0.170642)
(-0.890677 -0.320908 0.166554)
(-1.02075 -0.489118 0.126029)
(-1.10756 -0.49545 0.167782)
(-1.13245 -0.503099 0.192943)
(-1.11253 -0.505481 0.215925)
(-1.04935 -0.501791 0.238794)
(-0.943934 -0.490882 0.26067)
(-0.795288 -0.467591 0.28727)
(-0.640977 -0.432524 0.326811)
(-0.398542 -0.380792 0.395198)
(-0.165155 -0.29193 0.482427)
(0.036613 -0.150141 0.486899)
(0.333163 -0.1584 0.429161)
(0.33547 -0.217786 0.379846)
(0.204812 -0.127354 0.489636)
(0.271892 -0.00233369 0.769041)
(0.282865 0.0472446 1.0345)
(0.268068 0.0822792 1.14364)
(0.250256 0.134821 1.09165)
(0.213073 0.123746 0.952916)
(0.143381 0.121189 0.700545)
(0.0411418 0.1854 0.40163)
(0.174821 0.511817 0.423371)
(0.424737 0.51496 0.373034)
(0.612495 0.536775 0.374018)
(0.855121 0.495656 0.350687)
(1.01213 0.415898 0.317627)
(1.07603 0.322954 0.274666)
(1.06072 0.25533 0.235094)
(1.01019 0.211166 0.19971)
(1.02841 0.158925 0.167881)
(1.04293 0.118898 0.144827)
(0.983725 0.0927942 0.090968)
(0.879046 0.0422416 0.0681424)
(0.71326 -0.0230726 0.0544257)
(0.467874 -0.110208 0.0208599)
(0.240128 -0.216901 -0.0228928)
(0.100731 -0.621783 -0.111359)
(0.176942 -0.383981 -0.079276)
(-0.180172 -0.17191 0.00539396)
(-0.100459 -0.393844 -0.0410568)
(-0.109732 -0.317624 -0.0673946)
(-0.111919 -0.346049 -0.0755011)
(-0.109142 -0.308766 -0.0653231)
(-0.0764302 -0.23638 -0.0614307)
(-0.147924 -0.188272 -0.0294938)
(-0.22641 0.190403 0.160654)
(-0.141048 0.458994 0.134403)
(-0.0491 0.590058 0.0773908)
(0.0223251 0.64987 0.0733061)
(0.105018 0.669819 0.15452)
(0.200029 0.709136 0.271494)
(0.297043 0.743623 0.328525)
(0.384769 0.741039 0.364397)
(0.465053 0.681591 0.373223)
(0.531616 0.547083 0.370494)
(0.582554 0.330277 0.334878)
(0.56323 0.00756679 0.259853)
(0.383671 -0.328548 0.250526)
(0.284462 -0.327607 0.315081)
(0.219586 -0.281584 0.324864)
(0.153148 -0.190198 0.332348)
(0.144886 0.00808513 0.308754)
(0.289727 0.0106941 0.335634)
(0.44918 -0.156322 0.328337)
(0.599308 -0.253771 0.340891)
(0.63817 -0.343009 0.350542)
(0.619038 -0.435318 0.35269)
(0.473552 -0.540804 0.335223)
(0.105736 -0.567646 0.319661)
(-0.17126 -0.302432 0.305083)
(-0.0439807 -0.130203 0.355856)
(0.225745 -0.148204 0.237874)
(0.281905 -0.397704 0.0729381)
(0.00909562 -0.513264 0.236388)
(-0.139801 -0.741934 -0.137687)
(0.206115 -0.717139 -0.478472)
(0.304338 -0.389504 -0.175906)
(0.33208 -0.376713 0.0944994)
(0.343734 -0.550089 0.187053)
(0.324925 -0.891936 0.122497)
(0.526346 -0.870969 0.0653586)
(0.602477 -0.689449 0.0977869)
(0.567001 -0.535274 0.138628)
(0.497267 -0.39282 0.188989)
(0.330401 -0.227606 0.24587)
(0.351846 -0.342464 0.195596)
(0.413294 -0.372915 0.14269)
(0.493982 -0.360137 0.0811556)
(0.597509 -0.288823 -0.05427)
(0.84793 0.200068 -0.112725)
(0.897167 0.475648 -0.0174504)
(0.844052 0.670411 0.0547766)
(0.742754 0.765326 0.09679)
(0.609249 0.787492 0.142734)
(0.45835 0.757681 0.157024)
(0.291643 0.697923 0.158986)
(0.120612 0.638612 0.0926289)
(-0.0466338 0.600618 0.0509454)
(-0.165148 0.544937 0.066488)
(-0.288263 0.427431 0.133401)
(-0.406887 0.203041 0.172466)
(-0.286311 -0.140769 0.0104387)
(-0.399986 -0.0538484 0.0523693)
(-0.482086 0.00646287 0.0814383)
(-0.538764 0.12936 0.124792)
(-0.535378 0.0885161 0.0965034)
(-0.494793 -0.0492097 0.0218341)
(-0.455848 -0.110056 0.0119532)
(-0.391347 -0.165603 -0.0113276)
(-0.296285 -0.223531 -0.0262135)
(-0.190732 -0.256322 -0.0400047)
(-0.14274 -0.231103 -0.032581)
(-0.19729 -0.197085 -0.0256908)
(-0.181962 -0.345689 -0.042589)
(-0.12246 -0.340948 -0.0503211)
(-0.100012 -0.359895 -0.0781424)
(-0.0773772 -0.396429 -0.11309)
(-0.0473635 -0.578025 -0.229623)
(-0.085448 -0.518161 -0.159627)
(-0.0993282 -0.631398 -0.126542)
(-0.14494 -0.636704 -0.084863)
(-0.185273 -0.560387 -0.0718112)
(-0.28349 -0.383132 -0.0357948)
(-0.270558 0.127219 0.104084)
(-0.115959 0.370593 0.267358)
(-0.0160606 0.460093 0.408401)
(0.0605473 0.469127 0.537744)
(0.133355 0.410921 0.61333)
(0.18554 0.305056 0.647025)
(0.236351 0.157937 0.622545)
(0.22587 -0.0121243 0.524051)
(0.0941573 -0.130634 0.419755)
(-0.0193833 -0.0968503 0.433303)
(-0.0380033 0.0248984 0.410568)
(-0.035524 0.146623 0.414208)
(0.0387613 0.251225 0.354292)
(0.201427 0.138073 0.369991)
(0.157662 0.276056 0.441317)
(-0.0627599 0.163759 -0.0905974)
(-0.17549 -0.0673571 -0.635824)
(-0.182015 -0.305143 -0.52844)
(-0.16889 -0.341322 -0.297694)
(-0.145602 -0.300046 -0.0921609)
(-0.0625853 -0.583006 -0.104295)
(-0.0285606 -0.860168 -0.0922864)
(0.00168933 -1.01794 -0.0904419)
(0.0319087 -1.14227 -0.100182)
(0.0650808 -1.2261 -0.114498)
(0.0956193 -1.279 -0.128429)
(0.122359 -1.30573 -0.140392)
(0.146487 -1.3145 -0.152439)
(0.167513 -1.31272 -0.164953)
(0.185832 -1.30395 -0.175771)
(0.201438 -1.28972 -0.184283)
(0.2153 -1.27047 -0.189454)
(0.227564 -1.24585 -0.192179)
(0.238769 -1.21449 -0.19101)
(0.248328 -1.17501 -0.185775)
(0.254086 -1.12513 -0.174909)
(0.251233 -1.06222 -0.158214)
(0.194412 -0.998758 -0.138381)
(0.139533 -0.91351 -0.122243)
(0.164058 -0.829224 -0.086585)
(0.187298 -0.728443 -0.0877919)
(0.203419 -0.559616 -0.0876948)
(0.246034 -0.442373 -0.0840917)
(0.0717345 -0.0305261 -0.0949536)
(0.365523 -0.298179 0.0438928)
(0.245281 -0.550693 -0.0566023)
(0.285546 -0.0946315 -0.0265295)
(0.180226 -0.0368745 -0.146578)
(0.201341 -0.112576 -0.123566)
(0.194305 -0.119436 -0.0795142)