/*--------------------------------*- C++ -*----------------------------------*\
| =========                 |                                                 |
| \\      /  F ield         | OpenFOAM: The Open Source CFD Toolbox           |
|  \\    /   O peration     | Version:  v2012                                 |
|   \\  /    A nd           | Website:  www.openfoam.com                      |
|    \\/     M anipulation  |                                                 |
\*---------------------------------------------------------------------------*/
FoamFile
{
    version     2.0;
    format      ascii;
    class       volVectorField;
    location    "240";
    object      U;
}
// * * * * * * * * * * * * * * * * * * * * * * * * * * * * * * * * * * * * * //

dimensions      [0 1 -1 0 0 0 0];


internalField   nonuniform List<vector> 
18258
(
(-0.176387 0.118385 0.137108)
(-0.0516837 0.246253 0.156791)
(-0.104593 0.21508 0.0962325)
(-0.0376656 0.070877 0.0838171)
(-0.225785 0.203811 0.0173815)
(-0.158444 0.362802 0.0156457)
(-0.222125 0.045279 0.0529775)
(-0.340242 -0.0518916 0.0744822)
(-0.447184 -0.104928 0.107673)
(-0.53399 -0.158909 0.14537)
(-0.619982 -0.216546 0.179615)
(-0.686531 -0.270946 0.309196)
(-0.677813 -0.33371 0.357072)
(-0.621612 -0.445016 0.385773)
(-0.487766 -0.542692 0.369543)
(-0.205332 -0.587376 0.340723)
(0.0734029 -0.374862 0.289216)
(0.0780071 -0.164181 0.298124)
(-0.127982 -0.0786018 0.237013)
(-0.401548 -0.273282 0.117303)
(-0.13993 -0.52692 0.293732)
(-0.200059 -0.366202 0.407274)
(-0.305253 -0.738159 0.301886)
(-0.366246 -0.780116 0.262699)
(-0.136179 -0.707398 0.131849)
(0.00343544 -0.644609 0.18321)
(-0.0180862 -0.340122 0.422895)
(0.173142 -0.112803 0.805105)
(0.298434 -0.0953697 0.893335)
(0.316115 0.0577212 0.914734)
(0.316816 0.183288 0.815823)
(0.16851 0.301533 0.113099)
(0.0761004 0.134359 -0.427147)
(0.00955896 0.0821947 -0.719036)
(-0.0684853 0.0785048 -0.894687)
(-0.0585671 0.0741541 -1.07714)
(-0.0715264 0.0731385 -1.21624)
(-0.0999957 0.0911081 -1.3098)
(-0.141878 0.0823825 -1.35724)
(-0.189788 0.088909 -1.34335)
(-0.239577 0.0752873 -1.25962)
(-0.286241 0.0845365 -1.10629)
(-0.325303 0.0788365 -0.895811)
(-0.356417 0.0799424 -0.641822)
(-0.366317 0.0826908 -0.349459)
(-0.349028 0.0769467 -0.152454)
(-0.152418 0.185261 -0.19388)
(0.372302 -0.107687 -0.135328)
(0.63727 -0.133203 -0.155997)
(0.679129 -0.114272 -0.166343)
(0.790072 -0.13605 -0.175967)
(0.81715 -0.132019 -0.193684)
(0.509435 -0.00216923 -0.257538)
(0.260432 -0.137733 -0.217962)
(0.113608 -0.0412858 -0.158632)
(0.28347 -0.00912861 -0.169058)
(0.539332 -0.00220229 -0.173703)
(0.794089 -0.0299832 -0.17798)
(1.09483 -0.0347726 -0.175799)
(1.43075 -0.0489472 -0.185239)
(1.76544 -0.0646722 -0.183576)
(2.0496 -0.0811981 -0.166602)
(2.25014 -0.092823 -0.138064)
(2.35003 -0.0988671 -0.102333)
(2.3563 -0.0961209 -0.0676316)
(2.29549 -0.0883908 -0.0409065)
(2.20155 -0.0818695 -0.0243021)
(2.10885 -0.0757604 -0.0175933)
(2.03928 -0.0669671 -0.0186414)
(1.99356 -0.0641004 -0.0233404)
(1.96922 -0.0589588 -0.0257957)
(1.95868 -0.0500561 -0.02027)
(1.94444 -0.0395506 -0.00325952)
(1.90099 -0.0247264 0.0243217)
(1.81339 -0.00767478 0.0539053)
(1.69241 0.00971924 0.0772221)
(1.57155 0.0219267 0.080074)
(1.47888 0.0309192 0.0754238)
(1.4008 0.0380115 0.0707234)
(1.33857 0.0508513 0.0633245)
(1.28773 0.0575025 0.0651432)
(1.19412 0.0445536 0.0787791)
(1.09709 0.0192133 0.110516)
(1.0143 0.000911633 0.128082)
(0.90721 -0.0207095 0.12106)
(0.76321 0.0168617 0.146258)
(0.642321 0.0817959 0.133484)
(0.51863 0.100706 0.134426)
(0.381575 0.118236 0.118832)
(0.22493 0.127406 0.096826)
(0.120302 0.190099 0.0922684)
(0.122445 0.0102563 0.197928)
(0.16435 -0.100837 0.144275)
(0.113365 -0.129672 0.0402774)
(0.104892 -0.115284 -0.141624)
(0.21718 -0.210585 -0.370178)
(0.263256 -0.233324 -0.555719)
(0.204851 -0.140615 -0.730257)
(0.106533 -0.0827302 -0.71733)
(0.0363674 0.054528 -0.496766)
(-0.0833965 0.228031 -0.176181)
(-0.214221 0.197423 0.176812)
(-0.234074 0.0657815 0.150701)
(-0.339605 0.0165167 0.16672)
(-0.270218 0.141408 0.174893)
(-0.243784 0.288009 -0.0581853)
(-0.10631 0.160206 -0.407606)
(0.0653454 0.00247219 -0.587981)
(0.334806 -0.0951499 -0.632828)
(0.497038 -0.230652 -0.489576)
(0.352147 -0.211062 -0.279879)
(0.272075 -0.192067 -0.10031)
(0.283287 -0.186666 0.0400938)
(0.281095 -0.140063 0.160648)
(0.225915 -0.0989799 0.192006)
(0.397275 -0.0812129 0.181176)
(0.536477 -0.0631623 0.176757)
(0.588958 -0.0519098 0.164783)
(0.701015 -0.0786239 0.161)
(0.733262 -0.133665 0.132823)
(0.601573 -0.134229 0.135543)
(0.454984 -0.151729 0.140051)
(0.461944 -0.185863 0.035879)
(0.611406 -0.16286 0.0517983)
(0.736905 -0.162102 0.0492955)
(0.90544 -0.141756 0.0813832)
(1.08893 -0.109927 0.110866)
(1.19012 -0.0777604 0.148393)
(1.20921 -0.0106051 0.140072)
(1.24638 -0.00898144 0.12054)
(1.33631 -0.00689124 0.140041)
(1.37832 -0.00161537 0.129932)
(1.36989 -0.0124473 0.158776)
(1.32937 -0.048173 0.193985)
(1.32368 -0.051108 0.190879)
(1.28647 -0.062037 0.151982)
(1.2798 -0.0602555 0.135137)
(1.2591 -0.0479694 0.10823)
(1.25065 -0.0459508 0.110255)
(1.20283 0.00411401 0.108727)
(1.19575 0.0274491 0.137214)
(1.07911 0.136548 0.270444)
(1.22757 0.0525713 0.253144)
(1.21936 0.0198445 0.158176)
(1.26773 -0.0209326 0.127974)
(1.27972 -0.0251023 0.118849)
(1.28986 -0.0382172 0.144186)
(1.30873 -0.0414875 0.183429)
(1.3514 -0.0366819 0.217474)
(1.38725 -0.0366533 0.222434)
(1.42412 -0.0127073 0.183559)
(1.43755 -0.00183116 0.138246)
(1.51371 -0.00644741 0.151373)
(1.61171 -0.0166358 0.159452)
(1.75101 -0.0315469 0.143803)
(1.88318 -0.0541333 0.0490766)
(1.96457 -0.0755924 -0.0712359)
(1.98388 -0.0904439 -0.164372)
(1.96632 -0.096461 -0.200637)
(1.94986 -0.0967981 -0.194578)
(1.95993 -0.0911807 -0.174766)
(2.00695 -0.0826604 -0.144283)
(2.08853 -0.0701816 -0.107586)
(2.19991 -0.0598931 -0.0835736)
(2.31454 -0.0595452 -0.112292)
(2.39201 -0.0606593 -0.17259)
(2.39518 -0.058324 -0.276583)
(2.28962 -0.0501537 -0.392044)
(2.07428 -0.0425697 -0.483639)
(1.77383 -0.0368045 -0.540245)
(1.42986 -0.0316503 -0.549125)
(1.08361 -0.0193498 -0.527977)
(0.79478 -0.024288 -0.459615)
(0.53871 -0.0154881 -0.41569)
(0.284142 -0.0208555 -0.387029)
(0.109446 -0.0394566 -0.360852)
(0.102627 -0.0413406 -0.637493)
(0.0777178 -0.0366863 -0.873717)
(0.0509332 -0.0387401 -1.05826)
(0.0119095 -0.0400728 -1.17681)
(-0.0233125 -0.0277694 -1.21628)
(-0.0600274 -0.0152763 -1.16819)
(-0.0938062 0.0039241 -1.03854)
(-0.119226 0.0282737 -0.819436)
(-0.120781 0.0862858 -0.557909)
(-0.147141 0.132045 -0.0262537)
(-0.194524 0.0237322 0.57634)
(-0.210469 -0.0348623 0.76207)
(-0.228661 -0.00360636 0.929641)
(-0.23381 -0.0469853 1.07082)
(-0.319345 -0.106803 1.13417)
(-0.372112 -0.114359 1.14627)
(-0.370651 -0.235197 1.0054)
(-0.299794 -0.254042 0.7712)
(-0.460356 -0.670242 0.687175)
(-0.484912 -0.548192 0.704972)
(-0.413282 -0.415571 0.832466)
(-0.547816 -0.769219 0.859812)
(-0.681401 -0.83401 0.607617)
(-0.472457 -0.756649 0.799804)
(-0.433632 -0.575965 0.743191)
(-0.781147 -0.526202 0.751389)
(-0.900823 -0.409302 0.861781)
(-0.529545 -0.707991 0.827202)
(-0.43948 -0.577686 0.66856)
(-0.32059 -0.321085 0.408187)
(-0.29986 -0.184154 0.402268)
(-0.283578 -0.147918 0.356992)
(-0.235394 0.107333 0.117262)
(-0.161953 0.299514 -0.41654)
(-0.151502 0.192999 -0.638312)
(-0.132088 0.0302401 -0.913029)
(-0.0870702 -0.055841 -1.08589)
(-0.0286649 -0.0687111 -1.23398)
(0.0385268 -0.101166 -1.26914)
(0.0984348 -0.0981728 -1.23439)
(0.173155 -0.108706 -1.12058)
(0.21734 -0.123208 -0.92068)
(0.261721 -0.146401 -0.706091)
(0.250599 -0.139181 -0.398628)
(0.420856 -0.0476617 -0.637988)
(0.777315 -0.11756 -0.456469)
(0.733162 -0.10967 -0.411056)
(0.635367 -0.0769452 -0.40283)
(0.576464 -0.107358 -0.407636)
(0.139978 -0.104093 -0.515074)
(0.1849 -0.119412 -0.898016)
(0.262853 -0.226556 -1.04962)
(0.346027 -0.283762 -0.9386)
(0.389404 -0.352325 -0.497317)
(0.199207 0.0485076 0.130469)
(0.26689 0.118535 0.183795)
(0.429134 -0.327092 0.335412)
(0.516907 -0.529825 0.50583)
(0.546797 -0.522765 0.55219)
(0.413288 -0.235372 0.678727)
(0.472651 -0.337654 0.564649)
(0.488462 -0.610003 0.545497)
(0.705849 -0.673018 0.317526)
(0.748261 -0.4889 0.45282)
(0.80026 -0.34616 0.598375)
(0.235981 -0.226297 0.576158)
(-0.234915 -0.269159 0.830818)
(-0.172173 -0.191292 0.682579)
(-0.672142 -0.299049 0.821147)
(-0.468516 -0.183522 0.697584)
(-0.319168 -0.00540637 0.54602)
(-0.218256 0.17913 -0.296468)
(-0.192017 -0.0391553 -0.617698)
(-0.0575573 -0.167721 -1.10012)
(0.104734 -0.156431 -1.25058)
(0.276931 -0.0855339 -1.11842)
(0.439332 -0.107321 -0.698066)
(0.509314 -0.073565 -0.621233)
(0.504473 -0.0444406 -0.609016)
(0.560324 -0.089664 -0.63228)
(0.599614 -0.122449 -0.723868)
(0.403686 -0.043594 -0.675965)
(0.361846 -0.0787105 -0.65703)
(0.13686 -0.113084 -0.666639)
(-0.112034 -0.0480333 -0.577893)
(0.296873 0.00802813 -0.58765)
(0.356639 0.0160041 -0.604342)
(0.643229 -0.0967252 -0.640202)
(0.573231 -0.0975663 -0.362283)
(0.268825 0.074782 -0.351201)
(0.268779 0.0564779 -0.224637)
(-0.302644 -0.0368507 0.126405)
(-0.308581 0.146223 0.000229804)
(-0.283787 -0.0234253 -0.446481)
(0.0891764 -0.201119 -0.573457)
(0.364151 -0.279718 -0.567729)
(0.729382 -0.345286 -0.404943)
(0.813346 -0.417824 -0.37748)
(0.774869 -0.290203 -0.295653)
(0.816364 -0.364809 -0.219678)
(0.830734 -0.486268 -0.283718)
(0.744371 -0.432381 -0.277637)
(0.723564 -0.306322 -0.330632)
(0.750678 -0.251769 -0.341469)
(0.796463 -0.311884 -0.212081)
(0.809023 -0.367701 -0.160298)
(0.895814 -0.464157 -0.15636)
(1.16095 -0.630447 -0.117491)
(1.61919 -0.72576 -0.098588)
(1.99619 -0.671134 -0.0379032)
(2.15247 -0.488822 0.0474932)
(2.07202 -0.289627 0.0955982)
(1.90635 -0.161752 0.103046)
(1.80863 -0.0935801 0.0995715)
(1.71169 0.00157772 0.0990948)
(1.57415 0.0900169 0.0912419)
(1.43677 0.108513 0.0482442)
(1.33222 0.0588461 0.0275323)
(1.24241 -0.00316322 0.0218902)
(1.14067 -0.0526012 0.0236586)
(1.05667 -0.0774757 0.0218287)
(0.99889 -0.0613671 0.0174516)
(0.822936 -0.109119 -0.0233436)
(0.717614 0.00358871 0.010549)
(0.634197 0.069974 0.00953428)
(0.498434 0.0249243 0.00718573)
(0.360046 -0.0595191 -0.0128381)
(0.139377 -0.146197 -0.0319315)
(0.225928 -0.308032 0.00114974)
(0.353668 -0.0818773 0.0120551)
(-0.00236747 -0.230136 -0.00919231)
(0.0431776 -0.54618 -0.0504237)
(0.0121454 -0.712847 -0.0525429)
(-0.00790096 -0.876933 -0.0531721)
(-0.0258587 -1.00707 -0.0648605)
(-0.0358911 -1.10311 -0.0956594)
(-0.0463587 -1.1576 -0.104933)
(-0.0578574 -1.21503 -0.118079)
(-0.0880879 -1.27693 -0.134077)
(-0.113215 -1.3218 -0.149389)
(-0.137215 -1.3557 -0.162306)
(-0.159268 -1.37753 -0.173371)
(-0.178331 -1.38899 -0.183041)
(-0.193766 -1.39069 -0.189766)
(-0.205924 -1.38359 -0.193628)
(-0.215949 -1.36885 -0.19375)
(-0.22449 -1.34694 -0.191827)
(-0.232751 -1.31649 -0.186375)
(-0.240399 -1.27562 -0.178008)
(-0.245838 -1.22137 -0.164956)
(-0.243733 -1.1522 -0.14721)
(-0.190879 -1.07269 -0.12682)
(-0.14119 -0.969924 -0.112438)
(-0.165693 -0.869308 -0.0793776)
(-0.189688 -0.755218 -0.0817732)
(-0.204883 -0.543637 -0.0853698)
(-0.273491 -0.450659 -0.0918669)
(0.0227636 0.0528756 -0.116038)
(-0.350836 -0.308626 0.0253028)
(-0.231628 -0.617755 -0.0544137)
(-0.270298 -0.0993409 -0.0109016)
(-0.457916 -0.182573 0.064649)
(-0.678657 -0.198747 0.0822757)
(-0.84221 -0.209311 0.114056)
(-0.953755 -0.22315 0.144164)
(-1.03466 -0.232543 0.203745)
(-1.11813 -0.244332 0.245262)
(-1.18743 -0.244199 0.302011)
(-1.20113 -0.248394 0.336296)
(-1.17415 -0.250122 0.366227)
(-1.10715 -0.248797 0.39455)
(-0.996232 -0.243083 0.422765)
(-0.841393 -0.230033 0.454239)
(-0.66713 -0.205706 0.493778)
(-0.420086 -0.146618 0.543436)
(-0.135527 -0.119247 0.568169)
(-0.152413 0.0284108 0.82353)
(-0.155242 0.0828992 1.04279)
(-0.154928 0.114981 1.11191)
(-0.156249 0.163796 1.02004)
(-0.160755 0.153155 0.836941)
(-0.14943 0.131287 0.566534)
(-0.124606 0.143294 0.28465)
(-0.225891 0.438587 0.370063)
(-0.507693 0.466702 0.334688)
(-0.693067 0.479818 0.338629)
(-0.918098 0.464679 0.332226)
(-1.1004 0.424203 0.308346)
(-1.22766 0.352952 0.265739)
(-1.28352 0.273182 0.218711)
(-1.26646 0.206041 0.181539)
(-1.23344 0.147841 0.158308)
(-1.19046 0.115158 0.140427)
(-1.10097 0.0924538 0.0902568)
(-0.959097 0.0451082 0.0699103)
(-0.767625 -0.0207323 0.0594953)
(-0.501067 -0.113954 0.0190204)
(-0.253357 -0.207739 -0.0189257)
(-0.274215 -0.197482 -0.0661473)
(-0.318474 -0.176911 0.00835813)
(-0.314693 -0.174117 0.0597716)
(-0.272852 -0.15664 0.151077)
(-0.381061 -0.233924 0.118768)
(-0.422961 -0.297165 0.118841)
(-0.327031 -0.288266 0.177519)
(-0.270013 -0.215399 0.0456388)
(-0.140831 -0.101006 -0.0257546)
(-0.141024 -0.0769417 -0.0070609)
(-0.138597 -0.0743106 -0.0353564)
(-0.169307 -0.0557826 -0.0678326)
(-0.167908 -0.501751 -0.148508)
(-0.126251 -0.480044 -0.137938)
(-0.11077 -0.447445 -0.0952888)
(-0.10056 -0.42436 -0.145484)
(-0.266837 -0.538576 -0.0312789)
(-0.276735 -0.576103 -0.0254582)
(-0.284335 -0.632568 -0.0834883)
(-0.337783 -0.583265 -0.0195331)
(-0.340562 -0.530402 0.0555562)
(-0.301862 -0.359424 0.0857913)
(-0.444876 -0.317268 0.115113)
(-0.36201 -0.432124 0.0406501)
(-0.347988 -0.523128 0.0143281)
(-0.378425 -0.508777 -0.0233805)
(-0.428987 -0.394779 0.0323951)
(-0.497803 -0.346893 0.0733797)
(-0.52937 -0.255094 0.16417)
(-0.59169 -0.215658 0.241741)
(-0.680672 -0.197756 0.256314)
(-0.576937 -0.206905 0.211925)
(-0.517226 -0.187926 0.181481)
(-0.545527 -0.18503 0.118073)
(-0.54007 -0.172101 0.0920234)
(-0.496556 -0.184254 0.000821029)
(-0.762288 -0.086743 0.0645778)
(-0.972585 -0.00541395 0.0896594)
(-1.08032 0.0520969 0.103522)
(-1.12956 0.0750017 0.138104)
(-1.1672 0.0358073 0.237889)
(-1.252 0.0689739 0.267128)
(-1.31807 0.119399 0.348974)
(-1.33165 0.170883 0.431575)
(-1.27431 0.221964 0.523909)
(-1.14939 0.260968 0.603391)
(-0.976734 0.281321 0.647733)
(-0.776299 0.283788 0.656587)
(-0.623121 0.289114 0.643592)
(-0.341577 0.272852 0.643078)
(-0.43488 0.24583 0.873968)
(-0.466859 0.228648 1.00254)
(-0.459849 0.180949 1.08086)
(-0.440617 0.124851 1.01281)
(-0.439312 0.0595372 0.797623)
(-0.710963 -0.00455981 0.743995)
(-0.721541 0.0720899 0.944129)
(-0.740167 0.117857 1.02318)
(-0.745002 0.164995 0.97915)
(-0.695041 0.199415 0.872)
(-0.838505 0.186817 0.861904)
(-0.880051 0.146479 0.964752)
(-0.882746 0.0887804 1.00096)
(-0.873034 0.0423988 0.926121)
(-0.866726 -0.0386531 0.706836)
(-1.0102 -0.060014 0.675743)
(-1.02483 0.0208409 0.900983)
(-1.03792 0.0698774 0.966146)
(-1.04637 0.122396 0.943899)
(-1.02168 0.174258 0.853689)
(-1.16543 0.163119 0.803797)
(-1.16579 0.110828 0.892592)
(-1.14884 0.0573753 0.914534)
(-1.13154 0.00669238 0.859404)
(-1.11132 -0.0728586 0.640065)
(-1.17151 -0.0835614 0.595485)
(-1.19723 -0.00606024 0.796874)
(-1.22377 0.0437629 0.840075)
(-1.25336 0.0919708 0.811454)
(-1.27117 0.141436 0.716784)
(-1.32074 0.110888 0.610221)
(-1.29211 0.0689108 0.709284)
(-1.25346 0.0250642 0.747293)
(-1.21786 -0.0216501 0.716436)
(-1.18752 -0.0934134 0.539776)
(-1.15427 -0.104696 0.472725)
(-1.18264 -0.0413684 0.621449)
(-1.22169 0.000205895 0.640815)
(-1.27624 0.0391528 0.606534)
(-1.30949 0.0742452 0.509248)
(-1.22636 0.0356575 0.41446)
(-1.18942 0.00282546 0.500249)
(-1.1295 -0.0322259 0.531324)
(-1.08707 -0.0601215 0.520323)
(-1.04054 -0.111805 0.386821)
(-0.919533 -0.120203 0.315257)
(-0.923893 -0.109444 0.358233)
(-0.973485 -0.0804451 0.438423)
(-0.957445 -0.0871047 0.425247)
(-0.928642 -0.10273 0.394935)
(-1.00554 -0.0685339 0.381628)
(-0.997303 -0.0631383 0.30762)
(-1.00204 -0.0392437 0.282969)
(-1.0452 -0.0272162 0.209246)
(-1.0402 -0.00955654 0.202507)
(-0.807115 -0.105254 0.145445)
(-0.820042 -0.125306 0.158037)
(-0.789006 -0.128547 0.216497)
(-0.824938 -0.141618 0.249668)
(-0.610894 -0.281984 0.13338)
(-0.557737 -0.291765 0.115198)
(-0.50418 -0.327198 0.132902)
(-0.420724 -0.399967 0.116491)
(-0.397258 -0.384346 0.149971)
(-0.488506 -0.284477 0.165737)
(-0.606535 -0.239259 0.184092)
(-0.616143 -0.268069 0.0972247)
(-0.514176 -0.378262 0.044441)
(-0.440105 -0.460607 0.0285092)
(-0.39767 -0.52676 0.0582596)
(-0.384164 -0.698359 0.122814)
(-0.387296 -0.663754 0.128488)
(-0.405697 -0.380604 0.107481)
(-0.408802 -0.536838 0.0819723)
(-0.39967 -0.602362 0.04436)
(-0.216098 -0.788913 -0.158102)
(-0.193674 -0.794768 -0.259188)
(-0.115507 -0.704557 -0.368988)
(-0.0786135 -0.62471 -0.384967)
(-0.0452705 -0.589677 -0.347286)
(-0.0139192 -0.556875 -0.301103)
(0.0313094 -0.502872 -0.23201)
(0.124082 -0.456464 -0.108944)
(0.124652 -0.581388 -0.121917)
(0.116744 -0.638064 -0.12021)
(0.0847514 -0.696147 -0.157621)
(0.0921134 -0.750854 -0.155684)
(0.100243 -0.807358 -0.174789)
(0.117952 -0.835684 -0.166879)
(0.125964 -0.842482 -0.152725)
(0.126197 -0.828742 -0.130237)
(0.117592 -0.792739 -0.0959945)
(0.103984 -0.736287 -0.0428136)
(0.0379629 -0.656868 0.032896)
(0.00152347 -0.548642 0.152145)
(0.0146322 -0.303451 0.358851)
(-0.145096 0.00805856 0.448764)
(-0.364678 0.0937992 0.350867)
(-0.391187 -0.0407429 0.256176)
(-0.218975 -0.172502 0.252359)
(-0.179029 -0.188623 0.268664)
(-0.15641 -0.177801 0.214065)
(-0.0890797 -0.142323 0.205474)
(0.000984548 -0.0300495 0.0702377)
(-0.0369208 0.111628 0.0806161)
(-0.0810825 0.149505 0.080143)
(-0.0497758 0.213504 0.169681)
(-0.0075266 0.182035 0.190608)
(0.0145717 0.040669 0.14224)
(-0.0432026 -0.0273348 0.226418)
(0.0247499 0.0934369 0.322376)
(-0.00156698 -0.0634586 0.285721)
(0.0784131 0.143614 0.246453)
(0.0913513 -0.0269458 0.227703)
(-0.0194643 -0.258434 0.456222)
(0.0522912 -0.362402 0.544404)
(0.173115 -0.508161 0.51316)
(0.165355 -0.696798 0.350039)
(0.0747044 -0.819991 0.14266)
(0.05888 -0.891375 -0.00840425)
(0.0651714 -0.925407 -0.11978)
(0.0631875 -0.951625 -0.197756)
(0.0600694 -0.966196 -0.248573)
(0.0519393 -0.964312 -0.279117)
(0.0417943 -0.944345 -0.292373)
(0.0292116 -0.906713 -0.289164)
(0.0235194 -0.832086 -0.249557)
(0.00727374 -0.786249 -0.328755)
(0.0434551 -0.705445 -0.225286)
(0.0474475 -0.655179 -0.211439)
(0.0446456 -0.637577 -0.232108)
(0.00454021 -0.703544 -0.325086)
(-0.0225952 -0.743002 -0.382742)
(-0.0573748 -0.77815 -0.410435)
(-0.0733543 -0.844844 -0.401272)
(-0.132258 -0.905292 -0.345388)
(-0.0942144 -0.969871 -0.331)
(-0.0891675 -0.980659 -0.372472)
(-0.0538782 -0.919163 -0.417662)
(-0.0436171 -0.869262 -0.43162)
(-0.0177726 -0.827268 -0.404045)
(-0.0096986 -0.870758 -0.34085)
(-0.0394489 -0.902857 -0.373709)
(-0.056193 -0.949408 -0.396007)
(-0.0238743 -0.992624 -0.405331)
(-0.0487859 -1.06098 -0.41979)
(-0.0666518 -1.0436 -0.423549)
(-0.0936663 -0.921352 -0.344299)
(-0.186926 -0.762523 -0.223908)
(-0.19902 -0.614195 -0.0403841)
(-0.100365 -0.734167 -0.196214)
(-0.079878 -0.840372 -0.258659)
(-0.0594909 -0.929747 -0.322543)
(-0.0608306 -0.947126 -0.333276)
(-0.0276477 -0.830228 -0.379849)
(-0.0238185 -0.725286 -0.336091)
(-0.0319745 -0.542907 -0.252591)
(-0.0159315 -0.353682 -0.161599)
(0.032712 -0.0915817 -0.206595)
(-0.249081 -0.434248 0.0737711)
(-0.330157 -0.461904 0.0265917)
(0.222633 -0.11804 -0.244561)
(-0.172458 -0.247518 0.0438899)
(-0.21812 -0.266684 -0.11612)
(-0.258498 -0.268957 -0.102937)
(-0.208675 -0.281775 -0.0210361)
(0.0812682 0.14055 -0.218854)
(0.102819 0.0593372 -0.231279)
(0.101045 -0.000466879 -0.259931)
(0.0966731 -1.82751e-05 -0.265128)
(-0.0796441 -0.430222 -0.200556)
(-0.132724 -0.450357 -0.221925)
(-0.185886 -0.458718 -0.206071)
(-0.248897 -0.445454 -0.168922)
(-0.168894 -0.547939 -0.183989)
(-0.126734 -0.559867 -0.2568)
(-0.0961352 -0.566219 -0.290838)
(-0.0604186 -0.554478 -0.290958)
(-0.0505763 -0.743542 -0.348329)
(-0.0815349 -0.758135 -0.331496)
(-0.106317 -0.770382 -0.281386)
(-0.14713 -0.760563 -0.194539)
(-0.134464 -0.822372 -0.182167)
(-0.128763 -0.883392 -0.200128)
(-0.0981412 -0.906128 -0.29711)
(-0.072659 -0.873255 -0.373321)
(-0.0491026 -0.853116 -0.399434)
(-0.0767326 -0.968794 -0.370277)
(-0.112141 -0.990391 -0.335413)
(-0.138099 -1.01061 -0.283303)
(-0.137143 -1.09338 -0.346616)
(-0.0800968 -1.06785 -0.398697)
(-0.072497 -1.14549 -0.440439)
(-0.0493972 -1.12407 -0.473019)
(-0.0269898 -1.11515 -0.458257)
(-0.00339942 -1.04332 -0.415045)
(0.0120203 -1.07547 -0.406281)
(-0.0127454 -1.15375 -0.469267)
(-0.0398447 -1.18073 -0.493809)
(-0.0685198 -1.2088 -0.462629)
(-0.131497 -1.22927 -0.378943)
(-0.134827 -1.16694 -0.368966)
(-0.283533 -1.047 -0.225239)
(-0.457181 -1.1464 -0.0769182)
(-0.463563 -1.10047 -0.0674422)
(-0.415905 -1.04618 -0.0647102)
(-0.302765 -1.0367 -0.0737499)
(-0.255667 -0.967977 -0.0639544)
(-0.309095 -0.945418 -0.0575463)
(-0.342203 -0.849491 -0.0421227)
(-0.377976 -0.714066 -0.0377853)
(-0.473651 -0.627235 -0.036613)
(-0.409731 -0.401676 -0.0339569)
(-0.46463 -0.66114 -0.00575897)
(-0.316501 -0.457864 0.0246702)
(-0.638247 -0.398985 0.00547413)
(-0.815201 -0.379566 0.0601463)
(-0.917745 -0.384675 0.0846154)
(-0.96782 -0.397461 0.124349)
(-0.979788 -0.525626 0.0977748)
(-0.940084 -0.689827 0.0653837)
(-0.923762 -0.750655 0.0525068)
(-0.874232 -0.84903 0.0364465)
(-0.858598 -0.89625 0.0304645)
(-0.820729 -0.92859 0.00761572)
(-0.703433 -0.968333 -0.0230101)
(-0.592253 -1.00295 -0.041978)
(-0.626519 -0.953532 -0.0171967)
(-0.484751 -0.972621 -0.0306796)
(-0.502636 -0.894271 -0.0300909)
(-0.530252 -0.797733 -0.0232289)
(-0.559083 -0.731431 -0.0194078)
(-0.686197 -0.712982 -0.00978161)
(-0.674764 -0.59856 -0.00775012)
(-0.823953 -0.577613 0.0303503)
(-0.918341 -0.559955 0.0504042)
(-0.881199 -0.697514 0.0231458)
(-0.800208 -0.705098 0.0122018)
(-0.777319 -0.790379 0.0022858)
(-0.660688 -0.798904 -0.010759)
(-0.635529 -0.883357 -0.0170257)
(-0.748256 -0.866882 -0.00513198)
(-0.825302 -0.851203 0.00444141)
(-0.862952 -0.773556 0.0135116)
(-0.801456 -0.739436 -0.0117565)
(-0.624137 -0.612598 0.00197445)
(-0.847025 -0.660085 0.0117093)
(-0.868071 -0.518664 0.0521006)
(-0.870495 -0.379965 0.0581898)
(-0.843486 -0.282365 0.121681)
(-0.832402 -0.302387 0.0765919)
(-0.878919 -0.350789 0.0525962)
(-0.875355 -0.203987 0.129091)
(-0.894416 -0.1843 0.174137)
(-0.760948 -0.161602 0.158524)
(-0.76686 -0.129145 0.25926)
(-0.778224 -0.120849 0.302098)
(-0.822035 -0.108738 0.355554)
(-0.829606 -0.119354 0.352928)
(-0.64284 -0.181863 0.251362)
(-0.607835 -0.17379 0.248734)
(-0.567863 -0.180608 0.215802)
(-0.551315 -0.175769 0.189091)
(-0.568884 -0.191307 0.120467)
(-0.338382 -0.194935 0.077035)
(-0.320309 -0.189443 0.101991)
(-0.329567 -0.192139 0.114614)
(-0.360875 -0.199063 0.124785)
(-0.449613 -0.217059 0.142186)
(-0.405595 -0.253556 0.0601301)
(-0.382496 -0.285103 0.0688218)
(-0.411052 -0.341309 0.0474337)
(-0.31628 -0.427265 0.0363439)
(-0.312073 -0.394625 0.0496096)
(-0.283861 -0.416587 0.0161132)
(-0.193153 -0.41982 -0.0200081)
(-0.337448 -0.254306 0.0358264)
(-0.403318 -0.331195 0.0414481)
(-0.248518 -0.45778 -0.00625866)
(-0.29196 -0.460191 0.000711844)
(-0.452186 -0.321478 0.0722854)
(-0.525011 -0.299226 0.131555)
(-0.498346 -0.318894 0.136598)
(-0.471154 -0.337031 0.111613)
(-0.458872 -0.350874 0.094418)
(-0.493168 -0.373373 0.00867465)
(-0.710745 -0.317981 0.0632209)
(-0.717746 -0.530145 0.038982)
(-0.548928 -0.554729 -0.00171959)
(-0.50981 -0.607458 -0.00396413)
(-0.465562 -0.649769 -0.017432)
(-0.436833 -0.653024 -0.0210665)
(-0.412802 -0.531189 -0.0228981)
(-0.410921 -0.541131 -0.0484051)
(-0.409775 -0.54159 -0.0343407)
(-0.335362 -0.550715 -0.0169729)
(-0.267342 -0.596248 -0.00717247)
(-0.319358 -0.581259 -0.00336713)
(-0.403299 -0.513307 0.00721289)
(-0.331882 -0.53569 -0.00406737)
(-0.438545 -0.630762 -0.0118435)
(-0.292838 -0.473507 -0.00500166)
(-0.210217 -0.540028 -0.0181153)
(-0.28089 -0.524987 -0.0160802)
(-0.394314 -0.436371 -0.000610778)
(-0.413755 -0.362991 -0.0103216)
(-0.26048 -0.394439 -0.0108974)
(-0.156854 -0.423217 -0.0360959)
(-0.136208 -0.399809 -0.022329)
(-0.238092 -0.205514 0.0226488)
(-0.38246 -0.343087 -0.0018275)
(-0.251545 -0.474905 -0.0194907)
(-0.218907 -0.468335 -0.0233788)
(-0.122002 -0.393165 -0.0296481)
(-0.219246 -0.194662 0.0395623)
(-0.346783 -0.338182 0.012426)
(-0.366251 -0.363556 0.0544017)
(-0.195816 -0.511506 -0.010511)
(-0.174113 -0.468433 0.0190472)
(-0.110043 -0.42057 0.00242187)
(-0.222415 -0.229259 0.0450829)
(-0.325925 -0.342147 0.0526478)
(-0.335264 -0.339247 0.0573487)
(-0.180716 -0.463614 0.0171273)
(-0.109444 -0.40933 0.000609545)
(-0.232145 -0.220668 0.0625894)
(-0.286189 -0.221651 0.0779462)
(-0.240651 -0.230477 0.0717537)
(-0.350549 -0.337304 0.0789319)
(-0.18985 -0.465707 0.0489052)
(-0.117935 -0.415977 0.038034)
(-0.140656 -0.450075 -0.00322136)
(-0.19664 -0.498023 0.0262024)
(-0.381931 -0.350966 0.0795111)
(-0.334557 -0.625995 -0.0031798)
(-0.355748 -0.632675 -0.011366)
(-0.499452 -0.512319 0.0580545)
(-0.651444 -0.445071 0.0984168)
(-0.666973 -0.287002 0.136481)
(-0.798412 -0.271762 0.170622)
(-0.891114 -0.320962 0.166559)
(-1.02087 -0.489114 0.126009)
(-1.10776 -0.495366 0.16779)
(-1.13264 -0.50292 0.192983)
(-1.11261 -0.505194 0.216)
(-1.04921 -0.501375 0.238895)
(-0.943445 -0.490306 0.26078)
(-0.794234 -0.466809 0.287371)
(-0.639118 -0.431525 0.326995)
(-0.396308 -0.380492 0.396164)
(-0.160138 -0.293852 0.485293)
(0.0489469 -0.150948 0.488055)
(0.34237 -0.158332 0.428028)
(0.341999 -0.214272 0.376901)
(0.205734 -0.128441 0.486179)
(0.273912 -0.00413506 0.765668)
(0.284915 0.0448724 1.03225)
(0.269532 0.0796998 1.14314)
(0.250931 0.132354 1.09341)
(0.212592 0.121954 0.956906)
(0.141804 0.120831 0.705685)
(0.0395514 0.18788 0.406178)
(0.173476 0.513905 0.425452)
(0.421112 0.515272 0.374642)
(0.607577 0.539074 0.375843)
(0.852235 0.497801 0.351853)
(1.00961 0.416755 0.318311)
(1.07238 0.322365 0.275031)
(1.05359 0.253614 0.23572)
(0.998038 0.210402 0.201782)
(1.01311 0.158966 0.169784)
(1.0329 0.118452 0.14642)
(0.974869 0.0919927 0.0918054)
(0.872835 0.042085 0.0685999)
(0.708439 -0.0233812 0.0545303)
(0.463918 -0.110379 0.0212461)
(0.237097 -0.21671 -0.023873)
(0.0978896 -0.617089 -0.111918)
(0.173561 -0.38079 -0.0789665)
(-0.180418 -0.169477 0.0046929)
(-0.100225 -0.386756 -0.0401541)
(-0.109672 -0.306315 -0.0658755)
(-0.111799 -0.330928 -0.0737405)
(-0.109078 -0.288119 -0.0620489)
(-0.0751783 -0.207095 -0.0562488)
(-0.15764 -0.154314 -0.017377)
(-0.224702 0.255212 0.165664)
(-0.130225 0.486852 0.125475)
(-0.0419524 0.61124 0.073818)
(0.0288421 0.656431 0.0741798)
(0.112908 0.67273 0.161419)
(0.208479 0.714742 0.281032)
(0.303808 0.750542 0.330811)
(0.389872 0.747971 0.365815)
(0.469354 0.687056 0.374074)
(0.535652 0.550041 0.371426)
(0.587328 0.331165 0.336006)
(0.567089 0.00216061 0.261516)
(0.390723 -0.333716 0.254226)
(0.290632 -0.335099 0.316879)
(0.225853 -0.290338 0.326765)
(0.159449 -0.200273 0.332418)
(0.147247 -0.003205 0.311398)
(0.29045 0.0093362 0.339147)
(0.452852 -0.158953 0.329884)
(0.604949 -0.256489 0.341575)
(0.644186 -0.345428 0.351037)
(0.625247 -0.437129 0.353297)
(0.478542 -0.541377 0.335213)
(0.111672 -0.566515 0.317448)
(-0.168366 -0.299887 0.302607)
(-0.0380181 -0.130378 0.355298)
(0.228153 -0.152119 0.238031)
(0.281174 -0.402732 0.0726654)
(0.00806209 -0.519152 0.238081)
(-0.141115 -0.748284 -0.141231)
(0.201819 -0.721466 -0.480767)
(0.307707 -0.397096 -0.177824)
(0.333012 -0.378961 0.0921333)
(0.348272 -0.549827 0.183663)
(0.331778 -0.891298 0.121058)
(0.533428 -0.873361 0.065805)
(0.6114 -0.693236 0.0978613)
(0.576135 -0.539757 0.137018)
(0.506058 -0.397968 0.187031)
(0.337404 -0.233034 0.245055)
(0.359817 -0.349434 0.193122)
(0.422029 -0.379956 0.140634)
(0.502379 -0.36599 0.078683)
(0.608808 -0.294074 -0.0556947)
(0.855136 0.193609 -0.115596)
(0.902563 0.474979 -0.0203489)
(0.849176 0.673214 0.0522058)
(0.749117 0.771136 0.0943416)
(0.618173 0.794321 0.140258)
(0.469133 0.763019 0.155415)
(0.304238 0.701623 0.163222)
(0.13322 0.639874 0.097885)
(-0.037802 0.603759 0.048211)
(-0.156481 0.561506 0.0599845)
(-0.275576 0.453182 0.121834)
(-0.402917 0.254484 0.168637)
(-0.288129 -0.109735 0.0189082)
(-0.406679 0.0295576 0.075379)
(-0.489973 0.0768315 0.10145)
(-0.526943 0.200366 0.137388)
(-0.536331 0.148189 0.105828)
(-0.497321 0.00884922 0.0258579)
(-0.453116 -0.0642483 0.0143057)
(-0.38346 -0.1271 -0.00812061)
(-0.2883 -0.196455 -0.0218254)
(-0.191478 -0.232473 -0.0366077)
(-0.139383 -0.203273 -0.0284556)
(-0.199075 -0.164549 -0.0201555)
(-0.181927 -0.32374 -0.0336499)
(-0.121871 -0.319729 -0.0450442)
(-0.100406 -0.340795 -0.0726663)
(-0.0788371 -0.377652 -0.106221)
(-0.0482028 -0.56552 -0.224123)
(-0.0884927 -0.505508 -0.151837)
(-0.105763 -0.614968 -0.116008)
(-0.150381 -0.623728 -0.0851341)
(-0.19286 -0.536597 -0.076896)
(-0.296245 -0.350281 -0.0419714)
(-0.25409 0.189387 0.120092)
(-0.100345 0.384567 0.280405)
(-0.00541169 0.475421 0.42415)
(0.0678855 0.475795 0.549241)
(0.139036 0.416329 0.619092)
(0.191296 0.307244 0.650992)
(0.243634 0.157482 0.624527)
(0.23108 -0.0180465 0.526824)
(0.102973 -0.137852 0.432131)
(-0.0133589 -0.104424 0.442239)
(-0.0338959 0.01196 0.421626)
(-0.0351366 0.136544 0.425223)
(0.037976 0.24403 0.369801)
(0.200902 0.136818 0.386998)
(0.160288 0.269422 0.451333)
(-0.05362 0.186218 -0.0361792)
(-0.169352 -0.075216 -0.641064)
(-0.181083 -0.309387 -0.54367)
(-0.168585 -0.347433 -0.313075)
(-0.144217 -0.306885 -0.0958544)
(-0.0630822 -0.589393 -0.105602)
(-0.0290677 -0.866027 -0.0917766)
(0.000960838 -1.02132 -0.0894653)
(0.0311421 -1.14348 -0.0987027)
(0.0641132 -1.22623 -0.113069)
(0.0945114 -1.27852 -0.127108)
(0.121229 -1.30476 -0.139161)
(0.145408 -1.31308 -0.15127)
(0.166536 -1.31081 -0.163938)
(0.185011 -1.30146 -0.174911)
(0.200793 -1.28665 -0.183564)
(0.21482 -1.26695 -0.188888)
(0.227217 -1.24206 -0.191758)
(0.23852 -1.21066 -0.190738)
(0.24815 -1.17132 -0.185629)
(0.253963 -1.12168 -0.174849)
(0.251166 -1.05903 -0.158194)
(0.194377 -0.995791 -0.138463)
(0.139524 -0.910848 -0.122385)
(0.164116 -0.826879 -0.0867471)
(0.187364 -0.726448 -0.0879536)
(0.203488 -0.557983 -0.0878489)
(0.24624 -0.441135 -0.0841961)
(0.0719346 -0.0297529 -0.0951797)
(0.365222 -0.297225 0.0435593)
(0.245209 -0.549416 -0.0569032)
(0.285357 -0.0942201 -0.0267968)
(0.180114 -0.0364594 -0.147063)
(0.200834 -0.111862 -0.124372)
(0.193536 -0.118809 -0.080492)