/*--------------------------------*- C++ -*----------------------------------*\
| =========                 |                                                 |
| \\      /  F ield         | OpenFOAM: The Open Source CFD Toolbox           |
|  \\    /   O peration     | Version:  v2012                                 |
|   \\  /    A nd           | Website:  www.openfoam.com                      |
|    \\/     M anipulation  |                                                 |
\*---------------------------------------------------------------------------*/
FoamFile
{
    version     2.0;
    format      ascii;
    class       volScalarField;
    location    "65";
    object      k;
}
// * * * * * * * * * * * * * * * * * * * * * * * * * * * * * * * * * * * * * //

dimensions      [0 2 -2 0 0 0 0];


internalField   nonuniform List<scalar> 
18258
(
0.0394074
0.0186463
0.0162755
0.0144142
0.015276
0.0182852
0.0203549
0.0252854
0.0301669
0.0356009
0.041958
0.0499556
0.0551458
0.061383
0.0637914
0.0620479
0.051813
0.0481984
0.0593513
0.0842921
0.0735117
0.0531816
0.0650502
0.0637324
0.0730223
0.0770303
0.0606877
0.0560736
0.050993
0.0455855
0.0389978
0.0239479
0.0236872
0.028672
0.0318621
0.0355669
0.0384126
0.0407176
0.0423875
0.0431968
0.0430794
0.0417349
0.0389619
0.0348435
0.029271
0.0232825
0.02311
0.0213023
0.0240369
0.0293305
0.0344584
0.0399872
0.0489465
0.040967
0.0275252
0.037234
0.0452802
0.0521278
0.0568084
0.0596218
0.0607437
0.0601784
0.0582118
0.0552391
0.0515145
0.0473493
0.0434036
0.0394167
0.034165
0.0308311
0.0265619
0.0230556
0.0204491
0.0185976
0.0173861
0.0164667
0.0156745
0.0150013
0.0144096
0.0140757
0.0139894
0.0140045
0.0140308
0.0141146
0.0144279
0.0119835
0.0101008
0.00959804
0.00946508
0.00903547
0.00775176
0.010565
0.0119722
0.0126209
0.0129614
0.0141254
0.0140199
0.0131078
0.0169075
0.0205724
0.021719
0.0219372
0.0214969
0.0273062
0.0273118
0.0267264
0.0249074
0.0214626
0.0168595
0.020687
0.0206403
0.0198705
0.0184506
0.017848
0.015263
0.0148865
0.0140521
0.0137321
0.0144524
0.0178936
0.0174021
0.0177136
0.0188854
0.0191429
0.0203942
0.0214774
0.0206052
0.0203704
0.0155749
0.015477
0.0165099
0.0163467
0.0168243
0.0202003
0.0202347
0.0203419
0.0204123
0.0227237
0.0227391
0.0227607
0.0228862
0.0244491
0.0229229
0.0222544
0.0222455
0.0222835
0.0205452
0.0205581
0.0203988
0.020487
0.017497
0.0166903
0.0174824
0.0184841
0.0204197
0.0238916
0.03035
0.0392398
0.0491695
0.0591123
0.0665492
0.070525
0.0745596
0.0737462
0.0741888
0.0759755
0.0762307
0.0751386
0.0734635
0.0714493
0.0685515
0.0638659
0.0635284
0.0563248
0.0460553
0.0315691
0.0367477
0.0393
0.0418275
0.0421043
0.0426198
0.0416349
0.0401939
0.037022
0.0325245
0.0250386
0.0253824
0.0302641
0.035326
0.0394409
0.0439288
0.0479071
0.0500781
0.0518861
0.0621861
0.0595502
0.0574577
0.0587732
0.0604782
0.0640359
0.0624102
0.0582034
0.0518469
0.0533231
0.0460362
0.0338865
0.0314301
0.0290563
0.0265784
0.0363031
0.0465943
0.0563388
0.0614915
0.0671194
0.0711024
0.0746723
0.0787614
0.0738078
0.0691889
0.0523731
0.074697
0.0569528
0.0428172
0.0345074
0.0273915
0.0315767
0.0336753
0.0331738
0.0310278
0.0265677
0.0216321
0.0258682
0.038888
0.0480965
0.0554661
0.0570264
0.0614424
0.0634581
0.0585788
0.0588852
0.0491789
0.0505359
0.0532171
0.0476315
0.0451379
0.0360219
0.027373
0.0310845
0.0446699
0.061078
0.0750164
0.0891571
0.0568278
0.0423876
0.0344639
0.028507
0.0279408
0.0319787
0.0373902
0.0464874
0.0370756
0.0323503
0.0289238
0.0263512
0.0226134
0.0244221
0.0260941
0.0263293
0.0443192
0.0480179
0.052905
0.0725243
0.0804748
0.0962086
0.0942359
0.0819049
0.0854068
0.0589137
0.0583342
0.0748068
0.0590808
0.0444554
0.0549555
0.06825
0.0817588
0.0944539
0.105274
0.113916
0.117851
0.108317
0.0798503
0.0469089
0.022247
0.0199899
0.0193661
0.0185569
0.0175676
0.016351
0.015376
0.0122176
0.00975824
0.0097635
0.00997188
0.00983684
0.00834338
0.00974166
0.0118402
0.0140172
0.0155022
0.0166886
0.0176897
0.0184012
0.0189876
0.0193895
0.0196955
0.0199641
0.0201936
0.0203691
0.0204903
0.0205607
0.0205841
0.0205562
0.0204728
0.0203325
0.020131
0.0198483
0.0193755
0.0178239
0.0160141
0.0152563
0.0153388
0.0151112
0.0148454
0.0121977
0.0125012
0.0145816
0.0151887
0.0179524
0.0199797
0.0216765
0.0231225
0.0246479
0.0254346
0.0262703
0.026524
0.0265526
0.0264171
0.0262236
0.0259451
0.0255776
0.0244454
0.0214862
0.0251751
0.0276334
0.0294092
0.0308327
0.0318018
0.031909
0.0290394
0.0369503
0.0390644
0.0400125
0.0402825
0.0393422
0.0371011
0.0343156
0.0319876
0.0304141
0.0292568
0.0270509
0.0248019
0.0225131
0.0201286
0.0169734
0.0183774
0.0202904
0.0205091
0.0202569
0.0213536
0.0226735
0.0209572
0.0187075
0.0159973
0.0150708
0.0147312
0.0146381
0.0152786
0.0147965
0.0145188
0.0148722
0.0176244
0.0186806
0.0204059
0.0238295
0.0226916
0.0207352
0.0282111
0.0297691
0.0302418
0.0306763
0.0306059
0.0299331
0.0266627
0.0251158
0.0264821
0.0249212
0.0242249
0.0242342
0.0238476
0.0218352
0.024097
0.0260583
0.0276258
0.0284869
0.029985
0.031621
0.0340013
0.0360342
0.0379199
0.0390534
0.0389985
0.0382161
0.0381721
0.0387923
0.0382225
0.03665
0.0345666
0.0324205
0.0293217
0.0293658
0.0314209
0.0330058
0.0346526
0.0363787
0.0358916
0.0339789
0.0323463
0.0308984
0.029106
0.0290558
0.0308248
0.0323284
0.034128
0.0363421
0.0366391
0.0344089
0.0324995
0.0308983
0.0290959
0.0291002
0.0309012
0.0325141
0.0343243
0.0362485
0.0352594
0.0338206
0.0322379
0.0306949
0.0289434
0.0284969
0.030164
0.0315875
0.0329042
0.0338851
0.0320234
0.0315763
0.0305427
0.0291375
0.0273406
0.0260519
0.0265676
0.0279693
0.0280686
0.0285111
0.0295861
0.0292982
0.0289428
0.0287507
0.028439
0.026184
0.0266199
0.0267804
0.0275428
0.0312092
0.0306674
0.0331193
0.0353021
0.032887
0.0315655
0.0282809
0.0343717
0.034157
0.0347115
0.0332852
0.0235495
0.0217244
0.022804
0.0243282
0.0259134
0.0251704
0.0224935
0.0221431
0.0225692
0.0217318
0.019868
0.0169427
0.0127883
0.0127792
0.0127105
0.0134053
0.016184
0.0178923
0.0180131
0.017822
0.0174227
0.0167301
0.0155286
0.0143939
0.029906
0.0502228
0.057183
0.0597509
0.0574774
0.0431561
0.0396462
0.0324972
0.0266537
0.0223753
0.0197903
0.0169287
0.0170804
0.0205871
0.021911
0.025022
0.0213084
0.0270747
0.0288511
0.0294331
0.0423404
0.0475988
0.0447084
0.035417
0.0221572
0.0175954
0.0189604
0.0195536
0.0199931
0.0203848
0.0207717
0.0211974
0.0206395
0.0180675
0.0158231
0.0158406
0.0164302
0.0189507
0.020515
0.0215051
0.0213764
0.0218908
0.023506
0.0223258
0.0209103
0.0205175
0.0196367
0.022437
0.0229198
0.0225368
0.0225366
0.0230179
0.0231354
0.0232336
0.0238935
0.0197294
0.0221502
0.0227716
0.0230627
0.0238384
0.019322
0.0195459
0.0196408
0.0185097
0.014996
0.0176137
0.0164513
0.0120904
0.0134391
0.0136714
0.0143405
0.0146444
0.0177015
0.0170683
0.016205
0.0165171
0.0226056
0.0235489
0.0236071
0.0207804
0.0194815
0.022021
0.022721
0.0222825
0.0213479
0.0214466
0.0204316
0.0185342
0.0178015
0.0179409
0.0193431
0.0201903
0.0202964
0.0238503
0.0233474
0.0217829
0.0228071
0.0234351
0.0230075
0.022836
0.022574
0.0219875
0.02159
0.0222054
0.0225793
0.0226943
0.0222596
0.0225082
0.0254508
0.0215871
0.0213959
0.0203298
0.0196727
0.0180365
0.0178132
0.0179299
0.0179034
0.0178214
0.0169895
0.0188324
0.0180763
0.0202425
0.0218532
0.0229969
0.024164
0.024325
0.0238935
0.0238538
0.0234527
0.0234099
0.0228533
0.0220033
0.0214143
0.0206476
0.0194368
0.0194509
0.0194168
0.019278
0.020688
0.0205892
0.0221524
0.0232668
0.0229754
0.0220159
0.0219001
0.0207271
0.020688
0.0217263
0.0226137
0.022878
0.0237614
0.0264177
0.0239391
0.0255434
0.0262615
0.0269931
0.0263048
0.0251831
0.0258948
0.0242131
0.0230848
0.0243999
0.0251215
0.0263809
0.0271761
0.0251175
0.0240895
0.0229063
0.0220623
0.0211081
0.0185717
0.0191186
0.0198441
0.0210426
0.0228546
0.0255552
0.0281864
0.0312191
0.0312234
0.0288786
0.027308
0.0320431
0.0315018
0.0365911
0.0370978
0.0330531
0.0304169
0.0276021
0.0271349
0.0261583
0.0255852
0.0243369
0.0256337
0.026074
0.0250777
0.0274417
0.0289131
0.0332665
0.0386114
0.035071
0.0324717
0.0379623
0.0370785
0.0427471
0.0364771
0.0349128
0.0285839
0.0333974
0.0361162
0.0435322
0.0339826
0.0298189
0.0296737
0.0313265
0.0388281
0.0370802
0.0394522
0.0449466
0.0443548
0.0397148
0.0363343
0.0416965
0.0317558
0.0375609
0.0396083
0.033148
0.0324531
0.0392775
0.0399709
0.040363
0.034536
0.0333711
0.0251399
0.0335268
0.0400961
0.0400663
0.0333577
0.0266316
0.0362253
0.0317398
0.0315268
0.0315373
0.027078
0.0271128
0.0263766
0.0267217
0.0275603
0.0249058
0.0257481
0.0259986
0.0261185
0.0261775
0.026273
0.026498
0.0269899
0.0274318
0.0228421
0.0241311
0.0230726
0.0219139
0.0206879
0.0245453
0.0271133
0.0290324
0.030603
0.0318331
0.0322841
0.0302753
0.0376551
0.0392694
0.041025
0.0413416
0.0399736
0.037106
0.0337713
0.0310318
0.0293876
0.0281916
0.0259635
0.0237876
0.0216405
0.0194421
0.016534
0.0150515
0.0138739
0.0124363
0.0123612
0.0120284
0.0116367
0.0113432
0.011563
0.0139887
0.0155767
0.015564
0.0148818
0.0138417
0.0310574
0.0432999
0.0519676
0.057812
0.0616081
0.0637595
0.0641504
0.0613406
0.0513222
0.0468281
0.0424789
0.0380621
0.0338447
0.0333154
0.0423155
0.0503766
0.0570346
0.0628149
0.0661739
0.0641821
0.0492905
0.0490068
0.0653784
0.0923557
0.0817143
0.104598
0.123161
0.0829427
0.0670147
0.0650718
0.0782213
0.0810111
0.0752775
0.0668756
0.0573738
0.0466511
0.051244
0.05547
0.0593225
0.0631325
0.074887
0.0776703
0.076641
0.0736153
0.0690019
0.0622
0.052098
0.036524
0.0156696
0.0156774
0.0173233
0.0180843
0.0162037
0.017242
0.0169404
0.0171638
0.0170176
0.0121738
0.0127025
0.0131806
0.0133915
0.0129232
0.0133921
0.0148466
0.0199922
0.0175474
0.0165274
0.013665
0.015759
0.0179293
0.0188961
0.0187803
0.0183588
0.0174725
0.020298
0.0327174
0.0438066
0.0495515
0.0539138
0.0536852
0.0507693
0.0454915
0.0387257
0.0364657
0.033015
0.0305163
0.0296091
0.0303713
0.0269403
0.0175178
0.014828
0.0158927
0.0155994
0.0145239
0.0164384
0.0176486
0.0184187
0.0190426
0.0195112
0.01987
0.0201226
0.0202855
0.0203631
0.0203746
0.0203368
0.0202562
0.0201332
0.0199665
0.0197471
0.0194475
0.0189475
0.0173167
0.015534
0.0148375
0.0149217
0.0146936
0.0143335
0.0124595
0.0126965
0.0145768
0.0151806
0.014725
0.0152632
0.0156629
0.0167525
0.0188066
0.0209108
0.0227233
0.0214908
0.0209281
0.0209642
0.0205243
0.0178823
0.0212909
0.0236355
0.024128
0.0242949
0.0250297
0.0265368
0.0275753
0.0267324
0.0263691
0.0258643
0.023366
0.0251824
0.0280439
0.0284088
0.0288679
0.0293421
0.0297678
0.0311484
0.0306438
0.0300613
0.029579
0.0274502
0.0266094
0.0308322
0.0222512
0.0177737
0.0156007
0.0122723
0.0122292
0.0122731
0.0132169
0.0139988
0.0147539
0.0141164
0.01513
0.0158455
0.0145
0.0168327
0.016267
0.0157095
0.0143926
0.0141737
0.0143045
0.0155713
0.0172695
0.0280621
0.029934
0.0245489
0.0319897
0.0333806
0.0286041
0.0322947
0.0303756
0.029861
0.0327777
0.0353416
0.035385
0.0332234
0.0325554
0.0309467
0.0208219
0.0201896
0.0194742
0.017747
0.0184872
0.0181507
0.0175731
0.0171348
0.019661
0.0207309
0.0212467
0.0207992
0.0203771
0.0199153
0.0193881
0.0220085
0.0295884
0.0381887
0.0439547
0.0434584
0.0398481
0.0332533
0.0278286
0.0280243
0.0267331
0.0260828
0.0262833
0.0203175
0.0155266
0.017519
0.0174982
0.0185389
0.0191867
0.019689
0.0200848
0.0204086
0.020678
0.020929
0.02117
0.0213808
0.0215578
0.0217062
0.021815
0.0219244
0.022047
0.0222443
0.0224153
0.0210382
0.0185809
0.017329
0.0171887
0.0178909
0.0187922
0.0199362
0.0192487
0.0155054
0.0155511
0.022038
0.0223242
0.0209194
0.0195115
0.0196495
0.0188261
0.0223697
0.0220986
0.022643
0.0224782
0.0222685
0.02206
0.0218437
0.0216127
0.0214004
0.0212159
0.021052
0.0209034
0.0207571
0.0206005
0.0203655
0.0199843
0.0193338
0.0185157
0.01731
0.0184225
0.0191295
0.0207075
0.0226489
0.0238415
0.0230651
0.0217107
0.0209216
0.0209381
0.021157
0.0214143
0.0216962
0.0220318
0.0223545
0.0226735
0.0226341
0.0215369
0.02215
0.0172641
0.0181723
0.0184459
0.0183869
0.0201288
0.0193375
0.0147394
0.0152211
0.0158561
0.0170119
0.0194406
0.0197396
0.0209402
0.0211517
0.0171029
0.0167784
0.0163777
0.0174571
0.0151836
0.0157021
0.0259745
0.0268392
0.0347519
0.0379514
0.0397617
0.033183
0.0458616
0.0526048
0.050576
0.0411589
0.0234897
0.0347587
0.0423679
0.0489317
0.045741
0.0354541
0.0449428
0.0476389
0.063688
0.0591152
0.0526573
0.0637586
0.0449358
0.026964
0.0159081
0.0164863
0.0153368
0.0308753
0.0350217
0.0316072
0.0324114
0.0402089
0.0412498
0.0363675
0.034787
0.0365669
0.0361168
0.0400419
0.0372227
0.0339771
0.0233122
0.019036
0.0197844
0.0210959
0.0228301
0.0251221
0.0250647
0.0239963
0.0227282
0.0218457
0.0208736
0.0183874
0.0178279
0.0197944
0.0214413
0.0228387
0.0243299
0.0251174
0.0259453
0.0261372
0.0260603
0.0257739
0.0253886
0.0248863
0.0242615
0.0229099
0.0243499
0.0249043
0.0250087
0.0252018
0.0254261
0.0256018
0.0256378
0.0254609
0.024602
0.0238613
0.0227233
0.0215882
0.0199751
0.0178582
0.0185263
0.0202759
0.0218642
0.0229806
0.0240202
0.0235855
0.0240056
0.0245784
0.024676
0.0246317
0.0245176
0.0244721
0.0246576
0.0254084
0.0271837
0.0264265
0.0285817
0.0299999
0.0275605
0.0263041
0.0256951
0.0253637
0.0251993
0.0250507
0.0248707
0.0243059
0.0237369
0.0242409
0.0244778
0.0247271
0.025035
0.0255048
0.0262065
0.0273479
0.0287598
0.0283575
0.0266267
0.0267755
0.0256275
0.024712
0.0242629
0.0241132
0.0240634
0.0240258
0.0238817
0.023403
0.0231244
0.0235461
0.0225672
0.0226687
0.0217021
0.0203604
0.0189282
0.0174746
0.0168196
0.035396
0.0353693
0.0461258
0.0425372
0.0371262
0.0472591
0.0603868
0.0523153
0.0633086
0.0670699
0.0544248
0.0507005
0.027868
0.0243326
0.0175389
0.0190609
0.0203932
0.021576
0.0213843
0.0222823
0.0221567
0.0230739
0.0225321
0.0217033
0.021273
0.0202722
0.0203367
0.0190779
0.0175411
0.0174054
0.0190396
0.0199622
0.0211156
0.0210442
0.022449
0.0230254
0.0234315
0.023672
0.0238104
0.0239736
0.0242247
0.0247116
0.0255219
0.0260453
0.0261302
0.0264539
0.0264234
0.0260504
0.0254639
0.0250523
0.0246844
0.0243886
0.0240976
0.0238079
0.0233689
0.0227209
0.022593
0.0231254
0.023506
0.0238091
0.0240014
0.0240624
0.0239812
0.0238097
0.0236512
0.0233668
0.0233341
0.0243088
0.0243873
0.0243718
0.0240671
0.0239378
0.0239352
0.0238307
0.0236477
0.0232708
0.0228585
0.0223291
0.0212694
0.021382
0.0222814
0.0227932
0.0232096
0.0236002
0.0236425
0.0234579
0.0230451
0.0227254
0.0225293
0.0221813
0.0217407
0.019946
0.0203394
0.0209099
0.0215906
0.0222771
0.0228584
0.0231994
0.0232823
0.0231414
0.0228752
0.0224609
0.0216586
0.0216553
0.0222876
0.0225728
0.0226669
0.022538
0.0221248
0.0213217
0.0202545
0.0191386
0.018188
0.0175696
0.0167893
0.0189389
0.0197096
0.0203719
0.0210033
0.021799
0.0226801
0.023217
0.0233551
0.0231184
0.022757
0.0222559
0.021444
0.021473
0.0222379
0.0227362
0.0230662
0.0232779
0.0228609
0.0218624
0.0203172
0.018933
0.0179552
0.0171191
0.016106
0.0146486
0.0152923
0.0156007
0.0166187
0.0180125
0.0195974
0.0209798
0.0217846
0.0221348
0.0222147
0.0220631
0.0215868
0.0214584
0.0217912
0.0218282
0.0215565
0.0208742
0.0196861
0.0180068
0.0164593
0.0155538
0.0156515
0.0161151
0.0155428
0.0143555
0.0154788
0.0162442
0.0171687
0.0186557
0.0206682
0.022152
0.022869
0.0229449
0.0227078
0.0222074
0.0214718
0.0214424
0.0221761
0.0227052
0.0229801
0.0228576
0.0220366
0.0206084
0.0182958
0.0160085
0.0152461
0.0147331
0.0137856
0.0156352
0.0163274
0.0157597
0.0154082
0.0165112
0.0179465
0.0194488
0.0205466
0.0211508
0.0214793
0.0215057
0.0212817
0.0210716
0.0212348
0.021247
0.0210003
0.020543
0.0198585
0.018775
0.0177868
0.0169636
0.0178388
0.0178284
0.0170115
0.0153009
0.01625
0.0174414
0.0172188
0.0189693
0.0209982
0.0222204
0.0228757
0.023002
0.0227155
0.0221262
0.0213795
0.021277
0.0220649
0.022752
0.0232112
0.0234184
0.0230791
0.0228017
0.0216297
0.0200442
0.0198842
0.0169348
0.0154667
0.0173333
0.0183604
0.0188642
0.0186247
0.0200446
0.0206385
0.02095
0.0212257
0.0213087
0.0211935
0.0210189
0.0208451
0.0205843
0.0207509
0.0210164
0.0212534
0.0210848
0.0206875
0.020121
0.0195354
0.0186005
0.0199146
0.0206814
0.0200579
0.0180248
0.0191399
0.021324
0.0204131
0.0214203
0.022367
0.0229044
0.023258
0.0231825
0.0226162
0.0218931
0.0210986
0.0208113
0.0215106
0.0223704
0.022467
0.0225945
0.0225655
0.0218614
0.0216658
0.0209533
0.0206332
0.0197458
0.0190812
0.0182698
0.0203857
0.0235814
0.0257547
0.0272055
0.0289791
0.0273678
0.0238317
0.0214964
0.0149815
0.0149905
0.015202
0.0146937
0.0144194
0.0143181
0.0189182
0.021616
0.0241667
0.0257469
0.0233582
0.0232929
0.0231789
0.0230551
0.0228984
0.0227368
0.0224778
0.0229856
0.0399367
0.282404
0.206262
0.233123
0.221777
0.314757
0.0734913
0.0382863
0.04273
0.0500467
0.0584976
0.0571313
0.0534734
0.0469217
0.0427796
0.0423991
0.0415943
0.0414039
0.039275
0.039262
0.038374
0.0524841
0.104058
0.125658
0.138262
0.146209
0.154536
0.150122
0.158766
0.150772
0.151373
0.153022
0.157726
0.150477
0.143335
0.139683
0.135574
0.118505
0.118834
0.100322
0.104184
0.0866706
0.0909239
0.0948571
0.094122
0.0927465
0.0923832
0.0925162
0.0931705
0.0963034
0.0916701
0.0982679
0.0914486
0.0744182
0.0721319
0.0743445
0.0685511
0.0601024
0.0677654
0.0829614
0.0988719
0.115286
0.0984231
0.121253
0.11425
0.113814
0.108387
0.102641
0.0991408
0.0987041
0.0995195
0.100802
0.1036
0.105678
0.107483
0.110472
0.119226
0.121273
0.119456
0.101743
0.0863119
0.0946645
0.0994331
0.103043
0.10325
0.098461
0.0962697
0.0901095
0.0884995
0.0830189
0.0803772
0.0749784
0.0716125
0.066842
0.0830765
0.0813
0.0882573
0.094507
0.0987329
0.102379
0.104013
0.105326
0.104219
0.10192
0.0970846
0.0951306
0.0904453
0.109079
0.127778
0.13097
0.126591
0.112845
0.107048
0.341682
0.414218
0.415096
0.615235
0.656531
0.846964
0.3371
0.18098
0.193744
0.190232
0.181728
0.178167
0.177446
0.188452
0.19643
0.187456
0.19788
0.177055
0.174885
0.170324
0.198705
0.19692
0.177764
0.155821
0.124233
0.102235
0.101457
0.0851937
0.0854997
0.0745527
0.0752402
0.0770995
0.10482
0.180826
0.211802
0.237138
0.262839
0.322844
0.293385
0.44268
0.35394
0.439071
0.302932
0.326761
0.312385
0.303892
0.302281
0.318856
0.342105
0.301011
0.374385
0.300115
0.64823
0.785142
0.498793
0.461732
0.409591
0.395326
0.385231
0.379381
0.370371
0.485288
0.44984
0.547982
0.509138
0.635241
0.563941
0.573699
0.539999
0.579354
0.598299
0.612258
0.492283
0.537832
0.421333
0.45493
0.380654
0.416254
0.293001
0.296599
0.340455
0.374158
0.400252
0.459106
0.714421
0.607291
0.817226
0.584993
0.706108
0.489957
0.53565
0.511175
0.493871
0.495876
0.524372
0.630028
0.609596
0.696359
0.514696
0.526961
0.51669
0.534018
0.523425
0.558287
0.562956
0.564123
0.562087
0.523362
0.533956
0.532153
0.531952
0.531974
0.532315
0.509569
0.512745
0.505216
0.51099
0.526883
0.514566
0.514476
0.512342
0.504785
0.502734
0.50225
0.504008
0.503776
0.508905
0.508774
0.509108
0.512149
0.526852
0.514384
1.81415
0.89782
0.428692
0.339194
0.221702
0.13607
0.0554369
0.0598334
0.0626462
0.0634003
0.0611361
0.0555725
0.0473704
0.0379896
0.0303656
0.0294666
0.0258458
0.0204815
0.0271083
0.0349064
0.0310319
0.0397962
0.0485149
0.0575278
0.0656836
0.0726196
0.0785244
0.0824746
0.0807075
0.0693546
0.0522211
0.0359599
0.0266854
0.0244107
0.0228228
0.0205952
0.018356
0.0168922
0.0156978
0.0142449
0.0134003
0.0131833
0.013196
0.013319
0.0135889
0.0150938
0.0163663
0.0175145
0.0184092
0.018654
0.0183994
0.0189356
0.0195552
0.0199468
0.0202787
0.0203837
0.0205011
0.0207656
0.0207281
0.0209508
0.0208313
0.0207587
0.0205866
0.0202994
0.0200756
0.0196513
0.0194035
0.018966
0.0186419
0.0179321
0.0179636
0.0184377
0.0188031
0.0179754
0.0180958
0.017196
0.0185723
0.0321292
0.0550411
0.0623397
0.0688761
0.0645537
0.0510146
0.0310742
0.0189106
0.0199148
0.0202836
0.0217699
0.0205912
0.0186128
0.0204315
0.021993
0.0201078
0.0198336
0.0198193
0.0206232
0.020925
0.0216306
0.0219263
0.0223169
0.0225285
0.0227536
0.0229142
0.0227841
0.0228401
0.0223764
0.0223405
0.0220227
0.0217357
0.022124
0.0229717
0.0229841
0.0234938
0.0231815
0.0226301
0.0221153
0.0217074
0.0211375
0.0206883
0.020129
0.0194167
0.0190245
0.019708
0.0205544
0.0199318
0.0223446
0.0223581
0.021333
0.0235856
0.0232217
0.0211803
0.0226398
0.0207949
0.021507
0.0212562
0.0198234
0.0204882
0.0196579
0.0194341
0.0196145
0.0198844
0.0204229
0.0208663
0.021095
0.021644
0.0222732
0.0229258
0.0244286
0.0246637
0.0238311
0.023722
0.0222555
0.0213767
0.0210661
0.022247
0.0238806
0.0235462
0.0242888
0.02412
0.0226432
0.0218975
0.021115
0.0204758
0.0202284
0.0200195
0.0193263
0.0194029
0.0184869
0.0189063
0.0177141
0.0198343
0.0199874
0.021281
0.0199184
0.0181081
0.0202121
0.0236657
0.0373438
0.02572
0.0181325
0.0228428
0.0300047
0.0359452
0.0257197
0.0235402
0.0167403
0.0171477
0.0173822
0.0172942
0.0184612
0.0183287
0.0194156
0.0200758
0.020204
0.0207266
0.0209684
0.0217007
0.0219206
0.0226249
0.0228023
0.0242981
0.0243389
0.0243306
0.0243014
0.023662
0.0236265
0.023897
0.0243403
0.0239785
0.0243926
0.0244054
0.024545
0.0245391
0.0230088
0.0227036
0.0219627
0.0214988
0.020638
0.0202319
0.019718
0.019532
0.0189577
0.0190917
0.0196334
0.0197841
0.0205148
0.0205259
0.0212634
0.0214414
0.021874
0.0219852
0.0226397
0.0227551
0.0230134
0.0230611
0.024466
0.0245597
0.0245374
0.024502
0.0244721
0.0246714
0.0246777
0.0246569
0.0247145
0.0250857
0.0249879
0.0248101
0.0260683
0.0267551
0.0258146
0.0253872
0.0256216
0.0266946
0.0272726
0.0285725
0.0294837
0.0307049
0.0316212
0.03251
0.0331475
0.0336244
0.0336318
0.0336157
0.0329954
0.0325504
0.0341689
0.0405783
0.0437509
0.0489487
0.0512518
0.052972
0.0534645
0.0522501
0.0529508
0.0515866
0.0517656
0.0504744
0.049928
0.0490092
0.047869
0.0470604
0.0454662
0.0446614
0.0491449
0.0556383
0.0557966
0.0490831
0.0462438
0.0406557
0.0342387
0.0374179
0.0438781
0.0388972
0.0371345
0.034188
0.0290024
0.0224707
0.012935
0.0170008
0.0256513
0.0337463
0.0420528
0.0493063
0.0542165
0.0567538
0.0582755
0.0605432
0.0591946
0.0522857
0.0421705
0.0338402
0.0308831
0.0293834
0.0265905
0.022722
0.020344
0.0191525
0.0178492
0.0162458
0.0151075
0.0147622
0.0147302
0.014767
0.016097
0.0173165
0.0173557
0.0184942
0.018669
0.0191611
0.019722
0.0200937
0.0209144
0.0208566
0.0198479
0.0202017
0.0204732
0.0211464
0.0210276
0.0212074
0.0209179
0.0202023
0.0196892
0.0191542
0.018663
0.018319
0.0177738
0.0171689
0.0170934
0.0174928
0.0171707
0.0174913
0.0178729
0.018159
0.0187355
0.0195337
0.0202478
0.0219989
0.0222171
0.0218637
0.0219493
0.0205752
0.0205142
0.0195271
0.0193194
0.0209948
0.0208881
0.0191394
0.0205831
0.0204981
0.0221273
0.0221396
0.0215439
0.021852
0.0216651
0.0199194
0.0191017
0.018154
0.0174428
0.0169655
0.0166573
0.0164256
0.0168727
0.016223
0.015463
0.0156032
0.0155882
0.0156458
0.0159668
0.0163375
0.0170266
0.0176453
0.0185915
0.0191552
0.0199661
0.0202657
0.0220946
0.0220348
0.0219628
0.0219753
0.0219292
0.0223862
0.021639
0.0216137
0.0218762
0.0218935
0.0218531
0.0218194
0.0200639
0.0198778
0.0191153
0.018839
0.0180019
0.0176855
0.0170792
0.016815
0.0164837
0.0163201
0.024521
0.0270697
0.0276325
0.0423296
0.0215472
0.0216476
0.0366974
0.0187237
0.0248327
0.0256506
0.02666
0.0274513
0.0242044
0.0326815
0.0226888
0.0243897
0.0254308
0.0270826
0.014166
0.0143539
0.0145531
0.0186554
0.0227466
0.0291413
0.0440095
0.0508256
0.0560695
0.0597784
0.0625152
0.0657292
0.0686378
0.0710367
0.071789
0.0689635
0.0665628
0.0580505
0.0545372
0.0584156
0.0630965
0.0500611
0.0452667
0.0459214
0.0466724
0.0473226
0.0477244
0.048572
0.04852
0.0497337
0.0490478
0.0503349
0.0493541
0.0506047
0.0489959
0.0456768
0.0422586
0.0352506
0.0329433
0.0317519
0.0289487
0.0263189
0.0236567
0.0216945
0.0213331
0.019584
0.0177861
0.0174621
0.016196
0.0161087
0.0171734
0.0202186
0.0173019
0.0185178
0.0267363
0.0199352
0.0189381
0.0195649
0.0201105
0.0203235
0.0192673
0.0209807
0.0231756
0.0229726
0.0229931
0.0229658
0.0223398
0.022235
0.0219122
0.0219632
0.0219965
0.0220937
0.0220449
0.0203091
0.020257
0.0200168
0.019893
0.0191814
0.0190386
0.0185189
0.0182455
0.0174666
0.0172309
0.0167863
0.0167601
0.0151709
0.0149365
0.0150962
0.0152958
0.0149138
0.0146347
0.0147194
0.0258475
0.0251578
0.0290461
0.0277986
0.0411411
0.0275576
0.0244034
0.0246239
0.0299308
0.0296077
0.0321709
0.0439886
0.033023
0.026497
0.035196
0.0292974
0.0316871
0.0367108
0.0412333
0.0741294
0.0929242
0.0430212
0.0463929
0.0553837
0.0535464
0.0528695
0.0348004
0.0357262
0.024898
0.0174268
0.0146664
0.0249868
0.0321462
0.0311757
0.0387103
0.0807103
0.0472889
0.0541838
0.0622412
0.0615074
0.0652385
0.0617991
0.0594995
0.0599117
0.101342
0.112759
0.0590569
0.0600957
0.0534767
0.0641965
0.107847
0.132491
0.117587
0.12521
0.106695
0.0381823
0.0272043
0.0253202
0.0249306
0.0279234
0.0273089
0.0489984
0.0219748
0.0234334
0.0241374
0.0291901
0.0317626
0.0557579
0.0243347
0.0266572
0.0340025
0.0360961
0.0484933
0.0282259
0.0291692
0.0358606
0.0377214
0.0410976
0.0350149
0.033196
0.030422
0.0271365
0.0255276
0.0256927
0.0324335
0.0493567
0.0289758
0.0294581
0.0314538
0.129956
0.0322087
0.0279392
0.0280197
0.0268077
0.0345064
0.037488
0.101189
0.0337559
0.0173521
0.0167683
0.017302
0.0180544
0.018623
0.0191525
0.0195721
0.0201166
0.0205041
0.0206066
0.0207659
0.0230985
0.0230657
0.022558
0.0220023
0.0228425
0.0221231
0.022188
0.0228093
0.0222913
0.0223634
0.0234147
0.0244299
0.0240082
0.0246295
0.0259421
0.0248634
0.0231027
0.0229446
0.0231423
0.023851
0.0250805
0.0238373
0.0244664
0.0236192
0.0246769
0.0246536
0.0213274
0.0209815
0.0208359
0.0203525
0.0197657
0.0191783
0.0185233
0.0177801
0.0169399
0.0161702
0.0154773
0.0162341
0.0157884
0.0149569
0.0148519
0.015207
0.0158821
0.0167397
0.0175988
0.0183027
0.0190466
0.0197908
0.0204442
0.0209851
0.0211371
0.0217011
0.0256181
0.0257745
0.0270156
0.0256885
0.0270712
0.026048
0.0246215
0.0237316
0.0249444
0.0241425
0.0246054
0.0263018
0.0271933
0.0248706
0.0252501
0.0227485
0.0213446
0.0195914
0.0200156
0.0216391
0.0222594
0.0247663
0.0247204
0.0282906
0.0280641
0.0277829
0.0264291
0.0257442
0.0273274
0.0258121
0.0270157
0.0258615
0.0273767
0.0285571
0.0290277
0.0283291
0.0271824
0.0262958
0.0219857
0.0212176
0.0209333
0.0203674
0.0196972
0.019005
0.0186036
0.0190566
0.0201676
0.0219491
0.024527
0.0280469
0.0301113
0.0152563
0.0171774
0.0159276
0.0212569
0.0204524
0.0429147
0.0187718
0.0480458
0.0455366
0.0300436
0.0460985
0.053123
0.0589479
0.0612195
0.0528779
0.0401518
0.0291694
0.0268108
0.0284995
0.0620747
0.0627948
0.078713
0.0763427
0.0807913
0.0794912
0.0772754
0.0761178
0.0747344
0.0710264
0.0709361
0.0691852
0.0695108
0.0616476
0.0627396
0.0633006
0.0608532
0.0581065
0.0558364
0.0536753
0.0513795
0.0474083
0.0460513
0.0434521
0.0415635
0.0381194
0.0376838
0.0372036
0.0349673
0.0333635
0.0320748
0.0307692
0.0290042
0.029117
0.0273286
0.0271364
0.0221536
0.0218295
0.0208713
0.0204792
0.0199456
0.0193032
0.0187107
0.0180509
0.0342129
0.0305443
0.0325654
0.0339354
0.0344898
0.0407359
0.0477491
0.0733458
0.0681477
0.0757444
0.0643002
0.0670044
0.0659186
0.0653185
0.0679265
0.0715851
0.0768712
0.0894186
0.337064
0.514037
0.256025
0.239575
0.248818
0.253475
0.261183
0.344347
0.363042
0.362437
0.364225
0.333866
0.318876
0.196873
0.226458
0.238407
0.236914
0.223471
0.191872
0.342856
0.522884
0.518923
0.523672
0.523785
0.518751
0.522698
0.502898
0.514251
0.501763
0.515043
0.502321
0.521837
0.51914
0.504363
0.501129
0.501141
0.500903
0.501357
0.501537
0.504856
0.50602
0.506071
0.505068
0.503671
0.514803
0.351983
0.0654238
0.0476604
0.0725054
0.0995241
0.0756288
0.110578
0.13618
0.0957633
0.0527308
0.0419828
0.0489445
0.05476
0.0525811
0.0650808
0.0900497
0.0868096
0.070338
0.070831
0.0642616
0.0926178
0.0893094
0.112768
0.141358
0.143977
0.0939525
0.0703012
0.0613179
0.115362
0.135409
0.130137
0.0454741
0.0238753
0.0198836
0.0206415
0.0307949
0.0160549
0.017647
0.0178462
0.0204355
0.0499521
0.0228634
0.0482532
0.0494407
0.129054
0.106637
0.134816
0.0779166
0.10208
0.0574483
0.0681465
0.0781973
0.0853465
0.0822523
0.0671227
0.14509
0.199119
0.126308
0.477369
0.482364
0.15004
0.197943
0.557047
0.513294
0.503199
0.50171
0.501676
0.50184
0.501798
0.500954
0.500902
0.500718
0.500758
0.500712
0.501159
0.504764
0.520619
0.514785
0.505246
0.501385
0.500821
0.500793
0.500683
0.50072
0.500738
0.50079
0.500999
0.501026
0.501117
0.50162
0.503875
0.512349
0.446171
0.168183
0.183596
0.411459
0.366656
0.511664
0.504625
0.501345
0.500915
0.500834
0.500808
0.500778
0.500953
0.50088
0.501385
0.501221
0.501282
0.502786
0.508302
0.506487
0.452433
0.376922
0.426796
0.336351
0.506764
0.507818
0.503268
0.502879
0.503226
0.503385
0.501495
0.501499
0.50097
0.501034
0.500868
0.501322
0.504773
0.511259
0.350379
0.172808
0.17926
0.262297
0.0869763
0.0886625
0.0890786
0.0896359
0.225744
0.379498
0.490309
0.41578
0.442383
0.499355
0.359232
0.341647
0.273491
0.298616
0.377915
0.333464
0.304641
0.240078
0.275411
0.241018
0.299571
0.214914
0.234472
0.221483
0.280383
0.285656
0.287168
0.227563
0.216922
0.270902
0.289813
0.323488
0.219265
0.262599
0.202192
0.191792
0.0841261
0.0845432
0.0755012
0.0650324
0.0669149
0.0757226
0.0752258
0.0818024
0.0794763
0.0841542
0.0818483
0.0789808
0.0712771
0.0729092
0.066032
0.068136
0.127891
0.165332
0.14914
0.149678
0.177121
0.123156
0.151845
0.136057
0.179804
0.223418
0.140551
0.169063
0.145017
0.233197
0.344455
0.698669
0.244313
0.151027
0.278305
0.344223
0.283614
0.185695
0.445819
0.550673
0.300801
0.372629
1.24328
1.06854
1.81415
0.960592
1.04255
0.588833
0.576926
0.992252
0.610816
0.60035
0.501306
0.538381
0.403126
0.261565
0.250638
0.242252
0.187208
0.207484
0.200354
0.23618
0.259714
0.214971
0.258272
0.297382
0.344707
0.295191
0.245596
0.304447
0.170906
0.208514
0.261062
0.24265
0.19533
0.251166
0.339652
0.273531
0.225507
0.300404
0.396382
0.441801
0.364624
0.300171
0.329418
0.824282
0.762952
0.798932
0.470335
1.90701
1.55658
0.211768
0.0741817
0.039287
0.0247982
0.0218356
0.0190785
0.0185698
0.0463524
0.020354
0.0237157
0.0207329
0.0238886
0.0250333
0.0287082
0.0427029
0.0332223
0.0405884
0.0322547
0.0334849
0.0300675
0.0365607
0.0379972
0.0365269
0.0292317
0.028144
0.0365509
0.041813
0.0267398
0.0430513
0.0459886
0.033106
0.0426594
0.0472771
0.027171
0.113769
0.0460831
0.0415021
0.0411022
0.0629304
0.141471
0.0512096
0.0761976
0.445019
1.41463
0.394844
0.138172
0.105627
0.0412667
0.0368183
0.0276004
0.0356832
0.0316831