/*--------------------------------*- C++ -*----------------------------------*\
| =========                 |                                                 |
| \\      /  F ield         | OpenFOAM: The Open Source CFD Toolbox           |
|  \\    /   O peration     | Version:  v2012                                 |
|   \\  /    A nd           | Website:  www.openfoam.com                      |
|    \\/     M anipulation  |                                                 |
\*---------------------------------------------------------------------------*/
FoamFile
{
    version     2.0;
    format      ascii;
    class       volScalarField;
    location    "165";
    object      k;
}
// * * * * * * * * * * * * * * * * * * * * * * * * * * * * * * * * * * * * * //

dimensions      [0 2 -2 0 0 0 0];


internalField   nonuniform List<scalar> 
18258
(
0.0334976
0.015775
0.0123248
0.0101588
0.0109743
0.0139711
0.0167661
0.0211313
0.0255516
0.0314914
0.0385607
0.0474979
0.0535029
0.0606575
0.063641
0.0619463
0.0520839
0.0473267
0.0566201
0.0810706
0.0710119
0.051389
0.0621813
0.061519
0.0726489
0.0769236
0.0605543
0.0552335
0.0497948
0.0441113
0.0375921
0.0235817
0.0240589
0.0287525
0.0320426
0.0357976
0.0387031
0.0411075
0.0427427
0.0435598
0.0434679
0.0421639
0.0394593
0.0353571
0.0298285
0.0237436
0.0229057
0.0241883
0.029939
0.035344
0.0406967
0.046251
0.0546524
0.0447095
0.0290563
0.0392572
0.0477509
0.0546439
0.059064
0.0615035
0.062256
0.0613315
0.0590305
0.0557597
0.0517875
0.0474381
0.043411
0.0394178
0.0341701
0.0309049
0.026791
0.0234465
0.0210063
0.0192939
0.018175
0.0171744
0.0163109
0.0155793
0.0149641
0.0145421
0.0144495
0.0144735
0.0145714
0.0146661
0.0150066
0.0126656
0.0108983
0.0104304
0.0101807
0.00953837
0.00809281
0.0106531
0.0117589
0.0121741
0.0124405
0.0136121
0.0147585
0.014337
0.0136191
0.0125157
0.0124986
0.0169914
0.0177886
0.0228266
0.0216235
0.0167615
0.0148793
0.016648
0.019462
0.0224852
0.0192419
0.0192194
0.0179261
0.0170346
0.0148855
0.0149114
0.0143892
0.0140823
0.0149914
0.0177544
0.0171725
0.0172932
0.0185021
0.0188191
0.0200387
0.0210507
0.0203889
0.0202088
0.0163495
0.0162498
0.017289
0.0171636
0.0176426
0.020148
0.0202045
0.0205446
0.0207597
0.0235584
0.0235777
0.0235458
0.0236356
0.0244564
0.0235109
0.0231053
0.0231315
0.0231654
0.0209864
0.0207647
0.0204047
0.0204438
0.0182666
0.0175305
0.0182631
0.0192415
0.0212098
0.0249434
0.0313648
0.0402747
0.050364
0.0606072
0.06839
0.0727614
0.077146
0.0766163
0.0773451
0.0794663
0.0798535
0.0787252
0.0768775
0.0747192
0.0717765
0.0671573
0.0667199
0.0590876
0.0481919
0.0334411
0.0389621
0.0418119
0.0445718
0.0448602
0.0453259
0.0440896
0.0423005
0.0386995
0.0335649
0.0246842
0.026026
0.0304679
0.0351085
0.0388805
0.0430329
0.0466135
0.0483793
0.0500179
0.0592883
0.0571694
0.0553095
0.0571359
0.0586761
0.0618489
0.0602321
0.056307
0.0504849
0.0521275
0.0452965
0.0339714
0.0317498
0.0296322
0.0271572
0.0377433
0.0495706
0.061293
0.0677399
0.0739541
0.0788584
0.0829277
0.0874871
0.0819972
0.0768003
0.057946
0.0842219
0.0661619
0.0508524
0.0416083
0.0338483
0.0304362
0.0336175
0.0338984
0.0322018
0.0275913
0.0218554
0.0232531
0.0360887
0.0459024
0.0539613
0.0555617
0.0602831
0.0627427
0.0574041
0.057991
0.0470707
0.0482723
0.0517876
0.0465634
0.0441934
0.0355993
0.0278522
0.0337317
0.0501859
0.068881
0.0849736
0.100084
0.0665347
0.0505859
0.0414716
0.0347059
0.033369
0.0379418
0.043899
0.0531111
0.0412332
0.0372131
0.0337337
0.0308918
0.0255287
0.0272991
0.0284309
0.0268229
0.0500485
0.0580697
0.0617246
0.0841466
0.092584
0.108573
0.107461
0.0928587
0.0964033
0.0690397
0.0689207
0.0864989
0.0683954
0.0513404
0.061589
0.0744524
0.088211
0.101328
0.112608
0.121684
0.123384
0.111896
0.0811026
0.0466941
0.0212778
0.0186484
0.0181001
0.0173894
0.0164998
0.015694
0.0150657
0.0121205
0.00950267
0.00928932
0.00947255
0.00942028
0.0082732
0.00952346
0.0115848
0.0137723
0.0152753
0.0164791
0.0174936
0.018222
0.0188059
0.0192009
0.0194939
0.0197578
0.0199892
0.0201713
0.0203055
0.0203926
0.0204319
0.0204157
0.0203379
0.0201972
0.0199918
0.0197057
0.019236
0.0177181
0.0158726
0.0150453
0.0151035
0.0148543
0.0145531
0.0119254
0.0122966
0.0143103
0.01494
0.0177232
0.0197532
0.0214509
0.0228994
0.0244205
0.025195
0.0260217
0.0262866
0.026339
0.0262391
0.0260903
0.0258686
0.0255717
0.0245173
0.0212532
0.0248527
0.0272497
0.0289402
0.0302946
0.0312002
0.0313077
0.0285687
0.0360178
0.0384879
0.0393939
0.0396545
0.0388336
0.0368316
0.034394
0.0323468
0.0308398
0.0297227
0.0275833
0.0253365
0.023027
0.0206112
0.0173892
0.0186553
0.0204908
0.0207007
0.0204081
0.0214517
0.022705
0.0210469
0.0189545
0.0160769
0.0150828
0.0145958
0.0144068
0.0148198
0.0144754
0.0143718
0.0148663
0.0178635
0.0189549
0.0206551
0.0239121
0.0227793
0.0208361
0.0280049
0.0296153
0.0300664
0.030416
0.0303211
0.0295619
0.0264845
0.0250326
0.0264225
0.024971
0.0243416
0.0244329
0.0240661
0.0222038
0.0245054
0.0265073
0.0280983
0.0289455
0.0301819
0.0317358
0.0338956
0.0356876
0.0373449
0.0383498
0.0383362
0.0378111
0.0379977
0.0386584
0.038363
0.0366645
0.0345839
0.0324856
0.029521
0.0293173
0.0312941
0.0328604
0.0345245
0.0363029
0.0356092
0.0337187
0.0320892
0.0306654
0.0289524
0.0288266
0.0305052
0.0319519
0.0336932
0.0358147
0.035985
0.0338417
0.0320211
0.0305145
0.02881
0.0287746
0.0304764
0.0319908
0.0337171
0.0356072
0.0347358
0.0332615
0.031736
0.0302662
0.0286006
0.0281615
0.0297669
0.0311517
0.0324691
0.0335389
0.0318649
0.0312699
0.0301962
0.0288047
0.0270452
0.0257915
0.0263005
0.0276889
0.0277999
0.0282811
0.0294025
0.0292536
0.0289727
0.0289311
0.0286498
0.0264035
0.0268101
0.0268563
0.0275462
0.0308351
0.0303546
0.0330278
0.0354416
0.0331336
0.0316415
0.0280723
0.0336279
0.0336717
0.0346362
0.0334657
0.023703
0.0218504
0.0228459
0.0243766
0.0260169
0.0253191
0.0225748
0.0225158
0.0231238
0.0225423
0.0209872
0.0180077
0.0135248
0.0135328
0.0135245
0.014257
0.0170551
0.0186387
0.0187434
0.0185838
0.0182781
0.0178039
0.0170853
0.0160145
0.0155984
0.0246759
0.0448417
0.0564869
0.0558685
0.0425109
0.0356377
0.0263223
0.0182211
0.010905
0.0107438
0.0113955
0.0137258
0.0115279
0.0107273
0.0147922
0.0119472
0.0199136
0.0230548
0.0303156
0.0413876
0.0399918
0.0303871
0.0204209
0.0183834
0.0192382
0.019758
0.0201481
0.0205323
0.0209211
0.0213446
0.0218613
0.0215519
0.0189205
0.0166818
0.0168106
0.0173818
0.0198811
0.0212566
0.0220455
0.0217103
0.0219531
0.0236641
0.0224236
0.0212074
0.0210037
0.0203021
0.0231382
0.0234806
0.0228487
0.0228467
0.0231204
0.0230028
0.0231422
0.0239478
0.019769
0.0218824
0.0224335
0.0227145
0.0235077
0.0190261
0.019218
0.0192854
0.0181406
0.0148901
0.0179718
0.0167325
0.0121493
0.0134587
0.0134249
0.0140365
0.0143609
0.0171107
0.0162833
0.0155613
0.0163288
0.0222862
0.0230888
0.0232642
0.0206196
0.0193728
0.0218629
0.022453
0.0219983
0.0211083
0.0212697
0.0203249
0.0184215
0.0177027
0.0178397
0.0192504
0.0200495
0.0201207
0.0237201
0.0232158
0.0216558
0.0226348
0.023231
0.0228146
0.0227022
0.0226488
0.0222812
0.0218558
0.0222658
0.0224528
0.022507
0.0220677
0.0223225
0.0249411
0.0214008
0.0212136
0.0201409
0.0194873
0.0178627
0.0176082
0.0177056
0.0176656
0.0175717
0.0167367
0.0185896
0.0178651
0.0199931
0.0216023
0.0227503
0.0239189
0.0240675
0.023635
0.0235933
0.023207
0.0231711
0.0226232
0.0217814
0.0212009
0.0204284
0.0192242
0.0192166
0.0191676
0.0190244
0.0204261
0.0203262
0.0218878
0.0230056
0.0227185
0.0217561
0.0216463
0.0204729
0.0204493
0.0214873
0.0223728
0.0226238
0.0234838
0.0260086
0.0236746
0.0252274
0.0259262
0.0265893
0.0259793
0.0248815
0.0256334
0.023973
0.0228631
0.0241815
0.0249048
0.0261668
0.0269613
0.0249845
0.0239575
0.0227608
0.0218984
0.0209129
0.0183936
0.0190052
0.0197936
0.0210236
0.0228356
0.0255533
0.0282866
0.031207
0.0312643
0.0289655
0.0272751
0.0320812
0.0315454
0.0365157
0.0371255
0.0329972
0.0301894
0.0272765
0.026852
0.0259332
0.0253991
0.0241258
0.0253712
0.0257934
0.0248523
0.0273214
0.0288973
0.0332273
0.0387972
0.0354644
0.0326355
0.0376898
0.0366014
0.0425591
0.0363371
0.0346838
0.0285486
0.0331495
0.035507
0.0432473
0.0338366
0.0296552
0.0294356
0.0307622
0.0382489
0.0367878
0.039379
0.0445402
0.0438801
0.039005
0.0357674
0.0415222
0.031564
0.0370038
0.0390184
0.0324014
0.032155
0.0390245
0.0396389
0.0398114
0.0337327
0.0329992
0.0249844
0.0335452
0.0400187
0.0399389
0.0331661
0.0259626
0.0358559
0.0314822
0.0312874
0.0312877
0.0268853
0.0268159
0.026113
0.0263676
0.0270779
0.0246388
0.0254441
0.0257065
0.0258731
0.0260094
0.0262086
0.0265628
0.0272219
0.0279831
0.0228672
0.0243162
0.0229449
0.0215934
0.0202306
0.0240098
0.0264871
0.0282947
0.0297477
0.0308806
0.0313656
0.0299861
0.0379318
0.039581
0.0412655
0.0414275
0.0401817
0.037498
0.0340438
0.0305737
0.0284081
0.0271037
0.0246265
0.02253
0.0204884
0.0183655
0.015591
0.0142686
0.0129423
0.0115652
0.0112103
0.0106654
0.0100613
0.00937334
0.00897224
0.0113744
0.0180014
0.027686
0.0330151
0.0386028
0.0453968
0.0518363
0.0570193
0.0609186
0.0637495
0.0655761
0.0661006
0.0636356
0.053327
0.0483171
0.0434119
0.0384022
0.0332454
0.032271
0.0414607
0.0497454
0.0567083
0.0629668
0.0670182
0.0653516
0.0497911
0.0468718
0.0627069
0.0902335
0.0810482
0.104075
0.120312
0.0799558
0.0650466
0.064121
0.0794374
0.0819514
0.07545
0.0666102
0.0568535
0.0459706
0.0511235
0.0559729
0.0605325
0.0651104
0.0776072
0.0799128
0.0786325
0.0759813
0.0726009
0.0682245
0.0618596
0.0535447
0.0444114
0.0365197
0.029327
0.0188861
0.0124455
0.0134517
0.0128902
0.0145923
0.0142395
0.00996541
0.0102708
0.0104429
0.010334
0.0100579
0.0100759
0.0114537
0.0180687
0.0148218
0.0134206
0.0115515
0.0143405
0.0161852
0.0180391
0.0185827
0.0187131
0.0198408
0.0366922
0.0443752
0.0498296
0.0544969
0.0574189
0.0561975
0.0529316
0.0471618
0.0404868
0.0377631
0.0337503
0.030218
0.0283781
0.0291956
0.0256509
0.0160593
0.0147031
0.0157418
0.015456
0.0144664
0.0164005
0.0176077
0.0183708
0.0189861
0.0194443
0.0197945
0.0200422
0.0202043
0.0202867
0.0203074
0.0202809
0.0202123
0.0201003
0.0199421
0.0197266
0.0194236
0.0189081
0.0172099
0.0153823
0.0146756
0.0147599
0.0145301
0.014169
0.0122956
0.012519
0.0143789
0.0149782
0.0145856
0.0151655
0.0156257
0.0168082
0.0189753
0.0211106
0.0229437
0.0216461
0.0210054
0.0209822
0.0205755
0.0174696
0.0207559
0.0236006
0.0241101
0.0243721
0.0251773
0.0267653
0.02772
0.0267947
0.0263016
0.0257754
0.0227102
0.0243198
0.0278334
0.0282442
0.0289105
0.0295018
0.0300673
0.0313541
0.0307279
0.0298456
0.0292532
0.0264185
0.0255575
0.0316513
0.0206229
0.014418
0.0103674
0.0108407
0.0110518
0.0107182
0.0114483
0.0119499
0.0121481
0.0114953
0.0125847
0.0135048
0.012811
0.0154704
0.0147393
0.0136837
0.0132359
0.0140628
0.0148426
0.015251
0.0163505
0.0263718
0.0271345
0.0226919
0.0291113
0.0317247
0.0289108
0.0317453
0.0294415
0.0280614
0.0308164
0.0342037
0.0354642
0.0331675
0.0317596
0.0311378
0.0207646
0.0200744
0.0193645
0.017506
0.0177333
0.0172453
0.0167839
0.0163665
0.0188378
0.0202252
0.0213307
0.0210279
0.0207025
0.0202645
0.0215347
0.0264259
0.0361454
0.0440306
0.0465731
0.0453219
0.0417012
0.0352506
0.0293238
0.0287133
0.0266874
0.0253178
0.0249721
0.0190415
0.0149803
0.0174035
0.0173898
0.0184422
0.0191015
0.019617
0.0200267
0.0203669
0.0206585
0.0209391
0.0212041
0.0214376
0.0216359
0.0218078
0.0219513
0.0221056
0.0222903
0.0225454
0.0227514
0.0211477
0.0185498
0.0172189
0.0170727
0.0177852
0.0186831
0.0198073
0.0190703
0.0153639
0.0154398
0.0218496
0.022271
0.0208993
0.0194837
0.0196927
0.0188544
0.0226203
0.0224176
0.0231708
0.0229619
0.0226793
0.0223958
0.022112
0.0218211
0.0215499
0.0213137
0.0211012
0.0209056
0.0207136
0.0205119
0.0202423
0.0198397
0.0191637
0.0183595
0.0170252
0.0182579
0.0192828
0.0208873
0.0228567
0.0239162
0.0230407
0.0216991
0.0209994
0.0211256
0.021416
0.0217424
0.0220935
0.0224977
0.022923
0.0233229
0.0232912
0.022003
0.0226397
0.0173972
0.018253
0.0185513
0.0185076
0.0201723
0.0193351
0.0146459
0.0151359
0.0158397
0.0171083
0.0196749
0.0200298
0.0213657
0.0215908
0.0172488
0.0169348
0.0165084
0.0175293
0.0151649
0.015789
0.0264541
0.0270902
0.0348313
0.0381653
0.0397847
0.0330678
0.0455023
0.0523175
0.0504152
0.0408325
0.023461
0.034563
0.0420743
0.0487025
0.0456277
0.0354668
0.0447532
0.0472372
0.0630173
0.0586403
0.0522843
0.0630181
0.0445777
0.0268362
0.0157883
0.0163634
0.015179
0.0305902
0.0346821
0.0313746
0.0322124
0.0398312
0.040849
0.0361135
0.0344409
0.0361957
0.0357482
0.03968
0.0369787
0.0336283
0.0232321
0.0189674
0.0197983
0.0211973
0.02302
0.0253563
0.025252
0.0241126
0.0227565
0.021788
0.0207445
0.0182572
0.0176097
0.0195614
0.0211845
0.022558
0.024062
0.0248793
0.0257166
0.0258815
0.0257744
0.0254532
0.0250268
0.0244741
0.023792
0.0223866
0.0235969
0.024273
0.024482
0.0247596
0.0250712
0.0253459
0.0254859
0.025372
0.0244321
0.0236289
0.0224684
0.0213555
0.0197566
0.0176491
0.0183282
0.020079
0.0216703
0.0227785
0.0238233
0.0234311
0.0239147
0.0245609
0.0245815
0.0243995
0.0241745
0.0240228
0.0241143
0.0247483
0.0264673
0.026242
0.0291424
0.0303168
0.0277224
0.0263782
0.0256754
0.0252417
0.024991
0.0247815
0.024581
0.0240365
0.0234927
0.0239928
0.0242476
0.0245477
0.0249089
0.0254202
0.0261166
0.0272176
0.0286415
0.0285279
0.0262206
0.0260292
0.0249637
0.024175
0.023801
0.0237513
0.0238016
0.0239083
0.0238517
0.0233421
0.023021
0.0234263
0.0224214
0.0224897
0.0215234
0.0201724
0.018739
0.0172934
0.0166347
0.0351473
0.0351376
0.0456239
0.0422681
0.0369583
0.0469608
0.0598821
0.0519128
0.0626003
0.0663725
0.0539522
0.0501497
0.0277762
0.0243082
0.0173646
0.0188836
0.0202215
0.0214186
0.0212349
0.0221497
0.0220313
0.0229908
0.0224501
0.0216655
0.0211306
0.0201204
0.0201769
0.0189122
0.017374
0.0172406
0.0188814
0.0199114
0.0210853
0.0210724
0.0225238
0.0230284
0.0234199
0.0235647
0.0235502
0.0236336
0.0238025
0.0242485
0.0249644
0.025441
0.0256139
0.0261021
0.0258447
0.0255243
0.0250692
0.024758
0.0244367
0.0241537
0.0238551
0.0235741
0.023142
0.0224881
0.0223672
0.0228801
0.023222
0.0234595
0.0235991
0.023585
0.023396
0.0230832
0.0227674
0.0224167
0.0224687
0.0236992
0.0239224
0.0240361
0.0238106
0.0236347
0.0236153
0.0234998
0.0234099
0.0231886
0.0228272
0.0223591
0.0212972
0.0213974
0.0222731
0.0227121
0.0230338
0.0233036
0.0233164
0.0232274
0.0228545
0.0225695
0.0222341
0.0216866
0.0209693
0.018602
0.0190817
0.0197015
0.020542
0.0213871
0.0221051
0.0225609
0.0227485
0.0227424
0.0225669
0.0222129
0.0214667
0.0214466
0.0219863
0.0221574
0.0221106
0.0218103
0.0211943
0.0202713
0.0190688
0.0178531
0.0168827
0.0164013
0.0156201
0.0181479
0.0191738
0.0201066
0.0209568
0.021758
0.0226072
0.0229439
0.0230189
0.0228717
0.0226141
0.0222062
0.02144
0.0214475
0.0221472
0.0225327
0.0227428
0.0228314
0.0225427
0.0218632
0.0203352
0.01893
0.0177613
0.0166877
0.0155707
0.0153017
0.0158035
0.0153783
0.0158168
0.0169475
0.0184308
0.0197927
0.0207751
0.0213672
0.0216494
0.0216755
0.0213445
0.0211657
0.0212965
0.0211038
0.0206168
0.0197597
0.0184845
0.0170158
0.0157905
0.0154078
0.0160379
0.0166982
0.0161008
0.0138748
0.0149888
0.0160605
0.0171748
0.0188394
0.0208908
0.0218959
0.0223897
0.0225445
0.0224314
0.0220725
0.0214235
0.0213704
0.021991
0.0223404
0.0224306
0.022321
0.0218578
0.0210095
0.0185041
0.015785
0.0145644
0.0138735
0.0129299
0.0162507
0.0169438
0.0161102
0.0155639
0.0164174
0.0174624
0.0186205
0.0195098
0.0201449
0.0206388
0.0209066
0.0209294
0.0206604
0.0205511
0.0203364
0.0199959
0.0196581
0.019309
0.0185208
0.0176882
0.0167362
0.0178154
0.0184125
0.0176606
0.0144163
0.0149744
0.0157554
0.0162093
0.0188345
0.0213241
0.02203
0.0222603
0.0223862
0.022275
0.0218947
0.0212857
0.0211662
0.0217944
0.0222561
0.0225246
0.0227784
0.0229172
0.0230134
0.021086
0.0178613
0.0172057
0.0155402
0.0147157
0.0182196
0.0189049
0.0183927
0.0178153
0.0194684
0.0201663
0.0204221
0.0204233
0.0203531
0.0202606
0.020276
0.0203838
0.0200884
0.01997
0.0200738
0.020287
0.0202388
0.0200082
0.0194324
0.0186672
0.0176002
0.0194663
0.0211777
0.0209154
0.0169455
0.0174782
0.0182662
0.0177452
0.0203805
0.0222414
0.0227687
0.0227886
0.0225475
0.0221235
0.0216112
0.0209841
0.0207126
0.021268
0.0218314
0.0218794
0.0219997
0.021975
0.0214204
0.0212654
0.0206985
0.0204392
0.0196828
0.0191174
0.0183677
0.0205536
0.0237752
0.0259878
0.0275821
0.0294814
0.0280817
0.0245581
0.0222952
0.0153135
0.0153258
0.0155605
0.0149131
0.0145282
0.0143481
0.0187741
0.0215207
0.0242299
0.0259855
0.0235142
0.0234832
0.0233976
0.0232782
0.023164
0.0230695
0.0228672
0.0237387
0.0416745
0.28342
0.211147
0.236267
0.225219
0.315794
0.0804539
0.0394008
0.0438657
0.0514833
0.0595898
0.0580957
0.0539668
0.046979
0.0422104
0.0417902
0.0410026
0.0407502
0.0390117
0.0389595
0.0378447
0.0444564
0.0896994
0.121078
0.134902
0.143547
0.153068
0.148618
0.157912
0.150143
0.150774
0.152451
0.157183
0.149856
0.142467
0.138562
0.13429
0.117085
0.117469
0.0991711
0.10302
0.0860021
0.0904157
0.0943247
0.0936857
0.0924765
0.0922479
0.092507
0.0932996
0.0968817
0.0923118
0.0994454
0.0928249
0.0754121
0.0730561
0.0757059
0.0698127
0.0609598
0.0694618
0.0855752
0.102046
0.118582
0.100121
0.12361
0.115851
0.114808
0.109103
0.102801
0.0990573
0.0983594
0.0989738
0.100075
0.102677
0.104541
0.106085
0.108878
0.11738
0.119566
0.118028
0.100728
0.0856624
0.0940924
0.0988669
0.102631
0.102964
0.0983948
0.0961325
0.0897311
0.0881386
0.0825161
0.0799915
0.0744541
0.0712131
0.066398
0.0827573
0.0810428
0.0879971
0.0942158
0.0985249
0.102093
0.1037
0.104869
0.103657
0.101236
0.0964
0.0944693
0.0897738
0.108012
0.126306
0.129219
0.124738
0.111302
0.105769
0.337416
0.409329
0.410425
0.608576
0.649382
0.838806
0.334096
0.179769
0.192023
0.188713
0.180598
0.177413
0.177136
0.188799
0.1978
0.189157
0.19949
0.178992
0.174646
0.172571
0.202924
0.201305
0.181932
0.159604
0.128525
0.105906
0.106977
0.0890488
0.09006
0.0765922
0.0761639
0.0762048
0.0907637
0.163328
0.20525
0.231741
0.257957
0.317705
0.288073
0.436089
0.350588
0.436572
0.302026
0.326094
0.311979
0.303346
0.301366
0.317299
0.339016
0.298314
0.370704
0.297328
0.644926
0.780544
0.496618
0.458571
0.406834
0.392951
0.383267
0.377855
0.369652
0.486276
0.451498
0.550054
0.510946
0.634635
0.563693
0.577505
0.543861
0.585007
0.607116
0.621345
0.50079
0.553436
0.432419
0.468963
0.387351
0.422222
0.295243
0.292563
0.331271
0.368701
0.393516
0.447936
0.706319
0.6007
0.810454
0.581767
0.703746
0.489095
0.535147
0.5114
0.493694
0.495141
0.522954
0.627344
0.607019
0.691985
0.514671
0.526979
0.516669
0.534022
0.523445
0.5584
0.563073
0.564227
0.562172
0.523399
0.533951
0.532158
0.531959
0.531985
0.532328
0.509568
0.512742
0.505212
0.510994
0.526922
0.514571
0.514496
0.512358
0.504785
0.502732
0.50225
0.504006
0.503778
0.508907
0.508777
0.509113
0.51216
0.526856
0.514425
1.81952
0.901993
0.42898
0.338554
0.220016
0.134616
0.0552918
0.059649
0.0624786
0.0632982
0.0611465
0.0556813
0.0475034
0.0375545
0.0298024
0.0288339
0.0257125
0.0272651
0.0346875
0.0422218
0.0385455
0.0463197
0.054013
0.0623116
0.0702726
0.077213
0.0830914
0.0860319
0.0830066
0.0702979
0.0526398
0.0352787
0.0250473
0.0226492
0.0210044
0.0190071
0.0169018
0.0152575
0.0142513
0.0130787
0.0124454
0.0123553
0.0125712
0.0128092
0.0132461
0.0147552
0.0160491
0.017227
0.0181819
0.0184244
0.0179141
0.0184517
0.0190409
0.0194307
0.01977
0.0195996
0.0195931
0.0198384
0.0197978
0.0199992
0.0198995
0.0199025
0.0197609
0.0195862
0.0193594
0.0189223
0.0186443
0.0180854
0.0177417
0.016927
0.0169629
0.0173916
0.0177232
0.016729
0.0166818
0.0159084
0.0266352
0.0477408
0.0610248
0.0660709
0.0713629
0.0673635
0.0569535
0.0389344
0.0191334
0.0188128
0.0192748
0.0218232
0.021356
0.0173516
0.018121
0.0187208
0.0174753
0.0173249
0.0173525
0.0193498
0.019928
0.0212966
0.0217855
0.0221843
0.0224051
0.0223978
0.0224976
0.0222538
0.022261
0.021901
0.0218876
0.0215802
0.0213519
0.0216355
0.0223161
0.0223808
0.022994
0.0226945
0.0223834
0.0218254
0.0214011
0.02056
0.0196312
0.0186395
0.0171152
0.0166881
0.0172204
0.0177502
0.0173066
0.0188056
0.0199987
0.019682
0.0244857
0.022728
0.02028
0.0228214
0.0185143
0.0186839
0.0181626
0.0170636
0.0176069
0.0170903
0.0169746
0.017255
0.017516
0.018673
0.0196235
0.0202645
0.0211202
0.0217804
0.0224914
0.0236768
0.0239763
0.0230259
0.022857
0.021687
0.0210147
0.0207059
0.0216241
0.0228974
0.022794
0.0236539
0.0234048
0.0221764
0.0213691
0.0205074
0.0195359
0.0188779
0.0181182
0.017402
0.0170042
0.0162207
0.0163606
0.0153218
0.0168389
0.0171106
0.0190656
0.0173636
0.01698
0.0224959
0.0283022
0.0441706
0.0322029
0.0212064
0.0224954
0.0304703
0.0376861
0.0259367
0.0254884
0.0149088
0.0164289
0.0152411
0.0154864
0.0165535
0.0168366
0.0179812
0.0190281
0.0192575
0.0200021
0.0203384
0.0211135
0.0213682
0.022101
0.0222915
0.0235485
0.0236154
0.0236847
0.0236645
0.022893
0.0228217
0.0228605
0.023302
0.02308
0.0237493
0.0237754
0.0238556
0.0237885
0.0224652
0.0221468
0.0213808
0.0208717
0.0199681
0.0194266
0.0187127
0.0183294
0.0177182
0.0180352
0.0187527
0.0189591
0.0198549
0.0198743
0.020622
0.0208247
0.0212874
0.0214166
0.0220799
0.0222164
0.0224811
0.0225359
0.0237329
0.0238451
0.0238816
0.0238454
0.0238656
0.0240957
0.0240943
0.0240305
0.0240175
0.0239482
0.0237937
0.0236519
0.0247048
0.0253667
0.0248993
0.024664
0.0249355
0.0257938
0.0263467
0.027441
0.0282972
0.0293757
0.0302723
0.0311035
0.0317871
0.0322731
0.032408
0.0324515
0.0320179
0.0316524
0.0333573
0.0398567
0.0430796
0.0483338
0.0507077
0.0527168
0.0534648
0.0522944
0.0529947
0.0517066
0.0519558
0.0507433
0.050293
0.049457
0.0484304
0.0477019
0.0462115
0.0454765
0.0500896
0.0566312
0.0567374
0.0497834
0.0468841
0.0421944
0.0363394
0.0387218
0.0450406
0.04026
0.0382256
0.0352381
0.0300716
0.0228091
0.0178624
0.0256706
0.0333639
0.0405861
0.0473892
0.0533894
0.0572671
0.0593767
0.0608953
0.0625877
0.060559
0.053119
0.0415359
0.0317307
0.0278781
0.0263268
0.0238776
0.0204347
0.0185435
0.0174684
0.0163133
0.0149639
0.0141042
0.01386
0.0140988
0.014214
0.0155562
0.0168123
0.0168053
0.0179785
0.0178025
0.0183094
0.0188947
0.0192911
0.0199522
0.0199179
0.01896
0.0193047
0.0195651
0.0202376
0.0201358
0.0203021
0.0200828
0.0193628
0.0188476
0.0182479
0.0177325
0.0172777
0.0167116
0.016014
0.0160097
0.0162131
0.0157592
0.0161559
0.0165884
0.0169904
0.0176144
0.0185227
0.0192813
0.0211121
0.0212543
0.0210042
0.0210921
0.0196692
0.0196098
0.0186391
0.0184092
0.0199989
0.0198458
0.0181782
0.0195686
0.0195685
0.0213435
0.0213445
0.0206706
0.0208656
0.0207486
0.0189219
0.0180319
0.016965
0.0161901
0.0156076
0.0152151
0.01476
0.0153901
0.0142013
0.013613
0.0140534
0.0140267
0.0140919
0.0144783
0.014906
0.0156474
0.0163491
0.0173923
0.0180294
0.0189263
0.0192591
0.0211671
0.0210781
0.0209519
0.0209829
0.0211203
0.0215705
0.0207799
0.0207421
0.0208808
0.0208956
0.0209165
0.0208992
0.019061
0.018858
0.0180235
0.0177064
0.0167765
0.0164192
0.0157658
0.0154531
0.0150657
0.0148696
0.0232393
0.0254322
0.0255863
0.0397312
0.0199426
0.0199436
0.0343101
0.0173229
0.0230424
0.0235922
0.0246535
0.0258772
0.0225279
0.0307051
0.0211943
0.0232969
0.0240323
0.0252097
0.0127895
0.0193448
0.0368844
0.0423384
0.0436744
0.0486281
0.0553317
0.0585601
0.0616104
0.0636639
0.0659337
0.0683963
0.0708067
0.0725539
0.0727129
0.0690461
0.0659979
0.0565255
0.052708
0.0564499
0.060873
0.0474003
0.0426081
0.0431553
0.0436234
0.0441592
0.0443676
0.0450589
0.0448641
0.0458659
0.0451306
0.04624
0.0450932
0.0461222
0.044872
0.0421273
0.0388942
0.0326748
0.0306868
0.0295733
0.0268526
0.0243466
0.0220896
0.0202602
0.0198242
0.0182574
0.0168479
0.0165489
0.0152642
0.0155164
0.0167236
0.0198354
0.016809
0.0176532
0.0259509
0.0191225
0.0180299
0.0185785
0.0190963
0.0193319
0.0182302
0.0198569
0.0221317
0.0221194
0.0221794
0.0221883
0.0213841
0.0212209
0.0209482
0.0210031
0.0210357
0.0211578
0.0211259
0.0193021
0.0192458
0.0189728
0.0188349
0.0180468
0.0178799
0.0172975
0.0169683
0.0161293
0.0158366
0.0153884
0.0154432
0.0165939
0.0204316
0.0298747
0.0172825
0.0179378
0.0155292
0.0139375
0.026579
0.0247317
0.0285775
0.0267312
0.0393649
0.0263813
0.0231453
0.0241609
0.0296765
0.0296139
0.0325561
0.0423189
0.0329824
0.0281612
0.072948
0.0529691
0.0330947
0.0460452
0.0580783
0.108731
0.127167
0.0558476
0.0563724
0.0620676
0.0629735
0.0628593
0.0532417
0.0490945
0.041216
0.0316691
0.0128915
0.0248674
0.0321358
0.042524
0.0568001
0.0918878
0.0528276
0.0596535
0.0656043
0.0646782
0.0677701
0.0659139
0.064538
0.0654894
0.102536
0.111507
0.107421
0.0859978
0.0807571
0.073975
0.123928
0.138904
0.119745
0.129758
0.135496
0.0813112
0.0302846
0.0249106
0.0237825
0.0263526
0.0252908
0.0459265
0.0205349
0.0217716
0.0225982
0.0271033
0.0301302
0.0527856
0.0232085
0.0254102
0.032352
0.0348193
0.045844
0.027395
0.0280432
0.0343612
0.0361544
0.0394706
0.0335977
0.0317115
0.0286756
0.0258727
0.024377
0.0254335
0.0318255
0.0462924
0.0278387
0.0282662
0.0300284
0.133578
0.0306934
0.0266038
0.0276709
0.0266791
0.0336269
0.0350414
0.1111
0.035448
0.016672
0.0154295
0.0159023
0.0167114
0.0173477
0.0179644
0.0184088
0.0190483
0.0194419
0.019595
0.0197631
0.0221419
0.0220423
0.0215755
0.0210319
0.0218261
0.0211312
0.02118
0.0217978
0.0212642
0.0214086
0.0224581
0.0236285
0.0231407
0.0237066
0.0250556
0.023898
0.0221988
0.0219927
0.0221163
0.0228233
0.0239623
0.0227694
0.0234209
0.0226013
0.0235226
0.0236341
0.0203329
0.0199655
0.0197617
0.0192587
0.0185863
0.0179632
0.0172928
0.0166443
0.0161425
0.0160663
0.0165661
0.0151639
0.0155609
0.0179037
0.0393104
0.0323619
0.0264974
0.0221947
0.0195379
0.0183878
0.0182691
0.0187131
0.0193648
0.0199267
0.0201358
0.0207206
0.0246026
0.0245416
0.0257478
0.0246108
0.0259491
0.0248948
0.023571
0.0227012
0.0239092
0.0232115
0.0237024
0.0253172
0.0261621
0.0238011
0.0240723
0.0214873
0.0200761
0.0184649
0.0188067
0.0202531
0.0209278
0.0233607
0.0234391
0.026875
0.0268519
0.0267034
0.0254681
0.024793
0.0262445
0.0247577
0.0259078
0.0247956
0.0261996
0.0273831
0.0277283
0.0270224
0.0261707
0.0252958
0.0210199
0.0202316
0.0199252
0.0194325
0.0191715
0.0200828
0.0243116
0.033471
0.0455288
0.0576231
0.0670352
0.0665364
0.0599477
0.0405893
0.0416522
0.0386177
0.0421213
0.0599062
0.0857404
0.0599977
0.114059
0.088371
0.0524556
0.0627363
0.074705
0.0838499
0.0897497
0.09071
0.0771994
0.0567962
0.0498603
0.052298
0.0846103
0.083337
0.0823693
0.0779233
0.082407
0.0802974
0.0776377
0.0760832
0.0743132
0.0700717
0.0700519
0.0673662
0.0673322
0.0601979
0.0613822
0.0616108
0.0590367
0.0562906
0.0540052
0.0518164
0.0494941
0.0456027
0.0443245
0.0418465
0.0401066
0.0367521
0.0362171
0.0357318
0.033559
0.0320081
0.0307556
0.0294951
0.0277942
0.0279551
0.026365
0.0262075
0.021352
0.0209727
0.0199564
0.019622
0.0193711
0.0195622
0.0207906
0.0234489
0.0435115
0.0330627
0.0329287
0.0334898
0.0336848
0.0396048
0.0463778
0.0705614
0.0652889
0.0718418
0.0614318
0.0638757
0.0630915
0.0627097
0.0654262
0.0690089
0.0743469
0.0868466
0.333513
0.513804
0.253211
0.237191
0.246812
0.2517
0.259141
0.339153
0.360115
0.35603
0.360614
0.330449
0.318338
0.196589
0.22603
0.238103
0.236981
0.223843
0.202147
0.392724
0.522659
0.518789
0.523657
0.52377
0.518766
0.522602
0.502912
0.514274
0.501758
0.515028
0.502298
0.521671
0.51893
0.504364
0.501137
0.501156
0.500916
0.501379
0.501556
0.504894
0.506056
0.506108
0.505103
0.504114
0.514524
0.436511
0.122114
0.0848756
0.141021
0.195966
0.160386
0.232337
0.267174
0.192516
0.109368
0.0891579
0.100584
0.123875
0.125415
0.152413
0.199573
0.186902
0.152539
0.153525
0.153989
0.199077
0.190745
0.217012
0.259328
0.252702
0.188076
0.149678
0.148757
0.226757
0.241694
0.236918
0.122482
0.0438914
0.0217804
0.0226774
0.0326685
0.016495
0.0168062
0.0220473
0.0575774
0.0962901
0.0496441
0.135652
0.137564
0.181673
0.147133
0.178009
0.115253
0.118629
0.0675126
0.079499
0.0894295
0.0951876
0.0994789
0.0935167
0.216055
0.318977
0.190224
0.560692
0.537692
0.195822
0.216978
0.575691
0.513011
0.503523
0.501784
0.501698
0.501859
0.501816
0.500969
0.500915
0.500728
0.500765
0.500716
0.501163
0.504767
0.520395
0.514608
0.50524
0.501385
0.500824
0.500799
0.50069
0.50073
0.50075
0.500808
0.501017
0.50105
0.501151
0.50167
0.50394
0.512029
0.43547
0.169789
0.182151
0.405878
0.361647
0.511502
0.504621
0.501369
0.500942
0.500855
0.500829
0.500795
0.500969
0.50089
0.501397
0.501231
0.501287
0.502776
0.508257
0.506394
0.443032
0.369338
0.417038
0.329932
0.50667
0.507776
0.503277
0.5029
0.503246
0.503414
0.501514
0.501527
0.500992
0.50106
0.500893
0.50134
0.504755
0.511012
0.34581
0.17072
0.177618
0.257781
0.0878218
0.0907336
0.0926438
0.0947346
0.246845
0.441064
0.555034
0.47069
0.474806
0.541719
0.385283
0.364038
0.29376
0.31729
0.401582
0.346916
0.3125
0.250041
0.288295
0.247471
0.303222
0.217659
0.233928
0.221515
0.282799
0.286668
0.287027
0.226481
0.216358
0.271389
0.285663
0.316606
0.218531
0.258779
0.203105
0.192143
0.0870384
0.0891994
0.0810927
0.0711619
0.0709304
0.0790505
0.0775011
0.0836888
0.0807028
0.0844086
0.0815502
0.0795214
0.0727155
0.0747318
0.0685217
0.0711637
0.130112
0.166216
0.150161
0.151586
0.179282
0.130844
0.157172
0.153228
0.197278
0.24764
0.226277
0.291168
0.224722
0.275193
0.405167
0.753735
0.437782
0.244037
0.317693
0.33972
0.288333
0.189322
0.449119
0.538092
0.297685
0.359865
1.19578
1.04324
1.78122
0.991803
1.11824
0.670104
0.597068
1.02819
0.653204
0.665547
0.559101
0.572925
0.498627
0.323858
0.323321
0.305207
0.241496
0.280171
0.270894
0.266423
0.295967
0.261113
0.31609
0.351846
0.396499
0.32223
0.285086
0.366314
0.215248
0.290206
0.345716
0.315105
0.259272
0.337397
0.449268
0.420466
0.361766
0.398457
0.508793
0.562558
0.531612
0.450953
0.511979
1.00564
0.962257
0.930202
0.589782
1.93359
1.71782
0.352369
0.137307
0.0956279
0.0361953
0.0224108
0.0182405
0.0178476
0.0487991
0.0195103
0.0234936
0.0211487
0.0299541
0.027272
0.0315259
0.0553081
0.0375237
0.0526853
0.0390849
0.0519463
0.0413582
0.0568599
0.0610579
0.0642916
0.0519834
0.0409916
0.0619461
0.0826807
0.0386864
0.0995576
0.105207
0.0679531
0.0826601
0.102063
0.0528047
0.164724
0.0571428
0.0567904
0.0675346
0.12664
0.251237
0.0853939
0.111961
0.58522
1.52965
0.509743
0.201099
0.16399
0.0413533
0.0359004
0.0292162
0.0355176