/*--------------------------------*- C++ -*----------------------------------*\
| =========                 |                                                 |
| \\      /  F ield         | OpenFOAM: The Open Source CFD Toolbox           |
|  \\    /   O peration     | Version:  v2012                                 |
|   \\  /    A nd           | Website:  www.openfoam.com                      |
|    \\/     M anipulation  |                                                 |
\*---------------------------------------------------------------------------*/
FoamFile
{
    version     2.0;
    format      ascii;
    class       surfaceScalarField;
    location    "165";
    object      phi;
}
// * * * * * * * * * * * * * * * * * * * * * * * * * * * * * * * * * * * * * //

dimensions      [1 0 -1 0 0 0 0];
oriented        oriented;


internalField   nonuniform List<scalar> 
50655
(
0.00257032
-0.00360997
-0.00140969
-0.00511672
0.00137084
0.00360445
-0.00340494
0.00390443
0.0044721
-0.00248773
-0.00282474
0.00303012
-0.00368916
-0.00378247
0.00266242
-0.00176749
-0.004843
0.000804476
0.000208958
-0.00471004
0.00158204
-0.00178558
-0.0071662
0.00236862
-0.0104454
0.00280844
0.000371962
-0.01127
-0.0034411
0.00415572
-0.0120301
-0.00483032
0.00548799
-0.012893
-0.00562689
0.00638562
-0.0261596
-0.00931039
0.022383
-0.0486752
-0.0282488
0.0502041
-0.0482748
-0.0527101
0.0516124
-0.0310748
-0.0711319
0.053154
-0.00454503
-0.0780725
0.0507597
0.00784135
-0.0547658
0.041568
-0.00184384
-0.031407
0.0403192
-0.0212707
-0.0217089
0.0403689
-0.0172628
-0.0513456
0.0466153
-0.00733419
-0.0555392
0.0450529
-0.0390844
0.0314211
-0.0418015
0.0187983
-0.0163824
-0.0164619
-0.0756702
0.0498358
0.0199434
-0.0798452
0.0429434
0.030564
-0.0294795
0.0185518
0.0342323
-0.00400564
0.0366889
0.0177882
-0.0205672
0.025625
-0.0180144
0.0288024
0.0167233
-0.00950542
0.018238
0.00383826
-0.00139791
0.0141559
-0.00630418
0.00696989
0.00307726
-0.00538046
0.000365568
-0.00132999
-0.00536249
-0.00113239
0.00109603
-0.00628749
0.000149906
0.000757803
-0.00755015
0.000139116
0.00110694
-0.00866919
2.28681e-05
0.00107904
-0.0090568
-0.000309931
0.000681182
-0.00931707
-0.000730618
0.000974292
-0.00888369
-0.00115968
0.000710015
-0.00825509
-0.00163378
0.000988506
-0.0070325
-0.00208603
0.000847003
-0.00559998
-0.00255402
0.00110463
-0.00373564
-0.00285012
0.000969604
-0.00192057
-0.0030338
0.00120177
0.00106256
-0.00300072
0.000807845
-0.00238252
0.00261159
-0.00587845
0.00492029
0.00172423
-0.0114778
0.00464319
0.000899599
-0.0134364
0.00507255
-0.00318091
-0.0131763
0.00532427
-0.00565132
-0.00553608
0.00462105
-0.0123178
0.000476027
0.0055867
-0.0116406
0.000593309
0.00356763
-0.00371055
-0.00150945
0.00208516
-0.00296121
0.0021417
-0.000707078
-0.00452252
0.00218964
-0.000644474
-0.00583528
0.002349
-0.00105262
-0.00710105
0.00230666
-0.00105584
-0.00860199
0.00249919
-0.00101227
-0.0101677
0.00258544
-0.00103315
-0.0114626
0.00237763
-0.00109589
-0.0123643
0.00201595
-0.00112725
-0.0128304
0.00160235
-0.00114923
-0.0131466
0.0014362
-0.00113329
-0.0137485
0.00156347
-0.000975809
-0.0139544
0.00112004
-0.000929177
-0.0136597
0.000895048
-0.00120516
-0.0136502
0.000781845
-0.000807044
-0.0133764
0.000826788
-0.00111674
-0.0131299
0.000901826
-0.00116425
-0.0129858
0.000844952
-0.00100474
-0.0127105
0.000575234
-0.000866146
-0.0121716
0.000126509
-0.000680869
-0.0112714
-0.000448175
-0.000467315
-0.0101517
-0.000907178
-0.000227822
-0.00883488
-0.00100285
-0.000328722
-0.00738692
-0.000753258
-0.000708564
-0.00758582
-0.00068683
0.000873728
-0.0163982
0.000831256
0.00795454
-0.0211712
0.000418686
0.00429372
-0.0226146
0.00116295
0.000215266
-0.0426062
0.0163765
0.00349758
-0.0546094
0.0056573
0.00604753
-0.0294986
-0.016269
-0.00914927
-0.0131322
-0.0149471
-0.00155155
-0.0112691
-0.00398117
0.00204008
-0.0100115
-0.00306311
0.00171544
-0.00809169
-0.00341402
0.00139271
-0.00472769
-0.00328251
-0.00017677
-0.00317133
-0.00164168
-0.00443821
0.00459138
-0.00341939
-0.0026589
0.00674314
-0.00863608
0.000929556
0.00622217
-0.00994283
0.00622535
0.00591154
-0.0113522
0.014999
0.00880457
-0.0177594
0.0285608
0.0137888
-0.027633
0.0249673
0.0196846
-0.0163725
0.0166393
0.00640699
0.0017363
0.0080665
4.57219e-05
0.00837968
-0.000921873
-0.00386095
0.0127144
-0.00440258
-0.00672387
0.0100882
-0.00755289
0.00542148
0.00434586
0.00100222
-0.01019
0.00198941
-0.00812212
0.00364102
-0.00522798
-0.00417125
0.00740191
-0.0125796
0.00198266
0.00528184
-0.0143928
0.00570303
0.00238032
-0.038541
0.0270237
0.0233223
-0.00709472
-0.0133362
0.0371544
-0.00978576
-0.0393622
-0.00483451
0.00929582
-0.00912742
-0.000574153
0.00898068
-0.00745957
0.00264348
0.00960107
-0.00671896
0.00456795
0.00961732
-0.0049086
0.00712645
-0.00134345
0.0112749
-0.00495538
-0.00272429
0.0124519
-0.00188246
-0.00246012
0.0088383
-0.000398166
-0.00412346
-0.00203572
-0.021102
-0.00211699
0.0295964
-0.0106754
-0.0143402
-0.00166205
-0.00712808
-0.00248655
-0.00733822
0.0158986
0.00132834
-0.0102765
0.0219532
0.0011365
-0.00900929
0.0325104
0.000359
-0.01321
0.0832952
-0.00211678
-0.0360164
0.0468246
-0.00194725
0.0455633
-0.00215747
0.00741905
-0.00309865
0.0384752
0.00385881
0.0217953
0.00195365
0.0232518
-0.000320669
0.0113211
0.0139488
0.00622966
-0.00792802
0.000105949
0.0068129
0.00521851
-0.0014778
0.0073245
0.00819082
-0.00152262
0.00712516
-0.0150813
0.00798289
-0.00209411
0.00737299
-0.0153289
0.00850755
-0.00126122
0.00743921
-0.0167116
0.00841897
-0.00129658
0.00742325
-0.0160269
0.00861821
-0.000624894
0.00728785
-0.0165926
0.00861252
-0.000245874
0.00703716
-0.0160026
0.0085664
0.000718262
0.00624566
-0.0154705
0.00824206
0.00579454
0.00442774
-0.0169793
0.00746076
0.00148494
-0.00412323
0.00570116
0.00271734
0.000796837
0.00539283
-0.000283976
0.000619069
0.00715216
-0.000739491
0.000774084
0.0080231
-0.00115325
0.000930746
0.00832484
-0.00120663
0.00126834
0.00839058
-0.00131818
0.00149235
0.00856511
-0.00136319
0.0014948
0.00871023
-0.00135266
0.00125797
0.00872131
-0.00137163
0.000931267
0.00883639
-0.00119707
0.00731108
-0.000264142
0.00935883
-0.00199584
-0.000819143
0.011036
-0.00184087
-0.000854546
0.0123186
-0.00153808
-0.000667599
0.0131037
-0.000304027
-0.000944951
0.0135334
0.00085958
-0.00117847
0.0137107
0.00171602
-0.00133398
0.0137092
0.00224476
-0.00141452
0.0137675
0.00225823
-0.00143124
0.0137217
0.0018343
-0.000978234
0.0137283
0.00135619
-0.000596936
0.0139108
0.00123384
-0.000536943
0.0133001
0.0011503
0.000565177
0.0124498
0.00243613
0.000234465
-0.000270969
0.0126926
-0.000415337
0.00244138
-0.000845893
0.0123556
-0.00023933
0.00280431
-0.000638945
0.0114827
-7.53037e-05
0.00311712
-0.000166065
0.0102203
4.78645e-05
0.000297658
0.00328119
0.00862148
0.000723018
0.00331885
0.000128898
0.00687601
0.00104144
0.00305249
0.000136911
0.00587173
0.000964159
0.0022439
8.79122e-05
0.00442861
0.00462626
-0.000850543
0.00287424
0.00428129
-0.000553494
0.00142559
-0.000502716
0.00407666
0.00389623
-0.000402409
0.00560661
-0.000510142
-0.00121638
0.0068319
-0.000405525
-0.000836617
0.00780436
-0.0006033
-0.00038565
0.00816935
-0.000469488
8.77758e-05
0.00822517
-0.000602225
0.000529942
0.0075346
-0.000254917
0.000928891
0.00655447
-0.000288921
0.00125249
0.00472888
0.000303189
0.00150533
0.00201341
0.00116856
0.00152977
-0.00177154
0.00206951
0.00169749
-0.00451179
0.000536973
0.00218529
-0.00603461
-0.000888277
0.00239183
-0.00732012
0.000617205
0.000646359
-0.0138039
0.000494802
0.00594417
-0.0249333
-0.00656701
0.0175805
-0.0310926
-0.0161947
0.0221887
-0.0391909
-0.0262035
0.0340354
-0.0318051
0.0237249
0.016217
-0.0385623
0.00910261
0.0259898
-0.0166974
0.00685609
-0.00458506
0.00431733
-0.0323125
0.0262207
0.00145791
-0.0147513
-0.0232974
0.005701
-0.0374935
0.00599852
0.0412452
-0.0574531
-0.000733471
0.0290708
-0.0500779
0.0152039
0.0126049
-0.00994855
0.0169694
-0.0102459
0.0109665
-0.00254371
0.0190118
0.00786851
0.011385
-0.0125592
0.0135032
0.0053541
-0.00623353
0.00135351
0.0112809
0.00493145
0.0010284
0.00273835
0.0012946
-0.00100764
0.00150749
0.00275389
-0.00487155
0.0038641
0.00204778
-0.00543712
-0.000448537
0.00216171
-0.00957633
0.00200296
0.00241895
-0.00822672
-0.0036816
0.00202299
-0.0118793
0.00195968
0.00141815
-0.00891811
-0.00417584
0.000592568
-0.0112537
0.00215812
-0.000311767
-0.00732978
-0.00319648
-0.00135041
-0.00816496
0.00229723
-0.00188775
-0.00441061
-0.00170503
-0.0025787
0.0013056
-0.00257007
0.00403583
0.0117488
-0.0106567
0.0115832
0.00650061
-0.00947945
0.0131664
0.00881533
-0.00514397
0.0102847
0.010414
-0.00252952
0.0042519
0.00941333
0.0012102
0.0125972
-0.00196549
-0.00222567
0.000706744
0.0148424
-0.00603819
0.00507471
-0.00333941
0.00198233
0.0147436
-0.00758177
-0.00313926
0.00311594
0.00763059
0.0101519
-0.00792424
-0.00274232
0.00316873
0.0120153
0.00173423
-0.00672513
-0.00204671
0.00101879
0.0160857
-0.000644056
-0.00457418
0.00743967
-0.000233556
-0.00524522
0.0113202
0.000142717
-0.0103838
0.0126138
-0.0089846
-0.0142604
-0.0141675
0.00842857
0.00572667
-0.024151
0.00411547
-0.0185831
0.00624071
-0.0165571
-0.0113764
0.0092813
0.00793023
0.00962171
-0.0341556
-0.0238178
0.00756182
0.0111894
0.00748091
-0.0100618
-0.032515
-0.00920323
0.00782489
-0.0016574
-1.11587e-05
0.00783758
-0.00662133
-0.0104715
0.0115638
-0.00767011
-0.0142139
0.0104848
0.010601
-0.000737284
-0.00887017
0.0103691
-0.0015463
0.00799602
-0.00768778
0.00375595
0.0010287
0.00475256
-0.00355352
0.00569691
-0.00632039
0.0139876
-0.0121501
-0.00350611
0.0108128
-0.0170472
-0.0026153
0.00571709
-0.0169827
-0.000975079
-0.00118061
0.00206778
-0.00827631
0.00848598
0.0096204
-0.00960686
0.0109996
0.011226
-0.00500442
0.0117007
0.0118366
-0.00220402
0.0106029
0.00440414
-0.0110565
0.0109475
0.00305964
-0.00923378
0.0120836
-0.00215331
-0.00500991
0.0116867
-0.00476816
0.00970421
-0.00613961
0.00225261
0.00367301
0.0010906
0.00805503
0.00735252
-0.00155558
0.0110593
0.00861427
0.000378059
0.00741686
0.0065941
-0.00918162
0.0101967
-0.000394851
-0.00705443
0.00390475
0.00249387
0.000208607
0.00169066
-0.00169066
0.00505307
-0.00641243
-0.00146622
-0.00228088
0.0187536
-0.00370683
-0.0192896
0.016982
-0.0014429
-0.00173133
-0.01616
-0.0118735
-0.000935779
0.00338357
-0.00861277
-0.0106964
-0.0132286
0.00664169
-0.00596588
-0.00495508
0.000903769
0.00139104
0.000389594
-0.00209126
-0.00426668
-0.000991927
0.00398614
-0.00260621
-0.000423074
0.00181523
-0.00238547
0.00130524
-0.00382176
0.00679305
0.00070583
-0.0111607
0.000648162
-0.00348456
0.0105186
-0.00346494
-0.00443709
-0.0189972
0.0140247
-0.0118712
-0.0194425
-0.0117971
0.00785502
0.00429519
-0.0266175
-0.0154079
0.00259
0.00933934
0.0105424
-0.0355841
-0.0164858
0.0130771
0.00184533
0.0104278
-0.0422858
-0.0146431
0.0098455
9.48816e-05
0.011301
-0.0436504
-0.0108018
0.0032476
-0.00151992
0.0103344
-0.0431383
-0.00618814
-0.00149265
-0.00182679
0.00888554
-0.0394612
-0.0033749
-0.00448121
0.00408497
-0.0347225
-0.00122399
-0.00708673
0.00649626
-0.00303235
-0.0321632
0.00128918
-0.00608938
0.00562486
-0.00348593
-0.0291177
0.00258935
0.00450096
-0.00396529
-0.00627328
-0.0289264
0.0019768
0.00399565
-0.0035274
-0.00274843
-0.0298324
0.000108632
0.00188709
-0.00119685
-0.0277764
-0.00169683
0.00144178
-0.00191456
-0.0229544
-0.00273498
0.00159078
-0.00377414
-0.0301309
0.00175003
0.0226323
-0.0172814
-0.059283
0.0293436
-0.0130326
0.0124611
0.0059307
-0.0198999
-0.00145257
-0.0132931
-0.0252045
-0.00908906
-0.0122668
-0.000528439
-0.00873819
-0.0111631
0.000560461
0.000306869
-0.00943328
-0.000664259
0.000553272
-0.00580204
-0.00383319
0.00148435
-0.00309282
-0.00403851
0.00105412
-0.00455044
-0.000253742
-0.00446924
0.000792842
-0.000921293
-0.0068619
0.00204773
0.000281738
-0.0108062
0.00220202
0.00166266
-0.0131185
0.000810425
0.00142332
-0.0133836
-0.000360378
0.000555662
-0.0130911
-0.00175635
0.00140983
-0.0236742
0.00142005
0.00908836
-0.0569113
0.017515
0.0155152
-0.101371
0.00880279
0.0350842
-0.118017
-0.00594483
0.0218974
-0.127351
-0.0116725
0.0202314
-0.133754
-0.0165709
0.0221392
-0.137384
-0.0222596
0.0250045
-0.138693
-0.0273201
0.0277184
-0.138602
-0.0307967
0.0297819
-0.137781
-0.0329431
0.0311969
-0.136316
-0.0341868
0.0318054
-0.134161
-0.0348316
0.0317753
-0.130313
-0.0353373
0.0306173
-0.122337
0.027834
-0.0366438
-0.103195
0.0208076
-0.040709
-0.0534098
0.00334015
-0.0537439
-0.0225974
-0.00121395
-0.0298173
-0.0123734
-0.00427719
-0.00602418
-0.0120954
0.00199257
-0.00232565
-0.0111956
0.00433159
-0.00530214
-0.00876061
0.00384663
-0.00636208
-0.00424507
0.00401367
-0.00861357
-0.00478342
0.00348275
-0.00301564
-0.00804992
-5.53025e-05
0.00327099
-0.00781052
0.00236509
-0.00267568
-0.00893365
0.00103531
-0.0138011
0.00697447
-0.00220559
-0.01663
0.00714298
-0.00442407
-0.0189035
0.00764082
-0.00546988
-0.0237565
0.00700067
-0.00225244
-0.0532809
0.0187272
0.0106008
-0.0978676
-0.00808684
0.0520998
-0.110855
-0.0316595
0.0439268
-0.112321
-0.0418032
0.0424577
-0.107633
-0.0476413
0.0421305
-0.0988542
-0.0521062
0.042471
-0.086165
-0.0543211
0.0408073
-0.0691926
-0.0558181
0.0380258
-0.0494466
-0.0567903
0.0362783
-0.0237717
-0.0480872
0.0217755
-0.0376015
0.0133911
-0.0534447
0.0232912
-0.00791519
-0.0592593
0.0255179
-0.0202061
-0.0593275
0.0268348
-0.0272929
-0.0503165
0.0266069
-0.0361442
-0.040246
0.0244962
-0.0350695
-0.0230737
0.016615
-0.0342545
0.00935446
-0.0328669
0.0271548
0.0381107
-0.0565478
0.0509057
0.0494843
-0.0740013
0.0747575
0.0495723
-0.0742439
0.0949157
0.0497896
-0.0707723
0.110634
0.0469928
-0.0635676
0.118844
0.039683
-0.0487156
0.116813
0.032918
-0.0316971
0.101134
0.0300384
-0.0150803
0.0544363
0.0398142
0.00631043
0.0254409
0.0250166
0.0037824
0.0213368
0.00417442
-0.00017507
0.0194268
0.000589773
0.00121762
0.0158527
0.000297451
0.00316678
0.00912256
-0.000249259
0.00688084
-0.000924627
0.0099594
-0.000967679
-0.00970182
0.00964911
0.000720421
-0.0130884
0.0112913
0.00256229
-0.0142172
0.0122522
0.00406651
-0.013549
0.0119092
0.00431251
-0.0191343
0.0187104
0.0078212
-0.0285776
0.0247838
0.00379535
0.0235744
-0.0198323
-0.000219825
0.0168642
-0.0130282
-0.000414617
0.00841951
-0.00836039
-0.000573771
0.00773332
-0.00769738
-0.00110783
0.00736235
-0.00693729
0.00630899
-0.0064773
0.00344865
0.00545348
-0.000290588
0.00322938
0.00618738
0.00132218
0.00332392
0.00591112
0.00164992
0.0039816
0.00478051
0.00290309
0.0103227
0.011582
-0.00116458
0.0193738
-0.00898092
-0.000115695
0.00909602
-0.00419558
0.0144327
-0.0230061
-0.0113992
0.0434314
-0.0155134
-0.0057474
-0.00182379
-0.000976546
0.00357469
0.00486511
-0.00943207
0.0060456
-0.00259735
0.00361683
-0.00178174
-0.00825292
0.000442007
-0.0091598
-0.0102477
-0.0126321
0.0184162
-0.0048217
-0.0307069
0.00322635
0.00366235
0.00405825
-0.0175474
-0.0495922
0.00588134
0.0101249
0.000836587
-0.058077
-0.0156544
0.0261766
-0.00422366
-0.0203746
0.00616298
-0.0032474
-0.020262
0.00560414
-0.00226813
-0.020622
0.00530092
-0.00089717
-0.0190046
0.00443275
-0.0149718
0.00402679
-0.0211031
0.00226268
0.00404127
-0.0219181
-0.00134351
0.00263408
-0.0178679
8.63807e-05
0.00543326
0.00165056
-0.0465338
0.0354085
0.0082979
0.00804441
-0.11493
0.0350307
0.051423
0.0208652
-0.125008
0.0472742
-0.0080119
-0.125853
0.0547468
-0.0218511
-0.11804
0.0644954
-0.033502
-0.10313
0.0731379
-0.0419367
-0.084043
0.0768681
-0.0470334
-0.0614875
0.0746484
-0.0484709
-0.036678
0.0743052
-0.0504444
0.0504376
-0.0329574
0.0588689
0.0458473
-0.0303898
0.0684493
0.0517692
-0.0353678
0.0687557
0.0529363
-0.0270329
0.0633334
0.0506777
-0.0203452
0.0439671
-0.00599716
-0.088188
0.0718522
0.00269845
-0.0979802
0.0754782
-0.015917
-0.0994741
0.0799222
-0.0264343
-0.0881595
0.0791375
-0.0396253
0.071836
-0.0407517
0.087973
0.0943706
-0.0367502
0.0975881
0.101575
-0.0329818
0.0944592
0.101011
-0.0188895
0.0818944
0.09597
-0.00881805
0.0902759
0.00681328
-0.0812297
0.103344
0.012973
-0.0944319
0.110415
-0.00216464
-0.0983188
0.115882
-0.0119447
-0.0904291
0.116759
-0.0240352
0.111307
-0.0314183
0.0869604
0.124128
-0.0275796
0.0946207
0.128156
-0.0200339
0.0912072
0.126306
-0.00798781
0.078292
0.120223
0.00217093
0.112
0.0166472
-0.0724189
0.116561
0.0193397
-0.0843502
0.125304
0.00591364
-0.0866812
0.131878
-0.00422063
-0.078765
0.134276
-0.0150153
0.131216
-0.0222952
0.0681664
0.131899
-0.0150397
0.0760591
0.134631
-0.00922459
0.0749743
0.131039
0.000947531
0.0640461
0.124643
0.0106515
0.115368
0.0225694
-0.0525608
0.105658
0.0297563
-0.0645859
0.116201
0.0195243
-0.0641393
0.119778
0.00985087
-0.0561998
0.125198
0.000529752
0.126091
-0.00406015
0.0351374
0.0191374
0.0612993
0.0446085
0.0514117
0.0946057
0.0134428
0.054717
0.0923665
0.0232308
0.0357251
0.0482455
0.0451663
0.040842
0.0444714
0.0364791
0.051454
-0.0122947
0.0268175
0.0153677
0.0143647
-0.0187221
0.0276347
0.0150701
-0.0152822
0.0310998
0.0135025
-0.0135377
0.0290167
0.0141961
-0.0399448
0.0275285
0.0407403
-0.000800485
0.0248441
-0.0283719
-0.00826564
0.0384603
0.00580048
-0.0369957
-0.0067897
0.0299316
0.00547984
-0.037064
-0.00458417
0.029052
-0.0365166
0.00508915
0.0258488
0.00347009
0.00380547
0.00514738
0.00491656
0.00714817
0.00679922
0.00760786
0.00904046
0.0089152
0.0083855
-0.00414064
-0.0199285
0.015671
0.00266358
-0.000610376
0.000589965
0.00624185
0.00289656
0.0002975
-0.000534515
0.000354149
0.00408599
-0.00154845
-0.00243589
-0.00132177
0.00410763
-0.00165289
-0.000489144
0.00117669
0.0105833
0.0120737
0.031584
-0.0531586
0.00538943
0.0177707
-0.00423649
-0.0072881
0.0567822
0.00123843
-0.0150574
0.002838
0.00352672
-0.00654567
0.00504323
0.00397759
-0.00619753
-0.0221816
0.00969091
0.0174936
-0.00938628
-0.0125215
-0.000317465
0.0179094
-0.00256567
0.0238978
-0.00788863
0.0462182
-0.0126992
0.021545
0.0765507
-0.0247552
-0.0326576
0.00457953
0.00706766
0.029745
0.00211199
-0.0175391
0.00801717
0.013653
-0.0040491
-0.0106457
0.0084521
0.0149559
-0.004045
-0.0114524
0.00755744
0.0144342
-0.00236766
-0.0112784
0.00611867
0.0127908
-0.0104301
-0.0010206
0.00366814
0.0105306
-0.00879559
0.000628241
0.00873311
-0.0079037
0.00275829
0.00843758
-0.00315047
0.00337529
0.00803618
-0.00279755
0.00314388
0.0151889
-0.00808325
0.000853279
0.0392594
-0.015951
-0.00833833
0.0727918
-0.0388849
0.00473392
0.0828574
-0.0276262
0.0168011
0.0844047
-0.0234834
0.0211022
0.0818317
-0.0202239
0.0219243
0.076637
-0.0157914
0.0200832
0.069642
-0.00869325
0.0147698
0.0602039
0.0017712
0.00673883
0.0416642
0.0176669
-5.51335e-05
0.0142212
0.0416112
-0.0150863
-0.00574977
0.0553389
-0.0362703
-0.00190817
0.0502971
-0.0550107
0.0121842
0.0392816
-0.054207
0.0155204
0.0263495
-0.0304442
0.00961701
0.0288851
-0.0235991
0.0021353
0.0113206
-0.00405718
0.000420009
0.00383057
-0.00219225
-0.000401437
0.00178123
-0.00101438
-0.00208155
0.00327052
-0.00165993
0.00315377
-0.00228299
0.00320782
0.00523737
-0.00147208
0.000185581
0.00662369
-0.00040637
0.0021274
-0.000182149
0.0065393
-0.000609991
0.00169942
0.0059696
-0.0037885
0.00254599
0.0056016
0.0062367
0.00101048
0.0117251
0.0171991
-0.0107882
0.0153707
-0.0103855
0.0235284
0.0240262
-0.029871
0.0433879
0.0144601
-0.0441671
0.0506312
0.0130268
-0.0625176
0.0464701
0.0262669
-0.0784992
0.0295269
0.0271008
-0.0895206
0.00776624
0.0199495
-0.0950783
-0.00854754
0.0149034
-0.0985145
-0.020814
0.0145907
-0.100714
-0.0293887
0.0148426
-0.100912
-0.0351512
0.0141882
-0.0975436
-0.0395119
0.0117387
-0.0886784
-0.0439087
0.00650905
-0.0319029
-0.0405803
-0.0447374
-0.0113261
-0.0184313
-0.0104147
-0.0191799
0.00261064
-0.0153791
-0.00709721
0.00132117
-0.00576286
0.000261374
-0.0094386
0.000856444
-0.00379402
0.00165902
-0.00747782
0.000991063
-0.00880381
0.0158323
-0.000178185
-0.00794987
0.0158391
-0.00183743
-0.00614554
0.0139283
-0.00216118
-0.00204469
0.019799
0.00570399
0.0204612
0.106986
-0.0445434
-0.00952479
0.00400692
0.0306773
0.0054706
0.00761546
0.0105146
-0.000246886
0.00842429
0.0142835
0.00066806
0.0151432
0.00192609
-0.0162396
-0.0197568
-0.0126577
0.0308219
-0.0202524
0.0462837
-0.0178536
-0.0510849
0.106912
-0.0245661
-0.0521324
0.121851
-0.0149821
-0.104395
-0.0444115
0.125664
-0.0301537
-0.0752084
-0.028606
-0.0174294
-0.0288219
-0.0143167
-0.00289571
-0.0402761
0.0170072
-0.00212673
-0.0241223
-0.00526146
0.0279447
-0.00544811
-0.00854451
0.0163533
-0.00785181
-0.00930402
0.0144579
-0.00618317
-0.00945621
-0.0118249
-0.00273107
0.0501418
-0.0212321
-0.0125722
-0.00610356
0.000615558
-0.0119148
-0.00848429
-0.000106421
-0.00873965
-0.00715065
-0.00156495
-0.0049664
-0.00442169
-0.001578
-3.45975e-05
-0.000765749
-0.00378151
-0.000450824
-0.00984881
1.7337e-05
0.000445668
0.00127106
-0.00170881
0.00136953
-0.00208327
0.0033578
0.00174732
-0.00265385
0.00436898
0.00205588
-0.00198044
0.00371108
0.00174972
0.00266689
0.00070468
0.00451162
0.00263182
-0.00106272
0.00471338
0.00383828
-0.000404742
0.00457007
0.00491755
-0.000486305
0.00482718
-0.000754278
-0.00637754
0.0108697
-0.0041971
-0.00620321
0.010894
-0.00626248
-0.00533435
0.010049
-0.00718509
0.00900825
-0.00778834
0.00656818
0.0118669
-0.00566753
0.00799532
0.0135934
-0.00507023
0.0081845
0.015114
-0.00451575
0.0149203
-0.00312342
-0.00919346
0.0168603
-0.00133117
-0.00931401
0.0178663
-0.0027378
-0.00965503
0.0177637
-0.00393372
0.0104761
-0.00400922
0.0128637
-0.000416761
0.0102316
-0.00167395
0.00749469
0.0232846
-0.00289735
0.00735099
0.0183015
-0.000381604
0.0172943
0.000734751
-0.00883771
0.0484584
-0.0251896
-0.00519311
0.0421453
-0.027633
0.0449875
-0.0282818
0.0293739
0.117648
-0.0575327
0.127487
-0.0450318
0.0507568
0.134933
-0.0386565
-0.0205922
0.0553914
0.134848
-0.0149347
0.052004
0.130098
-0.00597504
0.115286
-0.00132485
-0.0501978
0.11975
0.00520136
-0.0559231
0.13508
-0.000340101
-0.0534598
0.140784
-0.00948261
-0.0448146
-0.0146251
0.139892
-0.12821
-0.0233163
0.133624
-0.0293186
-0.0128262
-0.0511544
-0.114356
0.0286057
0.119349
-0.106064
-0.0667889
0.118402
-0.0383906
-0.049537
-0.0680775
-0.00478963
0.0138665
-0.0135238
-0.0193339
-0.0195536
-0.00997811
-0.00602503
-0.0131226
-0.00290303
-0.0140111
-0.00406727
0.00257551
-0.014384
-0.00818196
0.00317243
-0.012744
-0.0106177
0.0025289
-0.0097988
-0.0145075
0.0028584
-0.0107486
0.00114275
-0.0137647
0.0160487
-0.0137399
0.000611129
-0.00949194
-7.4091e-05
-0.0153518
0.0144691
-0.00158048
-0.0167502
0.0116485
-0.00271359
-0.0180312
0.00965631
-0.00145876
0.0149436
-0.0254527
0.0110812
0.0251992
0.0187138
0.0207201
-0.0498259
0.0188475
0.0161636
0.0178204
-0.0277639
0.0305568
0.0160464
0.0191632
-0.0470547
0.0213573
0.0134231
-0.0227406
0.0183886
0.0392641
-0.0422018
0.00893057
0.0152637
0.0200962
0.0463317
-0.0101068
-0.0171584
0.0253815
0.0301
-0.0202377
-0.0152759
-0.0172216
-0.0205944
0.00991502
-0.0182519
0.00381381
-0.0127809
-0.0179375
0.00436974
-0.0172269
-0.0122936
0.00330351
-0.0161162
-0.0141071
0.00228025
-0.0167783
0.00209639
-0.0176539
-0.017056
0.0174445
0.000370433
-0.0162681
-0.000774665
-0.0183709
0.0156314
-0.0019922
0.0130012
-0.00309191
0.017548
0.0143211
-0.00279134
0.017424
-0.00140934
0.0164796
0.0182344
-0.017027
-0.000368079
0.0183803
0.00132959
-0.0151204
0.00285468
-0.0154818
0.00100555
0.0174939
-0.0154036
-0.00120466
0.0144732
-0.00214818
-0.00752726
-0.0160136
0.0235794
0.0168564
-0.00150186
-0.0143711
-0.017132
-0.0261867
-0.0242504
-0.00259548
-0.105199
0.103768
0.00754654
0.00121577
0.018234
0.0127075
0.0239031
0.0146893
-0.0202496
0.0176435
-0.00845707
0.0179573
-0.0122414
-0.00477087
0.00235861
-0.000510934
-0.00554835
0.00484677
-0.00582336
-0.00170625
-0.00210563
-0.00217392
-0.00378912
0.0131557
-0.000990352
-0.00316087
-0.0014022
-0.00338124
0.0163697
-0.0200622
-0.0115613
0.0154653
0.00688159
-0.011603
0.0175874
0.00910978
-0.0132656
0.0201974
0.00893001
-0.0141999
0.0229443
0.00891319
0.0301532
0.0119919
0.0098862
0.0134644
0.0124936
0.00948317
0.0132571
0.00991092
0.00785009
0.0119118
0.00974781
0.00607681
0.0107974
0.00840919
0.00999796
0.00699516
-0.00220214
0.00342042
-0.00261405
0.00415948
-0.00327989
0.00475561
-0.00391491
0.0053991
0.00650836
0.00166153
0.00290058
0.001424
0.000512407
0.000410705
0.00139285
-0.000144479
0.00198453
-0.00154751
-2.92778e-05
-0.000930165
0.00194849
0.000962767
-0.000331079
0.000790963
-0.000432884
0.00182662
-0.00111455
0.00121407
-0.00053551
0.00031178
-4.79607e-06
0.00202264
-0.00174361
2.94482e-05
0.00379123
-0.00055893
-0.00359047
0.0111429
-0.00638061
0.00358361
-0.0180113
0.0033514
0.0170511
0.00389276
-0.0181227
0.0204224
0.00714394
0.00294091
0.0067681
-0.0170638
0.0208377
0.000293776
0.00596358
0.0197846
-0.0148385
-0.0136243
0.0141821
0.00503744
0.0109769
-0.00739059
0.0171947
-0.00766007
0.0172696
0.0109104
-0.000412834
0.019973
0.00717547
0.00333895
-0.00114931
0.00152983
-0.00351599
0.000375652
-0.00229058
0.0125927
0.00135545
-0.00233525
0.000790535
0.00061867
-0.000776824
0.00151176
-0.000567652
0.00156028
-0.000392107
-0.00124366
0.00106684
-0.00206946
0.000899047
-0.000211536
-0.000225688
-0.00163372
-0.000455839
-0.00209295
0.000247756
-0.00185489
0.00140068
-0.00138001
0.000391765
0.000111743
-0.00188478
0.000170071
-0.00141345
-0.00066085
-0.00126396
-0.00240586
0.00115009
0.00124164
0.000229987
0.000476075
-0.00129588
0.000446801
-0.00168347
-0.000479893
0.000535174
0.000390005
0.000108899
6.92231e-05
-0.000659368
0.00104424
0.000304563
0.000313417
-0.000889088
-0.00161264
0.00281175
-0.000775473
0.000273738
0.000178589
-0.000887246
-0.00113244
0.00380217
0.00137647
-0.000359556
-0.00302563
0.0122674
-0.00264322
-0.00129228
-0.00174769
1.02765e-05
-0.000829744
0.000259726
-0.0007252
0.000328835
-4.12275e-05
-0.00111972
-4.55026e-05
0.00188161
-0.000306748
-0.00162369
-0.00132072
0.00320829
-0.000893906
-0.00017023
-0.00124442
0.00111682
0.00204145
0.000342678
0.000323731
0.000920567
-0.000130053
0.00191423
-0.00142105
-0.0001728
-0.00136905
0.00319535
8.35632e-05
-0.000650648
0.000198988
0.00285796
-0.00405308
0.013298
-0.00112456
-0.018047
0.000738517
0.00705211
0.0245367
-0.0164844
0.0218929
0.00640853
-0.0177669
0.0225786
-0.0021084
-0.0148868
-0.00439776
-0.0206778
-0.0218515
-0.00632175
-0.021883
-0.0057378
0.015154
-0.00260568
0.0197794
0.0317704
0.037434
-0.0236073
-0.101048
0.066553
-0.0966972
0.0700456
-0.107767
0.0712607
-0.0171089
-0.110008
0.0686828
-0.0248596
-0.10655
0.0674404
-0.0296583
-0.0980718
0.0662808
-0.0331895
-0.0859785
0.0636167
-0.035797
-0.0685629
0.0576648
-0.0379383
-0.0487852
0.0532681
-0.0376679
-0.0386779
0.042646
-0.0317252
0.00423873
-0.0299369
0.0167912
0.0322643
-0.0454843
0.0145274
0.04465
-0.0430536
-0.00709945
0.0477083
-0.0264928
-0.0342091
0.0266709
-0.0509529
-0.0129224
0.029199
-0.0596544
-0.0245151
0.0327138
-0.0620172
-0.0310291
0.0328656
-0.0556669
-0.0382305
0.0313538
-0.0476723
-0.035312
0.0268146
-0.0302888
-0.0335885
0.0157378
0.00327229
-0.0339999
0.020147
0.0445125
-0.062024
0.0427382
0.0555554
-0.0789127
0.0679801
0.054872
-0.0809339
0.0880586
0.0523777
-0.0732808
0.099247
0.0477503
-0.0597954
0.100181
0.0400104
-0.0417663
0.094643
0.0340808
-0.0293537
0.0828545
0.0307714
-0.0197032
0.046801
0.0377032
-0.00222322
0.0225418
0.0228905
0.00117231
0.019373
0.0039144
-0.0008504
0.0180064
0.000503456
0.000760373
0.0148727
0.00014811
0.00287524
0.00861954
2.17543e-05
0.00613246
0.0090928
-0.000560887
0.00718518
0.00342796
-0.00159097
0.00458488
0.00387011
-0.00131692
0.00477263
0.00168256
-0.00193313
0.00570483
0.00187819
-0.00288925
0.00538231
0.00306068
-0.00281598
0.00423144
0.0033302
-0.00224889
0.00322606
0.00269397
-0.0017432
0.00522519
0.00165244
-0.00372858
0.0104793
0.00225989
-0.00773251
-0.0211277
0.0321626
-0.00117353
-0.0486177
0.0237619
0.00296901
-0.0618385
0.0109919
0.00139494
-0.0659161
-0.000595098
0.00379971
-0.0699529
-0.0154391
0.0185714
-0.0750459
-0.0308018
0.0349726
-0.076196
-0.0456213
0.0458343
-0.0733413
-0.0590808
0.055281
-0.0630273
-0.0712691
0.0600031
-0.0450504
-0.0811537
0.0622197
-0.0172121
-0.087794
0.0589924
0.0170436
-0.0839838
0.0487672
0.0325493
-0.0587208
0.0422538
0.0316437
-0.0451663
0.0451496
0.0240443
-0.0355826
0.0422785
0.0101438
-0.0265137
0.039587
-0.000425636
-0.0234109
0.0331784
-0.0349373
0.0337624
-0.0505428
-0.0196548
0.0344623
-0.0577454
-0.0344224
0.0408143
-0.0581679
-0.0492492
0.048797
-0.0496378
-0.0642786
0.0548734
-0.0257067
-0.0818194
0.0569895
0.00444525
-0.0831987
0.0521707
0.00975773
-0.0472027
0.0410248
-0.00782014
-0.0265918
0.0433598
-0.0209879
-0.0286049
0.0409869
-0.00464352
-0.0606128
0.0435302
-0.052461
0.0432426
-0.0151657
-0.069212
0.00173493
0.0184732
-0.0550967
-0.0400398
0.0286021
-0.0397434
0.000134026
0.0322679
-0.0479746
0.0168228
0.0307373
-0.0777189
0.0311225
0.041438
-0.126594
0.0317554
0.0548268
-0.123591
0.0274375
0.0574737
-0.0964355
0.0285787
0.0524906
-0.0729571
0.0277853
0.0418836
-0.0519948
0.0273193
-0.030385
0.0283802
-0.037158
-0.0477142
0.0271025
-0.0391957
-0.0574196
0.0229453
-0.0336158
-0.0685291
0.0168125
-0.00535718
-0.0845725
-0.003405
0.0352511
-0.119638
-0.00595979
0.0611962
-0.125439
0.0106942
0.0763786
-0.118797
0.0214596
0.0836644
-0.104563
0.0250123
0.082905
-0.0864005
0.0270891
0.0787651
-0.0660185
0.0235547
0.0710314
-0.0445941
0.0205542
0.0647927
-0.0228507
0.0126921
0.0587587
-0.00145098
0.00594834
0.0461534
0.0151868
0.00748375
0.0223389
0.0332294
0.0134307
-0.00827574
0.00126417
0.0464899
0.0140373
0.00833099
-0.00313743
-0.00879021
-0.00483298
0.0150735
-0.00255992
-0.00305488
0.0106538
-0.00215563
0.00701971
-0.000572648
0.0143914
-0.000632646
-0.00534027
0.00213403
-0.00666989
0.0271676
0.00268849
-0.00889545
-0.00771986
-0.0011024
0.00147008
-0.00797718
-0.00336756
0.00139409
-0.00663883
-0.00454161
0.000561013
-0.0049046
-0.00529509
0.000341992
0.0020401
-0.00379522
-0.000509765
0.00467022
-0.00100097
-0.00191233
-0.000326191
-0.000354532
-0.00123554
-0.000716031
-0.000613172
-0.000569783
-0.000562416
0.000413601
-0.000998108
-0.00332893
0.0129716
-0.00534321
-0.0117419
0.00300256
0.0224056
-0.00759791
-0.00974008
0.0626479
-0.0309777
-0.0287648
0.0173442
0.0588397
-0.0229941
0.0288636
0.0409705
-0.0168833
0.0352259
0.000611177
-0.00756272
0.0507839