/*--------------------------------*- C++ -*----------------------------------*\
| =========                 |                                                 |
| \\      /  F ield         | OpenFOAM: The Open Source CFD Toolbox           |
|  \\    /   O peration     | Version:  v2012                                 |
|   \\  /    A nd           | Website:  www.openfoam.com                      |
|    \\/     M anipulation  |                                                 |
\*---------------------------------------------------------------------------*/
FoamFile
{
    version     2.0;
    format      ascii;
    class       volScalarField;
    location    "125";
    object      nut;
}
// * * * * * * * * * * * * * * * * * * * * * * * * * * * * * * * * * * * * * //

dimensions      [0 2 -1 0 0 0 0];


internalField   nonuniform List<scalar> 
18258
(
0.00415852
0.0018128
0.00147936
0.00127743
0.000852898
0.00139159
0.00193416
0.00230424
0.00241954
0.00240251
0.0024908
0.00420797
0.00590939
0.00730768
0.00767954
0.00766852
0.00696532
0.00665202
0.00722646
0.00887576
0.00745132
0.00477593
0.005715
0.00661302
0.00720959
0.00638684
0.00516701
0.00478134
0.00432789
0.00360832
0.00302958
0.00208766
0.00151006
0.00140006
0.00127089
0.00144968
0.00157962
0.00168532
0.00172302
0.00175042
0.00173882
0.0017292
0.00168266
0.00165303
0.00160223
0.0013217
0.00158009
0.00167372
0.00182577
0.00251147
0.00269256
0.00226171
0.00249907
0.00222809
0.00146795
0.00168083
0.00182438
0.00186309
0.00183867
0.001762
0.00173604
0.00171408
0.00168633
0.00165344
0.00163335
0.00164961
0.00166665
0.00164855
0.00156765
0.0015022
0.00139638
0.00129035
0.00121186
0.00115108
0.00110521
0.00105403
0.00099651
0.000875381
0.000811368
0.00107425
0.00134861
0.00144097
0.00204238
0.00249012
0.00250703
0.00187861
0.00133958
0.00139048
0.00154554
0.00156071
0.00132241
0.00157047
0.00177719
0.00184132
0.0019178
0.00214402
0.00244557
0.0023865
0.002127
0.00196412
0.00187204
0.00215988
0.00206972
0.00268601
0.00269088
0.00231988
0.0022085
0.00247969
0.00319753
0.0034289
0.00265644
0.00249696
0.00244931
0.00241806
0.00218913
0.002267
0.0020598
0.0018561
0.00202183
0.00244003
0.00231473
0.0025277
0.00261889
0.00245682
0.00284607
0.00328065
0.00323406
0.00258804
0.00211314
0.00196986
0.00198432
0.00121371
0.00131047
0.00141048
0.00144506
0.0014695
0.0014902
0.00158886
0.00158529
0.00156198
0.00155845
0.0015838
0.00087372
0.000947012
0.000970546
0.00097731
0.000928319
0.000918615
0.000901368
0.00088738
0.000837609
0.000801695
0.000959014
0.00107658
0.0011722
0.00128409
0.00145069
0.00165484
0.0018697
0.00208706
0.00223103
0.00227234
0.00231405
0.00223035
0.00214629
0.00222311
0.00223622
0.00222197
0.00219209
0.00215442
0.00210362
0.00201055
0.00211841
0.00211258
0.0019847
0.00170161
0.00173935
0.00173657
0.00178184
0.00177252
0.0017902
0.00176452
0.00173414
0.0016503
0.00153268
0.00127438
0.0012523
0.00126596
0.00162349
0.00196939
0.00304039
0.00370546
0.00429757
0.00459507
0.00491231
0.00397947
0.00443172
0.00341961
0.00306884
0.00389891
0.00509809
0.00290924
0.00159049
0.00301789
0.00267975
0.00194768
0.00173449
0.00178856
0.00178697
0.00204394
0.00235858
0.00262258
0.00275023
0.00286147
0.00295049
0.00304858
0.00317203
0.00320678
0.00309754
0.00262212
0.00316045
0.00257126
0.00300851
0.00272432
0.00184694
0.00189124
0.00202223
0.00185688
0.00180813
0.00172585
0.00155982
0.00194613
0.00250431
0.00290252
0.00331716
0.00442591
0.00409417
0.00392353
0.00303812
0.00293794
0.00152527
0.00217522
0.00226113
0.00254732
0.00169295
0.00154654
0.00147012
0.0019455
0.00225333
0.00265683
0.00294693
0.00349822
0.00271814
0.00310981
0.00281776
0.00196829
0.00188868
0.00270067
0.00290657
0.00238703
0.00213065
0.00267556
0.00253457
0.00179963
0.00142683
0.00219441
0.0022673
0.00163234
0.00406357
0.00436453
0.00415015
0.00504687
0.00632032
0.00720078
0.00672107
0.00596264
0.00663801
0.00527496
0.00512342
0.00546878
0.00459607
0.00321394
0.00329116
0.00340007
0.0034908
0.00374718
0.0039803
0.00426522
0.00453395
0.00412031
0.00342114
0.0025894
0.00178125
0.00175617
0.00174667
0.00156861
0.00232517
0.0035214
0.00350058
0.00199291
0.00116171
0.00131258
0.00148155
0.00146702
0.00106579
0.000801283
0.00137976
0.0015775
0.00160283
0.0015629
0.00147547
0.00154174
0.00247578
0.00381395
0.0041904
0.00433994
0.00448158
0.00458173
0.00463763
0.00465558
0.00466568
0.00467795
0.00468865
0.00470478
0.00469015
0.00459018
0.00403739
0.00253851
0.00148367
0.00137786
0.0015206
0.00163409
0.00173301
0.00147458
0.000901905
0.00144016
0.00184423
0.00212004
0.00213829
0.00199566
0.00193601
0.00305309
0.0040596
0.00478526
0.00493249
0.00499837
0.00494414
0.00493794
0.00483142
0.00479966
0.00421073
0.00300661
0.00328584
0.00352767
0.00356712
0.00364866
0.00377117
0.00368357
0.00348228
0.00508707
0.00587364
0.00594924
0.00607648
0.00600626
0.00590525
0.00563941
0.00533454
0.00449152
0.00336861
0.00212579
0.00217049
0.00231095
0.00228909
0.00199303
0.00209872
0.00227712
0.0022999
0.00237515
0.00266266
0.00302369
0.00288485
0.00248376
0.00210798
0.00196292
0.00192066
0.00184213
0.00137872
0.00140005
0.00136184
0.00138461
0.00186142
0.00221585
0.00255516
0.0036223
0.00323137
0.00262802
0.00416336
0.00426717
0.00458262
0.00506362
0.00518878
0.00574526
0.00400175
0.0036084
0.00370681
0.00302854
0.00280389
0.00283419
0.00284496
0.00265265
0.0029032
0.00287748
0.00277333
0.00306175
0.00337232
0.00444624
0.00538612
0.00568168
0.00585184
0.00592094
0.00589906
0.00578647
0.00582574
0.00512021
0.00511987
0.00490174
0.0047615
0.00471246
0.00448176
0.00512338
0.00531733
0.00538185
0.00551569
0.00572477
0.00556651
0.00539443
0.00526335
0.00516853
0.00506978
0.00512215
0.00521641
0.00531722
0.00545894
0.00564813
0.00567856
0.00548226
0.00533407
0.00523292
0.00513794
0.00514117
0.00522581
0.00532462
0.00546519
0.00564523
0.00554572
0.00540536
0.00528092
0.00517904
0.00508946
0.00491128
0.00502938
0.00515942
0.00526675
0.00533683
0.00461203
0.00492904
0.00484408
0.00438577
0.00410499
0.00311742
0.00337383
0.00355772
0.00387508
0.0043016
0.00438549
0.00368084
0.00315471
0.00307477
0.00305011
0.00312231
0.00314799
0.00316269
0.00357315
0.00537383
0.00541279
0.00543069
0.00543439
0.00465047
0.00451801
0.00420646
0.00767456
0.0071491
0.00619871
0.00511674
0.00274335
0.00235151
0.00278505
0.00338692
0.00378719
0.00417952
0.0027739
0.0017192
0.00200397
0.00207923
0.00203041
0.00187765
0.00156389
0.00144344
0.00131021
0.0014097
0.00249493
0.00397917
0.00448182
0.0045296
0.0044853
0.00439931
0.00429562
0.00415172
0.00408532
0.00510646
0.00684552
0.00782797
0.00780929
0.00671067
0.00544688
0.00304756
0.00153221
0.00108111
0.00125746
0.00137409
0.00162644
0.00146503
0.00117776
0.00127576
0.00123479
0.00251133
0.00437495
0.00563665
0.00667478
0.00653865
0.00565073
0.00467072
0.00444995
0.00455395
0.00462057
0.00467975
0.00474078
0.00478279
0.00475636
0.0043297
0.00267633
0.00159813
0.00142035
0.00152805
0.00179068
0.0019018
0.00191988
0.0018922
0.00163987
0.00271052
0.00430588
0.00273765
0.00149421
0.001615
0.0016039
0.00282881
0.00282395
0.00276213
0.00429725
0.00454272
0.00452946
0.00425608
0.00406444
0.00240669
0.00272881
0.00273733
0.00275178
0.00279706
0.00141274
0.00153962
0.00158711
0.00170763
0.00149869
0.00190346
0.000492231
0.00068171
0.000791718
0.000860756
0.000927272
0.000909697
0.00173941
0.0017639
0.00168421
0.00163925
0.00208115
0.00223459
0.00228455
0.00210506
0.00194255
0.00206755
0.00207146
0.00195115
0.00184858
0.00191761
0.00191937
0.00183928
0.00156443
0.00146589
0.00160933
0.00159178
0.00157861
0.00283533
0.00283061
0.00267892
0.00440095
0.00432945
0.00484957
0.00481843
0.00481443
0.00479624
0.00484759
0.00487326
0.00489219
0.00491574
0.00490638
0.004859
0.00674172
0.00477968
0.00417088
0.00241189
0.00232332
0.00164091
0.00143792
0.00169313
0.00181083
0.00196314
0.00191875
0.00202286
0.00202074
0.0021438
0.00198983
0.00176693
0.00270655
0.00289145
0.00282405
0.00287994
0.0028122
0.0027957
0.00277505
0.00273552
0.00268793
0.00160042
0.0015699
0.00183829
0.00192962
0.0020734
0.00209218
0.0021376
0.00202734
0.00178309
0.00172602
0.00198772
0.00196092
0.00199897
0.00188472
0.00187697
0.0016722
0.00171454
0.00345846
0.00637515
0.00328606
0.00364994
0.00330681
0.00376045
0.00329398
0.00284074
0.00290748
0.00256064
0.00267109
0.00280193
0.00285272
0.00299823
0.0035342
0.00340293
0.00298711
0.0029004
0.00284308
0.00268043
0.00241253
0.00252766
0.00255086
0.00260566
0.00289604
0.00332134
0.00372443
0.00452201
0.00438893
0.00384707
0.00351641
0.00368796
0.00375079
0.00471927
0.00441046
0.00438396
0.00462222
0.00457547
0.00434308
0.00411637
0.0039739
0.00341328
0.00346914
0.00397054
0.00384237
0.00395969
0.00389102
0.00404355
0.00411783
0.00395366
0.00367539
0.00385989
0.00385063
0.0042769
0.00416075
0.00385948
0.00353474
0.00377361
0.00372617
0.00430582
0.00405469
0.00379249
0.00348964
0.00334142
0.00379282
0.00372472
0.00422429
0.00434505
0.00434658
0.00378864
0.00370164
0.00440309
0.00423571
0.00409027
0.00426045
0.00352815
0.00363046
0.00447146
0.00456521
0.00433059
0.00361421
0.00367135
0.00314884
0.00370333
0.00460763
0.00435193
0.00356787
0.00295935
0.00414096
0.00435664
0.00460819
0.00435544
0.00474332
0.00510962
0.00416625
0.00453269
0.00592157
0.00452394
0.00524996
0.00536671
0.00539907
0.00540296
0.00542539
0.0054546
0.00575024
0.00560187
0.00355424
0.00425426
0.00413222
0.00345258
0.00293039
0.00322934
0.00347797
0.0035274
0.00361588
0.00375285
0.0036891
0.00357299
0.00522709
0.00596387
0.00609798
0.006221
0.00611871
0.00596617
0.0056161
0.00518617
0.00429565
0.00320202
0.00199515
0.00203301
0.00216604
0.00214433
0.00185972
0.00140395
0.000921869
0.00136963
0.0014157
0.00133265
0.00121401
0.00106954
0.0011038
0.00202449
0.00409886
0.00548652
0.0060274
0.00647052
0.00695217
0.00742075
0.00777772
0.00803453
0.00820601
0.00830893
0.0083249
0.00815162
0.00742019
0.00710107
0.00670568
0.00638374
0.0059328
0.00556601
0.00628552
0.00689707
0.00727266
0.00769525
0.0078872
0.00780001
0.00678377
0.00660856
0.00760201
0.00934638
0.00794036
0.00996949
0.0117299
0.00915813
0.00823083
0.00821168
0.00914978
0.00933044
0.00900243
0.00848888
0.00790001
0.0071576
0.00751895
0.00784478
0.0081559
0.00844073
0.00925839
0.00941817
0.00935609
0.00921848
0.00903291
0.00876218
0.00832856
0.00772755
0.00705875
0.00641302
0.00566594
0.00412594
0.00186874
0.00217613
0.00212556
0.00239129
0.00226828
0.0010037
0.00110291
0.00111825
0.00112702
0.00106758
0.00121341
0.00176028
0.00286611
0.00206045
0.00168999
0.00117395
0.0013854
0.00231602
0.00394476
0.00445836
0.00453797
0.00458763
0.00589778
0.0068354
0.00727277
0.00760768
0.00783972
0.00773166
0.00747433
0.00701972
0.00648298
0.00627353
0.00594365
0.00563915
0.00547836
0.00530149
0.00498534
0.00395767
0.00372493
0.00387874
0.00384355
0.0036822
0.00392927
0.00406915
0.00406464
0.00410925
0.00414851
0.00427091
0.00441501
0.00454044
0.00460624
0.00463068
0.00463846
0.00464815
0.00465589
0.00467034
0.00465468
0.00455281
0.00399751
0.00249859
0.00145801
0.00134794
0.00147804
0.00156304
0.0015994
0.00141991
0.000913678
0.00142036
0.00183846
0.00188545
0.00206842
0.00213374
0.00226262
0.00252219
0.00291552
0.0030086
0.0026692
0.00252798
0.00247317
0.00241033
0.0020551
0.00256168
0.0028327
0.00282833
0.00280283
0.0030299
0.00373003
0.00358183
0.00315754
0.00312073
0.00308819
0.00278622
0.0027433
0.00300452
0.00303858
0.00315414
0.00370007
0.00443969
0.00411708
0.00374833
0.0035905
0.00331411
0.00291204
0.00263136
0.00325615
0.00268121
0.00138325
0.00117242
0.00117898
0.00117826
0.00113176
0.00134094
0.00141078
0.00143126
0.00133664
0.00148389
0.00165246
0.00160232
0.00181447
0.00178739
0.00159581
0.0015779
0.00171722
0.00182272
0.00187569
0.00191559
0.00312967
0.00321931
0.00250464
0.00362882
0.00417837
0.00418314
0.0044337
0.00364327
0.00325761
0.00386527
0.00447869
0.00515969
0.00407508
0.00384542
0.00394399
0.00180577
0.000949934
0.00134068
0.00166448
0.00185296
0.00179727
0.00169872
0.00143709
0.0025542
0.00262245
0.00416898
0.00467784
0.00473778
0.00470462
0.00471414
0.00515794
0.00596396
0.00680609
0.00704684
0.00694175
0.00663303
0.00606209
0.00550685
0.00547224
0.00529776
0.00516174
0.00512676
0.00447757
0.00391771
0.0041624
0.00411311
0.00425014
0.00431396
0.00436028
0.00440788
0.00448766
0.004584
0.00467182
0.00473207
0.00477244
0.00480647
0.00484113
0.00487581
0.00491318
0.00493339
0.00488674
0.0044165
0.00264729
0.00157745
0.00143861
0.00153499
0.00180426
0.00189966
0.0020415
0.00181236
0.000954347
0.00112305
0.0019511
0.00216395
0.0020022
0.0018738
0.00184095
0.00154193
0.0027953
0.00275951
0.00433419
0.00487466
0.0049427
0.00492859
0.00488989
0.0048458
0.00480246
0.00476684
0.00473837
0.00470854
0.00466689
0.00461731
0.0045696
0.0045195
0.00443586
0.00431453
0.00419439
0.00437319
0.00449217
0.00469676
0.00492181
0.0050323
0.00493886
0.00479479
0.00472966
0.00476075
0.00480448
0.00484929
0.00488962
0.00491058
0.00485603
0.00457637
0.00429239
0.00271755
0.00275365
0.00135321
0.00150318
0.00173471
0.00179153
0.00194592
0.0019369
0.00152191
0.00118513
0.00133672
0.00124994
0.00223455
0.00245766
0.00272692
0.00270048
0.00146548
0.00150283
0.00156135
0.00176174
0.00163641
0.00158201
0.00392333
0.00375541
0.00392904
0.00482322
0.00415794
0.00287267
0.0031518
0.0043825
0.00462111
0.00279616
0.00209296
0.00232686
0.00294865
0.004336
0.00438974
0.00416933
0.00414786
0.00303126
0.00372095
0.00447316
0.0043525
0.00339726
0.00234249
0.00174111
0.000842594
0.00160312
0.00137113
0.00336246
0.00372156
0.00367864
0.0040239
0.00427408
0.0043182
0.00419726
0.00372034
0.00379455
0.00383259
0.00436839
0.00438929
0.00371292
0.00313308
0.00254192
0.00256515
0.00261551
0.00289945
0.00363119
0.00342125
0.00299822
0.00290687
0.00284356
0.00267428
0.00241242
0.00211613
0.00213115
0.00198391
0.00192029
0.00302793
0.00403148
0.00475478
0.00489165
0.00494098
0.00486451
0.00482905
0.00468956
0.00461653
0.00400922
0.00511724
0.00541029
0.00522348
0.00526428
0.00529876
0.00534039
0.00534212
0.00524207
0.00450321
0.0026885
0.00175569
0.00198154
0.00213851
0.0020076
0.00199661
0.00212856
0.00202012
0.00177464
0.00287568
0.00281093
0.00449561
0.00509252
0.00520093
0.00520609
0.00518408
0.00516534
0.00517059
0.00544158
0.00531938
0.0054074
0.00570305
0.00570626
0.00577238
0.00541793
0.00534751
0.00530211
0.00527157
0.0052228
0.00509415
0.00450779
0.00437026
0.00496309
0.00511617
0.00518442
0.00523187
0.00528836
0.00536198
0.00557402
0.00573288
0.00579754
0.00555817
0.00546181
0.00533419
0.00515484
0.00511327
0.00510606
0.00510288
0.00507903
0.0049482
0.00435518
0.00279987
0.00286896
0.00170638
0.00171734
0.00197779
0.00207694
0.00203952
0.00188851
0.00184118
0.00317571
0.00361454
0.00384171
0.00414373
0.00395871
0.00393669
0.00449994
0.00435397
0.00388423
0.00404232
0.00362131
0.00344699
0.00334278
0.00336205
0.00176037
0.00189983
0.001982
0.00194949
0.00186412
0.00166295
0.00152497
0.00278374
0.00276326
0.00272742
0.00162121
0.00158541
0.00186786
0.00181366
0.00165885
0.00141394
0.00155038
0.00239482
0.00267917
0.00415498
0.00430502
0.00460779
0.00492716
0.00504746
0.00507987
0.00509935
0.00512076
0.00516852
0.00522489
0.00524175
0.00524071
0.0052827
0.00527106
0.00527356
0.00524873
0.00521878
0.00518276
0.00514353
0.00507827
0.00494334
0.0046194
0.00430144
0.00484959
0.00489394
0.00498434
0.00507728
0.00511587
0.00512017
0.00509887
0.00505817
0.00500947
0.00495591
0.0049539
0.00510741
0.00514913
0.00517573
0.00516005
0.00514139
0.00513493
0.00511177
0.00507488
0.00498176
0.00488801
0.00484811
0.00476632
0.00489356
0.00495057
0.00495879
0.00500626
0.00508234
0.00510546
0.0051061
0.00506943
0.00503805
0.0049957
0.00492404
0.00482273
0.00451016
0.00457704
0.00465884
0.00476806
0.00487339
0.00495856
0.00500762
0.00501412
0.00497103
0.004942
0.00494433
0.00490328
0.00492483
0.00494577
0.00491845
0.00491228
0.0049114
0.00484907
0.00474129
0.00459424
0.00444096
0.00432003
0.00426961
0.00417393
0.00449566
0.00463678
0.00475798
0.00486266
0.00495547
0.00504687
0.00507283
0.0050602
0.00500401
0.00497199
0.00497073
0.00492242
0.00492003
0.00496663
0.00496836
0.00499489
0.00504234
0.00503205
0.00496795
0.0047951
0.00462523
0.00447529
0.00432913
0.00417064
0.00417351
0.00424066
0.00416418
0.00420172
0.00433939
0.00452089
0.00468163
0.00479108
0.00482942
0.00486423
0.00491201
0.00490955
0.00488222
0.00486433
0.00479997
0.00474267
0.0046736
0.00453063
0.0043555
0.00420825
0.00417557
0.00427015
0.00435567
0.00427727
0.00394737
0.00410828
0.004264
0.00441445
0.00462536
0.0048657
0.00496666
0.00500203
0.00497707
0.00495779
0.00495522
0.00491098
0.00489574
0.0049366
0.00494002
0.00495962
0.00499045
0.00496496
0.00488475
0.00459187
0.0042383
0.0040634
0.00395621
0.00382043
0.00429839
0.00438749
0.00427686
0.00420115
0.00430905
0.00443014
0.00455717
0.00464428
0.00468254
0.00473779
0.00480963
0.00484605
0.00479731
0.00473713
0.00466426
0.00462646
0.00462774
0.00461131
0.00453229
0.00443369
0.00431126
0.00445866
0.00454895
0.00446862
0.00402757
0.00409515
0.00421183
0.00427714
0.00460744
0.00489033
0.00495045
0.00494739
0.00491432
0.00489317
0.00489338
0.00486725
0.00481983
0.00481187
0.00480794
0.00486608
0.00494252
0.00499375
0.00502236
0.00481355
0.00442618
0.00435193
0.0041457
0.00405976
0.00452924
0.00457596
0.00446041
0.00436001
0.00457483
0.00466372
0.00468395
0.00465999
0.00460756
0.00457611
0.00463846
0.0047358
0.00466479
0.00435765
0.00408604
0.00422364
0.00425999
0.00425302
0.00419807
0.00410121
0.00388858
0.00435027
0.00480357
0.00483943
0.00434878
0.00435891
0.00425012
0.0039637
0.00434224
0.00453686
0.00457451
0.00454828
0.00447328
0.00430112
0.00454294
0.00475538
0.00471502
0.00426856
0.00276854
0.00280563
0.00282419
0.00282579
0.00278984
0.00277929
0.00274013
0.00271931
0.00265847
0.00259559
0.00253665
0.00270174
0.00284161
0.00303341
0.00304936
0.003129
0.00300049
0.00284614
0.0026626
0.00208237
0.0026411
0.00314849
0.00334411
0.00359537
0.00364497
0.00418728
0.00439836
0.00450828
0.00441668
0.00354803
0.00301028
0.00240649
0.00156531
0.000975447
0.00114483
0.00119065
0.00124869
0.00152455
0.00282098
0.00143809
0.00199095
0.00155593
0.00267576
0.00141117
0.00088784
0.000588083
0.000749029
0.000889861
0.000899805
0.000865284
0.000723282
0.000572512
0.000585323
0.000547781
0.00058229
0.000524074
0.000600229
0.000558922
0.000770995
0.00112761
0.00130026
0.0013323
0.00107839
0.00121921
0.00101901
0.00117696
0.00105212
0.0011472
0.00110074
0.00134626
0.00147537
0.00141202
0.00141536
0.00123841
0.000865977
0.00100404
0.000788615
0.00094716
0.000724315
0.00093439
0.000801205
0.00104097
0.00107281
0.00106943
0.00102937
0.000786141
0.000931733
0.000733755
0.000902651
0.00074228
0.000791863
0.000658824
0.00095534
0.000973068
0.000897816
0.000952268
0.00106724
0.00114355
0.00125854
0.001193
0.00135924
0.0013133
0.00132984
0.00126035
0.00122615
0.00119885
0.00120208
0.00118279
0.00118953
0.00122807
0.00122987
0.0012347
0.00127367
0.0012554
0.00122478
0.00120611
0.00107155
0.000865365
0.00150782
0.00155458
0.00157834
0.00157845
0.00154377
0.00152532
0.00146983
0.00145547
0.00140794
0.00138154
0.00131867
0.00126878
0.00121072
0.00136262
0.000763076
0.000866733
0.000915121
0.000942946
0.000961684
0.000970578
0.000977221
0.000971636
0.00095929
0.000935994
0.000928551
0.000903014
0.00115471
0.00131378
0.0013741
0.00139045
0.00130285
0.00124064
0.00272669
0.00330467
0.00501413
0.00512511
0.00385273
0.00383764
0.00132304
0.00139921
0.000955297
0.00134223
0.00138378
0.00136922
0.00129282
0.000932042
0.00139869
0.000975109
0.00131094
0.000985249
0.00121145
0.00100485
0.00142886
0.00182239
0.00175908
0.00159341
0.00109251
0.000913039
0.000914707
0.000785103
0.000861656
0.000710335
0.000870586
0.00073337
0.00107535
0.00150566
0.00168264
0.00171837
0.00135604
0.00187159
0.00140793
0.0020402
0.00162317
0.00200446
0.00161106
0.0018629
0.00230519
0.00231559
0.00226022
0.00182116
0.00145718
0.00163668
0.0014487
0.00166983
0.00241608
0.00158213
0.00240712
0.000993261
0.00135382
0.00139536
0.00137605
0.00129716
0.000873225
0.00222251
0.00117566
0.00208739
0.00135097
0.00216141
0.00157343
0.00208528
0.00249223
0.00260687
0.0025951
0.00211964
0.00191548
0.00198159
0.00158425
0.00190216
0.00141952
0.00206048
0.00117047
0.00151885
0.00167331
0.00176304
0.00176868
0.00145141
0.00286905
0.00180319
0.00272195
0.0018951
0.00242908
0.00194808
0.00212942
0.00251552
0.00249936
0.00247765
0.00210066
0.00170019
0.00224489
0.00159917
0.0480356
0.110679
0.0442074
0.112005
0.0506564
0.0719643
0.0709147
0.0710582
0.0713455
0.0536525
0.116897
0.137973
0.143826
0.145568
0.14448
0.233434
0.190343
0.28585
0.185173
0.10908
0.0473729
0.0652336
0.168176
0.277605
0.416809
0.52906
0.360616
0.373358
0.238262
0.234951
0.221304
0.179169
0.110016
0.0552756
0.0093752
0.0102168
0.0146546
0.0195588
0.0153791
0.00939631
0.0018636
0.00192251
0.00196519
0.00199132
0.00198299
0.00193832
0.00196516
0.00184882
0.00173191
0.00193465
0.00211171
0.00235262
0.00274952
0.00302869
0.00272925
0.00298552
0.0031602
0.00330287
0.00342187
0.00360009
0.00380095
0.0039759
0.00398407
0.00364961
0.00311067
0.0025287
0.00212318
0.00201074
0.00188777
0.00166476
0.00152273
0.00142451
0.00137831
0.00135991
0.00139849
0.00152941
0.0016437
0.00168387
0.00165161
0.00162099
0.00159434
0.00141952
0.0016598
0.00227665
0.00229249
0.00392743
0.00452458
0.00461853
0.00462509
0.00409577
0.0026145
0.00262036
0.00263365
0.00268364
0.00269445
0.00270256
0.00270023
0.00269262
0.00267728
0.00264946
0.00263481
0.00259205
0.00255563
0.00246413
0.00246821
0.00250164
0.00252676
0.00248429
0.00249364
0.0024411
0.00323126
0.00429028
0.00480376
0.00501799
0.0052012
0.00504773
0.0070099
0.00601805
0.00422182
0.00413646
0.00408371
0.00485409
0.00489042
0.00440239
0.00442246
0.00406228
0.00253686
0.00253211
0.00253368
0.00270621
0.00275857
0.00284738
0.0028721
0.0028912
0.00290383
0.00289416
0.00289109
0.00286309
0.00284303
0.00277772
0.00275597
0.00274666
0.00151443
0.0016528
0.00171465
0.001727
0.00175352
0.00174426
0.00173631
0.00171645
0.00170464
0.00167711
0.00164629
0.00159816
0.00150417
0.00136996
0.00150723
0.00255638
0.00255574
0.00416582
0.00466567
0.00469771
0.00525054
0.0049759
0.00471272
0.00506355
0.00455833
0.00452031
0.00411412
0.0025574
0.00259132
0.00153924
0.0015253
0.00178452
0.0017351
0.00185254
0.00190202
0.0019056
0.00193037
0.00195342
0.00198297
0.00203003
0.00204285
0.00200874
0.00200131
0.00188579
0.00163001
0.00164889
0.00194306
0.00203706
0.00189381
0.00186297
0.00185055
0.00180809
0.00177512
0.00174381
0.0017682
0.00190587
0.00190528
0.00187193
0.00178299
0.00173686
0.00150538
0.00145556
0.00253922
0.00256856
0.00421506
0.00432085
0.0043048
0.00496744
0.00555176
0.0063034
0.00538505
0.00436954
0.00448424
0.00512537
0.00380068
0.00317207
0.00187782
0.001441
0.0017629
0.00168124
0.00174996
0.0018132
0.00160891
0.00172773
0.00159568
0.00144972
0.00144062
0.00143859
0.00147303
0.00148769
0.00151365
0.00151707
0.00155155
0.00154774
0.00155077
0.00156942
0.00157586
0.00174088
0.0018891
0.00159068
0.00134952
0.00131674
0.00124378
0.00118513
0.00121443
0.00118693
0.00117996
0.00115898
0.00113965
0.00108821
0.00113442
0.00120456
0.00140993
0.00134991
0.00109049
0.000973687
0.000665365
0.000678359
0.000683029
0.00070366
0.000711289
0.000720562
0.000724051
0.00073548
0.000737712
0.000741278
0.000740958
0.000758036
0.000755352
0.000746437
0.000740824
0.000744365
0.000747479
0.00074671
0.00109331
0.00121678
0.00132665
0.00157495
0.00185213
0.00159385
0.00135155
0.00116739
0.000750834
0.000762058
0.000775468
0.000782568
0.000798603
0.000813518
0.000829815
0.000840175
0.000847691
0.000855791
0.000864271
0.000867663
0.000865366
0.000848712
0.000838831
0.00086033
0.000945474
0.000995081
0.00105862
0.00108276
0.00110349
0.00111408
0.00110883
0.00112045
0.00110727
0.00110558
0.00108661
0.00107867
0.00107089
0.00106131
0.00104921
0.00101957
0.0010096
0.00106223
0.00179653
0.00234842
0.00270376
0.00297709
0.00274576
0.0022213
0.00234404
0.00411465
0.00389104
0.00230403
0.00214764
0.00197619
0.00171571
0.00153873
0.00186403
0.00212003
0.00231378
0.0024844
0.00264077
0.00274725
0.00288555
0.00306662
0.00338499
0.00342404
0.00312254
0.00252818
0.00213699
0.00199292
0.00192419
0.0018068
0.00167879
0.0017213
0.00173412
0.00168307
0.00161984
0.0016027
0.0016301
0.00166617
0.00164669
0.00164571
0.00147016
0.00146944
0.00251074
0.00255399
0.00392881
0.00413971
0.00418041
0.00268496
0.00264868
0.00154702
0.00143703
0.00156752
0.00162718
0.00163079
0.00163774
0.00163015
0.00160188
0.00158141
0.00155727
0.00153757
0.00151977
0.00148928
0.00143127
0.00132267
0.00144076
0.00161406
0.00168576
0.00170497
0.00171466
0.00174195
0.00178675
0.00182214
0.00190478
0.00191211
0.00191114
0.00191767
0.00179218
0.00184785
0.00156407
0.00156145
0.00270668
0.00269866
0.00155036
0.00183023
0.00184315
0.00182267
0.00196273
0.00179584
0.00173904
0.00173088
0.00165753
0.00161855
0.00156599
0.00153458
0.00156386
0.00166299
0.00160997
0.00142761
0.00137364
0.00154107
0.00148405
0.00123101
0.00105184
0.00102326
0.00097974
0.000953298
0.000999461
0.0010357
0.00105638
0.00108249
0.00109018
0.00113794
0.00110678
0.00116074
0.00123095
0.00128702
0.00152629
0.00165432
0.0014945
0.00146586
0.00144773
0.00144704
0.00145189
0.00139195
0.00138802
0.001357
0.00134164
0.00130074
0.0012823
0.00125882
0.00126265
0.00127561
0.00140217
0.00360127
0.00459358
0.00478039
0.00817246
0.00330024
0.00337261
0.00662961
0.00273364
0.00411209
0.00440717
0.00460148
0.00480858
0.00439893
0.00561299
0.00390717
0.00434551
0.00452283
0.00393277
0.00151012
0.00177357
0.00201453
0.00177194
0.00156336
0.0010633
0.00114304
0.00117888
0.00120841
0.0012271
0.00124866
0.00127158
0.00129314
0.00130805
0.00130786
0.00126751
0.00122421
0.00112503
0.00109197
0.00113407
0.00117751
0.00103341
0.000972806
0.000984049
0.000999843
0.00100862
0.0010102
0.00101971
0.00102207
0.00103723
0.0010287
0.00103612
0.00101808
0.00102653
0.00101357
0.000979391
0.00093084
0.000848871
0.000829022
0.00119422
0.00127186
0.00133593
0.00151712
0.00175299
0.00187129
0.0016781
0.00154873
0.00148679
0.00164957
0.001653
0.00301059
0.00577527
0.00258435
0.00288848
0.00842475
0.00335158
0.00260136
0.00263954
0.00266657
0.00267048
0.00155153
0.00183663
0.00178005
0.00178848
0.00151725
0.00127432
0.0011429
0.00102178
0.000693227
0.000691029
0.000696242
0.000707143
0.000710577
0.000680033
0.000679952
0.000676061
0.000674555
0.000660124
0.000656101
0.000644323
0.000637164
0.000620231
0.000611108
0.000595257
0.000593173
0.0006284
0.000706757
0.000855935
0.000941797
0.00107669
0.00109296
0.00120901
0.00296846
0.00344155
0.0047476
0.00471703
0.00743273
0.00464865
0.00351082
0.00316329
0.00463093
0.00478722
0.00442518
0.00598911
0.00414307
0.00276048
0.00434499
0.00364676
0.00410229
0.00409275
0.0043678
0.00693215
0.00725016
0.0020308
0.00180845
0.00190003
0.00215679
0.00256221
0.00236838
0.00269434
0.00271058
0.00210785
0.00131078
0.00414424
0.00501997
0.00411699
0.00502197
0.00753389
0.00302855
0.00295189
0.00261069
0.00217903
0.00197976
0.00195463
0.00218039
0.00260908
0.00649743
0.00696603
0.00655478
0.00658471
0.00596236
0.00643393
0.00797528
0.00790923
0.00700894
0.006551
0.006841
0.00437294
0.00261056
0.00302543
0.00336316
0.0044875
0.00462331
0.00973604
0.00332295
0.00366374
0.00372129
0.0049672
0.00482161
0.0084686
0.00362276
0.00389848
0.00513235
0.00686983
0.012584
0.00463948
0.00486736
0.0069862
0.00709691
0.00648648
0.00469736
0.00424795
0.00461942
0.00348385
0.00340695
0.00290274
0.00427952
0.00574691
0.00456761
0.00443458
0.00376319
0.00338215
0.00343267
0.00357104
0.00297022
0.00292549
0.00336623
0.00252707
0.00245423
0.00256167
0.000715555
0.000366454
0.0003743
0.000384006
0.000391942
0.000400185
0.000406146
0.000413307
0.000416432
0.000416855
0.000418048
0.000441995
0.000437717
0.000423866
0.000384868
0.000439083
0.00069674
0.000697082
0.000438466
0.000386496
0.000693668
0.00110502
0.00130273
0.00154045
0.0015591
0.00134571
0.00116698
0.000718656
0.000707241
0.000428633
0.000500642
0.000543667
0.000482278
0.000538371
0.00049904
0.000528452
0.000534345
0.000494543
0.000491611
0.000493435
0.000489722
0.000480918
0.000470299
0.000457451
0.000447766
0.000443359
0.000440967
0.000434027
0.000356454
0.00033395
0.000407027
0.000654774
0.000659285
0.000615004
0.00057476
0.000539462
0.000521953
0.000515923
0.000512158
0.00052095
0.000537703
0.000542504
0.000547484
0.000589858
0.000570784
0.00060965
0.000572308
0.000611357
0.000573657
0.000527746
0.000443111
0.000457167
0.000737589
0.000745499
0.00120392
0.00137658
0.00156044
0.00156803
0.00175088
0.00184483
0.00156349
0.00162339
0.00185916
0.00173063
0.00154165
0.00154795
0.00139211
0.00139401
0.00123563
0.000772595
0.000762136
0.000478605
0.000464849
0.000554281
0.000544652
0.000605686
0.000648344
0.000648538
0.000646432
0.000631012
0.000625241
0.000549753
0.000538762
0.000539517
0.000523468
0.000520842
0.00054586
0.000600907
0.000709682
0.000859319
0.000932835
0.000960317
0.000919461
0.000821873
0.00061258
0.000549178
0.000956657
0.000986483
0.00180843
0.00431379
0.00206786
0.00375648
0.00270823
0.00066793
0.000742669
0.000946689
0.00106055
0.00114597
0.00119829
0.00109964
0.000920552
0.000693021
0.000571584
0.000845766
0.000731055
0.00082251
0.0007179
0.000929169
0.00107398
0.00103868
0.00104618
0.000883829
0.000719596
0.000762131
0.000683675
0.000753458
0.000630905
0.000759001
0.000685004
0.000860632
0.000868631
0.000850467
0.000806033
0.000613641
0.00064382
0.000540115
0.000585979
0.000526258
0.000543971
0.000515408
0.000600979
0.000692531
0.000664694
0.000662127
0.000544078
0.00042645
0.00047112
0.000407741
0.000461564
0.000358895
0.000434669
0.000364318
0.000471836
0.000487003
0.000491012
0.000490341
0.00040121
0.000472199
0.000574015
0.000600242
0.000604015
0.000574454
0.000443076
0.000685273
0.000617243
0.000753493
0.000651043
0.000713266
0.000649269
0.000756754
0.000969348
0.00101226
0.00101898
0.000826927
0.000822083
0.00150249
0.0835648
0.00135155
0.00159771
0.00164785
0.0016421
0.00135756
0.00132369
0.00164054
0.00121255
0.00171839
0.00108193
0.00183419
0.000699112