/*--------------------------------*- C++ -*----------------------------------*\
| =========                 |                                                 |
| \\      /  F ield         | OpenFOAM: The Open Source CFD Toolbox           |
|  \\    /   O peration     | Version:  v2012                                 |
|   \\  /    A nd           | Website:  www.openfoam.com                      |
|    \\/     M anipulation  |                                                 |
\*---------------------------------------------------------------------------*/
FoamFile
{
    version     2.0;
    format      ascii;
    class       volScalarField;
    location    "230";
    object      epsilon;
}
// * * * * * * * * * * * * * * * * * * * * * * * * * * * * * * * * * * * * * //

dimensions      [0 2 -3 0 0 0 0];


internalField   nonuniform List<scalar> 
18258
(
0.0241307
0.0122876
0.00917169
0.00721719
0.0126751
0.0125666
0.0130231
0.0173643
0.0241817
0.03702
0.0535833
0.0481557
0.0435292
0.0452668
0.0474341
0.0450108
0.0350717
0.0303412
0.0400564
0.0667334
0.0607611
0.0496921
0.0607217
0.0514483
0.0659932
0.0835296
0.0640527
0.0575145
0.0516088
0.0485778
0.0421074
0.02437
0.0343077
0.0528338
0.0724375
0.0793398
0.0851794
0.0901348
0.0953078
0.097457
0.0977112
0.0924565
0.0832077
0.0679239
0.0497658
0.0380394
0.0291342
0.0320751
0.0449216
0.0452469
0.0558012
0.0856559
0.10806
0.080997
0.0518299
0.0826464
0.112655
0.14442
0.170906
0.193311
0.200978
0.197509
0.185944
0.169188
0.147727
0.122736
0.101746
0.0848291
0.0670516
0.0572575
0.0463135
0.0384077
0.0328455
0.0291882
0.0269882
0.0252673
0.0241061
0.0250357
0.024922
0.0177747
0.0139816
0.0131334
0.00939515
0.00780869
0.00812487
0.00773189
0.00803163
0.00709051
0.00607402
0.00527461
0.00447385
0.00651669
0.00701142
0.00725211
0.00726974
0.00779081
0.0080383
0.00777067
0.00786526
0.00719594
0.00745005
0.0119408
0.0137059
0.0173893
0.015544
0.0107839
0.00905449
0.0100945
0.0107098
0.013322
0.0125601
0.0133394
0.0118342
0.0108113
0.00912736
0.00885827
0.00908872
0.00966048
0.0100587
0.0116676
0.0115031
0.0106742
0.0118018
0.0130168
0.0127394
0.0121885
0.0116009
0.0142372
0.0114383
0.0121208
0.0136144
0.0219366
0.0214643
0.025956
0.0254783
0.0259142
0.0260951
0.0314764
0.0315979
0.0319747
0.0322928
0.0340126
0.056986
0.0507776
0.0496678
0.0494721
0.042796
0.0423341
0.0416508
0.0424658
0.0359832
0.0346376
0.0314117
0.0310507
0.034645
0.0437513
0.0612052
0.0884275
0.122347
0.15868
0.18897
0.209992
0.231764
0.237214
0.251163
0.255945
0.256906
0.251277
0.242889
0.233455
0.220643
0.202136
0.189341
0.148895
0.105411
0.0592363
0.0786567
0.0907422
0.100496
0.102333
0.103429
0.0992724
0.0929407
0.0817155
0.0661112
0.0429477
0.0490637
0.0663699
0.0685929
0.0692678
0.0549124
0.0527981
0.0489713
0.0489075
0.0641711
0.0737566
0.0620464
0.0858945
0.100873
0.0881658
0.0638825
0.0978753
0.144145
0.0811023
0.0690755
0.0536259
0.0526524
0.0445307
0.0373141
0.0626709
0.0937626
0.12921
0.150608
0.172543
0.190294
0.203701
0.217881
0.189385
0.172005
0.115688
0.202912
0.154214
0.0780402
0.0578677
0.0567937
0.0432618
0.0497798
0.0553171
0.0513175
0.0392857
0.0274638
0.0252733
0.046698
0.0651052
0.078739
0.0626539
0.0797285
0.0899888
0.0972701
0.102663
0.130092
0.0957951
0.1067
0.0767151
0.103991
0.07397
0.0477505
0.0527966
0.101015
0.161282
0.221353
0.258618
0.147429
0.0746795
0.0555205
0.055852
0.0536032
0.04835
0.0600387
0.106789
0.0719649
0.0467319
0.0406045
0.0480287
0.0408287
0.030402
0.0318308
0.0395514
0.0551606
0.0697493
0.0826748
0.126149
0.121854
0.147154
0.154684
0.13026
0.125832
0.0812068
0.083449
0.123224
0.0917846
0.0741924
0.104147
0.147202
0.201293
0.247491
0.287807
0.313639
0.303168
0.274295
0.173471
0.0759363
0.0228696
0.0177876
0.0168364
0.0173106
0.0105193
0.00629573
0.0058477
0.00666298
0.00701417
0.00591715
0.00544753
0.00543915
0.00578402
0.0101859
0.00875235
0.0108266
0.0131147
0.0156598
0.0186999
0.0194244
0.0128871
0.0087224
0.00818483
0.00811992
0.00805026
0.00801993
0.00803044
0.00806955
0.00808429
0.00805115
0.00797217
0.00783537
0.00770053
0.00764405
0.00828026
0.0111688
0.0153276
0.0148216
0.0135337
0.0121804
0.0110213
0.0086953
0.015126
0.0128258
0.0109195
0.0133743
0.0164756
0.0208222
0.0244654
0.0176474
0.0141287
0.0127876
0.0126624
0.0125487
0.0125944
0.0124726
0.0125379
0.0123399
0.0129365
0.0135645
0.0169635
0.0189898
0.0211687
0.0226665
0.0232475
0.0239613
0.0211239
0.0229537
0.0227153
0.0234948
0.0233077
0.0226173
0.0206997
0.0189098
0.0176891
0.0191016
0.0236617
0.0323016
0.0266995
0.0207187
0.0167622
0.0137073
0.0149753
0.0166504
0.0168254
0.0158386
0.0156097
0.0154011
0.013879
0.0130879
0.0110876
0.0104783
0.0100179
0.0101683
0.0143519
0.0134992
0.0136982
0.0144272
0.0155133
0.0146727
0.0151076
0.0142703
0.0145161
0.0149334
0.0170021
0.0185571
0.0178008
0.0164886
0.0159904
0.0137212
0.0158243
0.0156863
0.0170071
0.0185905
0.0190805
0.0190157
0.0183789
0.0167817
0.0186733
0.0220402
0.0256904
0.0246921
0.0243718
0.0204331
0.019235
0.0202072
0.0214793
0.022386
0.0224595
0.022289
0.0223739
0.0263745
0.0260186
0.0248192
0.0227424
0.0202873
0.017636
0.0151908
0.0166675
0.0181485
0.0195389
0.0208065
0.0205715
0.0190453
0.0176869
0.016456
0.0149615
0.0146727
0.016127
0.0173492
0.01878
0.0204932
0.0205677
0.0188559
0.0173615
0.0160792
0.0146048
0.0145552
0.0160558
0.017354
0.0187704
0.0202531
0.0196206
0.0184672
0.0172172
0.0159749
0.0145223
0.0145885
0.0159105
0.0169791
0.018062
0.019011
0.0198626
0.017903
0.0169931
0.0170846
0.0160962
0.0192756
0.0185198
0.0194626
0.0180118
0.016789
0.0177946
0.0209832
0.0240142
0.0245647
0.0242847
0.0201532
0.020609
0.0205863
0.01917
0.0159481
0.0153506
0.0181197
0.0208551
0.0213155
0.0200076
0.016908
0.0132735
0.014293
0.0174515
0.0197614
0.0185056
0.0183439
0.0169305
0.0158537
0.0161529
0.0138744
0.0166103
0.0266736
0.0241421
0.0221238
0.0196525
0.0156486
0.0105922
0.0114907
0.0126468
0.0130632
0.0105613
0.00790639
0.00709791
0.00690332
0.00674388
0.00652418
0.00615495
0.00559721
0.00536657
0.0106288
0.0259059
0.0364945
0.0358442
0.0241341
0.0208241
0.0201991
0.0189329
0.00937417
0.00820811
0.00844041
0.0103855
0.0081698
0.0086058
0.014909
0.0102035
0.0139605
0.0108078
0.0146617
0.0229955
0.0218035
0.0144729
0.00801639
0.00687371
0.00736192
0.00764854
0.00785314
0.00805082
0.00828567
0.00867333
0.00999615
0.0157206
0.0202882
0.0177475
0.0167572
0.0152856
0.0188248
0.0213062
0.0232426
0.0259996
0.0160747
0.0117681
0.0166112
0.0272268
0.0247183
0.0232634
0.0171373
0.0176755
0.0171028
0.0109954
0.0106497
0.0105702
0.0113823
0.0127659
0.014687
0.0158535
0.0166049
0.0169355
0.017847
0.0231193
0.0216379
0.0211293
0.017357
0.013396
0.0153698
0.0514881
0.0195465
0.0206623
0.0188901
0.0191594
0.020441
0.0151517
0.0135165
0.0129429
0.0146464
0.0215206
0.0215228
0.0213788
0.0182354
0.0174494
0.0208809
0.0219761
0.0223836
0.0217596
0.0213103
0.0194435
0.0166629
0.0180913
0.0196071
0.0208024
0.0228124
0.023159
0.0179401
0.017215
0.0158213
0.0105314
0.0112756
0.00971214
0.00968031
0.00964396
0.0093703
0.00892018
0.00920864
0.00932752
0.00932673
0.00898105
0.00927881
0.00832455
0.00866253
0.00975278
0.0151931
0.0147614
0.0175545
0.0194625
0.0167123
0.0155551
0.0141951
0.0131743
0.0154224
0.0142606
0.0168343
0.0211792
0.0264605
0.0191011
0.018106
0.0178811
0.0174752
0.0173162
0.0173674
0.0166753
0.0156759
0.0151104
0.0235501
0.0212548
0.0181365
0.0171891
0.0157584
0.018007
0.0174512
0.0213432
0.0268173
0.0270197
0.0215093
0.0215858
0.0189347
0.0200376
0.0222224
0.0270526
0.0269782
0.014413
0.00957911
0.0154143
0.0157551
0.018362
0.016981
0.0185062
0.0196841
0.0204122
0.0202731
0.0176759
0.018852
0.0196402
0.0206271
0.0185757
0.0165705
0.0173587
0.0161368
0.0152374
0.0147369
0.0126648
0.0129104
0.0138804
0.0153301
0.016271
0.0177621
0.019415
0.0194467
0.020114
0.0197073
0.0191135
0.0252101
0.0239649
0.0255068
0.0282201
0.0224278
0.0177961
0.0146743
0.0149855
0.0147507
0.0146577
0.0153983
0.0167559
0.0151339
0.0145163
0.0170262
0.0193852
0.0246515
0.0330111
0.0287461
0.0261812
0.0331951
0.0313634
0.038204
0.0286443
0.0281209
0.0208319
0.0262678
0.0304895
0.0391771
0.0254901
0.0209353
0.0223958
0.0255209
0.0347644
0.0327701
0.0331297
0.0411692
0.0399406
0.0361853
0.0311626
0.0353328
0.0212304
0.0301794
0.0322119
0.0268094
0.0256926
0.0307252
0.031056
0.0330007
0.028366
0.026759
0.0179
0.0274294
0.0313641
0.033068
0.0278138
0.0205248
0.0280041
0.0205337
0.0191714
0.0202823
0.0137578
0.0127062
0.0147794
0.0138519
0.0111809
0.0121305
0.0111525
0.0111404
0.0112226
0.0113388
0.0114723
0.0117292
0.0116953
0.0127086
0.0133224
0.012611
0.0115415
0.0122006
0.0125688
0.0160794
0.0181671
0.0204327
0.0220254
0.0228688
0.0240156
0.0227262
0.0248106
0.023672
0.0251933
0.0248913
0.0237953
0.0212365
0.0185744
0.0161687
0.016706
0.0203625
0.0268367
0.0220217
0.0170842
0.0138498
0.0115037
0.0127959
0.0160035
0.00863073
0.00782251
0.0074898
0.00727506
0.00707615
0.00616036
0.0055685
0.00853751
0.0130912
0.0165853
0.0209021
0.0266607
0.0324775
0.0374716
0.0413437
0.0442449
0.0461472
0.0467117
0.0440612
0.0340402
0.0292994
0.0251696
0.0208058
0.0168844
0.0169305
0.024669
0.0322905
0.039756
0.0463087
0.05119
0.0492522
0.0329483
0.0300901
0.0467391
0.0785269
0.0745507
0.0977996
0.111164
0.0630751
0.0464627
0.045207
0.0620371
0.0646664
0.0567443
0.0468782
0.0367173
0.0265653
0.0311443
0.0356342
0.0399145
0.0444626
0.0576585
0.060343
0.058958
0.0560424
0.0524036
0.0478335
0.0413888
0.0334727
0.0254119
0.0191462
0.0143052
0.00911326
0.00701087
0.00795043
0.00725898
0.0101232
0.00910299
0.0083368
0.00797039
0.00814329
0.0079285
0.00802105
0.00704224
0.00633985
0.0102553
0.00943978
0.00932832
0.00985722
0.0131665
0.0100807
0.00744193
0.00695823
0.00687992
0.00830332
0.0196581
0.0258358
0.0306656
0.0350484
0.0377636
0.0365285
0.0334078
0.028146
0.0225605
0.0203434
0.0172903
0.0146677
0.013363
0.014598
0.0120497
0.00607818
0.00520745
0.00572549
0.00558986
0.00511927
0.0061583
0.00685215
0.00746642
0.00788794
0.00819458
0.00824852
0.00817971
0.00808253
0.00803187
0.0080057
0.0079716
0.00790175
0.0078022
0.00765705
0.00751869
0.00745351
0.00804436
0.0106549
0.014578
0.0143552
0.0132443
0.0121379
0.0112801
0.00956308
0.0153981
0.0130741
0.0109596
0.0101328
0.00998263
0.0102728
0.0112201
0.0128473
0.0137617
0.0157496
0.0157943
0.0156994
0.0159927
0.0157757
0.0132095
0.0149537
0.0176336
0.0184513
0.0190525
0.0188174
0.0172863
0.0192918
0.0204317
0.0198879
0.0192837
0.0164518
0.0191342
0.0230897
0.0235293
0.0237996
0.0211508
0.0183332
0.0214714
0.0226265
0.0222218
0.0230966
0.0212742
0.0220129
0.027821
0.0141942
0.0128329
0.00770523
0.00871894
0.00894021
0.00860627
0.008261
0.00854571
0.00872938
0.00848044
0.00918619
0.00952218
0.0088823
0.0115237
0.0105547
0.0100845
0.00948856
0.0100579
0.0107559
0.011098
0.0122814
0.0196456
0.0201066
0.018242
0.020698
0.0213424
0.0179858
0.0203976
0.0212969
0.0215475
0.0218927
0.0233957
0.0219839
0.0243321
0.0235454
0.0221875
0.0214295
0.0380492
0.0251191
0.0165311
0.0151736
0.0147692
0.0148091
0.0166562
0.0124793
0.0139966
0.00983118
0.00851158
0.00813121
0.00784062
0.00868808
0.0119997
0.0194528
0.025565
0.0276403
0.0264964
0.0234293
0.0183019
0.0140202
0.0135722
0.0121988
0.0112986
0.0110942
0.00747853
0.00518639
0.00649884
0.00660323
0.00718572
0.00759436
0.00792456
0.00817001
0.00829968
0.00835941
0.00842663
0.0085322
0.00864886
0.00874913
0.00882709
0.00888226
0.00894154
0.00905757
0.0093587
0.0105503
0.0151968
0.0196016
0.0185163
0.0170601
0.0157536
0.0165116
0.0172672
0.0180191
0.0222037
0.019078
0.0219746
0.0206023
0.0196091
0.0182077
0.0189354
0.0207177
0.0164749
0.0163911
0.0111557
0.00973567
0.00936212
0.00915161
0.00898836
0.00882951
0.008684
0.00855414
0.00843182
0.00832658
0.00824602
0.0081736
0.00803978
0.00780151
0.00741472
0.00698661
0.00621379
0.00688091
0.00736518
0.00829861
0.00953169
0.0102209
0.00966429
0.00881603
0.00836071
0.00840871
0.00856934
0.00875724
0.0089744
0.00927461
0.00974231
0.0107086
0.0113891
0.0160402
0.0167657
0.0200927
0.0199134
0.017828
0.0171807
0.0188015
0.0173533
0.0126598
0.0173487
0.0168441
0.0210451
0.0155896
0.0146878
0.0150685
0.0155376
0.0182376
0.0171397
0.0156756
0.0156628
0.0126044
0.0141521
0.0161543
0.017661
0.0278813
0.0272995
0.034398
0.0343654
0.0593335
0.0564151
0.0496987
0.0538431
0.0237224
0.0463741
0.0542529
0.0494248
0.0428649
0.0272781
0.0436347
0.0664963
0.0962375
0.0693336
0.0566729
0.105411
0.0765916
0.0373147
0.0265613
0.0149992
0.0150976
0.0250446
0.0290896
0.0240929
0.0232325
0.0334176
0.034788
0.0279924
0.0286873
0.0310696
0.0300091
0.0324563
0.0280714
0.0274041
0.0155052
0.0127194
0.0137388
0.015455
0.0164543
0.0159441
0.0167832
0.0174562
0.016031
0.0150161
0.0144688
0.0124156
0.0131658
0.0161375
0.020339
0.0238342
0.0172071
0.0138228
0.0125267
0.012334
0.0121098
0.0119932
0.0116758
0.0114924
0.0110268
0.0112364
0.00977821
0.00978639
0.0103188
0.0104794
0.0106808
0.0108362
0.0109574
0.0110692
0.0119386
0.0186911
0.0258674
0.0207004
0.0164105
0.0139429
0.0151251
0.0170359
0.0209175
0.0263155
0.017769
0.0175879
0.0114622
0.0106805
0.0104716
0.010301
0.0101503
0.0100548
0.0101179
0.0101265
0.0118645
0.0115376
0.0135428
0.0146231
0.0120813
0.0116498
0.0111775
0.0108898
0.0107307
0.0106447
0.0107323
0.0115906
0.0114233
0.0104976
0.0104059
0.0105288
0.0107456
0.011073
0.0115258
0.0120374
0.0129598
0.0127317
0.0111875
0.0111771
0.0105138
0.0102005
0.00996816
0.00994431
0.00999582
0.0101375
0.0103614
0.0112709
0.0170475
0.017229
0.0265244
0.0265105
0.0210785
0.0176236
0.0154809
0.0142351
0.0135082
0.0350287
0.0307722
0.0487432
0.0388637
0.031112
0.0504817
0.0718016
0.0557762
0.09084
0.0981623
0.0723774
0.0655872
0.0208439
0.0158865
0.0153975
0.0168783
0.0185598
0.0211793
0.0217695
0.0265603
0.0286533
0.0171025
0.0164266
0.0155009
0.0247849
0.0229709
0.0196076
0.0177343
0.0163571
0.0188951
0.0206778
0.0148985
0.0149431
0.0096233
0.0106186
0.0103701
0.0100278
0.0099055
0.00982769
0.00985933
0.00995795
0.0102431
0.0107458
0.0111365
0.0113021
0.0116457
0.011432
0.011153
0.0108228
0.0106254
0.010429
0.0102686
0.0101444
0.0101746
0.0104882
0.0106326
0.00932969
0.00967608
0.0097879
0.00980481
0.00984279
0.00981503
0.00968693
0.0094905
0.0093035
0.0091038
0.00914731
0.00990782
0.0100322
0.0100766
0.00991165
0.00979195
0.00978185
0.00972488
0.00971872
0.00971708
0.00959979
0.00928687
0.00856696
0.00842061
0.00902079
0.00936313
0.00953696
0.00961436
0.00958842
0.00952448
0.00929618
0.00912868
0.00893402
0.0086104
0.00818353
0.00682832
0.00709846
0.00744787
0.00793459
0.00843718
0.00887736
0.00917091
0.00932195
0.0094051
0.00931778
0.0090238
0.00849646
0.00844291
0.00883523
0.00901934
0.00898495
0.00873151
0.0083325
0.00777819
0.00708616
0.00641416
0.00589948
0.00565587
0.00526132
0.00657174
0.00714196
0.00767099
0.00815994
0.00862914
0.00913832
0.0093508
0.00942338
0.00940634
0.00925508
0.00892738
0.00840257
0.00841095
0.00888536
0.00919361
0.00931639
0.00930111
0.00910129
0.00868719
0.00779424
0.00700199
0.00636376
0.00579338
0.0052177
0.00511703
0.00537089
0.00514453
0.00535328
0.00593381
0.00673497
0.00750861
0.00810534
0.00852264
0.0086984
0.00864185
0.00838712
0.00829102
0.00841892
0.00836854
0.0080715
0.00751203
0.00677275
0.00597363
0.00534087
0.00515622
0.00548261
0.00581969
0.00550864
0.00438702
0.00492851
0.00547177
0.0060517
0.00695045
0.00811052
0.0087071
0.00902663
0.00919056
0.00913078
0.00884505
0.00840667
0.00839076
0.00881281
0.00908965
0.00912992
0.00898787
0.00868358
0.00817826
0.00676706
0.00533889
0.00472705
0.00438857
0.00394686
0.00558352
0.00594861
0.00552157
0.00524651
0.00568465
0.00623255
0.00686534
0.0073819
0.0078059
0.00810501
0.00820142
0.00816475
0.00803455
0.00804338
0.0079932
0.00779133
0.00754265
0.00732594
0.00688131
0.00642751
0.00590369
0.00646122
0.00676126
0.00633137
0.00465248
0.00493678
0.00535098
0.00559928
0.00700207
0.0084236
0.00885215
0.009024
0.00917934
0.0091235
0.00881331
0.00837327
0.00836141
0.00888082
0.00926865
0.00938281
0.0094497
0.00949764
0.00955378
0.00840403
0.00659716
0.00619871
0.00525447
0.00481018
0.00665075
0.00708275
0.00687281
0.00660101
0.00753148
0.00792464
0.00807662
0.00809897
0.008116
0.00808896
0.00799456
0.00792027
0.00780743
0.00825268
0.00889197
0.00879477
0.00869442
0.00852897
0.00816251
0.00771131
0.00720842
0.00788867
0.00846333
0.00818472
0.00595034
0.00631795
0.00715853
0.00727543
0.00870977
0.00989054
0.0102464
0.0102899
0.0102284
0.0102378
0.0092498
0.00833034
0.00818683
0.00953524
0.015467
0.0153181
0.0153689
0.0153158
0.0147493
0.0145877
0.0140274
0.0137801
0.0130861
0.0126499
0.0119632
0.0140056
0.0177281
0.019802
0.0221776
0.0246759
0.0234112
0.018943
0.0167334
0.010213
0.00805542
0.00695111
0.00601006
0.00530377
0.00509726
0.00753168
0.00938087
0.0115553
0.0135372
0.0138533
0.0162939
0.0202566
0.0308458
0.0490414
0.0414455
0.039163
0.0400735
0.100814
2.55796
2.77887
2.516
2.92267
3.34875
0.405683
0.155775
0.291088
0.313872
0.354429
0.333673
0.300609
0.273264
0.280867
0.269335
0.278384
0.258853
0.264327
0.23024
0.233028
0.230627
0.624515
1.00177
1.21722
1.70563
1.71974
1.94029
1.89899
1.92194
1.77792
1.89444
1.64671
1.36561
1.28912
1.21607
1.30511
1.41822
1.23151
1.11696
1.00376
0.914026
0.782065
0.992432
0.753333
0.711995
0.710485
0.742031
0.988001
0.898695
1.03603
0.975614
1.03393
0.639039
0.720623
0.532961
0.445215
0.368837
0.449211
0.606142
0.802154
0.983454
0.743167
0.995699
0.908077
0.883407
0.842112
0.768541
0.730158
0.71835
0.73954
0.752069
0.767111
0.794218
0.814826
0.832273
0.981971
1.04451
1.03346
0.847288
0.759399
0.525889
0.563153
0.598002
0.602119
0.562539
0.543299
0.490364
0.47773
0.432271
0.414094
0.375366
0.356973
0.324975
0.449473
0.77013
0.799739
0.86841
0.922191
0.970669
0.99242
1.00759
0.989939
0.95605
0.88866
0.860552
0.799199
0.904205
1.0869
1.08791
1.00173
0.850691
0.806601
3.73679
4.54065
3.00896
6.47296
9.79831
16.4061
7.55918
2.07187
3.45682
2.37548
2.10965
2.05667
2.1704
3.41903
2.50078
3.28186
2.71217
2.90401
2.24273
2.63007
2.5502
1.9687
1.6664
1.41567
1.33372
1.08378
1.09914
0.890038
0.830593
0.73646
0.597332
0.712307
0.684257
1.56191
2.22972
2.7885
4.38395
4.81972
5.27051
8.33986
6.78689
8.53154
5.08655
5.12447
3.79033
3.56687
3.6055
4.95834
7.06478
4.87279
8.49482
4.74384
15.4485
34.5328
9.20672
18.991
10.9643
9.92328
9.57113
9.86647
14.0183
9.53784
15.5468
12.9836
17.3035
16.6613
18.0614
14.2806
10.5945
11.7133
12.6508
16.231
11.6578
13.7291
10.4737
10.2601
9.42183
7.72694
6.69311
5.06591
5.87471
6.91446
7.84755
12.376
15.581
17.9468
21.6409
16.0336
18.3107
11.0318
12.0732
9.33482
8.7545
8.88073
11.6828
20.7757
14.7352
26.849
0.495385
0.225661
0.543008
0.229209
0.487103
0.390419
0.403038
0.404021
0.399592
0.461179
0.219968
0.184983
0.17727
0.175128
0.176629
0.100161
0.124327
0.0803616
0.126835
0.228816
0.501745
0.364386
0.140313
0.0825524
0.054565
0.0429238
0.0634225
0.0612199
0.0979027
0.099256
0.105549
0.131987
0.227536
0.432159
31.6274
7.10894
1.12019
0.522976
0.281421
0.172226
0.146269
0.164997
0.177068
0.179297
0.167861
0.142115
0.101674
0.0671744
0.0449011
0.0375671
0.027415
0.0290125
0.0398164
0.0533559
0.0493152
0.0649489
0.0833254
0.106047
0.130205
0.149451
0.163944
0.167951
0.155969
0.122066
0.0803024
0.0442725
0.0264903
0.0228547
0.0209309
0.0194399
0.0168005
0.0146017
0.0131774
0.0112627
0.00992854
0.00895688
0.00864186
0.008764
0.00956391
0.012096
0.0145553
0.0188436
0.0179611
0.013448
0.0126142
0.00781419
0.0072251
0.00737335
0.00762477
0.00845447
0.0132311
0.0135398
0.0134179
0.0134468
0.0132638
0.0132459
0.0130747
0.0129012
0.0126805
0.012255
0.0119649
0.011445
0.0111663
0.0105164
0.0105441
0.0109305
0.0112385
0.010176
0.0100761
0.00936648
0.0202372
0.0484166
0.0698534
0.0783288
0.0881304
0.0808912
0.0417542
0.0228639
0.0078892
0.00774026
0.00823112
0.0088927
0.00844238
0.00616412
0.00669537
0.00786584
0.0109932
0.0108526
0.0108807
0.0126059
0.0131059
0.0144574
0.0149885
0.0154014
0.0156306
0.0156339
0.0157789
0.0155744
0.0156889
0.0155394
0.0156415
0.0152548
0.0270913
0.025479
0.0261193
0.0260961
0.0271504
0.026618
0.0260791
0.0251091
0.0243601
0.0228772
0.0213022
0.0198126
0.0178197
0.0185889
0.0179825
0.0112471
0.0106956
0.00773358
0.0077185
0.00742755
0.0103315
0.00939371
0.00789679
0.00930425
0.00678879
0.00696112
0.00730284
0.0103922
0.0109131
0.0173376
0.0172607
0.0152617
0.0161781
0.017161
0.0184232
0.019561
0.0209448
0.0219678
0.0230451
0.0248627
0.0253032
0.0237114
0.0234374
0.0224173
0.0243751
0.0233831
0.0216127
0.0230813
0.0246406
0.0270057
0.026654
0.0245724
0.0232746
0.0218629
0.0196024
0.0170224
0.0157186
0.014767
0.0148356
0.0138605
0.016253
0.0147579
0.0101977
0.0104089
0.00780861
0.00629782
0.00606954
0.00924227
0.013104
0.0279934
0.0174467
0.00930822
0.0100317
0.0160671
0.0329643
0.0188981
0.0305391
0.0140222
0.0137308
0.0126549
0.0125246
0.0138036
0.0160586
0.0170441
0.0206134
0.0232288
0.0251827
0.0260627
0.027388
0.0277656
0.0291556
0.0295849
0.032181
0.0324341
0.0325233
0.0320755
0.0298586
0.0268555
0.0247817
0.0305849
0.0354045
0.0384907
0.0408561
0.0432148
0.0419548
0.0383985
0.0375566
0.0356783
0.0345963
0.0332067
0.0301707
0.0264003
0.0216674
0.0211492
0.027092
0.0327593
0.0489723
0.0526599
0.0523998
0.0547036
0.0551753
0.056884
0.0572945
0.0598941
0.0604451
0.061569
0.0618916
0.0669143
0.067775
0.0687662
0.0690749
0.0688627
0.0698664
0.0698946
0.0474692
0.0425719
0.0387108
0.0321665
0.0270065
0.0342053
0.0425511
0.0476234
0.0727362
0.0732518
0.0769275
0.079521
0.0844031
0.0880617
0.0929129
0.0973999
0.101809
0.10528
0.107387
0.107841
0.108376
0.107578
0.106352
0.115232
0.149694
0.166207
0.196666
0.21169
0.224589
0.22901
0.220028
0.223608
0.215274
0.217718
0.211115
0.208895
0.203293
0.196681
0.19287
0.186278
0.182071
0.209937
0.158073
0.121145
0.0809075
0.0651693
0.0571961
0.0524065
0.0565002
0.0434276
0.0367306
0.0561038
0.0511464
0.0404035
0.02658
0.0188132
0.032159
0.0475807
0.0643464
0.0815536
0.0972682
0.107523
0.110061
0.108942
0.104233
0.0964391
0.0813358
0.0613007
0.0421731
0.0347926
0.0321046
0.02814
0.0221977
0.0178433
0.0157272
0.0141426
0.0123776
0.0111288
0.0105739
0.0107272
0.0110367
0.0132335
0.017314
0.0173061
0.0115998
0.011156
0.00767469
0.00776197
0.00801898
0.0133378
0.0134841
0.0209125
0.0233601
0.0220002
0.0226873
0.0224202
0.0227127
0.0223539
0.0211631
0.0203265
0.019357
0.0185187
0.0177811
0.0169661
0.0161781
0.0175024
0.016461
0.013871
0.0139772
0.0145821
0.0152216
0.0161022
0.0173609
0.0184356
0.0211274
0.0212995
0.0208011
0.0208954
0.0194306
0.0187142
0.0199715
0.0194959
0.0132804
0.0131043
0.0191312
0.0187763
0.0186654
0.0224751
0.0208961
0.0214186
0.0225489
0.0224411
0.0195071
0.0181503
0.0166
0.0154264
0.0140575
0.0125529
0.0121863
0.0149481
0.0131902
0.0108135
0.0119923
0.0144004
0.0170111
0.0184672
0.0204491
0.0231609
0.0241237
0.0263616
0.0277805
0.0298733
0.030709
0.0355119
0.0361721
0.0340223
0.0321766
0.0311769
0.0274067
0.0234872
0.0259029
0.0267735
0.0271499
0.0272625
0.0271398
0.0235658
0.0231349
0.0216209
0.0211045
0.0195326
0.0189767
0.0178202
0.0170634
0.0160469
0.0142203
0.0134663
0.0126552
0.0123053
0.0173653
0.0108531
0.0106126
0.0160179
0.00987619
0.0116217
0.0113627
0.0118724
0.0125187
0.0103715
0.0151749
0.0103598
0.011244
0.0114529
0.0143352
0.00990322
0.0199229
0.0625963
0.092099
0.11092
0.20164
0.241947
0.262356
0.283078
0.297417
0.313394
0.331
0.348661
0.361725
0.363181
0.337612
0.319157
0.254397
0.227773
0.251516
0.281614
0.194243
0.16666
0.168946
0.16979
0.172381
0.17364
0.177298
0.175275
0.180362
0.176025
0.183319
0.177325
0.183811
0.176399
0.161069
0.144477
0.111992
0.101255
0.0653045
0.0505792
0.0395781
0.0287385
0.0209499
0.018805
0.0178031
0.0164573
0.016542
0.0126776
0.0131053
0.0083961
0.00616453
0.00986076
0.00970295
0.00721855
0.00983219
0.0112299
0.0117419
0.0122775
0.0125696
0.0192216
0.0192516
0.0246508
0.0245565
0.0291253
0.0347306
0.0359781
0.0396275
0.0569951
0.0575105
0.0572548
0.0570775
0.0566521
0.0494385
0.0491574
0.0480542
0.0474695
0.0445297
0.0439771
0.0418991
0.0407649
0.0378188
0.0369981
0.0358688
0.0362981
0.0401915
0.0548632
0.0969789
0.0291584
0.0276637
0.0203583
0.0145134
0.0212674
0.0159064
0.0154125
0.0136039
0.0187048
0.0134498
0.0137065
0.0165166
0.0170293
0.0164092
0.0213293
0.026626
0.0233793
0.0257547
0.115273
0.0730512
0.0239112
0.04734
0.0711476
0.156803
0.203156
0.138891
0.1587
0.182836
0.16594
0.139289
0.108545
0.0810102
0.0571865
0.0438123
0.0114194
0.0133563
0.0184669
0.0402894
0.0599154
0.101177
0.0830222
0.108553
0.148371
0.172765
0.208693
0.200115
0.17207
0.148087
0.145065
0.16048
0.161981
0.104367
0.101371
0.077385
0.173531
0.218716
0.183933
0.230792
0.243148
0.142008
0.031612
0.0183752
0.0151237
0.0139196
0.0124435
0.0193978
0.011463
0.0116521
0.0123643
0.0132806
0.0169561
0.0293605
0.013447
0.0149261
0.018342
0.0158942
0.0149223
0.0146416
0.0145525
0.0151746
0.0165361
0.0215676
0.021651
0.0213049
0.0159851
0.0172758
0.0156928
0.0199983
0.021205
0.0333201
0.0152541
0.0161961
0.0214889
0.478222
0.0246223
0.0178185
0.0232017
0.0218745
0.0301069
0.0438307
0.45728
0.0439829
0.0350765
0.0585888
0.06088
0.0655534
0.0692232
0.0727377
0.0752534
0.0792017
0.0818482
0.0830852
0.0843266
0.0999784
0.099953
0.0988798
0.103479
0.0975955
0.0576537
0.0578626
0.0973917
0.105117
0.0594022
0.0410054
0.038489
0.0311912
0.032315
0.0418468
0.0439266
0.0616249
0.0614528
0.102495
0.0934671
0.0948696
0.0966259
0.0916295
0.0921052
0.0941675
0.0941833
0.0754326
0.0731128
0.071347
0.0683066
0.0647655
0.0618635
0.0589421
0.0558392
0.0531739
0.0531978
0.0578289
0.0583132
0.0659022
0.072555
0.219252
0.148829
0.106426
0.0791665
0.0646829
0.0587565
0.058438
0.0616663
0.0649141
0.0665619
0.0673683
0.070743
0.092475
0.0948291
0.0976868
0.0951288
0.0989415
0.0969896
0.0945243
0.104423
0.112235
0.0655964
0.0676711
0.0477513
0.0445427
0.0325042
0.0330615
0.0236041
0.0195774
0.0195656
0.0195453
0.0197674
0.0226476
0.0316388
0.0317424
0.0463665
0.0462757
0.0517059
0.075307
0.0723697
0.129067
0.118305
0.108634
0.10132
0.101698
0.103833
0.106438
0.101438
0.0977994
0.092259
0.0724807
0.0684645
0.0663263
0.0650666
0.0637295
0.0670303
0.0899774
0.145344
0.222383
0.327064
0.427446
0.438723
0.397576
0.247439
0.287851
0.142909
0.163586
0.185331
0.160717
0.169363
0.318091
0.264383
0.373957
0.479155
0.532813
0.598995
0.635646
0.623438
0.494365
0.320814
0.328148
0.43727
0.765264
0.858544
0.742003
0.76006
0.656826
0.539234
0.520949
0.496418
0.560216
0.61119
0.576799
0.593867
0.53819
0.514088
0.444248
0.495659
0.362141
0.326201
0.306649
0.297832
0.356893
0.288828
0.32533
0.267418
0.27369
0.222452
0.227986
0.190326
0.145718
0.138158
0.128089
0.143417
0.162605
0.148978
0.153464
0.134006
0.114589
0.0912437
0.0984794
0.073559
0.0695321
0.0704913
0.0800954
0.125221
0.367081
0.172911
0.163408
0.167688
0.17791
0.319419
0.282828
0.723718
0.507176
0.709163
0.474023
0.562518
0.470688
0.363081
0.378592
0.418372
0.598633
0.821962
6.65159
0.284713
4.26246
3.16459
3.32342
3.46927
4.44725
7.80718
7.11022
9.38979
6.80532
9.08021
4.97599
4.97531
4.32582
4.4711
4.43846
4.26098
5.18804
6.62062
0.2383
0.0909424
0.0854209
0.0856081
0.0873841
0.197748
0.0525591
0.201975
0.0539531
0.213413
0.0495059
0.246606
0.19686
0.0382331
0.0192574
0.0200891
0.016807
0.0203748
0.0169228
0.025047
0.0235419
0.023698
0.0265787
0.076154
0.29157
13.7615
1.64672
0.685729
0.785451
1.17684
0.799224
1.19793
1.66502
1.11889
0.557481
0.364915
0.430584
0.52062
0.497146
0.634988
0.914878
0.895187
0.703586
0.707684
0.623363
0.880927
0.889632
1.05556
1.23362
1.12963
0.883764
0.695736
0.587918
1.01542
1.02177
0.955183
0.40325
0.113271
0.0465995
0.0487049
0.0356023
0.0375342
0.034753
0.054401
0.158781
0.219258
0.131537
0.4272
0.412585
0.562865
0.401707
0.411797
0.324715
0.349085
0.532025
0.581273
0.640818
0.672217
0.722508
0.666241
1.28064
2.19218
2.47861
12.8171
17.3903
3.18847
3.08783
13.932
0.314684
0.083816
0.023307
0.017429
0.0162164
0.0161297
0.0150007
0.0155382
0.0159996
0.0169635
0.0188285
0.0231948
0.0458291
0.201447
0.203411
0.064336
0.0324266
0.0229694
0.0196159
0.0170463
0.0163869
0.0155316
0.0154591
0.0150079
0.0156572
0.0174626
0.0237752
0.0773905
0.270926
11.3228
2.43195
2.25056
8.37451
5.78849
0.206646
0.043779
0.0200924
0.0169263
0.0158837
0.0167537
0.0162656
0.0182109
0.0184021
0.0230157
0.0250208
0.0317637
0.0570704
0.110168
0.31547
9.58026
8.65179
8.37428
7.81045
0.310103
0.115182
0.0543881
0.0382294
0.0346231
0.0338172
0.0226486
0.0236727
0.0189819
0.02164
0.0182949
0.0226811
0.0482954
0.211807
5.3464
1.5673
1.69784
1.20779
0.611196
0.653558
0.66722
0.6868
1.76997
4.04784
4.97988
3.42024
3.35537
4.69965
3.16531
2.47725
1.82528
1.74387
2.54143
1.95992
1.82243
1.35358
1.46316
1.06554
1.46487
0.809462
0.975078
1.07083
1.52862
1.3953
1.40831
0.906762
1.04843
1.47266
1.72262
1.6474
0.842313
1.22535
1.01197
0.65343
0.605215
0.631442
0.601355
0.576134
0.573291
0.577598
0.556715
0.573975
0.554371
0.586383
0.546228
0.531378
0.505723
0.52526
0.542759
0.575132
0.358973
0.421321
0.425679
0.440002
0.452487
0.373522
0.449521
0.440227
0.65705
0.99241
0.830732
1.14628
0.67649
1.00088
2.0042
5.20523
2.33662
0.816606
1.34471
1.58113
1.13703
0.626594
2.5498
3.55722
1.2285
1.78243
10.3822
8.43002
16.5187
10.9575
18.609
6.02242
4.62753
17.7955
6.66315
6.89523
4.50415
4.5129
2.95282
1.58046
1.62338
1.73508
1.22257
1.29536
1.20597
1.1309
1.47016
1.43456
1.8793
2.0287
2.56988
1.80702
1.76976
2.58902
1.05983
1.39503
1.8315
1.8228
1.35507
2.33333
3.14753
2.95624
2.12971
2.32919
3.49583
4.80708
4.56236
3.15749
3.95274
10.1156
13.5007
13.6738
4.21468
19.3237
18.2956
2.06907
0.562434
0.32103
0.0885709
0.0443597
0.0366573
0.0387248
0.143588
0.0458182
0.0570199
0.0454612
0.0725479
0.0696022
0.0869417
0.216881
0.125996
0.214675
0.154577
0.188138
0.120064
0.19207
0.225172
0.234882
0.186827
0.114667
0.211431
0.304674
0.105036
0.351957
0.387044
0.257916
0.329883
0.393144
0.194675
0.991376
0.1846
0.126285
0.145504
0.390364
1.25255
0.216784
0.459014
4.46498
14.7067
3.6688
0.933197
0.676661
0.0554431
0.030107
0.0316528
0.0278609
0.0194279
0.0834821
0.0981136
0.403119
0.207362
0.277273
0.660418
2.92779
2.39672
1.1221
5.47898
10.2721
15.15
9.13036
2.22628