/*--------------------------------*- C++ -*----------------------------------*\
| =========                 |                                                 |
| \\      /  F ield         | OpenFOAM: The Open Source CFD Toolbox           |
|  \\    /   O peration     | Version:  v2012                                 |
|   \\  /    A nd           | Website:  www.openfoam.com                      |
|    \\/     M anipulation  |                                                 |
\*---------------------------------------------------------------------------*/
FoamFile
{
    version     2.0;
    format      ascii;
    class       volScalarField;
    location    "230";
    object      nut;
}
// * * * * * * * * * * * * * * * * * * * * * * * * * * * * * * * * * * * * * //

dimensions      [0 2 -1 0 0 0 0];


internalField   nonuniform List<scalar> 
18258
(
0.00417872
0.0018223
0.0014935
0.00129382
0.00085717
0.00140204
0.00194732
0.00231798
0.00243196
0.00241141
0.00249697
0.00421415
0.00591446
0.00730966
0.00767897
0.00766741
0.00696116
0.00664839
0.00722787
0.00887942
0.00745493
0.00477833
0.00571748
0.00661706
0.00721729
0.00639737
0.00517383
0.00478849
0.00433564
0.00361499
0.00303499
0.0020855
0.00151511
0.00140373
0.00127379
0.00145286
0.00158313
0.00168914
0.00172671
0.00175395
0.00174203
0.00173204
0.00168506
0.00165491
0.00160374
0.00132293
0.00158274
0.00166397
0.0018189
0.00250255
0.00268357
0.00225521
0.00249407
0.00222431
0.00146583
0.0016786
0.00182231
0.00186137
0.00183718
0.0017607
0.00173482
0.00171292
0.00168523
0.00165241
0.00163239
0.00164871
0.00166578
0.00164767
0.00156671
0.00150111
0.00139497
0.00128857
0.0012097
0.00114859
0.00110251
0.00105137
0.000993911
0.00087304
0.000809125
0.00107132
0.0013449
0.00143695
0.00203665
0.00248313
0.00250005
0.00187176
0.00133403
0.00138455
0.0015393
0.00155486
0.00131778
0.00156651
0.00177432
0.0018389
0.00191613
0.00214167
0.00243802
0.00237652
0.00211664
0.00195076
0.00190779
0.00218964
0.00208257
0.00270061
0.00271921
0.00236779
0.00219008
0.00246393
0.00317749
0.00341792
0.00265672
0.00249556
0.0024466
0.00241534
0.00218475
0.0022613
0.00205366
0.00185043
0.00201581
0.00243579
0.00231057
0.00252376
0.00261514
0.00245327
0.00284237
0.00327703
0.00322946
0.00258426
0.00210732
0.00196434
0.00197915
0.00121045
0.00130711
0.00140832
0.00144281
0.00146696
0.0014875
0.001586
0.00158242
0.00155915
0.0015557
0.00158278
0.000872411
0.000945221
0.00096873
0.000975508
0.000926636
0.00091709
0.000899991
0.000886081
0.000835613
0.000799576
0.00095671
0.00107425
0.00117004
0.00128203
0.00144908
0.0016535
0.00186834
0.00208545
0.00222911
0.00227015
0.00231154
0.00222813
0.00214396
0.00222061
0.00223363
0.00221934
0.00218966
0.00215215
0.00210148
0.00200855
0.00211676
0.00211112
0.00198334
0.00169962
0.00173784
0.00173499
0.00178015
0.00177075
0.00178832
0.00176252
0.00173208
0.00164821
0.00153084
0.00127375
0.00125202
0.00126623
0.00162416
0.00197042
0.00304208
0.00370755
0.00430013
0.00459785
0.00491553
0.00398183
0.00443418
0.00342125
0.00307043
0.00390098
0.0051012
0.00291106
0.00159187
0.00301955
0.00268167
0.00194901
0.00173537
0.00178909
0.00178588
0.00204047
0.00235412
0.00261753
0.00274548
0.00285737
0.00294705
0.00304543
0.00316967
0.00320373
0.00309463
0.0026186
0.00315732
0.00256696
0.00300004
0.00271538
0.00184032
0.00188799
0.00202015
0.00185582
0.00180753
0.00172649
0.00156116
0.0019439
0.0025087
0.00291044
0.00332797
0.00443834
0.00410617
0.00393841
0.00304881
0.00294853
0.00152987
0.00218177
0.00226345
0.00255122
0.00169509
0.00154838
0.00147108
0.00193946
0.00224771
0.00265286
0.0029444
0.00349704
0.00271523
0.00310238
0.00280935
0.00196177
0.00188338
0.0026936
0.00290001
0.00238405
0.00212662
0.00267006
0.00252903
0.00179554
0.00142479
0.0021913
0.0022654
0.00163118
0.00407032
0.00436147
0.00416391
0.0050681
0.00634058
0.00722159
0.00673923
0.0059732
0.00665581
0.00528461
0.00513309
0.00548311
0.00460039
0.00320448
0.00328385
0.00339391
0.00348407
0.00373957
0.00397207
0.00425664
0.00452798
0.00411685
0.00341968
0.00258879
0.00178128
0.00175713
0.00174825
0.00156987
0.0023266
0.00352038
0.00349703
0.00198771
0.00115871
0.00131041
0.00147963
0.00146514
0.00106338
0.000800222
0.00137836
0.00157588
0.00160125
0.00156143
0.00147417
0.00154043
0.00247382
0.00381111
0.00418754
0.00433711
0.00447865
0.00457862
0.00463423
0.00465185
0.00466168
0.00467377
0.00468446
0.00470074
0.0046864
0.00458685
0.00403476
0.00253699
0.00148298
0.00137751
0.0015203
0.00163389
0.00173304
0.00147472
0.000901748
0.00144013
0.00184415
0.00211959
0.0021377
0.00199501
0.00193526
0.00305167
0.00405761
0.0047829
0.00492991
0.0049955
0.00494091
0.00493412
0.00482686
0.00479391
0.00420436
0.00300637
0.00328654
0.00352875
0.00356894
0.0036512
0.0037749
0.00368756
0.00348473
0.00508985
0.00587515
0.00595081
0.00607747
0.00600573
0.00590253
0.00563505
0.00532917
0.00448655
0.0033646
0.00212304
0.00216741
0.00230738
0.00228525
0.00198934
0.00209565
0.00227448
0.00229727
0.00237242
0.00266058
0.00302174
0.00288236
0.00248044
0.00210672
0.00196156
0.0019201
0.00184193
0.00137938
0.00140029
0.00136146
0.00138405
0.00185925
0.00221294
0.00255214
0.00361996
0.00322897
0.00262583
0.00416468
0.00426812
0.00458664
0.00506741
0.00519287
0.00575437
0.00400224
0.00360639
0.00370484
0.00302662
0.00280149
0.00283138
0.00284206
0.00264883
0.00289934
0.00287381
0.00276987
0.00305803
0.00336964
0.00444321
0.00538372
0.00568018
0.00585144
0.00592171
0.00590012
0.00578629
0.00582348
0.00511603
0.00511338
0.0048967
0.00475612
0.00470641
0.00447373
0.00511833
0.00531342
0.00537831
0.00551229
0.00572117
0.00556508
0.00539256
0.00526117
0.00516596
0.00506628
0.00511949
0.00521459
0.00531598
0.00545827
0.0056482
0.00567914
0.00548233
0.0053335
0.00523161
0.00513583
0.00513939
0.0052248
0.00532429
0.00546538
0.0056455
0.00554539
0.00540528
0.00528047
0.00517807
0.00508785
0.00490971
0.00502829
0.00515866
0.00526608
0.00533574
0.0046103
0.00492785
0.00484296
0.00438456
0.00410356
0.00311628
0.00337259
0.00355658
0.00387381
0.00430007
0.00438388
0.00367898
0.0031528
0.00307228
0.00304749
0.00311939
0.00314521
0.00316046
0.00357111
0.00538213
0.00541937
0.00543539
0.00543825
0.00464986
0.00451743
0.00420742
0.00769751
0.00716735
0.00620935
0.00511768
0.00274128
0.00234972
0.00278318
0.00338472
0.00378455
0.00417658
0.00277271
0.00171777
0.00200225
0.00207619
0.00202556
0.00187225
0.00155954
0.00143963
0.00130661
0.00140612
0.00249016
0.003973
0.00447466
0.00452171
0.00447651
0.00438915
0.00428315
0.00413575
0.00407777
0.00513725
0.00694764
0.00785524
0.00782502
0.00672326
0.00547983
0.00308957
0.00159062
0.00116959
0.00126044
0.00138528
0.001627
0.00144886
0.00122135
0.0013377
0.00126742
0.00256691
0.00443061
0.00564673
0.00669847
0.00658712
0.00572056
0.00468054
0.0044382
0.00454254
0.00461229
0.00467225
0.00473386
0.00477634
0.00475032
0.00432439
0.0026723
0.00159521
0.00141733
0.00152408
0.00178623
0.00189802
0.00191727
0.00189045
0.00163862
0.00270961
0.00430267
0.00273631
0.00149318
0.00161353
0.00160189
0.00282571
0.00282113
0.00275988
0.00429361
0.00453958
0.00452852
0.0042553
0.00406228
0.00240517
0.00272994
0.00273917
0.00275367
0.00279886
0.00141396
0.00154138
0.00158954
0.00171149
0.00149749
0.00189976
0.000491584
0.000681713
0.000791806
0.000860886
0.000927425
0.000909686
0.00174044
0.00176618
0.00168593
0.00164219
0.00208362
0.00223561
0.00228474
0.00210414
0.00194149
0.00206694
0.00207162
0.0019525
0.00184936
0.00191735
0.00191855
0.00183832
0.00156356
0.0014651
0.0016086
0.00159144
0.00157886
0.00283515
0.00282994
0.00267805
0.00439974
0.00432942
0.00484854
0.00481685
0.00481097
0.00479156
0.00484251
0.00486935
0.00488987
0.00491385
0.00490411
0.00485724
0.00677073
0.00477633
0.00416825
0.00241082
0.00232238
0.00164019
0.00143739
0.00169257
0.00181028
0.00196261
0.00191827
0.00202217
0.00201983
0.00214317
0.00198919
0.00176625
0.00270532
0.00289008
0.00282263
0.00287843
0.00281061
0.00279405
0.00277346
0.00273409
0.00268666
0.00159971
0.00156925
0.00183762
0.001929
0.00207277
0.00209151
0.00213694
0.00202664
0.00178238
0.00172527
0.00198697
0.00196012
0.00199827
0.00188397
0.00187613
0.00167137
0.00171376
0.00345809
0.00639182
0.00328508
0.0036496
0.0033057
0.00376041
0.00329321
0.00283961
0.00290624
0.0025596
0.00267003
0.00280082
0.00285154
0.00299707
0.0035328
0.00340135
0.0029857
0.00289898
0.00284181
0.00267936
0.00241162
0.00252645
0.00254931
0.00260407
0.0028941
0.00332055
0.00372247
0.00452458
0.00439072
0.00384587
0.00351624
0.00368809
0.00375123
0.00472324
0.00441299
0.0043866
0.00462694
0.00458086
0.00434809
0.00412008
0.00397691
0.0034135
0.00346949
0.00397174
0.0038433
0.00396079
0.00389137
0.00404522
0.00411848
0.0039531
0.00367381
0.00386151
0.00385328
0.00427955
0.0041623
0.00386081
0.0035327
0.00377542
0.00372938
0.00430866
0.00405605
0.00379344
0.00349145
0.00334417
0.00379578
0.00372632
0.00422601
0.00434823
0.00435038
0.00379216
0.00370388
0.00440588
0.00423915
0.00409461
0.00426525
0.00353192
0.0036322
0.00447546
0.00456925
0.00433509
0.00361878
0.00367364
0.00314935
0.00370471
0.00461197
0.00435612
0.0035703
0.00296236
0.00414505
0.00436082
0.00461434
0.00436026
0.00474975
0.00511702
0.00416956
0.0045366
0.00593049
0.00452171
0.00524751
0.00536415
0.00539622
0.00539957
0.00542115
0.00544902
0.00574177
0.00558731
0.00354983
0.00424644
0.00412281
0.00344726
0.00293093
0.00322842
0.00347702
0.0035271
0.00361645
0.00375428
0.00369034
0.0035707
0.00522356
0.00595648
0.00609091
0.00621211
0.00610825
0.00595314
0.00560146
0.00517199
0.00429093
0.00320072
0.00199725
0.002037
0.00217227
0.002153
0.00186963
0.00141109
0.000926453
0.00137335
0.00141642
0.00133131
0.00121101
0.00106524
0.00109452
0.0020121
0.00407376
0.00548694
0.00605631
0.00652663
0.0070161
0.00745349
0.00778315
0.00802824
0.00820131
0.00831249
0.00833663
0.00818173
0.00748246
0.00715912
0.00675545
0.00642327
0.00595273
0.00556395
0.00628868
0.00690002
0.00727312
0.00769391
0.00788591
0.00780033
0.00677035
0.00658481
0.00759345
0.00934815
0.00795329
0.00998891
0.0117284
0.00914389
0.00820794
0.00818767
0.00915053
0.00932759
0.00900325
0.0084963
0.00791509
0.00717715
0.0075543
0.00789219
0.00821335
0.00850986
0.00927849
0.00941592
0.00934333
0.00918649
0.00898706
0.00872673
0.00833088
0.00777672
0.00710233
0.00642187
0.00564419
0.00407327
0.00186093
0.0021682
0.00211513
0.00234836
0.00225276
0.00100955
0.00110997
0.00112159
0.0011261
0.00106275
0.00120503
0.00174844
0.00281825
0.00203545
0.00166935
0.00116583
0.0013806
0.00230503
0.00392022
0.00441453
0.00448935
0.00478225
0.00634169
0.0069145
0.00729482
0.00760929
0.00778849
0.00769411
0.00746159
0.00704567
0.00654405
0.00633095
0.00598836
0.00566599
0.00548306
0.00529281
0.00497086
0.00392849
0.00373527
0.00388723
0.00384319
0.00368051
0.00393013
0.00407044
0.00406554
0.00410937
0.00414769
0.00426906
0.00441217
0.00453671
0.00460182
0.00462573
0.00463313
0.00464254
0.00465017
0.00466465
0.00464922
0.00454784
0.00399378
0.00249791
0.00145843
0.00134861
0.00147873
0.00156379
0.00160025
0.00142111
0.000914635
0.00142148
0.00183979
0.00188665
0.00206944
0.00213444
0.00226229
0.00252044
0.00291284
0.00300566
0.00266761
0.00252738
0.00247347
0.00241041
0.00206094
0.00256701
0.00283376
0.00282857
0.00280182
0.00302775
0.00372566
0.00357889
0.00315599
0.00312062
0.00308894
0.00279049
0.00274625
0.00300429
0.00303767
0.00315188
0.00369638
0.00443307
0.00411193
0.00374452
0.00358822
0.00331284
0.00291187
0.0026325
0.00325001
0.00266915
0.00138934
0.00117766
0.00118451
0.00118648
0.00114114
0.00134872
0.00141562
0.00143179
0.0013328
0.00148216
0.0016519
0.00160145
0.00182379
0.0017951
0.00160003
0.00158428
0.00172237
0.00182568
0.00187709
0.0019251
0.00314075
0.00323264
0.00250807
0.0036276
0.00418924
0.00418328
0.004433
0.00364198
0.00325423
0.00386245
0.00447883
0.00516134
0.0040727
0.00384186
0.00394259
0.0018063
0.000950198
0.0013411
0.00166442
0.00185128
0.00179396
0.00169456
0.00143259
0.00254264
0.00261132
0.00413907
0.00464162
0.00469552
0.00466112
0.00481483
0.00534664
0.00626356
0.00684514
0.00701419
0.00690795
0.00662382
0.00609745
0.00558295
0.00552892
0.00533158
0.00517496
0.0051221
0.00446373
0.00392239
0.00417698
0.00411474
0.00425164
0.00431458
0.00435963
0.00440565
0.00448355
0.00457772
0.00466302
0.00472113
0.00475976
0.00479254
0.0048264
0.00486069
0.00489791
0.00491803
0.00487165
0.00440347
0.00264294
0.00157637
0.00143835
0.00153477
0.00180381
0.00189917
0.00204128
0.00181328
0.000954991
0.00112323
0.00195173
0.0021628
0.00200066
0.00187242
0.00183924
0.00154068
0.00278924
0.00275248
0.0043168
0.00485352
0.00492026
0.0049057
0.00486689
0.00482347
0.00478348
0.00475096
0.00472555
0.00469865
0.00465977
0.00461301
0.00456736
0.00452057
0.00444187
0.00432634
0.00422089
0.00440468
0.00451449
0.00469457
0.00492042
0.00504735
0.0049597
0.00480807
0.00472366
0.00473945
0.00477932
0.0048223
0.00486143
0.00488101
0.00482887
0.00455315
0.00427487
0.00270914
0.00274444
0.00135175
0.00150176
0.00173284
0.00178957
0.00194423
0.00193588
0.00152263
0.00118569
0.00133704
0.00124958
0.00223215
0.00245393
0.00272057
0.00269343
0.00146383
0.00150105
0.00156001
0.00176044
0.00163661
0.00158149
0.00389559
0.00373298
0.00390938
0.00479893
0.00413494
0.00285716
0.00313419
0.00435913
0.00459617
0.00278083
0.0020839
0.00231417
0.002932
0.00431326
0.00436634
0.00414707
0.00412542
0.00301616
0.00370585
0.00445409
0.0043324
0.00338351
0.00233225
0.00173401
0.000842974
0.00160372
0.0013718
0.00335826
0.00371595
0.00367176
0.0040151
0.00426599
0.00430991
0.00418787
0.0037149
0.00378863
0.00382589
0.00435847
0.00437778
0.00370685
0.00312852
0.00254145
0.00256395
0.00261346
0.00289632
0.00362653
0.00341687
0.00299486
0.00290432
0.00284184
0.0026735
0.00241263
0.00211693
0.00213139
0.00198371
0.00191973
0.0030262
0.00402831
0.00475024
0.00488693
0.00493657
0.00486098
0.00482672
0.00468877
0.00461742
0.00401148
0.00511984
0.00541065
0.00522122
0.00526001
0.00529298
0.00533345
0.0053344
0.00523438
0.00449851
0.00268668
0.00175503
0.0019811
0.00213849
0.00200822
0.00199685
0.00212818
0.00201922
0.00177351
0.00287322
0.00280812
0.00448955
0.00508356
0.00519181
0.0051976
0.00517629
0.00515864
0.00516509
0.00543736
0.00531537
0.00539427
0.00569026
0.00569896
0.00576687
0.00541362
0.0053439
0.00529906
0.00526887
0.00522028
0.00509163
0.00450539
0.00436768
0.00496045
0.00511386
0.00518236
0.0052301
0.005287
0.00536136
0.0055745
0.00573326
0.00579361
0.00554919
0.00545731
0.00532861
0.00514745
0.00510496
0.00509673
0.00509338
0.00506949
0.00493904
0.00434855
0.00279646
0.00286565
0.0017049
0.00171611
0.00197676
0.00207644
0.00203954
0.00188885
0.00184168
0.00316645
0.00360385
0.00383383
0.00412987
0.00394447
0.00392249
0.00448406
0.00433912
0.00387234
0.00402858
0.00361046
0.00344037
0.00332617
0.00334342
0.00176062
0.00189969
0.00198134
0.00194828
0.00186291
0.00166143
0.00152352
0.00277999
0.00275973
0.0027238
0.00162011
0.00158474
0.00186713
0.00181342
0.00165904
0.00141413
0.00155012
0.00239253
0.00267586
0.00414827
0.00429657
0.0045992
0.00491711
0.00503664
0.0050685
0.00508759
0.00510991
0.00515846
0.00521693
0.00523525
0.00523725
0.0052898
0.00528115
0.00528202
0.00525398
0.00522162
0.00518374
0.00514316
0.00507682
0.00494097
0.0046166
0.00429886
0.0048465
0.00489145
0.00498312
0.00507798
0.00511883
0.00512577
0.00510777
0.0050711
0.00502742
0.00497688
0.00497477
0.00510898
0.00514064
0.00516298
0.00514502
0.00512616
0.00511994
0.00509827
0.00506308
0.00497104
0.0048784
0.00483876
0.00475823
0.00488498
0.00494089
0.00494856
0.00499503
0.00507029
0.00509073
0.00508907
0.0050521
0.00502215
0.00498408
0.00491978
0.00483455
0.00455142
0.00461307
0.00469082
0.00479289
0.00489153
0.00497118
0.00501578
0.00501845
0.00497201
0.00494064
0.00494151
0.00489969
0.00492135
0.00494389
0.0049192
0.00491677
0.00492091
0.00486516
0.00476358
0.00462215
0.00447278
0.00435008
0.0042889
0.00418633
0.00450847
0.00463576
0.00474794
0.0048464
0.00493575
0.00502645
0.00505573
0.00504747
0.00499226
0.0049614
0.00496085
0.0049136
0.0049112
0.00495688
0.00495805
0.00498386
0.00503204
0.00501664
0.00494915
0.00477836
0.00461277
0.00446887
0.00433103
0.0041823
0.00415525
0.00422308
0.00416301
0.00421788
0.00436314
0.00454652
0.00470511
0.00480657
0.00483833
0.00486791
0.00491172
0.00490658
0.00488014
0.00486613
0.00480689
0.00475541
0.00469203
0.00455277
0.00437523
0.00421931
0.00417177
0.00425837
0.00434346
0.00426423
0.00395261
0.00410938
0.00425558
0.00440049
0.00460653
0.00484463
0.00495024
0.00498785
0.00496489
0.0049473
0.00494558
0.00490228
0.00488728
0.00492714
0.00492942
0.00494707
0.00497704
0.0049436
0.00485587
0.0045625
0.00421693
0.00405056
0.00395299
0.00381682
0.00428476
0.00437487
0.00426591
0.00419254
0.00430499
0.00443551
0.00457151
0.00466171
0.00469692
0.00474713
0.00481351
0.00484511
0.00479753
0.00474269
0.00467494
0.00464052
0.00464117
0.00461855
0.0045307
0.00442783
0.00430832
0.00445408
0.00454103
0.00445875
0.00402342
0.0040889
0.00418262
0.00423277
0.00455595
0.00484642
0.0049188
0.004926
0.00489884
0.00488163
0.00488388
0.0048591
0.00481203
0.00480222
0.00479511
0.00484731
0.00491533
0.00494812
0.00496286
0.00474443
0.00436414
0.00431226
0.004138
0.00405608
0.0045188
0.00457126
0.00446352
0.00436528
0.00457427
0.00466325
0.00468855
0.00467001
0.0046204
0.0045871
0.00464514
0.00473704
0.00466673
0.00436473
0.00409603
0.00423491
0.00426908
0.00425822
0.00420027
0.00410393
0.00389561
0.00435164
0.0047984
0.00483385
0.00434632
0.00435248
0.00421213
0.00390769
0.00427498
0.00447839
0.0045261
0.00451505
0.00445253
0.00428843
0.00453366
0.00474807
0.00470852
0.0042607
0.00276414
0.00280284
0.00282403
0.00282778
0.00279147
0.00278169
0.00274199
0.00272178
0.00265974
0.00259707
0.00253629
0.00270453
0.00284703
0.00304029
0.00305652
0.00313671
0.0030073
0.00285057
0.00266486
0.00207544
0.00263333
0.00314154
0.00333616
0.0035872
0.00363915
0.00418943
0.0044046
0.00452211
0.00443721
0.00356026
0.00302075
0.00241451
0.00157035
0.000978596
0.00114914
0.00119575
0.0012623
0.00155084
0.00282618
0.00144769
0.00199913
0.00156291
0.00268079
0.00143844
0.000897857
0.000595759
0.000762966
0.000909253
0.000920052
0.000880565
0.000733357
0.000575627
0.000588278
0.000547855
0.000581849
0.000521773
0.000597264
0.000555371
0.000762846
0.00110976
0.00129612
0.00132911
0.00107622
0.00121763
0.00101762
0.00117582
0.00105132
0.00114652
0.00110033
0.00134568
0.00147479
0.00141133
0.00141448
0.00123768
0.000865606
0.00100361
0.000788568
0.000947204
0.00072484
0.000935529
0.000802304
0.00104256
0.00107463
0.0010714
0.00103141
0.000787792
0.000933557
0.000735371
0.000907897
0.000747986
0.000803528
0.000669736
0.000975254
0.000994278
0.000915766
0.000977556
0.00109892
0.00117682
0.00128892
0.00121365
0.00137614
0.00132338
0.0013336
0.00126378
0.00122978
0.00120218
0.00120516
0.00118551
0.0011919
0.00123009
0.00123149
0.00123594
0.00127422
0.0012555
0.00122431
0.00120513
0.001071
0.000865122
0.00150722
0.00155422
0.00157854
0.001579
0.00154506
0.00152637
0.00147061
0.00145622
0.00140876
0.00138265
0.00131975
0.0012701
0.00121203
0.00136291
0.000763345
0.000866864
0.000915039
0.000942849
0.000961343
0.000970141
0.000976476
0.000970718
0.000958207
0.000935207
0.000928131
0.000902798
0.00115414
0.00131276
0.00137359
0.0013905
0.00130334
0.00124176
0.00272881
0.00330568
0.00501096
0.00512129
0.00385194
0.00383764
0.00132338
0.00140068
0.000956631
0.00134433
0.00138641
0.00137224
0.00129598
0.000934562
0.00140266
0.000978434
0.00131519
0.000991907
0.00121886
0.0010226
0.00146606
0.00187378
0.00181274
0.00164379
0.00113756
0.000949122
0.000957568
0.000816964
0.0008956
0.000727128
0.000883893
0.000737991
0.00107227
0.00148997
0.00167775
0.00171364
0.00135245
0.00186754
0.00140482
0.00203658
0.00162118
0.00200305
0.0016095
0.00186029
0.00230224
0.00231302
0.00225811
0.00181991
0.00145643
0.00163572
0.0014483
0.00166937
0.00241444
0.00158192
0.00240784
0.000993796
0.00135514
0.00139728
0.00137845
0.00129989
0.000875437
0.00222681
0.0011786
0.00209014
0.00135341
0.00216144
0.0015801
0.00210739
0.00252124
0.00264384
0.00263856
0.0021542
0.00195028
0.00202971
0.0016226
0.00194935
0.00144372
0.00209019
0.00117569
0.00152024
0.00166963
0.00176069
0.00176549
0.00144743
0.00286378
0.00180022
0.00271769
0.00189284
0.00242633
0.00194558
0.00212543
0.00251095
0.00249476
0.00247306
0.00209681
0.00169817
0.00224265
0.00159765
0.0481209
0.110757
0.0442422
0.111974
0.0506225
0.0718818
0.070801
0.0709172
0.071179
0.0534599
0.116645
0.137778
0.143668
0.14544
0.144389
0.233314
0.19031
0.285846
0.185278
0.109206
0.0474928
0.0653776
0.168376
0.27779
0.416866
0.528909
0.360466
0.373098
0.238077
0.234712
0.221009
0.178859
0.10979
0.0551108
0.00939964
0.0102725
0.0147126
0.01961
0.0153942
0.00938857
0.00185775
0.00191603
0.001958
0.00198346
0.00197474
0.00193041
0.00195828
0.00184576
0.0017308
0.0019306
0.00210534
0.00234453
0.00273693
0.00301671
0.00271634
0.0029753
0.00315252
0.00329655
0.00341536
0.0035929
0.00379317
0.00396971
0.00397935
0.00364659
0.00310821
0.00252876
0.00212597
0.00201439
0.00189177
0.00166841
0.00152647
0.00142961
0.00138274
0.00136339
0.00140111
0.00153118
0.00164388
0.00168335
0.00165013
0.00161973
0.00159324
0.00141862
0.00165858
0.00227507
0.00229308
0.00392866
0.00452684
0.0046209
0.00462728
0.00410255
0.00262094
0.00262676
0.00264027
0.0026908
0.0027014
0.00270854
0.00270574
0.00269635
0.00268066
0.00265147
0.00263691
0.00259441
0.00255858
0.0024692
0.00247327
0.00250642
0.00253186
0.00249072
0.00250164
0.00244793
0.00316367
0.00423508
0.00478976
0.00500666
0.00519321
0.00504119
0.00697988
0.00596301
0.00419794
0.00414404
0.0040906
0.00485549
0.00488826
0.00440163
0.00441678
0.00402901
0.00251138
0.00249749
0.00249879
0.00266672
0.00271731
0.00281073
0.002836
0.00286011
0.00287377
0.00287138
0.0028702
0.00284835
0.0028302
0.00276867
0.00274795
0.00273954
0.00151055
0.00164799
0.00170813
0.0017186
0.00174141
0.00173062
0.00171973
0.00169911
0.00168483
0.00165693
0.001624
0.00157715
0.00148484
0.00135365
0.00149093
0.0025337
0.00253485
0.00414419
0.00466625
0.00470164
0.00524848
0.00498238
0.00471936
0.00506964
0.00456389
0.00452499
0.00409418
0.00254033
0.00257406
0.00152618
0.00151043
0.00176468
0.001714
0.00183015
0.00187857
0.00188404
0.0019095
0.00193502
0.00196578
0.0020142
0.00202923
0.00200011
0.00199542
0.00188155
0.00162678
0.00164672
0.00194016
0.00203279
0.00188637
0.00185116
0.00183657
0.00179297
0.00175901
0.001726
0.00174924
0.00188417
0.00188429
0.00185292
0.00176535
0.00172169
0.00149508
0.0014475
0.00252448
0.00254403
0.00417134
0.0043127
0.00429786
0.00494448
0.00550545
0.00626236
0.00534124
0.00433244
0.00444879
0.0050787
0.00375859
0.00310504
0.00184428
0.0014226
0.00171128
0.00166777
0.00173427
0.00179665
0.00159456
0.00170998
0.00157963
0.00143494
0.0014266
0.00142449
0.00145992
0.00147458
0.00150117
0.00150461
0.00153979
0.00153625
0.00154108
0.00155999
0.00156994
0.00173472
0.0018869
0.00158716
0.00134544
0.00130948
0.00123645
0.00117685
0.00120555
0.00117761
0.00117063
0.00114934
0.00113009
0.00107843
0.00112425
0.00119323
0.00139628
0.00133812
0.00108135
0.000965894
0.000660452
0.000672543
0.000677197
0.000698099
0.000705622
0.000714897
0.000718293
0.00072991
0.000732116
0.000735721
0.000735394
0.000752707
0.000750073
0.000741447
0.000735833
0.000739693
0.000743264
0.000742742
0.00108736
0.0012109
0.00132376
0.0015727
0.00185232
0.00159356
0.00134995
0.00116316
0.000747858
0.000759297
0.000773172
0.00078036
0.000796953
0.000812126
0.000829075
0.00083988
0.000848041
0.000856677
0.000865695
0.000869606
0.000867671
0.000851345
0.000841641
0.000863452
0.00094902
0.000998732
0.00106225
0.00108634
0.00110754
0.00111852
0.00111273
0.00112401
0.00111032
0.00110832
0.00108871
0.00108023
0.0010719
0.0010617
0.0010492
0.00101898
0.00100878
0.00106157
0.00179518
0.00234749
0.00270725
0.00298438
0.00274283
0.00220935
0.00234172
0.00410406
0.0038735
0.00230142
0.00214106
0.00196644
0.00170465
0.00152874
0.00184904
0.00210676
0.00230292
0.00247656
0.00263522
0.00274277
0.00288086
0.00306103
0.00338008
0.0034202
0.00311987
0.0025285
0.00214081
0.00199969
0.00193202
0.00181415
0.00168549
0.00172784
0.00174044
0.00168877
0.00162459
0.00160642
0.00163299
0.00166676
0.00164678
0.00164604
0.00147048
0.00146997
0.00251169
0.0025592
0.00393664
0.0041477
0.00418788
0.00269233
0.00265556
0.00155117
0.00144068
0.00157166
0.00163156
0.00163498
0.00164166
0.00163341
0.00160484
0.00158401
0.00155959
0.00153993
0.00152258
0.00149263
0.00143553
0.00132615
0.00144541
0.00162044
0.00169178
0.00171007
0.00171883
0.00174579
0.00179044
0.00182601
0.00190855
0.00191683
0.00191601
0.00192273
0.00179717
0.00185329
0.00156854
0.00156621
0.00271447
0.002707
0.00155525
0.00183632
0.00184891
0.00182765
0.00196778
0.0018007
0.00174367
0.00173455
0.00166127
0.00162227
0.00157006
0.00153915
0.00156954
0.00167006
0.00161749
0.0014338
0.00138297
0.00155059
0.00149091
0.0012368
0.00105652
0.00102731
0.000983288
0.000956569
0.00100255
0.00103849
0.00105897
0.00108495
0.00109263
0.00114029
0.00110937
0.00116404
0.00123442
0.00129044
0.00153061
0.00165885
0.00149861
0.00146991
0.0014517
0.00145027
0.00145491
0.0013951
0.00139117
0.00136021
0.00134496
0.00130436
0.00128613
0.00126298
0.00126724
0.00128074
0.00140816
0.00362451
0.00461994
0.00481163
0.00821935
0.00332189
0.00339308
0.00666293
0.00275089
0.00413848
0.00443511
0.00463429
0.00483919
0.00443093
0.00562945
0.00392876
0.00437343
0.00456333
0.00401361
0.00149339
0.00168269
0.00195181
0.00175078
0.00154672
0.00105432
0.00113708
0.00117448
0.00120482
0.00122462
0.00124647
0.00126992
0.00129185
0.00130723
0.00130743
0.00126767
0.00122479
0.00112635
0.00109353
0.00113584
0.00117953
0.00103601
0.000975477
0.000986992
0.00100321
0.00101233
0.00101425
0.00102419
0.00102685
0.00104254
0.00103414
0.00104204
0.0010242
0.00103323
0.00101973
0.000984989
0.000936155
0.000853226
0.000832933
0.0011997
0.00127758
0.00134217
0.00152329
0.00175921
0.0018774
0.00168294
0.00155226
0.00149003
0.00165299
0.00165362
0.00300505
0.00577149
0.00258284
0.00289294
0.00842888
0.00335178
0.00260717
0.00264638
0.00267407
0.00267786
0.00155623
0.00184294
0.00178667
0.00179414
0.00152174
0.00127771
0.00114607
0.00102472
0.00069496
0.00069268
0.000697906
0.000708646
0.000711995
0.000681577
0.0006815
0.000677626
0.000676118
0.000661774
0.00065778
0.000646116
0.000639044
0.000622224
0.000613132
0.000597147
0.000594257
0.00061879
0.000687304
0.000830499
0.000925691
0.00105155
0.0010711
0.00120801
0.00300264
0.00347617
0.00479249
0.00474679
0.00748498
0.00467693
0.00353274
0.00319455
0.00467413
0.00483092
0.0044929
0.0060839
0.00420878
0.00278643
0.00417293
0.00346591
0.00414212
0.00405252
0.00429371
0.00680903
0.00716088
0.00201819
0.00179911
0.00189272
0.00214741
0.00254977
0.00234743
0.00267446
0.00267043
0.00205926
0.0013165
0.00419361
0.00507308
0.00406316
0.0048688
0.00750379
0.00302019
0.00294564
0.00260627
0.00217534
0.00197714
0.00195057
0.00217496
0.00260274
0.00651858
0.00697327
0.0064143
0.00639334
0.00581063
0.00640528
0.00797753
0.00793875
0.00701121
0.00655723
0.00678924
0.00420795
0.00262678
0.00305359
0.00338218
0.00451246
0.00465385
0.00981621
0.00333722
0.00368397
0.00374016
0.00500161
0.0048481
0.00855731
0.00363322
0.003915
0.00515853
0.00688753
0.01268
0.00464005
0.0048822
0.007017
0.00712281
0.00651391
0.00471438
0.00427062
0.00464822
0.00350237
0.00342443
0.00292447
0.00431669
0.00580333
0.00459362
0.00446046
0.00379321
0.00338417
0.00345917
0.00358945
0.00298244
0.00294136
0.00339421
0.00252629
0.00243603
0.0025843
0.00071628
0.000367169
0.000375389
0.000385166
0.000393084
0.000401245
0.000407202
0.000414277
0.000417447
0.000417804
0.000418892
0.00044292
0.000438783
0.000424898
0.000385827
0.000440248
0.000698626
0.000699065
0.000439716
0.000387644
0.000695556
0.00110819
0.00130639
0.00154539
0.00156441
0.00134985
0.00117045
0.00072054
0.000709216
0.00042989
0.000502069
0.000545238
0.000483623
0.000539753
0.000500285
0.000529904
0.000535478
0.00049552
0.000492732
0.000494623
0.000490877
0.000482152
0.000471489
0.000458456
0.000448171
0.000442447
0.000437926
0.000428192
0.000356231
0.000331894
0.000398662
0.000635251
0.000634301
0.000594717
0.000561031
0.000532346
0.000519391
0.000515874
0.000513125
0.000522107
0.00053896
0.000543731
0.000548547
0.000591006
0.000572437
0.000611419
0.000573809
0.000613025
0.000575363
0.000529279
0.000444413
0.000458498
0.000739643
0.000747503
0.00120758
0.00138131
0.00156636
0.0015743
0.00175759
0.00185126
0.00156799
0.00162784
0.00186527
0.00173704
0.00154809
0.0015542
0.00139793
0.00139934
0.00123967
0.000774831
0.000764329
0.000480037
0.000466224
0.000555932
0.000546226
0.0006075
0.000650183
0.000650412
0.000648317
0.000632163
0.000626337
0.000550817
0.000539968
0.000540683
0.00052432
0.000520708
0.000542672
0.000591739
0.000694155
0.000839577
0.000914328
0.000946445
0.000907919
0.000813064
0.000599732
0.000542207
0.000939442
0.000975493
0.0017444
0.00414459
0.00192026
0.00368377
0.0026578
0.000661627
0.000738276
0.000941475
0.00105498
0.00113899
0.00118705
0.0010846
0.000904645
0.000681144
0.000562697
0.00084107
0.000727335
0.000821758
0.000717761
0.000928781
0.00107391
0.00103891
0.00104672
0.000884594
0.000720633
0.000763192
0.000685193
0.000755275
0.000632342
0.000760838
0.000686845
0.000863101
0.000871201
0.000853066
0.000808587
0.00061566
0.000645971
0.000541878
0.00058784
0.000527822
0.000545567
0.000517004
0.000602862
0.0006947
0.000666743
0.000664145
0.000545702
0.000427636
0.000472342
0.000408516
0.000462382
0.000359421
0.000435395
0.000365076
0.00047262
0.000487164
0.000489586
0.000486211
0.000395409
0.000465078
0.000570152
0.000598908
0.000603927
0.000575167
0.000443513
0.000686219
0.000619013
0.000755795
0.000653605
0.000715577
0.000651578
0.00075946
0.000972646
0.00101548
0.0010222
0.000829335
0.000824247
0.00150387
0.0834478
0.00135281
0.00159905
0.00164897
0.00164305
0.00135846
0.00132518
0.00164143
0.0012141
0.00171956
0.00108269
0.00183422
0.00069927
0.00106311
0.0011414