/*--------------------------------*- C++ -*----------------------------------*\
| =========                 |                                                 |
| \\      /  F ield         | OpenFOAM: The Open Source CFD Toolbox           |
|  \\    /   O peration     | Version:  v2012                                 |
|   \\  /    A nd           | Website:  www.openfoam.com                      |
|    \\/     M anipulation  |                                                 |
\*---------------------------------------------------------------------------*/
FoamFile
{
    version     2.0;
    format      ascii;
    class       volVectorField;
    location    "230";
    object      U;
}
// * * * * * * * * * * * * * * * * * * * * * * * * * * * * * * * * * * * * * //

dimensions      [0 1 -1 0 0 0 0];


internalField   nonuniform List<vector> 
18258
(
(-0.176175 0.116025 0.138008)
(-0.0515762 0.245551 0.157956)
(-0.104623 0.213582 0.0962758)
(-0.0391839 0.0696597 0.0842447)
(-0.225953 0.202134 0.0184063)
(-0.159046 0.360504 0.0166603)
(-0.222653 0.0447299 0.053792)
(-0.340936 -0.0528399 0.0751011)
(-0.448079 -0.105527 0.108037)
(-0.535015 -0.159368 0.145624)
(-0.620874 -0.216917 0.179815)
(-0.687281 -0.271303 0.30944)
(-0.678311 -0.334025 0.3572)
(-0.622004 -0.445262 0.385829)
(-0.487923 -0.542822 0.369464)
(-0.205236 -0.587345 0.340542)
(0.073633 -0.374434 0.289078)
(0.0774965 -0.163856 0.298276)
(-0.128659 -0.0788653 0.236948)
(-0.401611 -0.273518 0.117272)
(-0.139982 -0.526903 0.293615)
(-0.200111 -0.366205 0.40736)
(-0.305762 -0.738254 0.301974)
(-0.367167 -0.780105 0.262715)
(-0.13767 -0.707882 0.131571)
(0.0028799 -0.64531 0.18269)
(-0.0183181 -0.340708 0.423138)
(0.173409 -0.113178 0.805819)
(0.298565 -0.0953841 0.893906)
(0.316166 0.0576652 0.915161)
(0.317102 0.184239 0.817056)
(0.167776 0.301695 0.108457)
(0.0762896 0.134286 -0.428927)
(0.00960455 0.0820516 -0.720929)
(-0.0685326 0.0785483 -0.896343)
(-0.058632 0.0743964 -1.07898)
(-0.0715965 0.0734452 -1.21825)
(-0.100081 0.0914401 -1.31189)
(-0.141977 0.0827472 -1.35925)
(-0.189918 0.0893042 -1.34518)
(-0.239658 0.0757171 -1.26114)
(-0.28635 0.0850458 -1.10746)
(-0.325329 0.0794254 -0.896703)
(-0.35635 0.0806286 -0.642482)
(-0.36606 0.083478 -0.350023)
(-0.348793 0.0782374 -0.152771)
(-0.154404 0.183476 -0.193937)
(0.368711 -0.102519 -0.13588)
(0.635937 -0.131102 -0.156271)
(0.679174 -0.113488 -0.166292)
(0.790083 -0.135968 -0.175792)
(0.816926 -0.13227 -0.193457)
(0.509117 -0.00258704 -0.257399)
(0.260344 -0.137788 -0.217911)
(0.113638 -0.0414229 -0.158652)
(0.283234 -0.00939948 -0.169092)
(0.538776 -0.0024272 -0.173755)
(0.793325 -0.0301563 -0.178051)
(1.09391 -0.0349013 -0.17588)
(1.42973 -0.0490669 -0.185324)
(1.76434 -0.064792 -0.183671)
(2.04843 -0.0813324 -0.166718)
(2.24894 -0.0929773 -0.138214)
(2.34885 -0.0990434 -0.102524)
(2.35519 -0.0963133 -0.0678667)
(2.29447 -0.0885896 -0.0411779)
(2.2006 -0.0820636 -0.0245778)
(2.10794 -0.0759442 -0.0178786)
(2.03839 -0.0671456 -0.0189356)
(1.99269 -0.0642891 -0.023637)
(1.96835 -0.0591496 -0.0260989)
(1.95782 -0.0502534 -0.020587)
(1.94359 -0.0397576 -0.00359859)
(1.90016 -0.0249469 0.0239637)
(1.81263 -0.00790984 0.0535407)
(1.69176 0.00945949 0.0768216)
(1.57098 0.0216495 0.0796649)
(1.47831 0.0306186 0.0750247)
(1.40026 0.0376676 0.0703608)
(1.33812 0.0503983 0.0629906)
(1.28732 0.0570515 0.0647577)
(1.19371 0.0441769 0.0782736)
(1.09662 0.0188704 0.109805)
(1.01371 0.000575932 0.127257)
(0.906482 -0.0210227 0.120173)
(0.762514 0.0166618 0.145472)
(0.641722 0.0816864 0.132936)
(0.518037 0.100643 0.133778)
(0.380992 0.118096 0.118173)
(0.224492 0.127054 0.0960883)
(0.120158 0.189923 0.0916469)
(0.122033 0.0105928 0.197332)
(0.164268 -0.100837 0.143417)
(0.113226 -0.129825 0.0392028)
(0.104618 -0.115251 -0.142939)
(0.216804 -0.210504 -0.371983)
(0.262899 -0.232438 -0.557389)
(0.204402 -0.139348 -0.730717)
(0.105888 -0.0812223 -0.715246)
(0.0362677 0.0573378 -0.492231)
(-0.0888845 0.231006 -0.160717)
(-0.215913 0.194922 0.179477)
(-0.234272 0.0651103 0.153844)
(-0.34 0.0153907 0.169089)
(-0.272471 0.138866 0.177812)
(-0.246472 0.286615 -0.0490365)
(-0.106572 0.162725 -0.404393)
(0.0639014 0.00408487 -0.585827)
(0.333609 -0.0942705 -0.633284)
(0.495997 -0.230099 -0.49103)
(0.351731 -0.21102 -0.281457)
(0.271881 -0.192175 -0.101576)
(0.283091 -0.186791 0.0388616)
(0.280842 -0.140098 0.159802)
(0.225375 -0.0989431 0.191352)
(0.396641 -0.081299 0.180392)
(0.535793 -0.063288 0.175927)
(0.588281 -0.0520538 0.164039)
(0.700235 -0.0787465 0.160131)
(0.732598 -0.133769 0.131767)
(0.601061 -0.134308 0.134564)
(0.454577 -0.151799 0.139121)
(0.461611 -0.185995 0.0346295)
(0.610964 -0.162932 0.0505362)
(0.736382 -0.162128 0.0479988)
(0.904838 -0.141775 0.0802586)
(1.08839 -0.109906 0.109795)
(1.18968 -0.0777489 0.14734)
(1.20869 -0.0107171 0.139178)
(1.24586 -0.0091027 0.119765)
(1.33588 -0.00699188 0.139255)
(1.37783 -0.00175649 0.129245)
(1.36945 -0.0125319 0.157963)
(1.3289 -0.0481907 0.193038)
(1.32323 -0.0511173 0.189946)
(1.28608 -0.0620272 0.150987)
(1.27938 -0.0602161 0.134109)
(1.25847 -0.0478446 0.107494)
(1.24997 -0.0458385 0.109538)
(1.20218 0.00444754 0.108125)
(1.19512 0.0278754 0.136764)
(1.07792 0.13711 0.270355)
(1.22694 0.0529069 0.25308)
(1.21862 0.0201177 0.157676)
(1.26705 -0.0208471 0.1273)
(1.27913 -0.0250187 0.118103)
(1.28949 -0.0381984 0.143222)
(1.30837 -0.0414931 0.182509)
(1.35096 -0.0366956 0.21654)
(1.38678 -0.0366815 0.221486)
(1.42365 -0.0127871 0.18273)
(1.43702 -0.00195213 0.137578)
(1.51318 -0.00655478 0.150697)
(1.61116 -0.0167356 0.158804)
(1.75039 -0.0316395 0.143203)
(1.88246 -0.0542146 0.0486114)
(1.96381 -0.0756701 -0.0715955)
(1.98309 -0.0905164 -0.164664)
(1.96553 -0.0965277 -0.200887)
(1.94909 -0.0968619 -0.194797)
(1.95918 -0.0912436 -0.174967)
(2.00618 -0.0827198 -0.144485)
(2.08773 -0.07025 -0.107804)
(2.19908 -0.0599778 -0.0838438)
(2.31361 -0.0596447 -0.1126)
(2.39098 -0.0607571 -0.172914)
(2.39407 -0.0584039 -0.276868)
(2.28846 -0.0502081 -0.392245)
(2.07314 -0.0425937 -0.483773)
(1.77278 -0.0368147 -0.540342)
(1.42889 -0.0316575 -0.549207)
(1.08274 -0.0193558 -0.528052)
(0.794037 -0.0243353 -0.459652)
(0.538132 -0.0156044 -0.415684)
(0.28385 -0.021021 -0.386997)
(0.10944 -0.0395486 -0.36081)
(0.102607 -0.0414215 -0.637402)
(0.0777036 -0.0367658 -0.87358)
(0.0509495 -0.0388358 -1.05817)
(0.0119461 -0.0401589 -1.17683)
(-0.0232588 -0.0278488 -1.21645)
(-0.0599769 -0.0153314 -1.16851)
(-0.0937764 0.00385892 -1.03897)
(-0.11923 0.0281268 -0.820117)
(-0.120896 0.0859248 -0.558437)
(-0.147089 0.132188 -0.028389)
(-0.194376 0.0240685 0.575607)
(-0.210352 -0.0346962 0.76157)
(-0.228565 -0.0034398 0.929405)
(-0.233693 -0.0467359 1.07084)
(-0.319234 -0.106501 1.13419)
(-0.372121 -0.11398 1.14647)
(-0.370692 -0.235175 1.00563)
(-0.299714 -0.253984 0.771275)
(-0.460691 -0.67029 0.687293)
(-0.485453 -0.548249 0.705314)
(-0.413717 -0.415576 0.833167)
(-0.548742 -0.769083 0.860242)
(-0.682684 -0.834052 0.607988)
(-0.473585 -0.756755 0.80044)
(-0.434993 -0.575912 0.743633)
(-0.782537 -0.526151 0.751715)
(-0.901621 -0.409433 0.862021)
(-0.53013 -0.708028 0.82715)
(-0.439672 -0.577741 0.668246)
(-0.320617 -0.32086 0.408033)
(-0.299867 -0.183697 0.402029)
(-0.28357 -0.14749 0.356505)
(-0.235321 0.108193 0.11681)
(-0.162159 0.299135 -0.416885)
(-0.151729 0.192129 -0.638533)
(-0.132143 0.0299318 -0.913459)
(-0.0870322 -0.05607 -1.0862)
(-0.028654 -0.0689116 -1.23424)
(0.0385499 -0.101469 -1.26927)
(0.0984044 -0.0984073 -1.23436)
(0.173117 -0.108999 -1.12043)
(0.217208 -0.123362 -0.920444)
(0.26159 -0.146524 -0.705869)
(0.250454 -0.139253 -0.398512)
(0.42069 -0.0481682 -0.637649)
(0.777442 -0.11794 -0.456135)
(0.73359 -0.109728 -0.410784)
(0.635945 -0.076377 -0.402692)
(0.575635 -0.10568 -0.407591)
(0.136934 -0.100332 -0.51627)
(0.182369 -0.116537 -0.900023)
(0.261012 -0.224596 -1.05232)
(0.344934 -0.282439 -0.941708)
(0.389263 -0.351474 -0.501414)
(0.199138 0.0466045 0.126293)
(0.266342 0.123143 0.182769)
(0.429272 -0.325169 0.335836)
(0.516518 -0.529372 0.505558)
(0.546236 -0.522821 0.551555)
(0.412974 -0.235456 0.678478)
(0.472003 -0.337847 0.564162)
(0.487364 -0.610205 0.544143)
(0.704894 -0.673229 0.31684)
(0.747049 -0.489524 0.451968)
(0.799406 -0.346072 0.598426)
(0.236348 -0.22624 0.576479)
(-0.234594 -0.269465 0.830958)
(-0.170899 -0.191539 0.682637)
(-0.672001 -0.299168 0.821208)
(-0.468036 -0.184085 0.697694)
(-0.319006 -0.00586166 0.546222)
(-0.218441 0.178885 -0.295451)
(-0.192145 -0.0397886 -0.617567)
(-0.057355 -0.168192 -1.10046)
(0.104797 -0.157075 -1.25065)
(0.276968 -0.0862075 -1.11828)
(0.439672 -0.107866 -0.69794)
(0.509981 -0.0738268 -0.621097)
(0.505172 -0.0439625 -0.609025)
(0.559574 -0.088422 -0.632243)
(0.599347 -0.121523 -0.724474)
(0.404754 -0.0431598 -0.676436)
(0.362783 -0.0790122 -0.657274)
(0.137482 -0.113562 -0.666863)
(-0.110921 -0.0480371 -0.578251)
(0.297865 0.00753439 -0.587847)
(0.357942 0.0161927 -0.604536)
(0.643501 -0.0962419 -0.640717)
(0.574953 -0.0975191 -0.363897)
(0.27118 0.0751087 -0.351566)
(0.271251 0.0560853 -0.227074)
(-0.30268 -0.0373534 0.126133)
(-0.308131 0.144796 -0.000954353)
(-0.283466 -0.0241955 -0.446504)
(0.0898206 -0.201837 -0.573778)
(0.364464 -0.280475 -0.567794)
(0.729252 -0.346105 -0.404947)
(0.813079 -0.41879 -0.377495)
(0.774515 -0.290852 -0.295412)
(0.815852 -0.36545 -0.219495)
(0.830352 -0.487281 -0.283788)
(0.743883 -0.433253 -0.277686)
(0.72335 -0.306895 -0.330548)
(0.750459 -0.252223 -0.341228)
(0.796041 -0.3122 -0.211924)
(0.808377 -0.367904 -0.160216)
(0.895011 -0.464648 -0.156422)
(1.16018 -0.631091 -0.117584)
(1.61824 -0.726449 -0.098647)
(1.99508 -0.671783 -0.0380047)
(2.15136 -0.489466 0.0473852)
(2.07098 -0.290288 0.0954517)
(1.9054 -0.16245 0.102859)
(1.80778 -0.0943875 0.0993849)
(1.71091 0.000503358 0.0989068)
(1.57337 0.0887175 0.0910439)
(1.43598 0.106979 0.048034)
(1.33144 0.0572327 0.0272902)
(1.24163 -0.00479046 0.0215873)
(1.13987 -0.0542076 0.0232932)
(1.05592 -0.0788879 0.0214478)
(0.998114 -0.0625369 0.0169975)
(0.82199 -0.110177 -0.0238006)
(0.716981 0.00237109 0.0098581)
(0.63364 0.0685244 0.00896515)
(0.497968 0.0232438 0.00661626)
(0.359713 -0.0607403 -0.0131706)
(0.139205 -0.14687 -0.0321728)
(0.225768 -0.30846 0.00128776)
(0.353543 -0.0820308 0.0120193)
(-0.00249897 -0.230384 -0.00921268)
(0.0430268 -0.546362 -0.0504908)
(0.0119969 -0.712984 -0.0526229)
(-0.0080529 -0.876994 -0.0532515)
(-0.0260136 -1.00708 -0.0649664)
(-0.0360542 -1.10306 -0.0958396)
(-0.0465724 -1.15748 -0.105133)
(-0.0581031 -1.21482 -0.118273)
(-0.0883351 -1.27661 -0.134269)
(-0.113444 -1.32138 -0.149579)
(-0.137423 -1.35516 -0.16249)
(-0.159453 -1.37687 -0.173542)
(-0.178482 -1.38825 -0.183196)
(-0.193888 -1.38992 -0.189899)
(-0.206028 -1.38282 -0.193743)
(-0.216052 -1.3681 -0.193851)
(-0.224608 -1.3462 -0.191921)
(-0.232887 -1.31573 -0.186463)
(-0.240548 -1.27482 -0.178095)
(-0.24599 -1.22054 -0.165039)
(-0.243872 -1.15136 -0.147286)
(-0.190954 -1.07187 -0.126896)
(-0.141216 -0.969192 -0.112528)
(-0.165746 -0.868658 -0.0794554)
(-0.189759 -0.754667 -0.081862)
(-0.204969 -0.543166 -0.0854614)
(-0.273699 -0.450258 -0.0919655)
(0.0225121 0.053189 -0.116162)
(-0.350814 -0.308329 0.0251756)
(-0.23167 -0.617394 -0.0545607)
(-0.270391 -0.0992185 -0.0110674)
(-0.458021 -0.182411 0.0645366)
(-0.678721 -0.19862 0.0822167)
(-0.84221 -0.209198 0.114012)
(-0.953696 -0.223045 0.144119)
(-1.03451 -0.232445 0.203681)
(-1.11788 -0.244244 0.24519)
(-1.18711 -0.244132 0.301917)
(-1.20081 -0.248352 0.336191)
(-1.17385 -0.250107 0.366113)
(-1.10691 -0.248812 0.394426)
(-0.996094 -0.243135 0.422624)
(-0.84143 -0.230139 0.454062)
(-0.667469 -0.2059 0.493528)
(-0.420435 -0.146913 0.542825)
(-0.137059 -0.118839 0.567089)
(-0.154787 0.0283915 0.82281)
(-0.15789 0.0828599 1.04262)
(-0.157489 0.115061 1.11212)
(-0.158688 0.164049 1.02052)
(-0.162602 0.153206 0.837695)
(-0.15042 0.131217 0.56732)
(-0.123888 0.143295 0.285383)
(-0.225427 0.439297 0.370603)
(-0.50716 0.467226 0.33497)
(-0.692312 0.480227 0.338999)
(-0.917257 0.465025 0.332521)
(-1.09947 0.424392 0.308545)
(-1.22662 0.35303 0.265843)
(-1.28235 0.273176 0.218735)
(-1.26516 0.206028 0.181511)
(-1.23215 0.147831 0.158252)
(-1.1892 0.115145 0.140354)
(-1.09977 0.0924456 0.0902011)
(-0.958001 0.0450851 0.0698552)
(-0.766682 -0.0207671 0.0594233)
(-0.500357 -0.113963 0.0189946)
(-0.25287 -0.207667 -0.0190147)
(-0.273848 -0.197426 -0.0663345)
(-0.318116 -0.176863 0.00799778)
(-0.31434 -0.174068 0.0592429)
(-0.272468 -0.156499 0.150399)
(-0.380701 -0.23367 0.118022)
(-0.422505 -0.296921 0.11803)
(-0.326472 -0.287979 0.176656)
(-0.269467 -0.215028 0.0445395)
(-0.14078 -0.100696 -0.0265683)
(-0.140872 -0.0767816 -0.00796588)
(-0.138639 -0.0741156 -0.0359879)
(-0.169356 -0.0556445 -0.068294)
(-0.167886 -0.501453 -0.148952)
(-0.126323 -0.479622 -0.138737)
(-0.110738 -0.447068 -0.0963469)
(-0.100552 -0.423943 -0.146485)
(-0.266389 -0.537915 -0.0321959)
(-0.276092 -0.575348 -0.0264486)
(-0.283513 -0.631682 -0.0846754)
(-0.33715 -0.582746 -0.0207461)
(-0.34001 -0.529867 0.0545508)
(-0.301328 -0.359068 0.0846865)
(-0.444309 -0.317027 0.114346)
(-0.361398 -0.431768 0.0398895)
(-0.347238 -0.522627 0.0134536)
(-0.377836 -0.508462 -0.0243126)
(-0.428467 -0.394502 0.0316224)
(-0.497287 -0.346654 0.0727427)
(-0.528778 -0.254919 0.163534)
(-0.591064 -0.215515 0.241151)
(-0.680008 -0.197622 0.255715)
(-0.576433 -0.206763 0.211347)
(-0.516698 -0.187838 0.180962)
(-0.544981 -0.184967 0.117648)
(-0.53953 -0.172047 0.0917343)
(-0.495989 -0.18422 0.000685221)
(-0.761445 -0.0867145 0.0644236)
(-0.971535 -0.00544513 0.089534)
(-1.07917 0.052068 0.103417)
(-1.12838 0.0749656 0.137991)
(-1.16606 0.0357929 0.237682)
(-1.25079 0.0689661 0.266943)
(-1.31684 0.119384 0.348816)
(-1.33048 0.170851 0.431484)
(-1.27324 0.221943 0.523937)
(-1.14841 0.260968 0.603577)
(-0.975801 0.281344 0.648099)
(-0.775581 0.283656 0.657131)
(-0.622921 0.288871 0.644127)
(-0.341777 0.272617 0.643869)
(-0.435373 0.245256 0.874542)
(-0.46743 0.227957 1.00295)
(-0.460395 0.180167 1.08136)
(-0.441211 0.123973 1.01345)
(-0.439864 0.0587858 0.797804)
(-0.711163 -0.00490649 0.744188)
(-0.72174 0.0716973 0.944452)
(-0.740414 0.117507 1.02331)
(-0.745258 0.164565 0.979319)
(-0.695099 0.199051 0.872333)
(-0.83804 0.186551 0.862243)
(-0.879815 0.146135 0.964887)
(-0.882631 0.0885431 1.00096)
(-0.872946 0.0421643 0.9262)
(-0.866645 -0.038848 0.706864)
(-1.00991 -0.0601422 0.6757)
(-1.02446 0.0206848 0.900959)
(-1.03746 0.0697182 0.966101)
(-1.04574 0.122204 0.943991)
(-1.02089 0.174157 0.853931)
(-1.16451 0.16306 0.803897)
(-1.16499 0.110703 0.892598)
(-1.1482 0.0572663 0.914438)
(-1.131 0.00658581 0.859292)
(-1.11089 -0.0729414 0.63997)
(-1.17101 -0.0836059 0.595359)
(-1.19658 -0.00612617 0.796711)
(-1.22299 0.0436982 0.839926)
(-1.25242 0.0919037 0.811358)
(-1.27014 0.141405 0.716736)
(-1.31964 0.110867 0.610062)
(-1.29111 0.0688762 0.709102)
(-1.2526 0.025035 0.747084)
(-1.21714 -0.0216802 0.716236)
(-1.18698 -0.0934236 0.539632)
(-1.15372 -0.104675 0.472573)
(-1.18191 -0.041365 0.621219)
(-1.2208 0.000203557 0.640559)
(-1.27521 0.0391479 0.606287)
(-1.30834 0.0742437 0.509013)
(-1.22526 0.0356692 0.414177)
(-1.18842 0.00284864 0.499949)
(-1.12864 -0.0321996 0.531024)
(-1.08637 -0.0600904 0.520062)
(-1.04005 -0.111756 0.386662)
(-0.919132 -0.120135 0.315107)
(-0.923422 -0.10938 0.358035)
(-0.972849 -0.0803944 0.438152)
(-0.956773 -0.0870515 0.424946)
(-0.927855 -0.102676 0.394539)
(-1.00464 -0.0684783 0.381221)
(-0.996391 -0.0631105 0.307233)
(-1.0011 -0.0392128 0.282612)
(-1.04418 -0.0272147 0.208973)
(-1.03918 -0.00956047 0.202281)
(-0.80631 -0.105201 0.145196)
(-0.819224 -0.125235 0.157698)
(-0.788234 -0.128454 0.216078)
(-0.824157 -0.141528 0.249203)
(-0.610221 -0.281767 0.132885)
(-0.557131 -0.291497 0.11464)
(-0.503625 -0.326907 0.132265)
(-0.420238 -0.399617 0.115807)
(-0.396863 -0.38401 0.149245)
(-0.488086 -0.284195 0.16504)
(-0.605945 -0.239072 0.183428)
(-0.615441 -0.267891 0.0966608)
(-0.513567 -0.377965 0.043771)
(-0.439658 -0.460178 0.0278295)
(-0.397325 -0.526315 0.0574553)
(-0.383871 -0.697822 0.121827)
(-0.386968 -0.663211 0.127623)
(-0.405253 -0.380255 0.106509)
(-0.408264 -0.536426 0.0810342)
(-0.399218 -0.601844 0.0433543)
(-0.215773 -0.788214 -0.159197)
(-0.193418 -0.793998 -0.259938)
(-0.115381 -0.703964 -0.36948)
(-0.0785881 -0.624036 -0.38551)
(-0.0451923 -0.588867 -0.347792)
(-0.0137366 -0.555951 -0.301444)
(0.0314578 -0.501961 -0.232044)
(0.124059 -0.455488 -0.108933)
(0.124638 -0.580233 -0.121914)
(0.116747 -0.636717 -0.120172)
(0.0847994 -0.694711 -0.157637)
(0.0922018 -0.74935 -0.155776)
(0.100355 -0.805914 -0.17493)
(0.118095 -0.834225 -0.167002)
(0.126109 -0.840967 -0.152795)
(0.126308 -0.827107 -0.13022)
(0.117604 -0.791008 -0.0958278)
(0.104002 -0.734238 -0.0425075)
(0.0366925 -0.654057 0.0335408)
(0.00166434 -0.545624 0.1538)
(0.0161872 -0.299526 0.360648)
(-0.148123 0.0146774 0.448842)
(-0.366934 0.0955194 0.350084)
(-0.392488 -0.0392864 0.256876)
(-0.219746 -0.172711 0.251895)
(-0.180758 -0.189521 0.268373)
(-0.158147 -0.179404 0.214515)
(-0.0932954 -0.145665 0.206132)
(-0.00201692 -0.0411827 0.0736166)
(-0.0347986 0.108505 0.0811687)
(-0.0806085 0.146065 0.0805502)
(-0.0490979 0.210761 0.171015)
(-0.00455003 0.178217 0.193325)
(0.0150439 0.0279646 0.143776)
(-0.04723 -0.0332414 0.228841)
(0.0236429 0.0876458 0.325071)
(-0.00340224 -0.0671086 0.286936)
(0.0762393 0.141512 0.248131)
(0.0901426 -0.0261191 0.226852)
(-0.0210038 -0.255167 0.455832)
(0.0505161 -0.358724 0.544831)
(0.172624 -0.502893 0.514976)
(0.167387 -0.693629 0.352085)
(0.0754515 -0.81749 0.144369)
(0.0586506 -0.889203 -0.00749864)
(0.0652927 -0.923756 -0.119396)
(0.0632704 -0.950168 -0.197601)
(0.0601923 -0.964835 -0.248643)
(0.0520722 -0.963051 -0.279333)
(0.0419175 -0.943146 -0.292682)
(0.0293204 -0.905557 -0.289511)
(0.0236686 -0.830783 -0.24978)
(0.00734846 -0.785043 -0.328978)
(0.0435345 -0.704213 -0.225409)
(0.0475639 -0.653969 -0.211438)
(0.0447582 -0.636489 -0.232159)
(0.00461463 -0.702444 -0.325402)
(-0.0225756 -0.742021 -0.38321)
(-0.0573305 -0.777329 -0.410946)
(-0.0732543 -0.844085 -0.401795)
(-0.131993 -0.90447 -0.346107)
(-0.0939995 -0.968923 -0.331995)
(-0.0889551 -0.979675 -0.37324)
(-0.0537867 -0.918301 -0.418203)
(-0.0435581 -0.868341 -0.432091)
(-0.0177395 -0.826203 -0.404454)
(-0.00958503 -0.869643 -0.341311)
(-0.0393066 -0.90188 -0.374286)
(-0.0560376 -0.948509 -0.396696)
(-0.0237288 -0.991652 -0.405909)
(-0.0486662 -1.05995 -0.420597)
(-0.0666309 -1.04258 -0.424246)
(-0.0934764 -0.920363 -0.345079)
(-0.18656 -0.761709 -0.224637)
(-0.198202 -0.613995 -0.0412531)
(-0.099962 -0.733339 -0.197285)
(-0.0796447 -0.839429 -0.25979)
(-0.0594193 -0.92873 -0.323612)
(-0.0609021 -0.946204 -0.334287)
(-0.0277863 -0.829463 -0.38113)
(-0.0240032 -0.724525 -0.337489)
(-0.0321906 -0.542046 -0.254304)
(-0.0163744 -0.353284 -0.163845)
(0.0340681 -0.0901286 -0.209471)
(-0.247694 -0.433458 0.0728885)
(-0.328747 -0.461077 0.0259052)
(0.220594 -0.118594 -0.244182)
(-0.172701 -0.247251 0.0429749)
(-0.218021 -0.26642 -0.117223)
(-0.258358 -0.268682 -0.103593)
(-0.208483 -0.281535 -0.0214911)
(0.0811211 0.140836 -0.219237)
(0.102673 0.0597202 -0.231936)
(0.100817 -0.000188273 -0.260964)
(0.0961269 -0.000108273 -0.265928)
(-0.0801786 -0.429716 -0.201714)
(-0.133084 -0.44995 -0.22265)
(-0.186198 -0.458295 -0.206597)
(-0.24914 -0.445072 -0.169194)
(-0.168973 -0.547446 -0.184211)
(-0.126849 -0.559313 -0.25721)
(-0.0963066 -0.56563 -0.291463)
(-0.0607181 -0.553893 -0.29183)
(-0.0508137 -0.742878 -0.349092)
(-0.0816456 -0.757475 -0.332056)
(-0.10638 -0.769752 -0.281733)
(-0.147184 -0.759991 -0.194745)
(-0.134505 -0.821758 -0.182333)
(-0.128797 -0.882718 -0.200306)
(-0.0981654 -0.905407 -0.297406)
(-0.0727111 -0.872525 -0.373823)
(-0.0492528 -0.852344 -0.400177)
(-0.0769023 -0.967886 -0.370928)
(-0.112244 -0.989551 -0.335867)
(-0.138168 -1.0098 -0.283648)
(-0.137277 -1.0925 -0.346909)
(-0.0802238 -1.06688 -0.399328)
(-0.0726318 -1.14455 -0.440948)
(-0.0494342 -1.12303 -0.473611)
(-0.026928 -1.11408 -0.45892)
(-0.00328213 -1.04229 -0.41556)
(0.0121311 -1.07436 -0.406668)
(-0.0127131 -1.15267 -0.469787)
(-0.039907 -1.17971 -0.494279)
(-0.0686516 -1.20787 -0.463026)
(-0.131646 -1.2284 -0.379154)
(-0.134984 -1.16605 -0.369212)
(-0.28378 -1.04617 -0.225327)
(-0.457433 -1.14567 -0.0769246)
(-0.463805 -1.09972 -0.0674512)
(-0.41606 -1.04538 -0.0647576)
(-0.3029 -1.0359 -0.0738202)
(-0.255728 -0.967185 -0.0640311)
(-0.309208 -0.944661 -0.0576232)
(-0.342323 -0.84881 -0.0421955)
(-0.378068 -0.713477 -0.0378644)
(-0.473761 -0.626756 -0.0366874)
(-0.409871 -0.401411 -0.0340698)
(-0.464868 -0.66068 -0.005823)
(-0.316703 -0.457544 0.0245872)
(-0.638405 -0.398726 0.00543098)
(-0.815298 -0.379344 0.0601205)
(-0.917782 -0.384474 0.084585)
(-0.967792 -0.397266 0.124304)
(-0.97978 -0.525329 0.0977386)
(-0.940157 -0.689433 0.0653524)
(-0.923871 -0.750201 0.0524835)
(-0.874392 -0.848524 0.0364336)
(-0.858789 -0.895709 0.0304575)
(-0.82094 -0.928011 0.00761231)
(-0.703665 -0.967679 -0.0230108)
(-0.592494 -1.00223 -0.0419944)
(-0.62673 -0.952829 -0.0172109)
(-0.484946 -0.971861 -0.0307098)
(-0.502847 -0.893551 -0.0301216)
(-0.53046 -0.797076 -0.0232724)
(-0.5593 -0.73085 -0.0194603)
(-0.686386 -0.712456 -0.00979782)
(-0.674948 -0.598154 -0.00777775)
(-0.82408 -0.577243 0.0303332)
(-0.918401 -0.559618 0.0503868)
(-0.881309 -0.697081 0.0231357)
(-0.800365 -0.70462 0.0121911)
(-0.777494 -0.789822 0.00227795)
(-0.660886 -0.798293 -0.0107719)
(-0.635737 -0.882691 -0.0170374)
(-0.748449 -0.866272 -0.00513773)
(-0.825472 -0.850648 0.00443765)
(-0.863091 -0.77305 0.013504)
(-0.80161 -0.738951 -0.0117704)
(-0.624212 -0.612115 0.00189479)
(-0.847126 -0.659676 0.0116884)
(-0.86809 -0.518348 0.0520547)
(-0.870496 -0.379768 0.0581313)
(-0.843402 -0.282215 0.121579)
(-0.832367 -0.302222 0.0765156)
(-0.878931 -0.350608 0.0525545)
(-0.875235 -0.203887 0.129004)
(-0.894231 -0.184207 0.17404)
(-0.760779 -0.161499 0.158407)
(-0.76653 -0.129053 0.259092)
(-0.777793 -0.120762 0.301855)
(-0.821463 -0.108658 0.355249)
(-0.828934 -0.119277 0.352565)
(-0.642278 -0.181728 0.250945)
(-0.607395 -0.173645 0.248359)
(-0.567516 -0.180472 0.215478)
(-0.551092 -0.175617 0.188863)
(-0.568797 -0.191178 0.120305)
(-0.33834 -0.194728 0.0767416)
(-0.320201 -0.189227 0.101636)
(-0.329314 -0.191946 0.114118)
(-0.360585 -0.198838 0.124279)
(-0.449103 -0.216893 0.1416)
(-0.405193 -0.253357 0.0595259)
(-0.382075 -0.284887 0.0681664)
(-0.410665 -0.340991 0.0468981)
(-0.315983 -0.426836 0.0357156)
(-0.311728 -0.394259 0.0488867)
(-0.283607 -0.416141 0.0153584)
(-0.192981 -0.419379 -0.0206961)
(-0.337099 -0.254056 0.0352225)
(-0.402973 -0.33084 0.0409721)
(-0.248327 -0.4573 -0.00682491)
(-0.291719 -0.459697 0.000112441)
(-0.451782 -0.321178 0.0718338)
(-0.524567 -0.298975 0.131163)
(-0.498038 -0.318631 0.136253)
(-0.470955 -0.336774 0.111309)
(-0.458785 -0.350599 0.0942269)
(-0.493207 -0.373115 0.00853692)
(-0.710722 -0.317773 0.0631284)
(-0.717808 -0.529789 0.0389094)
(-0.549033 -0.554313 -0.00183187)
(-0.509943 -0.606978 -0.00409521)
(-0.465732 -0.649249 -0.0175816)
(-0.436981 -0.652506 -0.0212931)
(-0.412901 -0.530871 -0.0231334)
(-0.411112 -0.540875 -0.0485347)
(-0.409979 -0.541324 -0.0344646)
(-0.335458 -0.550384 -0.0172022)
(-0.267518 -0.59584 -0.00743634)
(-0.319593 -0.580824 -0.00364731)
(-0.403419 -0.512948 0.00701157)
(-0.331988 -0.535329 -0.00428225)
(-0.438747 -0.630311 -0.0119795)
(-0.29294 -0.47318 -0.00523743)
(-0.210413 -0.539652 -0.0184109)
(-0.281147 -0.524593 -0.0163631)
(-0.394428 -0.436055 -0.000810761)
(-0.413856 -0.36273 -0.0104922)
(-0.26061 -0.394168 -0.0111453)
(-0.157014 -0.422846 -0.0364425)
(-0.136389 -0.399424 -0.0227298)
(-0.238176 -0.205289 0.0222655)
(-0.382609 -0.342854 -0.00207823)
(-0.251801 -0.474546 -0.0198012)
(-0.219129 -0.46796 -0.0237226)
(-0.122136 -0.392766 -0.0300812)
(-0.219235 -0.194432 0.0391253)
(-0.34688 -0.337927 0.0121317)
(-0.366243 -0.363265 0.0541561)
(-0.195923 -0.511078 -0.0108953)
(-0.174192 -0.468033 0.0186186)
(-0.110072 -0.420159 0.00187411)
(-0.222364 -0.229025 0.0446451)
(-0.325936 -0.341875 0.0523343)
(-0.335159 -0.338967 0.0569622)
(-0.180728 -0.463223 0.0166608)
(-0.109426 -0.408932 3.8855e-05)
(-0.232001 -0.220443 0.062078)
(-0.286001 -0.221446 0.0774145)
(-0.240522 -0.23024 0.0711851)
(-0.350429 -0.33702 0.0784728)
(-0.189834 -0.465322 0.048322)
(-0.11794 -0.415609 0.037334)
(-0.140634 -0.44969 -0.00390335)
(-0.196632 -0.497613 0.0256779)
(-0.381784 -0.350687 0.0791362)
(-0.334487 -0.625476 -0.00358862)
(-0.355787 -0.632163 -0.0116534)
(-0.499414 -0.511915 0.0578861)
(-0.65137 -0.44475 0.0982947)
(-0.666814 -0.2868 0.13634)
(-0.798209 -0.271593 0.170498)
(-0.890904 -0.320771 0.16643)
(-1.0208 -0.488858 0.125962)
(-1.10763 -0.49515 0.167709)
(-1.1325 -0.502743 0.192882)
(-1.1125 -0.505065 0.215882)
(-1.04917 -0.501308 0.238765)
(-0.943524 -0.49032 0.260645)
(-0.794515 -0.466938 0.287229)
(-0.63971 -0.431811 0.326778)
(-0.397124 -0.380569 0.395494)
(-0.16237 -0.292967 0.48369)
(0.0433853 -0.150544 0.487288)
(0.337927 -0.158362 0.428074)
(0.338432 -0.215742 0.377767)
(0.205047 -0.127566 0.487077)
(0.272707 -0.00311227 0.766148)
(0.283865 0.0460927 1.03199)
(0.268915 0.0809438 1.1422)
(0.250757 0.133402 1.09206)
(0.212741 0.122721 0.955423)
(0.142127 0.121146 0.704116)
(0.0394924 0.187315 0.404872)
(0.174085 0.512903 0.425024)
(0.420057 0.514007 0.374356)
(0.605937 0.538639 0.375591)
(0.850716 0.497688 0.351278)
(1.00883 0.416969 0.317479)
(1.0729 0.322579 0.273867)
(1.056 0.254612 0.234385)
(1.00395 0.210659 0.199759)
(1.02133 0.158852 0.168279)
(1.03857 0.118408 0.145169)
(0.980137 0.0922192 0.0911623)
(0.877015 0.0421106 0.0682163)
(0.712486 -0.0230903 0.0544747)
(0.467992 -0.110073 0.0210889)
(0.241048 -0.217223 -0.0225071)
(0.101226 -0.62003 -0.110342)
(0.176511 -0.383176 -0.0795715)
(-0.178825 -0.170996 0.00661558)
(-0.0997523 -0.387991 -0.0376207)
(-0.109156 -0.305787 -0.0635277)
(-0.111188 -0.328433 -0.0715305)
(-0.108789 -0.283314 -0.0600835)
(-0.0741617 -0.197382 -0.0529324)
(-0.156679 -0.145323 -0.0179308)
(-0.223053 0.253277 0.154147)
(-0.127409 0.474717 0.11302)
(-0.0362606 0.593129 0.0682818)
(0.0388719 0.642357 0.0877766)
(0.126789 0.675103 0.184519)
(0.221939 0.728799 0.298381)
(0.313673 0.766721 0.336308)
(0.396832 0.763353 0.367136)
(0.47441 0.699314 0.374497)
(0.54016 0.558781 0.371378)
(0.592593 0.336088 0.337238)
(0.572181 0.00254381 0.263444)
(0.395073 -0.336773 0.258869)
(0.294531 -0.336338 0.321135)
(0.228871 -0.290694 0.330442)
(0.161621 -0.200002 0.335555)
(0.147758 -0.00335576 0.313266)
(0.289058 0.00894249 0.340539)
(0.451942 -0.158114 0.331079)
(0.604339 -0.255526 0.342616)
(0.643368 -0.34459 0.351663)
(0.624087 -0.436507 0.3536)
(0.477228 -0.541377 0.334824)
(0.1079 -0.566168 0.316797)
(-0.170736 -0.298289 0.302636)
(-0.0373865 -0.128632 0.355765)
(0.230802 -0.152655 0.237796)
(0.282212 -0.404468 0.0722526)
(0.00862097 -0.520178 0.238273)
(-0.141295 -0.749533 -0.1422)
(0.200812 -0.720544 -0.481122)
(0.308948 -0.393827 -0.177357)
(0.332085 -0.375597 0.0929176)
(0.345874 -0.54549 0.183255)
(0.327987 -0.889908 0.11971)
(0.53241 -0.872749 0.0647213)
(0.611746 -0.692137 0.0983178)
(0.577321 -0.538492 0.138063)
(0.50774 -0.396188 0.188524)
(0.33848 -0.231073 0.246818)
(0.363034 -0.347198 0.19519)
(0.42693 -0.378094 0.142423)
(0.508351 -0.364118 0.0800516)
(0.619996 -0.296561 -0.0568187)
(0.865033 0.192359 -0.118593)
(0.909375 0.477318 -0.0232629)
(0.854786 0.680751 0.0474374)
(0.756675 0.783958 0.0903021)
(0.630383 0.811117 0.136171)
(0.486258 0.779959 0.154908)
(0.32647 0.716236 0.17209)
(0.157773 0.641726 0.118573)
(-0.0184601 0.588514 0.0577657)
(-0.148617 0.541672 0.0549223)
(-0.274772 0.437939 0.112209)
(-0.40379 0.246611 0.160115)
(-0.28753 -0.104972 0.0176974)
(-0.40706 0.0224406 0.0704744)
(-0.491625 0.0676053 0.0950167)
(-0.535948 0.184944 0.131492)
(-0.542994 0.133944 0.101546)
(-0.501112 -0.00302681 0.023167)
(-0.456582 -0.0689338 0.0135201)
(-0.385627 -0.128257 -0.00874855)
(-0.288986 -0.194509 -0.0222265)
(-0.190393 -0.228172 -0.0356679)
(-0.137805 -0.195921 -0.0261821)
(-0.198121 -0.156958 -0.0192423)
(-0.183013 -0.319202 -0.0307601)
(-0.121931 -0.31504 -0.0423041)
(-0.100485 -0.335575 -0.069101)
(-0.0794048 -0.369809 -0.100952)
(-0.0485368 -0.561151 -0.219049)
(-0.0890692 -0.500076 -0.148821)
(-0.10704 -0.607541 -0.118086)
(-0.155673 -0.600144 -0.0841219)
(-0.210596 -0.490518 -0.0636544)
(-0.313767 -0.225402 -0.0110731)
(-0.20651 0.297203 0.16827)
(-0.0760931 0.417423 0.306974)
(0.00837568 0.505801 0.445993)
(0.076485 0.494626 0.563466)
(0.14532 0.431703 0.62479)
(0.198994 0.318424 0.655011)
(0.249749 0.163633 0.627588)
(0.235723 -0.0159966 0.531881)
(0.105394 -0.137616 0.440638)
(-0.0117624 -0.100968 0.44987)
(-0.0323248 0.013898 0.426844)
(-0.0342318 0.137694 0.427621)
(0.0372164 0.244208 0.368392)
(0.199166 0.13644 0.383389)
(0.15733 0.272317 0.450892)
(-0.0591837 0.177083 -0.0592262)
(-0.172422 -0.0682264 -0.643521)
(-0.180234 -0.307192 -0.542127)
(-0.167987 -0.344811 -0.306794)
(-0.14446 -0.303747 -0.0954109)
(-0.0619846 -0.587352 -0.107159)
(-0.0280226 -0.865166 -0.0940436)
(0.00201415 -1.0221 -0.0912178)
(0.0322929 -1.14541 -0.100138)
(0.0654192 -1.22882 -0.114306)
(0.095733 -1.28124 -0.128291)
(0.122243 -1.3073 -0.140158)
(0.146178 -1.3153 -0.152115)
(0.167058 -1.31269 -0.164701)
(0.185373 -1.30293 -0.175603)
(0.201091 -1.28758 -0.184181)
(0.215137 -1.26723 -0.189449)
(0.227591 -1.2417 -0.192263)
(0.238957 -1.20977 -0.191213)
(0.248609 -1.1702 -0.186146)
(0.254428 -1.12061 -0.175367)
(0.251593 -1.05813 -0.15871)
(0.194622 -0.995273 -0.138879)
(0.139692 -0.910554 -0.122683)
(0.164322 -0.826733 -0.0869577)
(0.187603 -0.726421 -0.0881715)
(0.20375 -0.558003 -0.0880564)
(0.246577 -0.441259 -0.08437)
(0.0720531 -0.0295738 -0.0954205)
(0.365586 -0.297488 0.0435271)
(0.245529 -0.549877 -0.0571209)
(0.285754 -0.0943922 -0.0269204)
(0.180452 -0.0365973 -0.147379)
(0.201169 -0.111983 -0.124832)
(0.193872 -0.118912 -0.0811556)