/*--------------------------------*- C++ -*----------------------------------*\
| =========                 |                                                 |
| \\      /  F ield         | OpenFOAM: The Open Source CFD Toolbox           |
|  \\    /   O peration     | Version:  v2012                                 |
|   \\  /    A nd           | Website:  www.openfoam.com                      |
|    \\/     M anipulation  |                                                 |
\*---------------------------------------------------------------------------*/
FoamFile
{
    version     2.0;
    format      ascii;
    class       volScalarField;
    location    "170";
    object      nut;
}
// * * * * * * * * * * * * * * * * * * * * * * * * * * * * * * * * * * * * * //

dimensions      [0 2 -1 0 0 0 0];


internalField   nonuniform List<scalar> 
18258
(
0.00417984
0.00182117
0.00149171
0.00129124
0.000856381
0.00140034
0.00194527
0.00231602
0.00243035
0.00241037
0.00249633
0.00421365
0.00591422
0.00730986
0.00767948
0.00766807
0.0069616
0.00664848
0.00722585
0.00887824
0.00745619
0.00477862
0.0057189
0.00661696
0.0072146
0.00639379
0.00517104
0.00478632
0.00433367
0.00361338
0.00303331
0.00208334
0.00151402
0.00140319
0.0012733
0.00145235
0.00158259
0.0016886
0.00172632
0.00175364
0.00174178
0.00173184
0.00168492
0.00165501
0.00160416
0.00132379
0.00158579
0.00166256
0.00181681
0.00250083
0.00268236
0.00225444
0.00249335
0.00222383
0.00146573
0.00167845
0.00182213
0.0018612
0.00183704
0.0017606
0.00173475
0.00171287
0.00168519
0.00165237
0.00163234
0.00164861
0.00166562
0.00164745
0.00156644
0.00150081
0.00139465
0.00128827
0.0012094
0.00114831
0.00110223
0.00105113
0.000993708
0.000872877
0.000808979
0.00107113
0.00134462
0.00143657
0.00203599
0.00248219
0.00249888
0.00187123
0.00133379
0.00138428
0.00153907
0.00155479
0.00131801
0.00156683
0.00177445
0.00183894
0.00191594
0.00214134
0.00243816
0.00237731
0.0021178
0.00195267
0.00190052
0.00218493
0.00208054
0.00269849
0.0027147
0.00235951
0.00219265
0.00246555
0.00317886
0.0034174
0.00265568
0.00249474
0.00244612
0.00241535
0.0021849
0.0022611
0.00205329
0.00185012
0.00201507
0.00243471
0.00230984
0.00252329
0.0026142
0.00245214
0.00284074
0.00327496
0.00322752
0.00258284
0.00210629
0.00196343
0.00197824
0.00120994
0.00130651
0.00140768
0.00144215
0.00146624
0.00148677
0.00158551
0.00158194
0.00155878
0.00155531
0.00158218
0.000872197
0.000945061
0.000968506
0.00097526
0.000926241
0.000916687
0.000899614
0.000885709
0.000835257
0.00079927
0.000956347
0.00107382
0.0011695
0.00128134
0.0014483
0.00165269
0.00186758
0.00208478
0.00222856
0.0022697
0.00231123
0.00222773
0.0021437
0.00222041
0.00223347
0.00221921
0.0021895
0.00215197
0.00210129
0.00200834
0.00211648
0.00211085
0.00198309
0.00169941
0.00173756
0.00173468
0.00177984
0.00177048
0.00178811
0.00176245
0.00173221
0.0016485
0.00153142
0.00127456
0.00125107
0.00126553
0.00162357
0.00196993
0.00304162
0.00370744
0.00430044
0.00459844
0.00491724
0.00398283
0.00443493
0.00342162
0.00307092
0.00390184
0.00510286
0.00291183
0.00159194
0.00301949
0.00268106
0.00194784
0.00173417
0.00178765
0.00178541
0.00204123
0.00235457
0.00261709
0.0027446
0.00285642
0.00294592
0.00304423
0.00316834
0.00320246
0.00309343
0.00261771
0.00315588
0.00256553
0.00299816
0.00271306
0.001838
0.00189201
0.00202249
0.0018571
0.00180841
0.00172764
0.00156102
0.00194326
0.00250823
0.00290926
0.00332588
0.0044357
0.00410341
0.00393488
0.00304658
0.00294625
0.0015292
0.00218085
0.00226342
0.00255031
0.00169464
0.0015477
0.00147027
0.00193925
0.00224649
0.00265154
0.0029428
0.00349519
0.00271326
0.00309996
0.00280689
0.00195974
0.00188192
0.00269169
0.00289809
0.00238261
0.002126
0.00266899
0.00252785
0.00179466
0.00142563
0.00219236
0.00226687
0.00163188
0.00406415
0.00434928
0.00415649
0.00506043
0.00633452
0.00721316
0.00673145
0.00596663
0.00664821
0.00528029
0.00512879
0.00547755
0.00459603
0.00320373
0.00328301
0.003393
0.00348314
0.0037386
0.00397108
0.00425558
0.00452655
0.00411527
0.00341809
0.00258734
0.00178038
0.00175649
0.00174769
0.00156935
0.00232582
0.00351904
0.00349537
0.00198718
0.00115877
0.00131072
0.00148003
0.00146563
0.00106373
0.000800384
0.00137853
0.00157591
0.00160115
0.00156121
0.00147387
0.00154002
0.00247304
0.00380978
0.00418596
0.0043354
0.00447683
0.00457675
0.00463236
0.00465001
0.00465987
0.00467198
0.00468269
0.00469898
0.00468468
0.0045852
0.00403338
0.00253625
0.00148258
0.00137714
0.00151988
0.00163344
0.00173256
0.00147432
0.000901476
0.0014397
0.00184353
0.00211887
0.00213697
0.00199432
0.00193459
0.00305063
0.00405625
0.00478132
0.0049283
0.00499389
0.00493935
0.00493263
0.00482547
0.00479264
0.00420334
0.00300552
0.00328566
0.00352787
0.00356808
0.00365033
0.00377393
0.00368652
0.00348366
0.00508886
0.0058743
0.00594995
0.00607659
0.00600497
0.00590203
0.00563466
0.00532884
0.00448626
0.00336438
0.00212289
0.00216726
0.00230722
0.00228511
0.00198923
0.00209544
0.00227415
0.00229693
0.00237203
0.00265995
0.00302088
0.00288145
0.00247959
0.00210576
0.00196074
0.00191935
0.0018413
0.00137906
0.00139986
0.00136096
0.00138345
0.00185851
0.00221215
0.00255125
0.00361878
0.00322796
0.00262495
0.00416354
0.00426702
0.0045853
0.00506631
0.00519175
0.00575304
0.00400108
0.00360537
0.00370391
0.00302594
0.00280098
0.00283097
0.00284165
0.00264861
0.00289909
0.00287357
0.00276967
0.00305781
0.0033692
0.00444263
0.00538297
0.00567936
0.00585053
0.00592063
0.00589898
0.00578524
0.00582248
0.00511494
0.00511229
0.00489573
0.00475518
0.00470542
0.0044728
0.00511707
0.00531219
0.00537718
0.00551121
0.0057201
0.00556396
0.0053914
0.00525995
0.00516466
0.00506492
0.00511803
0.0052132
0.00531466
0.00545701
0.00564699
0.00567791
0.00548102
0.00533211
0.00523016
0.0051343
0.00513783
0.00522332
0.00532289
0.00546408
0.00564435
0.0055443
0.00540401
0.00527909
0.0051766
0.00508629
0.00490819
0.00502685
0.00515732
0.00526486
0.00533471
0.00460943
0.00492671
0.0048417
0.0043833
0.00410227
0.00311527
0.00337153
0.00355553
0.00387267
0.00429892
0.00438284
0.00367824
0.00315222
0.00307185
0.00304708
0.00311896
0.00314475
0.00315987
0.00357036
0.00538071
0.00541827
0.00543436
0.00543728
0.00464926
0.0045167
0.00420636
0.00769569
0.0071657
0.00620799
0.00511708
0.00274057
0.0023491
0.0027824
0.00338378
0.00378356
0.00417516
0.00277166
0.00171722
0.0020016
0.00207569
0.00202531
0.00187215
0.00155941
0.00143945
0.00130644
0.00140586
0.00248947
0.00397156
0.00447295
0.00451997
0.00447479
0.00438753
0.00428174
0.00413482
0.00407733
0.00513652
0.00694493
0.00785506
0.00782544
0.00672487
0.00547907
0.00308671
0.00158556
0.00116007
0.00126066
0.00138414
0.00162744
0.00145157
0.0012152
0.00133135
0.00126402
0.00256212
0.00442682
0.0056462
0.00669774
0.0065855
0.00571784
0.00467928
0.00443675
0.00454065
0.00461028
0.00467017
0.00473176
0.00477425
0.00474832
0.0043227
0.0026715
0.00159481
0.00141702
0.00152387
0.00178598
0.00189763
0.00191672
0.00188981
0.00163804
0.0027085
0.00430093
0.00273516
0.00149261
0.00161295
0.00160137
0.00282474
0.00282014
0.00275884
0.00429174
0.0045375
0.00452619
0.00425327
0.00406061
0.0024041
0.00272862
0.00273785
0.00275236
0.00279758
0.00141338
0.00154071
0.00158879
0.0017106
0.00149677
0.00189905
0.000491389
0.000681479
0.000791489
0.000860641
0.000927206
0.000909504
0.00174025
0.001766
0.00168564
0.00164158
0.00208282
0.00223497
0.00228416
0.00210364
0.00194099
0.00206636
0.00207097
0.00195177
0.00184869
0.00191673
0.00191799
0.00183782
0.00156313
0.00146471
0.00160812
0.00159092
0.0015783
0.00283402
0.00282887
0.00267713
0.00439779
0.0043273
0.00484608
0.0048143
0.00480862
0.00478937
0.00484023
0.00486691
0.00488726
0.00491132
0.0049018
0.00485498
0.00676451
0.00477441
0.00416667
0.00241003
0.00232166
0.00163972
0.00143696
0.00169207
0.00180974
0.00196203
0.00191773
0.00202155
0.00201921
0.00214247
0.00198851
0.00176563
0.00270435
0.00288904
0.00282156
0.00287731
0.00280949
0.00279291
0.00277236
0.00273307
0.00268571
0.00159917
0.00156876
0.00183704
0.00192839
0.00207212
0.00209083
0.00213626
0.00202596
0.00178175
0.00172466
0.00198629
0.00195944
0.0019976
0.00188334
0.00187546
0.00167074
0.00171313
0.00345712
0.0063887
0.00328426
0.00364878
0.00330502
0.00375968
0.0032925
0.00283887
0.00290542
0.00255875
0.00266915
0.00279991
0.00285065
0.00299617
0.00353179
0.00340031
0.00298476
0.00289804
0.00284085
0.00267846
0.00241079
0.00252555
0.00254841
0.00260317
0.00289319
0.00331946
0.00372152
0.00452305
0.0043893
0.00384486
0.00351518
0.00368697
0.00375
0.00472154
0.00441148
0.00438515
0.00462527
0.00457929
0.0043466
0.00411873
0.00397566
0.00341279
0.00346867
0.00397093
0.00384267
0.0039601
0.00389076
0.00404443
0.00411785
0.00395262
0.00367345
0.00386101
0.00385277
0.00427877
0.00416152
0.00386023
0.00353243
0.00377479
0.00372887
0.00430792
0.00405525
0.00379266
0.00349081
0.00334364
0.00379521
0.00372559
0.00422522
0.00434752
0.00434962
0.00379154
0.003703
0.00440493
0.00423796
0.00409382
0.00426439
0.00353141
0.00363135
0.00447431
0.004568
0.00433416
0.00361808
0.00367264
0.0031484
0.00370368
0.00461056
0.00435492
0.00356948
0.00296187
0.00414403
0.00435945
0.00461292
0.00435908
0.00474821
0.0051153
0.00416818
0.0045351
0.00592859
0.00452008
0.00524562
0.00536221
0.00539427
0.00539766
0.00541931
0.00544733
0.00574028
0.00558637
0.00354906
0.0042457
0.00412246
0.00344707
0.00293058
0.0032281
0.00347666
0.00352669
0.00361594
0.00375364
0.00368964
0.00356996
0.00522334
0.00595722
0.00609084
0.00621288
0.00611007
0.00595627
0.00560545
0.00517699
0.00429609
0.00320441
0.00199968
0.00203914
0.00217414
0.00215451
0.00187056
0.00141159
0.000927026
0.00137443
0.00141838
0.00133384
0.001214
0.00106905
0.0011002
0.00201682
0.00407631
0.00548447
0.00603934
0.00649298
0.00698219
0.00743376
0.00777455
0.00802607
0.00820161
0.00831309
0.00833688
0.00817959
0.00747268
0.00714968
0.00674642
0.00641462
0.00594621
0.00556328
0.00628776
0.00689965
0.00727344
0.00769473
0.00788682
0.0078011
0.00677402
0.00658897
0.0075942
0.00934681
0.00794963
0.00998387
0.0117272
0.00914704
0.00821468
0.00819474
0.00915176
0.0093294
0.00900438
0.00849602
0.00791305
0.00717341
0.00754848
0.00788502
0.00820512
0.00849909
0.0092786
0.00941918
0.00934701
0.00919175
0.00899205
0.00872495
0.00831506
0.00774146
0.00707202
0.00641292
0.00564967
0.00408208
0.0018688
0.00216137
0.00210783
0.00232921
0.00224224
0.00101259
0.00111417
0.00112618
0.00113141
0.00106756
0.00121137
0.00175509
0.00282758
0.00204309
0.00167875
0.00116967
0.00138254
0.00230873
0.00392876
0.00443697
0.0045162
0.00460242
0.00617069
0.00687617
0.00727735
0.00759907
0.00779396
0.0076999
0.0074654
0.00704381
0.00653444
0.00632115
0.00597818
0.00565849
0.00547935
0.00529243
0.0049701
0.00392613
0.00373401
0.0038869
0.00384358
0.00368038
0.00392927
0.00406919
0.00406411
0.00410778
0.00414602
0.00426734
0.00441042
0.00453497
0.00460016
0.00462423
0.00463182
0.00464144
0.00464926
0.00466386
0.0046485
0.00454716
0.00399323
0.00249766
0.0014583
0.00134838
0.00147844
0.00156345
0.00159986
0.00142078
0.000914449
0.00142109
0.0018393
0.00188618
0.00206907
0.00213414
0.0022621
0.0025201
0.00291237
0.00300522
0.00266716
0.00252692
0.00247315
0.00241015
0.00206109
0.00256763
0.0028337
0.00282848
0.00280156
0.00302746
0.00372537
0.00357882
0.003156
0.00312088
0.00308919
0.00279166
0.00274815
0.00300517
0.00303851
0.0031523
0.00369664
0.00443309
0.00411263
0.00374535
0.0035898
0.00331448
0.00291488
0.00263506
0.00324883
0.00266462
0.00139414
0.00118122
0.00118424
0.00118713
0.00114331
0.00135232
0.00142033
0.00143715
0.00133741
0.00148682
0.00165692
0.00160615
0.00182602
0.0017981
0.00160402
0.0015882
0.0017245
0.00182566
0.00187637
0.00192628
0.00314375
0.00323849
0.00251151
0.00363142
0.00419171
0.00417781
0.00442909
0.0036412
0.00325611
0.00386403
0.00447707
0.0051538
0.00406922
0.0038406
0.00393875
0.00180619
0.0009502
0.00134094
0.00166434
0.00185203
0.00179522
0.00169581
0.00143382
0.00254538
0.00261388
0.004147
0.00465206
0.00470927
0.00467357
0.00476954
0.00527976
0.00617145
0.00682644
0.00701638
0.00691446
0.006628
0.00609338
0.00556933
0.00551761
0.00532222
0.00516906
0.0051195
0.00445959
0.00391877
0.00417643
0.00411476
0.00425141
0.00431419
0.00435915
0.00440513
0.00448308
0.00457736
0.00466282
0.00472106
0.00475975
0.00479254
0.00482635
0.00486055
0.00489767
0.00491775
0.00487133
0.00440318
0.00264295
0.00157641
0.00143833
0.00153476
0.00180379
0.0018992
0.00204137
0.00181341
0.000954995
0.00112307
0.00195175
0.00216283
0.00200072
0.00187247
0.00183915
0.00154064
0.00278914
0.0027525
0.00431727
0.00485453
0.00492176
0.00490755
0.00486907
0.00482582
0.00478535
0.00475242
0.00472664
0.00469947
0.00466039
0.00461368
0.00456808
0.00452119
0.00444197
0.00432585
0.00421453
0.00439849
0.00451503
0.00469947
0.00492468
0.00504711
0.00495585
0.00480403
0.00472329
0.00474261
0.00478328
0.00482657
0.00486573
0.00488517
0.00483181
0.00455482
0.0042755
0.00270925
0.00274456
0.00135174
0.00150172
0.00173276
0.00178948
0.00194401
0.00193549
0.00152224
0.00118558
0.00133697
0.00124949
0.00223203
0.00245384
0.0027205
0.00269345
0.00146384
0.00150116
0.0015601
0.00176039
0.00163668
0.0015815
0.00389477
0.0037327
0.00390973
0.00479795
0.0041344
0.0028571
0.00313335
0.00435785
0.00459515
0.00278034
0.00208408
0.00231384
0.00293075
0.00431161
0.00436484
0.00414553
0.00412362
0.003014
0.00370375
0.00445266
0.00433087
0.00338099
0.00233036
0.00173394
0.000842891
0.00160348
0.00137146
0.00335813
0.00371595
0.00367215
0.00401493
0.00426583
0.00430972
0.00418763
0.00371463
0.00378852
0.00382567
0.00435824
0.0043774
0.00370645
0.00312812
0.00254107
0.00256362
0.00261313
0.00289593
0.00362611
0.00341644
0.0029945
0.00290395
0.00284143
0.00267304
0.00241218
0.00211645
0.00213095
0.00198332
0.00191938
0.00302569
0.00402769
0.00474961
0.00488638
0.00493608
0.00486052
0.00482626
0.00468829
0.00461688
0.00401095
0.00511929
0.00541017
0.0052208
0.00525955
0.00529242
0.00533275
0.00533354
0.00523338
0.00449759
0.00268615
0.00175467
0.00198069
0.00213804
0.00200778
0.00199641
0.00212772
0.00201879
0.00177313
0.00287261
0.00280743
0.00448836
0.00508217
0.00519056
0.00519663
0.0051756
0.00515819
0.00516478
0.00543699
0.00531491
0.00539395
0.00568934
0.00569765
0.00576512
0.0054117
0.00534184
0.00529692
0.00526671
0.00521814
0.00508958
0.00450363
0.00436585
0.00495827
0.00511155
0.00518
0.00522774
0.00528471
0.00535918
0.00557241
0.00573142
0.00579171
0.00554821
0.00545623
0.005328
0.00514718
0.00510465
0.00509618
0.00509247
0.00506815
0.00493755
0.00434725
0.00279568
0.00286489
0.00170448
0.00171571
0.00197632
0.00207598
0.00203908
0.00188845
0.0018413
0.00316685
0.0036041
0.00383385
0.00412955
0.00394442
0.00392241
0.00448336
0.00433844
0.00387091
0.00402742
0.00361041
0.00344074
0.00332531
0.00334267
0.00176026
0.00189927
0.00198089
0.00194782
0.00186247
0.00166101
0.00152313
0.00277918
0.00275896
0.00272312
0.00161973
0.0015844
0.00186671
0.00181303
0.00165872
0.00141388
0.00154982
0.00239213
0.00267527
0.00414747
0.00429529
0.00459775
0.00491558
0.00503531
0.00506771
0.0050872
0.00510964
0.00515799
0.00521577
0.0052334
0.00523505
0.00528706
0.00527868
0.00527951
0.00525148
0.00521909
0.00518119
0.00514063
0.00507436
0.00493866
0.00461455
0.00429703
0.00484436
0.00488916
0.00498065
0.00507535
0.00511609
0.00512297
0.00510494
0.0050682
0.00502441
0.00497382
0.0049713
0.00510563
0.00513807
0.00516119
0.0051441
0.00512558
0.0051192
0.00509713
0.00506135
0.00496917
0.00487665
0.00483722
0.00475714
0.00488371
0.00493905
0.00494635
0.00499256
0.00506746
0.00508858
0.00508742
0.0050507
0.00502033
0.00498133
0.00491627
0.00482985
0.00454663
0.00460902
0.00468696
0.00478936
0.00488827
0.00496808
0.00501284
0.00501567
0.00496942
0.00493823
0.00493925
0.00489764
0.00491924
0.00494156
0.00491667
0.00491401
0.00491788
0.00486184
0.00475998
0.00461828
0.00446864
0.0043459
0.00428536
0.0041829
0.00450319
0.00463149
0.00474434
0.00484374
0.00493373
0.00502459
0.00505307
0.00504383
0.00498908
0.00495858
0.00495861
0.00491211
0.00490938
0.00495406
0.00495436
0.00497953
0.00502662
0.00501234
0.00494563
0.00477435
0.00460846
0.00446414
0.00432591
0.00417684
0.00415489
0.00422276
0.00416099
0.00421464
0.0043594
0.00454259
0.00470129
0.00480319
0.00483533
0.00486523
0.0049093
0.00490442
0.00487793
0.00486359
0.004804
0.00475212
0.00468831
0.00454879
0.00437141
0.00421616
0.00416979
0.00425716
0.00434317
0.00426403
0.00394831
0.0041045
0.00425029
0.00439507
0.00460126
0.00484029
0.00494508
0.00498276
0.00496007
0.00494295
0.00494221
0.00490011
0.00488477
0.00492331
0.00492461
0.0049419
0.00497155
0.00493985
0.00485387
0.00456
0.00421257
0.00404662
0.00394958
0.0038147
0.00428464
0.00437468
0.00426479
0.00419042
0.00430178
0.00443148
0.00456696
0.00465739
0.00469322
0.00474397
0.00481081
0.00484281
0.00479513
0.0047398
0.00467148
0.00463639
0.00463628
0.00461347
0.00452616
0.00442388
0.00430531
0.00445223
0.00454044
0.00445835
0.00402205
0.00408766
0.00418247
0.00423349
0.00455998
0.00484927
0.00491856
0.00492209
0.00489414
0.00487683
0.00487985
0.00485633
0.00480915
0.00479829
0.00479087
0.00484403
0.00491485
0.00495298
0.00497082
0.00475346
0.00436707
0.00431273
0.00413697
0.00405456
0.00451807
0.00457002
0.00446033
0.00436101
0.00456965
0.00465836
0.00468321
0.00466478
0.00461579
0.00458335
0.00464207
0.00473454
0.00466418
0.0043617
0.00409256
0.00423067
0.0042644
0.00425345
0.00419573
0.00409959
0.00389211
0.0043492
0.00479729
0.00483269
0.0043454
0.00435184
0.00421223
0.00391066
0.00428474
0.00448562
0.00453138
0.00451663
0.00445076
0.00428524
0.00453016
0.00474521
0.00470573
0.00425758
0.002762
0.00280065
0.00282165
0.00282519
0.00278922
0.00277962
0.00274023
0.00272024
0.00265858
0.00259606
0.0025357
0.00270511
0.00284974
0.00304401
0.0030607
0.00314144
0.00301136
0.00285393
0.00266769
0.00207624
0.00263441
0.0031429
0.00333723
0.00358779
0.00363935
0.00419339
0.00441183
0.00453164
0.00444716
0.00356727
0.00302658
0.00241893
0.00157309
0.000980206
0.00115086
0.00119732
0.00126253
0.00154886
0.00282577
0.00144617
0.00199795
0.00156207
0.00268046
0.00143559
0.000897083
0.000595311
0.000762258
0.000908497
0.000919441
0.000880391
0.000733795
0.000577017
0.000589761
0.000549526
0.000583704
0.000522987
0.000598585
0.000556225
0.00076529
0.00111684
0.00129861
0.00133112
0.00107762
0.00121875
0.00101854
0.00117661
0.00105188
0.00114704
0.00110077
0.00134623
0.00147539
0.00141201
0.00141527
0.00123842
0.000866162
0.00100424
0.000789061
0.00094776
0.000725218
0.000936051
0.000802763
0.00104317
0.00107525
0.00107203
0.00103203
0.000788274
0.000934152
0.000735806
0.000908578
0.000748303
0.000803722
0.000669846
0.000974778
0.000993542
0.000915211
0.000976293
0.00109724
0.00117568
0.00128893
0.00121443
0.00137682
0.00132425
0.00133432
0.00126443
0.00123042
0.00120281
0.00120579
0.00118614
0.00119257
0.00123082
0.00123227
0.00123676
0.00127518
0.00125643
0.00122525
0.00120614
0.00107178
0.00086563
0.00150814
0.00155508
0.00157919
0.00157952
0.00154535
0.00152682
0.0014714
0.00145705
0.00140979
0.00138356
0.00132083
0.00127104
0.001213
0.00136404
0.000763876
0.00086746
0.000915683
0.000943418
0.000961963
0.000970737
0.000977161
0.000971437
0.000958987
0.000935891
0.000928698
0.000903311
0.00115494
0.00131378
0.00137457
0.00139145
0.00130426
0.00124252
0.00273093
0.00330814
0.00501615
0.00512667
0.00385518
0.00384078
0.00132412
0.00140105
0.000957007
0.00134488
0.00138691
0.00137268
0.00129637
0.000934765
0.00140283
0.00097837
0.00131569
0.000991775
0.00122053
0.00102248
0.00146447
0.00187113
0.00180987
0.00164171
0.0011365
0.000949955
0.000958681
0.000819241
0.000898238
0.000729437
0.000886156
0.000739462
0.00107554
0.00149668
0.00168047
0.00171612
0.00135429
0.00186979
0.00140646
0.00203858
0.00162229
0.00200393
0.00161017
0.00186135
0.00230351
0.00231424
0.00225928
0.00182084
0.00145735
0.00163675
0.00144925
0.00167042
0.00241578
0.00158276
0.00240835
0.000994172
0.00135555
0.00139757
0.00137863
0.00129996
0.000875436
0.00222679
0.00117839
0.00209079
0.00135382
0.00216442
0.00158101
0.00210686
0.00252058
0.00264276
0.00263778
0.00215443
0.0019509
0.00202993
0.00162363
0.00195066
0.00144528
0.00209191
0.00117593
0.00152074
0.00167135
0.00176182
0.00176693
0.00144914
0.00286629
0.00180158
0.00271966
0.00189385
0.00242748
0.00194652
0.0021269
0.00251261
0.00249648
0.00247484
0.00209836
0.00169921
0.00224389
0.00159875
0.0480692
0.110696
0.0441976
0.111919
0.0505988
0.0718526
0.070778
0.0708996
0.0711657
0.0534583
0.116628
0.137751
0.143638
0.145407
0.14435
0.233254
0.190246
0.285757
0.185211
0.109142
0.0474407
0.0653233
0.168292
0.277689
0.416736
0.528788
0.360375
0.373015
0.238024
0.234663
0.220963
0.178821
0.109746
0.0550937
0.00940247
0.0102691
0.0147112
0.0196175
0.0154196
0.00941417
0.00186191
0.00192032
0.00196242
0.001988
0.00197938
0.00193511
0.00196333
0.00185058
0.00173572
0.00193704
0.00211231
0.00234084
0.00273535
0.00301585
0.00271595
0.00297493
0.00315195
0.00329578
0.0034145
0.003592
0.00379229
0.00396874
0.00397824
0.00364532
0.00310679
0.00252754
0.00212512
0.00201365
0.0018911
0.00166783
0.00152603
0.00142942
0.00138259
0.00136328
0.00140105
0.00153116
0.00164389
0.00168337
0.00165016
0.00161962
0.00159301
0.0014183
0.00165813
0.00227438
0.00229217
0.00392687
0.00452452
0.00461842
0.00462475
0.00409976
0.00261885
0.00262458
0.00263799
0.00268819
0.00269872
0.00270566
0.00270284
0.00269339
0.00267771
0.00264863
0.00263406
0.00259166
0.00255587
0.00246694
0.00247102
0.00250471
0.00253013
0.00248901
0.00249982
0.00244571
0.00316607
0.00423699
0.00478855
0.00500545
0.00519187
0.00503992
0.0069797
0.00596449
0.00419693
0.00414127
0.00408777
0.00485313
0.00488658
0.00440048
0.0044158
0.00402898
0.00251161
0.00249905
0.00250036
0.00267151
0.00272287
0.00281507
0.0028402
0.00286333
0.00287684
0.00287273
0.00287114
0.00284767
0.00282905
0.00276684
0.00274593
0.00273752
0.00150941
0.00164692
0.00170743
0.00171843
0.00174229
0.00173186
0.00172144
0.0017009
0.00168701
0.00165919
0.00162665
0.00157917
0.00148548
0.00135411
0.00149111
0.00253356
0.00253416
0.0041417
0.00466488
0.00469982
0.00524678
0.00497949
0.00471676
0.00506725
0.00456112
0.00452232
0.00409132
0.00253881
0.0025727
0.00152557
0.00151027
0.00176467
0.00171441
0.00183174
0.00188093
0.00188631
0.00191171
0.00193696
0.0019676
0.00201635
0.00203078
0.00200015
0.00199466
0.0018803
0.00162548
0.0016453
0.00193877
0.00203194
0.00188639
0.00185248
0.00183842
0.0017945
0.00176058
0.00172766
0.0017509
0.0018858
0.00188515
0.00185308
0.00176482
0.00172068
0.00149393
0.00144588
0.0025224
0.00254423
0.00417541
0.00431189
0.00429534
0.00494414
0.00550668
0.00626355
0.00534308
0.00433384
0.00446014
0.00509781
0.00377872
0.00312276
0.00185503
0.00142404
0.00172163
0.0016664
0.00173368
0.00179616
0.00159451
0.00171073
0.00158076
0.00143611
0.00142777
0.00142574
0.00146114
0.00147584
0.00150245
0.00150594
0.00154144
0.00153786
0.00154224
0.00156106
0.00157003
0.00173471
0.00188599
0.00158694
0.00134545
0.00131031
0.00123734
0.001178
0.00120682
0.00117861
0.00117156
0.00115022
0.00113088
0.00107917
0.00112494
0.00119393
0.00139696
0.00133841
0.00108167
0.000966238
0.000660623
0.000672947
0.000677602
0.000698497
0.000706054
0.000715366
0.000718789
0.000730429
0.000732649
0.000736281
0.000735962
0.000753436
0.000750802
0.000742115
0.000736503
0.000740278
0.000743762
0.0007432
0.00108809
0.00121157
0.00132379
0.00157243
0.00185132
0.00159309
0.00134995
0.00116366
0.000748171
0.000759558
0.000773422
0.000780622
0.000797184
0.000812343
0.000829216
0.000839958
0.000848017
0.000856555
0.00086548
0.000869287
0.00086729
0.000850899
0.000841179
0.00086286
0.000948362
0.00099805
0.00106162
0.00108571
0.00110674
0.00111749
0.00111199
0.00112339
0.00111001
0.0011081
0.00108889
0.00108063
0.00107267
0.00106272
0.00105051
0.00102047
0.00101049
0.00106328
0.00179946
0.00235395
0.00271495
0.0029923
0.00275187
0.0022182
0.0023493
0.00412138
0.00388966
0.00230861
0.002148
0.0019731
0.00171124
0.00152805
0.00184865
0.00210677
0.00230295
0.00247635
0.00263476
0.00274217
0.00288021
0.00306042
0.00337935
0.00341936
0.00311891
0.00252766
0.00214022
0.00199935
0.00193174
0.00181381
0.00168514
0.00172744
0.00174003
0.0016884
0.00162427
0.00160611
0.00163274
0.00166658
0.00164662
0.00164571
0.00147004
0.0014695
0.00251064
0.00255791
0.00393443
0.00414518
0.00418515
0.00269044
0.00265359
0.00155008
0.00143958
0.00157038
0.0016301
0.00163347
0.00164006
0.00163174
0.00160316
0.00158232
0.00155796
0.00153828
0.00152096
0.00149104
0.0014342
0.00132504
0.00144426
0.00161893
0.00168995
0.00170821
0.00171695
0.00174394
0.00178852
0.00182411
0.00190669
0.00191508
0.00191433
0.00192111
0.0017958
0.00185199
0.00156754
0.0015653
0.00271272
0.00270542
0.00155444
0.00183524
0.00184771
0.00182632
0.00196621
0.00179923
0.00174218
0.00173292
0.00165958
0.00162057
0.00156843
0.00153748
0.00156783
0.00166825
0.00161595
0.0014326
0.00138157
0.00154895
0.00148932
0.00123546
0.0010554
0.00102624
0.000982289
0.000955604
0.00100156
0.00103745
0.00105792
0.00108389
0.00109157
0.00113926
0.00110843
0.00116315
0.00123347
0.00128948
0.0015295
0.00165754
0.00149744
0.00146872
0.00145051
0.00144896
0.00145355
0.00139371
0.00138977
0.00135882
0.00134357
0.00130303
0.0012848
0.00126164
0.00126586
0.00127935
0.00140657
0.00362232
0.00461666
0.00480661
0.00820576
0.00331717
0.00338913
0.00664938
0.00274759
0.00413156
0.00442907
0.00462805
0.00483439
0.00442533
0.00562003
0.00392236
0.00436594
0.00455782
0.00400421
0.0014931
0.00168966
0.00195641
0.00175155
0.00154723
0.00105453
0.00113704
0.00117433
0.0012046
0.00122435
0.00124618
0.00126963
0.00129155
0.00130692
0.00130712
0.00126738
0.00122452
0.00112613
0.00109331
0.00113563
0.00117933
0.00103588
0.000975343
0.000986875
0.00100311
0.00101225
0.00101419
0.00102416
0.00102683
0.00104257
0.00103417
0.00104211
0.00102429
0.00103337
0.0010198
0.000984999
0.000936139
0.000853124
0.000832768
0.00119942
0.00127722
0.0013418
0.00152275
0.00175855
0.00187668
0.00168233
0.00155163
0.00148946
0.00165254
0.00165326
0.00300212
0.00576281
0.00258134
0.00289105
0.00841306
0.00334825
0.00260584
0.00264503
0.00267266
0.00267635
0.00155547
0.00184193
0.00178573
0.001793
0.0015207
0.00127682
0.00114523
0.00102398
0.000694418
0.000692104
0.000697329
0.000708026
0.000711358
0.000680935
0.000680857
0.000676979
0.000675465
0.000661133
0.000657138
0.000645485
0.000638415
0.000621629
0.000612542
0.000596583
0.000593754
0.000619146
0.000688313
0.00083188
0.0009263
0.00105275
0.00107216
0.00120769
0.00299863
0.00347339
0.00478741
0.00474373
0.00747811
0.00467411
0.00353072
0.00319226
0.0046709
0.00482701
0.00448534
0.0060729
0.00420287
0.00278332
0.00417961
0.00347541
0.00413318
0.00404845
0.00429243
0.0068065
0.0071573
0.0020181
0.00179897
0.00189244
0.00214703
0.00254931
0.00234785
0.00267469
0.00267211
0.00206174
0.00131521
0.00418591
0.00505897
0.00405796
0.00486815
0.00749672
0.0030195
0.00294471
0.00260538
0.00217467
0.00197656
0.00195006
0.00217432
0.00260187
0.0065073
0.00696128
0.00641613
0.00639717
0.00581178
0.0063985
0.00796726
0.00792498
0.00700035
0.00654711
0.00678355
0.00421346
0.00262408
0.00305126
0.00337989
0.00450863
0.00464773
0.00979998
0.00333258
0.0036801
0.00373616
0.00499602
0.00483994
0.00853873
0.00362788
0.0039098
0.00514981
0.00687774
0.0126582
0.00463345
0.0048768
0.00700853
0.00711392
0.00650404
0.00470602
0.00426449
0.00464441
0.00350004
0.00342225
0.00292251
0.00431386
0.0057979
0.00459066
0.00445741
0.00379057
0.00337815
0.00345607
0.00358721
0.00298089
0.00293974
0.00339194
0.0025218
0.00243505
0.00258133
0.000715937
0.000366895
0.000375078
0.000384822
0.000392731
0.00040088
0.000406838
0.000413902
0.000417085
0.000417434
0.000418505
0.000442555
0.000438443
0.000424573
0.00038553
0.000439939
0.000698117
0.000698572
0.000439431
0.000387396
0.000695085
0.00110746
0.00130555
0.00154443
0.00156351
0.00134907
0.00116975
0.000720088
0.000708759
0.000429634
0.000501769
0.000544916
0.000483314
0.000539398
0.00049993
0.00052954
0.000535062
0.000495087
0.00049232
0.000494215
0.000490454
0.000481743
0.000471092
0.0004581
0.00044788
0.00044228
0.000437926
0.000428409
0.000356038
0.000331854
0.000399076
0.000636463
0.000635577
0.00059576
0.000561685
0.000532574
0.0005193
0.000515577
0.000512738
0.000521681
0.000538535
0.000543303
0.000548092
0.000590559
0.000572078
0.000611056
0.000573457
0.000612679
0.00057505
0.000528988
0.000444167
0.000458257
0.000739204
0.000747075
0.00120691
0.0013806
0.00156556
0.00157356
0.00175677
0.00185034
0.00156727
0.00162711
0.00186441
0.0017363
0.00154745
0.0015535
0.00139738
0.00139872
0.00123906
0.00077443
0.000763913
0.000479812
0.000465994
0.000555667
0.000545944
0.000607192
0.000649845
0.00065007
0.000647956
0.000631723
0.000625873
0.000550384
0.000539567
0.00054028
0.000523944
0.000520451
0.000542697
0.000592281
0.000695186
0.000840907
0.000915604
0.000947462
0.000908524
0.000813418
0.000600443
0.000542519
0.000940316
0.000975882
0.00174751
0.00414954
0.0019286
0.00368531
0.00265918
0.000661848
0.000738333
0.000941522
0.00105505
0.00113921
0.00118757
0.00108548
0.000905697
0.000682002
0.000563274
0.000841202
0.000727417
0.00082161
0.00071763
0.000928626
0.00107373
0.00103876
0.00104659
0.000884499
0.000720573
0.000763131
0.000685146
0.000755221
0.000632282
0.000760756
0.000686767
0.000862994
0.000871082
0.00085294
0.000808459
0.000615557
0.000645847
0.00054177
0.000587694
0.00052768
0.000545404
0.000516843
0.000602659
0.000694452
0.00066649
0.000663879
0.000545468
0.000427437
0.000472112
0.000408272
0.000462099
0.000359164
0.000435091
0.000364834
0.00047231
0.000486912
0.00048951
0.000486392
0.000395761
0.000465448
0.000570245
0.000598746
0.000603636
0.000574906
0.000443233
0.000685858
0.000618832
0.000755544
0.000653432
0.000715329
0.000651377
0.000759246
0.000972364
0.00101516
0.00102188
0.000829077
0.000824068
0.00150373
0.0834516
0.00135267
0.0015989
0.00164883
0.00164291
0.00135839
0.00132505
0.00164126
0.001214
0.00171941
0.00108253
0.00183401
0.000699216
0.00106307
0.00114136