/*--------------------------------*- C++ -*----------------------------------*\
| =========                 |                                                 |
| \\      /  F ield         | OpenFOAM: The Open Source CFD Toolbox           |
|  \\    /   O peration     | Version:  v2012                                 |
|   \\  /    A nd           | Website:  www.openfoam.com                      |
|    \\/     M anipulation  |                                                 |
\*---------------------------------------------------------------------------*/
FoamFile
{
    version     2.0;
    format      ascii;
    class       volScalarField;
    location    "1140";
    object      alphat;
}
// * * * * * * * * * * * * * * * * * * * * * * * * * * * * * * * * * * * * * //

dimensions      [1 -1 -1 0 0 0 0];


internalField   nonuniform List<scalar> 
18258
(
0.00485573
0.00211268
0.00173244
0.00150174
0.000992863
0.00162542
0.00225708
0.00268666
0.00281845
0.00279381
0.00289212
0.00487952
0.006847
0.00846108
0.00888767
0.00887384
0.00805391
0.00769018
0.0083518
0.0102719
0.00864096
0.00553545
0.00663032
0.00766579
0.00834706
0.00739534
0.00597761
0.00553617
0.00501358
0.0041798
0.00350508
0.00239134
0.00175662
0.00162815
0.00147568
0.00168218
0.00183225
0.00195396
0.00199772
0.00202915
0.00201526
0.00200365
0.00194935
0.00191565
0.0018584
0.00153665
0.0018552
0.00190829
0.00208885
0.00288358
0.00309697
0.00260499
0.00288359
0.00257239
0.0016953
0.00194122
0.00210741
0.00215285
0.00212507
0.00203674
0.00200688
0.00198159
0.00194958
0.00191161
0.00188844
0.00190727
0.00192695
0.00190592
0.00181215
0.00173616
0.00161322
0.00148999
0.0013986
0.0013278
0.00127442
0.00121531
0.00114888
0.00100915
0.000935257
0.00123834
0.00155452
0.00166083
0.00235382
0.00286965
0.00288889
0.00216228
0.00154084
0.00159901
0.00177782
0.00179601
0.0015224
0.00181063
0.00205134
0.00212629
0.00221588
0.00247642
0.00281802
0.00274681
0.00244614
0.00225327
0.00222256
0.00254213
0.00241366
0.00312999
0.0031556
0.00275694
0.00252836
0.00284587
0.00366964
0.00394955
0.00307258
0.00288545
0.00282847
0.00279289
0.00252558
0.00261335
0.00237293
0.00213812
0.00232905
0.00281548
0.00267071
0.00291752
0.00302284
0.00283572
0.00328564
0.00378885
0.00373387
0.00298808
0.00243542
0.00227022
0.00228761
0.00139911
0.00151089
0.00162852
0.00166839
0.00169622
0.00171992
0.00183395
0.00182982
0.00180304
0.00179906
0.00183124
0.00100899
0.00109307
0.0011202
0.00112804
0.00107146
0.00106047
0.00104074
0.00102467
0.000965966
0.000924244
0.00110597
0.00124194
0.00135278
0.00148232
0.00167581
0.00191256
0.00216139
0.00241286
0.00257928
0.00262684
0.00267483
0.00257809
0.00248062
0.00256924
0.00258421
0.00256756
0.00253312
0.00248964
0.00243091
0.00232322
0.00244845
0.00244187
0.00229404
0.00196541
0.00200963
0.00200618
0.00205843
0.00204772
0.00206827
0.00203881
0.00200428
0.00190774
0.00177306
0.00147639
0.00144268
0.00146092
0.00187585
0.00227719
0.00351734
0.00428988
0.00497923
0.0053271
0.00570103
0.00461405
0.00513565
0.00396
0.00355516
0.00451812
0.00591099
0.00337256
0.00184222
0.00349287
0.00309908
0.00224857
0.00200114
0.00206184
0.00206236
0.00236475
0.002727
0.00302814
0.00317456
0.0033035
0.00340678
0.00352014
0.00366388
0.00370279
0.00357693
0.00302673
0.00364911
0.00296343
0.00345987
0.00312679
0.00211283
0.00221191
0.00235444
0.00215813
0.00210038
0.00201057
0.00181153
0.00223727
0.00290475
0.00337176
0.00385481
0.00513807
0.00475357
0.00456115
0.00353162
0.00341508
0.00177331
0.00253031
0.00261869
0.00294727
0.0019588
0.00178737
0.00169596
0.00224159
0.00259751
0.00306676
0.00340298
0.00404251
0.00313407
0.00357729
0.00323636
0.00225604
0.00217026
0.00310755
0.00334779
0.00275414
0.00246049
0.00308736
0.00292206
0.0020731
0.00165635
0.00254532
0.00263485
0.0018919
0.00472591
0.00503371
0.00480607
0.0058569
0.00733006
0.00835365
0.00778625
0.00690164
0.00770074
0.0061115
0.00592733
0.00632998
0.00530883
0.00370331
0.00379728
0.00392681
0.00403247
0.00432914
0.00459895
0.00492879
0.00524352
0.00476664
0.00395787
0.00299496
0.0020606
0.00203318
0.00202322
0.0018167
0.00269221
0.00407196
0.00404332
0.00229694
0.00133921
0.0015152
0.00171111
0.00169439
0.00122912
0.000925295
0.00159405
0.00182263
0.00185204
0.00180603
0.00170517
0.00178179
0.00286135
0.00440805
0.0048435
0.00501647
0.00518008
0.00529558
0.00535972
0.00537987
0.00539095
0.00540462
0.00541665
0.00543515
0.00541825
0.00530284
0.00466428
0.0029326
0.00171432
0.00159259
0.00175768
0.00188904
0.00200377
0.00170501
0.00104242
0.00166507
0.00213201
0.0024504
0.00247123
0.00230629
0.0022372
0.00352759
0.00469025
0.00552848
0.00569813
0.00577352
0.00570989
0.00570134
0.00557652
0.00553727
0.00485519
0.00347587
0.00380081
0.00408131
0.0041287
0.0042246
0.00436848
0.0042675
0.00403111
0.00589111
0.00679703
0.00688392
0.00702987
0.00694593
0.00682514
0.00651431
0.00615945
0.00518499
0.00388812
0.00245309
0.00250404
0.00266542
0.00263965
0.00229754
0.00242121
0.00262799
0.00265433
0.00274118
0.00307441
0.00349211
0.00333082
0.00286579
0.00243426
0.00226657
0.00221931
0.00212951
0.00159535
0.00161897
0.00157346
0.00159927
0.00214794
0.00255644
0.00294837
0.0041826
0.00373107
0.00303426
0.00481304
0.00493153
0.00529867
0.00585295
0.00599801
0.00664645
0.0046256
0.00416825
0.00428197
0.00349765
0.00323734
0.00327179
0.00328409
0.00306042
0.00334983
0.00332049
0.00320061
0.00353374
0.0038944
0.00513565
0.00622372
0.00656739
0.00676633
0.0068481
0.00682285
0.0066899
0.00673153
0.00591224
0.0059055
0.005656
0.00549311
0.00543493
0.0051644
0.00591219
0.00613833
0.00621388
0.00636913
0.00661088
0.00643215
0.00623192
0.0060796
0.00596914
0.00585349
0.00591594
0.0060263
0.00614393
0.00630909
0.00652977
0.00656639
0.00633781
0.00616501
0.00604671
0.00593556
0.00594022
0.00603936
0.00615489
0.00631864
0.00652763
0.00641153
0.00624916
0.00610443
0.00598565
0.00588103
0.00567533
0.00581261
0.00596355
0.00608795
0.00616856
0.0053293
0.00569655
0.00559838
0.0050684
0.00474354
0.00360225
0.00389845
0.0041111
0.00447775
0.00497042
0.00506726
0.00425206
0.00364379
0.00355054
0.00352182
0.00360461
0.00363452
0.0036523
0.00412706
0.00622132
0.00626312
0.00628045
0.0062828
0.00537147
0.00521937
0.00486293
0.00889487
0.00828044
0.00717355
0.00591095
0.00316728
0.00271496
0.00321627
0.00391116
0.00437263
0.00482495
0.00320358
0.00198398
0.00231205
0.00239664
0.0023372
0.00215998
0.00179943
0.00166105
0.00150752
0.00162247
0.00287391
0.00458695
0.005167
0.00522201
0.00517027
0.00506955
0.00494683
0.00477586
0.00472091
0.00596401
0.00808723
0.00909728
0.00905725
0.00778066
0.0063488
0.00358488
0.00185306
0.00137359
0.00146137
0.00160636
0.00188389
0.00167625
0.00142727
0.00156287
0.00147471
0.00298277
0.00513851
0.00652673
0.00775447
0.00763937
0.00665052
0.00542105
0.00512804
0.00524779
0.00532932
0.00539831
0.00546899
0.00551741
0.00548651
0.00499356
0.00308457
0.00184115
0.00163563
0.00175845
0.00206099
0.0021904
0.00221333
0.00218299
0.00189269
0.00313087
0.00497072
0.00316156
0.0017248
0.00186335
0.00184943
0.00326257
0.00325782
0.00318799
0.00495981
0.00524482
0.00523264
0.00491669
0.00469308
0.00277875
0.0031547
0.00316557
0.00318229
0.00323442
0.00163409
0.00178136
0.00183702
0.00197805
0.00172817
0.00219413
0.000567858
0.000787388
0.000914774
0.00099495
0.00107204
0.00105165
0.00201245
0.00204246
0.00194884
0.00189741
0.00240781
0.00258366
0.00264043
0.00243161
0.00224359
0.00238835
0.00239382
0.00225621
0.00213702
0.00221547
0.00221688
0.00212448
0.00180699
0.00169326
0.00185886
0.00183895
0.0018244
0.00327573
0.00326988
0.00309478
0.00508402
0.00500262
0.00560277
0.00556609
0.00555881
0.00553558
0.00559505
0.00562669
0.00565078
0.00567863
0.00566789
0.00561317
0.00780755
0.00552214
0.00481873
0.00278707
0.0026848
0.00189617
0.00166186
0.00195685
0.00209293
0.00226904
0.00221776
0.00233785
0.00233496
0.0024777
0.00229968
0.00204191
0.00312724
0.00334075
0.0032628
0.00332727
0.00324897
0.00322979
0.00320616
0.00316077
0.003106
0.00184952
0.00181431
0.00212457
0.00223021
0.00239639
0.00241802
0.00247052
0.00234293
0.00206046
0.00199447
0.00229708
0.00226607
0.00231025
0.00217813
0.00216901
0.00193219
0.00198115
0.00399419
0.00737081
0.00379524
0.00421562
0.00381975
0.0043442
0.00380542
0.00328214
0.00335921
0.00295884
0.00308643
0.00323745
0.00329599
0.00346413
0.00408337
0.00393114
0.00345067
0.00335052
0.00328459
0.00309713
0.00278783
0.00292015
0.00294624
0.00300944
0.0033447
0.00383686
0.00430044
0.00522605
0.00507127
0.00444252
0.00406184
0.00425951
0.00433385
0.00545554
0.00509639
0.00506625
0.00534482
0.00529207
0.0050223
0.00475856
0.00459312
0.0039436
0.00400836
0.00458671
0.00443849
0.00457426
0.00449409
0.00467268
0.00475734
0.00456566
0.00424312
0.00446227
0.0044536
0.00494522
0.00480882
0.00446128
0.00407986
0.00436301
0.00431108
0.00497908
0.004686
0.00438259
0.00403528
0.00386612
0.00438749
0.00430669
0.00488264
0.00502503
0.00502741
0.00438346
0.00428083
0.00509025
0.00489664
0.0047313
0.0049283
0.00408199
0.00419719
0.00517019
0.00527818
0.00500844
0.00418238
0.00424506
0.00363913
0.00428004
0.00532717
0.00503159
0.00412424
0.00342299
0.0047881
0.00503693
0.00532787
0.00503547
0.00548319
0.00590633
0.00481519
0.00523827
0.00684357
0.00522648
0.00606468
0.00619873
0.00623486
0.00623765
0.00626125
0.00629185
0.00662756
0.00644432
0.0041009
0.0049024
0.00476384
0.00398729
0.00339369
0.00373733
0.00402518
0.00408356
0.00418735
0.00434676
0.00427163
0.00412811
0.00604407
0.00689415
0.0070455
0.00718431
0.0070647
0.00688677
0.00648227
0.00599272
0.0049866
0.00372137
0.00232584
0.00237205
0.00252895
0.00250638
0.00217559
0.00164063
0.00107811
0.00159744
0.00165066
0.00155484
0.00141835
0.0012548
0.00130252
0.00236528
0.00428809
0.00621047
0.0069307
0.00751737
0.0081073
0.00862552
0.00901487
0.00930493
0.00950964
0.00964123
0.00967203
0.00949724
0.00866728
0.00828283
0.00780351
0.00740761
0.00685615
0.00642171
0.00726405
0.00797785
0.0084149
0.00890581
0.00913063
0.00903186
0.00783785
0.00760927
0.00877304
0.0108102
0.00919538
0.0115557
0.0135729
0.010569
0.00948974
0.0094734
0.0105958
0.0108026
0.0104262
0.00983547
0.00915573
0.00829081
0.00873407
0.00913455
0.00951881
0.0098733
0.01078
0.0109315
0.0108423
0.0106567
0.0104194
0.0101083
0.00963991
0.00898578
0.00817609
0.00734037
0.00638018
0.00436124
0.00221276
0.00249264
0.00246082
0.0024944
0.00250096
0.00119531
0.0013187
0.00133331
0.00133938
0.00126067
0.0014344
0.00207474
0.00333564
0.00239944
0.00197933
0.00137247
0.00160776
0.00267925
0.00453197
0.00510999
0.00521855
0.00559704
0.00732087
0.0079931
0.0084395
0.00880764
0.00902705
0.00892383
0.00865456
0.00817106
0.00756281
0.00731126
0.00689791
0.00652538
0.00631449
0.00610293
0.00572074
0.00448286
0.00432609
0.00450458
0.00444864
0.00425792
0.00454963
0.00471332
0.00470859
0.00476017
0.0048052
0.00494635
0.0051126
0.00525719
0.00533276
0.00536044
0.0053688
0.00537933
0.00538763
0.00540375
0.00538518
0.00526709
0.00462491
0.00289259
0.00168882
0.0015614
0.00171194
0.00181036
0.00185246
0.00164517
0.00105913
0.00164591
0.00213037
0.00218497
0.00239718
0.00247275
0.00262033
0.00291761
0.00337115
0.00347846
0.00308682
0.00292403
0.00286233
0.00278969
0.00239123
0.00297984
0.00328136
0.00327435
0.00324253
0.00350426
0.00431219
0.00414254
0.00365338
0.00361354
0.00357773
0.00324046
0.00319147
0.00348153
0.0035194
0.00364986
0.00427918
0.00513123
0.00476081
0.00433668
0.00415879
0.00384132
0.00338497
0.00306083
0.00375547
0.00307652
0.00163475
0.00139552
0.00138352
0.00139114
0.00134509
0.00159296
0.00167422
0.00169408
0.00157132
0.00174359
0.00194035
0.00187673
0.0021291
0.00210085
0.00188098
0.00186545
0.00201255
0.00211963
0.00217541
0.0022413
0.00366248
0.00378329
0.00292613
0.00422344
0.00487081
0.00482468
0.00511455
0.00421355
0.00377616
0.0044804
0.00517476
0.00593098
0.00469318
0.00443818
0.00454026
0.00209126
0.00110041
0.00155226
0.00192692
0.00214725
0.00208266
0.00196718
0.00166301
0.00294479
0.00302582
0.00478979
0.00537328
0.00544063
0.00540788
0.00557681
0.0061587
0.00717745
0.00790842
0.00812202
0.0080044
0.0076703
0.00704854
0.00642809
0.00636847
0.00613342
0.0059562
0.00589538
0.00511509
0.00453267
0.00484659
0.004766
0.00492565
0.00499939
0.00505245
0.00510649
0.00519745
0.00530728
0.00540679
0.00547426
0.00551882
0.00555635
0.00559496
0.00563394
0.00567624
0.00569858
0.0056437
0.00510004
0.00306065
0.00182554
0.00166566
0.00177726
0.00208871
0.00219912
0.00236359
0.00209916
0.00110581
0.00129978
0.00225928
0.00250415
0.00231664
0.00216823
0.00212962
0.00178408
0.00322975
0.00318711
0.00499925
0.00562249
0.00570136
0.00568598
0.0056424
0.00559338
0.00554781
0.00551056
0.00548117
0.00544973
0.00540411
0.00534834
0.00529562
0.00524213
0.00514999
0.0050181
0.00488297
0.00507842
0.00523638
0.00544506
0.00569047
0.00582673
0.00572699
0.00556209
0.0054764
0.0054997
0.00554484
0.00559277
0.00563593
0.0056563
0.00559398
0.00527269
0.0049489
0.00313671
0.00317731
0.00156541
0.00173907
0.00200656
0.00207233
0.00225092
0.00224092
0.00176264
0.00137342
0.00154906
0.00144716
0.002584
0.00284123
0.00314997
0.00311866
0.00169528
0.00173862
0.00180696
0.00203897
0.00189628
0.00183179
0.00450033
0.00431788
0.00452262
0.00554758
0.00478052
0.00330367
0.00362042
0.00503708
0.00531067
0.00321222
0.00240984
0.00267211
0.003385
0.00498271
0.00504351
0.00478996
0.00476453
0.00348099
0.00427939
0.00514643
0.00500511
0.00390624
0.00269154
0.00200362
0.000976309
0.00185722
0.00158821
0.00388673
0.00430045
0.00424856
0.0046454
0.00493671
0.00498743
0.00484503
0.00429959
0.00438473
0.00442767
0.00504302
0.00506408
0.00429046
0.00362094
0.00294351
0.00296917
0.00302595
0.00335247
0.00419741
0.00395502
0.00346699
0.00336253
0.00329068
0.00309595
0.00279427
0.00245157
0.00246831
0.00229733
0.00222323
0.00350423
0.00466412
0.0054998
0.00565814
0.00571579
0.00562866
0.00558957
0.00543056
0.00534871
0.00464737
0.00593434
0.00627157
0.00605077
0.00609443
0.00613145
0.00617715
0.00617702
0.0060602
0.00520877
0.00311121
0.00203248
0.00229417
0.00247633
0.00232558
0.00231225
0.00246419
0.00233808
0.00205367
0.00332712
0.00325179
0.00519853
0.00588606
0.00601288
0.00602126
0.0059978
0.00597847
0.00598663
0.00630179
0.00615695
0.00623424
0.00656282
0.0065767
0.00665693
0.00625035
0.00617112
0.00612067
0.00608701
0.00603198
0.00588425
0.00520753
0.0050485
0.00573274
0.00590907
0.00598725
0.00604158
0.0061067
0.00619245
0.00643888
0.00662166
0.00668817
0.00641792
0.00632213
0.00617622
0.00596718
0.00591779
0.00590734
0.0059024
0.00587322
0.00572029
0.00503597
0.00323845
0.00331838
0.00197425
0.00198723
0.00228893
0.00240431
0.0023616
0.00218703
0.00213241
0.00366173
0.00416785
0.00443547
0.00477543
0.00456055
0.0045344
0.00518359
0.00501663
0.00447503
0.00465521
0.00417405
0.00397906
0.00384358
0.00386355
0.00203858
0.00219966
0.00229423
0.00225597
0.00215724
0.00192399
0.00176436
0.0032195
0.00319597
0.00315398
0.00187615
0.00183512
0.00216205
0.00209979
0.00192099
0.00163748
0.00179498
0.0027704
0.00309839
0.00480366
0.00497543
0.00532648
0.00569635
0.00583681
0.00587501
0.00589771
0.00592392
0.00597941
0.00604552
0.00606377
0.00606174
0.00611625
0.00610788
0.00610776
0.00607336
0.00603469
0.00599029
0.00594339
0.00586713
0.00571076
0.00533652
0.00496957
0.00560314
0.00565485
0.00576055
0.00587027
0.00591791
0.005927
0.00590803
0.00586817
0.00582101
0.00576489
0.00576325
0.0059178
0.00595305
0.00598
0.00596135
0.00594155
0.00593551
0.00591081
0.00586941
0.00576086
0.00565174
0.00560474
0.00551102
0.00565889
0.00572447
0.00573477
0.00579051
0.00587945
0.00590286
0.00589945
0.00585466
0.00581787
0.00577264
0.00569931
0.00560602
0.00528529
0.00535227
0.00543985
0.00555382
0.00566413
0.00575318
0.00580255
0.00580419
0.00574941
0.00571273
0.00571361
0.0056652
0.00569073
0.00571719
0.00568928
0.00568765
0.00569449
0.00563329
0.00551868
0.00535818
0.00518768
0.00504506
0.00496925
0.00484728
0.00522877
0.00537123
0.00549934
0.0056138
0.00571882
0.00582595
0.00586201
0.00585356
0.00578823
0.00575088
0.00574878
0.00569302
0.00569105
0.00574502
0.00574776
0.00577909
0.00583636
0.00581676
0.00573562
0.00553537
0.00534194
0.00517542
0.00501765
0.00484887
0.00478934
0.00486775
0.00480967
0.00488399
0.0050562
0.00526897
0.00545137
0.00556505
0.00559911
0.00563149
0.00568096
0.00567423
0.00564426
0.00562921
0.00556223
0.00550456
0.00543325
0.00527366
0.00506716
0.0048824
0.00481861
0.00491298
0.00501156
0.00492049
0.00458007
0.00476022
0.00492679
0.00509394
0.00533392
0.00561284
0.00573889
0.0057837
0.00575687
0.00573555
0.0057324
0.00568128
0.00566423
0.00571121
0.0057149
0.00573636
0.00577214
0.00573117
0.00562561
0.00528231
0.00487998
0.00468984
0.00457974
0.00442229
0.00494465
0.00504812
0.0049226
0.00483869
0.00497061
0.00512659
0.00528852
0.00539549
0.00543662
0.00549371
0.0055691
0.00560431
0.00554973
0.0054876
0.00541014
0.00537003
0.00536778
0.00533753
0.00523154
0.00511026
0.00497503
0.00514375
0.00524297
0.00514826
0.00466279
0.00474004
0.00484481
0.00490076
0.00527755
0.00561684
0.00570356
0.00571408
0.00568096
0.00565969
0.00566114
0.00563168
0.00557711
0.00556653
0.00555978
0.00562221
0.00570375
0.00573994
0.00575519
0.00549943
0.00505195
0.00499194
0.00479631
0.00469929
0.00521706
0.00527864
0.00515787
0.00504475
0.00528316
0.00538621
0.00541748
0.00539898
0.00534473
0.00530797
0.0053749
0.00548008
0.00539901
0.00505067
0.00473986
0.00489937
0.00493695
0.00492242
0.00485415
0.00474272
0.00450475
0.00502934
0.00554159
0.00558387
0.00503692
0.00504514
0.00487385
0.00452188
0.00495493
0.00519346
0.0052504
0.00523882
0.0051647
0.00497242
0.00525509
0.00550279
0.00545651
0.00493808
0.00320488
0.00324983
0.00327458
0.00327886
0.00323593
0.00322433
0.00317758
0.00315377
0.00308097
0.0030074
0.00293634
0.00313245
0.00330021
0.00352544
0.00354403
0.00363715
0.0034834
0.00329928
0.0030822
0.0023969
0.00304192
0.00362982
0.00385642
0.00414782
0.00420879
0.00485572
0.00510975
0.00524976
0.00515252
0.0041322
0.00350559
0.00280133
0.00182168
0.00113502
0.00133263
0.0013864
0.00146254
0.00179563
0.00329211
0.00168241
0.00233115
0.00182158
0.00313596
0.00166732
0.00103854
0.000688969
0.000881118
0.00104725
0.00105781
0.00101201
0.000842706
0.000660282
0.0006748
0.000628003
0.000666965
0.000599101
0.000686039
0.000639777
0.000886375
0.00131458
0.00151391
0.00154955
0.00125341
0.00141554
0.00118274
0.00136529
0.00121978
0.00132996
0.00127599
0.0015607
0.00171044
0.00163721
0.00164131
0.00143629
0.00100461
0.00116454
0.000915095
0.00109894
0.000841182
0.00108628
0.000931682
0.00121074
0.00124817
0.00124462
0.00119838
0.000915529
0.00108528
0.000854744
0.0010531
0.000866113
0.00092654
0.000771758
0.00112244
0.00114366
0.00105279
0.0011243
0.00126464
0.00135649
0.00149001
0.00140387
0.00159538
0.00153595
0.00155096
0.00146925
0.00142913
0.00139664
0.00139963
0.00137654
0.00138382
0.00142807
0.00142975
0.00143493
0.00147948
0.00145757
0.0014217
0.0013999
0.00124392
0.00100424
0.00174969
0.00180431
0.00183187
0.00183194
0.00179167
0.00177074
0.001708
0.00169154
0.00163764
0.00160694
0.00153498
0.00147694
0.00140994
0.00158458
0.000887098
0.00100723
0.0010632
0.00109507
0.00111675
0.00112685
0.00113457
0.00112799
0.00111368
0.00108656
0.0010778
0.00104811
0.00134047
0.00152466
0.00159464
0.00161391
0.001513
0.00144137
0.00315886
0.00382416
0.00580705
0.00593405
0.00445831
0.00444298
0.00153555
0.00162326
0.00110968
0.00155952
0.00160841
0.00159226
0.0015042
0.00108503
0.00162844
0.00113538
0.00152737
0.0011497
0.00141595
0.00118175
0.00168977
0.00215683
0.00208378
0.001888
0.00130125
0.00108418
0.00109124
0.000930595
0.00101951
0.000830078
0.00101187
0.000848792
0.00124594
0.00175337
0.00195685
0.00199685
0.00157496
0.00217405
0.00163471
0.00236861
0.00188253
0.00232401
0.00186571
0.00215813
0.00267058
0.00268294
0.00261942
0.00211132
0.00169098
0.00189826
0.00168146
0.0019371
0.00280122
0.00183598
0.0027902
0.00115265
0.00157168
0.00162056
0.00159886
0.00150799
0.00101622
0.00258574
0.00136832
0.0024303
0.0015735
0.0025171
0.00183512
0.00244199
0.00292002
0.00305779
0.00304921
0.00248768
0.002249
0.0023358
0.00186631
0.00224106
0.00166192
0.00240791
0.00135809
0.00175994
0.00194045
0.00204458
0.00205128
0.00168374
0.0033283
0.00209077
0.00315639
0.00219631
0.00281494
0.00225628
0.00246681
0.00291369
0.00289523
0.00287053
0.002434
0.00197067
0.00260176
0.00185494
0.0555425
0.12812
0.0510619
0.129478
0.0585542
0.0831325
0.0818993
0.0820593
0.0823724
0.0618499
0.135043
0.159529
0.166345
0.168362
0.167113
0.270054
0.22023
0.330868
0.214495
0.126319
0.0548314
0.0755529
0.19484
0.321617
0.482581
0.612316
0.417249
0.431905
0.275603
0.271747
0.25587
0.207035
0.127016
0.0637055
0.0109188
0.0119578
0.0171048
0.0227706
0.0178999
0.0109387
0.00216065
0.00222911
0.00227876
0.00230955
0.00230119
0.00225225
0.0022885
0.00216229
0.00203334
0.00227153
0.00247558
0.00268777
0.00315428
0.00348315
0.00313722
0.00343918
0.00364573
0.00381368
0.00395198
0.00415798
0.00439015
0.00459488
0.00460601
0.0042202
0.00359603
0.0029259
0.0024609
0.00233212
0.00219039
0.00193173
0.00176752
0.00165619
0.00160167
0.00157887
0.00162222
0.00177242
0.00190222
0.0019476
0.00190871
0.00187365
0.00184305
0.00164105
0.00191849
0.00263161
0.00265329
0.00454554
0.00523774
0.00534641
0.00535358
0.00474759
0.0030333
0.00303982
0.00305537
0.00311335
0.00312542
0.00313282
0.00312936
0.00311757
0.00309925
0.00306493
0.00304803
0.00299885
0.00295768
0.00285572
0.00286034
0.00289806
0.00292732
0.00288024
0.00289286
0.00283083
0.00364538
0.00488748
0.00554025
0.00579216
0.00600947
0.00583396
0.00807209
0.00688876
0.00484853
0.00478965
0.00472844
0.00560762
0.00564645
0.00509926
0.005119
0.00465969
0.00290497
0.00289
0.00289165
0.00309
0.00314952
0.00325912
0.0032888
0.00331746
0.00333354
0.00333128
0.00333012
0.00330393
0.00328268
0.00321033
0.00318606
0.00317606
0.00175102
0.00191077
0.00198122
0.00199356
0.00202046
0.00200766
0.00199441
0.00197023
0.0019534
0.00192065
0.00188172
0.00182658
0.00171796
0.00156596
0.00172446
0.00293037
0.00293105
0.00478919
0.00540806
0.00544692
0.00606221
0.00575591
0.00545223
0.00585414
0.00528055
0.0052397
0.0047321
0.00293561
0.00297515
0.00176378
0.00174651
0.00204054
0.00198264
0.0021186
0.00217583
0.00218319
0.00221336
0.0022432
0.00227923
0.00233692
0.0023548
0.00232059
0.0023149
0.00218165
0.00188551
0.00190843
0.00224964
0.0023585
0.00218839
0.00214783
0.0021305
0.00207854
0.00203876
0.00200015
0.00202628
0.00218149
0.00218007
0.00214284
0.00203999
0.00198847
0.00172606
0.00166922
0.00291565
0.00294407
0.00484805
0.00499822
0.00496677
0.00571066
0.00636025
0.00724007
0.00617503
0.00501737
0.0052032
0.00594225
0.00440814
0.00365139
0.00217402
0.0016521
0.00201667
0.00192477
0.00200405
0.00207651
0.0018439
0.00197884
0.00182923
0.00166195
0.00165275
0.00165054
0.00169182
0.00170894
0.00174005
0.00174416
0.00178609
0.00178211
0.00178793
0.00180991
0.00182129
0.0020125
0.00218939
0.0018417
0.00156097
0.00151917
0.00143436
0.00136507
0.00139824
0.00136495
0.00135671
0.00133179
0.00130931
0.00124923
0.00130202
0.00138154
0.00161623
0.00154829
0.00125145
0.00111815
0.000764532
0.000778977
0.000784373
0.000808668
0.000817445
0.000828279
0.00083226
0.00084584
0.000848436
0.000852689
0.000852334
0.000872898
0.000869891
0.000859952
0.00085346
0.000857831
0.000861976
0.000861439
0.0012613
0.00140475
0.00153617
0.00182519
0.00214958
0.00184972
0.00156694
0.00134944
0.0008674
0.000880584
0.000896819
0.000905136
0.000924582
0.000942212
0.000962025
0.000974558
0.000984091
0.000994039
0.0010045
0.00100888
0.00100659
0.000987412
0.000976084
0.00100107
0.00110016
0.0011577
0.00123137
0.00125921
0.00128331
0.00129549
0.00128902
0.00130225
0.00128666
0.00128437
0.00126207
0.00125243
0.00124317
0.00123157
0.00121738
0.00118252
0.00117091
0.00123202
0.00208595
0.00272912
0.00314728
0.00346951
0.00319822
0.00258486
0.00272856
0.00478918
0.00452664
0.00268054
0.0024982
0.00230081
0.00200514
0.00176573
0.00213272
0.00243341
0.0026621
0.00286393
0.00304839
0.00317342
0.00333342
0.00354193
0.00391131
0.00395786
0.00361013
0.0029264
0.00247901
0.00231707
0.00223929
0.00210257
0.0019532
0.00200203
0.00201639
0.00195629
0.0018816
0.00186014
0.00189064
0.00192889
0.00190555
0.00190476
0.00170155
0.00170101
0.00290631
0.00296272
0.00455694
0.00480096
0.00484688
0.00311694
0.00307394
0.00179562
0.00166744
0.001819
0.00188809
0.00189188
0.00189937
0.00188931
0.00185614
0.00183177
0.00180351
0.00178063
0.00176068
0.0017262
0.00166078
0.00153395
0.00167218
0.00187529
0.00195742
0.00197833
0.00198818
0.00201945
0.00207084
0.00211219
0.00220775
0.00221809
0.00221731
0.00222524
0.00208031
0.00214564
0.00181604
0.00181364
0.00314311
0.00313501
0.00180111
0.00212678
0.00214089
0.00211576
0.00227752
0.00208426
0.00201812
0.00200675
0.00192184
0.0018766
0.0018165
0.00178071
0.00181612
0.00193268
0.00187244
0.00165911
0.00160128
0.00179526
0.00172548
0.00143141
0.00122278
0.00118887
0.00113788
0.00110697
0.00116013
0.00120151
0.00122511
0.00125513
0.00126405
0.00131922
0.00128377
0.00134753
0.001429
0.00149375
0.00177201
0.00192019
0.00173473
0.00170146
0.00168034
0.00167804
0.00168319
0.00161395
0.00160936
0.00157354
0.00155593
0.00150922
0.00148814
0.00146138
0.00146636
0.0014821
0.00162952
0.00420129
0.00535361
0.00557503
0.00951071
0.00384582
0.00392909
0.00769343
0.00318693
0.00478934
0.00513351
0.00536745
0.00560508
0.0051287
0.00650252
0.00454631
0.00505919
0.0052854
0.00465375
0.00172479
0.00192826
0.00224282
0.00202036
0.00178547
0.0012178
0.00131446
0.00135818
0.00139349
0.00141664
0.00144201
0.00146929
0.00149481
0.00151277
0.00151315
0.00146737
0.00141793
0.00130427
0.00126639
0.00131549
0.00136625
0.00120032
0.00113025
0.00114373
0.00116274
0.00117348
0.0011759
0.00118767
0.00119092
0.00120941
0.00119975
0.0012092
0.00118867
0.00119947
0.00118354
0.00114297
0.00108627
0.000989658
0.00096588
0.00139108
0.0014812
0.00155612
0.00176542
0.00203816
0.00217466
0.00194909
0.00179728
0.00172522
0.00191391
0.00191364
0.00347085
0.00666018
0.0029866
0.00334771
0.00973115
0.00387475
0.00301852
0.00306441
0.00309673
0.00310093
0.00180218
0.00213464
0.00206989
0.00207768
0.001762
0.00147915
0.00132677
0.00118635
0.00080433
0.000801606
0.000807662
0.000819908
0.000823695
0.000788547
0.000788455
0.000783962
0.000782193
0.000765645
0.000761024
0.000747588
0.000739435
0.00072009
0.000709577
0.000691062
0.000687564
0.00071359
0.000790582
0.000954653
0.00106701
0.0012103
0.00123368
0.0013971
0.00347888
0.00403135
0.00555228
0.00550096
0.00867759
0.00542074
0.00409524
0.0037057
0.00542088
0.00559975
0.00520861
0.00705703
0.00488373
0.0032275
0.00477172
0.00395219
0.00478392
0.00466076
0.0049327
0.00782735
0.00826082
0.00233231
0.00207974
0.00218875
0.00248276
0.00294745
0.00271095
0.00308995
0.00308135
0.00237243
0.00152371
0.00485484
0.00585659
0.00466924
0.00558212
0.00867186
0.00349308
0.00340732
0.00301504
0.00251657
0.00228751
0.00225639
0.0025156
0.00301028
0.00754709
0.00807068
0.00738036
0.00733408
0.00666566
0.00738149
0.00921504
0.00918993
0.00811196
0.00758945
0.00784091
0.00481552
0.00303974
0.00354085
0.00391876
0.00522748
0.00538969
0.0113845
0.00385944
0.00426651
0.0043317
0.00579774
0.005608
0.00992383
0.00419837
0.00453009
0.00596794
0.00796613
0.0147044
0.00535753
0.00565069
0.00812863
0.00824889
0.00754071
0.0054488
0.00494138
0.00538821
0.00405863
0.00396735
0.00338965
0.00500661
0.00674215
0.0053231
0.00516919
0.00440218
0.00390415
0.0040126
0.00415998
0.00345458
0.0034082
0.00393863
0.00291261
0.00281224
0.00299365
0.000828807
0.000424878
0.000434462
0.000445733
0.000454879
0.000464269
0.000471175
0.000479309
0.000483041
0.000483398
0.000484605
0.000512445
0.000507813
0.000491761
0.000446544
0.000509612
0.00080872
0.000809322
0.000509094
0.00044884
0.000805232
0.00128311
0.00151263
0.00178978
0.00181212
0.00156333
0.0013554
0.000834184
0.000821126
0.000497774
0.000581324
0.000631318
0.000559909
0.000624804
0.000579062
0.000613428
0.000619555
0.000573247
0.000570112
0.000572353
0.000567951
0.000557908
0.000545566
0.000530501
0.000518515
0.000511676
0.000506007
0.000494128
0.000412035
0.000383458
0.000459328
0.000730304
0.000729134
0.000684227
0.00064653
0.000614599
0.000600429
0.000596745
0.000593705
0.000604082
0.000623652
0.000629143
0.000634596
0.000683723
0.000662765
0.000707937
0.000664277
0.000709749
0.000666264
0.000612882
0.000514618
0.000530949
0.000856428
0.00086552
0.00139858
0.00160022
0.00181486
0.00182435
0.00203646
0.00214441
0.00181571
0.00188499
0.00216051
0.00201257
0.00179423
0.00180113
0.00162031
0.00162156
0.00143606
0.000897356
0.000885145
0.000555975
0.000539936
0.000643837
0.000632532
0.00070352
0.000752851
0.000753151
0.000750705
0.000731332
0.000724503
0.000637247
0.000624821
0.000625636
0.000606619
0.000602351
0.000627273
0.000682863
0.000799761
0.000966627
0.00105297
0.00109089
0.00104759
0.000938654
0.000690682
0.000625644
0.0010827
0.00112599
0.0020008
0.00473898
0.00218306
0.00424036
0.00306131
0.000764077
0.000853334
0.00108829
0.00121958
0.00131642
0.00137078
0.0012514
0.00104324
0.000785687
0.000649069
0.000972087
0.00084067
0.000950675
0.000830473
0.00107472
0.00124277
0.00120241
0.00121162
0.00102412
0.000834464
0.000883689
0.000793628
0.000874808
0.000732358
0.000881163
0.00079567
0.000999924
0.00100933
0.00098836
0.00093687
0.000713377
0.000748489
0.000627815
0.000681012
0.00061136
0.000631887
0.000598788
0.000698301
0.000804652
0.00077223
0.000769193
0.000631983
0.00049518
0.000546855
0.000472697
0.000534971
0.000415744
0.00050368
0.000422474
0.000546843
0.000563573
0.000566193
0.000561835
0.000456388
0.000536534
0.000658853
0.000692484
0.00069847
0.000665655
0.000512984
0.000793928
0.000717047
0.000875575
0.000757664
0.000829068
0.000755095
0.000880116
0.00112706
0.00117657
0.00118436
0.00096081
0.000954706
0.00174146
0.0964791
0.00156649
0.00185145
0.00190909
0.00190216
0.00157281
0.00153478
0.0019005
0.00140638
0.00199109
0.00125364
0.00212284
0.00080935
0.00123023
0.00132077
0.00131788
0.00122469
0.000820381
0.00242503
0.119575
0.308346
0.334313
0.333722