/*--------------------------------*- C++ -*----------------------------------*\
| =========                 |                                                 |
| \\      /  F ield         | OpenFOAM: The Open Source CFD Toolbox           |
|  \\    /   O peration     | Version:  v2012                                 |
|   \\  /    A nd           | Website:  www.openfoam.com                      |
|    \\/     M anipulation  |                                                 |
\*---------------------------------------------------------------------------*/
FoamFile
{
    version     2.0;
    format      ascii;
    class       volVectorField;
    location    "1140";
    object      U;
}
// * * * * * * * * * * * * * * * * * * * * * * * * * * * * * * * * * * * * * //

dimensions      [0 1 -1 0 0 0 0];


internalField   nonuniform List<vector> 
18258
(
(-0.176171 0.112552 0.139409)
(-0.0516823 0.24446 0.159715)
(-0.104927 0.211374 0.096428)
(-0.0414264 0.0679466 0.0849346)
(-0.226489 0.199687 0.0198198)
(-0.160115 0.357294 0.0181775)
(-0.223654 0.0438528 0.0550504)
(-0.342219 -0.0543314 0.0760752)
(-0.449698 -0.106529 0.108655)
(-0.53678 -0.160174 0.146054)
(-0.622358 -0.217597 0.180172)
(-0.688481 -0.27197 0.30988)
(-0.679056 -0.334654 0.357454)
(-0.622467 -0.445827 0.385972)
(-0.48791 -0.543253 0.369348)
(-0.204389 -0.587465 0.340176)
(0.0747432 -0.374092 0.288269)
(0.0795441 -0.164678 0.298569)
(-0.126517 -0.0782095 0.23648)
(-0.396471 -0.273799 0.116123)
(-0.136428 -0.525119 0.290736)
(-0.193639 -0.364095 0.406601)
(-0.297716 -0.735711 0.300253)
(-0.357024 -0.77665 0.262404)
(-0.13235 -0.708629 0.135307)
(0.00595645 -0.645974 0.184513)
(-0.0155821 -0.339467 0.422438)
(0.175785 -0.112749 0.803778)
(0.300362 -0.095216 0.890475)
(0.317746 0.0578285 0.908734)
(0.319979 0.187694 0.808528)
(0.16474 0.302273 0.079195)
(0.0819027 0.124554 -0.435626)
(0.0171394 0.0746384 -0.730024)
(-0.0630365 0.0744964 -0.902266)
(-0.0536736 0.0716713 -1.08347)
(-0.0675927 0.0712407 -1.22481)
(-0.0955663 0.0895922 -1.32032)
(-0.136181 0.0805908 -1.36839)
(-0.182956 0.0865765 -1.35429)
(-0.232127 0.0727653 -1.26995)
(-0.278132 0.0816783 -1.11585)
(-0.316311 0.0762118 -0.904741)
(-0.346841 0.0767341 -0.649565)
(-0.356911 0.0788057 -0.355556)
(-0.34115 0.0746088 -0.156568)
(-0.163354 0.161076 -0.199333)
(0.344457 -0.0912903 -0.139204)
(0.608467 -0.128678 -0.160184)
(0.663861 -0.110986 -0.168643)
(0.779153 -0.135643 -0.177156)
(0.808916 -0.13385 -0.194201)
(0.505791 -0.00685797 -0.257475)
(0.259473 -0.138155 -0.218364)
(0.113467 -0.0425415 -0.158809)
(0.282006 -0.0101286 -0.169138)
(0.536674 -0.00288031 -0.173788)
(0.790711 -0.0303273 -0.178068)
(1.09094 -0.0349402 -0.175865)
(1.42652 -0.0490574 -0.185323)
(1.761 -0.0647694 -0.183703)
(2.04507 -0.0813269 -0.166803)
(2.24567 -0.0930062 -0.138365)
(2.3458 -0.0991208 -0.102756)
(2.35244 -0.0964362 -0.068184)
(2.29206 -0.0887445 -0.0415632)
(2.19849 -0.0822281 -0.0249708)
(2.10605 -0.0761061 -0.0182834)
(2.03668 -0.0673154 -0.0193462)
(1.99111 -0.0644895 -0.0240415)
(1.96685 -0.0593605 -0.0264977)
(1.95637 -0.0504807 -0.0209916)
(1.94216 -0.0400034 -0.00402498)
(1.89877 -0.0252146 0.0235149)
(1.81133 -0.00819946 0.0530823)
(1.69061 0.00913373 0.0763148)
(1.56993 0.0212949 0.0791426)
(1.47726 0.0302279 0.0745102)
(1.39923 0.0372124 0.0698839)
(1.33721 0.0497913 0.0625422)
(1.28644 0.0564419 0.0642282)
(1.19283 0.0436684 0.0775741)
(1.09563 0.0183919 0.108817)
(1.01253 8.7722e-05 0.126105)
(0.905058 -0.0215098 0.118909)
(0.761119 0.0163204 0.144353)
(0.640478 0.0814356 0.132165)
(0.516829 0.100443 0.132856)
(0.379835 0.117771 0.117205)
(0.223617 0.126427 0.0949825)
(0.119769 0.189628 0.0906738)
(0.121244 0.0111013 0.196217)
(0.163921 -0.100711 0.141882)
(0.112841 -0.129886 0.0373389)
(0.104265 -0.114935 -0.144984)
(0.215936 -0.20994 -0.374171)
(0.262111 -0.230958 -0.559507)
(0.20363 -0.137374 -0.730951)
(0.104958 -0.078982 -0.71166)
(0.0362431 0.0614366 -0.484705)
(-0.0972294 0.23514 -0.136861)
(-0.218481 0.19102 0.183686)
(-0.234677 0.0640062 0.158842)
(-0.340719 0.0136086 0.172857)
(-0.275948 0.134986 0.182373)
(-0.250421 0.284287 -0.0346254)
(-0.10667 0.166697 -0.3989)
(0.0619602 0.00654369 -0.582098)
(0.33193 -0.0928854 -0.633439)
(0.494112 -0.229156 -0.492819)
(0.350757 -0.2107 -0.283601)
(0.271293 -0.192093 -0.103623)
(0.282527 -0.186892 0.0368003)
(0.280215 -0.140114 0.158306)
(0.224371 -0.0989094 0.190162)
(0.395438 -0.081481 0.179063)
(0.534453 -0.0635096 0.174582)
(0.586928 -0.0523014 0.162851)
(0.698709 -0.0789591 0.158796)
(0.73121 -0.133908 0.130132)
(0.599923 -0.134396 0.132993)
(0.453651 -0.151874 0.13756)
(0.460771 -0.186105 0.0325987)
(0.609913 -0.162961 0.0485337)
(0.735189 -0.162117 0.0460007)
(0.903585 -0.141811 0.07855)
(1.08729 -0.109896 0.108231)
(1.18875 -0.0777546 0.145855)
(1.20765 -0.0108918 0.137945)
(1.24484 -0.00928804 0.118697)
(1.33501 -0.00713361 0.138189)
(1.37688 -0.00195485 0.128326)
(1.36857 -0.0126571 0.156866)
(1.32799 -0.048231 0.191735)
(1.32235 -0.0511439 0.188654)
(1.28532 -0.0620065 0.149623)
(1.27857 -0.0601477 0.132682)
(1.25742 -0.0475696 0.10653)
(1.24885 -0.0455674 0.108618)
(1.20085 0.0050021 0.107539)
(1.19384 0.0285584 0.136395)
(1.07586 0.137885 0.270593)
(1.22565 0.0534298 0.253248)
(1.21721 0.0205667 0.157216)
(1.2659 -0.0206535 0.126468)
(1.27813 -0.024839 0.117127)
(1.28876 -0.0381602 0.141878)
(1.30765 -0.0414952 0.181246)
(1.35007 -0.0367234 0.215251)
(1.38585 -0.0367299 0.220192)
(1.42274 -0.0129043 0.181612)
(1.43601 -0.00212088 0.136689)
(1.51219 -0.00670325 0.149806)
(1.61016 -0.0168701 0.157951)
(1.74927 -0.0317592 0.142419)
(1.88122 -0.0543206 0.048005)
(1.96251 -0.0757757 -0.0720579)
(1.98174 -0.0906146 -0.165032)
(1.96419 -0.0966132 -0.201208)
(1.94776 -0.0969354 -0.1951)
(1.95779 -0.0913078 -0.175265)
(2.00467 -0.0827649 -0.144812)
(2.08602 -0.0703078 -0.108182)
(2.19712 -0.0600678 -0.0842992)
(2.3113 -0.0597454 -0.113102)
(2.38828 -0.0608369 -0.173419)
(2.39102 -0.0584397 -0.27727)
(2.28517 -0.0501947 -0.392461)
(2.06977 -0.0425468 -0.483825)
(1.76944 -0.0367603 -0.540283)
(1.42571 -0.0316191 -0.549084)
(1.07982 -0.0193525 -0.527922)
(0.79148 -0.024451 -0.459545)
(0.536038 -0.0159612 -0.415591)
(0.282546 -0.0215836 -0.386885)
(0.109112 -0.0403583 -0.360663)
(0.102229 -0.0421914 -0.637172)
(0.0773834 -0.0373481 -0.873241)
(0.0507405 -0.0393133 -1.05788)
(0.0118862 -0.0405692 -1.17678)
(-0.0232031 -0.0282454 -1.21689)
(-0.059823 -0.0157618 -1.16973)
(-0.0935749 0.00316555 -1.04118)
(-0.118992 0.0265158 -0.825283)
(-0.121256 0.0819741 -0.563243)
(-0.145801 0.133351 -0.0502747)
(-0.192073 0.0271499 0.566042)
(-0.208096 -0.0330783 0.753044)
(-0.226611 -0.00204136 0.922411)
(-0.231881 -0.0446696 1.06541)
(-0.31764 -0.103699 1.12852)
(-0.37112 -0.109973 1.14199)
(-0.369558 -0.232054 1.00338)
(-0.297062 -0.250801 0.770672)
(-0.459667 -0.666492 0.687553)
(-0.486387 -0.543689 0.705407)
(-0.414354 -0.411447 0.832352)
(-0.550713 -0.765761 0.856154)
(-0.686044 -0.831859 0.60437)
(-0.476385 -0.75455 0.799617)
(-0.437254 -0.575326 0.741319)
(-0.785487 -0.525596 0.748212)
(-0.904146 -0.408578 0.858134)
(-0.531641 -0.70603 0.821447)
(-0.440798 -0.576766 0.662197)
(-0.320414 -0.316907 0.402176)
(-0.298989 -0.178181 0.396038)
(-0.282169 -0.142424 0.348601)
(-0.233023 0.116272 0.109589)
(-0.162339 0.295151 -0.42056)
(-0.152562 0.184529 -0.640154)
(-0.132204 0.0274339 -0.91575)
(-0.0869741 -0.0577798 -1.08712)
(-0.0288708 -0.0699599 -1.23484)
(0.0381381 -0.10258 -1.26938)
(0.0977536 -0.0990819 -1.23418)
(0.172211 -0.109867 -1.12013)
(0.21612 -0.123824 -0.920103)
(0.260368 -0.147073 -0.705584)
(0.249321 -0.139576 -0.398568)
(0.418185 -0.0517087 -0.637468)
(0.769703 -0.119006 -0.457619)
(0.723129 -0.109353 -0.413732)
(0.621787 -0.0738513 -0.407421)
(0.547516 -0.104114 -0.415991)
(0.112331 -0.101245 -0.5302)
(0.164851 -0.115444 -0.92071)
(0.24927 -0.2234 -1.07298)
(0.337879 -0.28208 -0.960045)
(0.3906 -0.352203 -0.5252)
(0.199851 0.0229849 0.144869)
(0.262841 0.118364 0.171932)
(0.429802 -0.322895 0.335505)
(0.51641 -0.529215 0.505003)
(0.545652 -0.523505 0.552781)
(0.413094 -0.23583 0.676788)
(0.47192 -0.33833 0.565933)
(0.486789 -0.610414 0.548783)
(0.703558 -0.673444 0.319964)
(0.745738 -0.488862 0.456904)
(0.797832 -0.345679 0.601045)
(0.234252 -0.225329 0.576096)
(-0.239005 -0.268394 0.826664)
(-0.175391 -0.191546 0.677343)
(-0.674044 -0.298681 0.81819)
(-0.471245 -0.180545 0.692392)
(-0.321309 -0.00269241 0.539707)
(-0.218421 0.176837 -0.29616)
(-0.192749 -0.0455748 -0.618026)
(-0.0569736 -0.170351 -1.10116)
(0.104106 -0.159482 -1.25031)
(0.275301 -0.0889776 -1.11816)
(0.43434 -0.108466 -0.700866)
(0.502678 -0.0743758 -0.625888)
(0.49547 -0.0425823 -0.616255)
(0.540634 -0.0866493 -0.643188)
(0.587562 -0.119965 -0.736101)
(0.398313 -0.0420652 -0.685853)
(0.358148 -0.0794658 -0.665611)
(0.134195 -0.114177 -0.672793)
(-0.109259 -0.0497671 -0.58435)
(0.293303 0.00211371 -0.594774)
(0.351579 0.012884 -0.615097)
(0.636478 -0.0986231 -0.65125)
(0.576977 -0.0982433 -0.391479)
(0.271736 0.0704014 -0.37288)
(0.279488 0.0521881 -0.263221)
(-0.304399 -0.0424568 0.10207)
(-0.307001 0.141516 -0.01143)
(-0.281879 -0.0263939 -0.451078)
(0.0877184 -0.201741 -0.578914)
(0.360185 -0.280315 -0.571005)
(0.722781 -0.346163 -0.407319)
(0.808171 -0.419395 -0.378604)
(0.769054 -0.291721 -0.295856)
(0.810431 -0.365921 -0.219892)
(0.825367 -0.487677 -0.284961)
(0.7372 -0.4322 -0.279939)
(0.715199 -0.305548 -0.33301)
(0.743445 -0.252192 -0.342686)
(0.789006 -0.311816 -0.212771)
(0.801035 -0.367307 -0.16122)
(0.889697 -0.465646 -0.157017)
(1.15622 -0.63192 -0.118018)
(1.61482 -0.727064 -0.0989528)
(1.992 -0.672488 -0.0383062)
(2.14869 -0.490406 0.0471176)
(2.06888 -0.291443 0.0950889)
(1.90379 -0.163663 0.102505)
(1.80642 -0.0956499 0.0990709)
(1.7097 -0.00104903 0.0986152)
(1.57216 0.0869001 0.0907435)
(1.43476 0.104846 0.0477121)
(1.33024 0.0549564 0.0269198)
(1.24039 -0.00711626 0.0211273)
(1.13856 -0.0565561 0.022748)
(1.05467 -0.0809897 0.0208701)
(0.996761 -0.0642627 0.0163058)
(0.820302 -0.111764 -0.0244996)
(0.715689 0.000605205 0.00886466)
(0.632462 0.0664815 0.00814522)
(0.496941 0.0208349 0.00579698)
(0.358931 -0.0625368 -0.0136859)
(0.138817 -0.147818 -0.0325965)
(0.225322 -0.308871 0.00139103)
(0.353086 -0.0821921 0.0119444)
(-0.00271063 -0.230633 -0.00927468)
(0.0427663 -0.54636 -0.0505975)
(0.0117679 -0.712889 -0.0527421)
(-0.00827178 -0.876767 -0.0533603)
(-0.0262275 -1.00677 -0.0651073)
(-0.0362763 -1.10265 -0.0960778)
(-0.0468678 -1.15696 -0.105393)
(-0.0584436 -1.21416 -0.118518)
(-0.0886802 -1.27577 -0.134498)
(-0.113763 -1.32036 -0.149805)
(-0.137721 -1.35393 -0.162713)
(-0.15973 -1.37544 -0.173759)
(-0.178726 -1.38667 -0.183407)
(-0.194108 -1.38826 -0.190102)
(-0.206243 -1.38117 -0.193946)
(-0.216291 -1.36648 -0.194066)
(-0.224896 -1.34459 -0.192157)
(-0.233226 -1.31412 -0.186722)
(-0.240929 -1.27319 -0.178379)
(-0.246399 -1.21893 -0.165333)
(-0.244281 -1.14979 -0.147574)
(-0.191253 -1.07038 -0.127183)
(-0.141415 -0.967866 -0.112872)
(-0.166036 -0.867516 -0.0797475)
(-0.190096 -0.753739 -0.0821725)
(-0.205343 -0.542388 -0.0857731)
(-0.274323 -0.449622 -0.092267)
(0.0219396 0.0538629 -0.116522)
(-0.350935 -0.307893 0.0248887)
(-0.23192 -0.616971 -0.0549252)
(-0.270732 -0.0991099 -0.011389)
(-0.45842 -0.182251 0.0644093)
(-0.679086 -0.198522 0.0822097)
(-0.842455 -0.209147 0.114061)
(-0.953801 -0.223037 0.144198)
(-1.03438 -0.232453 0.203771)
(-1.11753 -0.244263 0.245302)
(-1.18661 -0.244213 0.30201)
(-1.20031 -0.248509 0.336263)
(-1.17345 -0.250341 0.366166)
(-1.10674 -0.249126 0.394458)
(-0.996263 -0.243532 0.422632)
(-0.842097 -0.230636 0.454014)
(-0.668884 -0.206528 0.493372)
(-0.4218 -0.147574 0.542019)
(-0.140544 -0.11792 0.565414)
(-0.160151 0.0287102 0.821695)
(-0.16399 0.0831791 1.0426)
(-0.163644 0.115572 1.11296)
(-0.164723 0.16484 1.02203)
(-0.167596 0.153744 0.83981)
(-0.153525 0.13151 0.569428)
(-0.123089 0.1438 0.287339)
(-0.224532 0.440916 0.372143)
(-0.506008 0.468472 0.335809)
(-0.69056 0.481283 0.339998)
(-0.91529 0.46598 0.333375)
(-1.0973 0.425082 0.309195)
(-1.22426 0.353541 0.266305)
(-1.27988 0.273515 0.219027)
(-1.26257 0.206307 0.181669)
(-1.2298 0.148101 0.158362)
(-1.18707 0.115394 0.140424)
(-1.09777 0.0926812 0.0902406)
(-0.956317 0.0452949 0.0698944)
(-0.765357 -0.020625 0.059422)
(-0.499409 -0.113868 0.0190232)
(-0.252252 -0.207664 -0.0191623)
(-0.27358 -0.197497 -0.0665096)
(-0.317726 -0.176907 0.00771511)
(-0.313922 -0.174101 0.0586692)
(-0.272058 -0.156418 0.149615)
(-0.380221 -0.233365 0.117101)
(-0.421942 -0.296552 0.117088)
(-0.325855 -0.287571 0.175618)
(-0.268804 -0.214584 0.0433345)
(-0.140624 -0.100389 -0.0275733)
(-0.14059 -0.0766264 -0.00925907)
(-0.138711 -0.0739158 -0.0370495)
(-0.169569 -0.0555061 -0.0691684)
(-0.167927 -0.501147 -0.149964)
(-0.126419 -0.479063 -0.140299)
(-0.110595 -0.446544 -0.098135)
(-0.100396 -0.423374 -0.147881)
(-0.265747 -0.537053 -0.0332114)
(-0.275217 -0.574303 -0.0276368)
(-0.282304 -0.630455 -0.0861789)
(-0.336157 -0.582027 -0.0223523)
(-0.339234 -0.529163 0.0532385)
(-0.300701 -0.358597 0.0832966)
(-0.443474 -0.31665 0.113458)
(-0.360495 -0.431243 0.0389588)
(-0.346041 -0.521874 0.0122643)
(-0.376826 -0.507913 -0.0255632)
(-0.427579 -0.394034 0.0306467)
(-0.49633 -0.346175 0.0719428)
(-0.527906 -0.254593 0.16286)
(-0.59016 -0.215222 0.240588)
(-0.678994 -0.197315 0.255184)
(-0.575648 -0.206472 0.210755)
(-0.515994 -0.187627 0.180456)
(-0.544249 -0.184808 0.117247)
(-0.538842 -0.171885 0.0914962)
(-0.495433 -0.184068 0.000590641)
(-0.760394 -0.086486 0.0643146)
(-0.970028 -0.00527998 0.0894737)
(-1.07738 0.0522669 0.103402)
(-1.12647 0.0751637 0.138008)
(-1.16411 0.0359403 0.237647)
(-1.24853 0.0691432 0.266956)
(-1.3143 0.119545 0.348906)
(-1.32792 0.170984 0.431759)
(-1.27073 0.222065 0.524465)
(-1.14605 0.261052 0.604406)
(-0.973622 0.281341 0.649267)
(-0.774054 0.283236 0.658642)
(-0.622782 0.288146 0.645641)
(-0.342826 0.272016 0.646047)
(-0.43714 0.243913 0.876282)
(-0.469409 0.226367 1.00433)
(-0.462373 0.17849 1.08277)
(-0.443256 0.122229 1.01507)
(-0.44177 0.0574154 0.798471)
(-0.712358 -0.00572796 0.744912)
(-0.722926 0.0707299 0.945572)
(-0.741604 0.116599 1.02409)
(-0.74627 0.163492 0.980158)
(-0.695641 0.1981 0.873384)
(-0.837216 0.18587 0.863241)
(-0.879567 0.145315 0.965583)
(-0.882774 0.0879231 1.00142)
(-0.873257 0.0415446 0.926818)
(-0.867057 -0.0393925 0.707254)
(-1.0097 -0.0605474 0.675966)
(-1.02399 0.020254 0.901388)
(-1.03668 0.0692962 0.96649)
(-1.0445 0.121725 0.944635)
(-1.01916 0.173863 0.85481)
(-1.1624 0.16294 0.804586)
(-1.16324 0.110416 0.893139)
(-1.14687 0.0569885 0.914778)
(-1.13001 0.00629078 0.859566)
(-1.11027 -0.0732372 0.640153)
(-1.1701 -0.0837997 0.595507)
(-1.19527 -0.00630395 0.796918)
(-1.22132 0.0435548 0.84021)
(-1.25036 0.0917903 0.811753)
(-1.2678 0.141413 0.717192)
(-1.31722 0.11094 0.61031)
(-1.28892 0.0688729 0.709345)
(-1.25075 0.0250022 0.747271)
(-1.21566 -0.0217551 0.716387)
(-1.18593 -0.0935245 0.539761)
(-1.15265 -0.104695 0.472687)
(-1.1804 -0.0413528 0.621309)
(-1.21896 0.000248531 0.64065)
(-1.27304 0.0392289 0.606405)
(-1.30594 0.0743757 0.509078)
(-1.2231 0.035834 0.414157)
(-1.18645 0.00299603 0.499961)
(-1.12692 -0.0320889 0.531004)
(-1.08497 -0.060018 0.520053)
(-1.03912 -0.111714 0.386728)
(-0.918385 -0.120062 0.315131)
(-0.922512 -0.109285 0.358029)
(-0.971593 -0.0802895 0.438063)
(-0.955463 -0.086933 0.42481)
(-0.926457 -0.102493 0.394318)
(-1.00303 -0.0682608 0.381023)
(-0.994794 -0.0629111 0.307035)
(-0.999492 -0.0390176 0.282424)
(-1.04251 -0.0270601 0.20885)
(-1.03755 -0.00939524 0.202195)
(-0.805152 -0.10497 0.145039)
(-0.818008 -0.124996 0.157449)
(-0.78705 -0.128172 0.215758)
(-0.822866 -0.141244 0.248853)
(-0.608901 -0.281251 0.132284)
(-0.555954 -0.290918 0.113954)
(-0.502552 -0.326296 0.131475)
(-0.419272 -0.398919 0.114961)
(-0.396124 -0.383414 0.148376)
(-0.487321 -0.283705 0.164244)
(-0.605 -0.238705 0.182732)
(-0.614046 -0.267413 0.0959254)
(-0.512367 -0.377289 0.0428811)
(-0.43871 -0.459294 0.0269815)
(-0.39662 -0.525522 0.0564806)
(-0.383379 -0.697002 0.120548)
(-0.386495 -0.662423 0.126503)
(-0.404682 -0.379774 0.105317)
(-0.407473 -0.535846 0.079848)
(-0.398466 -0.60107 0.0420097)
(-0.215134 -0.786972 -0.16081)
(-0.192935 -0.792641 -0.261035)
(-0.115113 -0.702787 -0.370144)
(-0.0784629 -0.622692 -0.386179)
(-0.0449749 -0.587257 -0.348423)
(-0.0133452 -0.554133 -0.301821)
(0.0317699 -0.500148 -0.23194)
(0.124031 -0.453565 -0.108784)
(0.124608 -0.577845 -0.121795)
(0.116743 -0.633853 -0.120026)
(0.0848773 -0.691576 -0.157566)
(0.0923422 -0.746035 -0.155857)
(0.100533 -0.802652 -0.175102)
(0.118327 -0.830877 -0.167148)
(0.126343 -0.837498 -0.152866)
(0.126498 -0.823454 -0.130155)
(0.117709 -0.787213 -0.0955257)
(0.104257 -0.729882 -0.0419925)
(0.0358574 -0.648289 0.0346446)
(0.00277736 -0.53762 0.157333)
(0.0175028 -0.289623 0.364237)
(-0.15533 0.0279417 0.448435)
(-0.371159 0.0989237 0.348564)
(-0.394724 -0.0365821 0.257598)
(-0.221195 -0.173395 0.251306)
(-0.183234 -0.191208 0.268212)
(-0.160333 -0.181758 0.215568)
(-0.0978066 -0.149927 0.207505)
(-0.00525062 -0.0531633 0.0768968)
(-0.0331593 0.103928 0.0822164)
(-0.0801713 0.141859 0.0812389)
(-0.0484333 0.207647 0.173075)
(-0.0019265 0.172865 0.196872)
(0.0153881 0.0145078 0.145923)
(-0.0517493 -0.0392307 0.232033)
(0.0225146 0.0814761 0.328562)
(-0.00556222 -0.07134 0.289161)
(0.0734759 0.138816 0.251353)
(0.0887915 -0.0235506 0.225713)
(-0.0237467 -0.248951 0.454916)
(0.0467172 -0.351405 0.545288)
(0.17072 -0.492347 0.517832)
(0.170544 -0.686123 0.355654)
(0.0775142 -0.811638 0.147236)
(0.0590259 -0.884702 -0.00608644)
(0.0656972 -0.920326 -0.118812)
(0.0634999 -0.947058 -0.197362)
(0.0604313 -0.961861 -0.248733)
(0.0523131 -0.960218 -0.279635)
(0.0421483 -0.940433 -0.293121)
(0.0295355 -0.902967 -0.290003)
(0.0239573 -0.827958 -0.250031)
(0.00751005 -0.782449 -0.329169)
(0.0436959 -0.701556 -0.225488)
(0.0477989 -0.651447 -0.211321)
(0.0449976 -0.634239 -0.23211)
(0.00480262 -0.700186 -0.325759)
(-0.0224786 -0.740004 -0.383803)
(-0.0572071 -0.775629 -0.411598)
(-0.0730369 -0.842535 -0.402515)
(-0.131501 -0.902909 -0.347164)
(-0.0935492 -0.967123 -0.333537)
(-0.0885317 -0.977755 -0.374398)
(-0.0535842 -0.916511 -0.41896)
(-0.0434254 -0.866387 -0.432685)
(-0.0176415 -0.823938 -0.404954)
(-0.00934618 -0.867242 -0.341937)
(-0.039014 -0.899799 -0.375091)
(-0.0557036 -0.946653 -0.397714)
(-0.0234178 -0.989539 -0.40677)
(-0.0483695 -1.05787 -0.42187)
(-0.0664342 -1.04064 -0.425468)
(-0.0929925 -0.918597 -0.346375)
(-0.185809 -0.760383 -0.225715)
(-0.196781 -0.613585 -0.042696)
(-0.0991704 -0.731895 -0.199112)
(-0.0791181 -0.837733 -0.261806)
(-0.0591596 -0.926858 -0.325603)
(-0.0608923 -0.9445 -0.336248)
(-0.0279269 -0.827961 -0.383711)
(-0.0241554 -0.723076 -0.340183)
(-0.0323073 -0.540592 -0.257321)
(-0.0167104 -0.352722 -0.167414)
(0.0359588 -0.0885307 -0.213374)
(-0.245465 -0.432309 0.0715773)
(-0.326701 -0.46003 0.0251809)
(0.217351 -0.119397 -0.243671)
(-0.172888 -0.247006 0.0413051)
(-0.217831 -0.266096 -0.11903)
(-0.258116 -0.268364 -0.104807)
(-0.208172 -0.281258 -0.0223977)
(0.0808714 0.141386 -0.220189)
(0.102454 0.0603949 -0.233464)
(0.100607 0.000279183 -0.262977)
(0.0955831 -0.000343529 -0.267598)
(-0.0807355 -0.428877 -0.203886)
(-0.133607 -0.44925 -0.224201)
(-0.186777 -0.457591 -0.207865)
(-0.249713 -0.444454 -0.169933)
(-0.16924 -0.546603 -0.184913)
(-0.127097 -0.558317 -0.258349)
(-0.0965752 -0.56455 -0.292969)
(-0.0610742 -0.55279 -0.293722)
(-0.0511495 -0.741576 -0.350867)
(-0.0818516 -0.756237 -0.333482)
(-0.106555 -0.768606 -0.282771)
(-0.147406 -0.759004 -0.195416)
(-0.134701 -0.820697 -0.182907)
(-0.128969 -0.881523 -0.200944)
(-0.0982793 -0.904067 -0.298386)
(-0.072834 -0.871121 -0.375186)
(-0.0494891 -0.850813 -0.401961)
(-0.0771399 -0.966173 -0.372378)
(-0.112406 -0.987998 -0.33697)
(-0.138336 -1.0083 -0.284643)
(-0.13749 -1.09085 -0.347688)
(-0.0803306 -1.06502 -0.400633)
(-0.0727761 -1.14264 -0.442003)
(-0.0493656 -1.12096 -0.474678)
(-0.0267358 -1.11186 -0.459997)
(-0.00303253 -1.04003 -0.416343)
(0.0123645 -1.07192 -0.407264)
(-0.0125808 -1.15037 -0.47066)
(-0.03991 -1.1776 -0.495147)
(-0.0688143 -1.20594 -0.463852)
(-0.131893 -1.22663 -0.379689)
(-0.13524 -1.16431 -0.369857)
(-0.284086 -1.0447 -0.22548)
(-0.457998 -1.14437 -0.0769385)
(-0.464401 -1.09841 -0.0674818)
(-0.416569 -1.04401 -0.064866)
(-0.303355 -1.03452 -0.0740055)
(-0.256039 -0.965811 -0.064235)
(-0.309674 -0.943372 -0.0578147)
(-0.342808 -0.847694 -0.0423753)
(-0.378502 -0.712562 -0.0380489)
(-0.474243 -0.626056 -0.036858)
(-0.410385 -0.401073 -0.0343191)
(-0.465585 -0.66009 -0.00592894)
(-0.317287 -0.457177 0.0244698)
(-0.638956 -0.398454 0.00540804)
(-0.815738 -0.379163 0.0601417)
(-0.918079 -0.384364 0.0846259)
(-0.967894 -0.397169 0.124349)
(-0.979914 -0.525114 0.0977635)
(-0.940446 -0.689067 0.0653633)
(-0.924204 -0.74974 0.0524956)
(-0.874817 -0.847957 0.036459)
(-0.859232 -0.895072 0.0304912)
(-0.82145 -0.92725 0.00763143)
(-0.70426 -0.966705 -0.0229956)
(-0.593136 -1.00108 -0.0420212)
(-0.62738 -0.951741 -0.0172202)
(-0.485601 -0.970613 -0.0307671)
(-0.503538 -0.892417 -0.0301828)
(-0.531147 -0.796087 -0.0233532)
(-0.56 -0.730021 -0.0195528)
(-0.687012 -0.711757 -0.00979925)
(-0.675555 -0.597666 -0.00779047)
(-0.824568 -0.576856 0.0303462)
(-0.918723 -0.559327 0.0504157)
(-0.881723 -0.696621 0.0231619)
(-0.800905 -0.704045 0.0122061)
(-0.77806 -0.789097 0.0022926)
(-0.661526 -0.797431 -0.0107726)
(-0.636391 -0.881702 -0.0170413)
(-0.749041 -0.865435 -0.00512435)
(-0.825973 -0.849959 0.00446437)
(-0.863543 -0.772462 0.0135291)
(-0.802005 -0.73835 -0.011763)
(-0.624187 -0.611419 0.00181753)
(-0.847469 -0.659215 0.0116828)
(-0.868231 -0.518025 0.0520224)
(-0.870633 -0.379599 0.0580814)
(-0.843285 -0.282045 0.121517)
(-0.832409 -0.302059 0.0764557)
(-0.879126 -0.350476 0.0525415)
(-0.875134 -0.203793 0.129012)
(-0.893993 -0.184138 0.174066)
(-0.760562 -0.161379 0.158389)
(-0.76592 -0.128919 0.259069)
(-0.776984 -0.120612 0.301754)
(-0.820365 -0.108498 0.355058)
(-0.827732 -0.119095 0.352327)
(-0.641329 -0.181469 0.250558)
(-0.606562 -0.17339 0.248001)
(-0.566882 -0.180246 0.215197)
(-0.550691 -0.175382 0.188701)
(-0.568735 -0.191006 0.120181)
(-0.338362 -0.194434 0.0763503)
(-0.320005 -0.18893 0.101231)
(-0.328861 -0.191678 0.11355)
(-0.360053 -0.198529 0.123705)
(-0.448355 -0.216618 0.141007)
(-0.404544 -0.253044 0.0588593)
(-0.381397 -0.284555 0.0674461)
(-0.409887 -0.340503 0.0462386)
(-0.315335 -0.426212 0.034931)
(-0.311129 -0.39374 0.0480202)
(-0.283096 -0.415522 0.0144311)
(-0.192537 -0.418789 -0.0215809)
(-0.33648 -0.253694 0.034521)
(-0.402197 -0.330312 0.0403589)
(-0.24775 -0.456627 -0.00758608)
(-0.291105 -0.458986 -0.000683255)
(-0.450953 -0.320694 0.0712556)
(-0.523677 -0.298538 0.130695)
(-0.497303 -0.318186 0.135827)
(-0.470466 -0.336364 0.110953)
(-0.458545 -0.350187 0.0940202)
(-0.493321 -0.372768 0.00835317)
(-0.710744 -0.31751 0.0630387)
(-0.717978 -0.529344 0.0388285)
(-0.549281 -0.553744 -0.00199376)
(-0.510249 -0.606309 -0.00429969)
(-0.466128 -0.648511 -0.0178391)
(-0.437308 -0.651789 -0.0217007)
(-0.413162 -0.530507 -0.0235768)
(-0.41156 -0.540599 -0.0487816)
(-0.410477 -0.54103 -0.0347334)
(-0.335693 -0.549992 -0.0177002)
(-0.267868 -0.595314 -0.00800742)
(-0.320023 -0.580223 -0.0041975)
(-0.403682 -0.512461 0.00663702)
(-0.332261 -0.534852 -0.00473834)
(-0.439246 -0.629698 -0.0122534)
(-0.293183 -0.472752 -0.00572329)
(-0.210771 -0.539163 -0.0190532)
(-0.281583 -0.524051 -0.0169369)
(-0.394667 -0.435623 -0.00118039)
(-0.41407 -0.362383 -0.0107894)
(-0.260877 -0.393843 -0.0116245)
(-0.157281 -0.422353 -0.0371529)
(-0.136673 -0.398892 -0.0235205)
(-0.23833 -0.204969 0.0216237)
(-0.382875 -0.342542 -0.00253159)
(-0.25221 -0.474044 -0.0204212)
(-0.21943 -0.467435 -0.0243887)
(-0.122316 -0.392222 -0.0309138)
(-0.219184 -0.194115 0.0384329)
(-0.346974 -0.337574 0.0116281)
(-0.366126 -0.362844 0.0537998)
(-0.195981 -0.510474 -0.0116018)
(-0.174159 -0.467464 0.0178759)
(-0.11002 -0.419607 0.000891922)
(-0.222205 -0.228688 0.0439938)
(-0.325808 -0.341464 0.0518557)
(-0.334812 -0.338535 0.0564046)
(-0.180553 -0.462654 0.0158856)
(-0.109272 -0.40839 -0.000934702)
(-0.231683 -0.220112 0.0613519)
(-0.285631 -0.221147 0.0767094)
(-0.240189 -0.2299 0.0704083)
(-0.350007 -0.336573 0.0778286)
(-0.18955 -0.46476 0.0474341)
(-0.117767 -0.415119 0.0362286)
(-0.140445 -0.449156 -0.00507167)
(-0.196412 -0.497016 0.024842)
(-0.381368 -0.350256 0.0786349)
(-0.334174 -0.624729 -0.00421678)
(-0.355762 -0.631443 -0.0121459)
(-0.49924 -0.511326 0.0576858)
(-0.651123 -0.444295 0.0981945)
(-0.666443 -0.286508 0.136243)
(-0.797766 -0.271383 0.170436)
(-0.890411 -0.320554 0.166321)
(-1.02078 -0.488704 0.125985)
(-1.10745 -0.495095 0.167682)
(-1.13232 -0.502809 0.192812)
(-1.11243 -0.505266 0.215776)
(-1.04933 -0.501663 0.238635)
(-0.944034 -0.490847 0.260512)
(-0.795549 -0.467672 0.287106)
(-0.641509 -0.432753 0.326571)
(-0.399293 -0.380815 0.394528)
(-0.167274 -0.291059 0.480978)
(0.0317519 -0.149393 0.486303)
(0.32992 -0.158067 0.429077)
(0.332632 -0.21861 0.380385)
(0.204345 -0.126369 0.490091)
(0.271022 -0.00123586 0.768776)
(0.282248 0.0484625 1.03339)
(0.267959 0.0834055 1.14209)
(0.250557 0.135675 1.09038)
(0.213473 0.124431 0.952337)
(0.143603 0.12169 0.700323)
(0.0406553 0.185661 0.401538)
(0.175662 0.51137 0.423739)
(0.422263 0.513327 0.373432)
(0.608658 0.537442 0.37473)
(0.852613 0.49699 0.350799)
(1.01145 0.417308 0.317036)
(1.07788 0.323954 0.273191)
(1.0659 0.257337 0.232959)
(1.02152 0.211283 0.196052)
(1.04294 0.158132 0.165229)
(1.05192 0.118999 0.142687)
(0.991694 0.0933771 0.0898197)
(0.885194 0.0425269 0.0673574)
(0.719453 -0.0223655 0.0542447)
(0.474359 -0.109461 0.0205205)
(0.246448 -0.217345 -0.0207076)
(0.106239 -0.626656 -0.108948)
(0.181977 -0.387809 -0.0801681)
(-0.177505 -0.174654 0.0082777)
(-0.0995304 -0.39788 -0.0379588)
(-0.108537 -0.321884 -0.0649158)
(-0.11067 -0.350871 -0.0737845)
(-0.107667 -0.314513 -0.065884)
(-0.0788509 -0.248752 -0.0619132)
(-0.131076 -0.205152 -0.0572761)
(-0.216719 0.0468651 0.101501)
(-0.152773 0.407845 0.134278)
(-0.0431874 0.534473 0.0775074)
(0.0389679 0.623381 0.104155)
(0.127217 0.6726 0.199277)
(0.221427 0.731293 0.301427)
(0.312777 0.768562 0.337641)
(0.395697 0.764591 0.366961)
(0.473026 0.70016 0.373882)
(0.538525 0.559959 0.37062)
(0.590606 0.337315 0.336402)
(0.570614 0.00638114 0.262835)
(0.392361 -0.333456 0.257921)
(0.291914 -0.331242 0.321133)
(0.226233 -0.284895 0.330361)
(0.158877 -0.19348 0.336758)
(0.147102 0.00383574 0.312907)
(0.288794 0.00955313 0.339563)
(0.450414 -0.156379 0.331011)
(0.602021 -0.253799 0.342927)
(0.640921 -0.343065 0.351912)
(0.621521 -0.435342 0.353675)
(0.475268 -0.540904 0.335084)
(0.105572 -0.566494 0.31766)
(-0.172181 -0.298986 0.303416)
(-0.03951 -0.127767 0.355961)
(0.231179 -0.15026 0.237169)
(0.283984 -0.402761 0.0721678)
(0.00982356 -0.517838 0.237265)
(-0.140423 -0.746777 -0.140687)
(0.204013 -0.718197 -0.480416)
(0.308506 -0.388742 -0.176795)
(0.331884 -0.373625 0.094013)
(0.344093 -0.544934 0.184668)
(0.325308 -0.889767 0.120507)
(0.529792 -0.871302 0.0651123)
(0.608366 -0.689941 0.0991377)
(0.573861 -0.535865 0.13983)
(0.504343 -0.392933 0.190428)
(0.335595 -0.227444 0.248159)
(0.359962 -0.342665 0.197417)
(0.42367 -0.373371 0.144226)
(0.505123 -0.359988 0.0820796)
(0.615936 -0.293188 -0.055548)
(0.862876 0.195984 -0.11765)
(0.907152 0.478515 -0.0226253)
(0.852787 0.681701 0.047936)
(0.754893 0.784812 0.0906784)
(0.628688 0.812787 0.136867)
(0.485131 0.782903 0.156994)
(0.326346 0.719983 0.175491)
(0.159177 0.639964 0.129696)
(-0.0186185 0.570039 0.0726274)
(-0.158563 0.493095 0.0665373)
(-0.308123 0.38186 0.129955)
(-0.413939 0.119585 0.139912)
(-0.283215 -0.161335 -0.00302869)
(-0.392587 -0.0992949 0.0288821)
(-0.471849 -0.0363883 0.0564398)
(-0.546336 0.0689915 0.0975021)
(-0.535049 0.0399288 0.0806901)
(-0.498481 -0.0854431 0.0208058)
(-0.459102 -0.139009 0.00998324)
(-0.391904 -0.189372 -0.0118975)
(-0.29653 -0.239929 -0.027683)
(-0.188122 -0.265856 -0.041257)
(-0.145212 -0.243758 -0.0346966)
(-0.195908 -0.217431 -0.0332362)
(-0.182985 -0.356564 -0.0501821)
(-0.123029 -0.34858 -0.0528207)
(-0.0997282 -0.3646 -0.0800468)
(-0.0766747 -0.398489 -0.114183)
(-0.0474076 -0.576606 -0.229358)
(-0.0851852 -0.514826 -0.170112)
(-0.102006 -0.593392 -0.13472)
(-0.154994 -0.552494 -0.0627163)
(-0.214569 -0.449634 -0.0302763)
(-0.304972 -0.14854 0.028449)
(-0.19402 0.307485 0.174392)
(-0.0766272 0.430057 0.305477)
(0.00586054 0.509201 0.441704)
(0.0742082 0.49798 0.559559)
(0.14304 0.434044 0.622298)
(0.196438 0.321108 0.652778)
(0.246704 0.16631 0.626347)
(0.233109 -0.0106395 0.531045)
(0.101051 -0.13305 0.436016)
(-0.0154632 -0.0946857 0.446524)
(-0.0341779 0.0225756 0.422028)
(-0.0337034 0.144344 0.422408)
(0.0381117 0.248915 0.359282)
(0.19955 0.13715 0.372378)
(0.15452 0.278505 0.446513)
(-0.0668806 0.160925 -0.101492)
(-0.175386 -0.0621189 -0.641517)
(-0.179458 -0.301267 -0.536412)
(-0.168349 -0.342888 -0.301151)
(-0.145358 -0.301101 -0.0931155)
(-0.0615872 -0.585526 -0.106431)
(-0.0278171 -0.863201 -0.0942181)
(0.00236354 -1.02027 -0.0916758)
(0.0327446 -1.14399 -0.100944)
(0.0660915 -1.22773 -0.115218)
(0.0966058 -1.28059 -0.129385)
(0.123218 -1.30722 -0.141372)
(0.147171 -1.31587 -0.153416)
(0.16802 -1.31398 -0.16597)
(0.186257 -1.30498 -0.176771)
(0.201874 -1.29034 -0.185209)
(0.215821 -1.27052 -0.190305)
(0.228192 -1.24521 -0.192926)
(0.239503 -1.21315 -0.19168)
(0.249108 -1.1732 -0.186477)
(0.254874 -1.12318 -0.175631)
(0.25194 -1.06038 -0.158985)
(0.194807 -0.997472 -0.13903)
(0.139772 -0.912599 -0.122697)
(0.164353 -0.828553 -0.0869085)
(0.187646 -0.727989 -0.0881422)
(0.203799 -0.559288 -0.0880442)
(0.246564 -0.442299 -0.084399)
(0.0719352 -0.0300905 -0.0954144)
(0.366026 -0.298473 0.0437427)
(0.245772 -0.551229 -0.0570916)
(0.286238 -0.0948623 -0.0268983)
(0.180827 -0.03707 -0.147366)
(0.201932 -0.112665 -0.124808)