/*--------------------------------*- C++ -*----------------------------------*\
| =========                 |                                                 |
| \\      /  F ield         | OpenFOAM: The Open Source CFD Toolbox           |
|  \\    /   O peration     | Version:  v2012                                 |
|   \\  /    A nd           | Website:  www.openfoam.com                      |
|    \\/     M anipulation  |                                                 |
\*---------------------------------------------------------------------------*/
FoamFile
{
    version     2.0;
    format      ascii;
    class       volScalarField;
    location    "15";
    object      k;
}
// * * * * * * * * * * * * * * * * * * * * * * * * * * * * * * * * * * * * * //

dimensions      [0 2 -2 0 0 0 0];


internalField   nonuniform List<scalar> 
22960
(
0.0351601
0.0219862
0.0184641
0.0155334
0.013316
0.0135983
0.0108629
0.0139002
0.0143262
0.0138784
0.0131692
0.0155267
0.0182835
0.0196127
0.0191329
0.0176502
0.015473
0.0138246
0.0155095
0.0282227
0.0307621
0.0190807
0.0306112
0.0338379
0.0249841
0.0210644
0.0212345
0.0227788
0.0235766
0.0239475
0.0240792
0.023976
0.0237078
0.0233752
0.0231082
0.0230654
0.0233612
0.0238215
0.0245365
0.0273155
0.028992
0.0299837
0.0307339
0.0313578
0.0320294
0.0328375
0.0338951
0.0347776
0.0349531
0.0412854
0.0467002
0.0443767
0.0424303
0.0410886
0.0402354
0.0394904
0.0386545
0.0374409
0.0361177
0.0345306
0.0324864
0.0298619
0.0254355
0.0210417
0.018912
0.0146328
0.0170152
0.0182273
0.0186211
0.0194765
0.022591
0.0234149
0.0233369
0.023311
0.0233768
0.0234388
0.0234427
0.0233477
0.0230844
0.022439
0.0211072
0.0209081
0.0215295
0.0221457
0.0211567
0.0157764
0.0267621
0.0268902
0.0236905
0.0247753
0.0286293
0.0328898
0.0345661
0.0346886
0.0319774
0.0294019
0.0250313
0.0218967
0.0191469
0.015995
0.0125848
0.0163432
0.0137828
0.0139877
0.0163862
0.016148
0.0162105
0.0152371
0.0163815
0.0196796
0.0278534
0.0289025
0.0277519
0.0270018
0.0268075
0.026729
0.0268208
0.0284325
0.0298793
0.0304254
0.032022
0.0340412
0.0355981
0.0346706
0.0294891
0.0251101
0.0226648
0.021577
0.0202186
0.0229377
0.0242257
0.0239596
0.0250816
0.0260851
0.0272255
0.0328703
0.0331619
0.031351
0.0291535
0.0270279
0.0260063
0.0242598
0.0226418
0.02223
0.0223489
0.0236782
0.0255775
0.0269996
0.0265494
0.0224549
0.0209683
0.0184081
0.0180122
0.0197329
0.0195037
0.0193982
0.0153973
0.0164272
0.0209355
0.0141098
0.0150775
0.0158507
0.0166278
0.0180469
0.0189487
0.0185231
0.018071
0.0174703
0.0166076
0.0154846
0.0139309
0.0117065
0.0108127
0.00800931
0.00869286
0.0103672
0.0114061
0.0118239
0.011794
0.0127338
0.0151273
0.0173068
0.0179108
0.018045
0.0177943
0.0170823
0.0157173
0.0137354
0.0141653
0.0167191
0.0180243
0.0186756
0.0189506
0.0188928
0.0182243
0.0148554
0.012124
0.011124
0.0118867
0.0118576
0.0113713
0.00853375
0.00779813
0.00958669
0.0109449
0.011322
0.0118682
0.0122496
0.0125893
0.0128755
0.0130498
0.0128857
0.0127257
0.012806
0.0132635
0.0142071
0.0155741
0.0169646
0.019582
0.0236424
0.0285424
0.0334458
0.037491
0.0402789
0.0416842
0.0418893
0.0406028
0.0375792
0.0376543
0.045083
0.0441287
0.0400197
0.0362504
0.0324945
0.0289774
0.0262897
0.0228109
0.0197679
0.0171808
0.0145123
0.0113782
0.00770972
0.00602925
0.0048721
0.00513096
0.00568167
0.00667235
0.00793307
0.00857954
0.0126945
0.0217852
0.0334419
0.0458256
0.0570569
0.0662472
0.0748017
0.0769738
0.0752198
0.0683619
0.0379021
0.032955
0.0312881
0.0281226
0.0243511
0.0211386
0.0186809
0.0168108
0.0182195
0.0207585
0.0195344
0.0185241
0.0158102
0.0124405
0.0134125
0.0147954
0.015744
0.0157614
0.0160297
0.0156158
0.0155843
0.014897
0.0146605
0.0137348
0.0134968
0.0126311
0.0117842
0.0117779
0.0136779
0.0156343
0.0186701
0.0208213
0.0218469
0.0222787
0.022845
0.0228391
0.0254254
0.0252191
0.0248937
0.024133
0.022979
0.0210141
0.0192361
0.017787
0.0166225
0.0158155
0.0146953
0.0147217
0.0173122
0.0186359
0.0200371
0.0208296
0.0175393
0.018184
0.0184126
0.0194062
0.0194872
0.0203698
0.0201972
0.020935
0.0204259
0.0208882
0.0198954
0.0198891
0.0202782
0.0215595
0.0239061
0.0245991
0.0258798
0.0296006
0.032452
0.0349326
0.0378985
0.0404352
0.0426083
0.0453728
0.0483004
0.0495242
0.0513512
0.0380166
0.0355667
0.0289139
0.0237274
0.023426
0.0232257
0.0228804
0.022357
0.0219553
0.0216403
0.0213909
0.0211443
0.0209311
0.0207174
0.0204975
0.0202765
0.0200677
0.0198453
0.0197007
0.0195772
0.0198296
0.0202224
0.0209403
0.0216267
0.0222883
0.0222284
0.0267056
0.0288095
0.0296218
0.0297193
0.029252
0.0277853
0.0315912
0.0334926
0.0339186
0.0336102
0.0325108
0.0300588
0.0246697
0.0281846
0.0311543
0.0339466
0.0364165
0.0389277
0.041455
0.044163
0.0473086
0.0500466
0.054319
0.0525981
0.0491975
0.0465139
0.0440385
0.0415408
0.0380264
0.0334445
0.026339
0.0227725
0.0206946
0.0180314
0.0164033
0.0145877
0.0140981
0.0161333
0.0189262
0.0197236
0.0203621
0.0205989
0.0208707
0.0231216
0.0246087
0.0248765
0.0250088
0.0250983
0.0251365
0.0251088
0.0249873
0.0249421
0.0245903
0.0241915
0.0239848
0.0237252
0.0231927
0.022578
0.0215597
0.0197784
0.0167129
0.0158225
0.0151215
0.0148633
0.0146042
0.0145291
0.01423
0.0143706
0.0140289
0.0141625
0.0137492
0.0138423
0.0132874
0.0131601
0.0124731
0.0125083
0.0118842
0.0108257
0.0104614
0.0106355
0.0125124
0.0166278
0.019571
0.0208401
0.0216592
0.0229147
0.02317
0.0249909
0.0253407
0.0241812
0.0220082
0.023902
0.0300315
0.027566
0.0282994
0.0274441
0.0332023
0.0295669
0.0269292
0.0247839
0.0240523
0.027956
0.0289177
0.0241195
0.0236281
0.0246444
0.0198311
0.0233392
0.0238321
0.0240224
0.0244146
0.0248321
0.024904
0.0347208
0.0424733
0.0442633
0.0419662
0.0374107
0.0390518
0.0447234
0.0446026
0.0339209
0.0420769
0.0472987
0.052439
0.0491325
0.050609
0.0520675
0.0556926
0.0521231
0.0528469
0.053859
0.0526922
0.0504003
0.0493414
0.0446453
0.0478058
0.0505237
0.0598924
0.0706436
0.0880703
0.0960993
0.0983561
0.0940336
0.0425851
0.0292485
0.0326835
0.0381191
0.0402145
0.055911
0.0726911
0.0921561
0.125886
0.130928
0.111698
0.0915776
0.0720849
0.0519561
0.0336134
0.0160091
0.0200728
0.0405821
0.0313203
0.0244204
0.0134226
0.012621
0.0140818
0.0154317
0.0166216
0.0180425
0.0189651
0.0196033
0.0199428
0.0201146
0.0201039
0.0206606
0.021574
0.0226057
0.0225049
0.0226131
0.0225478
0.021368
0.0206544
0.0181861
0.0159584
0.0139784
0.0132094
0.0133799
0.0126252
0.0109692
0.0089076
0.0141222
0.0126955
0.0120349
0.0123736
0.012297
0.0120521
0.0135144
0.0153232
0.0162561
0.0167472
0.0169595
0.0168416
0.016517
0.0157556
0.0151134
0.0138963
0.0126743
0.0117784
0.0108427
0.0102046
0.00971072
0.00895012
0.00791537
0.00634986
0.00568018
0.00531213
0.00579033
0.00650678
0.00739907
0.00840209
0.0096324
0.0203197
0.0341618
0.046654
0.0588065
0.0696805
0.0799214
0.0869995
0.08762
0.0844236
0.0705598
0.0307223
0.0301436
0.0279663
0.0241954
0.0211047
0.0184582
0.0162265
0.0145116
0.0151597
0.0182939
0.0191197
0.0220919
0.022261
0.0236574
0.0242642
0.0255762
0.0259274
0.0319451
0.054102
0.0856855
0.104846
0.129982
0.170058
0.184532
0.187533
0.175932
0.144124
0.111817
0.0892923
0.0659612
0.0458597
0.0390161
0.0450813
0.0484439
0.0403249
0.0326647
0.0212234
0.0128303
0.0142464
0.0159013
0.0161379
0.0175065
0.0190966
0.0203263
0.0211215
0.0214866
0.0216
0.0218682
0.0221716
0.0218495
0.0220234
0.0220428
0.0212881
0.0199987
0.0181191
0.0161129
0.0165068
0.013582
0.0137985
0.015089
0.0272193
0.0343459
0.0352052
0.0407676
0.0456113
0.0524652
0.0576522
0.0623727
0.0735536
0.0854804
0.0979318
0.110464
0.116365
0.118894
0.117126
0.109545
0.0952453
0.0807717
0.055105
0.0366172
0.04202
0.06065
0.0681739
0.0723824
0.0733608
0.0735509
0.0728106
0.0710461
0.0690688
0.0661842
0.0626107
0.0554355
0.0570686
0.0585495
0.0594501
0.0604367
0.0605088
0.0604126
0.0591831
0.0572334
0.0470116
0.0356768
0.0316604
0.0333834
0.0401537
0.0468185
0.0506056
0.0523047
0.0515649
0.0533181
0.0521441
0.0529907
0.0508979
0.0501709
0.0473449
0.0436156
0.0410458
0.0380271
0.0351054
0.0326737
0.0312216
0.0273576
0.0200938
0.0229228
0.015701
0.0167052
0.0168932
0.0167951
0.0232809
0.0226829
0.0255914
0.026833
0.0290677
0.0299052
0.0310771
0.0327848
0.0337934
0.036866
0.0379468
0.0383086
0.0451712
0.0451525
0.0434794
0.0406853
0.0347512
0.0309634
0.0276708
0.0277628
0.0267361
0.0254706
0.0240683
0.0224674
0.0234044
0.0237748
0.0238657
0.0239713
0.0246825
0.0248656
0.0243762
0.0306191
0.0269691
0.0224021
0.0222546
0.0219224
0.0216663
0.0213927
0.0211042
0.0207238
0.0204763
0.020204
0.0200419
0.0208314
0.021368
0.0226149
0.0234983
0.024925
0.0255414
0.0267
0.0272473
0.0275278
0.027591
0.0274274
0.0273272
0.0274393
0.0279556
0.0288001
0.0264027
0.0267119
0.0273131
0.02947
0.0339968
0.0176438
0.0209009
0.0206997
0.0204613
0.0229353
0.027762
0.0299123
0.0297472
0.028592
0.0266534
0.0246028
0.0220914
0.02355
0.0261382
0.0280318
0.0293606
0.0302715
0.0310629
0.0324025
0.0340745
0.0345099
0.0345832
0.033748
0.0382681
0.0381455
0.0381679
0.0365317
0.0523624
0.057909
0.0537821
0.051535
0.0568082
0.0500256
0.0433983
0.046232
0.0288519
0.0282574
0.0337544
0.0332581
0.0375486
0.0365676
0.0330645
0.0316011
0.0364909
0.0354953
0.0354974
0.0364141
0.0369221
0.0369012
0.0361185
0.0328788
0.0313927
0.0343767
0.0382718
0.0401312
0.0426336
0.044181
0.0417114
0.0477134
0.0453819
0.0483715
0.0502924
0.0392347
0.0315354
0.0361892
0.0347057
0.0388445
0.0443522
0.0493927
0.0538797
0.060145
0.0681241
0.0783948
0.0916475
0.0994705
0.0835544
0.0754141
0.0655681
0.0574663
0.0510345
0.0459727
0.0421861
0.039437
0.0369411
0.0366943
0.0355639
0.0330717
0.0358074
0.0385378
0.0413147
0.0443
0.0475262
0.0512126
0.05592
0.0618331
0.0685494
0.0627763
0.0575983
0.0536828
0.0502866
0.0470379
0.0430088
0.0392402
0.0341036
0.0314764
0.029338
0.0272094
0.0246067
0.0224967
0.0194744
0.0181939
0.0212926
0.0229874
0.0264413
0.0287584
0.031182
0.0347448
0.0376288
0.0415321
0.0447095
0.0466617
0.0504509
0.0542763
0.0585871
0.0639018
0.0715506
0.081817
0.0723272
0.0627286
0.0561858
0.0514452
0.0475482
0.0441082
0.0410996
0.038306
0.0393737
0.0420852
0.0451804
0.0493433
0.0547661
0.062192
0.0724539
0.0867894
0.101223
0.0846225
0.0725231
0.0636864
0.0572042
0.052247
0.0485216
0.0441742
0.0427789
0.0449565
0.041376
0.0405425
0.0374737
0.0348477
0.0322124
0.0298323
0.0263744
0.0259954
0.0295958
0.032775
0.0359008
0.0377419
0.0393656
0.0425199
0.0394355
0.0369958
0.0351673
0.032692
0.0303704
0.0332452
0.0350003
0.0327403
0.0327526
0.0336164
0.0341751
0.030795
0.0349748
0.0377696
0.0383123
0.0346911
0.0312983
0.0383751
0.0390719
0.0412777
0.0410943
0.0391547
0.0350557
0.0301878
0.0345557
0.0399457
0.0428651
0.0364371
0.0333895
0.03707
0.0245284
0.0247283
0.0214239
0.0364805
0.0436613
0.044764
0.0476278
0.0452294
0.0447172
0.0442593
0.0386407
0.0381572
0.0333524
0.0405948
0.0409265
0.0354054
0.0325217
0.0354486
0.0339321
0.038663
0.0396378
0.0380844
0.036102
0.0292938
0.0323713
0.0358873
0.0371297
0.0345298
0.0393883
0.036969
0.0366732
0.0422812
0.043238
0.0375435
0.0352059
0.0335262
0.0279956
0.0374878
0.0378146
0.0419541
0.043785
0.0348959
0.0298673
0.0312702
0.0180607
0.0208799
0.0218851
0.0223987
0.0220139
0.0268319
0.0264213
0.0259183
0.0255254
0.0252546
0.0250728
0.0249735
0.0249147
0.0248883
0.024814
0.0247905
0.0247656
0.024754
0.0246207
0.0245396
0.0246524
0.0247637
0.0253353
0.0253287
0.0257387
0.0258553
0.025712
0.0249565
0.0255839
0.0217396
0.0188902
0.020659
0.0216853
0.022283
0.0221069
0.0216586
0.0217561
0.0214127
0.0202017
0.0198025
0.0206814
0.0211067
0.0212806
0.0221542
0.0227973
0.0225751
0.0218611
0.0202403
0.0197483
0.0178681
0.0184085
0.0256749
0.0245741
0.0242027
0.0243272
0.024576
0.0247834
0.0247971
0.0248188
0.0248494
0.0249525
0.0251126
0.0253102
0.0255525
0.0254656
0.0205401
0.0205286
0.0205993
0.0201654
0.0192283
0.0207908
0.0211391
0.020821
0.0201989
0.0199564
0.0253021
0.0267582
0.0268797
0.0261037
0.0255949
0.0252542
0.0250212
0.0248666
0.0247998
0.0251403
0.0256096
0.0262699
0.0272121
0.0287457
0.030901
0.0277058
0.0284314
0.0227544
0.0210601
0.0217581
0.0230172
0.0235373
0.0235227
0.0252492
0.0256449
0.0250812
0.0235154
0.0285564
0.0299995
0.029242
0.031611
0.0250754
0.0365115
0.040614
0.0413063
0.0433653
0.0392998
0.0401235
0.0370695
0.0376408
0.0350844
0.0327666
0.0305003
0.0319923
0.0339716
0.0352565
0.0331041
0.0339581
0.0307994
0.0353561
0.0377166
0.0361669
0.0390096
0.0367802
0.0369447
0.0351364
0.0373807
0.0346463
0.0336668
0.0323634
0.0326781
0.0334796
0.0359757
0.0242507
0.0264621
0.0281134
0.0292568
0.0301978
0.0290936
0.028929
0.0296169
0.0308789
0.0307411
0.0304473
0.0317437
0.0303473
0.03204
0.0337558
0.0339154
0.0319882
0.0320269
0.0329053
0.0287696
0.0278477
0.0301505
0.030856
0.0285999
0.0277926
0.0264475
0.0242746
0.0239641
0.0253885
0.026764
0.027744
0.028159
0.0285389
0.027287
0.0276472
0.0280627
0.0286775
0.02781
0.0272437
0.0269046
0.0267373
0.0264992
0.0268413
0.0278737
0.0308049
0.0322203
0.0317468
0.0262424
0.022837
0.0229648
0.0229021
0.0218471
0.0409274
0.0482123
0.0393418
0.0322549
0.0322688
0.0316617
0.0319189
0.0303272
0.0309355
0.0317332
0.0322822
0.0317434
0.0304044
0.0301798
0.0305827
0.0327883
0.0341476
0.0349641
0.0320077
0.031018
0.0337726
0.0334428
0.0382513
0.0344376
0.0378359
0.039376
0.0375779
0.0365415
0.0326201
0.027231
0.0304753
0.0333865
0.0360642
0.0353915
0.0363331
0.0382436
0.037017
0.0361747
0.0365751
0.0379813
0.0369399
0.0363502
0.0321535
0.0328576
0.0332564
0.032681
0.0338491
0.0359668
0.0384438
0.0372716
0.0347989
0.0366292
0.0364228
0.0380417
0.0367453
0.0352366
0.0339784
0.0350967
0.0368855
0.035952
0.037143
0.0374881
0.0364948
0.0362522
0.0337421
0.0334414
0.0371313
0.0335174
0.0377838
0.0382476
0.0376327
0.0374125
0.0346233
0.0362467
0.0356085
0.0382748
0.037482
0.0358945
0.0303783
0.0308501
0.0301418
0.029067
0.0302689
0.0321611
0.031438
0.0302615
0.028794
0.0299505
0.027212
0.0292855
0.0260283
0.0285116
0.0271999
0.0258555
0.0280823
0.030276
0.031214
0.031584
0.0334337
0.028346
0.0251075
0.0308218
0.0389974
0.0318106
0.0325157
0.040351
0.0400212
0.0373864
0.0415962
0.0255805
0.0324157
0.0344513
0.0358011
0.0354302
0.037928
0.0366254
0.0353972
0.0344698
0.032465
0.0326982
0.0386906
0.034238
0.0365644
0.0323698
0.02981
0.0280371
0.0267476
0.0257534
0.0248931
0.0235583
0.021859
0.0202515
0.0191751
0.0182243
0.0179672
0.0184596
0.0195324
0.0199952
0.0215912
0.0229059
0.0229815
0.0224647
0.0217429
0.0207418
0.0204095
0.0199185
0.0192791
0.0187044
0.0190534
0.0195085
0.0199591
0.0207803
0.0217612
0.0230082
0.0241722
0.0232218
0.0209332
0.0198376
0.0198444
0.0199754
0.0197703
0.0179088
0.0172272
0.0162701
0.0178189
0.0212023
0.0247811
0.0268223
0.0286953
0.0309151
0.0339085
0.0382812
0.0399657
0.0353641
0.0320325
0.0290979
0.0261618
0.0210592
0.0164203
0.0161384
0.0174684
0.0189786
0.0201861
0.0212958
0.0219976
0.0222977
0.021381
0.0206263
0.0203829
0.0179912
0.0218277
0.0247247
0.0250659
0.0271312
0.0272837
0.030356
0.0309749
0.0273569
0.0240016
0.0199438
0.0180747
0.0237678
0.0243432
0.0254697
0.0241735
0.0228991
0.0214999
0.0200149
0.01918
0.0184008
0.018131
0.0180391
0.0179669
0.0171271
0.0174948
0.0179415
0.0167118
0.014347
0.0146
0.0166269
0.0179521
0.0181386
0.0179407
0.0192006
0.0191998
0.0193818
0.0195729
0.019925
0.0202903
0.0207144
0.0211867
0.0217298
0.0223271
0.0227158
0.0231428
0.0221578
0.0219837
0.022001
0.0191929
0.020313
0.0218788
0.0224638
0.0220373
0.0213042
0.0205719
0.0199351
0.0194889
0.0190852
0.0188048
0.0185726
0.0183737
0.018152
0.0175345
0.0178137
0.0170162
0.0169035
0.0165975
0.0161724
0.0167689
0.0168536
0.017652
0.0178238
0.018042
0.0182813
0.0186561
0.0190695
0.0196166
0.0202293
0.0207532
0.0211113
0.0203657
0.0185655
0.016804
0.0127636
0.015983
0.0187712
0.0197388
0.0199546
0.0197713
0.0196393
0.0193845
0.0190575
0.0187316
0.0184082
0.0181301
0.0178731
0.0176242
0.017425
0.0172557
0.017238
0.0170496
0.016226
0.0161193
0.015121
0.0151173
0.01537
0.0150821
0.0146927
0.0141643
0.0140413
0.0140355
0.015191
0.0154894
0.0161561
0.0165055
0.0167574
0.0168455
0.0170064
0.01724
0.0175379
0.0178758
0.0182745
0.0187289
0.0191575
0.0194908
0.0196478
0.0196226
0.0196268
0.0193165
0.019297
0.0169215
0.0183206
0.0187518
0.0193472
0.0196292
0.0204783
0.0199581
0.0196006
0.0194389
0.0192671
0.0190986
0.0187551
0.0183074
0.0174691
0.0164
0.015734
0.0166032
0.0165438
0.0160268
0.0156877
0.0151188
0.0149003
0.0136237
0.013706
0.0140599
0.0145556
0.0151837
0.0152536
0.0157575
0.015848
0.0160247
0.0159177
0.0157447
0.0155906
0.0153713
0.0151965
0.014977
0.0148085
0.0146241
0.0144406
0.0142775
0.014078
0.0134991
0.013504
0.0133151
0.0132199
0.013181
0.0130993
0.0132891
0.013608
0.0142299
0.0143058
0.0138902
0.0132023
0.0129122
0.0127799
0.0129053
0.0139271
0.0142925
0.0151104
0.0151777
0.0156696
0.0162675
0.0164016
0.0165962
0.0166015
0.0171635
0.0172144
0.0173925
0.0175171
0.0177525
0.0179075
0.0181979
0.0183741
0.0187066
0.0188914
0.0191868
0.0193187
0.0195228
0.0195887
0.0196242
0.0196046
0.0196402
0.0199798
0.0203873
0.0209155
0.0207588
0.0209696
0.0204667
0.0204812
0.0196322
0.019293
0.01859
0.0182224
0.0178483
0.0175609
0.0173277
0.0171193
0.0169253
0.0167117
0.0165845
0.0165594
0.0164414
0.0162124
0.0158493
0.0158562
0.015829
0.0159946
0.0162124
0.0164037
0.0165618
0.0167753
0.0169236
0.0171861
0.0174824
0.0178318
0.0183656
0.0190436
0.020041
0.0206752
0.0219549
0.0220823
0.0227315
0.0225358
0.0226493
0.0217768
0.0211053
0.0220821
0.0228156
0.0235399
0.0233259
0.0233335
0.0229154
0.0224216
0.0212893
0.020459
0.0194426
0.018492
0.0179145
0.0174604
0.0171034
0.0169917
0.0166691
0.0165048
0.0162248
0.0159403
0.015697
0.0154848
0.0153296
0.0153454
0.0155199
0.0157469
0.0160253
0.0162519
0.0164054
0.0167571
0.0170005
0.0173314
0.0177101
0.017725
0.0172126
0.0163828
0.0160688
0.0156952
0.0155312
0.0151965
0.0154112
0.0155374
0.0155445
0.0153658
0.0152764
0.0154321
0.0153413
0.0157092
0.0155929
0.0157847
0.0157817
0.0157052
0.0162349
0.0168005
0.0173579
0.0180613
0.0188411
0.019734
0.0205662
0.021288
0.0211523
0.0187924
0.018345
0.0170488
0.020754
0.024186
0.0256557
0.0258513
0.0251456
0.026025
0.0240358
0.0239335
0.0221146
0.023424
0.0237781
0.0231044
0.0223312
0.0213036
0.0204197
0.0194873
0.0186298
0.0304888
0.0295472
0.0336912
0.0316425
0.0335825
0.0284591
0.0304079
0.0263833
0.0246817
0.0247714
0.0261076
0.0264562
0.0303014
0.0336776
0.249525
0.503814
0.19279
0.193398
0.196581
0.195549
0.180837
0.192526
0.208882
0.179058
0.221025
0.190398
0.222515
0.182203
0.198111
0.19882
0.034983
0.0396988
0.0428177
0.0454562
0.0412343
0.0395226
0.0601327
0.249788
0.518691
0.511349
0.511344
0.506005
0.50206
0.506147
0.512541
0.506746
0.50763
0.511414
0.402229
0.239808
0.0607607
0.0361949
0.0555341
0.0682736
0.306527
0.529652
0.543896
0.514428
0.503982
0.502402
0.503583
0.509666
0.507554
0.510987
0.509809
0.511598
0.50833
0.51014
0.511208
0.503423
0.503877
0.501699
0.503409
0.501477
0.501204
0.501697
0.503855
0.510763
0.506878
0.535952
0.338887
0.114697
0.0708265
0.312172
0.327687
0.0754034
0.0586853
0.285166
0.533285
0.505326
0.502499
0.502588
0.501561
0.501008
0.500905
0.501072
0.501093
0.501627
0.501667
0.503574
0.511943
0.510713
0.508809
0.511262
0.503379
0.501571
0.501028
0.501109
0.500918
0.50092
0.500829
0.50097
0.501281
0.501533
0.502596
0.519864
0.282997
0.0583697
0.0581445
0.279565
0.522458
0.502409
0.501186
0.500943
0.500803
0.500775
0.500733
0.500824
0.500863
0.501023
0.501554
0.503629
0.510396
0.504411
0.253865
0.255347
0.259109
0.247562
0.504051
0.508597
0.503218
0.501612
0.501358
0.501304
0.500822
0.500791
0.500741
0.500784
0.500774
0.501773
0.519615
0.273341
0.0488583
0.039268
0.256914
0.526081
0.501919
0.500158
0.50058
0.500308
0.501053
0.503864
0.504326
0.504368
0.505134
0.509387
0.505765
0.257136
0.172387
0.186641
0.507239
0.511469
0.51347
0.513647
0.517026
0.502173
0.518927
0.501413
0.520381
0.333265
0.33349
0.0441528
0.046812
0.0582517
0.352942
0.338672
0.0543883
0.0680335
0.349821
0.295744
0.0457862
0.039333
0.219334
0.216105
0.036561
0.0343262
0.213483
0.201546
0.031943
0.0288662
0.0256794
0.0316127
0.0317272
0.0360573
0.0350297
0.0409694
0.0642199
0.0324655
0.0254083
0.0236192
0.0312034
0.0506374
0.0472885
0.0662906
0.0722905
0.0889806
0.0731303
0.0643342
0.08463
0.163766
0.0761797
0.0503582
0.0524033
0.154896
0.038576
0.0226059
0.0181655
0.0197144
0.0204706
0.018866
0.0253011
0.0236402
0.0276645
0.0217657
0.022083
0.0283305
0.0494629
0.0565601
0.0644691
0.0478533
0.0425649
0.0600252
0.0746615
0.0842193
0.0690151
0.0502124
0.104358
0.0492595
0.164641
0.162518
0.266819
1.12998
0.747276
0.66693
0.674063
0.675134
0.749566
1.25173
0.54802
0.0719569
0.0322963
0.120818
0.0511742
0.0434577
0.0594206
0.0707874
0.13781
0.0381594
0.0310129
0.0204459
0.0157765
0.0172806
0.0213438
0.0228152
0.0195473
0.0186119
0.0179498
0.0193803
0.0213288
0.0225944
0.0200892
0.0224916
0.0213972
0.0242261
0.0247254
0.0361097
0.0266786
0.0173409
0.0268396
0.0502096
0.0668411
0.0463507
0.0347549
0.0559425
0.10266
0.112279
0.0670884
0.166095
0.0440293
0.0908605
0.120887
0.168429
0.706917
0.18577
0.0828633
0.0308461
0.018437
0.0230898
0.0329037
0.0220974
0.0191231
0.018783
0.0212329
0.0213242
0.0193567
0.0173479
0.0169779
0.0193558
0.0187611
0.0161258
0.0167725
0.0167597
0.0170835
0.0186544
0.0188642
0.0170648
0.0175914
0.0178854
0.0198252
0.0197376
0.0343311
0.0206197
0.0203271
0.0332648
0.0249882
0.0421869
0.0220022
0.0321987
0.0225458
0.0217966
0.0484332
0.02733
0.0233408
0.0487445
0.0272649
0.0234211
0.0445737
0.0256422
0.0218623
0.0398958
0.020187
0.0270871
0.0276885
0.0314571
0.0286021
0.0303601
0.0320419
0.029734
0.051832
0.0282318
0.022676
0.0206884
0.0198272
0.0201082
0.0213629
0.0230681
0.0236136
0.0242489
0.0240543
0.0239239
0.0240819
0.0245991
0.0249165
0.0244472
0.0236148
0.0214644
0.0199913
0.0197977
0.0214947
0.0239304
0.0251758
0.0254732
0.0253542
0.0741393
0.170907
0.129168
0.088823
0.101276
0.152216
0.177069
0.103506
0.0804123
0.0509524
0.0730616
0.0576268
0.0619893
0.0479513
0.0423421
0.0376954
0.0462888
0.0395032
0.0407173
0.0368657
0.0605561
0.0470982
0.0500687
0.04279
0.051171
0.0669767
0.105082
0.0872316
0.0641547
0.0685634
0.0957295
0.102721
0.0628921
0.0260728
0.0255486
0.0240071
0.0212522
0.0193123
0.0184181
0.0205674
0.0235486
0.0254611
0.0247851
0.0221508
0.0191361
0.0170587
0.0157078
0.0171118
0.0195426
0.0226338
0.0191139
0.0170279
0.0162169
0.0161558
0.0159721
0.0156355
0.0156731
0.0161128
0.0161709
0.0180705
0.0188306
0.0204389
0.0202004
0.0204149
0.0193171
0.0185635
0.01806
0.0172817
0.0167583
0.0161036
0.0155296
0.0151918
0.0148191
0.0143368
0.0138984
0.0135376
0.0132882
0.0129827
0.0127951
0.0128106
0.0127984
0.0128986
0.0126504
0.012597
0.0130215
0.0139575
0.0144623
0.0146808
0.014896
0.0151811
0.0154798
0.0157623
0.0159438
0.0161134
0.0245193
0.0190077
0.0172328
0.0190945
0.020019
0.0327739
0.039683
0.0232549
0.0205577
0.0182081
0.022369
0.0355891
0.048907
0.0362552
0.0269225
0.0372176
0.0484563
0.0590837
0.0449015
0.106221
0.0283514
0.0310669
0.0560022
0.118945
0.407273
0.0486842
0.025128
0.0179537
0.0150475
0.0164576
0.0190921
0.0202607
0.0182588
0.0173977
0.0157686
0.0168544
0.0184596
0.0195952
0.0182818
0.0205428
0.0184149
0.0206441
0.0215971
0.0341008
0.0263054
0.0166645
0.022371
0.0192193
0.0248724
0.026201
0.0455104
0.0559639
0.0394258
0.029836
0.0413355
0.0151445
0.0148478
0.0148139
0.015288
0.0178031
0.0164468
0.0166447
0.0225353
0.0183304
0.0186941
0.0186888
0.0163284
0.0158539
0.0156282
0.016925
0.027989
0.0211262
0.0395564
0.0791881
0.0675515
0.0679064
0.208479
0.216782
0.213598
0.160245
0.0638507
0.097407
0.139663
0.129992
0.102475
0.0691542
0.065596
0.0785239
0.0622642
0.034399
0.0360521
0.0369726
0.0339192
0.0313309
0.030801
0.0310364
0.0316924
0.031069
0.0379537
0.0359981
0.0394601
0.0337054
0.0337685
0.0417423
0.0561713
0.0550278
0.0397499
0.0512462
0.0339637
0.0614118
0.081424
0.109196
0.142574
0.106408
0.0717023
0.0496428
0.0705186
0.0749987
0.108318
0.124653
0.107619
0.117909
0.0859143
0.0734513
0.108202
0.0617261
0.0354121
0.0395164
0.0421302
0.0436947
0.118107
0.0678957
0.0715366
0.0451714
0.0615399
0.128367
0.0377018
0.0370614
0.0339622
0.0335211
0.0346237
0.0280692
0.0424775
0.0203405
0.0268327
0.0269729
0.0526616
0.0301787
0.0344943
0.0308848
0.0298494
0.0717849
0.037306
0.0402402
0.0291181
0.0265352
0.0917258
0.039162
0.0342611
0.0233875
0.019245
0.0594131
0.024663
0.0205151
0.0175019
0.0174656
0.0153744
0.0149474
0.0151194
0.0145927
0.0160992
0.0160287
0.0191326
0.0186719
0.0194322
0.0184978
0.0188007
0.017973
0.017717
0.0168368
0.0164733
0.0158152
0.0154132
0.0150101
0.0146648
0.0142554
0.0139111
0.0136136
0.0134613
0.013362
0.0131539
0.0124537
0.0154729
0.0132481
0.0132112
0.0129374
0.0127904
0.0126847
0.0126569
0.0132306
0.0141216
0.0142979
0.0147206
0.0149764
0.0152668
0.0155283
0.0156943
0.0155567
0.0153037
0.014976
0.0146206
0.0144611
0.0141604
0.0134338
0.0138383
0.0142843
0.0147968
0.015121
0.0154522
0.0151583
0.0147171
0.0143452
0.013954
0.0135852
0.0132713
0.0127349
0.0130437
0.0134551
0.0139635
0.0145325
0.0148074
0.0256078
0.019438
0.0219244
0.0290106
0.0371955
0.0311189
0.0283229
0.0207604
0.0278769
0.0353866
0.0372214
0.025829
0.0206332
0.0205513
0.0175108
0.0166073
0.0191807
0.0226549
0.0371933
0.0849981
0.0328696
0.027371
0.0395842
0.0294836
0.0291827
0.0265463
0.0205086
0.0250567
0.0172704
0.0212141
0.0178113
0.0167739
0.0182242
0.0187298
0.027141
0.0173697
0.0165102
0.0154464
0.0167773
0.0160856
0.0146846
0.0162225
0.0149681
0.0158716
0.0170349
0.0178282
0.0169649
0.0145661
0.0141609
0.0145037
0.016108
0.01482
0.0154826
0.0162031
0.0159665
0.0159367
0.0161375
0.01574
0.0149206
0.0144199
0.0140084
0.0140262
0.0143506
0.0156808
0.0143372
0.0148493
0.0156052
0.0153833
0.0154702
0.0165028
0.015059
0.0146472
0.0146362
0.0142628
0.0166879
0.0140744
0.0142445
0.0152366
0.0164567
0.0173485
0.0152165
0.018665
0.0145245
0.0145341
0.0144197
0.0139851
0.0143187
0.0134434
0.0191379
0.0146368
0.0174449
0.0167119
0.0155531
0.0148272
0.0136684
0.013243
0.0129143
0.0125663
0.0174333
0.0139784
0.0147343
0.0135061
0.012812
0.0136063
0.0231294
0.0272392
0.0268948
0.0263511
0.0250514
0.0211442
0.017577
0.0160046
0.0156229
0.0163293
0.0198997
0.0179641
0.0170016
0.0178317
0.0217371
0.032356
0.128371
0.315573
0.431457
0.602203
0.0885075
0.0526841
0.0283874
0.0330241
0.0275447
0.0306246
0.0299732
0.0474502
0.0513612
0.0495166
0.0352646
0.0349349
0.0307019
0.0387004
0.0383219
0.0552217
0.0853914
0.624186
0.521989
0.260669
0.143327
0.0543129
0.0497495
0.0580894
0.0695002
0.0330782
0.415786
0.203467
0.0813409
0.235614
0.109569
0.0448117
0.0318473
0.0273904
0.0271551
0.0196577
0.0193184
0.0190397
0.0187419
0.0185034
0.0182934
0.0180601
0.0178811
0.0176215
0.0178443
0.0192656
0.0203815
0.0219793
0.0236884
0.027449
0.0312938
0.0355107
0.0380312
0.0363194
0.0307437
0.0534231
0.0277007
0.0301785
0.0329951
0.0320848
0.0530904
0.029943
0.0386049
0.0145274
0.0137023
0.0166037
0.015475
0.0158952
0.0168988
0.0186351
0.0191362
0.0180284
0.0173769
0.0325039
0.0328835
0.0338627
0.0375601
0.0385324
0.0375408
0.0607701
0.0745263
0.0891778
0.0628638
0.0295561
0.0515956
0.0363776
0.0285867
0.0266406
0.0246263
0.0211696
0.0182589
0.0199594
0.0219711
0.0239401
0.0253684
0.0259405
0.0223879
0.0225855
0.0212335
0.0146584
0.0145615
0.0140216
0.0134188
0.0121604
0.0091195
0.0045941
0.0043697
0.00454824
0.00482096
0.005306
0.00556307
0.00571741
0.00565968
0.00564908
0.00556547
0.00557772
0.00552368
0.00557043
0.00552205
0.00560273
0.00554632
0.0056652
0.00556546
0.00579136
0.00592416
0.00743824
0.00744784
0.00722655
0.00740954
0.00712665
0.00722629
0.00698514
0.00707774
0.0069085
0.00703645
0.00695123
0.00714223
0.00711478
0.00730464
0.00696505
0.0068272
0.00618463
0.00729927
0.00635295
0.00561186
0.00556214
0.0081257
0.00769564
0.008348
0.00850345
0.00877856
0.0124991
0.00846926
0.014416
0.015206
0.0197915
0.0272136
0.0332229
0.021803
0.0254642
0.0314141
0.0398693
0.0309077
0.0201879
0.0156399
0.0147099
0.0152935
0.0152496
0.0158141
0.0206564
0.0182224
0.0236492
0.0245361
0.027371
0.0285384
0.0281792
0.0223873
0.0146316
0.0123243
0.0159326
0.0250986
0.0244282
0.0204284
0.0160444
0.0174296
0.0192411
0.0208522
0.0212522
0.018132
0.0183381
0.0187876
0.0192531
0.0195965
0.0199042
0.0202147
0.0206329
0.0209399
0.0192364
0.0190602
0.0188953
0.0185875
0.0184368
0.018074
0.0181095
0.0177355
0.0177991
0.017411
0.0174229
0.016992
0.0168541
0.016398
0.0162487
0.0159378
0.015732
0.0142335
0.0141921
0.015271
0.0171977
0.0183506
0.0177721
0.0178808
0.0183557
0.0181024
0.0236624
0.0230104
0.0152362
0.0123844
0.0104208
0.0112457
0.0111178
0.0110854
0.0117111
0.0118675
0.0123511
0.0123182
0.012689
0.0126629
0.0130014
0.0130241
0.0133896
0.0136313
0.0140636
0.0144619
0.0150544
0.0197943
0.019682
0.0196002
0.0186299
0.0180103
0.0170331
0.0167969
0.0161476
0.0162608
0.0156503
0.0156501
0.0149702
0.0146038
0.0138255
0.0135801
0.017205
0.0170236
0.0215257
0.0215174
0.0262486
0.0278376
0.0216108
0.021892
0.0176362
0.0182948
0.0189433
0.0195738
0.0198255
0.0204146
0.0205597
0.0213731
0.0222016
0.0237425
0.025331
0.0268324
0.0271074
0.0277768
0.0254137
0.0192934
0.0176038
0.0267437
0.0266489
0.0242797
0.0193901
0.0177193
0.0235998
0.024738
0.0263574
0.0244124
0.0264046
0.0347
0.0213992
0.0222535
0.0207178
0.0230571
0.0295288
0.0386012
0.0295616
0.032134
0.0303167
0.025746
0.0237572
0.0233286
0.0230899
0.0228971
0.0226683
0.0224409
0.0221114
0.0219498
0.0217385
0.0216875
0.0221322
0.022899
0.0235442
0.0243768
0.0249069
0.0259928
0.0266402
0.0269483
0.026957
0.0270491
0.0273021
0.0266688
0.0263838
0.0263608
0.0262665
0.0260883
0.0261006
0.0260298
0.0263209
0.026127
0.0257841
0.0258654
0.0259213
0.0257326
0.025611
0.0255589
0.0260031
0.0256648
0.0251697
0.0252415
0.0254296
0.0252103
0.025148
0.0249395
0.0248556
0.0247777
0.0247919
0.0263842
0.0258742
0.0244604
0.0241924
0.023778
0.0235731
0.0249858
0.0247108
0.0246772
0.0248505
0.0248914
0.0248397
0.0246422
0.0248658
0.025191
0.0257255
0.0255822
0.0331055
0.0329423
0.0268754
0.0248311
0.0241848
0.0242155
0.024069
0.0242945
0.0245385
0.0244721
0.0246753
0.024802
0.0246514
0.0243635
0.0241821
0.0240593
0.0248137
0.024042
0.0236417
0.0235738