/*--------------------------------*- C++ -*----------------------------------*\
| =========                 |                                                 |
| \\      /  F ield         | OpenFOAM: The Open Source CFD Toolbox           |
|  \\    /   O peration     | Version:  v2012                                 |
|   \\  /    A nd           | Website:  www.openfoam.com                      |
|    \\/     M anipulation  |                                                 |
\*---------------------------------------------------------------------------*/
FoamFile
{
    version     2.0;
    format      ascii;
    class       volScalarField;
    location    "575";
    object      alphat;
}
// * * * * * * * * * * * * * * * * * * * * * * * * * * * * * * * * * * * * * //

dimensions      [1 -1 -1 0 0 0 0];


internalField   nonuniform List<scalar> 
18258
(
0.00485753
0.00211155
0.00173041
0.0014993
0.000992473
0.00162439
0.0022559
0.00268564
0.0028177
0.00279349
0.0028921
0.00487975
0.00684759
0.00846212
0.00888836
0.00887321
0.00805283
0.00768953
0.008346
0.0102689
0.00864465
0.00553602
0.00663612
0.00766514
0.00833004
0.00737437
0.00596084
0.00552307
0.00500142
0.00416853
0.00349272
0.00237229
0.00175719
0.00163013
0.00147593
0.00168152
0.00183047
0.00195051
0.00199457
0.00202593
0.00201198
0.00200056
0.00194668
0.00191445
0.00185931
0.00154088
0.00187759
0.00189355
0.00207433
0.00287385
0.00309126
0.00260171
0.00288075
0.00257097
0.00169524
0.00194021
0.00210608
0.00215164
0.00212421
0.00203624
0.00200667
0.00198163
0.00194982
0.00191201
0.00188896
0.0019079
0.00192764
0.00190664
0.00181288
0.00173694
0.00161402
0.00149081
0.00139944
0.00132867
0.00127533
0.00121619
0.00114973
0.00100992
0.000935993
0.00123933
0.00155582
0.00166233
0.00235609
0.00287256
0.00289208
0.00216438
0.00154228
0.00160054
0.00177938
0.00179737
0.00152331
0.00181141
0.00205213
0.00212709
0.00221687
0.0024777
0.0028206
0.0027497
0.0024487
0.00225591
0.00221792
0.00253906
0.00241256
0.00312899
0.00315305
0.00275295
0.00253186
0.00284956
0.00367518
0.00395475
0.00307436
0.00288746
0.00283017
0.00279404
0.00252677
0.00261513
0.00237487
0.00213987
0.00233134
0.00281825
0.00267297
0.00291948
0.00302546
0.00283857
0.00328941
0.00379341
0.00373812
0.00299128
0.00243808
0.00227264
0.00228996
0.0014005
0.00151241
0.00163008
0.00167001
0.00169797
0.00172174
0.00183601
0.00183187
0.00180497
0.00180099
0.00183259
0.00100993
0.00109416
0.00112138
0.00112923
0.00107254
0.00106151
0.0010417
0.0010256
0.000966887
0.000925105
0.00110696
0.00124301
0.00135392
0.00148357
0.0016771
0.00191389
0.00216273
0.00241417
0.0025805
0.00262789
0.0026758
0.00257858
0.00248091
0.00256928
0.00258413
0.0025674
0.00253284
0.00248924
0.00243031
0.00232224
0.00244662
0.00243956
0.00229186
0.00196442
0.00200811
0.0020045
0.00205677
0.00204661
0.00206767
0.00203888
0.00200512
0.00190901
0.00177495
0.00147826
0.0014372
0.00145625
0.00187107
0.00227236
0.0035111
0.00428467
0.00497663
0.00532689
0.00570382
0.00461285
0.00513288
0.00395496
0.00355114
0.00451412
0.00590674
0.00336971
0.00183879
0.00348656
0.00309108
0.00224022
0.00199332
0.00205323
0.00205853
0.00236797
0.00272934
0.00302679
0.00317065
0.00329818
0.00339977
0.00351198
0.00365463
0.0036938
0.00356872
0.00302138
0.00363961
0.00295418
0.00344916
0.00311349
0.00209748
0.00224249
0.00237321
0.0021696
0.00210936
0.00202178
0.00181729
0.00222909
0.00289827
0.00336483
0.00384667
0.0051266
0.00474306
0.00455085
0.00352417
0.00340774
0.00176974
0.0025256
0.00261283
0.00293667
0.00195266
0.00178035
0.00168829
0.00223885
0.00259377
0.00306073
0.00339321
0.00403017
0.00312197
0.00356452
0.00322367
0.00224359
0.00216234
0.00309966
0.00334019
0.00274777
0.00246022
0.00308506
0.00291815
0.00206909
0.00166182
0.00255247
0.00264517
0.00189563
0.00471378
0.00500153
0.00476747
0.00580868
0.00728375
0.0083076
0.00773382
0.00686179
0.00766255
0.00608396
0.00589091
0.00628429
0.00527685
0.00370099
0.00379539
0.00392638
0.00403382
0.00433176
0.00460231
0.00493238
0.00524647
0.00476892
0.00396017
0.0029971
0.00206213
0.00203436
0.00202428
0.00181772
0.00269379
0.00407492
0.004047
0.00229884
0.00133992
0.00151561
0.00171146
0.00169469
0.00122952
0.000925539
0.00159449
0.00182327
0.00185279
0.00180683
0.00170599
0.00178271
0.0028629
0.00441046
0.00484611
0.00501913
0.00518278
0.00529826
0.00536235
0.00538239
0.00539333
0.00540682
0.00541862
0.00543685
0.00541967
0.00530396
0.00466505
0.00293303
0.00171463
0.00159291
0.00175801
0.00188939
0.00200412
0.00170534
0.00104264
0.0016654
0.00213242
0.00245082
0.00247162
0.00230662
0.00223751
0.00352804
0.0046908
0.00552901
0.00569857
0.00577383
0.00571005
0.00570131
0.00557627
0.00553668
0.00485427
0.00347586
0.00380092
0.00408141
0.00412882
0.00422464
0.00436833
0.00426697
0.0040302
0.00589217
0.00679748
0.00688438
0.00703081
0.00694725
0.00682662
0.00651577
0.00616088
0.00518631
0.00388918
0.00245378
0.00250482
0.00266636
0.00264068
0.00229857
0.0024222
0.00262884
0.00265517
0.00274204
0.00307512
0.00349281
0.00333161
0.00286664
0.00243469
0.002267
0.00221969
0.0021299
0.00159553
0.00161913
0.00157366
0.00159947
0.00214848
0.00255714
0.00294902
0.00418316
0.00373173
0.00303495
0.00481263
0.00493076
0.00529661
0.00585049
0.00599565
0.00664253
0.00462558
0.00416896
0.00428271
0.00349834
0.00323813
0.00327269
0.00328502
0.00306156
0.00335094
0.0033215
0.00320154
0.00353475
0.00389522
0.00513662
0.00622465
0.00656825
0.00676708
0.0068485
0.0068225
0.00668863
0.00672976
0.00591
0.00590212
0.00565317
0.00549068
0.00543281
0.00516253
0.00591107
0.00613688
0.00621217
0.00636711
0.00660861
0.00643056
0.00623046
0.00607838
0.00596818
0.00585282
0.00591557
0.00602571
0.00614313
0.00630816
0.00652892
0.00656621
0.0063374
0.00616461
0.00604643
0.00593543
0.0059403
0.00603935
0.00615483
0.00631862
0.00652787
0.006412
0.00624942
0.00610463
0.00598586
0.00588129
0.00567573
0.00581299
0.00596396
0.00608842
0.00616921
0.00533003
0.00569715
0.00559891
0.00506886
0.00474398
0.00360262
0.00389886
0.00411151
0.00447822
0.00497104
0.00506794
0.00425276
0.00364446
0.00355132
0.00352263
0.00360553
0.00363541
0.00365306
0.0041278
0.00622017
0.00626201
0.00627931
0.00628142
0.00537106
0.0052193
0.00486304
0.00888864
0.00827478
0.00717022
0.00590975
0.00316784
0.00271551
0.00321692
0.00391182
0.00437328
0.00482547
0.00320393
0.00198424
0.00231227
0.00239706
0.0023379
0.00216084
0.00180027
0.00166179
0.00150819
0.00162313
0.00287479
0.00458833
0.00516877
0.00522408
0.00517268
0.0050724
0.00495034
0.00478029
0.00472137
0.00595668
0.00806706
0.00909279
0.00905506
0.00777977
0.0063429
0.00357644
0.00184141
0.00135333
0.00146103
0.00160476
0.00188492
0.00168042
0.0014131
0.00154865
0.0014668
0.00297073
0.00512641
0.00652429
0.00774995
0.00762978
0.00663645
0.00541992
0.00513238
0.00525188
0.00533245
0.00540095
0.00547124
0.00551931
0.00548807
0.00499468
0.0030852
0.00184164
0.00163616
0.00175913
0.00206174
0.002191
0.00221373
0.00218327
0.00189294
0.00313122
0.00497137
0.00316196
0.00172503
0.00186362
0.00184977
0.00326304
0.00325827
0.00318846
0.00496069
0.00524554
0.00523263
0.00491668
0.0046933
0.00277894
0.00315437
0.0031651
0.00318175
0.00323378
0.0016339
0.00178106
0.00183661
0.00197749
0.00172757
0.00219473
0.000567998
0.000787483
0.000914796
0.000994927
0.00107203
0.00105172
0.00201241
0.0020421
0.00194837
0.00189694
0.00240731
0.0025832
0.00264015
0.00243168
0.00224371
0.00238821
0.00239351
0.00225583
0.00213676
0.00221529
0.00221685
0.00212463
0.00180716
0.00169341
0.00185889
0.00183888
0.00182427
0.00327519
0.00326934
0.00309449
0.00508313
0.00500196
0.00560243
0.00556637
0.0055598
0.00553692
0.00559675
0.00562803
0.00565146
0.00567874
0.00566773
0.00561252
0.00778122
0.00552285
0.00481913
0.00278726
0.002685
0.00189646
0.00166215
0.00195717
0.00209326
0.00226939
0.0022181
0.00233822
0.00233536
0.00247806
0.00229997
0.00204215
0.00312755
0.00334102
0.00326301
0.00332743
0.00324913
0.0032299
0.00320632
0.00316093
0.00310616
0.00184977
0.00181459
0.00212488
0.00223053
0.00239674
0.00241833
0.00247084
0.00234318
0.00206066
0.00199464
0.00229732
0.0022663
0.00231054
0.00217841
0.00216924
0.00193234
0.0019813
0.00399224
0.00735532
0.00379429
0.0042141
0.00381925
0.00434285
0.00380491
0.00328225
0.00335946
0.00295922
0.00308683
0.00323781
0.00329637
0.00346452
0.00408388
0.00393168
0.00345112
0.00335096
0.00328502
0.00309758
0.00278828
0.00292058
0.0029467
0.00300991
0.0033453
0.00383685
0.0043004
0.00522409
0.00506946
0.00444199
0.00406104
0.00425809
0.00433299
0.00545291
0.00509379
0.00506391
0.00534238
0.00528967
0.00501947
0.00475575
0.00459032
0.00394232
0.00400714
0.00458398
0.00443578
0.00457138
0.00449131
0.00466976
0.00475455
0.00456297
0.00424117
0.00446033
0.00445178
0.00494287
0.0048066
0.00445953
0.00407814
0.00436137
0.00430948
0.00497677
0.00468395
0.00438086
0.00403399
0.00386497
0.00438584
0.00430539
0.00488045
0.0050227
0.00502483
0.0043817
0.00427947
0.00508759
0.00489367
0.00472848
0.00492533
0.00408005
0.0041958
0.00516714
0.00527509
0.00500544
0.0041803
0.0042436
0.00363848
0.00427852
0.00532398
0.0050284
0.00412208
0.0034213
0.00478506
0.0050339
0.00532259
0.00503086
0.00547744
0.00589993
0.00481213
0.00523459
0.00683602
0.0052268
0.00606465
0.00619842
0.0062343
0.00623682
0.00626011
0.00629038
0.00662555
0.00644137
0.00410054
0.00490166
0.00476495
0.00398881
0.0033953
0.00373896
0.00402683
0.00408503
0.00418863
0.00434775
0.00427218
0.00412708
0.00604499
0.00689892
0.00704672
0.00718538
0.00706755
0.006894
0.00649325
0.0060056
0.0049962
0.00372787
0.0023293
0.00237486
0.0025311
0.00250751
0.00217551
0.00164068
0.00107859
0.00159978
0.00165507
0.0015603
0.00142441
0.00126148
0.00131197
0.00237754
0.0043085
0.00621312
0.00691499
0.00748082
0.00807145
0.00861519
0.00902387
0.00932351
0.00952906
0.0096568
0.00968375
0.00949994
0.00863258
0.0082427
0.00775968
0.00736257
0.00681892
0.00640701
0.00724654
0.00796425
0.00840735
0.00890436
0.00913464
0.00903808
0.00784872
0.00760234
0.00874846
0.0107846
0.00916965
0.0115249
0.0135508
0.0105395
0.00947744
0.00947694
0.0106026
0.0108091
0.0104251
0.00982481
0.00913447
0.0082602
0.00869888
0.00909954
0.00948814
0.00984664
0.0107995
0.0109603
0.0108748
0.0106992
0.0104677
0.0101468
0.00965267
0.00896337
0.00814961
0.00733798
0.00639609
0.00439446
0.00222597
0.00250431
0.00246951
0.00249079
0.00249899
0.00119723
0.00132227
0.00133852
0.00134624
0.0012684
0.00144482
0.0020885
0.00337582
0.00242652
0.00200344
0.00138061
0.00161459
0.00269309
0.00455634
0.00514449
0.00525121
0.00537106
0.00708979
0.00795345
0.00843566
0.00881677
0.00907501
0.0089658
0.00867954
0.00817045
0.00751448
0.00726306
0.0068472
0.0064855
0.00628649
0.00608896
0.00570563
0.00445619
0.00432235
0.00450392
0.00444368
0.00425244
0.00454612
0.00471153
0.00470835
0.00476126
0.00480738
0.00494959
0.00511679
0.00526221
0.00533836
0.00536639
0.00537492
0.00538548
0.00539372
0.00540974
0.00539101
0.00527265
0.0046296
0.00289495
0.00168988
0.00156206
0.00171262
0.00181101
0.00185302
0.00164557
0.00105942
0.00164624
0.00213092
0.00218575
0.00239863
0.00247481
0.00262377
0.00292163
0.00337572
0.0034833
0.00309097
0.00292755
0.0028656
0.00279306
0.00239221
0.002982
0.00328502
0.00327819
0.00324667
0.00350909
0.00431827
0.0041483
0.0036582
0.00361797
0.00358189
0.00324354
0.00319525
0.00348596
0.00352403
0.00365483
0.00428517
0.00513856
0.00476752
0.00434273
0.00416466
0.00384666
0.00339037
0.00306527
0.00375829
0.00307927
0.00163924
0.00139917
0.00138436
0.0013919
0.00134633
0.00159628
0.00167933
0.0017011
0.00157947
0.00175161
0.00194834
0.00188324
0.00213132
0.00210459
0.00188642
0.00186984
0.00201647
0.00212267
0.00217771
0.00224215
0.00366981
0.00379379
0.00293494
0.00424135
0.00488326
0.00483223
0.00512672
0.00422325
0.00378975
0.00449729
0.00519072
0.00594385
0.0047026
0.00445083
0.00455001
0.0020941
0.00110202
0.00155436
0.00193003
0.00215288
0.00208949
0.00197405
0.00166932
0.00295873
0.00303917
0.00481536
0.00540177
0.00547249
0.0054393
0.0055264
0.00605334
0.00698039
0.00788629
0.0081532
0.00803774
0.00768224
0.00702311
0.00635619
0.00631254
0.00608787
0.00592536
0.00587447
0.00509104
0.00452522
0.00485019
0.00476325
0.00492473
0.00500026
0.00505512
0.00511082
0.00520343
0.00531504
0.00541649
0.00548523
0.00553062
0.00556853
0.00560719
0.00564599
0.00568803
0.00571023
0.00565514
0.00511026
0.00306538
0.00182767
0.00166722
0.00177892
0.00209075
0.00220142
0.002366
0.00210066
0.00110643
0.00130047
0.00226047
0.00250688
0.00231953
0.00217086
0.00213191
0.00178598
0.00323522
0.00319299
0.00501192
0.00563746
0.00571716
0.00570231
0.00565929
0.00561055
0.00556351
0.00552488
0.00549395
0.00546081
0.00541335
0.00535492
0.00530137
0.00524745
0.00515445
0.00502266
0.00486515
0.00505378
0.00523761
0.00545568
0.00568841
0.00580725
0.00570579
0.0055524
0.00548406
0.00551783
0.00556435
0.00561249
0.00565588
0.00567693
0.00561322
0.00528989
0.00496354
0.00314367
0.00318457
0.00156731
0.00174095
0.00200877
0.00207474
0.00225306
0.00224219
0.00176276
0.00137427
0.00155068
0.00144921
0.00258868
0.00284665
0.00315656
0.00312526
0.00169749
0.0017413
0.00180981
0.00204129
0.00189842
0.00183456
0.00452355
0.00433568
0.00453821
0.00556671
0.00479524
0.00331089
0.00362588
0.00504624
0.0053225
0.00321694
0.00241478
0.00267581
0.00338859
0.00499045
0.00505293
0.00480093
0.00477305
0.00348303
0.00428297
0.00515616
0.00501551
0.00390788
0.00269206
0.00200709
0.00097687
0.00185809
0.0015885
0.00389196
0.00430701
0.00425684
0.00465483
0.00494565
0.00499621
0.00485457
0.00430587
0.00439138
0.00443467
0.00505269
0.00507499
0.00429691
0.00362603
0.00294607
0.00297233
0.00302973
0.00335696
0.00420317
0.00396024
0.0034713
0.00336622
0.00329382
0.00309831
0.00279609
0.0024526
0.00246958
0.00229865
0.00222458
0.00350661
0.00466753
0.005504
0.00566238
0.00571994
0.0056326
0.00559335
0.00543409
0.00535204
0.00465003
0.00593952
0.00627787
0.00605703
0.00610075
0.0061378
0.00618364
0.00618366
0.00606671
0.00521345
0.00311356
0.0020338
0.00229559
0.00247771
0.00232662
0.00231344
0.00246572
0.00233976
0.00205526
0.0033299
0.00325473
0.00520401
0.00589336
0.00602049
0.00602889
0.00600558
0.00598642
0.0059947
0.00630982
0.00616368
0.00623749
0.00655972
0.00657319
0.00665402
0.006248
0.0061692
0.00611917
0.00608588
0.00603122
0.00588389
0.00520764
0.00504852
0.00573223
0.005908
0.00598569
0.00603955
0.00610418
0.00618947
0.00643536
0.00661755
0.00668461
0.0064226
0.00633033
0.00618544
0.0059768
0.00592717
0.0059165
0.00591103
0.00588145
0.0057279
0.00504179
0.00324174
0.00332163
0.00197599
0.00198885
0.00229066
0.00240587
0.00236291
0.00218811
0.00213339
0.00366981
0.00417746
0.0044435
0.00478615
0.00457166
0.00454468
0.00519417
0.00502716
0.00447993
0.00466161
0.00418191
0.00398541
0.00385365
0.00387516
0.00203965
0.00220097
0.00229581
0.00225777
0.00215899
0.00192574
0.00176599
0.00322297
0.00319935
0.0031575
0.00187772
0.0018365
0.00216361
0.00210112
0.00192206
0.00163842
0.00179618
0.0027733
0.00310184
0.00480983
0.00498237
0.00533363
0.00570474
0.00584614
0.00588505
0.00590857
0.00593504
0.00599075
0.00605625
0.00607339
0.00606797
0.00611331
0.00610399
0.00610401
0.00607002
0.0060318
0.00598793
0.00594155
0.00586587
0.00571015
0.00533651
0.00496971
0.00560351
0.0056548
0.00575985
0.00586888
0.00591586
0.00592437
0.00590478
0.00586437
0.00581664
0.00576031
0.0057596
0.00592527
0.00596407
0.00599277
0.00597501
0.00595494
0.00594834
0.00592233
0.00587966
0.00577
0.00565987
0.00561253
0.00551815
0.00566636
0.00573269
0.00574357
0.00580015
0.0058902
0.00591515
0.00591327
0.00586892
0.00583177
0.00578503
0.00570954
0.00561188
0.00527831
0.0053449
0.00543332
0.00554849
0.00565989
0.00574991
0.00580012
0.00580258
0.0057486
0.00571266
0.00571413
0.00566618
0.00569193
0.00571776
0.00568906
0.00568648
0.00569222
0.0056297
0.00551384
0.0053519
0.00518
0.00503648
0.00496078
0.00483983
0.0052326
0.00537949
0.0055109
0.00562805
0.00573433
0.00584137
0.00587553
0.00586485
0.00579853
0.00576022
0.00575737
0.00570076
0.00569897
0.00575385
0.00575736
0.0057894
0.00584669
0.00582903
0.00574917
0.00554838
0.00535333
0.00518425
0.00502328
0.00485107
0.00478824
0.00486638
0.00480605
0.00487856
0.00505025
0.0052633
0.00544653
0.00556191
0.00559739
0.00563099
0.00568149
0.00567558
0.0056457
0.00562957
0.00556135
0.00550232
0.00542965
0.00526894
0.00506229
0.0048783
0.0048162
0.00491177
0.00500984
0.00491943
0.00458232
0.0047642
0.00493453
0.0051051
0.00534707
0.00562646
0.00575079
0.00579534
0.0057677
0.00574541
0.00574135
0.0056893
0.00567221
0.00572016
0.0057249
0.00574726
0.00578311
0.00574439
0.00564106
0.00529809
0.00489181
0.00469782
0.00458436
0.00442766
0.00494416
0.00504681
0.00492184
0.0048379
0.00496965
0.00512463
0.00528553
0.00539235
0.00543434
0.00549263
0.0055693
0.00560575
0.00555115
0.00548771
0.00540909
0.00536815
0.00536576
0.00533647
0.00523188
0.00511075
0.00497387
0.00514229
0.00524034
0.00514656
0.00466937
0.00474685
0.00485818
0.00492211
0.00530224
0.00563768
0.00572004
0.00572557
0.0056921
0.00566971
0.00566989
0.00563943
0.00558443
0.00557497
0.00557003
0.00563451
0.00571842
0.00576262
0.00578332
0.0055321
0.00507778
0.00500513
0.00480273
0.0047048
0.00521576
0.00527514
0.00515534
0.00504279
0.00528377
0.00538727
0.00541772
0.00539824
0.00534379
0.0053073
0.00537504
0.00548149
0.00540044
0.00505088
0.00473953
0.00489896
0.00493666
0.00492283
0.00485505
0.0047436
0.00450266
0.00502694
0.00553751
0.00558054
0.00504293
0.00505107
0.00488361
0.00454179
0.00498289
0.00521977
0.0052738
0.00525623
0.0051774
0.00498174
0.00526266
0.00550944
0.00546222
0.00494422
0.00320915
0.00325345
0.00327722
0.00328053
0.00323712
0.0032249
0.0031776
0.00315303
0.00307967
0.00300499
0.00293389
0.00312861
0.00329598
0.00352105
0.00353921
0.00363209
0.00347572
0.0032907
0.00307279
0.0023933
0.00303679
0.00362237
0.00385047
0.00414258
0.00420341
0.00485047
0.00510336
0.00524115
0.00514152
0.00412605
0.00350053
0.00279757
0.00181941
0.00113366
0.00133077
0.00138418
0.00145457
0.00177853
0.00328792
0.00167437
0.00232453
0.00181643
0.00313054
0.00165101
0.00103048
0.000681871
0.000866322
0.00102416
0.00103281
0.000992308
0.000828293
0.000653002
0.000667571
0.000624111
0.000663355
0.000598476
0.000685736
0.00064071
0.000894669
0.00134534
0.001527
0.0015606
0.00126128
0.00142214
0.00118808
0.00137024
0.00122341
0.00133356
0.00127925
0.00156474
0.00171498
0.00164219
0.00164703
0.00144145
0.00100833
0.00116868
0.00091825
0.00110245
0.000843691
0.00108987
0.000934633
0.0012145
0.00125205
0.00124851
0.00120219
0.000918486
0.00108883
0.000857191
0.00104972
0.000859757
0.000912776
0.000758863
0.00109875
0.00111832
0.00103076
0.00109466
0.00122827
0.00131808
0.00145518
0.00138107
0.00157873
0.00152898
0.00155553
0.00147352
0.001433
0.00140025
0.00140299
0.00137981
0.00138726
0.00143182
0.0014339
0.00143943
0.0014848
0.00146292
0.00142765
0.00140648
0.00124944
0.00100793
0.00175573
0.00181063
0.00183723
0.00183658
0.00179465
0.00177465
0.00171353
0.00169723
0.00164404
0.00161269
0.00154146
0.00148278
0.00141604
0.00159133
0.000890414
0.00101095
0.00106729
0.00109894
0.00112112
0.00113132
0.00113967
0.00113337
0.00111941
0.00109173
0.00108228
0.00105213
0.00134644
0.00153152
0.0016009
0.0016195
0.0015182
0.00144576
0.00315953
0.00382258
0.00581463
0.00594327
0.00446085
0.00444804
0.00154019
0.00162446
0.00111119
0.00156163
0.00161034
0.00159414
0.00150618
0.00108655
0.00163047
0.00113567
0.00152836
0.00114425
0.00141174
0.00116065
0.00164491
0.00209445
0.00201856
0.00182647
0.00124326
0.00103498
0.00103314
0.000885773
0.000972322
0.000804959
0.000990657
0.000838867
0.00124893
0.00178186
0.00197158
0.00201108
0.00158576
0.00218802
0.00164483
0.00238129
0.00188967
0.00233004
0.00186942
0.00216447
0.00267827
0.00269034
0.00262671
0.00211726
0.00169745
0.00190491
0.00168792
0.00194359
0.00280826
0.00184077
0.00279098
0.00115376
0.00157274
0.00162112
0.00159899
0.00150783
0.00101618
0.00258744
0.00136811
0.00243496
0.001575
0.00252529
0.00182892
0.00241623
0.00288658
0.00301268
0.00299599
0.00244457
0.00220194
0.00227041
0.0018136
0.00217704
0.00162885
0.00236746
0.0013506
0.00175792
0.00194735
0.00205063
0.00205929
0.00169322
0.00334343
0.00209875
0.00316807
0.00220218
0.00282149
0.00226121
0.0024745
0.00292213
0.00290418
0.00288011
0.00244242
0.00197619
0.00260817
0.00186124
0.0552784
0.127875
0.0508332
0.129212
0.0585061
0.0830439
0.08183
0.0820055
0.0823138
0.0618035
0.134908
0.159381
0.166213
0.168227
0.166965
0.269828
0.219996
0.330582
0.214319
0.12604
0.0545807
0.0753087
0.194534
0.321356
0.482171
0.611833
0.416895
0.431537
0.275375
0.271518
0.255612
0.206783
0.126803
0.0635659
0.010915
0.0119605
0.0171132
0.0227664
0.0179267
0.0109855
0.00217128
0.0022414
0.0022929
0.00232582
0.00231982
0.00227332
0.00231278
0.00218895
0.00206329
0.00231052
0.00251817
0.00266283
0.00314585
0.00347985
0.00313673
0.0034395
0.003646
0.00381448
0.00395397
0.00416124
0.00439445
0.00459882
0.00460985
0.00422387
0.00359964
0.00292877
0.00246276
0.00233357
0.00219156
0.00193263
0.00176805
0.00165604
0.00160146
0.00157859
0.00162194
0.00177225
0.0019024
0.00194795
0.00190929
0.00187429
0.00184374
0.00164174
0.00191943
0.00263292
0.00265409
0.00454698
0.00523929
0.00534795
0.00535507
0.00474789
0.00303309
0.00303959
0.00305513
0.00311309
0.00312516
0.0031326
0.00312923
0.00311774
0.0030995
0.0030654
0.00304852
0.00299926
0.0029578
0.00285424
0.00285885
0.00289515
0.00292414
0.00287641
0.00288825
0.00282793
0.00366638
0.00490787
0.00554802
0.00579852
0.00601482
0.00583811
0.00808485
0.0069085
0.00485388
0.00478357
0.00472386
0.00560152
0.00564105
0.00510192
0.00512304
0.00466479
0.00291143
0.002902
0.00290391
0.00310535
0.00316627
0.00327471
0.00330464
0.00333175
0.00334772
0.00334263
0.00334086
0.00331229
0.00329038
0.00321642
0.0031918
0.00318122
0.00175379
0.00191406
0.00198543
0.0019984
0.00202677
0.00201419
0.00200175
0.00197747
0.00196145
0.00192839
0.00189001
0.00183379
0.00172425
0.00157088
0.00172883
0.00293482
0.00293402
0.00478383
0.00540766
0.00544707
0.00605375
0.00574744
0.00544301
0.00584053
0.00527142
0.00523071
0.00472784
0.00293453
0.00297465
0.00176477
0.00174956
0.00204529
0.00198893
0.00212527
0.00218342
0.00219042
0.00222093
0.00224998
0.0022861
0.00234446
0.00236215
0.00232607
0.00231949
0.00218497
0.00188799
0.00191039
0.00225245
0.00236258
0.00219319
0.0021541
0.00213697
0.00208424
0.00204427
0.002006
0.00203193
0.00218755
0.0021849
0.00214609
0.00204209
0.00198836
0.00172373
0.00166456
0.00291121
0.00295491
0.00489093
0.00500419
0.00496083
0.00571278
0.00637549
0.00725596
0.00619233
0.00503873
0.00527056
0.00602394
0.00448271
0.00375014
0.00223332
0.00167152
0.0020895
0.00192301
0.00200518
0.00207759
0.00184515
0.00198263
0.00183327
0.00166598
0.00165683
0.00165493
0.00169598
0.00171326
0.00174451
0.00174878
0.00179145
0.00178752
0.00179305
0.00181501
0.00182522
0.00201673
0.00219252
0.00184501
0.00156402
0.0015232
0.00143824
0.00136901
0.00140223
0.00136829
0.00135985
0.00133475
0.00131202
0.00125185
0.00130444
0.00138403
0.00161907
0.00154978
0.00125268
0.00111936
0.00076511
0.000780427
0.000785833
0.000810052
0.000818952
0.000829887
0.000833966
0.000847614
0.000850284
0.000854619
0.000854299
0.000875212
0.000872253
0.000862307
0.000855829
0.000860042
0.000864085
0.000863526
0.0012645
0.00140819
0.00153897
0.00182817
0.00215193
0.00185222
0.00156958
0.00135226
0.000869188
0.000882272
0.000898443
0.000906744
0.000926158
0.00094376
0.000963492
0.000975912
0.000985302
0.000995059
0.00100537
0.00100948
0.00100703
0.000987551
0.000976084
0.00100086
0.00110003
0.00115765
0.00123158
0.00125949
0.00128316
0.00129488
0.00128877
0.00130232
0.00128704
0.00128495
0.00126307
0.00125378
0.00124492
0.00123374
0.00121982
0.00118536
0.00117391
0.00123504
0.00209235
0.00273764
0.00315363
0.00347448
0.00321715
0.00261476
0.0027428
0.00482289
0.00457018
0.0026937
0.00251742
0.00232704
0.00203946
0.00176736
0.00213187
0.00243503
0.00266449
0.00286574
0.00304991
0.00317517
0.00333592
0.00354546
0.00391512
0.00396181
0.00361387
0.0029291
0.00248057
0.00231777
0.0022397
0.00210297
0.00195347
0.00200222
0.00201651
0.00195629
0.00188142
0.00185987
0.00189041
0.00192911
0.00190588
0.00190515
0.00170198
0.00170141
0.00290714
0.00296278
0.00455721
0.00480127
0.00484723
0.0031169
0.00307388
0.0017954
0.00166727
0.00181885
0.00188802
0.0018918
0.00189922
0.00188931
0.00185606
0.00183177
0.00180351
0.00178064
0.00176052
0.00172575
0.0016595
0.00153265
0.00167023
0.00187324
0.00195613
0.00197758
0.0019878
0.00201917
0.00207065
0.002112
0.00220789
0.00221802
0.00221743
0.00222541
0.00208018
0.00214549
0.00181578
0.00181336
0.00314311
0.0031349
0.00180085
0.00212663
0.00214076
0.00211604
0.00227783
0.00208433
0.00201798
0.00200684
0.0019216
0.00187632
0.00181604
0.00178006
0.00181498
0.00193079
0.00186956
0.00165662
0.0015974
0.00179175
0.00172347
0.00142991
0.00122166
0.00118801
0.0011372
0.00110641
0.00115966
0.00120117
0.00122485
0.00125496
0.00126391
0.00131933
0.00128378
0.00134741
0.00142892
0.00149393
0.00177221
0.00192032
0.00173482
0.00170134
0.00168021
0.0016781
0.00168331
0.00161376
0.00160916
0.00157326
0.0015556
0.00150876
0.0014876
0.00146069
0.00146552
0.001481
0.00162816
0.00419322
0.00534412
0.00556525
0.00949357
0.00384148
0.00392275
0.00767802
0.00318393
0.00478249
0.00512373
0.00535808
0.00559514
0.00512104
0.00649502
0.0045423
0.00505777
0.00527516
0.00462686
0.00172842
0.00195854
0.00226394
0.00202727
0.00179099
0.00122107
0.00131714
0.00136043
0.00139555
0.00141834
0.00144366
0.00147078
0.00149625
0.00151417
0.00151452
0.0014686
0.00141905
0.00130513
0.00126721
0.00131632
0.00136711
0.00120084
0.00113071
0.00114412
0.00116306
0.00117369
0.00117603
0.00118764
0.00119081
0.00120911
0.00119942
0.00120867
0.00118808
0.00119867
0.00118291
0.00114246
0.00108581
0.000989403
0.000965776
0.00139104
0.00148123
0.00155608
0.00176558
0.00203847
0.00217513
0.00194932
0.00179723
0.0017251
0.00191371
0.00191396
0.00347611
0.00667418
0.00298862
0.00335048
0.00976985
0.00388176
0.00301859
0.00306452
0.00309679
0.00310097
0.00180211
0.00213465
0.0020699
0.00207791
0.00176221
0.00147941
0.00132677
0.00118624
0.000804292
0.000801596
0.00080765
0.000819951
0.000823767
0.000788449
0.000788354
0.00078384
0.000782071
0.000765468
0.000760837
0.000747358
0.000739175
0.00071977
0.000709242
0.000690732
0.000687391
0.000715876
0.000795101
0.000960895
0.00107082
0.00121628
0.00123886
0.00139794
0.00346614
0.00401937
0.00553587
0.00548977
0.00865803
0.00541027
0.00408773
0.00369538
0.00540533
0.00558343
0.00518293
0.00702213
0.00486047
0.0032168
0.00481562
0.004001
0.00476246
0.00466406
0.00494767
0.00786972
0.00829985
0.00233764
0.00208409
0.0021926
0.00248738
0.00295309
0.00271913
0.00309759
0.00309462
0.00238802
0.00152115
0.00484416
0.0058354
0.0046816
0.00561972
0.00870824
0.00349753
0.00341124
0.00301842
0.00251948
0.00229005
0.00225928
0.00251901
0.00301422
0.00755719
0.00808034
0.00743373
0.00739944
0.00671353
0.00739058
0.00924025
0.00920406
0.00812948
0.00760762
0.00787164
0.00485657
0.00303114
0.00353196
0.00391282
0.00522016
0.00538279
0.0113685
0.0038574
0.00426127
0.00432802
0.0057898
0.00560522
0.0099178
0.00419785
0.00452859
0.00596695
0.00797684
0.0147222
0.00536459
0.00565484
0.00813678
0.00826003
0.00754828
0.00544969
0.00493737
0.00538
0.00405307
0.00396189
0.00338264
0.00499404
0.00672516
0.00531443
0.00516077
0.00439254
0.00390585
0.0040045
0.00415454
0.00345036
0.0034028
0.00392872
0.0029111
0.00281658
0.00298564
0.000828555
0.00042477
0.00043428
0.000445554
0.000454713
0.000464134
0.000471044
0.000479218
0.000482938
0.000483325
0.000484541
0.000512478
0.000507784
0.00049174
0.000446516
0.000509561
0.00080865
0.000809237
0.000509034
0.00044877
0.000805198
0.00128316
0.00151294
0.00179001
0.00181232
0.00156363
0.00135552
0.000834207
0.000821117
0.000497708
0.00058126
0.000631218
0.00055983
0.000624754
0.000579029
0.000613333
0.000619578
0.000573178
0.000570014
0.000572224
0.00056783
0.000557746
0.000545405
0.000530359
0.000518481
0.000511903
0.000506693
0.000495446
0.000412122
0.000383964
0.000461264
0.000735103
0.000733961
0.000688162
0.000649188
0.000615978
0.000600946
0.000596804
0.000593588
0.000603956
0.000623511
0.000629026
0.000634521
0.000683765
0.000662622
0.00070777
0.000664215
0.000709664
0.000666145
0.000612804
0.00051455
0.000530902
0.000856474
0.000865596
0.00139879
0.00160044
0.00181494
0.0018244
0.00203647
0.00214458
0.00181583
0.00188529
0.00216094
0.00201274
0.00179429
0.00180119
0.00162033
0.00162168
0.00143628
0.000897466
0.000885242
0.000555953
0.000539892
0.000643763
0.000632466
0.000703401
0.000752741
0.000752967
0.000750515
0.000731378
0.000724571
0.000637169
0.000624695
0.000625506
0.000606543
0.000602447
0.000627999
0.000684938
0.000803459
0.000971653
0.0010582
0.00109557
0.00105124
0.000941522
0.000694125
0.000627763
0.00108753
0.00112954
0.00201738
0.00477688
0.00221665
0.00426259
0.00307748
0.000766231
0.000855151
0.00109054
0.00122199
0.00131922
0.0013745
0.0012557
0.00104737
0.000788682
0.000651379
0.000973817
0.000842084
0.000951495
0.000831078
0.00107561
0.00124374
0.00120328
0.00121243
0.00102472
0.000834822
0.000884071
0.000793804
0.000874959
0.000732456
0.000881242
0.000795725
0.000999965
0.00100934
0.000988339
0.00093682
0.000713315
0.000748396
0.000627739
0.000680943
0.000611304
0.000631798
0.000598663
0.000698168
0.000804492
0.000772067
0.000769023
0.000631843
0.000495066
0.000546755
0.000472697
0.000534978
0.000415737
0.000503635
0.000422386
0.000546767
0.000563615
0.000566541
0.000562754
0.000457698
0.000538041
0.000659657
0.0006928
0.000698572
0.000665575
0.000513004
0.000793904
0.000716788
0.000875257
0.000757239
0.000828775
0.000754799
0.000879814
0.00112678
0.00117641
0.00118426
0.000960784
0.000954612
0.00174153
0.0964894
0.00156654
0.00185146
0.00190911
0.00190218
0.00157272
0.00153459
0.00190047
0.00140613
0.00199095
0.00125359
0.00212298
0.000809346
0.00123022
0.00132077
0.00131792
0.00122478
0.000820958
0.00242768
0.119357
0.308194
0.334306
0.33373