/*--------------------------------*- C++ -*----------------------------------*\
| =========                 |                                                 |
| \\      /  F ield         | OpenFOAM: The Open Source CFD Toolbox           |
|  \\    /   O peration     | Version:  v2012                                 |
|   \\  /    A nd           | Website:  www.openfoam.com                      |
|    \\/     M anipulation  |                                                 |
\*---------------------------------------------------------------------------*/
FoamFile
{
    version     2.0;
    format      ascii;
    class       volScalarField;
    location    "575";
    object      k;
}
// * * * * * * * * * * * * * * * * * * * * * * * * * * * * * * * * * * * * * //

dimensions      [0 2 -2 0 0 0 0];


internalField   nonuniform List<scalar> 
18258
(
0.0336187
0.0158397
0.0123885
0.0102319
0.0110161
0.0140438
0.0168456
0.0212218
0.0256486
0.0315842
0.0386453
0.0475688
0.053561
0.060699
0.0636556
0.0619246
0.0520316
0.0472793
0.0564481
0.0809739
0.0711452
0.0514385
0.0624049
0.0615514
0.0722633
0.0763513
0.0600876
0.0548969
0.0494952
0.043812
0.0372292
0.0229672
0.0241593
0.0289346
0.0321326
0.035832
0.0386746
0.0409845
0.0426355
0.0434451
0.0433442
0.0420461
0.039359
0.0353384
0.0299093
0.023975
0.0237996
0.02354
0.0292447
0.034905
0.0403796
0.0459854
0.0544191
0.044578
0.0290131
0.0391474
0.047611
0.0545023
0.0589403
0.0614022
0.0621769
0.0612734
0.0589912
0.0557368
0.0517782
0.0474395
0.0434196
0.039431
0.0341855
0.030922
0.0268073
0.0234603
0.0210178
0.0193038
0.0181844
0.0171822
0.0163175
0.0155851
0.0149696
0.0145474
0.0144558
0.0144813
0.014581
0.0146771
0.0150203
0.0126699
0.0108994
0.0104318
0.01018
0.00953453
0.00808501
0.0106412
0.0117508
0.0121685
0.0124409
0.0136148
0.0147568
0.0143293
0.0136022
0.0124808
0.0126931
0.0171313
0.0178661
0.0229182
0.0217768
0.0170154
0.0148227
0.0166132
0.0194348
0.0224942
0.0192602
0.0192311
0.0179274
0.017027
0.014875
0.0149063
0.0143876
0.0140807
0.0149978
0.0177677
0.0171787
0.0172936
0.0185122
0.0188349
0.0200627
0.0210814
0.0204162
0.0202327
0.0163664
0.0162659
0.0173062
0.0171792
0.0176597
0.0201669
0.0202236
0.0205661
0.0207816
0.0235746
0.0235934
0.0235603
0.0236516
0.0244924
0.0235284
0.0231149
0.0231424
0.0231775
0.0210053
0.020784
0.020422
0.020461
0.0182828
0.0175445
0.0182773
0.0192576
0.0212315
0.0249763
0.0314123
0.0403353
0.0504307
0.0606702
0.0684389
0.072791
0.0771556
0.0765986
0.0772989
0.0793898
0.0797583
0.0786186
0.0767668
0.0746033
0.0716492
0.0670083
0.0665236
0.0588836
0.048021
0.0333532
0.0388401
0.0416688
0.0444206
0.0447382
0.0452329
0.0440416
0.0423078
0.038743
0.0336606
0.0247929
0.0256893
0.0301525
0.0348325
0.0386343
0.0428112
0.0464603
0.0483306
0.0500511
0.0594475
0.0571693
0.0552494
0.0569353
0.0585051
0.0617186
0.0601601
0.0562138
0.0502338
0.0518558
0.0449494
0.0335741
0.031351
0.0292241
0.026971
0.0378748
0.0496419
0.0611049
0.0673793
0.0734979
0.0782921
0.0822883
0.0867866
0.0813549
0.0762321
0.0575882
0.0835306
0.0654766
0.0502781
0.0409807
0.0330263
0.0317231
0.0344339
0.034453
0.032631
0.0280979
0.0220837
0.0229339
0.0359081
0.0457259
0.0537459
0.0552992
0.0600002
0.0624638
0.0571775
0.0577534
0.0469177
0.0481484
0.051469
0.0460713
0.0437904
0.0351735
0.0274487
0.0335216
0.0498527
0.0683886
0.0841963
0.0991732
0.0657163
0.0499461
0.0408883
0.0340473
0.0329362
0.0375752
0.0435129
0.0526679
0.0411467
0.0370732
0.0335477
0.0306662
0.0258055
0.0275396
0.028788
0.0269691
0.0498692
0.0572065
0.0608651
0.0832006
0.0920733
0.108003
0.106673
0.0922781
0.0959557
0.0687807
0.0684908
0.0857791
0.0679228
0.0511387
0.061403
0.0743348
0.0881748
0.101355
0.112674
0.121759
0.123468
0.111991
0.0812122
0.0467693
0.0212998
0.0186603
0.0181117
0.0174022
0.0165125
0.0157063
0.0150797
0.0121232
0.00949689
0.00927938
0.00946173
0.00940776
0.00826172
0.00951613
0.0115805
0.0137722
0.01528
0.0164886
0.0175084
0.0182418
0.0188297
0.0192276
0.0195232
0.0197892
0.0200222
0.0202052
0.0203396
0.0204263
0.0204645
0.0204466
0.0203665
0.020223
0.0200145
0.0197251
0.019252
0.0177292
0.0158855
0.0150619
0.0151207
0.0148718
0.0145714
0.0119416
0.0123115
0.0143296
0.0149599
0.0177433
0.0197733
0.0214709
0.0229189
0.024439
0.0252121
0.0260364
0.0262982
0.0263465
0.0262419
0.026087
0.0258576
0.0255495
0.0244819
0.0212628
0.0248703
0.0272698
0.0289677
0.0303275
0.031239
0.0313429
0.0285836
0.0360722
0.0385178
0.0394225
0.039688
0.0388663
0.0368546
0.0344068
0.0323527
0.0308451
0.0297275
0.0275852
0.0253383
0.0230297
0.0206149
0.0173947
0.0186667
0.0205023
0.0207119
0.0204198
0.0214653
0.0227217
0.021064
0.0189692
0.016091
0.0150952
0.0146107
0.0144246
0.0148386
0.0144899
0.0143824
0.0148768
0.0178761
0.0189677
0.020666
0.0239239
0.0227932
0.0208532
0.0280238
0.0296311
0.030078
0.0304278
0.0303339
0.0295748
0.0265051
0.0250498
0.0264389
0.0249849
0.024354
0.0244441
0.0240771
0.0222128
0.0245126
0.0265127
0.0281032
0.028951
0.030191
0.0317459
0.0339084
0.0357039
0.0373652
0.0383696
0.038344
0.0377961
0.0379641
0.0385987
0.0382616
0.0365813
0.0345079
0.0324155
0.0294482
0.0292839
0.0312581
0.0328201
0.0344788
0.0362525
0.0355808
0.0336902
0.0320644
0.0306447
0.0289349
0.0288191
0.0304956
0.0319398
0.0336808
0.0358074
0.0359925
0.0338426
0.03202
0.0305135
0.0288099
0.0287804
0.0304824
0.0319978
0.0337264
0.0356213
0.0347515
0.0332752
0.0317482
0.0302773
0.0286111
0.0281755
0.0297814
0.0311668
0.0324846
0.0335542
0.031879
0.0312859
0.0302127
0.028821
0.0270613
0.0258081
0.026317
0.0277052
0.0278165
0.0282982
0.0294188
0.0292674
0.0289851
0.0289412
0.0286595
0.0264139
0.0268209
0.0268688
0.0275601
0.0308586
0.0303758
0.03304
0.035445
0.0331362
0.0316526
0.0280947
0.0336481
0.0336861
0.0346442
0.0334682
0.0237129
0.0218627
0.0228621
0.02439
0.0260266
0.0253272
0.0225877
0.0225172
0.0231187
0.0225286
0.0209633
0.0179856
0.0135159
0.0135242
0.0135144
0.0142467
0.0170465
0.0186399
0.0187494
0.0185931
0.0182898
0.0178169
0.0170979
0.0160245
0.0156347
0.024767
0.0450825
0.0565386
0.0558913
0.0425133
0.0356771
0.0263848
0.0183283
0.0110507
0.0107775
0.0114431
0.0137565
0.0115412
0.0108183
0.0149172
0.0120074
0.0199841
0.0230951
0.0302802
0.0414074
0.0400734
0.0305221
0.0204709
0.0184064
0.0192612
0.0197825
0.02017
0.0205508
0.0209354
0.0213537
0.0218632
0.0215394
0.0189094
0.0166708
0.0167944
0.0173658
0.0198659
0.0212474
0.0220426
0.0217146
0.0219683
0.0236747
0.0224381
0.0212142
0.021004
0.0202968
0.0231317
0.0234782
0.0228552
0.0228576
0.0231344
0.0230156
0.023153
0.0239563
0.0197777
0.0218913
0.0224415
0.0227208
0.0235102
0.0190313
0.019222
0.0192886
0.0181432
0.0148683
0.0179785
0.0167413
0.0121499
0.0134604
0.0134282
0.0140414
0.0143678
0.0171197
0.0162878
0.0155577
0.0163187
0.0222831
0.0230863
0.0232621
0.0206213
0.0193755
0.0218599
0.02245
0.0219966
0.0211082
0.021268
0.0203246
0.0184266
0.0177087
0.0178457
0.0192525
0.0200503
0.0201217
0.0237146
0.02321
0.0216545
0.0226341
0.023235
0.0228238
0.0227183
0.0226666
0.0222966
0.0218758
0.0222874
0.0224728
0.0225215
0.0220791
0.0223277
0.0249323
0.0214194
0.0212283
0.0201534
0.0194993
0.0178769
0.0176252
0.0177229
0.017683
0.0175889
0.0167529
0.0186072
0.0178813
0.0200125
0.0216216
0.0227691
0.0239358
0.0240828
0.0236496
0.0236067
0.0232207
0.0231839
0.0226371
0.0217948
0.0212141
0.0204461
0.0192421
0.0192349
0.0191861
0.0190428
0.0204448
0.0203449
0.0219058
0.0230225
0.0227349
0.0217736
0.0216634
0.0204913
0.0204674
0.0215043
0.0223884
0.0226394
0.023492
0.0259986
0.0236857
0.0252365
0.0259404
0.0266018
0.0259943
0.0248992
0.0256508
0.0239915
0.022881
0.0241978
0.0249208
0.0261827
0.026978
0.0250011
0.0239728
0.022776
0.021914
0.0209305
0.0184108
0.0190202
0.0198075
0.021038
0.0228518
0.0255689
0.0282991
0.0312154
0.0312713
0.0289759
0.0272845
0.0320802
0.0315561
0.0365205
0.0371211
0.0330009
0.0302003
0.0272917
0.0268629
0.0259415
0.0254055
0.0241378
0.0253841
0.0258004
0.0248593
0.0273244
0.0288947
0.0332247
0.0387777
0.035439
0.0326215
0.0376881
0.0366096
0.0425588
0.0363415
0.034692
0.0285469
0.033159
0.0355206
0.0432468
0.0338417
0.0296632
0.0294493
0.0307786
0.038256
0.0367932
0.039375
0.0445407
0.0438816
0.0390165
0.0357828
0.0415208
0.0315648
0.0370048
0.0390147
0.0324039
0.0321581
0.0390199
0.0396406
0.0398082
0.0337385
0.0330077
0.0249945
0.0335411
0.0400105
0.0399232
0.0331519
0.0259627
0.0358497
0.0314867
0.0312819
0.0312835
0.0268853
0.0268158
0.0261194
0.0263727
0.0270765
0.0246523
0.025451
0.0257074
0.0258672
0.0259956
0.026185
0.0265265
0.0271659
0.0278812
0.0228461
0.0242738
0.0229384
0.0216159
0.0202859
0.0240625
0.0265417
0.028352
0.0298082
0.0309407
0.0314147
0.0299687
0.0379528
0.0396609
0.0412881
0.0414403
0.0402151
0.0375792
0.0341665
0.030741
0.0286219
0.0273083
0.0248322
0.0227051
0.0206308
0.0184781
0.0156683
0.0143337
0.0130232
0.0116602
0.0113433
0.0108252
0.0102488
0.00960835
0.00930824
0.0116571
0.0164569
0.0271081
0.0325858
0.038262
0.0451245
0.051811
0.0572114
0.0612293
0.0640756
0.0658563
0.0663359
0.0637731
0.0529275
0.0478352
0.0428651
0.0378417
0.0327736
0.0320627
0.0411885
0.0495172
0.0565675
0.0629317
0.0670903
0.0654698
0.0499272
0.0466736
0.0622016
0.0896783
0.0804558
0.103398
0.119832
0.0793368
0.0647441
0.0640957
0.0795747
0.082075
0.0754351
0.0664392
0.0565362
0.0455503
0.0506572
0.0555293
0.0601892
0.0648757
0.078052
0.0804507
0.0792034
0.0766732
0.0733498
0.0688242
0.0621224
0.0534204
0.0440941
0.0360983
0.028779
0.0176908
0.0128914
0.0138162
0.0133242
0.0136838
0.0139025
0.0101818
0.0105329
0.0107405
0.010656
0.0103775
0.0104488
0.0118505
0.0183068
0.0150845
0.0137484
0.0118592
0.0145442
0.0164084
0.0181913
0.0187646
0.0189558
0.0198153
0.0347904
0.0440804
0.0498481
0.0546379
0.0580183
0.0567211
0.0532295
0.0471863
0.0399234
0.0372191
0.0331491
0.0297604
0.0280329
0.0289809
0.0254018
0.015662
0.0147074
0.0157701
0.0154286
0.0144301
0.0163901
0.0176174
0.0183981
0.0190288
0.0194992
0.0198599
0.020116
0.0202845
0.020371
0.0203937
0.0203673
0.020297
0.020182
0.0200201
0.0198007
0.019494
0.0189743
0.017265
0.0154278
0.014713
0.0147966
0.0145653
0.0142015
0.0123245
0.0125524
0.0144134
0.0150176
0.0146268
0.0152183
0.015689
0.01689
0.0190572
0.0211953
0.0230351
0.021728
0.021074
0.0210511
0.0206486
0.0175344
0.0208522
0.0236887
0.0241967
0.0244612
0.0252775
0.0268719
0.0278319
0.0269007
0.0264052
0.0258792
0.0228317
0.0244729
0.0279595
0.0283694
0.0290327
0.0296231
0.0301879
0.0314837
0.030861
0.0299894
0.0294028
0.0266074
0.0257382
0.0316763
0.020747
0.0146632
0.0106098
0.0109539
0.0111852
0.0108854
0.0116677
0.0122137
0.0124523
0.0117819
0.0128597
0.0137676
0.0130151
0.015619
0.0149275
0.0139315
0.0134761
0.0142346
0.0149461
0.0153269
0.0164548
0.0265792
0.0274084
0.0228722
0.029434
0.031993
0.0290442
0.0319527
0.0296238
0.0283069
0.031102
0.034455
0.0356468
0.0333092
0.0319556
0.0312644
0.0208541
0.0201682
0.019444
0.0175907
0.0178763
0.0174155
0.0169544
0.0165405
0.0190167
0.0204144
0.0215194
0.0212156
0.0209156
0.0205139
0.0212327
0.0255875
0.0341687
0.0437613
0.0468833
0.0456428
0.0417567
0.0349255
0.02858
0.0281408
0.0262024
0.024979
0.0247035
0.0187245
0.0149511
0.0174916
0.0173898
0.0184622
0.01914
0.0196743
0.0201005
0.0204558
0.0207623
0.0210582
0.0213316
0.0215694
0.0217682
0.0219377
0.0220772
0.0222272
0.0224089
0.022662
0.0228653
0.0212392
0.0186208
0.0172791
0.0171324
0.0178482
0.0187519
0.0198794
0.0191264
0.0154068
0.015481
0.0219036
0.0223517
0.0209818
0.0195594
0.0197603
0.01892
0.0227201
0.02252
0.0233034
0.023101
0.0228244
0.0225478
0.0222724
0.0219887
0.0217112
0.0214677
0.021245
0.0210367
0.0208298
0.0206017
0.0203264
0.0199234
0.0192425
0.0184513
0.0169542
0.0180603
0.0193386
0.0210003
0.0228004
0.0236827
0.0228211
0.0216232
0.021095
0.0213108
0.0216055
0.0219253
0.0222698
0.0226725
0.0230893
0.0234833
0.023441
0.0221186
0.0227577
0.0174633
0.0183168
0.0186162
0.0185761
0.0202355
0.0193798
0.0146691
0.0151856
0.0159105
0.0171923
0.0197765
0.0201361
0.0214807
0.0217048
0.0173188
0.017015
0.0165919
0.0175984
0.0152345
0.015871
0.0266026
0.0272171
0.0349677
0.0383253
0.0399327
0.0331448
0.0456136
0.0524696
0.0505919
0.040924
0.0235184
0.034665
0.0421863
0.0488427
0.0457797
0.0356193
0.0449449
0.0474042
0.0633329
0.0589791
0.0526092
0.0633726
0.0447634
0.0269435
0.0158361
0.0164086
0.0152089
0.0306869
0.0347976
0.0314961
0.0323476
0.039987
0.0410007
0.036257
0.0345631
0.0363189
0.0358704
0.0398319
0.0371327
0.0337475
0.0233168
0.0190387
0.0198778
0.0212864
0.0231128
0.0254561
0.0253526
0.0242089
0.0228436
0.0218688
0.0208152
0.0183178
0.0176613
0.0196217
0.0212515
0.0226297
0.0241383
0.0249571
0.0257969
0.0259612
0.025853
0.025531
0.0251045
0.0245524
0.0238711
0.0224629
0.0237042
0.024387
0.0245919
0.0248653
0.0251735
0.0254458
0.025583
0.0254651
0.0245169
0.0237075
0.0225403
0.0214222
0.0198156
0.0176991
0.0183803
0.0201393
0.0217395
0.0228541
0.0239048
0.023514
0.024004
0.0246598
0.0246871
0.0245104
0.0242901
0.0241432
0.0242389
0.0248719
0.0265765
0.0262532
0.0290361
0.0302273
0.0276625
0.026334
0.0256435
0.0252211
0.0249796
0.0247783
0.024585
0.0240477
0.0235035
0.0239962
0.0242431
0.0245348
0.0248877
0.0253904
0.0260796
0.0271736
0.028582
0.028456
0.0262682
0.0261531
0.0251015
0.0243151
0.023936
0.0238807
0.0239234
0.0240226
0.0239557
0.0234346
0.0231065
0.0235115
0.0224993
0.0225658
0.0215929
0.0202338
0.0187929
0.0173406
0.016679
0.0353111
0.0352983
0.0458198
0.0424687
0.0371343
0.0471969
0.0602058
0.0521875
0.0629148
0.066702
0.0541947
0.05035
0.027903
0.0244126
0.0174129
0.0189388
0.0202841
0.0214889
0.0213054
0.0222274
0.0221098
0.0230788
0.0225342
0.0217456
0.0212017
0.0201846
0.0202403
0.0189684
0.0174229
0.0172897
0.0189386
0.0199818
0.0211622
0.0211547
0.0226173
0.0231258
0.0235311
0.0236897
0.0236846
0.0237767
0.0239506
0.0243996
0.0251113
0.0255729
0.0257025
0.0260888
0.0258326
0.0255112
0.0250523
0.024741
0.0244229
0.024145
0.023853
0.023579
0.0231536
0.0225022
0.0223845
0.0228941
0.023231
0.0234643
0.0236005
0.0235855
0.023398
0.0230903
0.0227832
0.0224388
0.0225014
0.023814
0.0240533
0.0241821
0.0239675
0.0237945
0.0237742
0.0236494
0.0235476
0.0233102
0.0229334
0.022456
0.0213833
0.021488
0.022376
0.0228278
0.0231656
0.0234532
0.0234766
0.0233933
0.0230149
0.0227195
0.0223699
0.0218115
0.0210888
0.0186568
0.0191154
0.0197337
0.0205676
0.0214064
0.0221207
0.0225748
0.0227628
0.0227576
0.0225848
0.0222335
0.0214887
0.021472
0.0220104
0.0221797
0.0221317
0.0218321
0.0212196
0.0202975
0.019095
0.017877
0.016897
0.016394
0.0156064
0.0182423
0.0192778
0.0202296
0.0211025
0.0219202
0.0227783
0.023111
0.0231746
0.0230112
0.0227374
0.0223149
0.0215352
0.0215468
0.0222605
0.0226608
0.0228854
0.0229857
0.022703
0.0220184
0.0204741
0.0190457
0.0178558
0.0167637
0.0156349
0.015232
0.0157325
0.0153457
0.0158177
0.0169638
0.0184557
0.0198228
0.0208023
0.0213933
0.0216758
0.0217029
0.0213727
0.0211964
0.0213264
0.021133
0.0206454
0.0197873
0.0185091
0.0170312
0.0157897
0.0153797
0.0159925
0.0166382
0.0160448
0.0139206
0.0150461
0.0161406
0.01728
0.0189695
0.0210385
0.0220491
0.0225433
0.0226886
0.0225618
0.0221882
0.0215256
0.0214734
0.0221069
0.0224712
0.0225743
0.0224724
0.022014
0.0211617
0.018642
0.0158848
0.014641
0.0139325
0.0129895
0.0161979
0.0168861
0.0160715
0.015537
0.0164033
0.017465
0.0186371
0.019535
0.0201746
0.0206701
0.0209383
0.0209617
0.0206938
0.0205841
0.0203694
0.0200268
0.0196819
0.019326
0.0185284
0.0176848
0.0167238
0.0177881
0.0183529
0.017605
0.0144905
0.0150578
0.015875
0.0163762
0.0190328
0.0215132
0.022205
0.022415
0.0225309
0.0224052
0.0220089
0.0213875
0.0212648
0.0219059
0.0223876
0.0226771
0.0229548
0.023137
0.023267
0.0213599
0.0180701
0.0173237
0.0156195
0.0147774
0.0181628
0.0188455
0.0183811
0.0178237
0.0194885
0.020191
0.0204489
0.020452
0.0203872
0.020296
0.0203102
0.0204177
0.0201221
0.0200049
0.0201114
0.0203264
0.0202759
0.0200456
0.0194693
0.0187032
0.0176142
0.0194507
0.0211074
0.0208463
0.0170224
0.0175604
0.0183587
0.0179173
0.0206257
0.0224968
0.0230073
0.0229879
0.0227076
0.0222531
0.0217172
0.0210771
0.0207969
0.0213615
0.0219337
0.0219713
0.0220797
0.0220419
0.0214739
0.0213064
0.0207272
0.0204526
0.0196839
0.0190972
0.0183443
0.0204977
0.0236973
0.0259008
0.0274742
0.0293584
0.0278965
0.0243749
0.0221003
0.0152442
0.015251
0.0154685
0.0148503
0.0144825
0.0143067
0.0187448
0.0214801
0.02417
0.0259018
0.0234806
0.0234537
0.0233733
0.0232585
0.0231455
0.0230427
0.0228314
0.0235151
0.0409267
0.282672
0.2089
0.234823
0.223951
0.314649
0.0789759
0.0387741
0.0429381
0.0496587
0.0566889
0.0549593
0.0514345
0.0449561
0.0407408
0.0403576
0.0399043
0.0397164
0.0384684
0.0384872
0.0376936
0.0454232
0.0963223
0.124503
0.138026
0.146451
0.15535
0.150753
0.159712
0.151536
0.152027
0.153632
0.158393
0.151024
0.143715
0.139935
0.135652
0.118307
0.118641
0.100146
0.103959
0.0867715
0.0913382
0.0952507
0.094595
0.0933845
0.0931672
0.0934495
0.0942746
0.0979188
0.0932039
0.0988863
0.0913356
0.0727749
0.0702143
0.0720267
0.0662522
0.0579611
0.0653983
0.0802278
0.095874
0.112835
0.0967281
0.121071
0.114981
0.116005
0.110191
0.103757
0.0999269
0.0991541
0.0997511
0.100873
0.103523
0.105469
0.107083
0.110017
0.118617
0.120993
0.119607
0.102025
0.0865937
0.0950689
0.0999118
0.103554
0.103787
0.0989625
0.0968498
0.0907112
0.0891428
0.0836237
0.0809971
0.0755561
0.0722168
0.0674167
0.0839614
0.0820936
0.0891022
0.0954173
0.0996646
0.103364
0.104983
0.106309
0.105146
0.102786
0.0977639
0.0956332
0.0907957
0.109408
0.127921
0.130654
0.125966
0.11241
0.106728
0.340532
0.412991
0.414414
0.615156
0.657178
0.849878
0.336992
0.180182
0.192832
0.189516
0.181309
0.178127
0.177938
0.189726
0.198727
0.189556
0.20031
0.177436
0.174441
0.16614
0.191347
0.188652
0.16948
0.148149
0.115761
0.0949283
0.0940039
0.078912
0.0800269
0.0706016
0.071856
0.0737417
0.0914821
0.171745
0.210219
0.236926
0.263389
0.324023
0.293545
0.44332
0.354691
0.440082
0.303724
0.328725
0.314411
0.305605
0.303635
0.319733
0.342656
0.301194
0.374717
0.300103
0.649286
0.786303
0.49699
0.459878
0.40774
0.393535
0.383617
0.378056
0.37001
0.487624
0.451871
0.553838
0.51349
0.642215
0.561103
0.564962
0.531015
0.566749
0.584621
0.597946
0.477665
0.51906
0.404832
0.438425
0.369059
0.405347
0.291117
0.291772
0.334966
0.372102
0.39819
0.455455
0.715847
0.60744
0.819267
0.586289
0.7084
0.491995
0.53961
0.515295
0.49768
0.499454
0.52766
0.631923
0.610911
0.698348
0.514723
0.526979
0.516721
0.534051
0.523492
0.558401
0.56309
0.564277
0.562269
0.523425
0.534022
0.532194
0.531971
0.53199
0.532339
0.509586
0.512771
0.505229
0.511011
0.52691
0.514602
0.514514
0.512373
0.504798
0.502743
0.502257
0.504017
0.503784
0.508918
0.508788
0.509128
0.512186
0.526897
0.514425
1.82526
0.904011
0.431607
0.341228
0.220992
0.135579
0.0560441
0.0605535
0.0635419
0.0645259
0.0625254
0.0571659
0.0489882
0.038982
0.0311849
0.0303599
0.027052
0.0264694
0.0343102
0.0419885
0.0384003
0.0462137
0.053919
0.0622496
0.0702628
0.0772564
0.0831748
0.0861132
0.0830938
0.0703864
0.0527188
0.0353288
0.0250723
0.0226704
0.021025
0.0190253
0.0169147
0.0152634
0.0142549
0.0130787
0.0124432
0.0123525
0.0125688
0.0128073
0.0132447
0.0147583
0.0160571
0.0172407
0.0182011
0.0184456
0.0179345
0.0184757
0.0190693
0.0194616
0.0198027
0.0196334
0.0196289
0.0198751
0.0198349
0.0200381
0.0199381
0.0199401
0.0197987
0.0196245
0.0193979
0.0189605
0.0186825
0.0181217
0.0177747
0.0169411
0.0169764
0.0173753
0.0177014
0.016704
0.016649
0.0158987
0.0267486
0.0478729
0.0610853
0.0661056
0.0713997
0.0673776
0.0570017
0.0390089
0.0191429
0.0187729
0.0192503
0.0217504
0.0212726
0.0173993
0.0181909
0.018768
0.0175648
0.0174851
0.017517
0.0195595
0.0201581
0.0215291
0.0220262
0.0224102
0.0226313
0.0225939
0.0226885
0.0224134
0.022413
0.0220298
0.0220118
0.021694
0.021461
0.0217537
0.0224575
0.0225338
0.0231782
0.0228778
0.0225781
0.0220145
0.0216046
0.0207495
0.0198201
0.0188013
0.0172552
0.016805
0.0173189
0.0178135
0.01735
0.0187604
0.0200395
0.0197201
0.0243589
0.022641
0.0201981
0.0226663
0.0184628
0.0186469
0.0181335
0.0170518
0.0176034
0.0171094
0.0170415
0.0173431
0.0176398
0.0188022
0.0197733
0.0204174
0.0212877
0.0219351
0.0226519
0.0238587
0.0241632
0.0231794
0.022996
0.0217962
0.0211091
0.020786
0.0217217
0.0230272
0.0229356
0.0238262
0.0235731
0.0223199
0.0215048
0.0206474
0.0196603
0.0189941
0.0182053
0.0174588
0.0170365
0.0162098
0.0163002
0.0152049
0.0167808
0.0172676
0.0195164
0.0174492
0.0169218
0.022447
0.0283433
0.0442367
0.0322863
0.0213702
0.0233279
0.0316266
0.0394122
0.0278062
0.0273979
0.0153426
0.0179868
0.0151965
0.015503
0.0165689
0.0168598
0.0180579
0.019125
0.0193647
0.0201175
0.0204647
0.0212354
0.0214949
0.0222338
0.0224293
0.023713
0.0237835
0.0238517
0.0238309
0.0230319
0.022959
0.0229784
0.0234329
0.0232126
0.0239075
0.023934
0.0240177
0.0239459
0.0225934
0.0222672
0.0214924
0.0209738
0.0200668
0.0195113
0.0187904
0.018403
0.0177571
0.018076
0.0188004
0.0189946
0.0199421
0.0199617
0.0207067
0.0209163
0.0213857
0.0215207
0.0221895
0.0223308
0.0226008
0.0226581
0.0238797
0.0239965
0.0240368
0.0240022
0.0240135
0.0242405
0.0242396
0.0241821
0.0241675
0.0240811
0.0239211
0.0237583
0.0248258
0.0255016
0.0250375
0.0247971
0.0250625
0.0259202
0.0264728
0.0275702
0.0284266
0.029505
0.030397
0.0312226
0.0318943
0.0323705
0.0324846
0.0325157
0.0320556
0.0316769
0.033363
0.0398637
0.0430906
0.0483639
0.050741
0.0526982
0.0533945
0.0522509
0.0529809
0.0517148
0.0519796
0.0508009
0.0503805
0.0495746
0.0485823
0.0478737
0.0464196
0.0456958
0.0503115
0.0569765
0.0571036
0.0499996
0.0470628
0.0429055
0.0375278
0.0392909
0.0458948
0.0413309
0.038756
0.0360143
0.0310705
0.0239806
0.017842
0.0255112
0.0332848
0.0405496
0.0473478
0.0533543
0.0572535
0.0593937
0.06094
0.0626407
0.06062
0.0531804
0.041583
0.0317587
0.027898
0.0263492
0.0239019
0.0204546
0.0185614
0.0174837
0.0163253
0.0149712
0.0141085
0.0138628
0.0141017
0.0142169
0.0155646
0.0168265
0.0168198
0.0179995
0.0178242
0.0183346
0.0189241
0.0193234
0.0199898
0.0199557
0.0189925
0.0193388
0.0196012
0.0202772
0.0201746
0.0203403
0.0201202
0.0194004
0.0188849
0.0182856
0.017769
0.0173113
0.0167394
0.0160248
0.0160118
0.0162066
0.0157657
0.0161784
0.0166195
0.0170255
0.0176517
0.018559
0.0193179
0.0211511
0.0212939
0.0210458
0.0211345
0.0197056
0.0196454
0.0186698
0.0184385
0.020036
0.0198808
0.0182053
0.019603
0.0196035
0.0213852
0.0213869
0.0207111
0.020904
0.0207868
0.0189573
0.0180666
0.0169992
0.0162208
0.0156321
0.0152304
0.0147603
0.0153783
0.0141792
0.0136068
0.0140627
0.0140406
0.014109
0.014499
0.0149293
0.0156739
0.0163783
0.0174233
0.0180615
0.0189596
0.0192931
0.0212045
0.0211157
0.0209891
0.0210209
0.0211613
0.0216138
0.0208211
0.0207828
0.0209191
0.0209337
0.0209548
0.0209372
0.0190959
0.0188924
0.0180572
0.0177396
0.0168089
0.0164502
0.015794
0.0154792
0.0150876
0.0148895
0.0232651
0.0254605
0.0256213
0.0397642
0.0199781
0.0199581
0.0343122
0.0173399
0.0230531
0.0236054
0.0246861
0.0259058
0.0225449
0.0307146
0.0212064
0.0233266
0.0240637
0.025231
0.0128218
0.0195286
0.0370432
0.0424101
0.0437456
0.0487118
0.0554276
0.0586523
0.0617035
0.0637481
0.0660194
0.0684792
0.0708927
0.0726479
0.0728108
0.0691394
0.0660882
0.056596
0.0527749
0.0565265
0.060965
0.0474599
0.0426597
0.0432085
0.0436807
0.0442166
0.0444279
0.0451182
0.0449248
0.0459249
0.0451902
0.0462979
0.0451504
0.0461786
0.0449339
0.0421883
0.0389533
0.0327272
0.0307404
0.0296276
0.0269025
0.0243898
0.0221281
0.0202909
0.0198533
0.0182793
0.0168646
0.0165638
0.015273
0.0155249
0.0167452
0.0198791
0.0168274
0.0176763
0.0260295
0.0191547
0.0180529
0.0186046
0.0191258
0.0193635
0.0182568
0.0198921
0.0221728
0.0221624
0.0222242
0.0222316
0.0214228
0.0212577
0.0209839
0.0210401
0.0210725
0.0211945
0.0211621
0.0193354
0.019279
0.0190056
0.0188674
0.0180782
0.0179109
0.0173275
0.0169975
0.0161572
0.0158634
0.0154137
0.0154686
0.0166188
0.0204637
0.0299234
0.0173089
0.0179654
0.0155526
0.013959
0.0265975
0.0247483
0.0286014
0.0267587
0.0393905
0.0264086
0.0231713
0.0241787
0.0296933
0.0296354
0.0325773
0.0423347
0.0329848
0.0281652
0.073017
0.0531556
0.0331925
0.0461362
0.0580971
0.10885
0.127437
0.0559439
0.056473
0.0621707
0.0630721
0.0629504
0.0533447
0.0491708
0.0413268
0.0318066
0.0128825
0.0249013
0.0321459
0.0426601
0.0569631
0.0920133
0.0528731
0.0597075
0.0656718
0.0647535
0.0678582
0.0660041
0.0646189
0.0655635
0.102674
0.111639
0.10764
0.0862156
0.0809051
0.0739971
0.124091
0.139154
0.119967
0.130063
0.135822
0.081381
0.0302823
0.0249283
0.0238101
0.0263859
0.025332
0.0459921
0.0205751
0.0218085
0.0226408
0.0271469
0.0301744
0.0529126
0.023245
0.0254535
0.0324057
0.0348897
0.0459816
0.0274429
0.0280992
0.0344365
0.0362306
0.0395479
0.0336458
0.0317474
0.028709
0.0259033
0.0244062
0.0254533
0.0318419
0.046328
0.0278678
0.028296
0.0300603
0.133624
0.030727
0.0266358
0.0276969
0.0267019
0.0336495
0.0350967
0.111193
0.0354557
0.0166945
0.0154532
0.0159272
0.0167379
0.0173757
0.0179936
0.0184389
0.0190793
0.0194738
0.0196267
0.019795
0.0221764
0.0220779
0.0216111
0.0210672
0.021861
0.0211667
0.0212157
0.0218327
0.0212987
0.0214442
0.0224986
0.0236753
0.0231878
0.0237548
0.0251057
0.0239417
0.0222353
0.02203
0.022151
0.0228584
0.0239975
0.022804
0.0234559
0.0226367
0.023558
0.0236679
0.0203636
0.0199959
0.0197925
0.0192884
0.0186149
0.0179905
0.0173187
0.0166685
0.0161654
0.0160888
0.0165894
0.0151867
0.0155842
0.0179298
0.0393721
0.0324087
0.0265336
0.0222241
0.0195641
0.0184133
0.0182952
0.0187404
0.0193934
0.0199564
0.0201652
0.0207504
0.024635
0.0245765
0.0257824
0.024646
0.0259848
0.0249301
0.023606
0.0227357
0.0239454
0.0232509
0.0237421
0.0253653
0.0262145
0.0238485
0.0241203
0.0215253
0.0201108
0.0184912
0.0188333
0.0202869
0.020963
0.0234055
0.0234849
0.0269278
0.0269054
0.0267555
0.0255129
0.0248367
0.0262849
0.0247948
0.0259449
0.0248317
0.0262358
0.0274195
0.0277633
0.0270574
0.0262028
0.0253272
0.021049
0.0202601
0.0199538
0.01946
0.0191985
0.0201111
0.0243456
0.0335174
0.0455923
0.0577078
0.067143
0.0666515
0.0600542
0.0406553
0.0417202
0.038681
0.0421899
0.060008
0.0857551
0.0600785
0.114242
0.0885413
0.0525479
0.0628497
0.0748477
0.0840112
0.089921
0.0908684
0.0773252
0.056885
0.049936
0.0523699
0.084741
0.0834619
0.0824881
0.0780332
0.0825328
0.0804195
0.0777509
0.0761904
0.0744141
0.0701595
0.0701389
0.0674468
0.0674139
0.0602671
0.0614524
0.0616862
0.0591113
0.0563619
0.054074
0.0518827
0.0495579
0.0456611
0.0443805
0.0419013
0.0401572
0.0367957
0.036259
0.0357753
0.0336002
0.032047
0.030793
0.0295311
0.0278271
0.027988
0.0263958
0.0262386
0.0213786
0.0209995
0.0199835
0.0196487
0.0193972
0.0195886
0.0208186
0.0234796
0.043542
0.0330928
0.0329581
0.0335217
0.0337223
0.0396412
0.0464243
0.0706511
0.065371
0.071939
0.0615067
0.0639563
0.0631659
0.0627856
0.0655109
0.0691028
0.0744478
0.0869384
0.333705
0.513805
0.253351
0.237297
0.246901
0.251777
0.259186
0.3393
0.360215
0.356191
0.360715
0.330584
0.318389
0.196638
0.226046
0.238118
0.236995
0.223859
0.202175
0.392819
0.522658
0.518788
0.523657
0.523769
0.518766
0.522603
0.502912
0.514274
0.501758
0.515028
0.502299
0.521671
0.518931
0.504364
0.501137
0.501156
0.500916
0.501379
0.501556
0.504894
0.506055
0.506107
0.505102
0.504114
0.514524
0.436674
0.12224
0.0849645
0.141138
0.196115
0.160505
0.232565
0.267414
0.192714
0.109495
0.0892348
0.100658
0.123964
0.125514
0.15256
0.199787
0.187119
0.152717
0.153719
0.154149
0.199296
0.190979
0.217278
0.259636
0.253005
0.188324
0.149879
0.148907
0.227009
0.241981
0.237233
0.122598
0.0439171
0.0217973
0.0226968
0.0326705
0.0165184
0.0168288
0.0220736
0.0576386
0.0963134
0.0496828
0.1358
0.137752
0.182012
0.147432
0.178387
0.115505
0.118885
0.0676268
0.0796455
0.0896001
0.095366
0.0996612
0.0936779
0.216376
0.319351
0.190449
0.560965
0.537999
0.196069
0.217226
0.576042
0.513011
0.503524
0.501784
0.501698
0.501859
0.501816
0.500969
0.500915
0.500728
0.500765
0.500716
0.501163
0.504767
0.520395
0.514609
0.50524
0.501385
0.500824
0.500799
0.50069
0.50073
0.50075
0.500807
0.501017
0.501049
0.50115
0.50167
0.503942
0.512029
0.435764
0.170029
0.182457
0.406229
0.361985
0.511503
0.504622
0.501369
0.500942
0.500855
0.500829
0.500794
0.500969
0.50089
0.501397
0.501231
0.501287
0.502777
0.508259
0.506397
0.443385
0.36961
0.417356
0.330199
0.506673
0.507778
0.503277
0.502899
0.503246
0.503414
0.501514
0.501527
0.500992
0.50106
0.500893
0.50134
0.504756
0.511015
0.346146
0.171018
0.177925
0.258274
0.0879774
0.0908957
0.0928139
0.0948971
0.247194
0.441544
0.555655
0.471297
0.475405
0.542308
0.385716
0.364496
0.294165
0.317795
0.402144
0.347451
0.312987
0.250478
0.28879
0.247938
0.303746
0.218091
0.234386
0.221937
0.283291
0.28718
0.287543
0.22694
0.216777
0.271878
0.286168
0.317182
0.218982
0.259263
0.203489
0.192548
0.087197
0.089366
0.0812395
0.0712779
0.0710396
0.07919
0.0776365
0.0838371
0.0808389
0.084553
0.0816837
0.0796509
0.0728297
0.074856
0.0686254
0.071275
0.130385
0.166606
0.150495
0.151916
0.179684
0.131117
0.157505
0.153549
0.197669
0.248091
0.226627
0.291549
0.225122
0.275705
0.405776
0.754465
0.43826
0.244453
0.318263
0.340356
0.288876
0.189715
0.449793
0.538853
0.298258
0.360561
1.19679
1.04412
1.78172
0.992727
1.11907
0.670911
0.597882
1.02886
0.653869
0.666261
0.559771
0.5736
0.49924
0.324362
0.323817
0.305686
0.241915
0.280602
0.271309
0.266881
0.296455
0.261547
0.316586
0.352395
0.397077
0.322727
0.285507
0.366823
0.215642
0.290624
0.346223
0.315575
0.259676
0.337837
0.4498
0.420929
0.362188
0.398985
0.50935
0.563123
0.532121
0.451409
0.512459
1.00634
0.962842
0.930783
0.590442
1.93394
1.71838
0.352682
0.137383
0.0957077
0.0362129
0.0224286
0.0182652
0.0178735
0.0488222
0.0195403
0.0235199
0.021169
0.0299713
0.0272938
0.0315486
0.0553417
0.0375488
0.0527183
0.0391189
0.0519844
0.0413871
0.0568958
0.061097
0.0643346
0.0520278
0.0410196
0.0619856
0.0827318
0.0387145
0.0996238
0.105276
0.0680123
0.0827171
0.102128
0.0528554
0.164798
0.057162
0.0567987
0.0675477
0.126702
0.251444
0.0854229
0.112035
0.585585
1.53015
0.510108
0.201277
0.164102
0.0413623
0.0358958
0.029217
0.0355096
0.0313249
0.0627568
0.0633249