/*--------------------------------*- C++ -*----------------------------------*\
| =========                 |                                                 |
| \\      /  F ield         | OpenFOAM: The Open Source CFD Toolbox           |
|  \\    /   O peration     | Version:  v2012                                 |
|   \\  /    A nd           | Website:  www.openfoam.com                      |
|    \\/     M anipulation  |                                                 |
\*---------------------------------------------------------------------------*/
FoamFile
{
    version     2.0;
    format      ascii;
    class       volScalarField;
    location    "575";
    object      nut;
}
// * * * * * * * * * * * * * * * * * * * * * * * * * * * * * * * * * * * * * //

dimensions      [0 2 -1 0 0 0 0];


internalField   nonuniform List<scalar> 
18258
(
0.00419996
0.00182613
0.00149662
0.00129674
0.000858296
0.00140466
0.00195076
0.00232204
0.00243606
0.00241484
0.00249984
0.00421786
0.0059187
0.00731357
0.00768128
0.00766742
0.00695771
0.00664394
0.00721066
0.00887025
0.00746552
0.00478178
0.00573109
0.00661966
0.00719325
0.0063681
0.00514847
0.00477023
0.00431968
0.00360021
0.00301669
0.00205026
0.0015191
0.0014093
0.00127605
0.00145375
0.00158244
0.00168615
0.00172416
0.00175122
0.00173913
0.00172925
0.00168268
0.00165485
0.00160724
0.0013321
0.00162294
0.00163599
0.00179195
0.00248253
0.00267002
0.00224684
0.00248715
0.00222024
0.00146479
0.00167617
0.00181946
0.00185881
0.00183523
0.00175935
0.00173392
0.00171239
0.00168501
0.00165244
0.00163263
0.00164909
0.00166623
0.00164815
0.00156719
0.00150157
0.00139535
0.00128886
0.00120988
0.00114869
0.00110256
0.00105142
0.000993955
0.000873075
0.000809154
0.00107137
0.00134497
0.00143698
0.00203665
0.00248305
0.00249981
0.00187095
0.00133332
0.00138373
0.00153836
0.00155393
0.00131708
0.00156584
0.00177385
0.00183858
0.00191613
0.00214158
0.00243806
0.00237692
0.00211676
0.00195013
0.00191735
0.00219521
0.00208592
0.00270506
0.00272584
0.00237983
0.00218854
0.00246313
0.00317665
0.00341802
0.00265707
0.00249548
0.002446
0.00241487
0.00218401
0.00226036
0.0020527
0.0018496
0.002015
0.00243563
0.00231015
0.00252322
0.00261472
0.00245315
0.00284269
0.00327818
0.00323052
0.00258513
0.00210739
0.0019644
0.00197934
0.00121054
0.00130724
0.00140879
0.00144329
0.00146746
0.001488
0.00158677
0.00158319
0.00155997
0.00155654
0.00158392
0.000872883
0.000945667
0.000969166
0.000975949
0.00092695
0.000917407
0.000900289
0.000886379
0.000835721
0.00079963
0.000956817
0.00107442
0.00117028
0.00128233
0.00144955
0.00165409
0.00186897
0.00208602
0.00222952
0.00227034
0.00231158
0.00222762
0.00214324
0.00221953
0.00223235
0.00221796
0.00218815
0.00215052
0.00209961
0.00200621
0.00211344
0.00210728
0.00197971
0.00169725
0.0017349
0.00173175
0.00177688
0.00176813
0.00178633
0.00176151
0.00173239
0.00164945
0.00153373
0.00127733
0.00124152
0.00125781
0.00161605
0.00196261
0.00303249
0.00370051
0.00429831
0.00460087
0.00492573
0.0039834
0.00443257
0.00341506
0.00306629
0.00389784
0.00510063
0.00290973
0.00158778
0.00301063
0.00266929
0.00193455
0.00172138
0.00177313
0.001778
0.00204534
0.00235694
0.00261332
0.00273732
0.0028474
0.00293497
0.00303192
0.00315495
0.00318903
0.00308107
0.0026089
0.00314156
0.00255057
0.00297863
0.00268915
0.00181169
0.00193741
0.00205035
0.00187439
0.00182232
0.00174667
0.00157033
0.00192593
0.00250276
0.00290541
0.00332139
0.00442689
0.00409554
0.00392933
0.00304282
0.00294239
0.00152812
0.00218084
0.00225616
0.00253581
0.00168615
0.00153749
0.00145816
0.00193344
0.00223931
0.00264206
0.00292876
0.00347831
0.0026953
0.0030781
0.00278421
0.00193788
0.00186768
0.00267709
0.00288444
0.0023724
0.0021243
0.00266427
0.00252037
0.00178715
0.00143545
0.00220465
0.00228462
0.00163712
0.00407044
0.00431836
0.00411615
0.00501439
0.00628848
0.00717113
0.00667603
0.00592383
0.00661494
0.00525374
0.00508696
0.00542575
0.00455671
0.00319642
0.00327741
0.00339003
0.0034821
0.0037386
0.00397155
0.00425603
0.00452736
0.00411644
0.00342022
0.00258971
0.00178231
0.0017583
0.00174957
0.00157102
0.00232815
0.00352191
0.00349773
0.00198708
0.00115834
0.00131023
0.00147949
0.00146498
0.00106305
0.000800201
0.00137853
0.00157609
0.0016015
0.0015617
0.00147446
0.00154077
0.0024744
0.003812
0.00418845
0.00433798
0.00447944
0.00457931
0.0046348
0.00465225
0.00466184
0.00467366
0.00468402
0.00469995
0.00468525
0.00458538
0.0040332
0.00253596
0.00148267
0.00137752
0.00152034
0.00163397
0.00173324
0.00147503
0.000901778
0.00144032
0.00184425
0.00211933
0.00213723
0.0019944
0.00193452
0.00305026
0.00405548
0.00477994
0.00492634
0.00499123
0.00493593
0.00492823
0.00482
0.00478565
0.0041957
0.00300471
0.00328532
0.00352767
0.00356861
0.0036514
0.00377567
0.00368814
0.00348379
0.00509287
0.00587592
0.00595144
0.00607866
0.00600705
0.00590329
0.00563488
0.00532825
0.0044856
0.00336379
0.00212233
0.0021666
0.0023065
0.00228439
0.00198867
0.00209526
0.00227388
0.00229662
0.00237165
0.00265958
0.00302055
0.00288106
0.00247893
0.00210546
0.00196047
0.00191952
0.00184186
0.00137973
0.00140017
0.00136086
0.0013832
0.00185791
0.0022114
0.00255017
0.0036174
0.003227
0.00262457
0.00416131
0.00426345
0.0045797
0.00505855
0.00518408
0.00574321
0.00399959
0.00360485
0.00370341
0.00302549
0.00280053
0.00283053
0.00284124
0.00264816
0.0028985
0.00287294
0.00276911
0.00305727
0.00336872
0.00444215
0.00538274
0.00567954
0.00585108
0.005921
0.005898
0.00578179
0.00581699
0.00510799
0.00510097
0.00488563
0.00474516
0.00469514
0.00446162
0.00510888
0.00530402
0.00536914
0.00550315
0.00571207
0.00555847
0.00538532
0.00525377
0.00515846
0.00505877
0.0051132
0.00520842
0.00531
0.0054528
0.00564387
0.00567652
0.00547841
0.00532885
0.00522658
0.00513057
0.00513498
0.0052207
0.00532068
0.00546251
0.00564377
0.00554394
0.00540299
0.00527757
0.0051747
0.00508417
0.00490666
0.00502548
0.00515621
0.00526409
0.00533432
0.00460894
0.00492602
0.00484084
0.00438236
0.00410134
0.00311468
0.00337087
0.0035548
0.00387192
0.00429824
0.00438223
0.00367774
0.00315176
0.0030714
0.00304662
0.00311848
0.00314428
0.00315938
0.00356983
0.00537882
0.00541493
0.00542995
0.00543181
0.00464465
0.00451337
0.00420515
0.00768511
0.00715456
0.00620007
0.0051103
0.00273963
0.00234856
0.002782
0.0033828
0.00378196
0.00417269
0.00277064
0.00171601
0.00199981
0.00207331
0.0020223
0.00186929
0.0015577
0.00143786
0.00130489
0.00140418
0.00248667
0.00396851
0.00447034
0.00451803
0.00447344
0.00438662
0.00428103
0.00413405
0.00408318
0.00515139
0.00697579
0.00786223
0.00782965
0.00672745
0.00548516
0.00309263
0.00159218
0.0011703
0.00126372
0.00138801
0.00163023
0.00145346
0.001222
0.0013391
0.00126849
0.00256883
0.00443337
0.00564211
0.00670148
0.0065975
0.00573863
0.00468658
0.00443764
0.00454076
0.00461046
0.00466979
0.00473071
0.00477244
0.00474562
0.00431919
0.00266824
0.00159295
0.00141533
0.00152177
0.00178357
0.00189521
0.00191469
0.00188819
0.00163701
0.00270772
0.00429863
0.00273419
0.0014918
0.00161172
0.00159985
0.00282179
0.00281752
0.00275711
0.00428934
0.00453541
0.00452395
0.00425112
0.00405822
0.00240311
0.0027276
0.00273679
0.0027511
0.00279598
0.00141296
0.00154024
0.00158834
0.00171033
0.00149442
0.00189799
0.000491164
0.000681211
0.000791151
0.000860441
0.000927105
0.000909492
0.00174055
0.00176625
0.00168521
0.00164073
0.00208185
0.00223389
0.00228306
0.00210278
0.00194019
0.00206511
0.00206973
0.00195074
0.00184773
0.00191559
0.00191694
0.00183722
0.00156269
0.00146429
0.00160736
0.00159009
0.0015775
0.00283168
0.00282653
0.0026754
0.00439431
0.00432433
0.00484322
0.00481225
0.00480689
0.0047874
0.00483897
0.00486569
0.00488562
0.004909
0.00489937
0.00485178
0.00672527
0.00477391
0.00416583
0.00240961
0.00232133
0.00163976
0.00143717
0.00169231
0.00181
0.00196233
0.00191803
0.00202175
0.00201935
0.00214267
0.00198854
0.00176552
0.00270386
0.00288829
0.00282075
0.00287633
0.00280857
0.00279188
0.00277152
0.00273237
0.00268512
0.00159918
0.00156889
0.00183721
0.00192859
0.00207234
0.00209092
0.00213637
0.00202585
0.00178149
0.00172437
0.00198615
0.00195927
0.00199765
0.00188337
0.00187531
0.00167041
0.00171278
0.00345102
0.00635777
0.00328005
0.00364302
0.0033018
0.00375444
0.00328947
0.00283763
0.00290448
0.00255852
0.00266895
0.00279945
0.00285014
0.00299558
0.00353117
0.00339973
0.00298419
0.00289754
0.00284047
0.00267838
0.0024109
0.00252532
0.00254796
0.00260265
0.00289269
0.00331767
0.00371846
0.00451697
0.00438331
0.00384089
0.00351152
0.0036819
0.00374665
0.0047148
0.00440437
0.0043785
0.00461916
0.00457351
0.00433981
0.00411175
0.00396867
0.00340848
0.00346437
0.00396285
0.00383489
0.00395217
0.003883
0.00403735
0.00411079
0.00394512
0.00366696
0.00385654
0.00384915
0.00427363
0.00415574
0.00385578
0.00352593
0.00377093
0.00372614
0.00430297
0.00404971
0.00378766
0.0034879
0.00334185
0.00379218
0.00372259
0.00421964
0.0043427
0.00434455
0.00378862
0.0037002
0.00439873
0.00423101
0.00408835
0.00425859
0.00352787
0.00362788
0.00446754
0.0045609
0.00432786
0.00361456
0.00366925
0.00314607
0.00369948
0.00460321
0.00434777
0.00356427
0.00295838
0.00413734
0.00435231
0.00460176
0.0043495
0.00473535
0.00510029
0.00416019
0.0045252
0.00590915
0.00451853
0.00524246
0.00535785
0.00538864
0.00539061
0.00541056
0.00543654
0.00572604
0.00556665
0.00354386
0.00423605
0.00411786
0.00344713
0.00293488
0.00323151
0.00348024
0.00353048
0.00362
0.00375759
0.00369235
0.0035672
0.00522394
0.00596246
0.00609064
0.0062114
0.0061104
0.00596105
0.00561511
0.0051939
0.0043212
0.0032243
0.0020147
0.00205424
0.00218956
0.00216926
0.00188226
0.00141951
0.000933218
0.00138432
0.00143215
0.00135012
0.00123253
0.00109149
0.00113504
0.00205664
0.00372734
0.00537481
0.00598136
0.00647014
0.00698024
0.00744982
0.00780266
0.00806127
0.0082386
0.00834875
0.00837185
0.00821295
0.00746339
0.00712631
0.00670863
0.00636527
0.00589506
0.00553899
0.00626369
0.00688348
0.00726581
0.00769467
0.00789284
0.00780835
0.00678
0.00656747
0.00755736
0.00931523
0.00791838
0.0099511
0.0117027
0.00910294
0.00818578
0.00818547
0.00915946
0.0093395
0.00900879
0.00849087
0.00789492
0.00713989
0.00751938
0.00786598
0.00820214
0.00851226
0.00933565
0.00947471
0.00940098
0.00924944
0.00904968
0.00877277
0.00834607
0.00775066
0.00704761
0.00634642
0.00553256
0.00380165
0.0019256
0.00216637
0.00213631
0.00215481
0.00216196
0.0010359
0.00114406
0.0011581
0.00116478
0.00109741
0.00125001
0.00180674
0.00292001
0.00209903
0.00173308
0.00119434
0.00139665
0.00232931
0.00394053
0.00444907
0.00454123
0.00464485
0.00613138
0.00687778
0.00729429
0.0076234
0.0078463
0.00775165
0.00750409
0.00706409
0.00649714
0.00627971
0.00592007
0.0056072
0.00543484
0.00526391
0.00493257
0.00385221
0.00373607
0.00389274
0.00384055
0.00367556
0.00392909
0.00407199
0.00406919
0.00411488
0.00415473
0.00427764
0.00442218
0.00454791
0.00461381
0.00463814
0.00464565
0.00465492
0.00466219
0.00467619
0.00466016
0.00455801
0.00400229
0.00250288
0.00146117
0.00135075
0.00148099
0.0015661
0.00160247
0.0014232
0.000916208
0.00142363
0.00184284
0.00189005
0.00207407
0.00213992
0.00226875
0.00252636
0.00291911
0.00301226
0.00267324
0.00253202
0.00247854
0.00241589
0.00206935
0.0025794
0.00284131
0.00283535
0.00280796
0.00303478
0.00373411
0.00358757
0.00316386
0.00312924
0.0030981
0.00280567
0.00276379
0.00301493
0.00304782
0.00316074
0.00370575
0.0044432
0.00412261
0.00375542
0.00360171
0.00332674
0.00293243
0.00265129
0.00325099
0.00266376
0.00141808
0.00121055
0.0011978
0.00120432
0.00116489
0.00138113
0.00145297
0.0014718
0.00136659
0.00151553
0.00168576
0.00162944
0.00184383
0.00182079
0.00163208
0.00161777
0.00174462
0.00183646
0.00188404
0.0019397
0.00317441
0.00328163
0.00253871
0.00366867
0.00422397
0.00417985
0.00443446
0.00365298
0.00327805
0.00389002
0.0044897
0.00514106
0.00406746
0.00384975
0.00393544
0.00181132
0.000953166
0.00134446
0.00166946
0.00186222
0.00180738
0.00170751
0.00144389
0.00255885
0.00262826
0.00416391
0.00467077
0.00473172
0.00470289
0.00477823
0.0052341
0.00603595
0.00681916
0.00704964
0.00694963
0.00664225
0.00607252
0.00549605
0.00545817
0.00526373
0.00512298
0.00507869
0.00440135
0.00391151
0.00419192
0.00411648
0.00425601
0.00432128
0.00436872
0.00441688
0.00449697
0.00459348
0.00468121
0.00474069
0.00478001
0.00481287
0.0048464
0.00488006
0.00491653
0.00493584
0.00488836
0.00441753
0.00265007
0.00158027
0.00144155
0.00153818
0.00180782
0.00190352
0.0020459
0.00181674
0.000956775
0.00112507
0.00195503
0.0021677
0.00200561
0.00187706
0.0018434
0.00154426
0.00279688
0.00276049
0.0043328
0.00487334
0.00494205
0.00492906
0.00489173
0.00484949
0.00480873
0.00477524
0.00474841
0.00471968
0.0046786
0.00462804
0.00458172
0.00453516
0.00445495
0.00434108
0.00420642
0.00436966
0.00452829
0.00471649
0.00491747
0.00501998
0.00493206
0.00479933
0.00474023
0.00476951
0.00480983
0.00485158
0.00488923
0.00490759
0.00485271
0.00457341
0.00429159
0.00271807
0.00275333
0.0013553
0.00150539
0.00173699
0.00179407
0.00194818
0.00193887
0.0015244
0.00118834
0.00134091
0.00125318
0.00223856
0.00246153
0.00272937
0.00270223
0.0014679
0.00150582
0.00156512
0.00176521
0.00164174
0.00158656
0.00391116
0.00374868
0.00392373
0.00481268
0.00414587
0.00286281
0.00313507
0.00436284
0.0046016
0.00278148
0.002088
0.00231362
0.00292996
0.00431455
0.00436851
0.00415057
0.00412658
0.00301191
0.00370349
0.0044579
0.00433624
0.00337943
0.00232845
0.00173543
0.000844662
0.00160667
0.00137357
0.003365
0.00372379
0.00368035
0.00402429
0.00427581
0.00431953
0.00419701
0.00372279
0.00379676
0.00383418
0.00436836
0.00438757
0.00371507
0.00313509
0.00254726
0.00257004
0.00261973
0.0029027
0.00363433
0.00342432
0.00300153
0.00291063
0.00284796
0.00267887
0.00241754
0.00212076
0.00213534
0.00198738
0.00192322
0.00303152
0.00403507
0.00475796
0.00489467
0.00494425
0.00486859
0.00483454
0.00469677
0.00462577
0.00401897
0.00513275
0.00542526
0.00523453
0.00527246
0.00530466
0.00534447
0.0053447
0.00524388
0.00450668
0.00269158
0.00175819
0.00198462
0.00214222
0.00201167
0.00200019
0.0021318
0.00202276
0.00177671
0.00287849
0.00281341
0.0044982
0.0050937
0.00520333
0.00521036
0.00519002
0.00517328
0.00518028
0.00545245
0.00532595
0.00538979
0.00566829
0.00567999
0.0057502
0.00539952
0.0053316
0.00528855
0.00525998
0.00521295
0.00508587
0.00450163
0.00436381
0.00495451
0.00510618
0.00517313
0.00521949
0.00527517
0.00534872
0.00556103
0.00571819
0.00577614
0.00554963
0.00546984
0.0053448
0.00516461
0.00512186
0.0051128
0.00510825
0.0050829
0.00495043
0.00435771
0.002802
0.00287112
0.00170807
0.00171925
0.00198026
0.00208001
0.00204295
0.00189192
0.00184462
0.00317297
0.00361171
0.00384184
0.00413791
0.00395242
0.00392924
0.00449075
0.00434632
0.00387362
0.00403066
0.00361588
0.00344603
0.00333161
0.0033501
0.00176353
0.00190291
0.00198479
0.00195177
0.00186633
0.00166459
0.0015265
0.0027857
0.00276532
0.00272922
0.00162315
0.00158761
0.00187044
0.00181654
0.00166184
0.00141655
0.00155286
0.00239737
0.0026812
0.00415751
0.00430631
0.00460972
0.00493018
0.00505215
0.00508558
0.00510574
0.00512846
0.00517647
0.00523296
0.00524766
0.00524307
0.00528233
0.00527425
0.00527446
0.00524526
0.00521239
0.00517465
0.00513475
0.00506954
0.00493518
0.00461251
0.00429564
0.00484327
0.00488738
0.00497792
0.00507193
0.00511234
0.00511952
0.00510243
0.00506735
0.00502592
0.00497706
0.00497647
0.00511956
0.00515301
0.00517791
0.00516268
0.00514547
0.00513993
0.0051176
0.00508093
0.00498638
0.00489145
0.00485076
0.00476953
0.00489744
0.00495443
0.00496359
0.00501225
0.00508987
0.00511124
0.00510947
0.00507099
0.00503878
0.00499827
0.00493295
0.00484863
0.00456048
0.00461799
0.00469455
0.00479424
0.00489065
0.0049686
0.00501214
0.00501446
0.004968
0.00493718
0.00493869
0.0048976
0.00491967
0.00494165
0.0049166
0.00491415
0.00491893
0.00486472
0.00476445
0.00462435
0.00447565
0.00435145
0.00428585
0.00418132
0.00452066
0.00464757
0.00476124
0.00486262
0.00495457
0.0050472
0.00507687
0.00506781
0.00501069
0.00497781
0.00497559
0.00492699
0.00492528
0.00497239
0.0049752
0.00500268
0.00505201
0.00503658
0.00496743
0.00479379
0.00462514
0.00447889
0.00433966
0.00419083
0.00413649
0.00420406
0.00415215
0.004215
0.00436353
0.00454781
0.00470631
0.00480618
0.00483702
0.00486626
0.00491013
0.00490537
0.00487937
0.00486511
0.00480592
0.00475472
0.00469175
0.0045527
0.00437396
0.00421479
0.00416094
0.0042433
0.00432779
0.00424959
0.00395832
0.00411553
0.00426292
0.0044105
0.00461973
0.00486129
0.00496887
0.00500753
0.00498381
0.00496474
0.00496145
0.00491678
0.00490187
0.00494302
0.00494691
0.00496606
0.00499688
0.00496327
0.00487383
0.0045773
0.00422606
0.00405822
0.00395994
0.00382447
0.00427079
0.00435958
0.00425189
0.0041796
0.00429368
0.00442779
0.00456698
0.00465944
0.00469588
0.00474643
0.00481289
0.00484469
0.00479737
0.00474227
0.00467415
0.00463862
0.00463643
0.004611
0.00452049
0.00441564
0.00429712
0.00444237
0.0045266
0.00444544
0.004033
0.00410001
0.00419658
0.0042521
0.00458078
0.00487085
0.00494217
0.0049471
0.00491832
0.00489913
0.00489947
0.00487342
0.00482578
0.00481736
0.00481293
0.00486852
0.00494091
0.00497898
0.00499673
0.00477943
0.00438657
0.00432349
0.00414816
0.00406349
0.00450507
0.00455661
0.0044537
0.00435679
0.00456532
0.00465491
0.0046813
0.00466454
0.00461757
0.00458613
0.00464482
0.00473706
0.00466692
0.00436464
0.00409548
0.00423319
0.00426571
0.00425371
0.00419506
0.00409861
0.00389013
0.00434277
0.00478316
0.00481996
0.00435539
0.00436251
0.00421844
0.00392349
0.00430491
0.0045098
0.00455662
0.00454155
0.00447353
0.00430456
0.00454743
0.00476089
0.00472002
0.00427223
0.0027729
0.00281116
0.0028317
0.00283455
0.00279703
0.00278645
0.00274559
0.00272435
0.00266099
0.00259648
0.00253512
0.00270338
0.00284799
0.00304247
0.00305819
0.00313845
0.0030034
0.0028436
0.00265534
0.00206851
0.00262462
0.0031306
0.00332769
0.00358016
0.00363284
0.00419173
0.00441009
0.00452908
0.004443
0.00356565
0.00302514
0.00241769
0.00157235
0.000979729
0.0011501
0.00119629
0.00125716
0.00153677
0.00282247
0.00143903
0.00199243
0.00155827
0.00267578
0.00142455
0.000890456
0.000589222
0.000748599
0.000884995
0.000892504
0.000857548
0.000715807
0.00056436
0.000576949
0.000539397
0.000573311
0.000517235
0.00059265
0.000553707
0.000773214
0.00116268
0.0013196
0.00134855
0.00108984
0.00122882
0.00102664
0.00118401
0.00105726
0.00115233
0.00110554
0.00135201
0.00148183
0.00141893
0.00142309
0.00124543
0.000871205
0.00100982
0.000793411
0.000952615
0.000728939
0.000941605
0.000807372
0.00104911
0.00108149
0.00107837
0.00103829
0.00079319
0.000940148
0.000740141
0.000906435
0.000742468
0.000788715
0.000655804
0.000949449
0.000966382
0.000890756
0.000945883
0.00106122
0.00113862
0.00125679
0.00119298
0.00136316
0.0013201
0.00134286
0.00127217
0.00123744
0.00120927
0.00121176
0.00119181
0.0011983
0.00123685
0.00123869
0.00124352
0.0012828
0.00126393
0.00123348
0.00121518
0.00107957
0.000870952
0.00151701
0.0015644
0.0015873
0.00158671
0.00155049
0.00153319
0.00148042
0.00146632
0.00142041
0.00139333
0.00133184
0.00128115
0.00122353
0.00137491
0.000769334
0.000873435
0.000922089
0.000949418
0.000968581
0.000977401
0.000984623
0.000979207
0.000967166
0.000943293
0.000935142
0.000909123
0.00116335
0.0013232
0.00138314
0.00139919
0.00131164
0.001249
0.00272921
0.00330179
0.00502157
0.00513261
0.0038529
0.00384198
0.0013305
0.00140307
0.000959487
0.00134842
0.00139039
0.00137628
0.0013002
0.000937788
0.00140729
0.000980162
0.00131924
0.000987837
0.00121943
0.0010025
0.0014205
0.00180878
0.00174352
0.00157781
0.00107413
0.000894365
0.000892786
0.000765477
0.000840267
0.000695647
0.000856126
0.000724918
0.00107932
0.00153983
0.00170365
0.00173766
0.00137004
0.00189037
0.00142118
0.00205734
0.00163283
0.00201298
0.00161515
0.0018696
0.00231341
0.00232383
0.00226884
0.00182877
0.00146617
0.00164559
0.00145803
0.00167911
0.00242476
0.00158922
0.00240951
0.000995906
0.00135752
0.00139911
0.00137979
0.00130086
0.000876319
0.00223101
0.00117946
0.00209911
0.00135789
0.00217786
0.00157727
0.00208301
0.00248917
0.00259874
0.00258519
0.00210994
0.00190126
0.00196036
0.00156614
0.00187991
0.00140665
0.00204461
0.00116656
0.00151828
0.00168182
0.00177099
0.00177857
0.00146247
0.00288753
0.00181263
0.00273593
0.00190193
0.00243633
0.00195284
0.00213663
0.00252314
0.00250755
0.00248669
0.00210873
0.00170604
0.00225181
0.00160685
0.0477366
0.110385
0.0438961
0.111524
0.0505181
0.0716871
0.070625
0.0707561
0.0710036
0.0533055
0.116309
0.137436
0.143364
0.145144
0.144087
0.232862
0.189889
0.285342
0.18501
0.108804
0.0471347
0.0650273
0.167945
0.277409
0.416177
0.528011
0.359784
0.372347
0.237596
0.234207
0.220438
0.178296
0.109317
0.0548132
0.00940442
0.0102992
0.0147392
0.0196155
0.0154662
0.00948581
0.0018762
0.0019367
0.00198114
0.00200956
0.0020044
0.00196429
0.00199852
0.00189158
0.00178301
0.00199654
0.00217598
0.00230054
0.00271772
0.00300594
0.00271001
0.00297133
0.00314942
0.00329457
0.00341463
0.00359324
0.00379433
0.00397071
0.00398057
0.00364814
0.00310989
0.00253089
0.0021284
0.00201676
0.00189401
0.00167024
0.00152802
0.0014312
0.00138402
0.00136426
0.00140172
0.00153168
0.00164421
0.00168362
0.00165029
0.00161995
0.00159349
0.00141888
0.00165893
0.00227556
0.00229354
0.00392938
0.00452755
0.00462146
0.00462765
0.00410277
0.00262092
0.0026265
0.00263991
0.00268996
0.00270039
0.0027068
0.00270387
0.00269392
0.00267815
0.00264864
0.00263404
0.0025914
0.00255555
0.00246594
0.00246993
0.00250124
0.00252619
0.00248497
0.00249516
0.00244313
0.00316823
0.00424134
0.00479422
0.00501026
0.00519642
0.00504363
0.00698579
0.00596972
0.00419357
0.00413243
0.00408088
0.00483849
0.00487215
0.00440624
0.0044246
0.00402933
0.00251498
0.00250691
0.00250856
0.00268274
0.00273541
0.00282921
0.0028551
0.0028786
0.00289241
0.00288807
0.00288655
0.00286191
0.00284299
0.00277914
0.00275788
0.00274876
0.0015154
0.00165386
0.0017155
0.00172669
0.00175118
0.0017403
0.00172952
0.00170853
0.00169465
0.00166606
0.00163285
0.00158425
0.00148955
0.00135705
0.00149349
0.00253508
0.00253438
0.00413206
0.00467032
0.00470425
0.00522846
0.00496452
0.00470182
0.00504445
0.00455264
0.0045176
0.0040837
0.00253476
0.00256942
0.00152453
0.00151139
0.00176694
0.00171824
0.00183609
0.00188638
0.00189248
0.00191887
0.00194401
0.00197524
0.00202569
0.002041
0.00200985
0.00200417
0.00188796
0.00163139
0.00165076
0.00194629
0.00204143
0.00189506
0.00186126
0.00184644
0.00180084
0.00176628
0.00173319
0.00175556
0.00188997
0.00188763
0.00185412
0.0017642
0.0017178
0.00148909
0.00143801
0.00251461
0.0025525
0.00422498
0.00432228
0.00428484
0.00493498
0.00550846
0.00626962
0.00535023
0.00435309
0.0045534
0.00520496
0.00387377
0.00324024
0.00193008
0.00144417
0.00180553
0.00166139
0.00173246
0.00179497
0.00159419
0.00171294
0.00158394
0.00143941
0.00143153
0.00142989
0.00146537
0.00148031
0.00150733
0.00151102
0.00154792
0.00154453
0.00154932
0.0015683
0.00157714
0.00174262
0.00189452
0.00159427
0.00135147
0.00131617
0.00124276
0.00118293
0.00121163
0.00118229
0.00117499
0.00115329
0.00113364
0.00108165
0.00112708
0.00119583
0.00139889
0.00133904
0.00108237
0.00096718
0.000661102
0.00067432
0.000678989
0.000699922
0.000707612
0.000717063
0.000720588
0.000732387
0.000734696
0.000738443
0.000738167
0.000756248
0.000753694
0.000745101
0.000739505
0.000743158
0.000746658
0.000746176
0.00109266
0.00121682
0.00132984
0.00157974
0.00185947
0.00160054
0.0013563
0.00116851
0.000751082
0.00076239
0.000776367
0.00078354
0.000800323
0.000815537
0.000832597
0.000843334
0.000851454
0.000859891
0.000868802
0.00087236
0.000870242
0.000853416
0.00084351
0.000864925
0.000950614
0.00100041
0.00106429
0.0010884
0.00110887
0.00111899
0.00111373
0.00112545
0.00111226
0.00111046
0.00109157
0.00108355
0.00107591
0.00106625
0.00105423
0.00102446
0.00101458
0.00106742
0.00180832
0.00236602
0.00272548
0.00300282
0.00278051
0.0022599
0.00237053
0.00416785
0.00394928
0.00232797
0.00217553
0.0020109
0.00176229
0.00152727
0.00184209
0.00210396
0.00230214
0.00247592
0.0026349
0.00274302
0.0028818
0.00306277
0.00338207
0.0034225
0.00312226
0.00253104
0.00214371
0.00200308
0.00193558
0.0018174
0.0016882
0.00173032
0.00174265
0.00169058
0.00162587
0.00160725
0.00163367
0.00166717
0.00164714
0.00164643
0.0014708
0.00147029
0.0025122
0.00256016
0.00393799
0.00414888
0.0041886
0.00269334
0.00265617
0.00155147
0.00144073
0.00157168
0.00163144
0.0016347
0.0016411
0.00163252
0.00160378
0.00158278
0.00155834
0.00153856
0.00152115
0.00149108
0.00143379
0.00132419
0.00144306
0.00161851
0.00169018
0.00170874
0.00171759
0.00174472
0.00178922
0.00182496
0.00190785
0.00191661
0.00191611
0.00192301
0.00179752
0.00185399
0.0015691
0.00156703
0.00271598
0.00270888
0.00155623
0.00183772
0.00184993
0.00182857
0.00196834
0.00180113
0.00174378
0.00173414
0.00166047
0.00162132
0.00156922
0.00153812
0.00156828
0.00166832
0.00161537
0.00143132
0.00138017
0.00154817
0.00148922
0.00123561
0.00105568
0.00102661
0.000982704
0.000956087
0.0010021
0.00103797
0.00105844
0.00108446
0.00109219
0.0011401
0.00110938
0.00116437
0.00123481
0.001291
0.00153148
0.00165943
0.00149914
0.00147019
0.00145194
0.0014501
0.00145461
0.00139449
0.0013905
0.00135948
0.00134422
0.00130373
0.00128545
0.00126219
0.00126637
0.00127973
0.00140689
0.00362319
0.00461761
0.00480872
0.0082041
0.0033191
0.00338923
0.00663484
0.00275078
0.0041321
0.00442704
0.00462961
0.00483441
0.00442466
0.00561245
0.00392449
0.00436994
0.00455787
0.00399785
0.00149356
0.00169263
0.00195707
0.00175249
0.00154823
0.00105551
0.00113851
0.00117588
0.00120623
0.00122589
0.00124777
0.0012712
0.00129321
0.0013087
0.00130901
0.00126933
0.0012265
0.00112805
0.00109527
0.00113771
0.0011816
0.00103791
0.000977293
0.000988879
0.00100525
0.00101443
0.00101645
0.00102647
0.00102921
0.00104501
0.00103663
0.00104461
0.00102681
0.00103594
0.00102232
0.000987363
0.000938413
0.000855099
0.000834676
0.00120221
0.00128013
0.0013448
0.00152582
0.00176159
0.00187965
0.00168449
0.00155304
0.0014907
0.00165373
0.00165401
0.00300379
0.00576715
0.00258259
0.00289516
0.00844176
0.00335417
0.00260836
0.00264805
0.00267592
0.00267956
0.00155733
0.00184467
0.00178874
0.00179564
0.00152287
0.00127848
0.00114656
0.00102512
0.000695047
0.000692703
0.000697932
0.000708563
0.000711859
0.000681329
0.000681247
0.000677347
0.000675817
0.000661467
0.000657465
0.000645819
0.000638749
0.00062198
0.000612885
0.000596892
0.000594013
0.000618706
0.000687217
0.000830617
0.000925453
0.00105118
0.00107066
0.00120808
0.00299512
0.003473
0.00478321
0.00474343
0.00748146
0.00467474
0.00353203
0.00319307
0.0046705
0.00482436
0.00447842
0.00606783
0.00419982
0.00277971
0.00416189
0.00345796
0.00411524
0.00403047
0.00427556
0.00680067
0.00717267
0.00202065
0.00180149
0.00189519
0.00214995
0.00255245
0.00235044
0.00267736
0.00267479
0.00206397
0.00131437
0.00418541
0.00504232
0.00404553
0.00485639
0.00752473
0.00302277
0.00294815
0.00260872
0.00217758
0.0019793
0.00195275
0.00217722
0.00260517
0.00653036
0.00698264
0.00642437
0.00639424
0.00580163
0.00638626
0.00798471
0.00795341
0.0070251
0.00657419
0.00680266
0.00419731
0.00261933
0.00305189
0.00338092
0.00451051
0.00465104
0.00982425
0.00333296
0.00368192
0.00373967
0.0050028
0.00484333
0.00857059
0.00362722
0.00391303
0.00515595
0.00689277
0.0127223
0.00463547
0.0048863
0.007031
0.00713747
0.00652244
0.00470896
0.00426624
0.00464867
0.00350213
0.00342332
0.00292287
0.00431514
0.00581121
0.00459194
0.00445917
0.0037954
0.00337511
0.00346012
0.00358981
0.00298139
0.00294029
0.00339465
0.00251537
0.00243373
0.00257988
0.000715999
0.000367084
0.000375295
0.000385034
0.000392946
0.000401086
0.000407056
0.00041412
0.000417335
0.00041767
0.00041872
0.000442867
0.000438811
0.000424948
0.000385873
0.000440364
0.000698818
0.000699324
0.000439909
0.000387832
0.000695848
0.00110889
0.00130746
0.00154689
0.0015662
0.00135128
0.00117144
0.000720919
0.000709604
0.00043013
0.000502333
0.000545508
0.000483808
0.000539913
0.00050039
0.000530033
0.00053543
0.00049533
0.000492596
0.000494506
0.000490708
0.000481995
0.000471333
0.000458337
0.000448081
0.000442411
0.000437924
0.000428222
0.000356163
0.00033184
0.00039869
0.000635519
0.000634513
0.00059488
0.000561148
0.000532401
0.000519378
0.000515779
0.000512986
0.000521942
0.000538843
0.000543609
0.000548358
0.000590914
0.000572639
0.00061167
0.000574026
0.000613316
0.000575702
0.000529602
0.000444689
0.00045882
0.000740163
0.000748048
0.00120885
0.00138311
0.00156846
0.00157666
0.00175986
0.00185326
0.00156919
0.00162919
0.0018674
0.00173935
0.00155064
0.00155659
0.00140031
0.00140147
0.00124126
0.000775598
0.00076503
0.00048047
0.000466591
0.000556368
0.0005466
0.000607909
0.000650554
0.000650748
0.000648624
0.000632081
0.000626193
0.000550651
0.000539873
0.000540578
0.000524191
0.000520661
0.000542768
0.000592019
0.000694527
0.000839994
0.000914842
0.000947135
0.000908769
0.0008139
0.000600095
0.000542708
0.00094015
0.000976442
0.00174382
0.00412823
0.00191601
0.00368417
0.00265999
0.000662358
0.000739192
0.000942676
0.00105635
0.00114046
0.00118829
0.00108558
0.000905429
0.000681835
0.000563145
0.000841936
0.000728056
0.000822645
0.000718577
0.000929922
0.00107528
0.00104027
0.00104815
0.000885844
0.000721681
0.000764292
0.000686244
0.00075645
0.000633221
0.000761891
0.000687865
0.000864416
0.000872512
0.000854342
0.000809793
0.000616578
0.000646895
0.000542627
0.000588601
0.000528437
0.000546117
0.000517502
0.00060345
0.000695347
0.000667312
0.00066467
0.000546093
0.000427875
0.000472562
0.000408539
0.000462382
0.000359308
0.000435289
0.000365046
0.000472556
0.000487124
0.000489667
0.000486411
0.000395614
0.000465017
0.000570118
0.000598747
0.000603721
0.000575194
0.000443326
0.00068612
0.000619445
0.000756427
0.0006544
0.000716249
0.000652293
0.000760322
0.000973769
0.00101666
0.00102345
0.000830317
0.000825081
0.00150459
0.0833986
0.00135343
0.00159965
0.00164943
0.00164342
0.00135872
0.00132567
0.00164168
0.00121459
0.00171986
0.00108282
0.00183404
0.000699315
0.0010631
0.00114138
0.00113894
0.00105846