/*--------------------------------*- C++ -*----------------------------------*\
| =========                 |                                                 |
| \\      /  F ield         | OpenFOAM: The Open Source CFD Toolbox           |
|  \\    /   O peration     | Version:  v2012                                 |
|   \\  /    A nd           | Website:  www.openfoam.com                      |
|    \\/     M anipulation  |                                                 |
\*---------------------------------------------------------------------------*/
FoamFile
{
    version     2.0;
    format      ascii;
    class       surfaceScalarField;
    location    "575";
    object      phi;
}
// * * * * * * * * * * * * * * * * * * * * * * * * * * * * * * * * * * * * * //

dimensions      [1 0 -1 0 0 0 0];
oriented        oriented;


internalField   nonuniform List<scalar> 
50655
(
0.00257875
-0.00361114
-0.00138991
-0.00512601
0.00131256
0.00364619
-0.00341736
0.0038905
0.00451878
-0.00249962
-0.0028035
0.00300357
-0.00369625
-0.00377144
0.00270231
-0.00179717
-0.00482288
0.000850891
0.000153466
-0.00467996
0.00164231
-0.00185582
-0.00720995
0.00244246
-0.0105048
0.00287015
0.000325927
-0.011328
-0.00348322
0.00419643
-0.0120769
-0.00485686
0.00550333
-0.0129349
-0.00564729
0.00640121
-0.0262265
-0.00933275
0.0224303
-0.0487546
-0.0283029
0.0502707
-0.048322
-0.0527756
0.0516459
-0.031072
-0.0711672
0.0531393
-0.0045233
-0.0780071
0.0506754
0.00790841
-0.0546521
0.0414091
-0.00164011
-0.0314474
0.040223
-0.0208463
-0.0217377
0.0401772
-0.0166843
-0.0512873
0.0464029
-0.00687986
-0.0550454
0.0446833
-0.038604
0.0313951
-0.0409096
0.0188312
-0.0168268
-0.0155939
-0.075502
0.0496916
0.0203437
-0.0797705
0.0433365
0.0305885
-0.0290947
0.0185428
0.0340088
-0.00375772
0.0364211
0.0179628
-0.0206976
0.0252489
-0.0179515
0.0288478
0.0163061
-0.00948831
0.0182619
0.00317015
-0.00129159
0.0143006
-0.00658569
0.00674268
0.0029179
-0.00543847
2.03531e-06
-0.00118996
-0.00540098
-0.00127703
0.00122116
-0.00632559
0.000272321
0.000634996
-0.00759857
0.000262057
0.000994323
-0.008752
0.000139459
0.000996839
-0.00915347
-0.000205842
0.00059094
-0.00942442
-0.000621603
0.000875967
-0.00898683
-0.00104687
0.000592998
-0.00836178
-0.001511
0.000869267
-0.00713587
-0.00195542
0.000713089
-0.00571128
-0.00241484
0.000973379
-0.00383288
-0.00271483
0.000820256
-0.00199217
-0.0029068
0.00104913
0.000886821
-0.00289658
0.000647792
-0.00257383
0.00278722
-0.0053198
0.00504204
0.000883781
-0.0107791
0.00479929
0.000603491
-0.0129709
0.00520803
-0.00308325
-0.012876
0.00540645
-0.00556832
-0.00537892
0.00466723
-0.0122207
0.000522616
0.00561677
-0.01156
0.00060473
0.00357535
-0.0036831
-0.00150022
0.00208736
-0.00294313
0.00214151
-0.000715737
-0.0044992
0.00218895
-0.000649022
-0.00581084
0.00234771
-0.00105245
-0.00707708
0.00230521
-0.00105393
-0.00857816
0.00249697
-0.00100991
-0.0101441
0.00258327
-0.00103071
-0.01144
0.00237647
-0.0010937
-0.0123438
0.00201627
-0.0011255
-0.0128132
0.00160443
-0.00114804
-0.0131334
0.00143943
-0.00113258
-0.013739
0.0015671
-0.000975685
-0.0139479
0.00112319
-0.000929363
-0.0136549
0.00089699
-0.00120543
-0.0136463
0.000782755
-0.00080697
-0.0133727
0.000826959
-0.00111669
-0.013126
0.000901441
-0.00116409
-0.0129816
0.000844326
-0.00100448
-0.012706
0.000574558
-0.000865777
-0.0121668
0.000125758
-0.000680328
-0.0112663
-0.000449226
-0.000466575
-0.0101462
-0.000908554
-0.000226829
-0.00882932
-0.00100434
-0.000327361
-0.00738153
-0.000754907
-0.000706731
-0.00757949
-0.000688032
0.000873988
-0.0163832
0.000827357
0.00794983
-0.0211513
0.000409965
0.00429756
-0.0225932
0.0011557
0.000220935
-0.0425642
0.0163511
0.00350245
-0.0545416
0.00562146
0.00605765
-0.0294496
-0.0162722
-0.00912737
-0.0131078
-0.0149354
-0.00153855
-0.0112491
-0.00398203
0.00204527
-0.00999338
-0.00306905
0.0017233
-0.00807534
-0.00341811
0.00139857
-0.00471605
-0.00328308
-0.000171478
-0.00316933
-0.00163203
-0.00443118
0.00458188
-0.00341492
-0.00264949
0.00672685
-0.00862217
0.00094149
0.00620387
-0.00992704
0.00623789
0.00589358
-0.0113348
0.0150176
0.00877598
-0.0177368
0.0285432
0.0137469
-0.027555
0.024849
0.0196474
-0.0162346
0.0164065
0.00635104
0.0019067
0.00755882
8.02955e-05
0.00862006
-0.00130403
-0.00410019
0.0128281
-0.00453206
-0.00686522
0.00997688
-0.00758481
0.00539775
0.00445593
0.000973638
-0.0102417
0.0022382
-0.0083201
0.00355895
-0.00492132
-0.00441712
0.00735066
-0.0123971
0.00204907
0.00537418
-0.0143042
0.00568517
0.00243606
-0.0385058
0.0268839
0.0232218
-0.00683806
-0.0133352
0.0370493
-0.00980192
-0.0392485
-0.00484306
0.00927046
-0.00912109
-0.000582351
0.00895867
-0.00745587
0.00263683
0.00957791
-0.00671563
0.00456277
0.00959671
-0.00490573
0.00711323
-0.00134548
0.0112568
-0.0049548
-0.00272402
0.0124338
-0.0018903
-0.00245823
0.00881884
-0.000397689
-0.00413438
-0.0020326
-0.0210675
-0.00212094
0.0295463
-0.0106668
-0.0143148
-0.0016645
-0.00712425
-0.00248357
-0.0073359
0.0158699
0.00133398
-0.0102735
0.0219167
0.00113729
-0.00900489
0.0324601
0.000359969
-0.013201
0.0831981
-0.00214041
-0.0359991
0.0467858
-0.0019562
0.0455161
-0.0021955
0.00743049
-0.00310923
0.0384409
0.00385351
0.0217809
0.00195397
0.0232292
-0.000319636
0.0113131
0.0139356
0.00622616
-0.00793469
0.000103403
0.00680771
0.00521435
-0.00148116
0.00731872
0.00818427
-0.00152501
0.00711978
-0.0150707
0.00797667
-0.00209785
0.00736733
-0.0153152
0.00850092
-0.00126432
0.00743405
-0.0167015
0.00841339
-0.00130259
0.00741791
-0.016013
0.00861252
-0.000631081
0.00728116
-0.0165798
0.00860652
-0.000257374
0.00702967
-0.0159825
0.00855914
0.000706101
0.00623296
-0.0154435
0.00822846
0.00576146
0.00441987
-0.0169405
0.00745072
0.00149159
-0.00415294
0.00567533
0.00273316
0.000806078
0.00537896
-0.000280554
0.000626009
0.00713727
-0.000734992
0.000779395
0.00801382
-0.00114984
0.000934348
0.00831692
-0.00120368
0.00127101
0.00838482
-0.00131682
0.00149446
0.0085595
-0.00136219
0.0014966
0.00870425
-0.00135203
0.00125964
0.00871539
-0.00137098
0.000932597
0.00883027
-0.00119639
0.0073059
-0.000264028
0.00935301
-0.0019973
-0.000818694
0.0110302
-0.00184254
-0.000854435
0.0123132
-0.00153954
-0.000667831
0.0130985
-0.000305034
-0.000945204
0.0135284
0.000858771
-0.00117865
0.0137059
0.00171522
-0.00133406
0.0137049
0.00224359
-0.00141443
0.0137636
0.00225711
-0.00143102
0.0137181
0.00183416
-0.000978119
0.0137239
0.00135793
-0.000597055
0.0139049
0.00123833
-0.000537965
0.0132912
0.00115817
0.000563473
0.0124367
0.00243882
0.000239816
-0.000271119
0.0126749
-0.000415135
0.00244311
-0.000840026
0.0123344
-0.000239111
0.00280404
-0.000633272
0.0114595
-7.49324e-05
0.00311473
-0.000161821
0.0101964
4.8557e-05
0.000300554
0.00327728
0.00859767
0.000724885
0.00331403
0.000129524
0.00685333
0.00104275
0.00304758
0.00013715
0.00584828
0.000965975
0.00224142
8.79121e-05
0.00440585
0.00462335
-0.000849608
0.00285591
0.00427931
-0.000556637
0.00141506
-0.000508997
0.00407495
0.00389576
-0.000410275
0.00560463
-0.000519312
-0.0012057
0.00682764
-0.000412842
-0.000827013
0.00780084
-0.000611647
-0.000378048
0.00816746
-0.000476507
9.3181e-05
0.00822902
-0.000611127
0.000533102
0.00754562
-0.00026347
0.000930274
0.00657793
-0.000302317
0.00125345
0.00477655
0.000278347
0.00150595
0.00212505
0.00109528
0.0015391
-0.00163341
0.00204933
0.00169118
-0.00441374
0.000608677
0.00215367
-0.00594385
-0.000849079
0.00235992
-0.00722656
0.000627304
0.00063347
-0.013652
0.000514036
0.00586657
-0.0246641
-0.00653721
0.0174335
-0.0308194
-0.0160569
0.0220469
-0.0390441
-0.0258934
0.0338516
-0.0314592
0.0234999
0.0161693
-0.0382727
0.00923956
0.0257866
-0.0166549
0.00696918
-0.00456968
0.00440878
-0.0321468
0.0259705
0.00155786
-0.0146261
-0.023369
0.00581307
-0.0375032
0.00617588
0.0410864
-0.0572369
-0.000861871
0.0288683
-0.0498141
0.0151014
0.0125492
-0.0100208
0.0169381
-0.0103171
0.0108766
-0.00245389
0.0188018
0.00793479
0.0111654
-0.0125616
0.0135451
0.0051942
-0.00615798
0.00130867
0.0112097
0.00478951
0.00102054
0.00264971
0.0012805
-0.00105737
0.00158524
0.00270894
-0.00489608
0.00379933
0.00206718
-0.00545792
-0.000555155
0.00219132
-0.00958528
0.00195556
0.00242966
-0.00823065
-0.00370544
0.0020284
-0.0118792
0.00194202
0.00142315
-0.00891499
-0.00419722
0.000602126
-0.0112483
0.00213694
-0.000299889
-0.00732596
-0.00322067
-0.00133298
-0.00816544
0.00227384
-0.00186737
-0.00441155
-0.00173622
-0.00255622
0.00128377
-0.00254931
0.00390819
0.0117744
-0.0105777
0.0112964
0.00660873
-0.00938226
0.0126867
0.00899141
-0.00504498
0.0096082
0.0106198
-0.00240301
0.00387529
0.00958642
0.000893285
0.0128352
-0.00277028
-0.00212885
0.000921934
0.015325
-0.00567204
0.00416747
-0.00324795
0.0021873
0.0152599
-0.00733591
-0.00305354
0.00331774
0.00706349
0.010634
-0.00782187
-0.00266951
0.00333878
0.0117044
0.00184881
-0.00667466
-0.00198739
0.00120446
0.0161578
-0.00100813
-0.00423515
0.00750562
-0.000523424
-0.00519354
0.0109426
-0.000122672
-0.010337
0.0126829
-0.00894255
-0.0142454
-0.0141184
0.00842842
0.00570431
-0.0241073
0.0041091
-0.0185279
0.00622606
-0.0164224
-0.0114296
0.00925498
0.0080011
0.00960154
-0.0340717
-0.0236893
0.00754781
0.011223
0.00757192
-0.00999431
-0.0325785
-0.00912258
0.00778106
-0.00161147
8.10213e-05
0.00774204
-0.00654531
-0.0104635
0.0114169
-0.00761114
-0.014105
0.0105974
0.0104618
-0.000905272
-0.00882249
0.0102881
-0.00144496
0.007873
-0.00793375
0.00411953
0.00105461
0.00439029
-0.00378761
0.00614434
-0.00631876
0.01398
-0.0121619
-0.0036528
0.0108189
-0.0170477
-0.0026502
0.00569916
-0.0169793
-0.00105509
-0.0011471
0.00195321
-0.00818024
0.00820152
0.00975426
-0.00946271
0.0106096
0.0114528
-0.00494963
0.0111456
0.0121218
-0.00211818
0.0108882
0.0041029
-0.010657
0.011274
0.00286495
-0.00893024
0.0124174
-0.00210587
-0.00479554
0.0119605
-0.00472596
0.0098805
-0.00604766
0.00210041
0.00405212
0.00100507
0.00774055
0.00797377
-0.00174073
0.0107792
0.00910908
0.000182565
0.00787652
0.00628319
-0.00920426
0.0101562
0.000178402
-0.00722844
0.00356042
0.0034844
0.000162458
0.00155307
-0.00105967
0.00487709
-0.00683974
-0.00162037
-0.00234134
0.0187603
-0.00324759
-0.0196551
0.0169025
-0.0013969
-0.0018452
-0.0163932
-0.0119057
-0.000735981
0.00317564
-0.00875149
-0.0106445
-0.0129644
0.00637526
-0.00593654
-0.00496821
0.000809131
0.00133075
0.00038014
-0.00209327
-0.00422587
-0.000992296
0.00394598
-0.00257514
-0.000414404
0.00178008
-0.00235936
0.00127609
-0.00378595
0.00669408
0.00067273
-0.0110709
0.000657871
-0.00346709
0.0102978
-0.0034585
-0.00448142
-0.0187749
0.013753
-0.011769
-0.0192973
-0.0117796
0.00789104
0.00431885
-0.0265233
-0.0154035
0.00260665
0.00933636
0.0105754
-0.0355092
-0.016486
0.0130952
0.00185755
0.0104168
-0.0422254
-0.0146545
0.00986307
0.000108969
0.0112954
-0.0436074
-0.0108236
0.00326707
-0.00150298
0.010337
-0.0431153
-0.00621252
-0.00147073
-0.00181245
0.00889376
-0.0394406
-0.00339028
-0.00447916
0.00410068
-0.034708
-0.00123113
-0.00708357
0.00650095
-0.00302695
-0.03215
0.00128919
-0.00608996
0.00562464
-0.00348379
-0.0291054
0.00259548
0.00449834
-0.00396562
-0.00627567
-0.0289123
0.00198817
0.00399042
-0.00353071
-0.00275297
-0.0298167
0.000121634
0.00187595
-0.00120037
-0.02776
-0.00168311
0.00143011
-0.00191731
-0.0229421
-0.00272176
0.0015827
-0.00377508
-0.0301135
0.00174275
0.0226175
-0.0172645
-0.0592253
0.0293178
-0.0130126
0.0124295
0.0059379
-0.0198751
-0.0014428
-0.0132747
-0.0251748
-0.00909213
-0.0122463
-0.000520755
-0.0087285
-0.0111442
0.000571689
0.000302344
-0.00941635
-0.000647609
0.000546502
-0.00579246
-0.00381532
0.00147971
-0.00308936
-0.00402655
0.00105357
-0.00454015
-0.000250902
-0.00446054
0.000794029
-0.00092088
-0.00685034
0.00204444
0.000282169
-0.0107903
0.00219794
0.0016624
-0.013101
0.000808441
0.0014237
-0.0133669
-0.000360863
0.000556922
-0.0130753
-0.00175499
0.00140944
-0.0236465
0.00141727
0.00907913
-0.0568472
0.0174913
0.0155027
-0.101261
0.00878205
0.0350592
-0.117893
-0.00595575
0.0218943
-0.127221
-0.0116838
0.0202361
-0.13362
-0.0165847
0.0221494
-0.137248
-0.0222753
0.0250185
-0.138558
-0.0273369
0.0277366
-0.138472
-0.0308149
0.0298045
-0.137657
-0.0329636
0.0312241
-0.1362
-0.0342112
0.0318374
-0.134052
-0.0348621
0.0318124
-0.130209
-0.0353738
0.0306595
-0.12224
0.0278818
-0.0366849
-0.10311
0.0208621
-0.0407507
-0.053361
0.00341008
-0.0537781
-0.0225802
-0.00118349
-0.0298163
-0.012365
-0.0042654
-0.00602705
-0.0120868
0.00199825
-0.00233156
-0.0111874
0.00433992
-0.00531007
-0.00875407
0.00385634
-0.00637011
-0.00423872
0.00402437
-0.00862408
-0.00478132
0.00349293
-0.00302156
-0.00804979
-4.91371e-05
0.0032668
-0.00781065
0.00237416
-0.00268448
-0.00894279
0.00104433
-0.0138137
0.00697382
-0.00220153
-0.0166422
0.007142
-0.00442335
-0.0189151
0.00764204
-0.00547179
-0.0237686
0.00700294
-0.00225415
-0.0533004
0.0187343
0.010601
-0.097886
-0.00810554
0.0521175
-0.110868
-0.0316874
0.0439493
-0.112334
-0.0418348
0.0424895
-0.107654
-0.0476751
0.0421727
-0.098895
-0.0521409
0.0425253
-0.0862367
-0.054356
0.0408731
-0.0693095
-0.0558523
0.0381053
-0.0496162
-0.0568312
0.0363719
-0.0239492
-0.0481
0.0217963
-0.0375444
0.0131566
-0.0534105
0.0235814
-0.00818248
-0.0592936
0.0258943
-0.020514
-0.0594089
0.0272209
-0.0276318
-0.0504431
0.0269799
-0.036472
-0.0404034
0.024793
-0.0353354
-0.0232113
0.016749
-0.0344082
0.00920351
-0.0328535
0.026978
0.0382916
-0.0567027
0.0507207
0.0496784
-0.0741871
0.0745633
0.0497623
-0.0744246
0.0947478
0.0499654
-0.0709743
0.110493
0.0471422
-0.063744
0.118723
0.039791
-0.0488435
0.116695
0.0329907
-0.0317727
0.101039
0.0300822
-0.0151466
0.0543935
0.0398325
0.00623961
0.0254228
0.0250133
0.00376103
0.0213234
0.00417746
-0.000182808
0.0194176
0.000594706
0.0012086
0.0158448
0.000300624
0.00316227
0.00911589
-0.000247985
0.00687832
-0.000927678
0.00995579
-0.000969846
-0.00970415
0.00965057
0.000715811
-0.0130865
0.0112919
0.00255331
-0.0142137
0.012253
0.00405297
-0.0135451
0.0119099
0.00429263
-0.0191279
0.0187104
0.00779597
-0.0285715
0.0247831
0.00377791
0.0235707
-0.0198363
-0.000231823
0.0168576
-0.0130271
-0.000426077
0.00841802
-0.00835942
-0.000588191
0.00773244
-0.00769353
-0.00112076
0.00736216
-0.00693857
0.00630959
-0.0064818
0.00346198
0.00545306
-0.000293826
0.00324391
0.00618636
0.00132182
0.00333598
0.00590974
0.0016529
0.00398959
0.00478031
0.00290587
0.0103316
0.0115736
-0.00116363
0.0193681
-0.00896842
-0.000113521
0.0091108
-0.0041884
0.014405
-0.0229843
-0.0113922
0.0434174
-0.0155221
-0.00574752
-0.00179325
-0.000976443
0.00357022
0.00486678
-0.00942917
0.00604467
-0.00259872
0.00362529
-0.00178395
-0.00824419
0.000448767
-0.00914952
-0.0102466
-0.0126325
0.018394
-0.00478996
-0.0306919
0.00322302
0.00365691
0.00405605
-0.0175391
-0.0495743
0.0058748
0.0101162
0.000838171
-0.0580515
-0.0156542
0.0261638
-0.00422032
-0.0203675
0.00616056
-0.0032446
-0.0202561
0.0056028
-0.00226691
-0.0206168
0.00530082
-0.000896984
-0.0190015
0.00443252
-0.0149736
0.00402778
-0.021098
0.00226576
0.00403443
-0.0219087
-0.00133513
0.00262629
-0.0178546
8.54866e-05
0.00544887
0.00164504
-0.0464952
0.0353891
0.008311
0.00802784
-0.114817
0.0350676
0.0513898
0.0208053
-0.12487
0.0473326
-0.00805196
-0.125694
0.0548364
-0.0218883
-0.117853
0.0646202
-0.0335462
-0.102918
0.0732945
-0.0419699
-0.0838381
0.0770388
-0.047021
-0.0613911
0.0748165
-0.0483404
-0.0367349
0.0744729
-0.0502646
0.0506138
-0.0328755
0.0590063
0.046012
-0.0302191
0.0685625
0.0519985
-0.0351997
0.0688681
0.0531867
-0.0268963
0.063413
0.050928
-0.0201861
0.0441625
-0.0058355
-0.0883035
0.0719545
0.00286629
-0.098108
0.0755808
-0.0157569
-0.0995903
0.080012
-0.0262853
-0.0882951
0.0791874
-0.0394263
0.0718198
-0.0405386
0.0881046
0.0942364
-0.0365956
0.0976873
0.101504
-0.0328283
0.0945521
0.100997
-0.0187792
0.081972
0.0959893
-0.00871931
0.0903184
0.00691643
-0.0813015
0.103348
0.0130481
-0.0945224
0.110386
-0.0020972
-0.0984282
0.11581
-0.0118678
-0.0905708
0.116633
-0.0239479
0.111135
-0.0313514
0.0871003
0.123954
-0.0275613
0.094733
0.12801
-0.019986
0.0912954
0.126206
-0.00793541
0.0783574
0.120164
0.00222437
0.11198
0.0167024
-0.0724801
0.116531
0.0193775
-0.0844333
0.125233
0.00594601
-0.086785
0.131771
-0.00419296
-0.0788852
0.134133
-0.0150027
0.131058
-0.0223063
0.0682598
0.131758
-0.0150604
0.0761451
0.134501
-0.00922983
0.0750458
0.130935
0.000958062
0.0641009
0.124573
0.0106685
0.115337
0.0225931
-0.0526068
0.105633
0.0297687
-0.0646414
0.116137
0.0195279
-0.0642061
0.119688
0.00984837
-0.0562692
0.12509
0.00051095
0.125971
-0.00409167
0.0351911
0.0190854
0.0612584
0.0445644
0.0514586
0.0945328
0.0134144
0.054746
0.0923085
0.0232173
0.0357525
0.0482242
0.0451364
0.0408304
0.0444664
0.0364651
0.0514566
-0.0123005
0.0268123
0.0153672
0.0143711
-0.0187296
0.0276255
0.0150672
-0.0152876
0.0310827
0.0134962
-0.0135492
0.0289998
0.0141891
-0.0399665
0.0275235
0.0407155
-0.000822052
0.0248089
-0.0283842
-0.00827777
0.0384386
0.00578881
-0.0369718
-0.00679999
0.0299165
0.00546861
-0.0370394
-0.0045942
0.0290389
-0.0364948
0.00508021
0.0258386
0.00345922
0.00380937
0.00513951
0.00492022
0.00714049
0.00680367
0.00759777
0.00903048
0.00890009
0.00837406
-0.00413088
-0.0199031
0.0156524
0.00266057
-0.000611877
0.000586135
0.00623508
0.00289358
0.000296285
-0.000533333
0.000351929
0.00408281
-0.00154603
-0.00243427
-0.00132011
0.00410213
-0.0016534
-0.000488229
0.00117726
0.0105784
0.0120632
0.0315459
-0.0530908
0.00539065
0.0177364
-0.00422526
-0.0072727
0.0567208
0.00123078
-0.015053
0.00283015
0.00353528
-0.00653832
0.00503966
0.0039699
-0.00619413
-0.0221729
0.00967361
0.0174987
-0.00939466
-0.012505
-0.000316929
0.0178978
-0.00256314
0.0239041
-0.00787596
0.046192
-0.012684
0.0215896
0.0764814
-0.0248997
-0.0325603
0.0046254
0.00708641
0.0297207
0.00214809
-0.017525
0.00803543
0.0136393
-0.00404444
-0.0106362
0.0084706
0.0149351
-0.00403937
-0.0114374
0.00757331
0.0144075
-0.00235697
-0.0112597
0.00612594
0.0127623
-0.0104097
-0.00100394
0.00366866
0.0105042
-0.00877614
0.000641903
0.00870555
-0.00788324
0.00276592
0.00840827
-0.00315349
0.00338006
0.00800626
-0.00279705
0.00314401
0.0151365
-0.00807035
0.000862907
0.0391358
-0.0159402
-0.00827804
0.0725859
-0.0388823
0.00481357
0.0826247
-0.0276481
0.0168499
0.0841603
-0.0235065
0.021137
0.0815763
-0.0202379
0.0219494
0.0763741
-0.0157884
0.0200877
0.0693235
-0.00867344
0.0148056
0.0597868
0.00183174
0.00677701
0.0411891
0.017829
-0.000159159
0.0136235
0.0417843
-0.0151368
-0.00613782
0.0553903
-0.0365313
-0.00206972
0.0502526
-0.0551926
0.0121204
0.0392676
-0.0542908
0.0155631
0.0262827
-0.0304837
0.00969348
0.0289461
-0.0236938
0.00217923
0.0113655
-0.00406947
0.00045819
0.00386319
-0.00221912
-0.000353553
0.00179655
-0.00103941
-0.00204755
0.00328894
-0.00166446
0.0031723
-0.00229406
0.00317553
0.00527096
-0.00146877
0.000126416
0.00666216
-0.000399534
0.00208904
-0.000187646
0.00654415
-0.000620581
0.00164967
0.00599742
-0.00374808
0.00253236
0.00552605
0.00626756
0.00105025
0.0117675
0.0171831
-0.0106973
0.0152388
-0.0101428
0.0233369
0.0239507
-0.0295183
0.0433056
0.0144184
-0.0437032
0.0506434
0.0128589
-0.0620435
0.0465868
0.0261914
-0.0781318
0.0296785
0.027229
-0.0892119
0.00788295
0.0200538
-0.0948387
-0.00850048
0.014986
-0.0983085
-0.0208061
0.0146363
-0.100514
-0.0294042
0.0148672
-0.100718
-0.0351884
0.0142181
-0.0973559
-0.0395644
0.0117739
-0.0885006
-0.0439691
0.00655743
-0.0318233
-0.0405163
-0.0447962
-0.0112303
-0.0183864
-0.0104239
-0.019125
0.00262538
-0.0153432
-0.00710839
0.00132648
-0.00573831
0.000264463
-0.00941407
0.000856969
-0.00380736
0.00166752
-0.00749475
0.00100219
-0.00882149
0.0158014
-0.000173322
-0.00796835
0.0158156
-0.00183395
-0.00616461
0.0139132
-0.00215918
-0.00210685
0.0197841
0.00573771
0.0205188
0.106878
-0.0446994
-0.00944969
0.00402097
0.0306763
0.00550035
0.00762807
0.0105003
-0.000246211
0.00843616
0.0142599
0.000668875
0.015113
0.00192613
-0.0162599
-0.0197118
-0.0126718
0.0307563
-0.0202166
0.0462284
-0.0178278
-0.0511947
0.106763
-0.024487
-0.0522659
0.121714
-0.0149298
-0.104299
-0.0445422
0.125549
-0.0301382
-0.0751492
-0.0286607
-0.0175054
-0.0288099
-0.0143742
-0.00297053
-0.0402432
0.0170006
-0.00216641
-0.0241232
-0.00527174
0.0279197
-0.00548341
-0.00856564
0.0163318
-0.00788353
-0.00933046
0.0144058
-0.00620419
-0.00948062
-0.0118183
-0.00276338
0.0501034
-0.02122
-0.0125594
-0.00613131
0.00061608
-0.0119024
-0.00851899
-0.000102975
-0.00873222
-0.00718702
-0.00155898
-0.00495667
-0.0044668
-0.00157483
9.30219e-06
-0.000777809
-0.00380864
-0.000445726
-0.00984046
2.42854e-05
0.000447442
0.00126915
-0.00171654
0.00136699
-0.00209369
0.00336138
0.00174626
-0.00266384
0.00436626
0.00205681
-0.00198857
0.00370706
0.00175085
0.00266359
0.000705608
0.00452837
0.00262589
-0.00106665
0.00473519
0.00382953
-0.000405054
0.0045932
0.00491108
-0.000483873
0.00482559
-0.000753087
-0.00641293
0.0108607
-0.0041994
-0.00623177
0.0108846
-0.00626637
-0.00535553
0.0100401
-0.00719231
0.00900121
-0.0077977
0.00658648
0.0118575
-0.00567377
0.00802114
0.0135816
-0.00507488
0.00821695
0.0151014
-0.00451911
0.0149081
-0.00312411
-0.00922355
0.0168468
-0.00133441
-0.00933744
0.0178523
-0.00274312
-0.00966937
0.0177494
-0.00394023
0.0104669
-0.00401538
0.012862
-0.000418558
0.0102429
-0.00167527
0.00751389
0.023268
-0.0029029
0.00737583
0.0182879
-0.000387642
0.0172822
0.000730332
-0.00887912
0.0484418
-0.025176
-0.00521825
0.0421031
-0.0276207
0.044963
-0.0282685
0.0294747
0.117566
-0.0575484
0.127394
-0.0450234
0.0508705
0.134825
-0.0387483
-0.0205989
0.0555064
0.134721
-0.0149241
0.0521023
0.12995
-0.00594722
0.115128
-0.00127743
-0.0502792
0.119582
0.00523978
-0.0560195
0.134924
-0.000317081
-0.0535543
0.140649
-0.0094759
-0.0448921
-0.0146327
0.139775
-0.128113
-0.0233368
0.133518
-0.0293414
-0.0128542
-0.0511933
-0.114282
0.0286536
0.119271
-0.105984
-0.0668547
0.118318
-0.0383552
-0.049517
-0.0681423
-0.00473471
0.0138836
-0.0135386
-0.0193216
-0.0195326
-0.00996511
-0.00601988
-0.0131153
-0.00290024
-0.0140014
-0.00407807
0.00257809
-0.014375
-0.00819608
0.00317931
-0.0127373
-0.0106308
0.00253625
-0.0097954
-0.0145219
0.00286556
-0.0107598
0.00114723
-0.0137609
0.0160438
-0.0137547
0.000615759
-0.00950501
-6.65946e-05
-0.015366
0.0144665
-0.00157763
-0.016763
0.0116475
-0.00271282
-0.0180427
0.00965764
-0.00145904
0.0149477
-0.0254678
0.0110878
0.0252023
0.0187262
0.0207328
-0.0498499
0.0188477
0.0161766
0.0178355
-0.0277891
0.0305554
0.01606
0.0191803
-0.0470838
0.0213571
0.0134367
-0.0227732
0.0184064
0.0392746
-0.0422382
0.00894023
0.0152798
0.02011
0.0463149
-0.0101019
-0.0171499
0.0254043
0.0300694
-0.0202251
-0.0152669
-0.0172106
-0.0205773
0.0099278
-0.0182412
0.00381435
-0.012794
-0.0179248
0.00437123
-0.0172167
-0.0123099
0.00330817
-0.0161079
-0.0141239
0.00228583
-0.0167951
0.00210213
-0.0176493
-0.0170732
0.0174372
0.000373682
-0.0162838
-0.00077176
-0.0183861
0.0156287
-0.00199099
0.013001
-0.00309309
0.0175639
0.0143194
-0.00279281
0.0174192
-0.00140858
0.0164973
0.0182277
-0.0170435
-0.000367396
0.0183711
0.00133238
-0.0151372
0.00285679
-0.0154975
0.00100587
0.0174858
-0.0154005
-0.00120609
0.0144694
-0.00214964
-0.00752468
-0.0160115
0.0235747
0.0168722
-0.00150272
-0.0143664
-0.0171238
-0.0261823
-0.0242479
-0.00255284
-0.105241
0.103728
0.00754446
0.00121478
0.0182399
0.0127135
0.0239115
0.0146954
-0.0202496
0.0176584
-0.00845831
0.0179692
-0.0122405
-0.00477141
0.00236072
-0.00051102
-0.00555107
0.00484836
-0.00582333
-0.00170673
-0.00210732
-0.00217559
-0.00379038
0.0131623
-0.000990521
-0.00316273
-0.00140248
-0.00338239
0.016373
-0.0200675
-0.011563
0.0154694
0.00688055
-0.0116043
0.0175849
0.00910678
-0.0132654
0.0201908
0.0089258
-0.0141997
0.022933
0.00890738
0.0301398
0.0119837
0.00987961
0.0134609
0.0124838
0.00947661
0.0132528
0.00990396
0.00784591
0.011908
0.00974267
0.00607412
0.0107981
0.00840454
0.0100026
0.00699271
-0.00219639
0.00341891
-0.00260753
0.00415809
-0.00327158
0.00475387
-0.00390724
0.00539638
0.00650505
0.00166203
0.00289933
0.00142199
0.000511872
0.000410519
0.00139226
-0.000143213
0.00198318
-0.00154814
-2.74775e-05
-0.000929774
0.00194496
0.000964558
-0.000332699
0.000792386
-0.000434531
0.00182633
-0.00111388
0.00121407
-0.000537825
0.000311685
-6.04074e-06
0.00202112
-0.00174011
2.73824e-05
0.00379271
-0.000561936
-0.00358776
0.0111379
-0.00637558
0.00357257
-0.0179985
0.00335731
0.0170387
0.00388172
-0.0181115
0.0204105
0.00713753
0.00293271
0.00676416
-0.0170585
0.0208284
0.000286747
0.00596388
0.0197778
-0.0148378
-0.0136307
0.0141789
0.00504048
0.0109743
-0.00738805
0.0172056
-0.00765605
0.0172653
0.010916
-0.000402373
0.0199675
0.00717618
0.00334318
-0.00114817
0.00152938
-0.00351257
0.000377066
-0.00229153
0.0125895
0.0013552
-0.0023359
0.00079909
0.000617984
-0.000777334
0.00151271
-0.000568039
0.00156139
-0.000391512
-0.00124545
0.00106765
-0.00206976
0.000899431
-0.00021131
-0.000226605
-0.00163333
-0.000457135
-0.00209207
0.000247267
-0.00185456
0.00139924
-0.00137998
0.00039261
0.00011224
-0.00188609
0.000170299
-0.00141244
-0.000661998
-0.00126171
-0.00240618
0.00114909
0.00124388
0.000231464
0.00047895
-0.00129358
0.000448143
-0.00168416
-0.000480175
0.000534826
0.000391976
0.00010878
7.06367e-05
-0.000660943
0.0010447
0.000306225
0.000315782
-0.000888262
-0.00161283
0.00281348
-0.000775545
0.000276608
0.000178258
-0.000885574
-0.0011313
0.00380171
0.00137792
-0.000359099
-0.00302178
0.0122641
-0.00264253
-0.00129216
-0.00174721
1.35213e-05
-0.000829512
0.000262418
-0.000727997
0.000328683
-3.97011e-05
-0.00112086
-4.37313e-05
0.00188063
-0.000306789
-0.0016209
-0.00132081
0.00321065
-0.000893376
-0.00016816
-0.00124241
0.00111806
0.00204045
0.0003427
0.000323828
0.000920018
-0.000128357
0.00191306
-0.00142195
-0.000170639
-0.00136943
0.00319106
8.70659e-05
-0.000654395
0.000201804
0.00285826
-0.00405105
0.0132944
-0.00113896
-0.0180392
0.000755849
0.00704736
0.0245271
-0.0164853
0.0218844
0.00640872
-0.0177678
0.0225704
-0.00209649
-0.0148825
-0.00439177
-0.0206804
-0.0218514
-0.00631724
-0.0218836
-0.00573663
0.0151532
-0.00261323
0.0197782
0.0317711
0.0374369
-0.0235975
-0.10105
0.0665521
-0.0967354
0.0700548
-0.107805
0.0712814
-0.0171073
-0.11005
0.0687169
-0.0248571
-0.106606
0.0674919
-0.0296544
-0.0981517
0.0663544
-0.0331846
-0.0860961
0.063717
-0.0357937
-0.0687345
0.0578036
-0.0379434
-0.049033
0.0534552
-0.037685
-0.0389649
0.0427829
-0.031802
0.00365092
-0.0298705
0.0159274
0.0325512
-0.0454951
0.0139856
0.0444397
-0.0431654
-0.00727993
0.0474752
-0.026621
-0.0343794
0.0266608
-0.0511314
-0.0128443
0.0291291
-0.0597441
-0.0245188
0.0326287
-0.062004
-0.031096
0.0328296
-0.0555251
-0.0383718
0.0313667
-0.0474414
-0.0354761
0.0268895
-0.0300397
-0.0337214
0.0158525
0.00342137
-0.0338998
0.0203905
0.0442872
-0.0618931
0.0431947
0.0553805
-0.0789509
0.0684092
0.0546417
-0.0806761
0.0883877
0.0522302
-0.0730333
0.0995797
0.0476671
-0.0597158
0.10069
0.0399852
-0.0419174
0.0954559
0.0340479
-0.0296246
0.0837738
0.0306626
-0.0197008
0.0472261
0.0377201
-0.00174599
0.0227109
0.0229733
0.00134556
0.0194891
0.00391018
-0.000793148
0.0180963
0.000488317
0.000801677
0.0149498
0.000138769
0.00289742
0.00866789
1.28574e-05
0.00617005
0.00913526
-0.000554994
0.00723946
0.00342122
-0.00159606
0.00462349
0.00389803
-0.00132918
0.00484546
0.00168067
-0.00196545
0.00586289
0.00187384
-0.00297014
0.00563092
0.00305582
-0.00290166
0.00454312
0.00334625
-0.00232801
0.00360627
0.00272514
-0.00184291
0.00596089
0.00166519
-0.00409684
0.0130736
0.00144183
-0.0087731
-0.0129636
0.0305684
-0.00514934
-0.0440702
0.02594
0.00440757
-0.0594203
0.0121242
0.00239199
-0.0651377
0.000448999
0.00439544
-0.0692892
-0.0141557
0.0174027
-0.074303
-0.0294896
0.0335812
-0.0754033
-0.0444832
0.0446464
-0.0726271
-0.0581692
0.0544479
-0.0625573
-0.0705724
0.0595506
-0.0448421
-0.0805326
0.0618602
-0.0174297
-0.0870646
0.058689
0.0164294
-0.0831871
0.0483672
0.0318697
-0.0575325
0.0411308
0.0308403
-0.0442765
0.0443835
0.0231816
-0.0347219
0.0414773
0.0091039
-0.0257589
0.0390094
-0.00109689
-0.0229565
0.0323555
-0.0347501
0.0329039
-0.0501014
-0.0192868
0.0338404
-0.0572215
-0.034063
0.0403724
-0.0576381
-0.0489178
0.0484598
-0.0491545
-0.0640046
0.0546458
-0.0252606
-0.081688
0.0568954
0.00482584
-0.0833487
0.0523863
0.0102152
-0.0474647
0.04121
-0.00738656
-0.0264911
0.0432831
-0.0209262
-0.027948
0.0407018
-0.00480901
-0.0600843
0.0432289
-0.0519759
0.04284
-0.0147809
-0.0686672
0.0016753
0.0185272
-0.0544813
-0.0397958
0.0284224
-0.038867
0.000148457
0.031996
-0.0477833
0.0168244
0.030235
-0.0779517
0.0313238
0.0407995
-0.126704
0.0318524
0.0540506
-0.123295
0.0274106
0.0566204
-0.0959312
0.0284256
0.051603
-0.0723868
0.0275808
0.0410838
-0.051407
0.0270032
-0.0298177
0.0278355
-0.0365403
-0.0467105
0.0268032
-0.0385982
-0.0562083
0.0226149
-0.0330567
-0.0673178
0.0165295
-0.00468372
-0.0829925
-0.00391089
0.0356571
-0.118472
-0.00606191
0.0610671
-0.124599
0.0111183
0.0758683
-0.118058
0.0217227
0.0828055
-0.103601
0.0250952
0.0820344
-0.0850441
0.0266562
0.0780193
-0.0644216
0.0229712
0.0703708
-0.0428877
0.0200747
0.0641062
-0.0211742
0.0123249
0.0566697
1.29655e-05
0.00693104
0.0423595
0.0166777
0.00883009
0.0163664
0.0361445
0.0148724
-0.0101566
-0.00132958
0.0472841
0.010151
0.00818489
-0.00380227
-0.00877961
-0.00591353
0.0146266
-0.00338439
-0.00452346
0.0103475
-0.00293064
0.0090113
-0.00192974
0.0130783
-0.00128557
-0.00228027
0.000733666
-0.00670468
0.0269248
0.00170438
-0.00894682
-0.00774447
-0.00174487
0.00144944
-0.0079881
-0.00408401
0.00132183
-0.00671786
-0.0052323
0.000495329
-0.00499817
-0.00585846
0.00025506
0.00242503
-0.00417687
-0.00057545
0.0051913
-0.00112436
-0.00219872
-0.00030784
-0.000515782
-0.00137903
-0.000765694
-0.000668546
-0.000561438
-0.000605894
0.000399071
-0.00118556
-0.0035014
0.0133057
-0.00552173
-0.0120404
0.00295795
0.0225613
-0.00797628
-0.0102239
0.0617814
-0.0313041
-0.0297942
0.0157463
0.0589475
-0.0222615
0.0285952
0.0423508
-0.0162519
0.0343192
0.00406949