/*--------------------------------*- C++ -*----------------------------------*\
| =========                 |                                                 |
| \\      /  F ield         | OpenFOAM: The Open Source CFD Toolbox           |
|  \\    /   O peration     | Version:  v2012                                 |
|   \\  /    A nd           | Website:  www.openfoam.com                      |
|    \\/     M anipulation  |                                                 |
\*---------------------------------------------------------------------------*/
FoamFile
{
    version     2.0;
    format      ascii;
    class       volScalarField;
    location    "800";
    object      epsilon;
}
// * * * * * * * * * * * * * * * * * * * * * * * * * * * * * * * * * * * * * //

dimensions      [0 2 -3 0 0 0 0];


internalField   nonuniform List<scalar> 
18258
(
0.0239744
0.0122325
0.00910137
0.00715234
0.0126375
0.0125092
0.0129703
0.0173024
0.0241073
0.0369413
0.0535159
0.0481277
0.0435236
0.045282
0.0474582
0.0450262
0.0350974
0.0303527
0.0399551
0.0666556
0.0607867
0.0496667
0.0607984
0.051366
0.0655609
0.0827849
0.0635043
0.0570598
0.0511681
0.0481261
0.0416519
0.0239757
0.0341473
0.0526423
0.0720363
0.0787954
0.0845009
0.0892997
0.0945126
0.0966857
0.0969761
0.0917859
0.082614
0.0675237
0.0495476
0.0380081
0.0296256
0.0317261
0.0443397
0.0449763
0.0556621
0.0855931
0.108078
0.0810115
0.0518517
0.0825913
0.112572
0.144342
0.170846
0.193279
0.200982
0.197549
0.186015
0.169286
0.147846
0.122867
0.101888
0.0849785
0.0672002
0.0574075
0.0464626
0.0385536
0.0329888
0.0293301
0.0271299
0.0253999
0.0242322
0.0251661
0.0250533
0.0178671
0.0140561
0.0132062
0.00944916
0.00785451
0.00817381
0.007777
0.00807926
0.00713389
0.00610739
0.00529855
0.00448817
0.00652785
0.00701901
0.00725912
0.00727753
0.00780346
0.00806744
0.00780514
0.00790233
0.00723678
0.00736482
0.0118543
0.013657
0.0173349
0.0154546
0.0106702
0.00911829
0.0101577
0.0107831
0.0133861
0.0125761
0.0133623
0.0118547
0.0108207
0.00914346
0.00888579
0.00912688
0.00970185
0.0101111
0.0117149
0.0115414
0.0106987
0.011836
0.0130633
0.0127922
0.0122457
0.0116634
0.0143135
0.0115138
0.0122008
0.0137033
0.0220785
0.0216032
0.0260919
0.0256131
0.0260613
0.0262465
0.0316424
0.0317638
0.0321349
0.0324545
0.0341441
0.0572439
0.0510211
0.0499176
0.0497239
0.0430346
0.0425641
0.0418642
0.0426795
0.0362038
0.0348527
0.0315981
0.0312303
0.0348408
0.0439975
0.0615088
0.0887994
0.122782
0.15916
0.189462
0.210481
0.232227
0.237678
0.251571
0.256282
0.257171
0.251468
0.243039
0.233559
0.220701
0.202143
0.18926
0.148766
0.105285
0.0592022
0.0785772
0.0906144
0.100333
0.102189
0.103308
0.0992053
0.0929439
0.0817677
0.0662301
0.0430266
0.0486491
0.065875
0.0681722
0.0689024
0.0546604
0.0526139
0.0488712
0.0488673
0.0641999
0.0736451
0.061903
0.0855643
0.100531
0.0879222
0.0637529
0.0976249
0.143348
0.0806915
0.0686108
0.053149
0.0521756
0.0441127
0.0371473
0.0627745
0.0937842
0.128887
0.150052
0.171886
0.189507
0.202876
0.217044
0.188698
0.171473
0.115425
0.202315
0.153498
0.0775625
0.0573364
0.055954
0.044686
0.0506234
0.0558696
0.0516927
0.0396299
0.0275612
0.0250315
0.046255
0.0644345
0.0778479
0.0619914
0.0788637
0.0888243
0.0961099
0.101406
0.128652
0.0946953
0.105975
0.0758659
0.10304
0.0731325
0.0471622
0.052634
0.100552
0.160465
0.220146
0.257582
0.146446
0.0740703
0.0550156
0.0552265
0.0532273
0.0480597
0.0596842
0.106205
0.0718965
0.0466267
0.0404942
0.047883
0.0411547
0.0305888
0.0320543
0.0397003
0.0549885
0.0690702
0.0819409
0.125605
0.12212
0.147405
0.154677
0.130392
0.126122
0.0815472
0.0836054
0.123142
0.0918858
0.0743229
0.104421
0.147716
0.202045
0.24839
0.288797
0.314649
0.304084
0.275116
0.174019
0.0762177
0.0229494
0.017823
0.016857
0.0173317
0.0105326
0.00631158
0.0058679
0.00669048
0.00703236
0.00591993
0.00544642
0.00543626
0.00578847
0.0101876
0.00875356
0.0108332
0.0131267
0.0156777
0.0187248
0.0194541
0.0129083
0.00873737
0.0081992
0.00813468
0.0080657
0.00803633
0.00804819
0.00808897
0.00810537
0.00807355
0.00799531
0.00785852
0.00772324
0.0076662
0.00830352
0.0111982
0.015365
0.0148547
0.0135634
0.0122062
0.0110429
0.00871138
0.0151605
0.0128525
0.0109436
0.0134065
0.0165164
0.020875
0.0245292
0.0176944
0.0141664
0.0128216
0.0126965
0.0125833
0.0126303
0.0125097
0.0125772
0.0123813
0.0129829
0.0135882
0.0169865
0.0190121
0.0211886
0.0226844
0.023262
0.0239758
0.0211421
0.0229571
0.0227298
0.023512
0.0233283
0.0226426
0.0207291
0.0189425
0.0177244
0.0191429
0.0237163
0.0323825
0.0267723
0.0207797
0.0168152
0.0137544
0.0150214
0.0166972
0.0168727
0.0158846
0.0156516
0.0154426
0.0139232
0.0131405
0.011124
0.0105119
0.0100438
0.0101911
0.0143678
0.0135216
0.0137312
0.0144685
0.0155751
0.014732
0.0151649
0.0143119
0.0145598
0.0149815
0.0170431
0.018606
0.0178454
0.0165225
0.0160255
0.0137553
0.0158655
0.0157264
0.0170476
0.0186354
0.0191291
0.0190644
0.0184263
0.0168307
0.0187242
0.0220971
0.0257537
0.024751
0.0244239
0.0204735
0.0192683
0.0202382
0.0215081
0.0224125
0.0224846
0.0223167
0.0224069
0.0264131
0.0260759
0.0248746
0.0227993
0.0203451
0.0177012
0.0152359
0.0167098
0.0181908
0.0195811
0.0208477
0.0206066
0.0190831
0.0177256
0.0164953
0.0150021
0.0147103
0.0161635
0.0173845
0.0188136
0.0205236
0.0205968
0.0188875
0.0173948
0.016114
0.0146406
0.0145898
0.0160896
0.0173864
0.0188014
0.0202826
0.0196512
0.0184984
0.0172495
0.0160083
0.0145563
0.0146226
0.0159441
0.017012
0.0180943
0.0190433
0.0199001
0.0179373
0.0170276
0.0171219
0.0161346
0.0193225
0.0185641
0.0195067
0.0180525
0.016826
0.0178319
0.0210277
0.0240662
0.0246194
0.0243398
0.020202
0.0206581
0.0206343
0.0192132
0.0159844
0.0153876
0.0181668
0.0209132
0.0213777
0.0200635
0.0169502
0.0133042
0.014329
0.017501
0.0198193
0.0185567
0.018395
0.016977
0.0158971
0.0161972
0.0139157
0.0166547
0.0267531
0.0242136
0.0221985
0.0197316
0.0157155
0.0106372
0.0115383
0.0127003
0.0131168
0.0105996
0.00793425
0.0071239
0.00692996
0.00677163
0.00655337
0.00618598
0.00562991
0.00538387
0.0105688
0.0255379
0.0363818
0.0357884
0.0241019
0.0207092
0.019957
0.0183653
0.00874757
0.00817263
0.00837758
0.0103808
0.00823073
0.00825145
0.0142872
0.00994783
0.0136881
0.0106755
0.0146408
0.0229191
0.0216454
0.0143
0.00800818
0.00690633
0.0073975
0.00767981
0.00788383
0.00808105
0.0083156
0.00870348
0.0100296
0.0157732
0.0203617
0.0178148
0.0168259
0.015347
0.0188951
0.0213771
0.0233135
0.0260763
0.0161168
0.0118047
0.016658
0.0273061
0.024794
0.0233395
0.0171918
0.0177318
0.0171554
0.0110305
0.0106829
0.0105986
0.0114121
0.0128038
0.0147302
0.0158827
0.0166302
0.0169608
0.0178743
0.0231413
0.021651
0.0211329
0.0173435
0.0134365
0.0154374
0.051708
0.0195926
0.0207062
0.0189181
0.0191852
0.0204727
0.0151597
0.0135068
0.0129367
0.0146357
0.0215313
0.0215476
0.0214136
0.0182778
0.0174936
0.0209272
0.0220154
0.0224095
0.0217913
0.0213545
0.0194904
0.0167051
0.0181375
0.0196567
0.0208534
0.0228618
0.0231996
0.0179806
0.0172568
0.0158603
0.010559
0.0113024
0.00973758
0.00970751
0.0096745
0.00940167
0.00895086
0.0092385
0.00935496
0.0093527
0.00900591
0.00930394
0.00835205
0.00868871
0.00978149
0.0152334
0.0147988
0.0175985
0.0195102
0.0167529
0.0155926
0.0142286
0.0132045
0.0154605
0.0142976
0.0168758
0.0212329
0.0265302
0.0191535
0.0181567
0.0179327
0.0175268
0.0173684
0.0174209
0.0167256
0.0157211
0.0151523
0.0236129
0.0213093
0.0181823
0.0172319
0.0157972
0.0180523
0.0174945
0.0213981
0.0268892
0.0270939
0.0215659
0.0216438
0.0189834
0.0200903
0.0222833
0.0271301
0.027054
0.0144561
0.00961177
0.0154593
0.0158003
0.0184123
0.0170263
0.0185561
0.0197375
0.0204665
0.0203246
0.0177206
0.0188989
0.0196884
0.020676
0.0186189
0.016612
0.0174029
0.0161787
0.0152769
0.0147746
0.0126973
0.0129455
0.0139203
0.0153742
0.0163173
0.0178153
0.0194762
0.0195035
0.0201751
0.0197701
0.0191664
0.0252753
0.0240318
0.025574
0.028293
0.0224885
0.0178428
0.0147121
0.0150269
0.014793
0.0147011
0.015441
0.0168019
0.0151779
0.0145584
0.0170788
0.0194474
0.0247272
0.0331241
0.0288593
0.0262687
0.0332765
0.031427
0.0383046
0.0287217
0.0281873
0.0208925
0.0263283
0.0305434
0.0392741
0.0255599
0.0209936
0.0224472
0.0255661
0.0348292
0.0328475
0.0332263
0.0412629
0.0400246
0.0362442
0.0312127
0.0354246
0.0212899
0.0302375
0.0322718
0.0268466
0.0257496
0.0308037
0.0311279
0.0330612
0.0284028
0.0268139
0.0179479
0.0275036
0.0314505
0.0331474
0.0278743
0.0205507
0.0280646
0.0205891
0.0192237
0.0203367
0.0138011
0.0127456
0.0148221
0.0138912
0.011214
0.0121647
0.0111842
0.0111725
0.0112557
0.0113734
0.0115092
0.0117697
0.0117406
0.0127713
0.0133658
0.0126643
0.0115924
0.0122405
0.0125832
0.0161042
0.0181919
0.0204536
0.0220403
0.0228785
0.0240296
0.0227613
0.0248576
0.0237595
0.0252582
0.0249756
0.0239112
0.0213881
0.0187439
0.0163374
0.0168266
0.0204756
0.0269037
0.0220261
0.0170472
0.0137793
0.0114076
0.0126979
0.0158974
0.00862926
0.00787967
0.00758493
0.00740493
0.00724537
0.00640271
0.00573528
0.0086115
0.0130627
0.0163381
0.0203694
0.0259472
0.03208
0.0374477
0.0415177
0.0444117
0.046186
0.0466244
0.0437133
0.0332089
0.0285495
0.0245348
0.0203263
0.0166125
0.0168614
0.0245143
0.0321244
0.0396361
0.0462629
0.0512177
0.0493113
0.0331468
0.0301818
0.046546
0.0781495
0.0739095
0.0970187
0.110843
0.0630345
0.0465939
0.0454468
0.0620946
0.0647277
0.0566534
0.0466372
0.0363762
0.0262236
0.0306022
0.0349282
0.0390893
0.0434995
0.0575401
0.0605993
0.0593919
0.0568227
0.0533928
0.0485668
0.0414492
0.0328851
0.0249617
0.0190588
0.0144434
0.00939862
0.00722525
0.00803269
0.00735375
0.0104573
0.00923536
0.00827918
0.00796611
0.00821428
0.00808142
0.00825156
0.00730297
0.00656759
0.0103747
0.00956553
0.00953473
0.0101855
0.0134475
0.0103545
0.0076643
0.00722973
0.00715823
0.00737046
0.0157857
0.024975
0.0304168
0.0350479
0.0385777
0.0371228
0.0336081
0.0278748
0.0218786
0.0197327
0.0168099
0.014376
0.0132332
0.014575
0.0120609
0.00611073
0.00514856
0.00567449
0.00554823
0.00508214
0.00611254
0.00680734
0.00742565
0.0078534
0.00816738
0.00823006
0.00816996
0.008081
0.00803794
0.00801892
0.00799146
0.00792742
0.00783259
0.00769088
0.00755484
0.00749125
0.00808539
0.0106969
0.0146126
0.0143752
0.0132631
0.0121541
0.0112929
0.0095678
0.0154032
0.0130808
0.0109682
0.0101465
0.0100069
0.0103094
0.0112861
0.012936
0.0138614
0.0158691
0.0159026
0.0157893
0.0160691
0.0158547
0.0131762
0.0149461
0.0177083
0.0185429
0.0191704
0.0189525
0.0174235
0.0194343
0.0205647
0.0199925
0.0193717
0.0164666
0.0191726
0.0232086
0.0236629
0.0239623
0.0213113
0.018489
0.0216417
0.0227935
0.0223626
0.0232297
0.0213729
0.0220897
0.0277737
0.0141836
0.0128428
0.00771658
0.00870541
0.00888867
0.00854182
0.00825926
0.00860151
0.00885909
0.00867054
0.00934048
0.00964674
0.00898016
0.0114635
0.0105453
0.0101479
0.00952217
0.0100916
0.0107986
0.011141
0.0122033
0.0195701
0.020018
0.0182367
0.020686
0.0212816
0.0180263
0.0204531
0.0213193
0.0215711
0.0219133
0.0234619
0.0221021
0.0244398
0.0236164
0.0223161
0.0215443
0.038261
0.0252556
0.0166437
0.0153535
0.0150014
0.0150723
0.0169865
0.012807
0.0143482
0.0101496
0.00878939
0.00841655
0.00811603
0.00819693
0.0107875
0.0167183
0.0251143
0.0280407
0.026887
0.0234952
0.0179482
0.0133869
0.0130993
0.0118916
0.0111393
0.011043
0.00746402
0.00512571
0.0064394
0.00655477
0.00714126
0.0075582
0.00789893
0.00815635
0.00829952
0.00837451
0.00845949
0.00858153
0.00871359
0.00882727
0.00891646
0.00898078
0.00904805
0.00917278
0.00948413
0.0106941
0.0153419
0.019726
0.0185976
0.0171324
0.0158265
0.0165909
0.0173426
0.0180566
0.0222384
0.019135
0.0220231
0.0207247
0.0197435
0.0183278
0.0190697
0.0208576
0.0166652
0.0166085
0.0113611
0.00991749
0.00953438
0.00931416
0.00914095
0.00896864
0.00879577
0.00864137
0.00849593
0.00836949
0.00826992
0.00817833
0.00803283
0.00778081
0.00737805
0.00693857
0.00608513
0.00670855
0.00728601
0.00832199
0.0095169
0.0100924
0.00951322
0.00873168
0.00839702
0.00853702
0.00872724
0.00893552
0.00917195
0.00949678
0.00997385
0.0109569
0.0116247
0.0163006
0.017048
0.0202632
0.0200626
0.01797
0.017323
0.0189285
0.0174389
0.0126756
0.0173944
0.0169237
0.0211874
0.0157404
0.014856
0.0152831
0.0157698
0.0184
0.0173055
0.0158165
0.0157787
0.0126706
0.0142568
0.0162688
0.0177462
0.0279639
0.0274224
0.0344729
0.0343816
0.0592722
0.0564306
0.0497743
0.0537817
0.02377
0.0464361
0.0542831
0.0495012
0.0429774
0.0273995
0.0437584
0.0665657
0.0963526
0.069517
0.0568575
0.105564
0.0767431
0.0374135
0.0266221
0.0150302
0.0151114
0.0250757
0.0291153
0.0241387
0.0232974
0.033457
0.0348206
0.0280567
0.0287163
0.0310916
0.0300215
0.0324886
0.0281303
0.0274165
0.0155567
0.0127725
0.013812
0.015556
0.0165752
0.0160689
0.0169102
0.0175774
0.0161261
0.0150904
0.0145234
0.0124523
0.0131881
0.0161748
0.0203941
0.0239055
0.0172675
0.0138775
0.0125804
0.0123854
0.0121565
0.0120339
0.0117086
0.0115172
0.0110431
0.0112453
0.00978853
0.00980651
0.0103503
0.0105205
0.010731
0.0108946
0.0110227
0.0111374
0.0119974
0.0187646
0.0259515
0.020764
0.0164535
0.0139693
0.0151609
0.0170886
0.0209962
0.0264227
0.0178481
0.0176723
0.0115277
0.010754
0.0105419
0.0103641
0.0102068
0.0101036
0.0101601
0.0101603
0.0119
0.0115946
0.0136064
0.0146721
0.0121206
0.0116873
0.011213
0.0109238
0.0107637
0.010677
0.0107646
0.0116252
0.0114589
0.0105303
0.0104377
0.0105599
0.0107757
0.0111013
0.0115508
0.0120572
0.0129767
0.0127603
0.0112339
0.0112144
0.0105562
0.0102517
0.0100232
0.0100063
0.0100604
0.0102062
0.010432
0.0113378
0.0171366
0.0173187
0.0266473
0.0266232
0.0211608
0.0176805
0.0155217
0.0142666
0.0135344
0.0351218
0.0308424
0.048743
0.0389556
0.031214
0.0506175
0.071942
0.0559012
0.0909041
0.0982379
0.0724554
0.0655268
0.0209109
0.0159389
0.0154336
0.0169262
0.0186238
0.0212665
0.0218579
0.0266828
0.0287849
0.017196
0.0165156
0.0155948
0.0248848
0.0230521
0.0196765
0.0177869
0.0163967
0.0189401
0.0207405
0.0149848
0.0150356
0.00968922
0.010697
0.0104382
0.0100975
0.00997645
0.00989725
0.00992941
0.0100213
0.0103029
0.010796
0.0111786
0.011331
0.0116314
0.0114121
0.0111426
0.0108256
0.0106378
0.0104487
0.0102931
0.0101724
0.0102052
0.0105209
0.0106652
0.00935813
0.00970434
0.00981313
0.00982441
0.00985523
0.00981828
0.00967807
0.00946735
0.00926262
0.00905051
0.00908974
0.00991159
0.0100703
0.0101336
0.00998201
0.00986574
0.00985992
0.00979803
0.00978729
0.00978242
0.00966103
0.00934848
0.00862205
0.00847107
0.00907621
0.00942071
0.00959798
0.00967713
0.00965879
0.00960132
0.00936594
0.00918807
0.00897271
0.00862318
0.00814891
0.00672594
0.00701048
0.0073722
0.00787853
0.00840024
0.00885761
0.00916545
0.00932842
0.00942166
0.00934068
0.00904952
0.00852195
0.00846702
0.00885676
0.00903432
0.00898914
0.00872053
0.00830124
0.00773054
0.00702379
0.00634244
0.00583096
0.00560657
0.00522621
0.00652967
0.00713584
0.00769328
0.0082086
0.0086967
0.00922025
0.00942285
0.00947996
0.00946235
0.00930785
0.00897749
0.00844868
0.00845181
0.00892904
0.00923915
0.00936277
0.00933942
0.00915703
0.00875049
0.00783419
0.00702176
0.00636388
0.00577199
0.00517582
0.00515416
0.0054099
0.00514809
0.00532173
0.00588585
0.00668175
0.00745998
0.00807774
0.00851314
0.0087036
0.0086575
0.00840874
0.00830906
0.00842775
0.00836422
0.00805206
0.00747871
0.00673109
0.00593811
0.00532361
0.00516918
0.00551538
0.00584881
0.00553578
0.0043607
0.00490738
0.00547067
0.00606609
0.00698546
0.00817158
0.0087574
0.00907642
0.0092367
0.0091714
0.00888212
0.00844128
0.00841836
0.00884328
0.00912616
0.00917468
0.00903295
0.00875825
0.00827809
0.00684322
0.00536908
0.0047365
0.00438101
0.00394829
0.00561144
0.0059793
0.00555439
0.00527636
0.00570997
0.00623865
0.0068505
0.00735746
0.00778516
0.00809511
0.00820431
0.00817881
0.00804496
0.00804222
0.00798174
0.00777569
0.00753589
0.00733786
0.00691577
0.00647009
0.0059289
0.00648558
0.00678067
0.00635041
0.00466074
0.00494741
0.00541673
0.00571238
0.00717811
0.00860273
0.00898159
0.00910864
0.009238
0.00916143
0.00883868
0.00839366
0.0083746
0.00890256
0.00931218
0.00946215
0.00957751
0.0097214
0.0098514
0.00870838
0.00678937
0.00629942
0.00526669
0.00481391
0.00666979
0.00709369
0.00688245
0.00661424
0.00757246
0.00796675
0.00810296
0.00810785
0.00811094
0.00807974
0.00799148
0.00792786
0.00781305
0.0082482
0.00888309
0.00879127
0.00870295
0.00855218
0.00819667
0.00774584
0.00721385
0.00790042
0.0084734
0.00818781
0.00595772
0.0063301
0.0072633
0.00747991
0.00903695
0.0102126
0.0105244
0.0104786
0.0103349
0.0102889
0.0092672
0.00833575
0.008183
0.00954112
0.0154846
0.0153126
0.0153236
0.015237
0.0146643
0.0144876
0.0139206
0.0136582
0.0129657
0.0125159
0.0118463
0.0138287
0.0174823
0.0195254
0.0218656
0.0243289
0.0230363
0.0186417
0.0164787
0.0101405
0.00799529
0.00689124
0.00596921
0.00527269
0.00506552
0.00746125
0.00927223
0.0113827
0.0132926
0.0136502
0.0160572
0.0199735
0.0304285
0.0483956
0.0408595
0.0385717
0.0387795
0.0960572
2.54375
2.72248
2.48577
2.88855
3.33749
0.386455
0.150885
0.282314
0.302134
0.339604
0.317322
0.285755
0.260826
0.268083
0.257157
0.266321
0.247892
0.256938
0.224553
0.2314
0.235797
0.674948
1.02847
1.2434
1.73726
1.74214
1.96486
1.9163
1.93506
1.78665
1.9009
1.65201
1.36949
1.2934
1.221
1.31011
1.42318
1.23552
1.11977
1.00548
0.914853
0.782672
0.992394
0.752978
0.711632
0.710159
0.741846
0.988181
0.901091
1.03742
0.964408
1.00885
0.610953
0.688435
0.505116
0.421712
0.349833
0.425878
0.573547
0.76253
0.948029
0.721974
0.977869
0.898995
0.885622
0.842653
0.766577
0.727748
0.715466
0.736605
0.749476
0.765059
0.792973
0.814328
0.833297
0.983953
1.04896
1.04014
0.852413
0.762892
0.528533
0.565988
0.600114
0.603691
0.562912
0.544684
0.493592
0.481146
0.436322
0.417534
0.379222
0.360229
0.328165
0.454617
0.777471
0.807375
0.877033
0.930038
0.979658
1.00116
1.01771
1.00024
0.966663
0.896852
0.866229
0.803321
0.909759
1.09338
1.09177
1.0033
0.851543
0.806263
3.75641
4.56862
3.02453
6.51776
9.89335
16.5863
7.58283
2.06337
3.44207
2.36442
2.09797
2.04442
2.15774
3.39997
2.48917
3.2584
2.71851
2.87953
2.27817
2.56693
2.45363
1.88456
1.58993
1.34868
1.23808
0.999124
0.994713
0.805704
0.749383
0.682351
0.564968
0.69462
0.69559
1.65215
2.28225
2.84862
4.47148
4.90432
5.3594
8.45579
6.8514
8.58013
5.10562
5.15317
3.80903
3.58153
3.61857
4.97399
7.10273
4.89474
8.53986
4.76262
15.5099
34.665
9.18772
18.9576
10.9302
9.88046
9.51946
9.80417
13.9251
9.51352
15.4787
13.0847
17.458
17.0849
18.2124
14.1766
10.5273
11.5874
12.4968
16.0205
11.3884
13.21
10.0269
9.79116
9.09043
7.50151
6.61636
5.0592
5.94861
6.97757
7.93922
12.5811
15.7727
18.1332
21.8524
16.1452
18.4168
11.0897
12.1651
9.39745
8.81496
8.94455
11.7668
20.8772
14.7955
27.009
0.496734
0.225856
0.544235
0.229341
0.486602
0.390137
0.402653
0.403574
0.399203
0.460325
0.219938
0.184953
0.177218
0.17508
0.176599
0.100148
0.124339
0.0803628
0.126865
0.229083
0.503213
0.365221
0.140443
0.0825727
0.0545683
0.042922
0.0634162
0.0612098
0.0978832
0.0992337
0.105539
0.13203
0.22804
0.432955
31.7246
7.08943
1.122
0.526092
0.280494
0.171876
0.14771
0.166881
0.179424
0.182098
0.170956
0.145214
0.104209
0.0689759
0.0462322
0.0389009
0.0284043
0.0284495
0.0396514
0.0533733
0.0494523
0.065195
0.0836554
0.106488
0.130771
0.150102
0.164627
0.168594
0.156537
0.122513
0.0806502
0.0444323
0.0265311
0.0228657
0.020927
0.0194291
0.0167762
0.0145441
0.0131271
0.0112238
0.00989899
0.00893665
0.00863342
0.00876047
0.00956776
0.0121033
0.014567
0.0188629
0.017986
0.0134674
0.0126182
0.00781763
0.00722781
0.0073767
0.00762918
0.00844888
0.013215
0.0135254
0.0134047
0.0134394
0.0132597
0.0132549
0.0130879
0.0129305
0.012713
0.0122991
0.0120089
0.0114885
0.0112022
0.0105187
0.0105465
0.0109194
0.0112249
0.010153
0.0100425
0.00934895
0.0208578
0.0494341
0.0703236
0.0788019
0.0886082
0.0812785
0.0421127
0.0232042
0.00795719
0.00772713
0.00822652
0.00888765
0.0084324
0.00615947
0.00669994
0.00795621
0.0111728
0.0111396
0.0111723
0.0130245
0.0135684
0.0149068
0.0154512
0.0158099
0.016034
0.0159335
0.0160568
0.015752
0.0158404
0.0156267
0.0157135
0.0153082
0.0271851
0.0256007
0.026332
0.0263861
0.0276213
0.0271321
0.0266914
0.025716
0.0250363
0.0235132
0.0219567
0.0203666
0.0182499
0.0189841
0.0183182
0.0113952
0.0108114
0.00774739
0.00769704
0.00740509
0.0102977
0.00936231
0.00787205
0.00924795
0.00673701
0.00690886
0.00731504
0.0104505
0.0109786
0.0175231
0.0175238
0.0155483
0.0165398
0.0175813
0.0189179
0.0200542
0.0214698
0.0224528
0.0235314
0.0253693
0.0257566
0.0239646
0.023598
0.022494
0.0244214
0.0233856
0.0216475
0.023196
0.0248779
0.0274592
0.0271718
0.0250584
0.0237524
0.0223568
0.0200444
0.0174152
0.016036
0.0150133
0.0150419
0.0139933
0.0163155
0.0147314
0.0102203
0.0106104
0.00804383
0.00631125
0.00604602
0.00928518
0.0132721
0.0283011
0.0176658
0.00941528
0.010369
0.0166874
0.0346791
0.0206532
0.0332016
0.0145544
0.0154429
0.0127391
0.0126839
0.0139769
0.0162739
0.0173635
0.0210247
0.0237121
0.0257016
0.0266184
0.027927
0.0283153
0.0297179
0.0301617
0.0328152
0.033064
0.0330664
0.0325923
0.0301427
0.0270935
0.0248502
0.0307743
0.0356916
0.0390689
0.041504
0.0440108
0.0427536
0.0391105
0.0382397
0.0363312
0.0352156
0.0338244
0.0307066
0.0268739
0.022056
0.0214554
0.0274785
0.0332264
0.0495874
0.0535697
0.0533024
0.0555857
0.0560911
0.0578391
0.0582816
0.0609115
0.0614866
0.0626406
0.0629776
0.0681191
0.0690015
0.0699693
0.0702945
0.0699843
0.0709094
0.0708951
0.0481746
0.0431486
0.0389792
0.0323204
0.0270083
0.0342796
0.0427825
0.048145
0.0735576
0.0740115
0.0776376
0.0802361
0.0850496
0.0886726
0.0934026
0.0977849
0.102031
0.105328
0.107265
0.107506
0.107897
0.1069
0.10557
0.114273
0.148503
0.164959
0.195396
0.210388
0.222809
0.226824
0.21818
0.221989
0.213924
0.21651
0.210252
0.208319
0.203011
0.196724
0.1931
0.186818
0.182699
0.210546
0.158757
0.121562
0.0806523
0.0647351
0.0577598
0.0539864
0.0568754
0.0439742
0.0375171
0.0563707
0.0518866
0.0414676
0.027733
0.0187738
0.0322354
0.0478415
0.064737
0.0819777
0.0977121
0.107988
0.110545
0.10944
0.104694
0.0968409
0.0816659
0.0614746
0.0421856
0.0347065
0.0319864
0.0280361
0.0221159
0.0177797
0.0156721
0.0140936
0.0123366
0.0110961
0.0105472
0.0107182
0.0110315
0.0132295
0.0173145
0.0173045
0.0116025
0.0111374
0.00766373
0.00775242
0.00801164
0.0133133
0.0134633
0.0208741
0.0233265
0.0219721
0.0226698
0.0224106
0.0227154
0.0223767
0.0211901
0.0203635
0.0193991
0.0185613
0.0178154
0.0169837
0.0161537
0.0174773
0.0164176
0.0138275
0.0139599
0.0145825
0.0152347
0.0161188
0.0173821
0.0184525
0.0211512
0.0212995
0.0207935
0.0208817
0.0194008
0.0186789
0.0199261
0.0194438
0.013251
0.013069
0.0190766
0.0187271
0.0186242
0.0224527
0.0208842
0.0214012
0.0225371
0.0224582
0.0195189
0.0181636
0.0166043
0.0154236
0.0140397
0.0125208
0.0121337
0.0148831
0.0130682
0.0107418
0.0119518
0.0143549
0.0169642
0.018431
0.0204189
0.023134
0.0241071
0.0263616
0.0277898
0.0298894
0.0307245
0.0355406
0.0361753
0.0339856
0.0321438
0.0311517
0.0273744
0.0234659
0.0258783
0.0267519
0.0271298
0.0272754
0.0271628
0.0235792
0.0231491
0.0216329
0.0211137
0.0195306
0.0189701
0.0178064
0.0170424
0.016016
0.0141885
0.013489
0.0126723
0.0123121
0.0173648
0.0108664
0.0106019
0.0160218
0.00986559
0.0116131
0.0113517
0.0118777
0.0125472
0.0103711
0.0151601
0.0103521
0.01125
0.0114843
0.0144249
0.0100411
0.0214277
0.0654676
0.0937422
0.112703
0.204293
0.244147
0.264219
0.284824
0.298816
0.31475
0.332133
0.349693
0.362575
0.363886
0.338031
0.31941
0.254348
0.227683
0.251309
0.281264
0.1938
0.166268
0.168459
0.169184
0.17165
0.172794
0.176281
0.174179
0.179052
0.174699
0.181763
0.175732
0.181962
0.174793
0.159722
0.143295
0.111229
0.100667
0.0649498
0.0503259
0.0393738
0.028625
0.0208861
0.0187557
0.017759
0.0164212
0.0165046
0.0126464
0.013099
0.00839836
0.00618241
0.00986034
0.00968707
0.00723455
0.00981602
0.0112092
0.0117162
0.0122481
0.012541
0.0191728
0.0191989
0.0245734
0.0245092
0.0290817
0.0346991
0.0359412
0.0395769
0.0569684
0.0575056
0.0572486
0.0571097
0.0567022
0.049456
0.0491747
0.0480711
0.0474888
0.0445358
0.0439808
0.0418882
0.0407446
0.0377797
0.0369536
0.0358289
0.0363128
0.0410703
0.0569432
0.100974
0.0298718
0.0285861
0.0209466
0.014569
0.0214916
0.0159359
0.0154921
0.013644
0.0187314
0.0134795
0.0137248
0.0165484
0.017077
0.0164786
0.0215371
0.0268443
0.0235679
0.0261593
0.118398
0.0769157
0.0247982
0.0490656
0.0727557
0.159046
0.20441
0.140369
0.160169
0.184224
0.167344
0.140555
0.110085
0.0819885
0.0584485
0.0453091
0.0113539
0.0134247
0.0186275
0.0414068
0.061411
0.101477
0.0835422
0.109151
0.149125
0.173605
0.209541
0.201151
0.173105
0.14898
0.145484
0.160497
0.163175
0.106193
0.103222
0.0781917
0.174308
0.219216
0.184728
0.231838
0.244686
0.145529
0.032236
0.0184283
0.0151548
0.0139503
0.0124631
0.0193785
0.0114947
0.0116702
0.012389
0.0132943
0.0169996
0.0293431
0.0134869
0.0149453
0.0183527
0.0158859
0.0148742
0.0146537
0.0145488
0.015156
0.0165004
0.0215489
0.0216745
0.0213668
0.0160133
0.0173165
0.0157305
0.020065
0.0212722
0.0333501
0.0152972
0.0162455
0.02158
0.481788
0.0247269
0.0178608
0.0232909
0.0219577
0.0302307
0.0436475
0.460701
0.0444924
0.0351817
0.0585792
0.0608082
0.0654862
0.0691671
0.0727128
0.0752264
0.0792089
0.0818281
0.0830942
0.0843894
0.10002
0.0999141
0.098837
0.103424
0.0974939
0.0575965
0.057788
0.0972455
0.104929
0.0593349
0.040949
0.0384386
0.0311268
0.0322336
0.0417648
0.0438507
0.0615579
0.0613708
0.102305
0.093311
0.0946933
0.0964797
0.0915335
0.0920383
0.0940487
0.0941987
0.0754816
0.0731051
0.0713203
0.0682996
0.0647331
0.0618335
0.0589232
0.0558945
0.0533992
0.0537314
0.0588896
0.0584764
0.0665542
0.0745875
0.228191
0.156016
0.110875
0.0815522
0.0657833
0.0591889
0.0585619
0.0616709
0.0649082
0.0665348
0.0673498
0.0707798
0.0925122
0.0946625
0.0974993
0.095004
0.0987747
0.0967792
0.0943405
0.104214
0.112007
0.0655008
0.0675794
0.047657
0.0444187
0.032396
0.0329371
0.0235228
0.0195224
0.0195227
0.0195055
0.019718
0.022574
0.031508
0.0316203
0.0461654
0.0461083
0.0515746
0.0751656
0.0722423
0.128765
0.118043
0.108379
0.101113
0.101461
0.10362
0.106206
0.101226
0.0978366
0.0923256
0.0725062
0.0684355
0.0663057
0.0650916
0.0638704
0.0676
0.0917879
0.149617
0.229468
0.33643
0.437007
0.446947
0.403845
0.254689
0.293112
0.146549
0.166297
0.188688
0.165912
0.174415
0.321566
0.267284
0.379239
0.483785
0.537681
0.604213
0.64185
0.632155
0.503907
0.328362
0.335615
0.446518
0.771917
0.865498
0.74404
0.761317
0.658107
0.539958
0.52132
0.49646
0.559884
0.61015
0.575856
0.592099
0.536452
0.512544
0.442819
0.493881
0.36076
0.324931
0.305426
0.296605
0.355373
0.287603
0.323999
0.266425
0.272787
0.221763
0.227238
0.18971
0.145258
0.137743
0.127719
0.143031
0.162235
0.148701
0.153426
0.134009
0.114687
0.0912773
0.0984247
0.0735636
0.0696346
0.0708317
0.0809949
0.127592
0.37445
0.174589
0.164176
0.168104
0.17792
0.319845
0.282895
0.721328
0.505346
0.705378
0.472254
0.560061
0.468609
0.361607
0.377237
0.416895
0.596763
0.819468
6.64486
0.284504
4.25843
3.16186
3.32124
3.46749
4.4437
7.79609
7.10706
9.37322
6.80015
9.0757
4.97858
4.97514
4.32596
4.47161
4.43977
4.26375
5.21548
6.66721
0.239221
0.0910413
0.0854279
0.0856063
0.0873837
0.197796
0.05256
0.201901
0.0539329
0.213289
0.0494809
0.246419
0.196739
0.038226
0.0192575
0.0200889
0.0168069
0.0203747
0.0169229
0.0250481
0.0235426
0.0237012
0.0266006
0.0764442
0.292758
13.877
1.68083
0.702747
0.803844
1.2035
0.819362
1.22038
1.69332
1.14004
0.569918
0.375152
0.442792
0.535574
0.510764
0.64962
0.933566
0.912527
0.717452
0.721028
0.637661
0.897907
0.905957
1.07217
1.25142
1.14417
0.898058
0.708285
0.601577
1.03204
1.03509
0.967492
0.413002
0.117473
0.0475175
0.0499946
0.036143
0.0380212
0.0349655
0.0562778
0.164451
0.226059
0.136548
0.435392
0.418592
0.566645
0.404183
0.413745
0.327134
0.350843
0.535607
0.584757
0.644021
0.675078
0.726107
0.672379
1.29231
2.21691
2.50793
12.8839
17.4367
3.21027
3.09916
13.9487
0.315044
0.083954
0.0233282
0.0174338
0.0162175
0.01613
0.0150006
0.015538
0.015999
0.0169628
0.0188264
0.0231906
0.0458138
0.201326
0.203284
0.064303
0.0324122
0.0229643
0.0196135
0.0170451
0.0163861
0.0155311
0.0154587
0.0150081
0.015658
0.0174655
0.0237829
0.0774181
0.270857
11.3151
2.43507
2.25323
8.37729
5.79065
0.206651
0.0437788
0.0200921
0.016926
0.0158833
0.0167529
0.0162649
0.0182098
0.0184006
0.0230126
0.0250157
0.0317506
0.0570317
0.110092
0.3151
9.559
8.6315
8.35148
7.79413
0.309733
0.115075
0.0543543
0.0382167
0.0346154
0.0338114
0.0226463
0.0236703
0.0189805
0.0216372
0.0182934
0.0226779
0.0482904
0.211806
5.34832
1.56859
1.69973
1.20815
0.612267
0.6552
0.669314
0.68909
1.77855
4.07422
5.0056
3.43675
3.36755
4.71872
3.17707
2.48681
1.8333
1.74997
2.54994
1.96509
1.82633
1.35767
1.46773
1.06748
1.46677
0.810902
0.976183
1.07226
1.531
1.39694
1.40968
0.907822
1.04972
1.47477
1.72339
1.64749
0.843441
1.22593
1.0132
0.654537
0.607048
0.633757
0.604016
0.579127
0.575722
0.579691
0.558466
0.575377
0.555379
0.58701
0.54639
0.531967
0.506828
0.52668
0.544584
0.577293
0.360004
0.422531
0.4267
0.441132
0.453815
0.374949
0.450897
0.441997
0.659045
0.994871
0.838418
1.16216
0.682003
1.00432
2.0087
5.20704
2.36506
0.823686
1.34812
1.58108
1.13855
0.62797
2.55167
3.55597
1.22923
1.7818
10.3668
8.4201
16.4991
10.9762
18.6566
6.04516
4.63665
17.8222
6.68429
6.92251
4.52217
4.52665
2.96312
1.58743
1.63198
1.74544
1.22868
1.30287
1.21273
1.13408
1.47637
1.44256
1.89043
2.03913
2.58347
1.81436
1.78023
2.6069
1.06437
1.40452
1.8422
1.83437
1.36335
2.34983
3.16628
2.98427
2.15199
2.34271
3.51231
4.82872
4.59635
3.18373
3.99047
10.1512
13.5505
13.7056
4.23205
19.3023
18.3061
2.0943
0.575451
0.330011
0.0913221
0.0449033
0.0367323
0.0387806
0.144712
0.0458475
0.0572291
0.0458099
0.0741899
0.0704169
0.0880337
0.220909
0.127831
0.219029
0.157249
0.193294
0.123402
0.197331
0.231406
0.241746
0.192401
0.118223
0.217373
0.312832
0.108317
0.361316
0.397608
0.265612
0.339211
0.404272
0.200476
1.00464
0.187766
0.129683
0.150117
0.401196
1.27634
0.223286
0.468293
4.50118
14.7218
3.70606
0.949792
0.691308
0.0559942
0.0303528
0.032245
0.0281082
0.0194859
0.0852485
0.100473
0.409519
0.210584
0.278101
0.661386
2.92376
2.3996
1.14009
5.51434
10.2706