/*--------------------------------*- C++ -*----------------------------------*\
| =========                 |                                                 |
| \\      /  F ield         | OpenFOAM: The Open Source CFD Toolbox           |
|  \\    /   O peration     | Version:  v2012                                 |
|   \\  /    A nd           | Website:  www.openfoam.com                      |
|    \\/     M anipulation  |                                                 |
\*---------------------------------------------------------------------------*/
FoamFile
{
    version     2.0;
    format      ascii;
    class       volVectorField;
    location    "1025";
    object      U;
}
// * * * * * * * * * * * * * * * * * * * * * * * * * * * * * * * * * * * * * //

dimensions      [0 1 -1 0 0 0 0];


internalField   nonuniform List<vector> 
18258
(
(-0.175964 0.113709 0.138839)
(-0.0515227 0.244782 0.159042)
(-0.104688 0.212087 0.0963368)
(-0.0406561 0.0685007 0.084681)
(-0.226207 0.200483 0.0193781)
(-0.159684 0.358295 0.017653)
(-0.223226 0.0441763 0.0545965)
(-0.341651 -0.0537732 0.0757048)
(-0.44897 -0.106125 0.108397)
(-0.535994 -0.159834 0.145874)
(-0.62169 -0.217298 0.180017)
(-0.687947 -0.271663 0.309684)
(-0.678745 -0.334355 0.357341)
(-0.622318 -0.445546 0.3859)
(-0.488075 -0.54305 0.3694)
(-0.204895 -0.587511 0.340379)
(0.0740677 -0.374448 0.288775)
(0.0786913 -0.164093 0.298213)
(-0.12772 -0.078359 0.236932)
(-0.400307 -0.273359 0.116887)
(-0.139079 -0.526294 0.292776)
(-0.198571 -0.36553 0.407045)
(-0.303873 -0.737568 0.301444)
(-0.364754 -0.779144 0.262517)
(-0.136487 -0.708045 0.132429)
(0.00353647 -0.645589 0.183132)
(-0.0177699 -0.340516 0.422998)
(0.173961 -0.113208 0.805496)
(0.299086 -0.0954461 0.893395)
(0.316659 0.0576244 0.913897)
(0.317912 0.185052 0.815263)
(0.167114 0.301886 0.101422)
(0.0776028 0.131887 -0.430823)
(0.011366 0.080273 -0.723276)
(-0.0672199 0.0774976 -0.897986)
(-0.0574237 0.0736105 -1.08032)
(-0.0705808 0.0727773 -1.22016)
(-0.098801 0.0908402 -1.31428)
(-0.140283 0.0820492 -1.36184)
(-0.187849 0.0884348 -1.34775)
(-0.237401 0.0747639 -1.26361)
(-0.283876 0.0839726 -1.10976)
(-0.322618 0.0784208 -0.898852)
(-0.353484 0.0794652 -0.644337)
(-0.363293 0.0821321 -0.351454)
(-0.346405 0.0773297 -0.153721)
(-0.156759 0.17697 -0.195407)
(0.361507 -0.0990229 -0.136722)
(0.627355 -0.130378 -0.15727)
(0.674041 -0.11292 -0.166887)
(0.785983 -0.136272 -0.176148)
(0.813316 -0.133544 -0.193677)
(0.507392 -0.00507614 -0.257572)
(0.260011 -0.137999 -0.218242)
(0.113582 -0.0422118 -0.15877)
(0.282383 -0.00991399 -0.169151)
(0.537334 -0.0026705 -0.173808)
(0.791602 -0.0302144 -0.178105)
(1.09203 -0.0348394 -0.175897)
(1.42778 -0.0489814 -0.185339)
(1.76237 -0.0647185 -0.183703)
(2.0465 -0.0812966 -0.166785)
(2.24715 -0.0929857 -0.138335)
(2.34731 -0.0990991 -0.102712)
(2.35399 -0.0964096 -0.0681266)
(2.29363 -0.0887219 -0.0414839)
(2.20004 -0.0822089 -0.0248611)
(2.10755 -0.0760802 -0.0181446)
(2.0381 -0.0672826 -0.0191778)
(1.99244 -0.0644537 -0.0238588)
(1.96806 -0.0593195 -0.0263101)
(1.95747 -0.0504309 -0.0208012)
(1.94316 -0.0399416 -0.00382485)
(1.89968 -0.025138 0.0237248)
(1.81212 -0.00810818 0.0532942)
(1.69125 0.00924501 0.0765449)
(1.57044 0.0214224 0.0793763)
(1.47769 0.0303742 0.0747376)
(1.39958 0.0373894 0.0700926)
(1.33747 0.0500322 0.0627348)
(1.28667 0.0566895 0.0644514)
(1.19302 0.0438726 0.0778649)
(1.09584 0.0185831 0.10924)
(1.0128 0.000283513 0.126607)
(0.905433 -0.0213149 0.119452)
(0.761474 0.0164601 0.144838)
(0.64077 0.0815328 0.132492)
(0.517128 0.100513 0.133249)
(0.380144 0.11789 0.117616)
(0.223858 0.126715 0.0954568)
(0.119826 0.189863 0.0910784)
(0.121479 0.0109452 0.196653)
(0.16397 -0.100726 0.142462)
(0.112899 -0.129822 0.0379844)
(0.104314 -0.115045 -0.144325)
(0.216156 -0.210161 -0.373686)
(0.262317 -0.231366 -0.559056)
(0.203829 -0.137956 -0.731013)
(0.105193 -0.0796452 -0.712951)
(0.0362016 0.060092 -0.487403)
(-0.0942767 0.233709 -0.145309)
(-0.217542 0.192364 0.18213)
(-0.234462 0.0644063 0.156991)
(-0.340367 0.0142616 0.171422)
(-0.27465 0.136371 0.180661)
(-0.248979 0.285098 -0.0399832)
(-0.106711 0.165213 -0.400974)
(0.062486 0.00570512 -0.583485)
(0.332326 -0.093353 -0.633555)
(0.494638 -0.229464 -0.492431)
(0.351032 -0.210873 -0.283066)
(0.271427 -0.192193 -0.102975)
(0.282651 -0.186886 0.0375298)
(0.280368 -0.140121 0.158868)
(0.224681 -0.0989203 0.190635)
(0.395799 -0.081422 0.179612)
(0.534826 -0.0634205 0.175156)
(0.587289 -0.0521984 0.16336)
(0.699136 -0.078881 0.159379)
(0.731578 -0.133874 0.13082)
(0.600215 -0.134378 0.133636)
(0.453895 -0.151875 0.138175)
(0.460986 -0.186102 0.0333473)
(0.610183 -0.162975 0.0492954)
(0.735488 -0.162149 0.0467747)
(0.903896 -0.141839 0.079237)
(1.08754 -0.109944 0.108846)
(1.18895 -0.0777898 0.146458)
(1.2079 -0.010844 0.138465)
(1.24509 -0.00923743 0.119143)
(1.33526 -0.00710109 0.138645)
(1.37718 -0.00189599 0.128722)
(1.36884 -0.0126319 0.157333)
(1.32825 -0.048244 0.192282)
(1.3226 -0.0511621 0.189196)
(1.28549 -0.0620438 0.150171)
(1.27876 -0.0602001 0.133256)
(1.2576 -0.047705 0.106912)
(1.24905 -0.0457013 0.108981)
(1.20112 0.00479643 0.107739)
(1.1941 0.0283338 0.136521)
(1.07625 0.137711 0.27058)
(1.22593 0.0532792 0.25329)
(1.2175 0.0204152 0.157455)
(1.26611 -0.0207351 0.126844)
(1.27829 -0.0249197 0.117558)
(1.28892 -0.0381888 0.142454)
(1.30783 -0.0415131 0.181786)
(1.35035 -0.0367358 0.215807)
(1.38616 -0.0367372 0.220749)
(1.42306 -0.0128837 0.182091)
(1.43637 -0.00207361 0.137075)
(1.51261 -0.00666757 0.150198)
(1.61066 -0.0168458 0.158332)
(1.7499 -0.0317432 0.142771)
(1.88198 -0.0543155 0.0482651)
(1.96337 -0.0757779 -0.0718822)
(1.9827 -0.0906289 -0.164919)
(1.96523 -0.096638 -0.201124)
(1.94889 -0.0969662 -0.195037)
(1.95905 -0.091336 -0.175233)
(2.00604 -0.0827887 -0.144802)
(2.08748 -0.0703454 -0.108198)
(2.19865 -0.0601257 -0.0843478)
(2.31283 -0.0598096 -0.113187)
(2.38978 -0.0609112 -0.173521)
(2.39249 -0.0585315 -0.277385)
(2.28661 -0.0502919 -0.392607)
(2.07117 -0.0426172 -0.484017)
(1.77079 -0.036808 -0.540521)
(1.42693 -0.0316464 -0.549354)
(1.08086 -0.019362 -0.528206)
(0.792374 -0.0244541 -0.459783)
(0.536763 -0.0158824 -0.415759)
(0.283005 -0.0214517 -0.386999)
(0.109288 -0.0401269 -0.360752)
(0.102436 -0.0419378 -0.637344)
(0.0775409 -0.0371202 -0.873454)
(0.050812 -0.0390918 -1.05795)
(0.0118683 -0.0403777 -1.17653)
(-0.0232971 -0.0280529 -1.21615)
(-0.0599749 -0.0155455 -1.16833)
(-0.0937411 0.00356712 -1.03901)
(-0.119165 0.0275713 -0.820972)
(-0.120971 0.0847325 -0.55933)
(-0.146732 0.132338 -0.0339672)
(-0.193743 0.0249093 0.572947)
(-0.209767 -0.0342017 0.759229)
(-0.228044 -0.00300277 0.927548)
(-0.233192 -0.0461019 1.06952)
(-0.318788 -0.105698 1.13278)
(-0.371828 -0.112885 1.1452)
(-0.370406 -0.234227 1.00488)
(-0.299115 -0.253064 0.771028)
(-0.460545 -0.669304 0.687346)
(-0.485779 -0.546936 0.705274)
(-0.413872 -0.414356 0.832687)
(-0.549117 -0.768287 0.858952)
(-0.683417 -0.83356 0.606822)
(-0.474279 -0.756207 0.800046)
(-0.435459 -0.575869 0.742895)
(-0.783089 -0.526144 0.75067)
(-0.901892 -0.409323 0.861003)
(-0.530373 -0.707578 0.825626)
(-0.439813 -0.57749 0.666823)
(-0.320416 -0.319847 0.406781)
(-0.299551 -0.182242 0.400693)
(-0.283164 -0.146173 0.354636)
(-0.234683 0.110238 0.115384)
(-0.162148 0.298079 -0.417465)
(-0.15182 0.190066 -0.63839)
(-0.132059 0.0292337 -0.913408)
(-0.0869923 -0.0565199 -1.08578)
(-0.0287563 -0.0691931 -1.23381)
(0.0383038 -0.101773 -1.26881)
(0.0980519 -0.0985622 -1.23399)
(0.172624 -0.109232 -1.12019)
(0.216705 -0.123517 -0.920364)
(0.261056 -0.146798 -0.705836)
(0.249994 -0.139436 -0.398621)
(0.419351 -0.0500065 -0.63761)
(0.774027 -0.118758 -0.456569)
(0.729726 -0.109866 -0.411591)
(0.631219 -0.0757645 -0.403938)
(0.566939 -0.105207 -0.409818)
(0.129437 -0.100571 -0.520206)
(0.177105 -0.116325 -0.906012)
(0.257653 -0.224442 -1.05822)
(0.343105 -0.282547 -0.946781)
(0.389657 -0.351797 -0.507184)
(0.199265 0.0412874 0.130562)
(0.265627 0.122401 0.180192)
(0.429498 -0.324787 0.336031)
(0.51658 -0.52957 0.505633)
(0.546181 -0.523207 0.551986)
(0.413049 -0.23571 0.678377)
(0.472011 -0.338119 0.564828)
(0.487315 -0.610409 0.545359)
(0.704713 -0.673487 0.31761)
(0.74691 -0.489498 0.453144)
(0.799237 -0.346087 0.599118)
(0.236034 -0.226089 0.576603)
(-0.235422 -0.269177 0.829937)
(-0.171663 -0.19145 0.681455)
(-0.6721 -0.299092 0.820479)
(-0.468384 -0.183375 0.696365)
(-0.319353 -0.00529814 0.544333)
(-0.218498 0.178271 -0.294442)
(-0.192286 -0.041316 -0.617031)
(-0.0574191 -0.16871 -1.09991)
(0.10429 -0.157813 -1.25004)
(0.27593 -0.0872278 -1.11815)
(0.437151 -0.10825 -0.698796)
(0.507188 -0.0741343 -0.622349)
(0.501836 -0.043624 -0.610907)
(0.553592 -0.0879447 -0.635162)
(0.595821 -0.12116 -0.727476)
(0.402644 -0.0429222 -0.678848)
(0.361106 -0.079289 -0.659413)
(0.135893 -0.113822 -0.668531)
(-0.111024 -0.048511 -0.579843)
(0.296481 0.00602408 -0.589604)
(0.356156 0.0153531 -0.607051)
(0.641655 -0.096904 -0.643303)
(0.575735 -0.0978575 -0.370434)
(0.271363 0.0741114 -0.356616)
(0.273183 0.0551953 -0.236014)
(-0.302911 -0.0386511 0.119501)
(-0.307895 0.143875 -0.00468998)
(-0.283186 -0.0247408 -0.447844)
(0.0887242 -0.201756 -0.575271)
(0.362083 -0.280495 -0.568853)
(0.725713 -0.346709 -0.405728)
(0.810003 -0.419804 -0.377949)
(0.771339 -0.291984 -0.295568)
(0.812626 -0.366449 -0.219665)
(0.827183 -0.488248 -0.284276)
(0.739979 -0.433558 -0.27837)
(0.719202 -0.30683 -0.331283)
(0.746813 -0.252688 -0.341645)
(0.792282 -0.312558 -0.212153)
(0.804452 -0.368267 -0.160586)
(0.891821 -0.466145 -0.156879)
(1.15774 -0.632747 -0.118147)
(1.61633 -0.728086 -0.0992479)
(1.99352 -0.673548 -0.038558)
(2.15023 -0.491459 0.0469438)
(2.07064 -0.292379 0.0949848)
(1.90544 -0.16426 0.102641)
(1.8077 -0.095924 0.0991943)
(1.71069 -0.000969946 0.0987229)
(1.57296 0.0872733 0.0908625)
(1.4354 0.105479 0.0478518)
(1.33076 0.0557341 0.0270892)
(1.24086 -0.00626852 0.0213372)
(1.13901 -0.0556504 0.0229949)
(1.05506 -0.0801529 0.0211318)
(0.997163 -0.0635706 0.0166186)
(0.82085 -0.111097 -0.0241785)
(0.716041 0.00138523 0.00931068)
(0.632768 0.0673919 0.00851183)
(0.497223 0.0219254 0.00615977)
(0.359155 -0.0617026 -0.0134595)
(0.138977 -0.147344 -0.0324118)
(0.225457 -0.308569 0.00132835)
(0.353173 -0.0820587 0.0120071)
(-0.00259892 -0.230424 -0.00924332)
(0.042887 -0.546193 -0.0505358)
(0.0118865 -0.712753 -0.0526749)
(-0.00814911 -0.876679 -0.0532946)
(-0.0261006 -1.00672 -0.0650191)
(-0.0361401 -1.10264 -0.0959251)
(-0.0466853 -1.15701 -0.105225)
(-0.0582314 -1.21427 -0.118354)
(-0.0884585 -1.27599 -0.134345)
(-0.113553 -1.32069 -0.149661)
(-0.137526 -1.3544 -0.16258)
(-0.159556 -1.37605 -0.173644)
(-0.178583 -1.38741 -0.183312)
(-0.193995 -1.38909 -0.190031)
(-0.206149 -1.38204 -0.193891)
(-0.216197 -1.36738 -0.194017)
(-0.224784 -1.34552 -0.192104)
(-0.233091 -1.31509 -0.186658)
(-0.240772 -1.27421 -0.178299)
(-0.246227 -1.21998 -0.165241)
(-0.24411 -1.15084 -0.147476)
(-0.19113 -1.07141 -0.127069)
(-0.141334 -0.968794 -0.112711)
(-0.165904 -0.86833 -0.0796024)
(-0.189942 -0.754421 -0.0820198)
(-0.205168 -0.542944 -0.0856205)
(-0.274015 -0.45012 -0.0921285)
(0.0223182 0.053458 -0.116335)
(-0.350955 -0.308294 0.0250672)
(-0.231816 -0.617455 -0.0547026)
(-0.270606 -0.0992463 -0.0111839)
(-0.458328 -0.18241 0.0644949)
(-0.679105 -0.198628 0.0822126)
(-0.842618 -0.209214 0.114039)
(-0.954099 -0.22307 0.144164)
(-1.03485 -0.232467 0.203734)
(-1.11816 -0.244268 0.24525)
(-1.18735 -0.244166 0.301977)
(-1.20104 -0.248406 0.33625)
(-1.1741 -0.250178 0.366172)
(-1.10719 -0.248902 0.394485)
(-0.996427 -0.243243 0.422683)
(-0.841848 -0.230272 0.454109)
(-0.668043 -0.206075 0.493548)
(-0.420914 -0.1471 0.54265)
(-0.138125 -0.118591 0.566641)
(-0.156458 0.0284873 0.822511)
(-0.159843 0.0829726 1.04265)
(-0.159543 0.115258 1.11239)
(-0.160819 0.164385 1.02097)
(-0.164532 0.15349 0.838308)
(-0.151961 0.131438 0.567878)
(-0.124423 0.143557 0.285884)
(-0.225738 0.439606 0.371051)
(-0.50737 0.467507 0.335314)
(-0.692256 0.480537 0.339362)
(-0.917116 0.465314 0.332783)
(-1.09926 0.424551 0.308708)
(-1.22626 0.353082 0.265915)
(-1.28183 0.273174 0.218746)
(-1.2645 0.206044 0.181491)
(-1.23151 0.147858 0.158221)
(-1.18861 0.11517 0.140314)
(-1.09923 0.0924716 0.0901732)
(-0.957538 0.0450934 0.0698327)
(-0.766291 -0.0207981 0.0593924)
(-0.500041 -0.114039 0.018988)
(-0.252605 -0.20777 -0.0190979)
(-0.273714 -0.19755 -0.0665397)
(-0.318018 -0.176985 0.00766318)
(-0.314237 -0.174182 0.0587635)
(-0.272343 -0.156538 0.149811)
(-0.380698 -0.233655 0.117354)
(-0.422532 -0.296915 0.117391)
(-0.326453 -0.287942 0.176077)
(-0.269408 -0.214914 0.0438844)
(-0.140912 -0.100649 -0.0269778)
(-0.140894 -0.0768283 -0.00845221)
(-0.138769 -0.0741426 -0.0363497)
(-0.169508 -0.0556735 -0.0686164)
(-0.167952 -0.501541 -0.149337)
(-0.126407 -0.47964 -0.139299)
(-0.110747 -0.447095 -0.097023)
(-0.100594 -0.423969 -0.14709)
(-0.266308 -0.537854 -0.0326955)
(-0.275871 -0.575178 -0.0271262)
(-0.28305 -0.631404 -0.0856237)
(-0.336863 -0.58274 -0.0217186)
(-0.339871 -0.529835 0.053769)
(-0.301278 -0.359052 0.083866)
(-0.444219 -0.31701 0.113795)
(-0.361166 -0.431745 0.0393077)
(-0.346799 -0.52253 0.0127263)
(-0.377552 -0.508477 -0.0251038)
(-0.428303 -0.394488 0.0310079)
(-0.497089 -0.34659 0.0722447)
(-0.528712 -0.254882 0.163102)
(-0.591034 -0.215472 0.240783)
(-0.679926 -0.197577 0.255359)
(-0.576376 -0.206739 0.210966)
(-0.516571 -0.187855 0.1806)
(-0.544821 -0.185005 0.117324)
(-0.539382 -0.172093 0.0915199)
(-0.4958 -0.184291 0.000569356)
(-0.761129 -0.0867107 0.0643277)
(-0.971098 -0.00545222 0.0894606)
(-1.07868 0.0520746 0.103354)
(-1.12785 0.0749666 0.137923)
(-1.16559 0.0358035 0.237576)
(-1.25025 0.0689879 0.266839)
(-1.3163 0.119401 0.34872)
(-1.33001 0.170843 0.431428)
(-1.27289 0.221937 0.523974)
(-1.1482 0.260977 0.603767)
(-0.975671 0.281373 0.648459)
(-0.775638 0.283563 0.657659)
(-0.623398 0.288645 0.644664)
(-0.342539 0.27237 0.644504)
(-0.436279 0.244862 0.875069)
(-0.468309 0.227527 1.00339)
(-0.46117 0.179711 1.08182)
(-0.441933 0.123491 1.01399)
(-0.440507 0.058417 0.798062)
(-0.711701 -0.00509724 0.744446)
(-0.722333 0.0714757 0.944801)
(-0.741106 0.117288 1.02355)
(-0.746021 0.164259 0.979624)
(-0.695773 0.198758 0.87278)
(-0.838284 0.186352 0.862687)
(-0.880196 0.145884 0.965168)
(-0.883066 0.0883876 1.00111)
(-0.873358 0.042034 0.926397)
(-0.867033 -0.0389567 0.707014)
(-1.01017 -0.0602149 0.675808)
(-1.02469 0.0206 0.901098)
(-1.03766 0.0696153 0.966225)
(-1.04583 0.12207 0.944221)
(-1.02086 0.17409 0.854259)
(-1.16435 0.163026 0.804078)
(-1.16493 0.110618 0.89274)
(-1.14825 0.0571991 0.914517)
(-1.13112 0.00653065 0.859376)
(-1.11108 -0.0729905 0.640046)
(-1.17114 -0.0836332 0.595416)
(-1.19661 -0.00615397 0.79676)
(-1.22293 0.0436668 0.839959)
(-1.25223 0.0918692 0.811404)
(-1.26986 0.141397 0.716775)
(-1.31925 0.110874 0.610007)
(-1.29083 0.068872 0.709075)
(-1.25245 0.0250332 0.747068)
(-1.21711 -0.0216838 0.716255)
(-1.18707 -0.0934321 0.539675)
(-1.1538 -0.104667 0.472605)
(-1.18185 -0.0413479 0.621209)
(-1.22062 0.000222957 0.640503)
(-1.27489 0.0391714 0.606212)
(-1.3079 0.0742715 0.508903)
(-1.22484 0.035703 0.414047)
(-1.18813 0.00289145 0.499843)
(-1.12846 -0.0321645 0.530924)
(-1.08631 -0.0600637 0.520003)
(-1.04014 -0.111739 0.386665)
(-0.919249 -0.120113 0.315105)
(-0.923485 -0.10935 0.357991)
(-0.972814 -0.0803571 0.438066)
(-0.956734 -0.087012 0.424832)
(-0.927741 -0.10263 0.39434)
(-1.00442 -0.0684173 0.381034)
(-0.996113 -0.0630736 0.307048)
(-1.00077 -0.0391684 0.282434)
(-1.04378 -0.0271939 0.208817)
(-1.03878 -0.00954566 0.202161)
(-0.80604 -0.105182 0.145049)
(-0.818939 -0.1252 0.157479)
(-0.788005 -0.128397 0.215837)
(-0.823957 -0.141474 0.24895)
(-0.609888 -0.281669 0.132551)
(-0.556832 -0.291379 0.114259)
(-0.503362 -0.326803 0.13183)
(-0.419986 -0.399508 0.11534)
(-0.396739 -0.383935 0.148761)
(-0.488023 -0.28411 0.164583)
(-0.60585 -0.239025 0.183001)
(-0.615054 -0.26782 0.0962351)
(-0.513225 -0.377844 0.0432628)
(-0.439425 -0.460004 0.0273398)
(-0.397227 -0.526221 0.0568766)
(-0.383887 -0.697812 0.121042)
(-0.386996 -0.663189 0.126905)
(-0.405253 -0.380237 0.105737)
(-0.408127 -0.536467 0.0803044)
(-0.399096 -0.601797 0.0425291)
(-0.215595 -0.788005 -0.160113)
(-0.193291 -0.793721 -0.26066)
(-0.115316 -0.703741 -0.370064)
(-0.0785847 -0.623656 -0.386119)
(-0.0451155 -0.588321 -0.348348)
(-0.0135393 -0.55527 -0.301849)
(0.0316514 -0.501255 -0.232153)
(0.124136 -0.454672 -0.108943)
(0.12472 -0.579225 -0.121948)
(0.11684 -0.635478 -0.120197)
(0.0849103 -0.693364 -0.157735)
(0.0923406 -0.747942 -0.15594)
(0.100524 -0.804547 -0.175136)
(0.118305 -0.832792 -0.167183)
(0.126329 -0.839427 -0.152928)
(0.126511 -0.82541 -0.130277)
(0.117772 -0.789147 -0.0957585)
(0.104259 -0.731951 -0.0423123)
(0.0363793 -0.65085 0.0340579)
(0.00245555 -0.541191 0.155614)
(0.0171233 -0.293961 0.362613)
(-0.152242 0.0223352 0.448636)
(-0.369437 0.097391 0.349121)
(-0.393823 -0.0377013 0.257409)
(-0.220663 -0.173143 0.251417)
(-0.182462 -0.190635 0.268122)
(-0.159731 -0.181145 0.215071)
(-0.0969773 -0.148984 0.206973)
(-0.00468129 -0.0510022 0.0763827)
(-0.033109 0.105313 0.0817843)
(-0.080147 0.142917 0.0809404)
(-0.0484615 0.208293 0.172278)
(-0.00207202 0.174247 0.195843)
(0.0153904 0.0165877 0.145344)
(-0.0509547 -0.0382786 0.23114)
(0.0226763 0.0824482 0.327407)
(-0.00506256 -0.0704793 0.288223)
(0.0741595 0.139434 0.250019)
(0.0889935 -0.0249758 0.226039)
(-0.0227755 -0.2515 0.455234)
(0.0482492 -0.354506 0.545031)
(0.171518 -0.496729 0.516616)
(0.169268 -0.689383 0.354025)
(0.0766636 -0.814275 0.145852)
(0.0589099 -0.886828 -0.00682694)
(0.0655589 -0.922062 -0.119188)
(0.0634377 -0.948756 -0.197589)
(0.0603572 -0.963571 -0.24881)
(0.0522319 -0.961921 -0.279615)
(0.0420626 -0.942124 -0.293043)
(0.0294469 -0.904622 -0.28991)
(0.0238297 -0.829697 -0.250069)
(0.00743194 -0.784055 -0.329308)
(0.0436512 -0.703158 -0.225636)
(0.0477296 -0.652955 -0.211533)
(0.0449207 -0.635616 -0.232302)
(0.00471382 -0.701603 -0.325816)
(-0.0225528 -0.741335 -0.383766)
(-0.0573129 -0.776845 -0.411541)
(-0.0731953 -0.843732 -0.402404)
(-0.131829 -0.904138 -0.346835)
(-0.0938425 -0.968465 -0.332893)
(-0.0888065 -0.979168 -0.373996)
(-0.0537266 -0.917846 -0.418825)
(-0.0435283 -0.867764 -0.432657)
(-0.0177143 -0.825425 -0.404974)
(-0.00947332 -0.868821 -0.34182)
(-0.0391807 -0.901252 -0.37489)
(-0.0559067 -0.948021 -0.397402)
(-0.0235799 -0.991019 -0.406512)
(-0.0485454 -1.05935 -0.421376)
(-0.066555 -1.04203 -0.424971)
(-0.0932976 -0.919909 -0.345834)
(-0.18633 -0.761452 -0.225301)
(-0.197568 -0.614428 -0.0417791)
(-0.0995702 -0.733083 -0.198122)
(-0.0793925 -0.839055 -0.260751)
(-0.0592986 -0.928236 -0.324608)
(-0.0609059 -0.945743 -0.335281)
(-0.0278957 -0.829013 -0.382432)
(-0.0241256 -0.72406 -0.338846)
(-0.0323118 -0.541423 -0.255836)
(-0.0166595 -0.353083 -0.165784)
(0.0354993 -0.0887674 -0.211765)
(-0.246498 -0.433192 0.0724225)
(-0.327718 -0.460843 0.0257065)
(0.218503 -0.119328 -0.243519)
(-0.173017 -0.247257 0.0426002)
(-0.218052 -0.266437 -0.11798)
(-0.258363 -0.268699 -0.104039)
(-0.208441 -0.281544 -0.021846)
(0.0810744 0.141096 -0.219675)
(0.102651 0.0599921 -0.232579)
(0.100747 -4.89566e-05 -0.26191)
(0.0958246 -0.000238666 -0.266592)
(-0.0805666 -0.429472 -0.202859)
(-0.133369 -0.449819 -0.223447)
(-0.186485 -0.458148 -0.207217)
(-0.249436 -0.444948 -0.169571)
(-0.169122 -0.547208 -0.184565)
(-0.126984 -0.559025 -0.257776)
(-0.0964592 -0.565316 -0.292216)
(-0.0609413 -0.553541 -0.29277)
(-0.0510104 -0.742513 -0.349983)
(-0.0817632 -0.757139 -0.332782)
(-0.10648 -0.769446 -0.282259)
(-0.147312 -0.759737 -0.195088)
(-0.134619 -0.82148 -0.182628)
(-0.128901 -0.882389 -0.200641)
(-0.098239 -0.905029 -0.29792)
(-0.0727894 -0.872126 -0.374529)
(-0.0493966 -0.851893 -0.401085)
(-0.0770353 -0.967389 -0.371692)
(-0.112342 -0.989114 -0.336463)
(-0.138273 -1.00937 -0.284181)
(-0.137388 -1.092 -0.347388)
(-0.0802794 -1.06633 -0.400059)
(-0.0726952 -1.14395 -0.441585)
(-0.0493993 -1.12239 -0.474272)
(-0.0268372 -1.11338 -0.459603)
(-0.00314998 -1.04155 -0.416117)
(0.0122671 -1.07348 -0.407123)
(-0.0126387 -1.15188 -0.470367)
(-0.0398947 -1.179 -0.494849)
(-0.0687188 -1.20723 -0.463567)
(-0.131767 -1.22779 -0.379534)
(-0.13511 -1.1655 -0.369642)
(-0.283936 -1.04571 -0.225514)
(-0.457785 -1.1452 -0.0769787)
(-0.464176 -1.09928 -0.0675016)
(-0.416374 -1.04496 -0.0648384)
(-0.303167 -1.03549 -0.0739358)
(-0.255918 -0.966773 -0.0641451)
(-0.309477 -0.944285 -0.0577287)
(-0.342608 -0.84851 -0.0422934)
(-0.378338 -0.71325 -0.0379641)
(-0.474076 -0.626637 -0.0367857)
(-0.410164 -0.401388 -0.0341947)
(-0.465247 -0.660633 -0.00587977)
(-0.31699 -0.457543 0.0245399)
(-0.638804 -0.39871 0.00540155)
(-0.815727 -0.379337 0.0601257)
(-0.9182 -0.384478 0.0845988)
(-0.968161 -0.397262 0.124319)
(-0.980138 -0.525277 0.0977477)
(-0.940542 -0.689338 0.0653515)
(-0.924263 -0.750057 0.0524838)
(-0.874795 -0.848343 0.0364345)
(-0.859192 -0.895485 0.0304614)
(-0.821355 -0.927752 0.00760729)
(-0.704087 -0.967363 -0.0230268)
(-0.592911 -1.00186 -0.0420333)
(-0.627153 -0.952493 -0.0172276)
(-0.485336 -0.971487 -0.0307492)
(-0.503256 -0.893238 -0.0301652)
(-0.530874 -0.79683 -0.023324)
(-0.559723 -0.730693 -0.0195171)
(-0.686825 -0.71231 -0.00981731)
(-0.675374 -0.598087 -0.00780548)
(-0.824515 -0.577178 0.0303285)
(-0.918808 -0.559559 0.0503911)
(-0.881727 -0.696969 0.023135)
(-0.800805 -0.70449 0.012185)
(-0.777934 -0.789626 0.00227225)
(-0.66132 -0.798071 -0.0107883)
(-0.636166 -0.882409 -0.017054)
(-0.748883 -0.866025 -0.0051446)
(-0.825892 -0.850436 0.0044363)
(-0.863512 -0.77288 0.0135035)
(-0.802003 -0.73879 -0.0117986)
(-0.624381 -0.61194 0.00178582)
(-0.847514 -0.65957 0.0116602)
(-0.868423 -0.518285 0.0520141)
(-0.870836 -0.379754 0.0580889)
(-0.843657 -0.282196 0.121526)
(-0.832683 -0.302211 0.0764711)
(-0.879307 -0.350615 0.0525325)
(-0.875542 -0.203888 0.128993)
(-0.894502 -0.184205 0.174038)
(-0.761007 -0.161479 0.158383)
(-0.76665 -0.129014 0.259059)
(-0.777854 -0.120716 0.301758)
(-0.821454 -0.108604 0.355103)
(-0.828883 -0.119225 0.35237)
(-0.64229 -0.18166 0.250683)
(-0.607432 -0.173576 0.24814)
(-0.567576 -0.180423 0.215301)
(-0.551215 -0.175566 0.188767)
(-0.569012 -0.191164 0.120232)
(-0.338491 -0.194686 0.0765848)
(-0.320311 -0.189183 0.101466)
(-0.329351 -0.191908 0.113845)
(-0.360646 -0.198767 0.123981)
(-0.449099 -0.216847 0.141228)
(-0.405188 -0.253313 0.0590831)
(-0.382008 -0.284855 0.0676904)
(-0.410568 -0.340904 0.0464546)
(-0.315876 -0.426726 0.0352106)
(-0.311638 -0.394189 0.0483532)
(-0.283557 -0.416033 0.0148035)
(-0.19291 -0.419279 -0.0212276)
(-0.337044 -0.253987 0.0347641)
(-0.402878 -0.330722 0.0405721)
(-0.248227 -0.457174 -0.00729626)
(-0.291613 -0.459552 -0.000387764)
(-0.451691 -0.321071 0.0714559)
(-0.524466 -0.298873 0.130846)
(-0.497976 -0.318537 0.135977)
(-0.470951 -0.3367 0.111069)
(-0.458853 -0.350532 0.0940815)
(-0.493399 -0.373082 0.00840365)
(-0.71098 -0.317732 0.0630549)
(-0.718104 -0.529711 0.0388383)
(-0.549285 -0.554223 -0.00195483)
(-0.510192 -0.606883 -0.0042318)
(-0.465993 -0.649156 -0.0177367)
(-0.437204 -0.652431 -0.0215166)
(-0.413077 -0.530878 -0.0233602)
(-0.411358 -0.540914 -0.0486881)
(-0.410245 -0.541376 -0.0346041)
(-0.335598 -0.55041 -0.017422)
(-0.267676 -0.595833 -0.00768038)
(-0.319814 -0.580781 -0.00390821)
(-0.403608 -0.512918 0.00682128)
(-0.332139 -0.535319 -0.00448426)
(-0.439025 -0.630274 -0.0121195)
(-0.293066 -0.473171 -0.00545057)
(-0.210561 -0.539643 -0.0186817)
(-0.281356 -0.524557 -0.0166357)
(-0.394605 -0.436023 -0.00100634)
(-0.414037 -0.362709 -0.010669)
(-0.260731 -0.394185 -0.0113554)
(-0.157123 -0.422816 -0.0367339)
(-0.136506 -0.399373 -0.0230631)
(-0.238297 -0.205249 0.0219906)
(-0.382798 -0.342847 -0.00231464)
(-0.251988 -0.474511 -0.0200943)
(-0.219277 -0.467919 -0.0240408)
(-0.122218 -0.392709 -0.0304383)
(-0.219293 -0.194389 0.0388226)
(-0.347012 -0.337903 0.0118662)
(-0.366329 -0.363216 0.0539452)
(-0.195988 -0.511026 -0.0112409)
(-0.17422 -0.467981 0.0182571)
(-0.110078 -0.420114 0.00143923)
(-0.222403 -0.228987 0.0443348)
(-0.326006 -0.341835 0.05207)
(-0.335143 -0.338914 0.056647)
(-0.180701 -0.463169 0.0162721)
(-0.109391 -0.40888 -0.000409453)
(-0.23198 -0.220397 0.061722)
(-0.286014 -0.221411 0.0770622)
(-0.240514 -0.230193 0.0707855)
(-0.350408 -0.336962 0.0781085)
(-0.189785 -0.465271 0.0478661)
(-0.11792 -0.415583 0.0368164)
(-0.140612 -0.44967 -0.00442511)
(-0.196601 -0.49756 0.0252516)
(-0.381778 -0.350628 0.0788339)
(-0.334461 -0.6254 -0.00394867)
(-0.35587 -0.632098 -0.0119263)
(-0.499503 -0.511814 0.0577441)
(-0.651493 -0.444648 0.0982043)
(-0.666924 -0.286736 0.13625)
(-0.79834 -0.271548 0.170441)
(-0.891026 -0.320713 0.16634)
(-1.02112 -0.488823 0.125978)
(-1.1079 -0.495145 0.167709)
(-1.13277 -0.502771 0.192872)
(-1.1128 -0.505127 0.215867)
(-1.04952 -0.50141 0.238746)
(-0.94395 -0.490464 0.260628)
(-0.795057 -0.467137 0.287214)
(-0.640446 -0.432067 0.326751)
(-0.397891 -0.380635 0.395255)
(-0.163945 -0.292378 0.482926)
(0.0398421 -0.150164 0.487052)
(0.33546 -0.158339 0.428333)
(0.336556 -0.216741 0.378512)
(0.204754 -0.127213 0.487964)
(0.272138 -0.00255332 0.76697)
(0.283333 0.0468331 1.03249)
(0.268599 0.0817337 1.14231)
(0.250671 0.13413 1.09181)
(0.212875 0.123269 0.954901)
(0.142397 0.121386 0.703417)
(0.0394826 0.187019 0.404221)
(0.174468 0.512524 0.424851)
(0.419892 0.513632 0.3743)
(0.605604 0.538586 0.375665)
(0.850361 0.497959 0.351387)
(1.00911 0.417621 0.317459)
(1.07454 0.323438 0.273569)
(1.06001 0.256133 0.233672)
(1.01199 0.211102 0.197844)
(1.03167 0.158635 0.166652)
(1.04494 0.118727 0.143842)
(0.985727 0.0928258 0.0904472)
(0.880977 0.0424172 0.0677817)
(0.715912 -0.0225999 0.0543908)
(0.47126 -0.109658 0.0208583)
(0.244017 -0.217318 -0.0214756)
(0.103917 -0.623083 -0.109393)
(0.179227 -0.385404 -0.0798587)
(-0.17787 -0.172619 0.00769309)
(-0.099472 -0.391911 -0.0371343)
(-0.108742 -0.311752 -0.0635671)
(-0.11075 -0.336805 -0.0720278)
(-0.108193 -0.295032 -0.0625146)
(-0.0761813 -0.218243 -0.0565519)
(-0.142513 -0.172592 -0.0394111)
(-0.220239 0.150608 0.12332)
(-0.139183 0.438624 0.11507)
(-0.0371073 0.55406 0.0668882)
(0.0441034 0.629314 0.105424)
(0.131569 0.679899 0.205103)
(0.224941 0.736351 0.302041)
(0.31552 0.772461 0.338478)
(0.397754 0.768116 0.366916)
(0.474768 0.702627 0.374155)
(0.54021 0.56137 0.370793)
(0.592632 0.337858 0.336943)
(0.572317 0.00455415 0.263339)
(0.394744 -0.335628 0.258949)
(0.29409 -0.334525 0.32149)
(0.228405 -0.288854 0.330625)
(0.161129 -0.198228 0.33593)
(0.147681 -0.00166881 0.313161)
(0.289061 0.00901174 0.340284)
(0.45164 -0.157786 0.3311)
(0.60384 -0.25518 0.342749)
(0.642771 -0.344288 0.351802)
(0.623368 -0.436287 0.353701)
(0.476534 -0.541327 0.334934)
(0.106953 -0.56621 0.317047)
(-0.171371 -0.298339 0.302885)
(-0.037892 -0.128232 0.355898)
(0.231019 -0.152411 0.237691)
(0.282306 -0.404209 0.072432)
(0.00904265 -0.519764 0.238212)
(-0.141133 -0.749104 -0.141712)
(0.2008 -0.720237 -0.480686)
(0.308773 -0.393271 -0.177325)
(0.332038 -0.374992 0.0932632)
(0.345086 -0.545055 0.183612)
(0.326919 -0.88981 0.119912)
(0.531532 -0.872456 0.0648091)
(0.610874 -0.691697 0.0985753)
(0.576564 -0.537948 0.138548)
(0.507081 -0.395488 0.189019)
(0.337944 -0.23028 0.24717)
(0.36259 -0.346009 0.195802)
(0.426463 -0.376603 0.143009)
(0.507918 -0.362572 0.0808092)
(0.619724 -0.295413 -0.0564124)
(0.865321 0.193989 -0.118579)
(0.909428 0.478627 -0.023428)
(0.854853 0.682893 0.0466847)
(0.757389 0.787147 0.0897624)
(0.632134 0.815917 0.13544)
(0.489699 0.785919 0.156224)
(0.332127 0.72379 0.174762)
(0.167273 0.644922 0.131788)
(-0.0075404 0.574724 0.0703585)
(-0.149734 0.50888 0.0553068)
(-0.290612 0.407261 0.114658)
(-0.409074 0.186695 0.147122)
(-0.284932 -0.127344 0.00677298)
(-0.399698 -0.0408598 0.0474145)
(-0.482506 0.0161366 0.0745529)
(-0.543415 0.130155 0.114969)
(-0.540882 0.0893425 0.0909946)
(-0.499563 -0.0420356 0.0215483)
(-0.458133 -0.101192 0.011744)
(-0.390391 -0.15554 -0.0108954)
(-0.294126 -0.212543 -0.0253539)
(-0.189071 -0.242739 -0.0382253)
(-0.141076 -0.214858 -0.0296647)
(-0.195501 -0.183078 -0.0268313)
(-0.183944 -0.334864 -0.0400442)
(-0.123166 -0.328085 -0.0467917)
(-0.100469 -0.346346 -0.0738191)
(-0.0783681 -0.380232 -0.106463)
(-0.0483036 -0.565766 -0.222986)
(-0.087359 -0.503083 -0.159412)
(-0.105362 -0.594647 -0.12663)
(-0.159064 -0.560031 -0.0731882)
(-0.22525 -0.448015 -0.0386706)
(-0.306158 -0.0989008 0.034289)
(-0.183052 0.321738 0.178821)
(-0.0725204 0.441319 0.310201)
(0.00991506 0.514721 0.447363)
(0.0770103 0.501988 0.563605)
(0.14537 0.436433 0.624374)
(0.199218 0.322364 0.654497)
(0.249331 0.166398 0.627376)
(0.235315 -0.0128857 0.531953)
(0.104172 -0.135588 0.439763)
(-0.0128835 -0.0982025 0.44927)
(-0.0328058 0.0168851 0.425594)
(-0.0340602 0.139568 0.426249)
(0.0374052 0.245397 0.366214)
(0.199281 0.13655 0.380989)
(0.156933 0.273237 0.449808)
(-0.0606331 0.173311 -0.0672085)
(-0.173693 -0.067168 -0.641924)
(-0.180682 -0.307268 -0.537497)
(-0.168154 -0.343489 -0.301887)
(-0.145016 -0.301767 -0.093768)
(-0.0618829 -0.584913 -0.106611)
(-0.0277788 -0.86237 -0.0940942)
(0.00240176 -1.01971 -0.0916309)
(0.032811 -1.1436 -0.100793)
(0.0661285 -1.22757 -0.115147)
(0.0965534 -1.28048 -0.129254)
(0.123089 -1.30698 -0.14115)
(0.146991 -1.31538 -0.153108)
(0.167804 -1.31318 -0.165641)
(0.186036 -1.30382 -0.176453)
(0.201674 -1.28881 -0.184917)
(0.215654 -1.26867 -0.190054)
(0.228059 -1.24311 -0.192719)
(0.239398 -1.21091 -0.191533)
(0.249022 -1.17098 -0.186406)
(0.254812 -1.12109 -0.175607)
(0.251916 -1.05845 -0.158966)
(0.194798 -0.995629 -0.139079)
(0.13979 -0.910917 -0.122803)
(0.164422 -0.827071 -0.0870305)
(0.187717 -0.726731 -0.0882602)
(0.203871 -0.558261 -0.0881519)
(0.246713 -0.441512 -0.0844703)
(0.0720756 -0.0296163 -0.0955429)
(0.365812 -0.297847 0.0435456)
(0.245705 -0.550398 -0.0572392)
(0.286053 -0.0946001 -0.0270016)
(0.180701 -0.0368194 -0.14754)
(0.201517 -0.112247 -0.125047)
(0.194317 -0.11913 -0.0815311)