/*--------------------------------*- C++ -*----------------------------------*\
| =========                 |                                                 |
| \\      /  F ield         | OpenFOAM: The Open Source CFD Toolbox           |
|  \\    /   O peration     | Version:  v2012                                 |
|   \\  /    A nd           | Website:  www.openfoam.com                      |
|    \\/     M anipulation  |                                                 |
\*---------------------------------------------------------------------------*/
FoamFile
{
    version     2.0;
    format      ascii;
    class       volScalarField;
    location    "675";
    object      epsilon;
}
// * * * * * * * * * * * * * * * * * * * * * * * * * * * * * * * * * * * * * //

dimensions      [0 2 -3 0 0 0 0];


internalField   nonuniform List<scalar> 
18258
(
0.0239831
0.0122333
0.0091045
0.00715614
0.0126378
0.0125108
0.0129716
0.0173029
0.0241065
0.0369378
0.0535089
0.0481218
0.0435185
0.0452773
0.0474566
0.0450314
0.0351023
0.0303556
0.0399888
0.0666783
0.0607462
0.0496523
0.0607319
0.0513725
0.0657149
0.0830352
0.0637095
0.0572113
0.0513056
0.0482713
0.0418181
0.0241742
0.0340926
0.0525138
0.0719366
0.0787368
0.0844874
0.0893525
0.0945408
0.0967065
0.0969878
0.0917892
0.0826112
0.0674741
0.0494583
0.0378499
0.0292106
0.0320412
0.0447385
0.0451991
0.0558394
0.0857873
0.10824
0.0811056
0.0518808
0.0826729
0.112677
0.144445
0.170936
0.193351
0.201033
0.197579
0.186028
0.169285
0.147835
0.122851
0.10187
0.0849598
0.0671818
0.0573892
0.0464459
0.0385383
0.0329745
0.0293164
0.0271164
0.0253873
0.0242201
0.0251534
0.0250405
0.0178581
0.014049
0.0131996
0.00944446
0.00785072
0.00817019
0.00777264
0.0080742
0.00712932
0.00610382
0.00529586
0.00448627
0.00652619
0.0070182
0.00725852
0.00727735
0.00780305
0.00806577
0.00780289
0.00789977
0.00723386
0.00736987
0.011859
0.013658
0.017335
0.015458
0.0106748
0.00911396
0.0101541
0.0107794
0.0133849
0.0125785
0.0133638
0.0118546
0.0108205
0.00914172
0.00888321
0.00912328
0.00969781
0.0101068
0.011713
0.0115397
0.0106978
0.0118357
0.0130627
0.0127918
0.0122448
0.0116606
0.0143095
0.0115078
0.0121943
0.013696
0.0220665
0.0215918
0.0260834
0.0256046
0.026052
0.0262369
0.0316343
0.0317558
0.0321267
0.0324465
0.0341375
0.0572302
0.0510073
0.0499041
0.0497104
0.043019
0.042549
0.0418502
0.0426657
0.0361859
0.0348341
0.0315825
0.0312156
0.0348247
0.0439763
0.0614802
0.0887593
0.122728
0.159094
0.189391
0.210414
0.232164
0.237632
0.251542
0.256276
0.257183
0.251495
0.243081
0.233613
0.220766
0.202224
0.189363
0.148885
0.105397
0.0592628
0.0786752
0.0907506
0.100501
0.102351
0.103459
0.0993221
0.0930138
0.0817954
0.0662032
0.0429889
0.0488658
0.0661129
0.0683598
0.0690562
0.0547616
0.0526787
0.0488924
0.0488602
0.0641555
0.0736697
0.0619448
0.0857072
0.10068
0.0880281
0.063811
0.0977265
0.143674
0.0808675
0.0688136
0.0533786
0.0524115
0.0443279
0.0372494
0.0627561
0.0938434
0.129181
0.150497
0.172414
0.190118
0.203513
0.217688
0.189226
0.171907
0.115678
0.202866
0.154096
0.0779354
0.0577003
0.0564964
0.0439736
0.0501581
0.055528
0.0514373
0.0393625
0.0274369
0.0251618
0.0463835
0.0645829
0.0780183
0.0621384
0.0790427
0.0890181
0.0963131
0.101625
0.12893
0.0948893
0.106271
0.0762152
0.103438
0.0735015
0.0474439
0.0527882
0.100898
0.16103
0.220982
0.258367
0.147142
0.0744844
0.0553523
0.0556532
0.0535101
0.0482684
0.0599371
0.10663
0.072014
0.0467264
0.0405967
0.0480269
0.0409953
0.0305056
0.0319356
0.0396459
0.0550978
0.0694736
0.0823575
0.12602
0.122221
0.147537
0.154932
0.130555
0.126217
0.0815734
0.083705
0.123393
0.0920196
0.0744198
0.104489
0.147705
0.201977
0.248311
0.288749
0.314662
0.304052
0.275083
0.17399
0.0762044
0.022948
0.0178248
0.0168602
0.017335
0.0105343
0.00631151
0.00586742
0.00668813
0.00703001
0.00591905
0.00544604
0.00543606
0.00578739
0.0101871
0.0087535
0.0108332
0.0131269
0.0156782
0.0187256
0.0194551
0.0129091
0.00873794
0.0081998
0.00813523
0.00806611
0.00803651
0.00804806
0.00808845
0.00810445
0.00807226
0.00799372
0.00785674
0.00772136
0.00766429
0.00830149
0.0111957
0.0153619
0.014852
0.013561
0.0122041
0.0110411
0.0087101
0.0151583
0.0128506
0.0109419
0.0134045
0.016514
0.0208721
0.0245259
0.0176922
0.0141647
0.0128202
0.0126952
0.0125821
0.0126292
0.0125088
0.0125768
0.0123818
0.0129853
0.0135878
0.0169839
0.0190084
0.0211836
0.0226785
0.0232559
0.0239706
0.0211406
0.0229546
0.0227281
0.0235098
0.0233251
0.0226389
0.0207258
0.0189397
0.0177218
0.01914
0.0237125
0.0323775
0.0267678
0.0207758
0.0168115
0.0137509
0.0150178
0.0166939
0.0168695
0.0158817
0.0156492
0.0154404
0.013921
0.0131379
0.0111221
0.01051
0.0100421
0.0101895
0.014366
0.0135198
0.0137291
0.0144662
0.0155719
0.0147291
0.0151621
0.0143099
0.0145576
0.014979
0.0170408
0.0186031
0.0178425
0.01652
0.0160232
0.0137531
0.0158633
0.0157246
0.0170456
0.018633
0.0191263
0.0190613
0.0184232
0.0168271
0.0187207
0.0220934
0.0257494
0.0247469
0.0244207
0.0204708
0.0192658
0.0202354
0.0215049
0.0224094
0.0224829
0.0223178
0.0224114
0.026429
0.0260942
0.0248867
0.0228083
0.020352
0.0177079
0.015237
0.0167108
0.0181924
0.0195836
0.0208522
0.0206076
0.0190832
0.0177253
0.0164949
0.0150018
0.0147095
0.0161626
0.0173835
0.0188125
0.0205224
0.0205946
0.0188858
0.0173935
0.016113
0.0146397
0.0145887
0.0160886
0.017385
0.0187995
0.02028
0.0196489
0.0184967
0.0172482
0.0160072
0.0145552
0.0146215
0.015943
0.0170107
0.0180927
0.0190413
0.019898
0.0179358
0.0170263
0.0171206
0.0161331
0.0193206
0.0185624
0.0195051
0.018051
0.0168245
0.0178302
0.0210254
0.0240634
0.0246161
0.0243364
0.0201989
0.0206551
0.0206317
0.019211
0.0159824
0.0153854
0.0181642
0.02091
0.0213743
0.0200605
0.0169479
0.0133026
0.0143269
0.017498
0.0198156
0.0185541
0.0183922
0.0169746
0.015895
0.0161953
0.0139133
0.0166517
0.0267485
0.0242095
0.0221938
0.0197263
0.0157105
0.0106333
0.0115342
0.0126958
0.0131123
0.0105963
0.00793178
0.00712161
0.0069277
0.00676942
0.00655126
0.00618394
0.00562784
0.00538301
0.010572
0.0255629
0.0363888
0.0357916
0.0241034
0.0207178
0.0199793
0.0184238
0.00880958
0.0081714
0.00838005
0.0103769
0.00821917
0.00828138
0.014349
0.00997099
0.0137141
0.0106866
0.014643
0.0229243
0.021657
0.0143129
0.00800907
0.00690465
0.00739544
0.00767776
0.00788156
0.00807861
0.00831304
0.00870086
0.0100267
0.015769
0.020356
0.0178092
0.0168203
0.015342
0.0188899
0.0213721
0.0233089
0.0260713
0.0161137
0.011802
0.0166543
0.0273005
0.0247887
0.0233339
0.0171878
0.0177279
0.0171517
0.0110276
0.0106801
0.010596
0.0114097
0.0128015
0.0147272
0.0158801
0.0166276
0.0169579
0.0178712
0.0231378
0.0216483
0.0211311
0.0173431
0.0134353
0.0154334
0.051698
0.019592
0.0207046
0.0189165
0.0191837
0.0204709
0.0151591
0.0135065
0.0129362
0.0146361
0.0215298
0.021545
0.0214108
0.0182751
0.0174903
0.0209234
0.0220117
0.0224067
0.0217877
0.0213501
0.0194862
0.0167017
0.0181337
0.0196525
0.0208486
0.0228566
0.023195
0.0179765
0.0172524
0.0158564
0.010556
0.0112996
0.00973493
0.00970497
0.00967184
0.00939899
0.00894827
0.00923596
0.00935249
0.00935016
0.00900345
0.00930126
0.00835016
0.00868663
0.00977918
0.0152301
0.0147957
0.0175951
0.0195066
0.0167499
0.0155898
0.0142263
0.0132025
0.0154581
0.0142953
0.0168734
0.02123
0.0265265
0.0191508
0.018154
0.0179298
0.0175238
0.0173651
0.0174174
0.0167223
0.0157179
0.0151492
0.0236085
0.0213053
0.018179
0.0172289
0.0157946
0.0180494
0.0174918
0.021395
0.0268854
0.0270897
0.0215625
0.0216401
0.0189802
0.0200866
0.0222792
0.0271251
0.0270494
0.0144532
0.00960939
0.0154564
0.0157976
0.0184096
0.0170239
0.0185535
0.0197347
0.020464
0.0203222
0.0177183
0.0188968
0.0196864
0.0206741
0.0186172
0.0166102
0.017401
0.0161768
0.0152749
0.0147725
0.0126953
0.0129435
0.0139183
0.0153721
0.0163152
0.0178127
0.0194731
0.0195004
0.0201716
0.0197667
0.0191632
0.0252716
0.0240283
0.0255706
0.0282889
0.0224848
0.0178402
0.01471
0.0150245
0.0147904
0.0146983
0.0154382
0.0167991
0.015175
0.0145555
0.0170755
0.0194436
0.0247228
0.033119
0.0288543
0.0262643
0.033272
0.0314229
0.0382996
0.0287177
0.0281834
0.0208889
0.0263247
0.0305397
0.0392693
0.0255564
0.0209904
0.022444
0.025563
0.0348251
0.0328436
0.0332222
0.041258
0.0400199
0.0362402
0.0312093
0.0354203
0.0212866
0.0302337
0.0322678
0.0268434
0.0257462
0.0307996
0.0311239
0.0330571
0.0283994
0.0268103
0.0179452
0.0274998
0.0314465
0.0331431
0.0278706
0.0205483
0.0280609
0.0205861
0.0192201
0.020333
0.0137981
0.0127431
0.0148196
0.0138891
0.0112121
0.012163
0.0111829
0.0111714
0.0112546
0.0113724
0.0115083
0.0117691
0.0117412
0.0127766
0.0133663
0.0126646
0.0115921
0.0122387
0.0125772
0.0160995
0.0181885
0.0204518
0.0220395
0.0228785
0.0240303
0.0227696
0.0248555
0.023752
0.0252585
0.0249792
0.0239136
0.0213844
0.0187353
0.0163232
0.0167966
0.0204363
0.0268385
0.0219737
0.0170088
0.0137496
0.0113857
0.012677
0.0158667
0.0086122
0.00785797
0.00755793
0.00737158
0.00720019
0.00634517
0.0057071
0.00874377
0.0131228
0.0163853
0.0204116
0.0259973
0.0321045
0.0374343
0.0414699
0.0443441
0.0461127
0.0465488
0.0436502
0.0332592
0.0286347
0.0246445
0.0204395
0.0167024
0.0168989
0.0245716
0.0321733
0.0396622
0.0462596
0.051189
0.0492842
0.0331339
0.030229
0.0466718
0.0782924
0.0741269
0.097231
0.110915
0.0631627
0.046692
0.0454924
0.0620629
0.0646787
0.0566359
0.0466638
0.036442
0.0263111
0.0307003
0.0350139
0.0391359
0.0434915
0.0573925
0.0604456
0.0592498
0.0566845
0.0532802
0.0485143
0.0414599
0.0329321
0.0250017
0.0191052
0.0145065
0.00952351
0.00716157
0.00811159
0.0074379
0.0107384
0.00937978
0.00826076
0.00789113
0.00813791
0.00800516
0.00818191
0.00723431
0.00651473
0.0103609
0.00953456
0.00949311
0.0101276
0.01341
0.0103278
0.0076467
0.00721122
0.00713324
0.00735116
0.0160618
0.025052
0.0304491
0.0350583
0.038489
0.0370224
0.0335379
0.0278552
0.021967
0.0198298
0.016923
0.0144599
0.0132931
0.0146101
0.012096
0.00616014
0.0051502
0.00567084
0.00555914
0.00509291
0.00611654
0.00680533
0.00741908
0.00784374
0.00815594
0.00821776
0.00815729
0.00806819
0.00802509
0.00800614
0.00797891
0.00791527
0.007821
0.00767999
0.00754468
0.00748178
0.00807598
0.0106865
0.0146004
0.0143645
0.0132534
0.0121453
0.0112851
0.00956154
0.0153928
0.0130723
0.0109606
0.0101392
0.00999872
0.0103004
0.0112749
0.0129251
0.0138519
0.0158614
0.0158974
0.0157862
0.0160656
0.0158501
0.0131626
0.0149284
0.0177027
0.018539
0.019167
0.0189478
0.0174174
0.019431
0.0205609
0.0199874
0.0193651
0.0164446
0.0191415
0.023197
0.0236531
0.0239564
0.021308
0.0184849
0.0216388
0.0227881
0.0223507
0.0232133
0.021334
0.0220487
0.0277931
0.0141543
0.0127669
0.00767328
0.00868407
0.00884953
0.0084818
0.00819621
0.00853342
0.00878989
0.00861346
0.00928553
0.00959501
0.00893809
0.0114315
0.0105055
0.0100921
0.00946263
0.0100553
0.010784
0.011135
0.0121789
0.0195373
0.0199753
0.0182145
0.0206419
0.0212371
0.0180136
0.020432
0.0212977
0.0215368
0.0218761
0.0234355
0.0220918
0.0244306
0.0235951
0.0223115
0.0215381
0.0382453
0.0252495
0.016637
0.0153379
0.0149783
0.0150464
0.0169537
0.012786
0.0143225
0.010124
0.00876458
0.00838876
0.00808395
0.00819925
0.0108646
0.0169896
0.0251701
0.0279988
0.0268335
0.0234749
0.0179947
0.0134997
0.0131917
0.0119741
0.0111959
0.0110839
0.0075073
0.00514273
0.006421
0.00655848
0.00713851
0.00755012
0.00788657
0.00814104
0.00828214
0.00835532
0.00843838
0.00855916
0.00869042
0.00880387
0.00889332
0.00895832
0.0090265
0.00915217
0.00946433
0.0106742
0.0153214
0.0197042
0.0185798
0.0171162
0.0158113
0.0165753
0.0173273
0.0180438
0.022223
0.0191215
0.0220102
0.020706
0.019723
0.0183079
0.0190497
0.0208348
0.0166413
0.0165844
0.0113383
0.00989424
0.00950948
0.00928775
0.00911333
0.00894038
0.00876851
0.00861522
0.00847117
0.00834632
0.0082485
0.00815948
0.00801508
0.00776401
0.00736339
0.00691792
0.00610463
0.00674876
0.0072792
0.00830843
0.00951749
0.0101
0.00951679
0.00872283
0.00837448
0.00850781
0.00869735
0.00890615
0.00914345
0.00946909
0.00994826
0.0109335
0.0116065
0.016277
0.0170224
0.0202409
0.0200408
0.0179516
0.0173065
0.0189113
0.0174273
0.0126698
0.0173824
0.0169092
0.0211681
0.0157267
0.0148415
0.0152656
0.0157497
0.0183804
0.0172874
0.0158008
0.015765
0.0126595
0.0142434
0.0162526
0.0177316
0.0279475
0.0274023
0.0344543
0.0343738
0.0592528
0.0564046
0.0497436
0.0537652
0.02376
0.0464037
0.0542537
0.0494712
0.0429445
0.0273726
0.0437211
0.0665195
0.096269
0.0694482
0.0567958
0.105459
0.0766771
0.0373802
0.0266041
0.0150207
0.0151031
0.02506
0.0290979
0.0241208
0.0232785
0.0334349
0.0347986
0.0280348
0.0286971
0.0310732
0.0300047
0.0324681
0.0281089
0.0274006
0.0155442
0.0127615
0.0138001
0.0155433
0.0165638
0.0160603
0.0168996
0.0175648
0.0161134
0.0150781
0.0145117
0.0124422
0.0131784
0.0161627
0.020379
0.023888
0.017255
0.0138678
0.0125723
0.0123779
0.0121497
0.0120274
0.0117025
0.0115111
0.0110369
0.0112388
0.00978067
0.00979875
0.0103426
0.010513
0.0107235
0.0108872
0.0110151
0.0111295
0.0119881
0.0187502
0.0259319
0.0207484
0.0164411
0.013959
0.0151496
0.0170755
0.02098
0.0264022
0.0178341
0.0176572
0.0115175
0.0107448
0.0105329
0.010355
0.0101977
0.0100942
0.0101503
0.0101506
0.0118894
0.0115912
0.0136098
0.0146755
0.0121213
0.011687
0.0112121
0.0109226
0.0107624
0.0106756
0.010763
0.0116233
0.0114567
0.0105284
0.0104361
0.0105585
0.0107746
0.0111006
0.0115508
0.0120582
0.0129795
0.0127621
0.011227
0.0112015
0.0105435
0.0102396
0.0100116
0.0099953
0.0100496
0.0101955
0.0104213
0.0113261
0.0171199
0.0173032
0.026624
0.0266011
0.0211436
0.0176665
0.0155097
0.0142558
0.0135245
0.0350891
0.0308157
0.0487104
0.0389223
0.0311849
0.0505697
0.0718771
0.0558504
0.0908294
0.0981592
0.0723992
0.0654863
0.0208909
0.0159235
0.0154215
0.0169126
0.0186084
0.0212484
0.0218384
0.0266581
0.0287571
0.0171784
0.0164986
0.0155785
0.0248618
0.0230316
0.0196595
0.0177721
0.0163835
0.0189247
0.0207227
0.0149692
0.0150198
0.00967704
0.0106836
0.0104261
0.0100855
0.00996429
0.00988484
0.00991664
0.0100075
0.0102883
0.0107803
0.0111629
0.0113199
0.0116315
0.0114135
0.0111436
0.010826
0.0106377
0.010448
0.0102919
0.0101708
0.0102033
0.0105187
0.0106628
0.00935606
0.00970241
0.00981153
0.00982328
0.00985469
0.00981836
0.00967882
0.00946866
0.00926432
0.0090524
0.00909013
0.00989961
0.0100547
0.0101167
0.00996547
0.00984977
0.00984505
0.00978384
0.00977356
0.00976912
0.00964826
0.00933572
0.00861024
0.00845861
0.00906281
0.00940694
0.00958368
0.00966223
0.00964347
0.00958555
0.00934953
0.00917225
0.00895791
0.00861027
0.00813977
0.00672903
0.00701502
0.00737598
0.00788157
0.00840253
0.00885905
0.00916605
0.00932819
0.00942073
0.00933922
0.00904775
0.00852001
0.00846536
0.00885548
0.00903365
0.00898933
0.00872176
0.00830363
0.00773382
0.00702781
0.00634684
0.00583537
0.00561113
0.00522959
0.00652332
0.00712622
0.00768098
0.00819392
0.00868055
0.00920446
0.0094072
0.00946446
0.0094473
0.00929317
0.00896328
0.00843546
0.00843786
0.00891408
0.00922383
0.00934765
0.00932475
0.00914337
0.00873781
0.00782112
0.00701041
0.00635497
0.00576534
0.0051722
0.00515713
0.00541312
0.00515011
0.00532445
0.00588948
0.00668569
0.00746386
0.00808051
0.00851468
0.00870397
0.00865694
0.00840751
0.0083084
0.00842805
0.00836572
0.0080548
0.00748241
0.00673515
0.00594156
0.00532603
0.00517065
0.00551737
0.00585343
0.00554063
0.00435768
0.00490192
0.00546319
0.00605568
0.00697316
0.00815998
0.0087454
0.00906306
0.00922201
0.00915581
0.00886663
0.00842675
0.00840342
0.00882738
0.00911031
0.00916042
0.00902098
0.00874826
0.00826884
0.00683224
0.00535983
0.00472959
0.00437523
0.00394319
0.00561704
0.00598483
0.00555696
0.00527752
0.00571073
0.00624023
0.00685349
0.00736123
0.00778856
0.00809751
0.00820546
0.00817878
0.00804555
0.00804411
0.00798479
0.00777934
0.00753916
0.00733971
0.00691604
0.00647031
0.0059311
0.00648941
0.00678812
0.00635729
0.00465425
0.0049405
0.00540896
0.00570015
0.00716517
0.00859368
0.00897331
0.00909778
0.00922406
0.00914532
0.00882245
0.00837848
0.0083593
0.00888586
0.00929524
0.00944768
0.00956702
0.0097125
0.00984086
0.00869316
0.00677678
0.00629546
0.00526071
0.00480819
0.0066773
0.00710224
0.00688608
0.00661657
0.00757266
0.00796686
0.00810429
0.00811067
0.00811463
0.00808321
0.00799395
0.007929
0.0078146
0.00825122
0.00888723
0.00879536
0.00870599
0.00855373
0.00819695
0.00774521
0.00721707
0.00790633
0.00848635
0.00819861
0.0059518
0.00632557
0.00726721
0.00747292
0.00902541
0.0102022
0.0105143
0.0104667
0.0103185
0.0102699
0.00924966
0.00832053
0.0081683
0.00952308
0.0154525
0.0152797
0.0152885
0.0152019
0.0146344
0.014461
0.0139004
0.0136439
0.01296
0.0125188
0.0118565
0.0138513
0.0175253
0.0195784
0.0219355
0.024411
0.0231476
0.0187464
0.0165812
0.0101956
0.00803625
0.00692603
0.00599282
0.00528921
0.00507911
0.00748072
0.00930323
0.0114266
0.013348
0.0136975
0.0161113
0.0200378
0.0305222
0.0485393
0.0409831
0.0386907
0.0390209
0.0969713
2.54661
2.735
2.49194
2.89514
3.34066
0.390385
0.151892
0.284579
0.306155
0.345894
0.324849
0.292898
0.267793
0.277338
0.266101
0.275782
0.256684
0.263145
0.229501
0.233852
0.235241
0.655636
1.01573
1.23068
1.72178
1.73063
1.9524
1.9068
1.92741
1.78071
1.89537
1.6473
1.36573
1.28959
1.21705
1.30591
1.41858
1.23175
1.11631
1.00266
0.912091
0.779881
0.989053
0.75049
0.709224
0.707679
0.73913
0.984319
0.896747
1.0331
0.968449
1.01987
0.624227
0.703603
0.517365
0.4318
0.358252
0.435411
0.586331
0.779286
0.965023
0.732892
0.98532
0.9017
0.880819
0.838809
0.764055
0.725669
0.713734
0.734918
0.747713
0.763153
0.790751
0.811845
0.830444
0.980599
1.0448
1.03533
0.84836
0.759618
0.526148
0.563377
0.597588
0.601338
0.561063
0.542525
0.490827
0.478368
0.43337
0.414867
0.376451
0.357731
0.32575
0.451336
0.7725
0.802313
0.871473
0.924681
0.973754
0.99532
1.01137
0.993954
0.960394
0.891598
0.861877
0.799671
0.905422
1.08861
1.08787
1.00022
0.848833
0.80392
3.73951
4.54701
3.01165
6.48513
9.83208
16.477
7.56093
2.06267
3.43901
2.36239
2.09662
2.04318
2.15604
3.39655
2.48574
3.25686
2.70844
2.88271
2.26646
2.5978
2.49486
1.91994
1.62263
1.38019
1.28999
1.05432
1.06279
0.865376
0.805831
0.72231
0.589427
0.711427
0.696563
1.61779
2.25752
2.82065
4.43139
4.86393
5.31753
8.39902
6.81871
8.55253
5.09486
5.13767
3.79828
3.57236
3.6096
4.96187
7.07656
4.87927
8.50827
4.74813
15.4748
34.574
9.18729
18.9418
10.9241
9.87802
9.51942
9.80544
13.9225
9.49986
15.4641
13.013
17.3574
16.9145
18.1594
14.2164
10.5546
11.652
12.5943
16.1906
11.597
13.573
10.3523
10.1249
9.34159
7.67197
6.67082
5.06981
5.92178
6.94938
7.89924
12.4937
15.6865
18.0505
21.756
16.0943
18.368
11.0642
12.1259
9.37087
8.78942
8.91746
11.7312
20.8275
14.7649
26.9237
0.496025
0.225728
0.543439
0.229162
0.48648
0.389977
0.402501
0.403424
0.398995
0.459997
0.219751
0.184847
0.177144
0.175013
0.17653
0.100111
0.124286
0.0803375
0.126838
0.22895
0.502572
0.364889
0.140387
0.0825568
0.0545528
0.0429084
0.0633935
0.0611864
0.0978452
0.0991913
0.105477
0.131908
0.227634
0.431993
31.629
7.07833
1.11729
0.523129
0.280117
0.171643
0.146933
0.165895
0.178243
0.180758
0.169515
0.143747
0.102928
0.0679372
0.045416
0.0381559
0.0278836
0.0287704
0.0398189
0.0534876
0.0495147
0.0652321
0.0836713
0.106469
0.130717
0.150032
0.164565
0.168551
0.156503
0.122495
0.0806429
0.0444358
0.0265413
0.0228772
0.0209387
0.01944
0.016786
0.0145554
0.0131361
0.0112299
0.00990317
0.00893943
0.00863476
0.0087613
0.00956787
0.0121038
0.0145679
0.0188643
0.0179872
0.0134683
0.0126209
0.00781939
0.00722967
0.00737856
0.00763094
0.00845224
0.0132214
0.0135318
0.0134111
0.0134458
0.0132657
0.0132597
0.0130923
0.0129333
0.0127153
0.0122999
0.0120093
0.0114881
0.0112024
0.0105238
0.0105515
0.0109313
0.0112379
0.0101666
0.0100584
0.00935845
0.0207729
0.0493152
0.0703182
0.0787943
0.0885842
0.08126
0.0420884
0.023169
0.00795293
0.00773804
0.00823573
0.008902
0.00844618
0.00615704
0.00669857
0.00797186
0.0111802
0.0111288
0.0111607
0.0130091
0.0135516
0.0148919
0.0154361
0.0157955
0.0160192
0.0159166
0.0160387
0.0157292
0.0158157
0.0155995
0.0156851
0.0152805
0.0271376
0.0255566
0.0262883
0.0263484
0.0275921
0.0271106
0.0266747
0.0257023
0.0250207
0.0234992
0.0219411
0.0203535
0.0182385
0.0189786
0.0183271
0.0114106
0.0108293
0.00777735
0.0077007
0.00740406
0.0103223
0.00938139
0.00788825
0.00927761
0.00674922
0.00692292
0.00733843
0.0104804
0.0110094
0.0175639
0.0175433
0.0155599
0.0165401
0.0175823
0.0189172
0.0200526
0.0214657
0.0224502
0.0235256
0.0253556
0.0257313
0.023927
0.0235536
0.0224526
0.0243779
0.0233434
0.0216063
0.0231507
0.0248392
0.0274335
0.0271596
0.0250569
0.0237547
0.0223589
0.0200495
0.0174218
0.016048
0.0150331
0.0150723
0.014033
0.0163794
0.014809
0.0102582
0.0106019
0.00799377
0.00630705
0.00605627
0.0092907
0.0132553
0.0282706
0.0176363
0.00938618
0.0102359
0.0164854
0.034194
0.0201969
0.032449
0.0144506
0.0150206
0.0127849
0.0127117
0.0140071
0.0163051
0.0173802
0.0210381
0.0237238
0.0257119
0.0266256
0.0279354
0.0283218
0.0297215
0.0301632
0.0328036
0.0330483
0.033037
0.0325604
0.0300957
0.0270494
0.0248003
0.030716
0.0356318
0.0390287
0.0414672
0.0439879
0.042741
0.0391168
0.0382501
0.0363457
0.0352341
0.0338439
0.0307304
0.0268978
0.0220778
0.0214884
0.027518
0.0332686
0.049655
0.0536056
0.0533375
0.0556234
0.0561243
0.0578682
0.0583067
0.0609327
0.0615038
0.0626528
0.0629874
0.068105
0.0689805
0.0699338
0.0702575
0.069946
0.0708573
0.0708335
0.04813
0.0430994
0.0389063
0.0322543
0.0269511
0.0342024
0.0426921
0.0480804
0.073474
0.0739258
0.0775337
0.0801289
0.084916
0.0885282
0.0932296
0.0975966
0.101818
0.105103
0.107026
0.107272
0.107661
0.106686
0.105369
0.114051
0.148166
0.164566
0.194898
0.209844
0.222261
0.226287
0.217695
0.221486
0.21347
0.21605
0.209828
0.207899
0.202623
0.196344
0.192744
0.186455
0.182361
0.210125
0.158391
0.121288
0.0805699
0.0647073
0.0575127
0.0534714
0.0566716
0.0437447
0.0372098
0.0561905
0.0515439
0.040997
0.0272094
0.0187976
0.0322945
0.0478637
0.0647329
0.0819719
0.0976961
0.107956
0.110501
0.109398
0.10466
0.0968179
0.0816597
0.0614843
0.0422089
0.0347382
0.0320202
0.0280654
0.0221375
0.0177957
0.0156852
0.0141043
0.0123445
0.0111017
0.0105516
0.0107204
0.0110333
0.0132321
0.017318
0.0173084
0.0116052
0.0111428
0.00766745
0.00775611
0.00801517
0.013321
0.0134705
0.0208852
0.023338
0.0219832
0.0226811
0.022421
0.0227247
0.0223841
0.0211966
0.0203688
0.0194031
0.0185644
0.0178184
0.0169883
0.0161649
0.0174914
0.0164362
0.0138411
0.0139684
0.0145884
0.0152397
0.0161243
0.0173882
0.0184594
0.0211582
0.0213087
0.0208036
0.0208926
0.0194114
0.0186899
0.0199376
0.019456
0.0132593
0.0130778
0.0190893
0.0187402
0.0186362
0.0224657
0.0208953
0.0214125
0.0225478
0.0224663
0.0195267
0.0181708
0.0166116
0.015431
0.0140483
0.0125313
0.0121484
0.014904
0.0130967
0.010759
0.0119641
0.0143689
0.0169792
0.0184452
0.0204331
0.0231491
0.0241212
0.0263749
0.0278023
0.0299017
0.0307368
0.0355531
0.0361899
0.0340033
0.0321608
0.0311686
0.0273904
0.0234787
0.0258924
0.0267654
0.0271432
0.0272858
0.0271725
0.0235887
0.0231585
0.0216421
0.0211231
0.0195403
0.0189802
0.0178166
0.0170533
0.0160278
0.0141997
0.0134947
0.0126786
0.0123185
0.0173741
0.0108705
0.0106099
0.0160312
0.00987335
0.0116235
0.0113606
0.0118843
0.0125521
0.0103781
0.0151718
0.0103618
0.0112565
0.0114861
0.0144173
0.0100244
0.0212273
0.0651314
0.0935883
0.112551
0.204119
0.24407
0.264199
0.28483
0.298863
0.314813
0.332229
0.349816
0.362716
0.364043
0.338199
0.319584
0.254515
0.227838
0.251492
0.281481
0.193976
0.166424
0.168625
0.169365
0.171844
0.173001
0.176504
0.174407
0.1793
0.174945
0.18203
0.175998
0.18225
0.175053
0.159945
0.143494
0.111369
0.100786
0.0650258
0.050383
0.0394189
0.0286537
0.0209043
0.0187709
0.0177714
0.0164299
0.0165128
0.0126524
0.0131019
0.00839957
0.00618198
0.00986243
0.00969111
0.00723447
0.00982041
0.0112151
0.0117233
0.0122561
0.0125489
0.0191859
0.0192135
0.0245935
0.024526
0.0290999
0.0347187
0.0359606
0.0395982
0.0569934
0.0575293
0.0572722
0.0571304
0.0567217
0.0494761
0.0491947
0.048091
0.0475087
0.0445562
0.0440015
0.0419099
0.0407672
0.0378027
0.0369768
0.0358509
0.0363273
0.0409716
0.0566895
0.100499
0.0297918
0.0284796
0.0208801
0.0145703
0.0214754
0.0159427
0.0154918
0.0136478
0.0187403
0.0134846
0.0137311
0.0165546
0.0170813
0.0164799
0.0215205
0.0268279
0.0235551
0.0261186
0.118021
0.0764284
0.0246825
0.0488507
0.072565
0.158811
0.204369
0.140288
0.160115
0.184202
0.1673
0.140509
0.109969
0.0819161
0.0583054
0.0451155
0.0113706
0.0134208
0.0186144
0.0412515
0.061212
0.101508
0.0835377
0.109161
0.149146
0.173629
0.209588
0.201177
0.173112
0.148991
0.145535
0.160614
0.163119
0.105985
0.103004
0.0781133
0.174309
0.219303
0.184754
0.23187
0.24466
0.145121
0.0321688
0.0184329
0.0151602
0.0139555
0.0124683
0.0193888
0.0114974
0.0116742
0.012393
0.0133005
0.0170027
0.0293463
0.0134897
0.0149497
0.0183581
0.0158915
0.0148813
0.0146579
0.0145544
0.0151626
0.0165089
0.0215557
0.0216796
0.0213699
0.0160198
0.0173216
0.0157353
0.0200682
0.0212767
0.0333678
0.0153018
0.0162497
0.0215829
0.481501
0.0247294
0.0178657
0.0232915
0.0219593
0.030234
0.0436677
0.460213
0.0444435
0.0351826
0.0586038
0.0608425
0.0655237
0.0692045
0.0727482
0.0752619
0.0792423
0.0818634
0.0831281
0.0844204
0.100058
0.0999571
0.0988789
0.103469
0.0975398
0.0576246
0.0578184
0.0972981
0.104987
0.059366
0.040973
0.0384624
0.0311485
0.032258
0.0417937
0.0438788
0.0615909
0.061405
0.102362
0.0933625
0.0947441
0.0965284
0.0915761
0.0920793
0.0940964
0.0942379
0.0755088
0.0731352
0.0713507
0.0683287
0.0647636
0.0618629
0.0589485
0.0559071
0.0533852
0.0536741
0.0587623
0.058477
0.0664939
0.0743385
0.227109
0.154986
0.110236
0.0812123
0.0656332
0.0591399
0.0585627
0.0616928
0.0649344
0.0665625
0.0673772
0.0708049
0.0925493
0.0947145
0.0975542
0.0950501
0.0988255
0.0968337
0.0943942
0.104273
0.112073
0.0655393
0.0676188
0.0476899
0.0444537
0.0324236
0.0329671
0.0235434
0.0195382
0.0195361
0.0195188
0.0197339
0.0225939
0.0315392
0.0316501
0.0462106
0.0461491
0.0516143
0.0752155
0.0722888
0.128847
0.118115
0.108445
0.101172
0.10152
0.103676
0.106266
0.101284
0.0978736
0.0923598
0.0725315
0.0684628
0.0663313
0.0651111
0.0638683
0.0675307
0.0915421
0.149055
0.228595
0.335393
0.436148
0.446178
0.403329
0.2539
0.292632
0.146169
0.166063
0.188378
0.165264
0.17384
0.321332
0.267113
0.378849
0.483575
0.537474
0.603997
0.641524
0.631443
0.502905
0.327448
0.334649
0.445393
0.77147
0.865069
0.744173
0.761528
0.658279
0.540144
0.52154
0.49671
0.560215
0.610584
0.576256
0.592598
0.536911
0.51294
0.443168
0.494294
0.36107
0.325209
0.305686
0.296857
0.355674
0.287834
0.324247
0.266601
0.272956
0.221903
0.22739
0.189838
0.145354
0.13783
0.127798
0.143116
0.162324
0.148777
0.153484
0.134055
0.114715
0.0913041
0.0984609
0.0735857
0.0696392
0.0707951
0.080873
0.127266
0.373435
0.174371
0.164107
0.168096
0.17795
0.319896
0.282959
0.721679
0.505625
0.705881
0.472544
0.560439
0.468936
0.361852
0.37748
0.417167
0.59713
0.819914
6.64601
0.28453
4.25902
3.16223
3.32152
3.46773
4.44418
7.79751
7.10763
9.37517
6.80088
9.07659
4.97851
4.97512
4.32601
4.47162
4.43964
4.26334
5.21172
6.66094
0.239096
0.0910274
0.0854271
0.0856072
0.0873846
0.197795
0.0525617
0.201912
0.0539365
0.213305
0.0494852
0.246441
0.196752
0.0382269
0.0192576
0.0200892
0.016807
0.0203749
0.016923
0.0250481
0.0235426
0.0237008
0.0265979
0.0764108
0.292631
13.8632
1.67668
0.70045
0.801468
1.20004
0.816736
1.21772
1.68996
1.13753
0.568392
0.373821
0.441195
0.533634
0.509028
0.647837
0.931362
0.910527
0.715852
0.719538
0.635928
0.895935
0.904119
1.07041
1.24961
1.1428
0.896563
0.706923
0.599903
1.03022
1.03382
0.966343
0.41185
0.116917
0.0474078
0.0498359
0.0360871
0.037972
0.0349512
0.0560442
0.163759
0.225189
0.1359
0.434522
0.418052
0.566532
0.404153
0.413787
0.327068
0.350883
0.535562
0.584749
0.644077
0.675197
0.726161
0.671992
1.2914
2.21438
2.50499
12.8772
17.435
3.20891
3.09887
13.9495
0.315049
0.0839451
0.0233262
0.0174333
0.0162174
0.01613
0.0150007
0.0155381
0.0159991
0.0169629
0.0188267
0.0231911
0.0458155
0.201339
0.203297
0.0643064
0.0324139
0.022965
0.0196138
0.0170453
0.0163862
0.0155312
0.0154588
0.0150081
0.015658
0.0174653
0.023783
0.0774241
0.270902
11.3187
2.43569
2.25396
8.37896
5.79183
0.206673
0.0437823
0.0200926
0.0169261
0.0158834
0.016753
0.016265
0.01821
0.0184009
0.0230132
0.0250165
0.0317525
0.0570364
0.110102
0.315148
9.56224
8.63426
8.35457
7.79682
0.309782
0.11509
0.0543596
0.0382189
0.0346168
0.0338126
0.0226468
0.0236709
0.0189808
0.0216378
0.0182937
0.0226789
0.0482944
0.211829
5.34943
1.56922
1.70034
1.20863
0.612484
0.655377
0.669472
0.689214
1.77807
4.07163
5.00352
3.43577
3.36714
4.7175
3.17642
2.48637
1.83296
1.75008
2.54987
1.96529
1.82658
1.35783
1.46792
1.06786
1.46724
0.811226
0.976583
1.07263
1.53138
1.39738
1.41015
0.908207
1.0501
1.47517
1.72405
1.64819
0.843788
1.22642
1.01356
0.654793
0.607184
0.633879
0.604093
0.579162
0.575794
0.579791
0.558579
0.575532
0.555569
0.587266
0.546679
0.532197
0.506984
0.526807
0.544669
0.577376
0.360098
0.42264
0.426837
0.441278
0.453948
0.37503
0.45103
0.442092
0.65924
0.9952
0.837902
1.16055
0.681692
1.00443
2.00903
5.20773
2.36158
0.823204
1.34832
1.58176
1.13892
0.628208
2.55237
3.55709
1.22972
1.78257
10.3698
8.42235
16.5026
10.9759
18.6523
6.04392
4.63706
17.8204
6.68309
6.92059
4.5212
4.52619
2.9629
1.58741
1.63178
1.74492
1.22865
1.30268
1.21257
1.13441
1.47642
1.44226
1.88983
2.03876
2.58276
1.81431
1.77956
2.6054
1.06448
1.40408
1.84179
1.83373
1.36304
2.34861
3.16508
2.98158
2.14989
2.34205
3.51137
4.82741
4.59308
3.1812
3.98639
10.1484
13.5457
13.7037
4.2313
19.3065
18.305
2.09133
0.573782
0.328872
0.0909572
0.0448449
0.0367378
0.0387907
0.144599
0.0458579
0.0572174
0.0457797
0.0739752
0.0703213
0.0879043
0.220363
0.127606
0.218454
0.156902
0.192601
0.122926
0.196597
0.230567
0.240824
0.191643
0.117715
0.216552
0.311763
0.107843
0.360137
0.39627
0.264585
0.337977
0.402834
0.199691
1.00289
0.187372
0.129241
0.149506
0.399847
1.27317
0.222411
0.467011
4.49618
14.7199
3.70008
0.94734
0.689226
0.0559466
0.0303365
0.0321803
0.0280917
0.0194911
0.0850468
0.100192
0.408868
0.210261
0.278195
0.661679
2.92534
2.40016
1.13805
5.50982
10.2716
15.1486
9.13965
2.25078