/*--------------------------------*- C++ -*----------------------------------*\
| =========                 |                                                 |
| \\      /  F ield         | OpenFOAM: The Open Source CFD Toolbox           |
|  \\    /   O peration     | Version:  v2012                                 |
|   \\  /    A nd           | Website:  www.openfoam.com                      |
|    \\/     M anipulation  |                                                 |
\*---------------------------------------------------------------------------*/
FoamFile
{
    version     2.0;
    format      ascii;
    class       volScalarField;
    location    "565";
    object      epsilon;
}
// * * * * * * * * * * * * * * * * * * * * * * * * * * * * * * * * * * * * * //

dimensions      [0 2 -3 0 0 0 0];


internalField   nonuniform List<scalar> 
18258
(
0.0240337
0.0122811
0.00914083
0.00718864
0.0126721
0.0125623
0.0130233
0.0173719
0.0241989
0.0370573
0.0536457
0.0482116
0.0435812
0.0453227
0.0474783
0.0450194
0.0350528
0.0303086
0.0397901
0.0665248
0.0609228
0.0497312
0.0610385
0.0514282
0.0653163
0.0823702
0.0630981
0.0567934
0.0509534
0.0478917
0.0412903
0.0232651
0.0344192
0.0532095
0.0725491
0.0792446
0.0848791
0.089539
0.0948281
0.0969947
0.0972442
0.0920275
0.0828449
0.0678534
0.049976
0.0386453
0.0310605
0.030833
0.043319
0.0444371
0.0552466
0.0851402
0.107692
0.0808303
0.0518079
0.0824664
0.112389
0.144127
0.170633
0.19308
0.200811
0.19741
0.185907
0.169205
0.147787
0.122826
0.101855
0.0849505
0.067179
0.0573872
0.0464436
0.0385355
0.0329707
0.0293112
0.0271097
0.0253821
0.0242161
0.0251506
0.025039
0.0178575
0.014047
0.0131947
0.00943841
0.00784345
0.00815795
0.0077652
0.00806961
0.00712396
0.00609841
0.00529113
0.00448454
0.00652232
0.00701191
0.00725248
0.00727076
0.00779441
0.0080598
0.00780079
0.00789549
0.00722356
0.00745169
0.0119286
0.0137073
0.0173993
0.0155465
0.0108031
0.00909111
0.0101365
0.0107605
0.0133626
0.0125554
0.0133384
0.0118353
0.0108075
0.00913108
0.00887077
0.00911039
0.00968592
0.0100896
0.011689
0.0115183
0.0106802
0.0118122
0.0130347
0.0127614
0.0122171
0.0116386
0.0142863
0.0114943
0.0121814
0.0136825
0.0220478
0.0215711
0.0260507
0.0255727
0.0260201
0.0262046
0.0315928
0.031714
0.0320916
0.0324117
0.0341498
0.0571931
0.050956
0.0498443
0.0496504
0.0429703
0.0425007
0.0418021
0.0426155
0.0361522
0.0348085
0.0315588
0.0311905
0.0347944
0.0439339
0.0614251
0.0886887
0.122641
0.158989
0.189268
0.210267
0.231996
0.237431
0.251308
0.256003
0.256886
0.251186
0.242767
0.233288
0.220422
0.201847
0.188948
0.14852
0.105126
0.0591151
0.0784505
0.0904548
0.100162
0.10203
0.10317
0.0991144
0.0929363
0.0818269
0.0664018
0.0432145
0.0479603
0.06514
0.0676002
0.0684331
0.0543539
0.0524295
0.0488267
0.0489201
0.0644188
0.0736696
0.0618404
0.0852623
0.10026
0.0877624
0.0637123
0.0975068
0.142709
0.0802517
0.068043
0.0524489
0.051435
0.0434193
0.0368482
0.0630172
0.0940026
0.128701
0.149624
0.171313
0.18879
0.202056
0.216122
0.187875
0.170735
0.114977
0.201258
0.152321
0.0768055
0.05652
0.0546087
0.046645
0.0519971
0.0569658
0.052554
0.0405714
0.0278947
0.0246683
0.0461754
0.0644813
0.0779326
0.0619527
0.078837
0.0889608
0.09626
0.101558
0.128977
0.0950966
0.105403
0.0751084
0.102116
0.0722433
0.0464286
0.0524207
0.100151
0.159915
0.219099
0.256284
0.145276
0.0733209
0.0543088
0.0541933
0.0525551
0.0476498
0.0592831
0.105655
0.0718275
0.0465297
0.0403207
0.0475655
0.0418159
0.0309824
0.032618
0.0399103
0.0549287
0.0684178
0.0812624
0.124874
0.121907
0.147129
0.15416
0.130018
0.125906
0.0814687
0.083391
0.122642
0.091576
0.074043
0.104109
0.147388
0.201649
0.247934
0.288295
0.314138
0.303665
0.274784
0.173821
0.0761077
0.0229019
0.0177908
0.0168317
0.0173072
0.0105188
0.00630158
0.0058548
0.00667811
0.00702603
0.005918
0.00544434
0.00543382
0.00578512
0.010184
0.00875204
0.0108293
0.0131208
0.0156699
0.0187153
0.0194442
0.0129017
0.00873285
0.00819507
0.008131
0.00806258
0.00803384
0.00804636
0.00808774
0.00810455
0.00807285
0.00799442
0.00785715
0.00772112
0.00766299
0.00829834
0.0111862
0.0153511
0.0148492
0.0135597
0.0122042
0.0110435
0.0087125
0.0151526
0.0128523
0.0109417
0.0133994
0.016505
0.0208582
0.0245071
0.0176765
0.0141505
0.0128046
0.0126766
0.0125597
0.0126017
0.0124748
0.0125335
0.012326
0.0129092
0.0135707
0.0169717
0.018995
0.0211772
0.0226773
0.0232617
0.0239705
0.0211129
0.0229948
0.0227344
0.0235114
0.0233312
0.0226461
0.0207261
0.0189302
0.0177049
0.019119
0.0236836
0.0323265
0.026722
0.0207398
0.0167832
0.0137304
0.0150029
0.0166733
0.0168478
0.0158602
0.015626
0.0154177
0.0138979
0.0131081
0.0110991
0.0104901
0.0100318
0.0101868
0.0143784
0.0135172
0.0137109
0.0144376
0.0155315
0.0146918
0.0151224
0.01428
0.0145301
0.014953
0.0170226
0.0185773
0.0178198
0.0165059
0.0160095
0.0137407
0.0158454
0.0157025
0.017022
0.0186055
0.0190991
0.0190355
0.0183987
0.016806
0.0186948
0.0220616
0.0257147
0.0247161
0.0243893
0.0204475
0.0192478
0.0202217
0.0214945
0.0223951
0.0224529
0.0222608
0.0223305
0.0262919
0.0258879
0.0247049
0.022642
0.0202031
0.0175624
0.0151595
0.0166271
0.0181
0.0194835
0.0207474
0.0205319
0.0190071
0.0176544
0.0164304
0.0149445
0.0146651
0.0161127
0.0173294
0.0187574
0.0204732
0.0205635
0.0188463
0.0173522
0.0160733
0.0146039
0.0145595
0.0160565
0.0173528
0.01877
0.0202581
0.0196292
0.0184722
0.0172216
0.0159806
0.0145309
0.0146006
0.01592
0.0169873
0.0180701
0.0190209
0.0198741
0.0179131
0.0170039
0.0170978
0.0161128
0.0192972
0.0185394
0.0194789
0.0180268
0.0168024
0.0178068
0.0209969
0.0240303
0.0245834
0.0243038
0.0201715
0.020627
0.0206025
0.0191838
0.0159641
0.0153681
0.0181349
0.0208669
0.021329
0.0200251
0.0169289
0.0132884
0.0143095
0.0174678
0.0197786
0.0185153
0.0183589
0.0169482
0.0158659
0.0161603
0.0138821
0.016621
0.0266702
0.0241235
0.0221027
0.0196329
0.0156405
0.0106007
0.0114996
0.0126555
0.0130694
0.0105621
0.00791476
0.00711051
0.00691976
0.0067635
0.00654651
0.00617983
0.00562436
0.00538399
0.0106151
0.0257544
0.0364495
0.0358293
0.0241197
0.0207422
0.0199914
0.0183951
0.00875488
0.00821882
0.00841112
0.0104161
0.00828571
0.00825578
0.014318
0.00995615
0.0137024
0.0106829
0.0146077
0.0229345
0.0217091
0.0143861
0.00802359
0.0069021
0.00739135
0.00767423
0.00787635
0.00807126
0.0083026
0.00868554
0.0100015
0.0157075
0.0202807
0.0177462
0.0167541
0.0152816
0.0188131
0.0212922
0.0232315
0.026002
0.0160876
0.0117794
0.0166273
0.0272352
0.0247142
0.0232545
0.0171261
0.0176702
0.0171107
0.0110065
0.0106638
0.0105816
0.0113901
0.0127735
0.0146905
0.015851
0.0166006
0.0169323
0.0178429
0.023111
0.021623
0.0211062
0.0173257
0.0133425
0.0153835
0.0515331
0.0195319
0.020652
0.0188903
0.0191647
0.0204528
0.0151593
0.0135146
0.0129294
0.0146113
0.0214961
0.0215119
0.0213752
0.0182414
0.0174591
0.0208808
0.0219705
0.0223687
0.0217521
0.0213101
0.0194491
0.0166763
0.0181073
0.0196244
0.0208133
0.0228175
0.0231564
0.0179368
0.0172177
0.0158289
0.0105421
0.0112829
0.00972421
0.0096947
0.00966043
0.00938546
0.00893885
0.00922763
0.00934493
0.00934274
0.00899805
0.00929278
0.0083503
0.00868533
0.00977564
0.0152212
0.0147859
0.0175839
0.0194994
0.0167442
0.0155845
0.0142213
0.0131973
0.0154508
0.0142855
0.0168656
0.0212175
0.0265084
0.0191345
0.0181378
0.0179156
0.0175101
0.0173539
0.0174064
0.0167133
0.0157101
0.0151416
0.0236005
0.0212984
0.0181735
0.0172235
0.015789
0.0180424
0.0174844
0.0213825
0.0268658
0.0270719
0.0215509
0.0216296
0.0189733
0.0200798
0.0222697
0.0271107
0.0270327
0.0144474
0.00960514
0.0154487
0.0157876
0.0183987
0.017014
0.0185414
0.0197233
0.0204451
0.020303
0.0177012
0.0188739
0.0196612
0.0206455
0.0185923
0.0165865
0.0173754
0.0161547
0.0152562
0.0147588
0.0126845
0.0129269
0.0138961
0.0153459
0.0162892
0.0177816
0.0194349
0.0194655
0.0201316
0.0197267
0.0191264
0.0252105
0.0239737
0.0255164
0.0282176
0.0224378
0.0178156
0.0146953
0.0150073
0.014774
0.014682
0.0154261
0.0167868
0.0151657
0.0145461
0.017052
0.0194062
0.0246689
0.0330092
0.0287418
0.026189
0.0332079
0.0313854
0.038216
0.0286652
0.0281437
0.0208535
0.0262904
0.030516
0.0391892
0.0255116
0.0209599
0.0224205
0.0255488
0.0347812
0.0327858
0.0331448
0.0411824
0.0399502
0.036202
0.0311803
0.0353439
0.0212506
0.0301939
0.0322206
0.0268217
0.0257039
0.0307397
0.0310677
0.033005
0.028375
0.0267688
0.0179156
0.0274312
0.031373
0.0330617
0.0278066
0.0205372
0.0280117
0.0205549
0.0191896
0.0203015
0.0137835
0.0127324
0.0148049
0.0138767
0.0112038
0.0121504
0.0111661
0.0111495
0.0112264
0.0113361
0.0114614
0.0117079
0.0116601
0.0126405
0.0133071
0.0125816
0.0115416
0.0122213
0.012613
0.0161222
0.0182094
0.0204769
0.0220717
0.0229126
0.0240478
0.0226834
0.0248248
0.0237638
0.025215
0.0249166
0.0238574
0.0213608
0.0187466
0.0163863
0.0169866
0.0206953
0.0273003
0.0223578
0.0172998
0.0139858
0.0115726
0.0128569
0.0161336
0.00873932
0.00799387
0.00771312
0.00755383
0.00745136
0.00665712
0.00584551
0.00779424
0.0127541
0.0161391
0.0202556
0.0258794
0.0320922
0.0375619
0.0417418
0.0447219
0.0465509
0.0470324
0.0441555
0.0333361
0.0285643
0.0244335
0.0201403
0.0163901
0.0167241
0.0243603
0.0320108
0.0395747
0.0462612
0.0512709
0.0493685
0.0331265
0.0299505
0.0461803
0.0778016
0.0735404
0.096708
0.110539
0.0625368
0.0462739
0.0452758
0.0621644
0.0648349
0.0567293
0.0466458
0.036303
0.0260687
0.0305187
0.0349578
0.0392821
0.0438556
0.0582662
0.0612387
0.0599435
0.0572957
0.0537316
0.0487137
0.0414465
0.0328034
0.0248271
0.0188221
0.0140871
0.00866851
0.00750173
0.00765437
0.00717493
0.00885281
0.00844156
0.00862536
0.00835095
0.00860176
0.00845437
0.00857397
0.00761238
0.00679316
0.0103661
0.00966801
0.00969167
0.0104245
0.0135736
0.0104101
0.00766605
0.00724703
0.00722206
0.00748918
0.0154857
0.0248497
0.0303656
0.035015
0.0387872
0.037445
0.0339216
0.0281142
0.021818
0.0196479
0.016616
0.0141903
0.0130446
0.0144125
0.0118654
0.00585011
0.0051752
0.00571656
0.00556606
0.00509073
0.00613885
0.00684203
0.00746615
0.00789801
0.00821447
0.0082777
0.00821689
0.00812644
0.00808146
0.00806002
0.00802953
0.00796179
0.00786286
0.00771686
0.00757688
0.0075101
0.00810352
0.0107238
0.0146567
0.0144131
0.0132953
0.0121818
0.0113168
0.00959261
0.0154532
0.0131134
0.0109974
0.0101741
0.0100394
0.0103452
0.0113216
0.0129531
0.0138665
0.0158676
0.0159024
0.015787
0.0160799
0.0158697
0.0132705
0.0150643
0.0177445
0.0185657
0.0191749
0.0189534
0.017416
0.0194346
0.0205777
0.0200288
0.0194207
0.0166087
0.0193671
0.023288
0.023729
0.0239886
0.021314
0.0184735
0.0216434
0.0228164
0.0224373
0.0233333
0.0215959
0.0223336
0.0277074
0.01437
0.0133127
0.00801838
0.00881806
0.00909772
0.00884274
0.0085783
0.00894909
0.00920522
0.00893627
0.00962098
0.00993977
0.00924748
0.0117059
0.0108021
0.0104548
0.00984605
0.0102988
0.0108855
0.011176
0.0123915
0.0198233
0.020352
0.0184004
0.0210203
0.0216145
0.0181134
0.0206163
0.0214839
0.0218184
0.0221909
0.0236651
0.0221988
0.0245035
0.0237674
0.0223414
0.0215839
0.038361
0.0252918
0.0166741
0.0154223
0.0150839
0.0151452
0.0170646
0.0128043
0.0143585
0.0101497
0.00879929
0.0084446
0.0081696
0.00823877
0.0106642
0.0162511
0.0247522
0.0280992
0.0270561
0.0236366
0.0179481
0.0132082
0.0129555
0.0117185
0.0109829
0.0108758
0.0072603
0.00510802
0.00652162
0.00659468
0.00718965
0.00761154
0.00795638
0.00821659
0.00836156
0.00843775
0.00852343
0.00864315
0.00877076
0.00887816
0.00895993
0.00901633
0.00907577
0.00919316
0.00949784
0.010703
0.0153707
0.0197812
0.0186554
0.0171862
0.0158738
0.0166433
0.0174021
0.0181295
0.0223218
0.0191891
0.0220977
0.0207781
0.019795
0.0183775
0.0191027
0.0209013
0.0166808
0.0166139
0.0113573
0.00992392
0.00955158
0.00934287
0.00918148
0.00902067
0.00885616
0.00870801
0.00856629
0.00844139
0.00834172
0.00824561
0.00810226
0.00785482
0.0074492
0.00701674
0.00611041
0.00669039
0.00738772
0.00840785
0.00953913
0.0100609
0.00948542
0.00875062
0.0084625
0.00860716
0.00878764
0.00898287
0.00920486
0.00951418
0.00997674
0.0109448
0.0116043
0.0162895
0.0170319
0.0202938
0.020097
0.0179935
0.017345
0.018952
0.017452
0.012694
0.017453
0.0169878
0.0212473
0.0157603
0.0148693
0.0152809
0.0157652
0.0184286
0.0173411
0.0158578
0.0158108
0.0127227
0.0143037
0.0163013
0.0177865
0.0280463
0.0274907
0.0346007
0.0344977
0.0596093
0.0567107
0.0500176
0.0540817
0.0238295
0.0467048
0.0545917
0.0497197
0.0431648
0.0275195
0.0440295
0.067052
0.0973034
0.0701518
0.0573967
0.106787
0.0774134
0.0376371
0.0267072
0.0150709
0.0151396
0.025163
0.0292326
0.024241
0.0233907
0.0336189
0.0349847
0.0281744
0.0288475
0.0312294
0.0301569
0.0326461
0.02826
0.0275451
0.0156011
0.0128048
0.0138413
0.0155785
0.0165815
0.0160642
0.016911
0.0175887
0.0161454
0.0151168
0.0145533
0.0124843
0.0132226
0.016214
0.0204389
0.023952
0.0172931
0.0138917
0.012589
0.0123932
0.0121653
0.012046
0.0117256
0.0115407
0.0110734
0.0112844
0.00984105
0.00985143
0.0103851
0.0105447
0.0107461
0.0109022
0.0110243
0.0111364
0.0120062
0.0187903
0.0259971
0.0208027
0.0164873
0.0140027
0.0151925
0.0171185
0.021027
0.0264574
0.0178674
0.0176909
0.0115345
0.0107536
0.010546
0.0103766
0.010228
0.0101353
0.0102015
0.0102071
0.011943
0.0115504
0.0134642
0.0145497
0.0120405
0.0116232
0.0111631
0.0108855
0.0107345
0.0106549
0.0107479
0.0116124
0.011448
0.0105156
0.0104176
0.010533
0.0107412
0.0110586
0.0115007
0.0120009
0.0129048
0.0126715
0.0112257
0.0112673
0.0106147
0.0103045
0.0100666
0.0100383
0.0100834
0.0102205
0.0104399
0.0113487
0.0171558
0.0173344
0.0266802
0.0266587
0.0211918
0.0177114
0.0155524
0.0142976
0.013565
0.0353559
0.0310295
0.0490843
0.0392021
0.0313975
0.051003
0.072561
0.056344
0.0917864
0.099163
0.0730236
0.066034
0.0210251
0.0160055
0.0154678
0.0169596
0.0186562
0.0212973
0.0218933
0.0267199
0.028829
0.017216
0.0165358
0.0156109
0.0249289
0.0230979
0.0197127
0.0178235
0.0164346
0.018987
0.0207862
0.0150083
0.0150526
0.0097037
0.0107077
0.0104506
0.0101133
0.00999965
0.00992989
0.00997091
0.0100746
0.0103639
0.0108632
0.0112393
0.0113688
0.0116154
0.0113996
0.0111264
0.0108025
0.0106126
0.0104246
0.0102726
0.0101564
0.0101934
0.0105126
0.0106588
0.00935427
0.00969886
0.00980554
0.00981551
0.00984552
0.00981023
0.00967535
0.00947377
0.00928289
0.00908107
0.00913241
0.00997724
0.0101262
0.0101922
0.0100406
0.00992258
0.00990953
0.00984038
0.00982116
0.00980778
0.00968085
0.0093653
0.00863929
0.00849275
0.00909901
0.00944734
0.00963126
0.00971999
0.00970818
0.00965461
0.00942269
0.00924329
0.00902774
0.00868185
0.00823077
0.00680307
0.00706378
0.00741829
0.00791144
0.00842066
0.00886837
0.00916982
0.00932935
0.00941962
0.0093382
0.00904743
0.00851994
0.00846603
0.00885636
0.00903509
0.00899287
0.00873061
0.00832278
0.00775946
0.00705907
0.00638026
0.00585992
0.00561229
0.00522024
0.00659041
0.00718298
0.00774031
0.00825949
0.00875108
0.00927335
0.00947496
0.00952873
0.00950173
0.00934048
0.00900585
0.00847515
0.00848302
0.00896235
0.00927648
0.00940625
0.00939229
0.0092088
0.00879829
0.00788121
0.00706217
0.0063997
0.0058064
0.00521639
0.00508206
0.00533604
0.00511532
0.00532635
0.0059065
0.00670924
0.00748858
0.0080944
0.00852174
0.00870735
0.00865862
0.0084085
0.00830922
0.00842982
0.0083696
0.00806199
0.00749357
0.00674886
0.00594941
0.00531895
0.00513434
0.0054566
0.00578552
0.00547712
0.00438122
0.00492902
0.00549437
0.00609693
0.00702382
0.00821317
0.0088056
0.00912347
0.00928004
0.00921135
0.00891931
0.00847679
0.00845762
0.00888379
0.00916852
0.00921923
0.00908274
0.00880069
0.00830869
0.00686926
0.00538685
0.00475298
0.00439685
0.00395934
0.00555444
0.00591605
0.00549943
0.00522935
0.00566647
0.00621133
0.00684
0.00735791
0.00779031
0.00809937
0.00820622
0.00817885
0.0080444
0.00804301
0.0079831
0.00777331
0.00751824
0.00730558
0.00686817
0.00641431
0.00588651
0.006437
0.00672173
0.00629635
0.00467352
0.00496419
0.00542149
0.00572038
0.0071957
0.00862543
0.00901715
0.00915074
0.00928152
0.00920571
0.00888212
0.00843612
0.00841993
0.00894953
0.00936035
0.00950852
0.00962399
0.00975355
0.00986971
0.00871993
0.00677552
0.00628118
0.00528086
0.00482382
0.00661393
0.00703743
0.00684569
0.00658267
0.00752533
0.00792118
0.00806519
0.00807946
0.00809661
0.00807655
0.00799044
0.00792636
0.00781067
0.00824614
0.00887903
0.00878038
0.00868425
0.00852741
0.00816622
0.00771145
0.00719097
0.00786139
0.00840933
0.00813203
0.0059708
0.00634497
0.00722781
0.0074468
0.00902961
0.0102264
0.0105538
0.0105238
0.0103872
0.0103456
0.00931934
0.00838343
0.00823179
0.00959798
0.01559
0.0154272
0.0154575
0.0153812
0.0148035
0.0146333
0.0140612
0.0138033
0.0130959
0.012638
0.011949
0.0140036
0.0177878
0.0199037
0.0222973
0.0248212
0.0234256
0.0188769
0.0166201
0.01013
0.00799193
0.0068959
0.00597453
0.00527717
0.00507019
0.00753632
0.00940947
0.011589
0.0135463
0.0138509
0.0162745
0.0202099
0.0307633
0.0488757
0.0412338
0.0388905
0.039118
0.0968742
2.54578
2.72042
2.48643
2.89287
3.33837
0.390308
0.151356
0.283198
0.302462
0.337783
0.314947
0.28353
0.258456
0.264677
0.253919
0.262423
0.244254
0.253235
0.221407
0.228939
0.239363
0.720669
1.05798
1.27227
1.7721
1.7677
1.99242
1.9373
1.95221
1.80078
1.91508
1.66406
1.37956
1.3039
1.232
1.3223
1.43707
1.24699
1.13041
1.0145
0.923523
0.791586
1.00373
0.761733
0.720189
0.719005
0.75145
1.00148
0.91366
1.05146
0.974349
1.01383
0.611553
0.688234
0.503846
0.420072
0.347719
0.423761
0.572526
0.764361
0.955523
0.728286
0.98999
0.910586
0.899409
0.854923
0.777004
0.737134
0.72404
0.744995
0.757761
0.773332
0.801614
0.823261
0.842663
0.9946
1.0611
1.05326
0.863124
0.771373
0.533954
0.571991
0.605927
0.609069
0.567236
0.549629
0.499918
0.487553
0.443293
0.424025
0.386149
0.366675
0.334554
0.462262
0.789352
0.819027
0.889439
0.941837
0.992463
1.01382
1.03141
1.01393
0.980487
0.908884
0.87669
0.812516
0.921077
1.10643
1.10343
1.01333
0.860505
0.814495
3.80359
4.62682
3.06124
6.60408
10.0447
16.8522
7.64734
2.07178
3.46548
2.38117
2.11318
2.06035
2.17647
3.43257
2.51275
3.28584
2.75051
2.90403
2.31118
2.57658
2.4548
1.87979
1.58057
1.33654
1.21808
0.981157
0.974489
0.789859
0.734111
0.670665
0.557167
0.688773
0.708936
1.73044
2.33585
2.90821
4.5569
4.99345
5.45232
8.58396
6.92443
8.64437
5.1299
5.18688
3.83323
3.60389
3.64229
5.00896
7.17381
4.93853
8.62743
4.80478
15.6054
34.9113
9.20497
19.0459
10.9798
9.92274
9.55964
9.84681
14.0013
9.56807
15.5561
13.2011
17.6171
17.2901
18.3139
14.2094
10.5517
11.5801
12.455
15.9321
11.3105
13.0693
9.93145
9.69158
9.02973
7.45766
6.59545
5.06557
6.01354
7.03777
8.02376
12.7638
15.9577
18.3085
22.0563
16.2515
18.5182
11.1414
12.2434
9.45214
8.86923
9.00473
11.8497
21.0067
14.8778
27.2297
0.498652
0.226241
0.546454
0.229897
0.487471
0.390933
0.403492
0.404441
0.400176
0.461836
0.220515
0.185317
0.177507
0.175346
0.176863
0.100286
0.12452
0.0804546
0.126967
0.229464
0.50486
0.366011
0.140599
0.0826313
0.0546231
0.04297
0.0634984
0.0612971
0.0980279
0.099394
0.105746
0.132354
0.228778
0.434809
31.8896
7.13402
1.1355
0.533288
0.282731
0.173517
0.150437
0.170054
0.182981
0.185956
0.174995
0.14923
0.107699
0.0719007
0.0486909
0.0411996
0.0300436
0.0276707
0.0392487
0.0530873
0.0492686
0.0650315
0.0834736
0.106279
0.130521
0.14982
0.164328
0.168312
0.156288
0.122315
0.0804925
0.0443357
0.0264754
0.0228219
0.0208917
0.0193975
0.0167546
0.0145434
0.0131267
0.0112227
0.00989789
0.00893554
0.00863075
0.00875712
0.0095628
0.0120965
0.0145585
0.0188521
0.0179758
0.0134596
0.012611
0.00781272
0.00722384
0.0073732
0.00762614
0.00844661
0.0132126
0.0135204
0.0133987
0.0134266
0.0132458
0.0132331
0.0130646
0.012901
0.0126817
0.0122619
0.01197
0.0114448
0.0111603
0.0104889
0.0105157
0.0108732
0.0111719
0.0101054
0.00999132
0.00930965
0.0207893
0.0493114
0.0702217
0.0786916
0.0884781
0.0811607
0.0420506
0.0231643
0.00792682
0.00768163
0.00818333
0.00882101
0.00837356
0.00616438
0.00671087
0.00790158
0.0111097
0.0110917
0.0111263
0.013006
0.0135588
0.0149199
0.0154714
0.0158473
0.0160769
0.0159946
0.0161243
0.0158274
0.01592
0.0157097
0.0157986
0.0153933
0.0273261
0.0257388
0.0264796
0.0265204
0.0277423
0.0272292
0.0267429
0.0257516
0.0250484
0.02351
0.0219234
0.0203128
0.0181678
0.0188905
0.0182153
0.0113217
0.0107358
0.00767665
0.00770786
0.00741306
0.010227
0.00929976
0.00781548
0.00916848
0.00671495
0.00689395
0.00725141
0.0103548
0.0108859
0.01738
0.0174093
0.0154508
0.0164535
0.0175111
0.018865
0.0200263
0.0214589
0.0224603
0.0235571
0.0254661
0.025883
0.0241107
0.023761
0.0226301
0.0245517
0.0235169
0.0217925
0.0233785
0.0250301
0.0275878
0.0272675
0.0250772
0.0237488
0.0223327
0.0200006
0.0173519
0.0159484
0.0149167
0.0149181
0.0138556
0.016131
0.0145277
0.0101021
0.0105737
0.00814333
0.00632259
0.00602084
0.00924593
0.0132495
0.028277
0.0176812
0.00950059
0.0107371
0.0173438
0.0363361
0.0217577
0.0353357
0.014799
0.0164309
0.0125878
0.0125749
0.0138637
0.0161646
0.017281
0.0209619
0.0236524
0.0256569
0.0265824
0.0279093
0.0283053
0.0297303
0.0301818
0.0329248
0.033184
0.0332179
0.0327477
0.030331
0.0272707
0.0250677
0.0310223
0.0359364
0.0392586
0.0416885
0.0441678
0.0428877
0.0391304
0.0382439
0.0363071
0.035176
0.0337604
0.0306302
0.0267856
0.0219672
0.0213469
0.0273596
0.0331112
0.0494182
0.0534599
0.0531943
0.0555023
0.0560198
0.057788
0.0582383
0.0609045
0.0614887
0.0626639
0.0630063
0.0683111
0.0692097
0.0702069
0.0705376
0.0702162
0.0711662
0.0711823
0.0483881
0.0433722
0.0392967
0.0326128
0.0272872
0.0346443
0.0431978
0.0484391
0.0739284
0.074374
0.0781041
0.0807255
0.0856966
0.089393
0.0942915
0.0987753
0.103174
0.106565
0.108609
0.108896
0.109351
0.108361
0.107059
0.115798
0.150458
0.167073
0.197908
0.213039
0.225552
0.229397
0.220882
0.224786
0.216867
0.219502
0.213464
0.211599
0.206493
0.200207
0.196729
0.190405
0.186364
0.214708
0.162519
0.124683
0.0828068
0.0664644
0.0596829
0.0562385
0.0586677
0.0455802
0.038992
0.0580308
0.0536091
0.0431234
0.0292158
0.018864
0.0321017
0.0477287
0.0646373
0.0818365
0.0975432
0.1078
0.110345
0.109239
0.104504
0.0966689
0.0815173
0.0613701
0.0421333
0.0346973
0.032
0.0280493
0.0221198
0.0177823
0.0156721
0.0140932
0.0123358
0.0110956
0.0105473
0.0107152
0.011028
0.0132252
0.017307
0.0172961
0.0115955
0.0111347
0.00766122
0.00775092
0.0080099
0.0133195
0.0134664
0.0208848
0.0233285
0.0219708
0.0226587
0.0223947
0.0226937
0.0223376
0.0211581
0.0203222
0.0193599
0.0185152
0.0177668
0.0169364
0.0161198
0.0174303
0.0163718
0.013804
0.0139317
0.0145542
0.0152059
0.0160951
0.0173484
0.0184235
0.0211117
0.0212822
0.0207809
0.0208731
0.0194059
0.0186898
0.0199438
0.0194662
0.0132613
0.013083
0.0190968
0.0187455
0.018639
0.0224523
0.0208746
0.0213992
0.0225302
0.022424
0.0194916
0.0181332
0.0165837
0.0153985
0.0140141
0.0124944
0.0121085
0.0148414
0.013036
0.0107159
0.0119232
0.0143249
0.0169352
0.0184014
0.0203897
0.0231058
0.0240811
0.026321
0.0277452
0.0298413
0.03068
0.0354815
0.0361448
0.0339933
0.0321496
0.0311521
0.0273849
0.0234673
0.025881
0.0267511
0.0271272
0.0272423
0.0271181
0.0235455
0.023113
0.0215978
0.021079
0.0195083
0.0189454
0.0177797
0.0170147
0.0159884
0.0141597
0.0134589
0.0126432
0.0122894
0.0173375
0.0108347
0.010578
0.015979
0.00983964
0.0115756
0.0113238
0.0118476
0.0125097
0.0103382
0.0151207
0.0103118
0.0112125
0.0114553
0.0144018
0.0100188
0.0214189
0.0652695
0.0935251
0.112488
0.204109
0.244128
0.264283
0.284926
0.298964
0.314926
0.332406
0.350042
0.363037
0.364407
0.338585
0.319957
0.254793
0.228049
0.251844
0.282015
0.194264
0.166597
0.168865
0.169685
0.172253
0.173495
0.177124
0.175089
0.180141
0.175799
0.183057
0.177042
0.183489
0.176146
0.160868
0.144289
0.111851
0.101145
0.0652365
0.0505152
0.0395065
0.0286827
0.0209004
0.0187583
0.0177579
0.0164204
0.0165057
0.0126468
0.0130944
0.00839352
0.00617418
0.00985573
0.00968299
0.00722435
0.00981218
0.0112076
0.0117181
0.0122537
0.0125478
0.019183
0.0192163
0.0246176
0.0245313
0.0291039
0.0347068
0.0359495
0.0395935
0.0569497
0.0574667
0.0572109
0.0570286
0.0566002
0.0493909
0.0491092
0.0480028
0.0474148
0.0444717
0.0439146
0.0418312
0.0406904
0.0377468
0.0369206
0.0357947
0.0362721
0.0409192
0.0565961
0.10033
0.0297361
0.028404
0.0208208
0.0145571
0.0214319
0.0158905
0.0154443
0.0136103
0.018671
0.0134433
0.0136914
0.0165006
0.017022
0.0164298
0.0214838
0.0267493
0.02347
0.0260254
0.117858
0.0766054
0.0247728
0.0489006
0.0723909
0.158536
0.204451
0.140256
0.160136
0.184261
0.167266
0.140416
0.10994
0.0818649
0.0583194
0.0451724
0.0113241
0.0133878
0.0185854
0.04136
0.0613124
0.10133
0.0834368
0.109038
0.14906
0.173592
0.209625
0.201202
0.173051
0.148874
0.145349
0.160382
0.163075
0.106008
0.10295
0.0777924
0.173983
0.219156
0.184648
0.231894
0.244795
0.144906
0.0320424
0.0183634
0.0151099
0.0139082
0.0124274
0.0193479
0.0114584
0.0116428
0.0123605
0.0132647
0.0169387
0.0293661
0.0134365
0.0149192
0.0183317
0.0158748
0.0148972
0.014627
0.014535
0.0151507
0.0165039
0.0215412
0.0216382
0.0212895
0.0159696
0.017267
0.0156833
0.0199971
0.0211886
0.0332282
0.0152442
0.0161876
0.0214805
0.478534
0.0246153
0.0178098
0.0232156
0.0218824
0.0300928
0.043933
0.459876
0.0442633
0.035126
0.0585523
0.0607854
0.0654324
0.0691051
0.0726277
0.0751524
0.0791087
0.0817666
0.082999
0.0842312
0.0998734
0.0998604
0.0988006
0.103399
0.0975142
0.0576053
0.0578128
0.0973079
0.105025
0.0593513
0.0409747
0.0384668
0.0311683
0.0322915
0.0418254
0.0438973
0.0615751
0.0614025
0.102406
0.0933878
0.0947858
0.0965422
0.0915502
0.0920272
0.09407
0.0940672
0.0753437
0.0730335
0.0712741
0.0682217
0.0646756
0.0617761
0.0588852
0.0558625
0.0533682
0.053668
0.0587579
0.0584315
0.0664322
0.0743055
0.227102
0.155076
0.110349
0.0813015
0.065683
0.0591484
0.0585232
0.0616233
0.0648399
0.0664944
0.0672975
0.0706608
0.0923517
0.0947257
0.0975785
0.0950451
0.0988542
0.096903
0.0944443
0.104332
0.112143
0.0655476
0.0676236
0.0477271
0.0445186
0.0324737
0.0330289
0.0235645
0.019537
0.0195229
0.0195018
0.0197242
0.0226025
0.0315948
0.031704
0.0463276
0.0462461
0.0516834
0.075264
0.0723259
0.128976
0.118212
0.108548
0.101238
0.10161
0.103742
0.10633
0.101329
0.0976762
0.0921333
0.0723997
0.0683969
0.0662697
0.0650391
0.0638549
0.0676081
0.0917654
0.14939
0.228908
0.335663
0.436428
0.446498
0.403531
0.253804
0.292633
0.146085
0.166005
0.188384
0.164809
0.17372
0.321296
0.267194
0.378997
0.483932
0.538028
0.60481
0.642558
0.632245
0.503685
0.328217
0.33582
0.446377
0.772568
0.866169
0.74524
0.762815
0.65951
0.541213
0.52262
0.497801
0.561537
0.612194
0.577757
0.594407
0.538594
0.514388
0.444437
0.495833
0.362231
0.326239
0.306649
0.297797
0.356809
0.288715
0.325198
0.267296
0.273559
0.222305
0.227802
0.190176
0.145599
0.138043
0.127979
0.143293
0.162458
0.148844
0.153308
0.133882
0.114485
0.0911692
0.0984157
0.073539
0.0696217
0.0708732
0.0810619
0.12761
0.373581
0.174411
0.163923
0.167804
0.177964
0.319097
0.282604
0.723535
0.506946
0.708829
0.473717
0.562169
0.470351
0.362852
0.378417
0.418224
0.598484
0.821703
6.65271
0.284697
4.26277
3.16453
3.32328
3.46901
4.44615
7.80595
7.10911
9.38797
6.80405
9.0786
4.97526
4.97612
4.32581
4.47127
4.43946
4.26367
5.20905
6.66132
0.239118
0.0910338
0.08543
0.0856064
0.0873816
0.197731
0.0525537
0.201955
0.0539474
0.213394
0.0495004
0.246582
0.196843
0.0382318
0.0192574
0.0200888
0.0168069
0.0203743
0.0169227
0.0250467
0.0235424
0.0237011
0.0265982
0.0764094
0.292648
13.8603
1.67771
0.701673
0.801518
1.19946
0.816246
1.21736
1.6894
1.13777
0.5689
0.373837
0.44097
0.533106
0.508662
0.647622
0.931164
0.910706
0.716073
0.719851
0.635808
0.895811
0.904361
1.07056
1.24935
1.14243
0.896856
0.707325
0.59978
1.02993
1.03343
0.966265
0.411583
0.116808
0.047336
0.0497632
0.0359436
0.0379186
0.0349032
0.055964
0.163631
0.22455
0.135781
0.43422
0.417953
0.566764
0.404317
0.413889
0.327239
0.35111
0.536019
0.585456
0.645133
0.67626
0.727236
0.673012
1.29247
2.21559
2.50695
12.8792
17.4392
3.21169
3.10201
13.9562
0.315144
0.0839565
0.0233267
0.0174335
0.0162176
0.01613
0.0150009
0.0155382
0.0159996
0.0169634
0.0188283
0.0231942
0.0458269
0.20143
0.203394
0.0643319
0.0324247
0.0229689
0.0196158
0.0170463
0.016387
0.0155317
0.0154594
0.0150084
0.0156584
0.0174659
0.023785
0.0774479
0.271038
11.327
2.43955
2.25822
8.38545
5.79667
0.206765
0.043797
0.0200949
0.0169271
0.0158841
0.016754
0.0162658
0.0182113
0.0184022
0.023016
0.0250207
0.0317627
0.0570665
0.110169
0.315463
9.58132
8.65222
8.37413
7.81201
0.310089
0.115181
0.0543869
0.0382294
0.034624
0.0338191
0.0226494
0.0236741
0.0189825
0.0216411
0.0182955
0.0226831
0.0483126
0.211928
5.35414
1.57248
1.70369
1.21027
0.61378
0.656677
0.670714
0.690389
1.77948
4.07354
5.00538
3.43735
3.36826
4.71877
3.17822
2.4874
1.83363
1.75091
2.55096
1.96646
1.82815
1.35906
1.46885
1.06884
1.46849
0.811964
0.977711
1.07404
1.53311
1.39885
1.41168
0.909285
1.05155
1.477
1.72657
1.65015
0.844745
1.22795
1.01503
0.655452
0.608352
0.63502
0.604903
0.579679
0.576312
0.580624
0.559406
0.576694
0.556703
0.588568
0.547966
0.533312
0.50774
0.527592
0.545205
0.577936
0.360275
0.422726
0.42713
0.441598
0.45413
0.375258
0.451319
0.442336
0.659704
0.995795
0.837974
1.1598
0.681695
1.00508
2.00986
5.21129
2.36146
0.823006
1.34937
1.58334
1.13984
0.628745
2.55376
3.55955
1.23067
1.78429
10.3771
8.42833
16.508
10.9778
18.6532
6.04525
4.63831
17.8174
6.68426
6.92284
4.52311
4.52744
2.96346
1.58806
1.63243
1.74624
1.2296
1.303
1.21283
1.13488
1.47716
1.44348
1.89134
2.04002
2.58418
1.8151
1.78077
2.6071
1.06547
1.40424
1.84243
1.83493
1.3638
2.35026
3.16607
2.98233
2.15018
2.34274
3.51195
4.82815
4.59376
3.18158
3.98551
10.1487
13.546
13.703
4.23133
19.3101
18.315
2.09062
0.572807
0.328781
0.0908618
0.0447608
0.0366731
0.0387084
0.144043
0.0458249
0.0571384
0.0456814
0.0738967
0.0702207
0.0877684
0.220193
0.127448
0.218348
0.156963
0.192639
0.123008
0.19664
0.230504
0.240766
0.191822
0.117815
0.216585
0.311496
0.107978
0.359783
0.395827
0.264722
0.337829
0.402355
0.199962
1.0019
0.186808
0.128873
0.149161
0.398824
1.27223
0.22182
0.466237
4.49789
14.7294
3.70116
0.946715
0.68774
0.0557103
0.0302128
0.0320652
0.027963
0.019407
0.0847653
0.0997671
0.407788
0.209797
0.278375
0.662033
2.92716
2.40098
1.13569
5.51043
10.2789
15.1575
9.14387
2.24791
9.78002