/*--------------------------------*- C++ -*----------------------------------*\
| =========                 |                                                 |
| \\      /  F ield         | OpenFOAM: The Open Source CFD Toolbox           |
|  \\    /   O peration     | Version:  v2012                                 |
|   \\  /    A nd           | Website:  www.openfoam.com                      |
|    \\/     M anipulation  |                                                 |
\*---------------------------------------------------------------------------*/
FoamFile
{
    version     2.0;
    format      ascii;
    class       volScalarField;
    location    "565";
    object      k;
}
// * * * * * * * * * * * * * * * * * * * * * * * * * * * * * * * * * * * * * //

dimensions      [0 2 -2 0 0 0 0];


internalField   nonuniform List<scalar> 
18258
(
0.0334492
0.0157677
0.0123092
0.010159
0.0109855
0.0139885
0.0167864
0.0211538
0.0255744
0.0315155
0.0385867
0.0475219
0.0535269
0.060684
0.0636569
0.0619322
0.0520645
0.0473088
0.0564662
0.0809722
0.0710694
0.0513911
0.0623246
0.061487
0.0722488
0.0763401
0.0600767
0.0548547
0.0494387
0.0437555
0.0371931
0.0230398
0.0240844
0.0288421
0.032052
0.0357592
0.0386173
0.0409484
0.0426178
0.0434428
0.0433503
0.0420514
0.0393552
0.0353164
0.0298629
0.0238968
0.0236223
0.0237192
0.0294098
0.0350457
0.0405196
0.0461427
0.0545981
0.0446801
0.0290461
0.0392043
0.0476848
0.0545784
0.0590025
0.0614474
0.0622072
0.0612909
0.0589987
0.055738
0.0517772
0.0474404
0.0434266
0.0394458
0.034208
0.0309497
0.0268428
0.023502
0.0210647
0.0193545
0.0182372
0.0172325
0.0163657
0.0156315
0.0150153
0.014591
0.0144995
0.0145257
0.0146258
0.0147216
0.0150639
0.0127172
0.0109453
0.010477
0.0102197
0.00956586
0.00810648
0.0106564
0.0117576
0.0121732
0.012442
0.0136201
0.0147827
0.0143615
0.0136354
0.0125209
0.0125686
0.0170328
0.0178099
0.0228517
0.0216734
0.0168637
0.0148837
0.0166701
0.0195065
0.0225385
0.0192504
0.0192313
0.0179373
0.0170296
0.0148892
0.0149328
0.0144239
0.0141181
0.0150405
0.0177918
0.0171999
0.0173074
0.0185292
0.0188539
0.0200814
0.0210995
0.0204469
0.0202654
0.0164187
0.0163192
0.0173605
0.0172346
0.0177145
0.0202024
0.02026
0.0206081
0.0208257
0.0236097
0.0236282
0.023593
0.0236842
0.024523
0.0235599
0.0231471
0.0231763
0.0232122
0.021048
0.0208241
0.0204578
0.0204953
0.0183353
0.0175998
0.0183302
0.0193094
0.0212836
0.0250339
0.0314672
0.0403858
0.0504776
0.060716
0.0684851
0.0728429
0.0772044
0.0766804
0.0773805
0.0794793
0.0798452
0.0786976
0.0768466
0.0746809
0.0717294
0.0671009
0.0666401
0.0589991
0.0481101
0.0334007
0.0389038
0.0417362
0.0444853
0.0447823
0.0452581
0.0440453
0.0422914
0.0387196
0.0336318
0.0247562
0.0257323
0.030179
0.0348427
0.038629
0.0427897
0.0464197
0.0482763
0.049994
0.0593539
0.0570794
0.0551672
0.0568611
0.0584252
0.0616294
0.0600666
0.056124
0.0501572
0.0517981
0.0449141
0.0335774
0.0313697
0.0292555
0.0269838
0.0378331
0.0496076
0.0611406
0.0674859
0.0736613
0.0785212
0.0825757
0.0871262
0.0816698
0.0765259
0.0577793
0.0839115
0.065777
0.0504643
0.0411329
0.0331983
0.031676
0.0344123
0.0344413
0.0326173
0.028048
0.0220541
0.0229896
0.0358092
0.0455909
0.0535899
0.0551702
0.0598616
0.062274
0.0570048
0.0575777
0.0467562
0.0479553
0.0513815
0.0459796
0.0437225
0.0351161
0.0274194
0.0335701
0.0499406
0.0685591
0.0845193
0.0996399
0.0660412
0.05012
0.0410223
0.0341974
0.0330542
0.0376721
0.0436141
0.0528092
0.0411842
0.037127
0.0336212
0.0307554
0.0258318
0.0275522
0.0287706
0.0269355
0.0497865
0.0573281
0.0611739
0.0838103
0.0926789
0.108691
0.107322
0.0928147
0.0965642
0.0692303
0.0689032
0.0862818
0.0682898
0.051328
0.0616295
0.0745679
0.0883788
0.101528
0.112831
0.121924
0.123637
0.112146
0.081296
0.0468064
0.0212952
0.0186376
0.0180811
0.0173744
0.01649
0.0157024
0.0150859
0.0121492
0.00951355
0.00928281
0.00945988
0.00940373
0.00826784
0.00951544
0.0115774
0.0137708
0.01528
0.0164899
0.017511
0.018246
0.0188351
0.019234
0.019531
0.0197993
0.0200355
0.0202224
0.0203615
0.0204535
0.0204972
0.0204843
0.0204081
0.0202673
0.02006
0.0197703
0.0192948
0.017762
0.0159084
0.0150804
0.0151394
0.0148897
0.0145876
0.0119522
0.0123251
0.0143457
0.0149785
0.0177699
0.0198057
0.0215087
0.0229624
0.0244887
0.0252645
0.0260918
0.0263561
0.0264071
0.0263049
0.0261525
0.0259252
0.0256185
0.0245486
0.0212929
0.024897
0.0272916
0.0289809
0.0303338
0.0312389
0.0313411
0.028589
0.0360724
0.0385292
0.0394328
0.0396992
0.0388822
0.0368764
0.0344337
0.0323832
0.0308769
0.0297603
0.0276181
0.0253714
0.0230629
0.0206478
0.0174259
0.0186964
0.020532
0.0207421
0.0204516
0.0214964
0.022756
0.0211021
0.0190119
0.0161214
0.0151235
0.0146329
0.0144432
0.0148495
0.0145053
0.0144039
0.0149023
0.0179159
0.0190106
0.0207115
0.0239687
0.0228357
0.0208916
0.0280636
0.0296752
0.030123
0.0304714
0.0303799
0.0296241
0.0265456
0.0250885
0.0264748
0.0250171
0.0243865
0.0244757
0.0241083
0.0222456
0.0245455
0.0265458
0.0281363
0.0289841
0.0302219
0.0317759
0.0339358
0.0357289
0.0373874
0.0383891
0.038364
0.0378232
0.0379996
0.0386393
0.0383192
0.0366343
0.0345655
0.0324811
0.0295259
0.0293519
0.0313183
0.0328735
0.0345281
0.0362992
0.0356197
0.0337356
0.0321153
0.030702
0.0289989
0.0288799
0.0305499
0.0319874
0.0337214
0.035839
0.0360208
0.0338795
0.0320644
0.0305648
0.0288678
0.0288357
0.0305311
0.0320398
0.0337614
0.035649
0.0347798
0.0333094
0.0317886
0.030324
0.0286639
0.0282262
0.0298266
0.0312064
0.0325189
0.0335838
0.0319101
0.0313208
0.030252
0.0288647
0.0271094
0.0258538
0.0263624
0.0277484
0.0278592
0.0283374
0.0294545
0.0293
0.0290171
0.0289724
0.0286909
0.0264453
0.0268525
0.0269011
0.027593
0.0308902
0.0304115
0.0330817
0.035492
0.0331845
0.0316976
0.0281321
0.0336907
0.0337333
0.0346919
0.0335191
0.0237497
0.0218962
0.0228975
0.0244302
0.0260702
0.0253839
0.0226312
0.0225613
0.0231634
0.022577
0.0210171
0.0180363
0.0135551
0.0135644
0.0135563
0.0142907
0.0170951
0.0186954
0.0188078
0.018653
0.0183504
0.0178781
0.0171609
0.0160895
0.015627
0.0246101
0.044545
0.0563917
0.0558098
0.0424435
0.0355145
0.0261518
0.0179444
0.0105456
0.010731
0.0113716
0.0137289
0.0115765
0.0105117
0.0144901
0.0117926
0.0197075
0.0228883
0.0302552
0.041297
0.0398322
0.0302089
0.0204304
0.0184617
0.0193276
0.0198425
0.020231
0.020613
0.0209982
0.0214161
0.0219236
0.0215931
0.0189585
0.0167171
0.0168434
0.0174146
0.0199166
0.0212953
0.0220884
0.0217585
0.0220108
0.0237344
0.0224876
0.021258
0.0210489
0.0203433
0.023186
0.0235337
0.0229082
0.0229185
0.0231974
0.0230787
0.0232091
0.0240139
0.0198147
0.0219267
0.0224766
0.0227603
0.0235551
0.0190537
0.0192416
0.0193037
0.018146
0.0148898
0.0180227
0.0167797
0.0121618
0.0134782
0.0134422
0.0140536
0.0143795
0.0171232
0.016285
0.0155601
0.0163216
0.0223041
0.0231142
0.0232938
0.0206523
0.0194087
0.0218986
0.0224872
0.0220265
0.0211405
0.021307
0.0203627
0.0184585
0.0177389
0.0178762
0.019289
0.0200874
0.0201547
0.0237698
0.0232684
0.0217044
0.0227054
0.0232998
0.0228929
0.0227843
0.0227309
0.0223595
0.0219385
0.0223516
0.0225398
0.0225918
0.0221498
0.0224004
0.0250427
0.0214788
0.0212862
0.0201985
0.0195384
0.0179063
0.0176528
0.017751
0.0177107
0.0176157
0.0167765
0.0186379
0.0179106
0.0200466
0.0216618
0.0228154
0.0239896
0.0241409
0.0237116
0.0236726
0.0232882
0.0232548
0.0227032
0.0218541
0.0212677
0.0204887
0.0192774
0.0192697
0.0192199
0.0190753
0.0204833
0.0203816
0.0219497
0.0230732
0.022788
0.0218196
0.0217116
0.0205317
0.0205091
0.0215537
0.0224461
0.0226957
0.0235595
0.0260947
0.0237463
0.0252993
0.0259971
0.0266601
0.0260479
0.0249501
0.0256989
0.0240354
0.0229215
0.0242402
0.0249633
0.0262243
0.027019
0.025041
0.0240126
0.0228156
0.0219527
0.0209666
0.018441
0.0190535
0.0198435
0.0210754
0.0228911
0.0256129
0.0283494
0.0312698
0.0313255
0.0290271
0.0273281
0.0321264
0.0316025
0.0365754
0.0371739
0.0330528
0.0302517
0.0273405
0.0269159
0.0259966
0.0254612
0.0241847
0.0254357
0.0258624
0.0249151
0.0273842
0.0289557
0.0332862
0.0388489
0.0355147
0.032684
0.0377354
0.0366486
0.0426153
0.0363986
0.0347373
0.0286012
0.0332016
0.0355539
0.0433013
0.0338975
0.0297154
0.0294873
0.0308084
0.0382928
0.0368377
0.0394383
0.0445924
0.0439296
0.0390482
0.0358161
0.0415808
0.0316244
0.0370491
0.0390589
0.0324329
0.0322002
0.0390797
0.039696
0.0398519
0.033765
0.0330462
0.0250349
0.0335908
0.0400741
0.0399772
0.0331935
0.0259878
0.0358982
0.0315444
0.0313455
0.0313449
0.0269533
0.0268885
0.02618
0.0264373
0.0271513
0.024714
0.0255209
0.025782
0.0259459
0.0260779
0.0262709
0.0266161
0.0272606
0.027988
0.0229056
0.0243552
0.0229937
0.0216419
0.020279
0.024059
0.0265337
0.0283385
0.0297913
0.0309256
0.0314085
0.0299898
0.0379617
0.0396836
0.0413153
0.0414778
0.0402566
0.0376256
0.0342104
0.030755
0.0285373
0.0272027
0.0246842
0.0225519
0.0204769
0.0183211
0.0155205
0.0142091
0.0129046
0.0115721
0.011257
0.010734
0.0101451
0.0094724
0.00911481
0.0115247
0.0184999
0.0277638
0.0328056
0.0381261
0.0446942
0.0514511
0.057017
0.0611179
0.0639524
0.0656657
0.0660797
0.0633794
0.0524621
0.0474658
0.0426138
0.0377082
0.0327625
0.0320889
0.0411707
0.0494677
0.056509
0.0628762
0.0670432
0.0654381
0.0499646
0.0467752
0.0622954
0.0897561
0.0804318
0.103409
0.119908
0.0795961
0.0649186
0.0641951
0.0795282
0.082008
0.0753292
0.066304
0.0563971
0.0454515
0.0504417
0.0551903
0.0597146
0.0642477
0.0776398
0.0802398
0.0791044
0.0767566
0.0735553
0.0689366
0.0619539
0.0530608
0.0440917
0.0365432
0.0296468
0.0196427
0.0125957
0.0134939
0.0129602
0.0148626
0.0143545
0.00989224
0.0102277
0.0104485
0.0103958
0.0101744
0.0102276
0.0116209
0.0183119
0.015001
0.0136238
0.0117294
0.0145032
0.0164161
0.018364
0.0189821
0.0191344
0.0196084
0.0317452
0.0434113
0.0495297
0.0544012
0.058195
0.0568131
0.0531664
0.0469052
0.0396084
0.0369619
0.0330306
0.0297247
0.0280777
0.0290514
0.0255341
0.0158783
0.0146404
0.0157092
0.015406
0.0144151
0.0163643
0.0175867
0.0183647
0.018994
0.0194647
0.0198269
0.0200857
0.0202578
0.0203486
0.0203764
0.0203556
0.0202913
0.020182
0.020025
0.0198094
0.0195053
0.0189862
0.0172706
0.0154251
0.0147059
0.0147894
0.0145575
0.0141928
0.0123136
0.0125392
0.0143987
0.0150023
0.0146139
0.0152079
0.0156819
0.016895
0.0190721
0.0212114
0.0230486
0.0217353
0.021075
0.021041
0.0206366
0.0174457
0.0207539
0.0236617
0.0241805
0.0244585
0.0252815
0.0268841
0.027834
0.0268943
0.0263839
0.025848
0.0227286
0.0243588
0.0279213
0.02834
0.0290227
0.0296248
0.0302035
0.0314878
0.0308536
0.0299572
0.0293566
0.0264994
0.0256206
0.0316557
0.0206533
0.0144236
0.0103113
0.0107933
0.0109835
0.0106366
0.0114095
0.0119558
0.0122089
0.0116046
0.0126848
0.013604
0.0129141
0.015442
0.0147351
0.0137154
0.0132466
0.0140945
0.0148896
0.0152852
0.0163047
0.0264046
0.0271868
0.0227504
0.0292584
0.0318397
0.0290379
0.0319106
0.0295439
0.0281929
0.0309802
0.0343933
0.0356779
0.0333203
0.0319164
0.031302
0.0208381
0.0201521
0.0194355
0.0175856
0.0178594
0.0174008
0.01695
0.0165479
0.0191012
0.020498
0.0217202
0.0214212
0.0211226
0.0207109
0.0208093
0.0246799
0.0326373
0.0431557
0.0469252
0.0457298
0.0417699
0.0347576
0.0283409
0.0279937
0.0261719
0.0250114
0.0247967
0.0188826
0.0148826
0.0174077
0.0173601
0.0184311
0.0191094
0.019645
0.0200743
0.0204348
0.0207488
0.0210546
0.0213389
0.0215875
0.0217963
0.0219747
0.0221221
0.0222795
0.0224689
0.0227299
0.0229388
0.0212859
0.0186421
0.0172884
0.0171405
0.0178593
0.0187653
0.0198927
0.0191314
0.0154038
0.0154904
0.0219112
0.0223772
0.02101
0.0195838
0.0197871
0.0189435
0.022784
0.0225919
0.0234096
0.0232078
0.0229277
0.0226447
0.0223614
0.0220662
0.0217668
0.021504
0.0212641
0.0210409
0.0208221
0.0205881
0.0203037
0.0198855
0.019189
0.0183788
0.0168811
0.0180106
0.0192601
0.0209877
0.0228397
0.0236911
0.022792
0.0215946
0.0211175
0.0213728
0.0216929
0.0220321
0.0223926
0.0228121
0.0232283
0.0236166
0.0235507
0.0222006
0.0228495
0.0174876
0.0183404
0.0186417
0.0186007
0.0202608
0.0193933
0.0146612
0.0151787
0.0159087
0.017203
0.0198067
0.0201764
0.0215425
0.0217738
0.017343
0.0170396
0.0166111
0.0176135
0.0152341
0.015882
0.0266763
0.0272692
0.0350257
0.0384053
0.039993
0.0331762
0.0456353
0.0525082
0.0506458
0.0409382
0.0235386
0.0346946
0.0422181
0.0488895
0.045838
0.0356779
0.0450001
0.0474362
0.0633613
0.0590324
0.052664
0.0633991
0.0448058
0.0269671
0.0158306
0.0164005
0.0151979
0.0306915
0.0348035
0.0315106
0.0323671
0.0399981
0.0410097
0.036277
0.0345639
0.0363222
0.0358701
0.0398418
0.0371511
0.0337404
0.0233222
0.0190366
0.019882
0.0212974
0.0231298
0.0254739
0.0253704
0.0242232
0.0228529
0.0218722
0.0208124
0.0183107
0.0176483
0.0196109
0.0212423
0.0226217
0.0241337
0.0249562
0.0257983
0.0259617
0.0258514
0.0255258
0.0250946
0.0245374
0.0238519
0.0224429
0.023686
0.0243631
0.0245716
0.0248507
0.025165
0.0254437
0.025588
0.0254754
0.0245202
0.0237048
0.0225343
0.0214165
0.0198082
0.0176888
0.0183733
0.0201357
0.0217389
0.0228538
0.0239053
0.0235171
0.0240124
0.0246736
0.0246942
0.0245096
0.0242849
0.0241346
0.0242296
0.0248655
0.0265877
0.0263162
0.0291484
0.0303277
0.0277605
0.0264314
0.0257398
0.0253148
0.02507
0.024864
0.0246646
0.024118
0.0235789
0.0240813
0.0243342
0.0246291
0.0249822
0.0254823
0.026165
0.0272501
0.0286515
0.028538
0.0263238
0.0261734
0.025109
0.0243177
0.0239347
0.0238801
0.0239231
0.0240263
0.023966
0.0234435
0.0231125
0.0235172
0.0225033
0.022567
0.0215938
0.0202314
0.0187879
0.0173351
0.0166725
0.03535
0.0353299
0.0458207
0.0425105
0.0371839
0.0472575
0.0602552
0.0522328
0.0629254
0.0667291
0.0542408
0.0503346
0.0279461
0.024455
0.0174083
0.0189355
0.0202836
0.0214916
0.0213079
0.0222316
0.0221137
0.0230858
0.0225426
0.0217617
0.0212042
0.0201856
0.0202407
0.0189665
0.0174193
0.0172863
0.0189377
0.0199989
0.0211809
0.0211779
0.0226408
0.0231392
0.0235394
0.0236933
0.0236886
0.0237858
0.023963
0.0244202
0.0251392
0.0256084
0.0257463
0.0261171
0.0258513
0.0255437
0.0251044
0.0248088
0.0245019
0.0242305
0.0239403
0.0236634
0.0232308
0.0225729
0.0224537
0.0229682
0.0233075
0.0235375
0.0236648
0.0236354
0.0234283
0.0230974
0.0227632
0.0223998
0.0224616
0.0238263
0.0240872
0.0242264
0.0240097
0.0238257
0.0237945
0.0236565
0.0235465
0.023311
0.0229394
0.0224706
0.0214017
0.0215006
0.0223822
0.0228255
0.023158
0.0234433
0.0234821
0.0234179
0.0230505
0.0227583
0.0223983
0.021815
0.0210472
0.0185369
0.0190124
0.0196502
0.020516
0.0213861
0.0221287
0.0226058
0.0228111
0.0228178
0.0226496
0.0222977
0.0215467
0.0215258
0.0220655
0.0222289
0.0221682
0.0218482
0.0212069
0.0202575
0.0190282
0.0177911
0.0168107
0.0163328
0.0155623
0.0181783
0.0192534
0.0202377
0.0211321
0.0219585
0.0228134
0.0231214
0.02316
0.0229963
0.0227264
0.0223127
0.0215414
0.0215459
0.0222494
0.0226399
0.0228594
0.0229532
0.0227006
0.0220426
0.0204936
0.0190523
0.0178429
0.0167221
0.0155687
0.0153003
0.0158063
0.0153676
0.0157861
0.0169087
0.0183983
0.0197774
0.020787
0.0214034
0.0217054
0.021745
0.0214196
0.0212341
0.0213537
0.0211433
0.0206352
0.0197572
0.0184661
0.016995
0.0157803
0.0154161
0.0160553
0.0166933
0.0160939
0.0138683
0.0150022
0.0161293
0.0172872
0.0189938
0.0210705
0.0220488
0.0225262
0.0226626
0.0225351
0.0221696
0.0215176
0.0214591
0.0220829
0.0224415
0.0225478
0.0224508
0.0220358
0.0212287
0.0187077
0.0159108
0.0146391
0.0139011
0.0129649
0.0162474
0.0169426
0.0161344
0.0155993
0.0164547
0.0174862
0.0186281
0.0195116
0.0201566
0.0206666
0.0209519
0.0209895
0.0207121
0.0205872
0.0203592
0.0200123
0.0196796
0.0193534
0.0185885
0.0177583
0.0167784
0.0178372
0.0183981
0.0176453
0.0144652
0.0150317
0.0159078
0.0164609
0.0191725
0.0216368
0.0222679
0.0224318
0.0225183
0.0223789
0.0219828
0.0213683
0.0212423
0.0218805
0.0223685
0.0226803
0.0229962
0.0232597
0.0234559
0.0215724
0.0182067
0.0173863
0.0155951
0.0147514
0.0182062
0.018886
0.0184137
0.0178601
0.0195544
0.0202575
0.0204929
0.020467
0.0203797
0.0202838
0.0203061
0.0204279
0.0201261
0.0199952
0.0200973
0.0203207
0.0202921
0.0200858
0.0195236
0.018752
0.0176354
0.0194852
0.0211517
0.0208765
0.0169904
0.0175296
0.0184217
0.0180513
0.0208349
0.0226839
0.0231517
0.0230633
0.0227273
0.0222414
0.0216939
0.0210527
0.0207713
0.0213395
0.0219106
0.021945
0.0220445
0.021999
0.0214409
0.021278
0.0207061
0.020437
0.0196753
0.0190937
0.0183467
0.0205132
0.0237345
0.0259522
0.0275428
0.029441
0.0279806
0.0244375
0.0221585
0.0152633
0.0152716
0.0154942
0.0148671
0.0144908
0.0143056
0.0187318
0.0214701
0.0241426
0.0258459
0.0234071
0.023367
0.0232759
0.0231579
0.02304
0.0229256
0.0227047
0.0233293
0.0405864
0.282516
0.208447
0.234548
0.223753
0.315175
0.078475
0.0386723
0.0430993
0.0503253
0.0579506
0.0561983
0.0521585
0.0454671
0.040739
0.0403414
0.0395766
0.0393552
0.0380433
0.0380825
0.0374756
0.0453229
0.0965443
0.124563
0.138086
0.146501
0.155357
0.150758
0.159622
0.151405
0.151783
0.153291
0.158013
0.150608
0.143265
0.139452
0.135143
0.117824
0.118167
0.0997202
0.103514
0.0863916
0.0908934
0.094771
0.0941094
0.0929093
0.0927009
0.0929946
0.0938399
0.0976195
0.0929176
0.0991198
0.0914928
0.0733524
0.0710182
0.0732015
0.0674663
0.0589003
0.0671875
0.082819
0.0991721
0.11642
0.0987669
0.122916
0.115766
0.11579
0.109843
0.103228
0.0993859
0.0985948
0.0991834
0.100302
0.102947
0.104893
0.10651
0.109453
0.118042
0.12046
0.119134
0.10166
0.086334
0.0948027
0.0996452
0.103317
0.10357
0.0988179
0.0967348
0.0906719
0.0891203
0.0836497
0.0810299
0.0756052
0.0722568
0.0674482
0.0840596
0.0821597
0.0891719
0.0954748
0.0996812
0.103343
0.104911
0.106198
0.104993
0.102602
0.0975474
0.0953787
0.0905287
0.109017
0.127416
0.130078
0.125364
0.111844
0.106181
0.339191
0.411535
0.412927
0.613134
0.655068
0.847329
0.335982
0.179563
0.192006
0.188669
0.180474
0.177294
0.177115
0.18892
0.19805
0.189041
0.200953
0.178902
0.177807
0.170516
0.198703
0.196312
0.176858
0.15475
0.122219
0.100048
0.099802
0.0830065
0.0837296
0.0724708
0.0731194
0.0747327
0.0924482
0.172172
0.210296
0.23697
0.263375
0.323801
0.293382
0.442855
0.354355
0.439585
0.303314
0.328094
0.313726
0.304861
0.302812
0.318796
0.341592
0.300263
0.373568
0.299168
0.648121
0.784771
0.496238
0.458814
0.406697
0.392493
0.382568
0.376995
0.368967
0.486812
0.451393
0.555233
0.51625
0.64838
0.56835
0.576337
0.543318
0.582135
0.602705
0.615621
0.492582
0.538464
0.419414
0.453832
0.377903
0.413718
0.292808
0.292513
0.335309
0.37215
0.398205
0.455408
0.715423
0.607172
0.818694
0.585949
0.707895
0.491574
0.538972
0.514597
0.496911
0.49858
0.526669
0.630737
0.609854
0.696882
0.514714
0.526981
0.516714
0.534053
0.523495
0.558441
0.563135
0.564322
0.562308
0.523426
0.534031
0.532201
0.531978
0.531997
0.532345
0.509587
0.51277
0.505229
0.511011
0.526916
0.514596
0.514512
0.512373
0.504798
0.502742
0.502257
0.504017
0.503786
0.50892
0.50879
0.509131
0.51219
0.526897
0.514422
1.82505
0.903284
0.430661
0.340415
0.220288
0.135246
0.0559867
0.0604726
0.0634403
0.0644073
0.0623964
0.0570383
0.0488752
0.0388378
0.0310164
0.0301893
0.026918
0.0266372
0.0344655
0.0421479
0.0385556
0.0463765
0.0540892
0.062415
0.0704065
0.0773686
0.083254
0.0861928
0.0831563
0.0704221
0.0527452
0.0353031
0.0250057
0.0225955
0.0209491
0.0189559
0.0168497
0.0151891
0.0141922
0.0130311
0.0124069
0.0123248
0.0125529
0.0127965
0.013241
0.0147548
0.0160544
0.0172395
0.0182033
0.0184482
0.0179244
0.0184667
0.0190611
0.0194567
0.0198019
0.0196191
0.019611
0.0198601
0.0198212
0.0200306
0.0199349
0.0199529
0.019816
0.0196597
0.0194355
0.0190082
0.0187286
0.0181635
0.0178106
0.0169564
0.0169918
0.0173862
0.0177106
0.0167038
0.0166414
0.0158966
0.0271546
0.048318
0.061186
0.0662143
0.0714989
0.067462
0.0571743
0.0392614
0.0192438
0.0187831
0.0192671
0.0217855
0.021297
0.0173633
0.0181547
0.0188219
0.017638
0.0176078
0.0176415
0.0197333
0.0203478
0.0216996
0.0221969
0.0225483
0.0227637
0.0226758
0.0227585
0.0224412
0.0224293
0.0220235
0.0219997
0.0216789
0.0214466
0.0217463
0.0224691
0.0225644
0.023252
0.0229689
0.0227004
0.0221422
0.0217552
0.0208993
0.0199851
0.0189455
0.0173688
0.0169012
0.0174083
0.0178727
0.0173997
0.018778
0.0199862
0.0196725
0.02438
0.0226519
0.0202092
0.02267
0.0184194
0.0185875
0.018141
0.0170858
0.0176376
0.0171744
0.0171175
0.0174413
0.0177515
0.0189339
0.0199222
0.0205554
0.0214238
0.0220563
0.0227665
0.0239688
0.0242489
0.0232124
0.0230049
0.0217853
0.0210915
0.020763
0.0217045
0.0230281
0.0229646
0.0239058
0.0236784
0.0224273
0.0216169
0.0207686
0.0197824
0.0191205
0.0183174
0.0175539
0.0171219
0.0162796
0.0163491
0.0152457
0.0168069
0.0173336
0.0195639
0.0174175
0.0169337
0.0225394
0.0285216
0.0444318
0.0324654
0.0214586
0.0233004
0.0316855
0.0395922
0.028049
0.0275714
0.0154327
0.0182123
0.0152594
0.0155768
0.0166481
0.0169417
0.0181617
0.0192347
0.0194779
0.0202294
0.0205795
0.0213444
0.0216043
0.0223412
0.0225377
0.0238245
0.0238907
0.0239336
0.0239074
0.0230621
0.0229854
0.0229689
0.0234452
0.0232358
0.0239787
0.0240124
0.0241196
0.0240564
0.0226988
0.0223708
0.0215955
0.0210747
0.0201686
0.0196101
0.0188904
0.0185032
0.017843
0.0181605
0.0188844
0.0190721
0.0200375
0.0200566
0.020799
0.0210104
0.0214813
0.0216181
0.0222869
0.0224288
0.0226997
0.0227574
0.0239846
0.0241007
0.0241329
0.0240988
0.0241008
0.0243176
0.0243111
0.0242562
0.0242318
0.0241018
0.0239273
0.0237392
0.02482
0.0255188
0.0250915
0.0248525
0.0251128
0.0259688
0.0265228
0.0276171
0.0284727
0.0295446
0.0304317
0.0312489
0.0319134
0.0323826
0.03249
0.0325175
0.0320548
0.0316763
0.0333582
0.039865
0.0430955
0.0483815
0.0507636
0.0527219
0.0534092
0.0522919
0.0530309
0.0517886
0.052062
0.0509095
0.050504
0.0497209
0.0487422
0.048048
0.0466
0.0458823
0.0505131
0.0571995
0.0573018
0.050102
0.0471004
0.042952
0.0375955
0.0393161
0.0459595
0.0413755
0.0387391
0.0359929
0.0310307
0.0238973
0.0179084
0.0256736
0.0334427
0.0406992
0.0474819
0.0534675
0.0573414
0.059457
0.0609815
0.0626752
0.0606346
0.0531781
0.0415308
0.0316528
0.027753
0.0261953
0.0237653
0.0203412
0.0184662
0.0173988
0.0162524
0.0149138
0.0140659
0.013828
0.0140843
0.0142033
0.0155509
0.0168147
0.016806
0.0179878
0.0177882
0.0183005
0.0188954
0.0193022
0.0199567
0.0199291
0.0189683
0.01932
0.0195832
0.0202631
0.0201662
0.0203429
0.0201322
0.0194229
0.0189116
0.0183166
0.0177984
0.0173346
0.0167548
0.0160252
0.016015
0.0162005
0.0157524
0.016174
0.0166242
0.0170384
0.0176681
0.0185753
0.0193316
0.0211563
0.0212873
0.02103
0.0211131
0.019681
0.0196136
0.0186393
0.0184007
0.0199945
0.0198316
0.0181605
0.0195516
0.0195634
0.0213492
0.02136
0.0206886
0.0208897
0.0207861
0.0189655
0.0180763
0.0170062
0.0162228
0.0156251
0.0152147
0.014736
0.0153583
0.0141256
0.0135671
0.0140405
0.0140182
0.0140893
0.0144843
0.0149181
0.0156648
0.0163735
0.0174229
0.0180644
0.0189634
0.0192963
0.0211995
0.0211051
0.0209651
0.020996
0.0211317
0.0215779
0.0207947
0.0207564
0.0208994
0.020915
0.0209494
0.0209348
0.0191017
0.0188986
0.0180638
0.0177448
0.0168111
0.0164496
0.0157897
0.0154708
0.0150746
0.0148738
0.0232705
0.0254708
0.0256266
0.0397882
0.0199868
0.0199591
0.0343564
0.0173381
0.023059
0.0236075
0.0246876
0.0259237
0.0225451
0.0307444
0.0212101
0.0233465
0.024079
0.0252284
0.0129186
0.0202544
0.0378861
0.0427633
0.0440712
0.0489977
0.0556203
0.0587984
0.0618268
0.0638357
0.0660963
0.0685343
0.0709301
0.0726595
0.072799
0.0690914
0.0660142
0.0564835
0.0526497
0.0563893
0.0608097
0.0472896
0.0424906
0.0430298
0.0434862
0.0440117
0.0442113
0.0448886
0.0446873
0.0456713
0.0449349
0.0460268
0.0448739
0.0458835
0.0446638
0.0419506
0.0387324
0.0325566
0.0305899
0.029484
0.0267727
0.0242653
0.0220262
0.0202043
0.0197731
0.0182148
0.0168225
0.0165247
0.0152345
0.0155089
0.016743
0.0198931
0.0168181
0.0176399
0.0260102
0.0191181
0.0180126
0.0185561
0.0190747
0.0193166
0.0182066
0.0198307
0.0221017
0.0221102
0.0221805
0.0221949
0.0213931
0.0212291
0.0209675
0.021028
0.0210601
0.0211874
0.0211573
0.019337
0.0192807
0.0190077
0.0188696
0.0180793
0.017911
0.0173247
0.0169925
0.0161493
0.015854
0.0154056
0.0154739
0.0168234
0.0208976
0.0306001
0.0175458
0.0182977
0.0158005
0.0139852
0.0266702
0.0247381
0.0286333
0.0267807
0.0393947
0.0264224
0.0231736
0.0241693
0.029697
0.0296575
0.0326387
0.0423853
0.0330236
0.0283171
0.0743658
0.0547538
0.0336359
0.0469033
0.0588335
0.109779
0.127933
0.0561732
0.0566637
0.0623307
0.0632581
0.063157
0.0536633
0.0494089
0.0417346
0.0323135
0.0128525
0.0249367
0.0322647
0.043239
0.0577994
0.0921205
0.0529584
0.0597836
0.0657513
0.0648265
0.0679112
0.0660948
0.0647296
0.0656731
0.102666
0.11154
0.108303
0.0872278
0.0818312
0.0743538
0.124201
0.139048
0.12007
0.130166
0.136231
0.0827995
0.0305162
0.0249256
0.0238157
0.0263958
0.025336
0.0459635
0.0206008
0.0218255
0.0226603
0.0271442
0.0301815
0.0528436
0.023273
0.0254654
0.032399
0.0348641
0.0458682
0.0274569
0.0280849
0.034387
0.0361608
0.0394932
0.0336439
0.0317525
0.0287081
0.0259104
0.0244162
0.0254616
0.0318408
0.0462721
0.0278812
0.0283098
0.0300695
0.13406
0.0307373
0.0266421
0.0277231
0.0267232
0.0336556
0.0350707
0.111713
0.0355781
0.0167216
0.0154539
0.0159187
0.0167288
0.0173681
0.0179898
0.0184356
0.0190788
0.0194713
0.0196258
0.0197963
0.0221662
0.0220614
0.0215945
0.0210512
0.0218374
0.0211432
0.0211879
0.021801
0.0212655
0.021414
0.022459
0.0236274
0.0231313
0.0236889
0.025044
0.0238905
0.0222
0.0219939
0.0221135
0.0228215
0.0239596
0.0227734
0.0234284
0.0226144
0.0235303
0.0236526
0.0203633
0.0199925
0.0197883
0.0192857
0.0186097
0.0179855
0.0173165
0.0166798
0.0162075
0.0161835
0.0167643
0.015213
0.0156728
0.0182145
0.0402725
0.033287
0.0271667
0.0226124
0.0197612
0.018496
0.0183198
0.0187419
0.0193908
0.0199515
0.0201602
0.0207487
0.0246207
0.0245413
0.0257422
0.0246129
0.0259449
0.0248859
0.0235639
0.0226944
0.0238988
0.0232068
0.0236965
0.0253036
0.026137
0.0237696
0.0240324
0.021446
0.0200397
0.0184359
0.0187741
0.0202111
0.0208793
0.0233068
0.0233938
0.0268213
0.0268122
0.0266795
0.0254528
0.0247812
0.0262252
0.0247428
0.0258907
0.0247844
0.0261852
0.0273722
0.0277158
0.0270123
0.0261877
0.0253158
0.021046
0.0202539
0.0199501
0.0194641
0.0192272
0.0202194
0.0246438
0.0341
0.0464337
0.0586489
0.067981
0.0673107
0.0605279
0.0412995
0.0421033
0.0391929
0.042522
0.060828
0.0876127
0.0616721
0.115131
0.0891851
0.052902
0.0631101
0.0751433
0.0843354
0.0903396
0.0915317
0.0781527
0.0576566
0.0506086
0.0530101
0.0851042
0.0837891
0.0825494
0.0780441
0.0825546
0.0804103
0.0777127
0.0761245
0.0743208
0.0700325
0.0700146
0.067281
0.0672383
0.0601232
0.0613
0.0615179
0.0589414
0.0561972
0.0539127
0.0517241
0.0494026
0.0455189
0.044246
0.0417803
0.040051
0.0367054
0.0361698
0.0356868
0.0335195
0.0319745
0.0307269
0.0294717
0.0277792
0.0279453
0.026375
0.0262224
0.021379
0.0209984
0.0199782
0.0196505
0.019417
0.0196528
0.0209685
0.0237527
0.0440661
0.0332879
0.0330451
0.03356
0.0337259
0.0396479
0.0464133
0.0705408
0.0652422
0.0717419
0.0613649
0.0637897
0.0629927
0.0626146
0.065338
0.0689168
0.0742595
0.0867445
0.333422
0.513792
0.253133
0.237117
0.246755
0.251653
0.259046
0.339014
0.36007
0.35586
0.360544
0.330466
0.318421
0.196634
0.226049
0.238131
0.237036
0.22395
0.202787
0.394441
0.522646
0.518783
0.523655
0.523768
0.518767
0.522597
0.502913
0.514275
0.501758
0.515027
0.502297
0.521662
0.518921
0.504364
0.501138
0.501157
0.500917
0.50138
0.501557
0.504895
0.506056
0.506108
0.505103
0.504124
0.514518
0.438765
0.123703
0.0862176
0.143518
0.199449
0.163485
0.235721
0.270751
0.195233
0.111204
0.0909981
0.102655
0.126469
0.127931
0.155056
0.202664
0.189613
0.15483
0.155749
0.156666
0.202014
0.193394
0.219593
0.262129
0.255106
0.190368
0.151747
0.151406
0.229641
0.24406
0.239231
0.124827
0.0450583
0.0220199
0.0229914
0.0328279
0.016637
0.0168723
0.022525
0.0593306
0.0982465
0.0510909
0.137799
0.139164
0.182648
0.147884
0.178699
0.11597
0.119117
0.0677983
0.0798192
0.0897555
0.0954948
0.0998436
0.0940995
0.217556
0.321676
0.191682
0.562562
0.538673
0.196735
0.217572
0.576254
0.513007
0.503529
0.501786
0.501698
0.501859
0.501816
0.50097
0.500916
0.500728
0.500765
0.500716
0.501164
0.504767
0.520384
0.514599
0.50524
0.501385
0.500824
0.5008
0.500691
0.500731
0.500751
0.500808
0.501018
0.50105
0.501151
0.501671
0.503943
0.512023
0.435436
0.17004
0.182439
0.406115
0.361876
0.5115
0.504622
0.50137
0.500943
0.500856
0.50083
0.500795
0.50097
0.50089
0.501398
0.501232
0.501287
0.502776
0.508256
0.506391
0.442719
0.369031
0.416616
0.329694
0.506666
0.507775
0.503277
0.502901
0.503247
0.503415
0.501514
0.501528
0.500993
0.501061
0.500893
0.501341
0.504755
0.511009
0.346028
0.170955
0.177895
0.258215
0.0879803
0.0909405
0.0928876
0.0949902
0.247643
0.442766
0.55685
0.472204
0.476052
0.543198
0.386283
0.36506
0.294663
0.318124
0.402602
0.347724
0.31319
0.250716
0.289041
0.248031
0.30381
0.218165
0.234428
0.221979
0.283371
0.287239
0.287583
0.226979
0.216808
0.271923
0.28612
0.31708
0.219029
0.259226
0.203545
0.192613
0.087259
0.0894572
0.0813467
0.0713994
0.0711282
0.0792633
0.0776876
0.0838693
0.0808402
0.0845207
0.0816145
0.0796169
0.0728389
0.0748885
0.0686776
0.0713437
0.130465
0.16669
0.150575
0.151995
0.179743
0.131255
0.157617
0.153763
0.197866
0.248291
0.227856
0.293916
0.22597
0.276071
0.406179
0.754663
0.441868
0.245491
0.318535
0.340111
0.288929
0.189803
0.449781
0.538596
0.298208
0.36024
1.1956
1.04328
1.7808
0.993016
1.12022
0.671948
0.598206
1.02948
0.654743
0.667373
0.560692
0.574282
0.500393
0.325069
0.324704
0.306476
0.242492
0.281512
0.272173
0.267165
0.296889
0.262111
0.31735
0.353103
0.397872
0.323143
0.286097
0.367834
0.21605
0.291795
0.34733
0.316537
0.260505
0.339141
0.451423
0.423652
0.364753
0.400345
0.510947
0.564854
0.535198
0.454306
0.516498
1.00939
0.966516
0.932575
0.592078
1.93395
1.72145
0.356323
0.139857
0.0976658
0.0369275
0.0225445
0.0182786
0.0178872
0.0489884
0.0195473
0.0235599
0.021248
0.0303861
0.0274839
0.0317878
0.0560836
0.0378762
0.0534257
0.039559
0.0529356
0.0421341
0.0579765
0.0622536
0.0656367
0.0530815
0.041844
0.0632163
0.0843501
0.0394966
0.101544
0.107325
0.0694471
0.084365
0.104178
0.0539484
0.166924
0.0578087
0.0576529
0.068856
0.129153
0.255265
0.0870293
0.113657
0.590182
1.53331
0.514253
0.203887
0.166478
0.0414484
0.0359305
0.0294305
0.0355561
0.0313218