/*--------------------------------*- C++ -*----------------------------------*\
| =========                 |                                                 |
| \\      /  F ield         | OpenFOAM: The Open Source CFD Toolbox           |
|  \\    /   O peration     | Version:  v2012                                 |
|   \\  /    A nd           | Website:  www.openfoam.com                      |
|    \\/     M anipulation  |                                                 |
\*---------------------------------------------------------------------------*/
FoamFile
{
    version     2.0;
    format      ascii;
    class       volVectorField;
    location    "1010";
    object      U;
}
// * * * * * * * * * * * * * * * * * * * * * * * * * * * * * * * * * * * * * //

dimensions      [0 1 -1 0 0 0 0];


internalField   nonuniform List<vector> 
18258
(
(-0.176509 0.113124 0.139332)
(-0.0518612 0.244886 0.159526)
(-0.105107 0.211909 0.0963962)
(-0.0411754 0.068194 0.0848078)
(-0.226711 0.200057 0.0195473)
(-0.16021 0.357871 0.0180212)
(-0.223831 0.0438985 0.054973)
(-0.342517 -0.0542821 0.0760436)
(-0.450128 -0.106547 0.108676)
(-0.537218 -0.160227 0.146051)
(-0.622736 -0.217663 0.180185)
(-0.688787 -0.272036 0.309889)
(-0.679278 -0.334728 0.357436)
(-0.622574 -0.445895 0.385943)
(-0.487845 -0.543198 0.369283)
(-0.204316 -0.586949 0.339844)
(0.0745304 -0.373506 0.287653)
(0.0797935 -0.165167 0.298473)
(-0.125509 -0.0782599 0.2358)
(-0.393053 -0.274262 0.11524)
(-0.13396 -0.523375 0.288164)
(-0.18886 -0.362729 0.405898)
(-0.291075 -0.733623 0.298804)
(-0.348513 -0.774142 0.262214)
(-0.126847 -0.709369 0.139087)
(0.00893034 -0.645834 0.186479)
(-0.0129626 -0.337933 0.421653)
(0.177347 -0.111979 0.801388)
(0.301065 -0.0947948 0.886797)
(0.318405 0.0582802 0.902458)
(0.321595 0.190457 0.80034)
(0.162517 0.302297 0.0578157)
(0.0868666 0.117068 -0.439329)
(0.0237414 0.0687087 -0.736022)
(-0.0579583 0.0710467 -0.906285)
(-0.0489059 0.0691255 -1.08671)
(-0.0634773 0.0690347 -1.22994)
(-0.0911071 0.0876013 -1.32719)
(-0.130468 0.0782172 -1.3761)
(-0.176104 0.0835857 -1.3622)
(-0.22479 0.0695446 -1.27776)
(-0.270208 0.0780031 -1.12339)
(-0.307771 0.0726337 -0.911989)
(-0.33801 0.0724814 -0.655909)
(-0.34859 0.0739025 -0.360364)
(-0.334219 0.0704843 -0.159823)
(-0.170693 0.141645 -0.203865)
(0.322999 -0.0833551 -0.142014)
(0.58234 -0.12774 -0.163958)
(0.648514 -0.109089 -0.171105)
(0.768297 -0.135326 -0.178721)
(0.801214 -0.135181 -0.195175)
(0.502825 -0.010857 -0.257676)
(0.258652 -0.138662 -0.218834)
(0.113249 -0.0435864 -0.159022)
(0.280951 -0.0106617 -0.16914)
(0.534984 -0.00316271 -0.173743)
(0.788672 -0.0303385 -0.17799)
(1.08872 -0.0348218 -0.175755)
(1.42421 -0.0488925 -0.185226)
(1.75867 -0.0646146 -0.183645)
(2.04282 -0.0812231 -0.166815)
(2.24369 -0.0929784 -0.138488)
(2.34432 -0.0991731 -0.103008)
(2.35167 -0.0965598 -0.0685601)
(2.29205 -0.0889169 -0.0419891)
(2.19907 -0.0824051 -0.025296)
(2.10697 -0.0762503 -0.0185152)
(2.03776 -0.0674285 -0.0194835)
(1.99223 -0.0645788 -0.024095)
(1.96791 -0.0594238 -0.0264835)
(1.95733 -0.0505191 -0.0209325)
(1.94302 -0.0400172 -0.00393492)
(1.89953 -0.0252036 0.0236281)
(1.81197 -0.00816705 0.0532095)
(1.69112 0.00918877 0.0764617)
(1.57033 0.0213677 0.0792972)
(1.47759 0.0303182 0.0746639)
(1.3995 0.0373243 0.070028)
(1.33741 0.0499424 0.0626776)
(1.28662 0.0565956 0.0643853)
(1.19298 0.0437939 0.0777735)
(1.09578 0.018508 0.109103)
(1.01272 0.000203738 0.126444)
(0.905305 -0.0213972 0.119251)
(0.761356 0.0163907 0.144648)
(0.640679 0.08147 0.132375)
(0.51703 0.100462 0.133102)
(0.380038 0.117822 0.117455)
(0.22377 0.126562 0.0952591)
(0.119817 0.189708 0.0909019)
(0.121389 0.0109843 0.196415)
(0.163949 -0.100721 0.142178)
(0.112901 -0.129853 0.0376749)
(0.104342 -0.114965 -0.144537)
(0.216111 -0.210009 -0.37362)
(0.262275 -0.231157 -0.558796)
(0.203769 -0.137575 -0.730434)
(0.105136 -0.0791877 -0.711353)
(0.036253 0.0612221 -0.484536)
(-0.0970985 0.235027 -0.137369)
(-0.218426 0.191151 0.183665)
(-0.23486 0.0640422 0.158857)
(-0.341 0.013676 0.172942)
(-0.276077 0.135018 0.182428)
(-0.250663 0.284415 -0.0339866)
(-0.10676 0.166784 -0.398385)
(0.0621849 0.00649386 -0.581727)
(0.332252 -0.092896 -0.632921)
(0.494422 -0.2292 -0.4922)
(0.35094 -0.210706 -0.283075)
(0.271403 -0.192065 -0.103188)
(0.282608 -0.186853 0.0371906)
(0.280311 -0.140114 0.158591)
(0.224561 -0.0989234 0.190376)
(0.39566 -0.0814577 0.179328)
(0.534689 -0.0634708 0.17487)
(0.587161 -0.0522548 0.163113)
(0.698972 -0.0789168 0.159108)
(0.731413 -0.133872 0.130515)
(0.600092 -0.134372 0.133342)
(0.45379 -0.151856 0.137884)
(0.46089 -0.186061 0.0330073)
(0.610061 -0.162936 0.0489493)
(0.735351 -0.162104 0.0464277)
(0.90377 -0.141792 0.0789217)
(1.08747 -0.109889 0.10861)
(1.18891 -0.0777589 0.146253)
(1.20784 -0.0108599 0.138276)
(1.24503 -0.00925352 0.118976)
(1.33518 -0.00711327 0.138475)
(1.37709 -0.00192269 0.128575)
(1.36876 -0.0126426 0.157164)
(1.32818 -0.0482295 0.192107)
(1.32253 -0.0511449 0.18903)
(1.28549 -0.0619955 0.150034)
(1.27875 -0.0601366 0.133109)
(1.25757 -0.0475529 0.106956)
(1.24899 -0.0455416 0.109034)
(1.20086 0.00499569 0.108016)
(1.19383 0.0285398 0.136829)
(1.07583 0.137746 0.270908)
(1.22559 0.0533987 0.253559)
(1.21724 0.0205523 0.157665)
(1.26603 -0.0206358 0.126888)
(1.27827 -0.0248311 0.117569)
(1.28893 -0.038149 0.142319)
(1.30783 -0.0414856 0.181662)
(1.35029 -0.036725 0.215645)
(1.38608 -0.0367282 0.220572)
(1.42298 -0.0128923 0.181924)
(1.43627 -0.00209556 0.136934)
(1.51251 -0.00668533 0.150059)
(1.61055 -0.0168639 0.158198)
(1.74977 -0.0317656 0.14264)
(1.88184 -0.0543446 0.0481495)
(1.96323 -0.0758197 -0.0719935)
(1.98257 -0.0906856 -0.165039)
(1.96513 -0.0967114 -0.201276)
(1.94881 -0.0970614 -0.195246)
(1.95893 -0.0914583 -0.175531)
(2.0058 -0.0829617 -0.145264)
(2.08701 -0.0705951 -0.108889)
(2.1978 -0.0604601 -0.0853625)
(2.31128 -0.0601524 -0.11436)
(2.38734 -0.0612052 -0.174696)
(2.38929 -0.0587234 -0.278255)
(2.28293 -0.0503663 -0.393013)
(2.06736 -0.0425902 -0.484042)
(1.76704 -0.0367401 -0.540272)
(1.4234 -0.0315859 -0.548934)
(1.07767 -0.0193448 -0.527712)
(0.789549 -0.0245087 -0.459362)
(0.534413 -0.0161787 -0.41543)
(0.281441 -0.0219461 -0.386742)
(0.108724 -0.0410404 -0.360617)
(0.101785 -0.0428126 -0.636991)
(0.0769669 -0.0377933 -0.872857)
(0.0503835 -0.0396615 -1.05733)
(0.0116497 -0.0408925 -1.17617)
(-0.0233561 -0.0285833 -1.21642)
(-0.0598913 -0.0161444 -1.16968)
(-0.0935932 0.00258413 -1.04174)
(-0.118978 0.0252591 -0.827758)
(-0.121657 0.07926 -0.565604)
(-0.145224 0.133561 -0.0637295)
(-0.190624 0.0290394 0.559821)
(-0.206716 -0.0321035 0.747278)
(-0.225472 -0.00101797 0.917345)
(-0.230776 -0.0432322 1.06122)
(-0.316692 -0.102046 1.1237)
(-0.37045 -0.107434 1.13802)
(-0.368654 -0.230177 1.00103)
(-0.295048 -0.248722 0.769663)
(-0.458438 -0.663572 0.687099)
(-0.486465 -0.540447 0.704624)
(-0.414469 -0.408733 0.8312)
(-0.551726 -0.763111 0.852792)
(-0.687922 -0.829716 0.601312)
(-0.47767 -0.752375 0.798489)
(-0.438302 -0.57415 0.739308)
(-0.78716 -0.524456 0.745022)
(-0.906001 -0.407664 0.854023)
(-0.532527 -0.704521 0.816781)
(-0.441655 -0.576599 0.657457)
(-0.320159 -0.315157 0.39756)
(-0.298462 -0.175222 0.39124)
(-0.281225 -0.139693 0.343047)
(-0.231522 0.121014 0.104687)
(-0.16292 0.292143 -0.422421)
(-0.153384 0.17918 -0.64031)
(-0.132356 0.0256287 -0.916236)
(-0.0870389 -0.0589553 -1.08669)
(-0.0291241 -0.0707275 -1.23429)
(0.0376486 -0.103381 -1.2686)
(0.0970203 -0.0995385 -1.23338)
(0.171184 -0.110429 -1.11946)
(0.21499 -0.124124 -0.919637)
(0.259127 -0.14749 -0.705285)
(0.248198 -0.139885 -0.39864)
(0.415768 -0.0547193 -0.63743)
(0.761618 -0.119589 -0.459286)
(0.712033 -0.108786 -0.416823)
(0.606826 -0.071724 -0.412244)
(0.519905 -0.104006 -0.424409)
(0.0907051 -0.104676 -0.542134)
(0.149349 -0.116507 -0.939074)
(0.238921 -0.223676 -1.0913)
(0.331536 -0.282583 -0.976317)
(0.390996 -0.352744 -0.544674)
(0.20094 0.00433638 0.157879)
(0.260005 0.110616 0.166268)
(0.429572 -0.322174 0.334548)
(0.515789 -0.528601 0.503873)
(0.544803 -0.522575 0.553263)
(0.412645 -0.235 0.675093)
(0.471505 -0.337453 0.567262)
(0.486428 -0.6087 0.552875)
(0.702367 -0.671967 0.322106)
(0.744517 -0.486723 0.460409)
(0.795742 -0.344982 0.601968)
(0.231651 -0.223759 0.574945)
(-0.242391 -0.267166 0.822168)
(-0.179554 -0.191422 0.67212)
(-0.676125 -0.298462 0.814653)
(-0.474808 -0.178274 0.687394)
(-0.324322 -0.000889236 0.534179)
(-0.219099 0.17252 -0.294294)
(-0.193717 -0.0499686 -0.617966)
(-0.0570793 -0.171635 -1.10058)
(0.103245 -0.161148 -1.24927)
(0.273374 -0.0910482 -1.11774)
(0.428005 -0.108473 -0.703499)
(0.494214 -0.0744896 -0.630559)
(0.484508 -0.0414795 -0.623396)
(0.521657 -0.0858744 -0.654245)
(0.5754 -0.119156 -0.747457)
(0.390209 -0.041258 -0.694852)
(0.352019 -0.0794954 -0.673349)
(0.129381 -0.114158 -0.678238)
(-0.110474 -0.0508111 -0.58945)
(0.287678 -0.0020945 -0.601267)
(0.343909 0.0103305 -0.624912)
(0.628945 -0.100811 -0.661744)
(0.577333 -0.098883 -0.414409)
(0.270108 0.0668684 -0.391069)
(0.283717 0.0495752 -0.292539)
(-0.306613 -0.0461689 0.0811484)
(-0.306985 0.139196 -0.022787)
(-0.281769 -0.0279554 -0.455924)
(0.0840854 -0.201014 -0.583603)
(0.355044 -0.279481 -0.573937)
(0.716853 -0.345362 -0.409528)
(0.803767 -0.418943 -0.379717)
(0.763895 -0.291484 -0.296413)
(0.805552 -0.365371 -0.220331)
(0.821079 -0.487006 -0.285972)
(0.731663 -0.430297 -0.281784)
(0.707777 -0.303591 -0.335284)
(0.736716 -0.251426 -0.344214)
(0.78268 -0.310856 -0.21357)
(0.794869 -0.366377 -0.162228)
(0.885556 -0.465976 -0.157533)
(1.15332 -0.632127 -0.118416)
(1.61281 -0.727421 -0.0994624)
(1.99067 -0.673445 -0.0387233)
(2.14799 -0.491933 0.0468584)
(2.06903 -0.293071 0.09494)
(1.90429 -0.164852 0.102671)
(1.80692 -0.0963797 0.0991715)
(1.7102 -0.0012561 0.0987073)
(1.5726 0.0870488 0.0908388)
(1.43513 0.105248 0.0478069)
(1.33056 0.0554828 0.0270229)
(1.24069 -0.00654633 0.0212525)
(1.13885 -0.0559643 0.0228979)
(1.05493 -0.0804606 0.0210387)
(0.997027 -0.063827 0.0165076)
(0.820633 -0.111369 -0.0243039)
(0.7159 0.0010552 0.00912322)
(0.63265 0.0670185 0.00835923)
(0.497101 0.0214565 0.00600935)
(0.359046 -0.0620947 -0.0135634)
(0.13887 -0.147591 -0.0325232)
(0.225383 -0.308739 0.00133159)
(0.353136 -0.0821495 0.0119642)
(-0.0026734 -0.230566 -0.00926804)
(0.0428043 -0.546314 -0.0505822)
(0.0117985 -0.712846 -0.0527277)
(-0.00824691 -0.876733 -0.0533503)
(-0.0262086 -1.00674 -0.0650954)
(-0.0362604 -1.10263 -0.09606)
(-0.0468495 -1.15694 -0.105377)
(-0.058428 -1.21414 -0.118509)
(-0.0886768 -1.27577 -0.134501)
(-0.113775 -1.32038 -0.149818)
(-0.137746 -1.35396 -0.162735)
(-0.159767 -1.37549 -0.173787)
(-0.178774 -1.38672 -0.183439)
(-0.194163 -1.3883 -0.190136)
(-0.2063 -1.38119 -0.19398)
(-0.216346 -1.36648 -0.194098)
(-0.224949 -1.34457 -0.192188)
(-0.233278 -1.31408 -0.186753)
(-0.240981 -1.27315 -0.178409)
(-0.246453 -1.21886 -0.165362)
(-0.244334 -1.14971 -0.147602)
(-0.19129 -1.07028 -0.127213)
(-0.141445 -0.967764 -0.112909)
(-0.166075 -0.867428 -0.0797803)
(-0.190137 -0.753665 -0.0822041)
(-0.205387 -0.54233 -0.0858033)
(-0.274377 -0.449559 -0.0922889)
(0.021874 0.0539204 -0.116553)
(-0.350939 -0.30783 0.024862)
(-0.231954 -0.616892 -0.0549727)
(-0.270758 -0.0990941 -0.011422)
(-0.458432 -0.182245 0.0644148)
(-0.679065 -0.198532 0.0822378)
(-0.842393 -0.209172 0.114097)
(-0.953695 -0.223077 0.144243)
(-1.03422 -0.232501 0.203829)
(-1.11733 -0.24431 0.245373)
(-1.18638 -0.244275 0.302085)
(-1.20005 -0.248588 0.336328)
(-1.17321 -0.250438 0.366212)
(-1.10657 -0.249241 0.394479)
(-0.996208 -0.243667 0.422623)
(-0.842231 -0.230794 0.453967)
(-0.669281 -0.206713 0.493276)
(-0.422209 -0.147745 0.541697)
(-0.141593 -0.11761 0.56479)
(-0.161851 0.0287733 0.821212)
(-0.166006 0.0832081 1.04249)
(-0.165722 0.115609 1.11321)
(-0.166739 0.164904 1.02259)
(-0.169117 0.153683 0.840658)
(-0.154112 0.13136 0.570361)
(-0.121907 0.14382 0.288236)
(-0.223442 0.441743 0.372818)
(-0.504829 0.469101 0.336079)
(-0.689329 0.481818 0.340387)
(-0.914152 0.466572 0.333802)
(-1.09635 0.425669 0.309605)
(-1.22356 0.354078 0.266672)
(-1.27942 0.273942 0.219332)
(-1.26225 0.206627 0.181906)
(-1.22968 0.148369 0.158574)
(-1.18706 0.11563 0.140607)
(-1.09777 0.0928874 0.0903579)
(-0.956393 0.0454826 0.0699936)
(-0.765496 -0.0204748 0.0595001)
(-0.499557 -0.113764 0.0190696)
(-0.252398 -0.207687 -0.0191366)
(-0.273773 -0.197543 -0.066359)
(-0.317809 -0.176924 0.00799744)
(-0.313991 -0.174113 0.0589624)
(-0.272142 -0.156448 0.149949)
(-0.380171 -0.233364 0.117426)
(-0.421856 -0.296505 0.117385)
(-0.325795 -0.287533 0.175824)
(-0.268738 -0.214553 0.0435668)
(-0.140492 -0.100376 -0.0275173)
(-0.140501 -0.0765882 -0.00927006)
(-0.138657 -0.0738795 -0.0371284)
(-0.169569 -0.0554745 -0.0692515)
(-0.167921 -0.501075 -0.150086)
(-0.126393 -0.478957 -0.140447)
(-0.110532 -0.446429 -0.0982195)
(-0.100305 -0.423271 -0.147821)
(-0.265676 -0.536995 -0.0330087)
(-0.275158 -0.574208 -0.0274261)
(-0.282236 -0.630351 -0.0859776)
(-0.336074 -0.581934 -0.0221315)
(-0.339161 -0.529092 0.0534554)
(-0.300636 -0.358538 0.0835375)
(-0.44334 -0.316588 0.113656)
(-0.360409 -0.43116 0.0391345)
(-0.345947 -0.52178 0.0124025)
(-0.376711 -0.507805 -0.0253971)
(-0.427443 -0.393954 0.0308252)
(-0.496185 -0.346101 0.072081)
(-0.527753 -0.254539 0.16306)
(-0.589986 -0.215173 0.240807)
(-0.678838 -0.197258 0.255446)
(-0.575549 -0.20642 0.211002)
(-0.516009 -0.187566 0.18072)
(-0.544307 -0.184754 0.117492)
(-0.538915 -0.171817 0.0916951)
(-0.495655 -0.183979 0.000702918)
(-0.7606 -0.086365 0.0644205)
(-0.970183 -0.00513089 0.0895895)
(-1.07747 0.0524574 0.103537)
(-1.12653 0.0753741 0.138192)
(-1.16402 0.0360715 0.237897)
(-1.24831 0.0693016 0.267235)
(-1.31382 0.119726 0.349248)
(-1.32727 0.171208 0.432208)
(-1.26982 0.222308 0.525012)
(-1.14486 0.261254 0.605009)
(-0.972274 0.281395 0.649892)
(-0.772898 0.283046 0.659259)
(-0.622107 0.287882 0.646187)
(-0.342677 0.271821 0.64698)
(-0.437332 0.243341 0.876974)
(-0.469786 0.225667 1.00488)
(-0.462883 0.177792 1.08325)
(-0.44386 0.121573 1.01556)
(-0.44235 0.0569461 0.798598)
(-0.712654 -0.00603028 0.745098)
(-0.723153 0.0703426 0.945941)
(-0.741702 0.116225 1.02441)
(-0.746118 0.163108 0.980452)
(-0.695246 0.197777 0.873647)
(-0.836407 0.185633 0.86351)
(-0.879041 0.145057 0.965832)
(-0.8825 0.0876908 1.00164)
(-0.873152 0.0412939 0.927043)
(-0.867067 -0.0396038 0.707359)
(-1.00948 -0.0607081 0.676076)
(-1.0236 0.020087 0.901603)
(-1.0361 0.0691554 0.966744)
(-1.04367 0.121591 0.944972)
(-1.01809 0.173784 0.855216)
(-1.16135 0.16298 0.805091)
(-1.16236 0.110378 0.893558)
(-1.14618 0.0569168 0.915098)
(-1.12949 0.00618732 0.859791)
(-1.10992 -0.0733554 0.640281)
(-1.16969 -0.0838809 0.595658)
(-1.1947 -0.00635919 0.797169)
(-1.22063 0.043537 0.840568)
(-1.24955 0.0918158 0.8122)
(-1.26691 0.141516 0.717709)
(-1.31653 0.111059 0.610773)
(-1.28823 0.0689323 0.709764)
(-1.25012 0.02502 0.747625)
(-1.21512 -0.0217752 0.716645)
(-1.18551 -0.0935746 0.539925)
(-1.15226 -0.104722 0.472851)
(-1.17992 -0.0413503 0.621555)
(-1.21841 0.000283207 0.640977)
(-1.27249 0.0392987 0.606785)
(-1.3054 0.0744925 0.509458)
(-1.22275 0.0359435 0.414493)
(-1.18602 0.00306732 0.500293)
(-1.12647 -0.0320475 0.531291)
(-1.08456 -0.0600034 0.52027)
(-1.03879 -0.111726 0.386876)
(-0.918112 -0.120071 0.31524)
(-0.92221 -0.109282 0.358175)
(-0.971223 -0.0802761 0.43824)
(-0.955082 -0.0869157 0.424993)
(-0.926144 -0.102448 0.394565)
(-1.00275 -0.0681969 0.381302)
(-0.994603 -0.0628251 0.307314)
(-0.999364 -0.0389355 0.282694)
(-1.04248 -0.0269656 0.209095)
(-1.03756 -0.00928054 0.20242)
(-0.805206 -0.104876 0.145229)
(-0.818043 -0.124923 0.157677)
(-0.787006 -0.128101 0.216005)
(-0.822727 -0.141171 0.24911)
(-0.608741 -0.281157 0.132403)
(-0.555814 -0.290828 0.114081)
(-0.50242 -0.326196 0.131619)
(-0.419153 -0.39881 0.115117)
(-0.396006 -0.383334 0.148565)
(-0.487169 -0.283654 0.164444)
(-0.604856 -0.238648 0.182956)
(-0.613874 -0.267306 0.0960192)
(-0.512229 -0.377172 0.0429922)
(-0.438573 -0.459167 0.0271293)
(-0.396482 -0.525413 0.0566915)
(-0.383267 -0.696894 0.120836)
(-0.386404 -0.662339 0.126786)
(-0.404602 -0.379726 0.105626)
(-0.4074 -0.535755 0.0800916)
(-0.398367 -0.60099 0.0422584)
(-0.215076 -0.786833 -0.160632)
(-0.192895 -0.792516 -0.260866)
(-0.115078 -0.702631 -0.369959)
(-0.0784177 -0.622571 -0.38596)
(-0.0449438 -0.587152 -0.348233)
(-0.0133368 -0.554049 -0.301654)
(0.0317562 -0.50007 -0.231828)
(0.123999 -0.453524 -0.108714)
(0.124567 -0.577768 -0.121726)
(0.116699 -0.633756 -0.119966)
(0.0848393 -0.691447 -0.157481)
(0.0923015 -0.745885 -0.155775)
(0.10048 -0.802484 -0.175016)
(0.118262 -0.830712 -0.167066)
(0.126269 -0.837351 -0.152789)
(0.126414 -0.823346 -0.130085)
(0.117616 -0.787175 -0.0954694)
(0.104142 -0.729988 -0.041965)
(0.0358063 -0.64862 0.0346088)
(0.00256394 -0.538213 0.157066)
(0.0172841 -0.290445 0.363846)
(-0.154423 0.0265331 0.44848)
(-0.370619 0.0986988 0.348669)
(-0.39432 -0.0367286 0.257451)
(-0.220882 -0.173198 0.251551)
(-0.182603 -0.190764 0.268401)
(-0.159664 -0.18096 0.215503)
(-0.0958433 -0.1483 0.207235)
(-0.00383646 -0.0478843 0.0756043)
(-0.0342683 0.105247 0.0819564)
(-0.0805508 0.143231 0.0812158)
(-0.0488877 0.208845 0.172833)
(-0.00338949 0.174993 0.195852)
(0.0149638 0.0206919 0.145122)
(-0.0497536 -0.0368204 0.231008)
(0.023086 0.0843457 0.327774)
(-0.00478415 -0.0696139 0.288896)
(0.0743641 0.1399 0.250951)
(0.0894548 -0.0230589 0.225858)
(-0.0232173 -0.249522 0.454902)
(0.0472598 -0.352095 0.545154)
(0.17098 -0.493468 0.517459)
(0.170157 -0.686788 0.355246)
(0.0772648 -0.812084 0.146993)
(0.0589433 -0.884957 -0.00615914)
(0.0656242 -0.920399 -0.118779)
(0.0634468 -0.947011 -0.197284)
(0.0603903 -0.961746 -0.248635)
(0.0522804 -0.960058 -0.279527)
(0.0421252 -0.940246 -0.293009)
(0.0295226 -0.902766 -0.289888)
(0.0239467 -0.827783 -0.249912)
(0.00751271 -0.782289 -0.329005)
(0.0436792 -0.701408 -0.225362)
(0.0477751 -0.651332 -0.211225)
(0.04498 -0.634127 -0.232)
(0.00481037 -0.70006 -0.32559)
(-0.0224514 -0.73986 -0.383613)
(-0.0571791 -0.775461 -0.411396)
(-0.0730086 -0.842346 -0.402335)
(-0.131477 -0.902739 -0.346997)
(-0.0935185 -0.966977 -0.333409)
(-0.0885061 -0.977587 -0.374254)
(-0.0535578 -0.916313 -0.418785)
(-0.0434048 -0.866196 -0.432489)
(-0.0176209 -0.823764 -0.404763)
(-0.00934039 -0.867048 -0.341787)
(-0.0390058 -0.899599 -0.37493)
(-0.0556825 -0.94646 -0.397563)
(-0.0234153 -0.989344 -0.406644)
(-0.0483498 -1.05773 -0.42177)
(-0.0663973 -1.04052 -0.425438)
(-0.0929445 -0.918479 -0.346323)
(-0.185745 -0.76028 -0.225612)
(-0.196714 -0.613529 -0.0426135)
(-0.0991027 -0.731799 -0.199066)
(-0.0790641 -0.837622 -0.261784)
(-0.0591144 -0.926742 -0.325602)
(-0.0608571 -0.944382 -0.336271)
(-0.0279067 -0.827816 -0.383785)
(-0.0241213 -0.722934 -0.340248)
(-0.0322497 -0.540473 -0.257369)
(-0.0166174 -0.352678 -0.167479)
(0.0361265 -0.0885257 -0.213353)
(-0.245365 -0.432276 0.0717044)
(-0.326608 -0.45999 0.025361)
(0.217137 -0.119465 -0.243542)
(-0.172798 -0.246972 0.0412831)
(-0.217769 -0.266045 -0.119107)
(-0.258058 -0.268318 -0.104892)
(-0.20812 -0.281222 -0.0224718)
(0.0808468 0.141406 -0.220271)
(0.102431 0.0604142 -0.233578)
(0.100606 0.000263201 -0.263082)
(0.0956192 -0.000384877 -0.267618)
(-0.0806781 -0.428777 -0.203977)
(-0.133583 -0.449163 -0.224291)
(-0.186786 -0.457505 -0.207951)
(-0.249741 -0.444383 -0.169994)
(-0.169264 -0.546531 -0.184984)
(-0.127106 -0.558223 -0.258445)
(-0.0965688 -0.564446 -0.293067)
(-0.0610476 -0.552671 -0.293814)
(-0.051139 -0.741439 -0.350964)
(-0.0818551 -0.756113 -0.333583)
(-0.106567 -0.768496 -0.282866)
(-0.147431 -0.758915 -0.195486)
(-0.134725 -0.820606 -0.18297)
(-0.128991 -0.881421 -0.201015)
(-0.0982923 -0.90395 -0.298483)
(-0.0728403 -0.87099 -0.375292)
(-0.0494855 -0.850668 -0.402066)
(-0.0771282 -0.966043 -0.372445)
(-0.112408 -0.98788 -0.33704)
(-0.13835 -1.00819 -0.284728)
(-0.1375 -1.09075 -0.347748)
(-0.0803097 -1.06491 -0.400665)
(-0.0727601 -1.14255 -0.442031)
(-0.0493366 -1.12086 -0.474656)
(-0.0267228 -1.11173 -0.459912)
(-0.00303979 -1.03986 -0.416223)
(0.0123512 -1.07178 -0.40715)
(-0.0125709 -1.15028 -0.470584)
(-0.0398857 -1.17752 -0.49513)
(-0.0688008 -1.20586 -0.463879)
(-0.131903 -1.22656 -0.379741)
(-0.135251 -1.16423 -0.369911)
(-0.284101 -1.04466 -0.225476)
(-0.458071 -1.14438 -0.0769249)
(-0.464472 -1.09839 -0.0674759)
(-0.416627 -1.04394 -0.0648686)
(-0.303407 -1.03444 -0.0740154)
(-0.25608 -0.965722 -0.064249)
(-0.30973 -0.943291 -0.0578279)
(-0.342862 -0.84762 -0.0423864)
(-0.37855 -0.7125 -0.0380587)
(-0.474284 -0.625996 -0.0368645)
(-0.410435 -0.401042 -0.0343315)
(-0.465658 -0.660034 -0.00592858)
(-0.317357 -0.457138 0.0244689)
(-0.638985 -0.398449 0.00542827)
(-0.815732 -0.379188 0.0601631)
(-0.918037 -0.384412 0.0846566)
(-0.967811 -0.397228 0.124389)
(-0.97986 -0.525182 0.0977891)
(-0.940442 -0.689132 0.06538)
(-0.92422 -0.74981 0.0525095)
(-0.874861 -0.848027 0.0364737)
(-0.859288 -0.895152 0.0305068)
(-0.821517 -0.927306 0.00764201)
(-0.704331 -0.966719 -0.0229864)
(-0.593207 -1.00106 -0.0420166)
(-0.627456 -0.95172 -0.0172166)
(-0.485675 -0.970557 -0.0307691)
(-0.50361 -0.892359 -0.0301843)
(-0.531213 -0.796033 -0.0233537)
(-0.560059 -0.729962 -0.0195525)
(-0.687058 -0.711735 -0.00978813)
(-0.675593 -0.59765 -0.00777492)
(-0.824578 -0.576878 0.0303618)
(-0.918703 -0.559379 0.050436)
(-0.881737 -0.696664 0.0231767)
(-0.800937 -0.704057 0.012218)
(-0.778107 -0.789107 0.00230198)
(-0.661584 -0.797409 -0.0107645)
(-0.63646 -0.881678 -0.0170361)
(-0.749104 -0.865444 -0.00511698)
(-0.826025 -0.85 0.00447486)
(-0.863574 -0.772505 0.013541)
(-0.802017 -0.738375 -0.0117493)
(-0.624135 -0.611395 0.00184992)
(-0.847465 -0.659244 0.0116963)
(-0.868176 -0.518054 0.0520435)
(-0.87057 -0.379626 0.0581016)
(-0.843167 -0.282048 0.12156)
(-0.832315 -0.302067 0.0764823)
(-0.879065 -0.350501 0.0525642)
(-0.874995 -0.203797 0.12907)
(-0.893826 -0.184155 0.174137)
(-0.760418 -0.161381 0.158455)
(-0.765689 -0.128915 0.25917)
(-0.776719 -0.120601 0.301892)
(-0.820043 -0.108482 0.355218)
(-0.827427 -0.119065 0.352527)
(-0.641073 -0.181438 0.250723)
(-0.606298 -0.173367 0.248127)
(-0.566674 -0.180222 0.215304)
(-0.55052 -0.17536 0.188778)
(-0.568637 -0.19099 0.120231)
(-0.338314 -0.194401 0.0763548)
(-0.319892 -0.188898 0.101261)
(-0.328715 -0.19165 0.113618)
(-0.359866 -0.198512 0.123803)
(-0.448196 -0.216578 0.141186)
(-0.404384 -0.252995 0.0590346)
(-0.381263 -0.284503 0.067637)
(-0.409696 -0.340443 0.04638)
(-0.315169 -0.426151 0.0350801)
(-0.311005 -0.393689 0.0481892)
(-0.282959 -0.41547 0.0145887)
(-0.192412 -0.418739 -0.0214406)
(-0.336338 -0.253651 0.0346815)
(-0.401992 -0.330257 0.0404734)
(-0.247576 -0.456563 -0.00746829)
(-0.290929 -0.45892 -0.000553208)
(-0.450743 -0.320636 0.0713672)
(-0.523465 -0.298487 0.130809)
(-0.497102 -0.318139 0.135916)
(-0.470318 -0.336317 0.111029)
(-0.458441 -0.350143 0.0940738)
(-0.493281 -0.372733 0.00838437)
(-0.710659 -0.317501 0.0630714)
(-0.717926 -0.529334 0.0388501)
(-0.549259 -0.553702 -0.00197338)
(-0.510242 -0.606246 -0.00428597)
(-0.466136 -0.648433 -0.0178343)
(-0.437307 -0.651706 -0.0217043)
(-0.413162 -0.530463 -0.0235904)
(-0.41158 -0.540562 -0.0487812)
(-0.410507 -0.540986 -0.0347453)
(-0.3357 -0.549931 -0.017736)
(-0.267891 -0.595234 -0.00805169)
(-0.320041 -0.580142 -0.0042218)
(-0.403684 -0.512399 0.0066293)
(-0.332282 -0.534783 -0.00477004)
(-0.439277 -0.629623 -0.012264)
(-0.293203 -0.472689 -0.00575628)
(-0.210798 -0.539087 -0.0191056)
(-0.281603 -0.523976 -0.0169632)
(-0.394663 -0.435569 -0.00118318)
(-0.414058 -0.362343 -0.0107784)
(-0.260903 -0.393791 -0.0116546)
(-0.157298 -0.42228 -0.0372127)
(-0.136686 -0.398819 -0.0235752)
(-0.238315 -0.204926 0.0216018)
(-0.382865 -0.342499 -0.00253331)
(-0.252228 -0.473974 -0.0204492)
(-0.219424 -0.467361 -0.0244138)
(-0.122312 -0.392151 -0.0309642)
(-0.219135 -0.194076 0.0384231)
(-0.346926 -0.337526 0.0116353)
(-0.366038 -0.362793 0.0538339)
(-0.195941 -0.51039 -0.0116161)
(-0.174102 -0.467385 0.0178705)
(-0.109979 -0.419535 0.000854737)
(-0.222127 -0.228642 0.0440095)
(-0.325713 -0.341404 0.0518834)
(-0.3347 -0.338473 0.0564491)
(-0.180483 -0.462572 0.0158927)
(-0.109224 -0.408319 -0.000951147)
(-0.231596 -0.220068 0.0613869)
(-0.285518 -0.221105 0.0767636)
(-0.240084 -0.229858 0.0704638)
(-0.349866 -0.336507 0.0778843)
(-0.189451 -0.464676 0.0474647)
(-0.117696 -0.415047 0.036234)
(-0.140375 -0.449067 -0.00509754)
(-0.196331 -0.496926 0.0248594)
(-0.381235 -0.350198 0.0786967)
(-0.334076 -0.624634 -0.00418877)
(-0.355705 -0.631352 -0.0121379)
(-0.49915 -0.511271 0.0577245)
(-0.651004 -0.444274 0.0982402)
(-0.66629 -0.286493 0.136306)
(-0.797592 -0.271389 0.170496)
(-0.890242 -0.320574 0.166375)
(-1.0207 -0.488779 0.126012)
(-1.10735 -0.495184 0.167706)
(-1.13222 -0.50292 0.192824)
(-1.11236 -0.505403 0.215773)
(-1.04933 -0.501828 0.238617)
(-0.944158 -0.491049 0.260483)
(-0.795871 -0.467919 0.287073)
(-0.642099 -0.433035 0.326505)
(-0.400007 -0.380831 0.394207)
(-0.168821 -0.2904 0.480047)
(0.0278395 -0.149116 0.485899)
(0.327073 -0.158056 0.429522)
(0.330743 -0.219701 0.381402)
(0.204114 -0.126116 0.491319)
(0.270422 -0.000733201 0.770069)
(0.281563 0.0491485 1.03437)
(0.267384 0.0841693 1.14246)
(0.250179 0.13644 1.08983)
(0.213509 0.124973 0.950796)
(0.144074 0.121704 0.698306)
(0.0412906 0.184623 0.399757)
(0.176022 0.510688 0.422758)
(0.42432 0.51357 0.372634)
(0.611603 0.536353 0.373769)
(0.854516 0.495787 0.350227)
(1.01283 0.416578 0.316804)
(1.07919 0.323922 0.273279)
(1.06791 0.257489 0.233081)
(1.02407 0.211396 0.196015)
(1.04567 0.158062 0.165166)
(1.05366 0.119123 0.142639)
(0.993089 0.0935284 0.0897991)
(0.88606 0.0424913 0.0673614)
(0.719908 -0.0224327 0.054241)
(0.474454 -0.10956 0.0204138)
(0.246184 -0.217238 -0.0208745)
(0.106156 -0.627567 -0.109349)
(0.182213 -0.388304 -0.0802582)
(-0.178271 -0.175052 0.00773133)
(-0.0999043 -0.400326 -0.0393771)
(-0.108753 -0.32681 -0.066428)
(-0.110952 -0.358068 -0.0753137)
(-0.107666 -0.3247 -0.067713)
(-0.0799007 -0.264008 -0.0648274)
(-0.128041 -0.220281 -0.0615809)
(-0.216546 0.0171065 0.100659)
(-0.158345 0.399782 0.146841)
(-0.0485608 0.536648 0.0858139)
(0.0307371 0.624027 0.0925684)
(0.119389 0.663727 0.182757)
(0.215299 0.722539 0.297452)
(0.307915 0.761047 0.335002)
(0.392073 0.757577 0.366506)
(0.470009 0.695048 0.373323)
(0.535625 0.556775 0.370272)
(0.587073 0.336048 0.335454)
(0.567499 0.00921895 0.261659)
(0.387844 -0.329994 0.255213)
(0.287934 -0.327144 0.319285)
(0.222321 -0.280422 0.328649)
(0.155064 -0.188368 0.336135)
(0.145641 0.00978441 0.311261)
(0.288504 0.0105722 0.337637)
(0.448478 -0.155069 0.330033)
(0.598948 -0.252578 0.34243)
(0.637729 -0.342034 0.351589)
(0.618351 -0.434594 0.353391)
(0.472863 -0.540707 0.335267)
(0.103168 -0.567359 0.319144)
(-0.173162 -0.300992 0.304808)
(-0.0433469 -0.128221 0.356197)
(0.229186 -0.147913 0.237324)
(0.283881 -0.399691 0.0723892)
(0.010146 -0.514541 0.236417)
(-0.139793 -0.743261 -0.138628)
(0.205864 -0.716221 -0.479083)
(0.30644 -0.38571 -0.175663)
(0.331553 -0.373463 0.0952404)
(0.342109 -0.546553 0.186744)
(0.32228 -0.890779 0.121634)
(0.52603 -0.870329 0.0651121)
(0.603291 -0.688255 0.0990337)
(0.568509 -0.533836 0.140486)
(0.499107 -0.390598 0.191219)
(0.331489 -0.22489 0.24831)
(0.354893 -0.339504 0.198295)
(0.41794 -0.370213 0.144927)
(0.499527 -0.357378 0.0830175)
(0.607919 -0.289776 -0.0546001)
(0.857269 0.199585 -0.115428)
(0.902867 0.478623 -0.0208629)
(0.849171 0.679106 0.0503239)
(0.750465 0.779571 0.0925038)
(0.622374 0.80556 0.139136)
(0.476777 0.775642 0.157379)
(0.316038 0.71226 0.174019)
(0.145471 0.633912 0.119828)
(-0.0342637 0.571794 0.0666802)
(-0.165488 0.495293 0.0733654)
(-0.314381 0.37654 0.139976)
(-0.415308 0.0988241 0.141711)
(-0.282487 -0.176972 -0.00559399)
(-0.39003 -0.115312 0.0259161)
(-0.468103 -0.0518511 0.0533341)
(-0.546041 0.0495313 0.0937476)
(-0.531959 0.0247103 0.0786774)
(-0.497597 -0.0998081 0.0206645)
(-0.458973 -0.152291 0.00939567)
(-0.391547 -0.202547 -0.0121416)
(-0.296674 -0.251995 -0.0284587)
(-0.188075 -0.277185 -0.0426478)
(-0.14688 -0.257919 -0.03715)
(-0.196559 -0.233143 -0.0352089)
(-0.181573 -0.366927 -0.0540508)
(-0.122467 -0.358914 -0.0556737)
(-0.0992184 -0.37439 -0.0831013)
(-0.075825 -0.408937 -0.11831)
(-0.0468164 -0.583888 -0.233284)
(-0.0840041 -0.523685 -0.173963)
(-0.09959 -0.600954 -0.13818)
(-0.150588 -0.571235 -0.06184)
(-0.198302 -0.476449 -0.0370124)
(-0.302979 -0.251537 0.00303789)
(-0.217962 0.276841 0.162342)
(-0.0841274 0.407718 0.29652)
(-0.000623638 0.49841 0.432026)
(0.0697928 0.489891 0.552754)
(0.139271 0.428675 0.618904)
(0.191689 0.317819 0.650195)
(0.24206 0.165681 0.624677)
(0.228974 -0.00770105 0.528516)
(0.0962167 -0.12896 0.427676)
(-0.0188375 -0.0913463 0.440119)
(-0.0365361 0.028531 0.414932)
(-0.0341411 0.149275 0.415958)
(0.038587 0.252687 0.351146)
(0.200045 0.138177 0.363461)
(0.152932 0.282784 0.440801)
(-0.0718242 0.149585 -0.130757)
(-0.177409 -0.0620335 -0.64019)
(-0.179934 -0.299874 -0.529439)
(-0.168631 -0.340298 -0.294842)
(-0.146012 -0.298436 -0.0915631)
(-0.0615872 -0.582987 -0.105642)
(-0.0278389 -0.860574 -0.0941152)
(0.00248994 -1.01848 -0.091868)
(0.032882 -1.14322 -0.10146)
(0.0662959 -1.22752 -0.115752)
(0.0968779 -1.28078 -0.129854)
(0.123517 -1.30776 -0.141797)
(0.147467 -1.31669 -0.153793)
(0.168292 -1.31504 -0.166227)
(0.186466 -1.30627 -0.176897)
(0.202002 -1.29183 -0.185218)
(0.215864 -1.27216 -0.19022)
(0.22816 -1.24696 -0.192801)
(0.239407 -1.21498 -0.191536)
(0.24897 -1.17504 -0.186294)
(0.254704 -1.12493 -0.175422)
(0.251755 -1.062 -0.158768)
(0.194695 -0.998882 -0.138813)
(0.139694 -0.913806 -0.122503)
(0.164229 -0.82958 -0.0867437)
(0.187501 -0.728827 -0.087969)
(0.203642 -0.559962 -0.0878746)
(0.246314 -0.442758 -0.0842588)
(0.0717921 -0.0304925 -0.095195)
(0.365973 -0.298736 0.0439165)
(0.245653 -0.551524 -0.0568589)
(0.286121 -0.0949433 -0.0267205)
(0.180714 -0.0371622 -0.147011)
(0.201983 -0.112877 -0.124275)
(0.195087 -0.119651 -0.0807118)