/*--------------------------------*- C++ -*----------------------------------*\
| =========                 |                                                 |
| \\      /  F ield         | OpenFOAM: The Open Source CFD Toolbox           |
|  \\    /   O peration     | Version:  v2012                                 |
|   \\  /    A nd           | Website:  www.openfoam.com                      |
|    \\/     M anipulation  |                                                 |
\*---------------------------------------------------------------------------*/
FoamFile
{
    version     2.0;
    format      ascii;
    class       volScalarField;
    location    "270";
    object      epsilon;
}
// * * * * * * * * * * * * * * * * * * * * * * * * * * * * * * * * * * * * * //

dimensions      [0 2 -3 0 0 0 0];


internalField   nonuniform List<scalar> 
18258
(
0.0242433
0.0123696
0.00923784
0.00727377
0.0127279
0.0126425
0.0130977
0.0174621
0.0243116
0.0371859
0.0537742
0.0482866
0.0436245
0.0453391
0.0474766
0.0450135
0.0350212
0.0302797
0.0397843
0.0665431
0.0609987
0.0497986
0.0611173
0.0515049
0.0654522
0.0826035
0.0632602
0.0569724
0.0511538
0.0481037
0.0414741
0.0232896
0.0345661
0.0534176
0.0728327
0.0795652
0.0852332
0.0899295
0.0951968
0.0973367
0.0975639
0.0923076
0.0830894
0.0680505
0.0501368
0.038795
0.0311681
0.0306254
0.0431341
0.044241
0.0550046
0.0847886
0.107316
0.0806117
0.0517169
0.082348
0.112244
0.143968
0.170481
0.192944
0.200695
0.197314
0.185829
0.169139
0.147726
0.122763
0.101783
0.0848666
0.0670884
0.0572885
0.0463339
0.0384181
0.0328469
0.0291828
0.0269783
0.0252586
0.0240978
0.0250269
0.0249128
0.0177695
0.0139768
0.0131274
0.00938972
0.00780312
0.00811686
0.00771604
0.00801232
0.00707171
0.00605828
0.00526211
0.00446548
0.00650854
0.00700652
0.00724887
0.0072699
0.00778903
0.00803412
0.00776926
0.00786139
0.0071837
0.00757252
0.0120417
0.0137773
0.0174809
0.0156672
0.0109614
0.00902796
0.0100766
0.0106908
0.0133127
0.0125635
0.0133351
0.0118235
0.010806
0.00911794
0.00884477
0.00907183
0.00964297
0.0100401
0.0116602
0.0114931
0.0106656
0.0117917
0.0130095
0.0127375
0.0121958
0.011607
0.0142462
0.0114314
0.0121135
0.0136097
0.0219277
0.0214577
0.0259738
0.0254956
0.0259303
0.0261104
0.031512
0.0316339
0.0320151
0.0323346
0.0340759
0.0570626
0.0508354
0.0497207
0.0495248
0.0428227
0.0423629
0.0416798
0.0424966
0.0359772
0.0346241
0.0314057
0.0310495
0.0346476
0.0437512
0.0612166
0.0884498
0.12237
0.158688
0.188949
0.209924
0.231649
0.237019
0.250907
0.255612
0.256517
0.250851
0.242446
0.232991
0.220144
0.20158
0.188733
0.148372
0.105034
0.0590309
0.0783576
0.0903517
0.100052
0.101921
0.103065
0.0990191
0.0928557
0.0817599
0.0663606
0.0432469
0.0479866
0.0652299
0.0677198
0.0685739
0.0544787
0.0525546
0.0489352
0.0490141
0.0645642
0.0738696
0.0620072
0.0855183
0.100569
0.0880331
0.0639251
0.0978343
0.143257
0.080502
0.0682651
0.0525921
0.0515458
0.0434891
0.0368567
0.0629614
0.093898
0.128517
0.149397
0.171065
0.188512
0.201746
0.215788
0.187554
0.170416
0.114722
0.200771
0.15191
0.0765604
0.0563291
0.0544095
0.0463488
0.0518129
0.0568411
0.0524722
0.0405527
0.0278913
0.0246428
0.0464694
0.0649052
0.0784411
0.062303
0.0792702
0.0895544
0.0968979
0.102232
0.129916
0.0958482
0.105865
0.0755358
0.102599
0.0726271
0.0466447
0.0523031
0.0999253
0.159653
0.218763
0.255845
0.144993
0.073137
0.0541377
0.0539871
0.0523554
0.0474947
0.0591365
0.105497
0.071677
0.0464047
0.0401873
0.047389
0.0416881
0.0308924
0.0325518
0.0399102
0.0550085
0.0683265
0.0812137
0.124643
0.121411
0.146617
0.153646
0.129562
0.125429
0.0810397
0.0829918
0.122204
0.0911957
0.0737025
0.103672
0.146815
0.20088
0.247014
0.287249
0.31302
0.302751
0.274042
0.173432
0.0759697
0.0229076
0.0178274
0.0168799
0.017353
0.0105424
0.0063038
0.00584949
0.00665355
0.00700653
0.00591635
0.00544802
0.00543972
0.00577984
0.0101872
0.00875666
0.0108306
0.0131187
0.0156637
0.018704
0.0194279
0.012889
0.00872313
0.00818453
0.00811862
0.00804785
0.00801635
0.0080256
0.00806333
0.00807658
0.00804192
0.00796152
0.00782348
0.00768761
0.00763016
0.00826434
0.0111478
0.0153077
0.014812
0.0135257
0.0121744
0.0110184
0.00869551
0.0151171
0.0128224
0.0109142
0.0133607
0.0164541
0.0207901
0.0244223
0.017612
0.014098
0.0127565
0.0126277
0.0125097
0.0125498
0.0124217
0.0124785
0.0122705
0.0128508
0.0135369
0.0169391
0.0189669
0.0211575
0.0226653
0.0232574
0.0239691
0.021104
0.0229874
0.0227194
0.0234973
0.023315
0.0226248
0.0207001
0.0189001
0.0176714
0.0190794
0.0236314
0.0322497
0.0266529
0.0206813
0.0167315
0.0136834
0.0149563
0.0166258
0.0167996
0.0158123
0.0155815
0.0153721
0.0138494
0.0130518
0.0110585
0.0104524
0.0100019
0.0101604
0.0143567
0.013489
0.0136719
0.0143902
0.0154655
0.0146287
0.01506
0.0142303
0.0144792
0.0149
0.0169741
0.0185219
0.0177673
0.0164626
0.015965
0.0136978
0.0157975
0.0156558
0.0169766
0.0185576
0.0190485
0.0189863
0.0183511
0.0167575
0.0186451
0.0220067
0.0256541
0.0246596
0.0243384
0.020408
0.0192158
0.0201928
0.0214688
0.0223727
0.0224321
0.0222357
0.0222976
0.0262458
0.0258263
0.0246486
0.0225817
0.0201368
0.0174866
0.0151014
0.0165749
0.0180525
0.0194396
0.0207056
0.0204968
0.0189663
0.0176087
0.0163797
0.0148893
0.0146126
0.0160643
0.0172861
0.01872
0.0204432
0.0205345
0.0188104
0.0173103
0.0160264
0.0145533
0.0145105
0.0160108
0.0173117
0.0187343
0.0202282
0.0195975
0.0184359
0.0171808
0.0159357
0.014483
0.0145532
0.0158752
0.0169461
0.0180327
0.018987
0.0198346
0.0178733
0.0169612
0.0170491
0.0160607
0.0192346
0.0184806
0.0194219
0.0179748
0.0167574
0.017764
0.0209496
0.0239763
0.0245293
0.0242496
0.020123
0.0205779
0.0205526
0.0191377
0.0159232
0.0153258
0.0180822
0.0208033
0.0212622
0.0199649
0.0168817
0.0132506
0.0142654
0.017411
0.0197142
0.0184599
0.0183041
0.0168971
0.0158161
0.0161094
0.0138267
0.0165625
0.0265752
0.0240393
0.0220183
0.0195455
0.0155647
0.0105474
0.0114406
0.0125882
0.0130004
0.0105105
0.00787419
0.00707215
0.00688085
0.00672401
0.00650639
0.00613873
0.00558278
0.00538759
0.0107343
0.0262982
0.03662
0.0359285
0.0241939
0.0209121
0.0203093
0.0190977
0.00951302
0.00827642
0.00849839
0.0104433
0.00823289
0.00869401
0.0150771
0.0102788
0.0140468
0.0108563
0.0146369
0.0230466
0.0219405
0.0146459
0.00804871
0.00686216
0.00734359
0.0076309
0.00783267
0.00802718
0.0082583
0.00864095
0.00995344
0.0156399
0.0201895
0.0176613
0.0166705
0.0152079
0.0187297
0.0212075
0.0231451
0.0259069
0.0160306
0.0117265
0.016561
0.0271333
0.0246198
0.0231605
0.0170558
0.0175967
0.0170399
0.0109543
0.0106119
0.0105302
0.0113414
0.0127192
0.0146393
0.015805
0.0165542
0.0168804
0.017784
0.0230606
0.0215824
0.0210754
0.0173182
0.0133119
0.0153126
0.051308
0.0194895
0.0205984
0.0188539
0.0191333
0.0204197
0.0151515
0.0135191
0.0129277
0.0146056
0.02146
0.0214681
0.0213251
0.0181917
0.0174051
0.0208166
0.0219083
0.0223155
0.0216934
0.0212423
0.0193848
0.0166238
0.0180505
0.0195628
0.0207428
0.0227429
0.0230884
0.0178655
0.0171448
0.0157664
0.010486
0.0112284
0.00967219
0.00964402
0.00961074
0.00933788
0.0088921
0.0091786
0.00929381
0.00929017
0.00894695
0.00924049
0.00830918
0.00864227
0.00972885
0.0151613
0.0147328
0.0175294
0.0194408
0.0166937
0.0155382
0.0141802
0.0131615
0.0154032
0.0142413
0.0168122
0.0211457
0.0264119
0.019059
0.018062
0.0178351
0.0174272
0.0172683
0.0173166
0.0166303
0.0156369
0.0150755
0.023512
0.0212261
0.0181128
0.0171674
0.015739
0.0179809
0.0174268
0.0213058
0.0267617
0.0269615
0.0214702
0.0215449
0.0189058
0.020006
0.0221798
0.0269902
0.0269164
0.0143828
0.00956013
0.0153835
0.0157241
0.0183305
0.0169531
0.0184757
0.0196512
0.0203755
0.020235
0.0176436
0.018813
0.0195993
0.0205838
0.0185387
0.0165363
0.0173213
0.0161026
0.0152064
0.0147115
0.0126452
0.0128845
0.0138488
0.0152944
0.0162358
0.017722
0.0193685
0.0194012
0.0200643
0.0196589
0.0190672
0.0251409
0.0239036
0.0254434
0.0281408
0.0223713
0.0177592
0.0146476
0.014955
0.0147202
0.0146269
0.0153737
0.0167284
0.0151074
0.0144929
0.0169898
0.019337
0.0245898
0.0328982
0.0286292
0.0260998
0.033128
0.031321
0.0381194
0.0285835
0.0280752
0.0207869
0.0262264
0.0304599
0.0390951
0.0254354
0.0208937
0.0223648
0.0254998
0.0347168
0.0327099
0.0330464
0.0410916
0.0398683
0.036145
0.0311282
0.0352512
0.0211802
0.0301299
0.032154
0.0267771
0.0256412
0.0306544
0.0309898
0.0329389
0.0283317
0.0267093
0.0178601
0.0273523
0.0312797
0.0329759
0.0277387
0.0204999
0.027943
0.0204882
0.0191261
0.0202375
0.0137277
0.01268
0.0147491
0.0138239
0.0111584
0.0120981
0.0111147
0.011096
0.0111706
0.011278
0.0114012
0.0116449
0.0115955
0.0125632
0.0132498
0.0125136
0.011493
0.0121923
0.0126143
0.0161176
0.0182078
0.0204806
0.0220793
0.022919
0.0240449
0.0226527
0.0248067
0.0237231
0.0251788
0.0248707
0.0238019
0.0212924
0.0186763
0.0163437
0.0170446
0.020801
0.0275433
0.0225911
0.0175052
0.0141801
0.0117555
0.0130427
0.0163745
0.00884046
0.00808126
0.00780406
0.00766078
0.00760351
0.00686076
0.00593525
0.00637267
0.0122504
0.015983
0.0204245
0.0263661
0.0324763
0.0377222
0.0417854
0.0447868
0.0467221
0.0473057
0.0446271
0.0339522
0.0290569
0.0247897
0.0203588
0.0164697
0.016733
0.0244257
0.0321098
0.0396742
0.0463368
0.0513086
0.0493658
0.0330328
0.0298766
0.046219
0.0779307
0.0737703
0.0969935
0.110676
0.0624899
0.046166
0.0451378
0.0621711
0.0648914
0.0568766
0.0468543
0.036526
0.0262426
0.0308397
0.0354327
0.0399193
0.0446864
0.0587363
0.0614018
0.0599338
0.0569981
0.0532509
0.0483865
0.0415469
0.0331999
0.0248687
0.0184401
0.0133754
0.00721368
0.00776852
0.00795059
0.00750838
0.0077171
0.00801762
0.00904157
0.00875496
0.00898398
0.00878209
0.00882634
0.0078517
0.00698707
0.0103039
0.00974331
0.00980022
0.0105753
0.0135989
0.0103666
0.0075185
0.00707895
0.0070813
0.00765442
0.0186122
0.0255743
0.0306803
0.0352143
0.0384029
0.0371974
0.0339175
0.0284045
0.0222316
0.0199894
0.0168167
0.0142899
0.0130572
0.0143804
0.0117863
0.0057388
0.00521966
0.00575587
0.00558563
0.00510577
0.0061606
0.00686625
0.00749162
0.00792331
0.00823829
0.00829847
0.00823386
0.00813935
0.00809024
0.00806457
0.00802982
0.00795807
0.00785568
0.007707
0.00756518
0.00749725
0.00808939
0.0107116
0.0146525
0.0144178
0.0133004
0.0121878
0.0113244
0.00960321
0.0154735
0.0131315
0.0110121
0.0101847
0.0100449
0.010345
0.0113025
0.0129216
0.0138342
0.0158349
0.0158766
0.0157699
0.0160766
0.0158682
0.0133768
0.0151733
0.0177604
0.018567
0.0191577
0.0189272
0.0173834
0.0194092
0.0205621
0.0200334
0.0194389
0.016721
0.0195
0.0233136
0.0237409
0.0239725
0.0212851
0.0184349
0.0216094
0.0227951
0.0224474
0.0233644
0.0217156
0.0224792
0.0277957
0.0145569
0.01366
0.00839871
0.00903293
0.00937223
0.0091822
0.00889087
0.00925465
0.00948863
0.00913501
0.00981523
0.0101144
0.00934779
0.0119227
0.0110266
0.0107123
0.0101172
0.0104565
0.010943
0.0112177
0.0125777
0.0200416
0.020619
0.0185473
0.0212611
0.0218172
0.0181558
0.020715
0.0216193
0.0219981
0.022381
0.02379
0.0222284
0.0245315
0.0238615
0.0223306
0.0215872
0.0383667
0.0252822
0.0166615
0.0154201
0.0150734
0.0151171
0.0170088
0.0126711
0.0142213
0.00995845
0.00862674
0.00827169
0.00800087
0.00860189
0.0114908
0.0179772
0.0253705
0.0279621
0.0268814
0.023607
0.0181563
0.0135237
0.013167
0.0118142
0.0110064
0.0108391
0.00718472
0.00515689
0.00657393
0.00661884
0.00721381
0.0076339
0.00797601
0.00823205
0.00837119
0.00844
0.00851666
0.00862752
0.00874677
0.0088469
0.00892273
0.00897445
0.00902995
0.0091428
0.00944197
0.0106373
0.015304
0.0197304
0.0186269
0.0171616
0.0158474
0.0166126
0.0173715
0.0181134
0.0223201
0.0191673
0.0220826
0.0207289
0.0197387
0.0183277
0.0190516
0.0208476
0.0165926
0.0165147
0.0112592
0.00983507
0.0094656
0.00926034
0.00910285
0.00894879
0.00880069
0.00866725
0.00853928
0.00842672
0.00833769
0.00824963
0.00811388
0.00787723
0.00748237
0.00706181
0.00617801
0.00674925
0.00744205
0.00841223
0.00952747
0.0100966
0.00954386
0.00878624
0.00843904
0.00854318
0.00870516
0.0088878
0.0090993
0.00939618
0.00985844
0.0108239
0.0114974
0.0161745
0.016903
0.0202348
0.0200442
0.0179452
0.0172998
0.0189076
0.0174322
0.0127066
0.0174584
0.016977
0.0212007
0.0157003
0.014803
0.0151928
0.0156674
0.0183741
0.0172853
0.015812
0.0157811
0.0127133
0.0142707
0.0162689
0.0177758
0.0280348
0.0274484
0.0346038
0.0345474
0.0597171
0.0567752
0.0500324
0.0541851
0.0238411
0.0467091
0.0546401
0.0497422
0.0431475
0.0274834
0.0440125
0.0670828
0.0973278
0.070125
0.0573514
0.10675
0.0773455
0.0376043
0.0267122
0.0150786
0.015156
0.0251778
0.0292556
0.0242451
0.0233867
0.0336399
0.0350121
0.0281725
0.028868
0.0312577
0.0301948
0.0326757
0.0282684
0.0275844
0.0155989
0.0127986
0.0138255
0.0155508
0.0165448
0.0160289
0.0168753
0.017556
0.0161221
0.0151027
0.0145483
0.0124856
0.0132333
0.0162215
0.0204439
0.0239541
0.0172892
0.0138845
0.0125798
0.0123846
0.0121583
0.0120419
0.0117253
0.0115447
0.011081
0.0112945
0.0098473
0.00985939
0.0103904
0.010546
0.0107432
0.0108947
0.0110117
0.0111203
0.0119959
0.0187834
0.0259956
0.0208019
0.0164901
0.0140104
0.0151956
0.0171156
0.0210172
0.0264436
0.0178563
0.0176764
0.0115201
0.010735
0.010532
0.010368
0.0102224
0.0101319
0.0101987
0.010203
0.0119269
0.0115007
0.0133829
0.0144755
0.0119747
0.0115564
0.0110975
0.0108217
0.0106726
0.0105954
0.0106908
0.0115553
0.0113865
0.0104547
0.0103547
0.0104689
0.0106773
0.0109965
0.0114429
0.01195
0.0128589
0.0126162
0.0111824
0.0112451
0.0106001
0.0102921
0.010057
0.0100282
0.0100737
0.0102084
0.0104236
0.0113334
0.0171373
0.0173165
0.026657
0.0266416
0.0211795
0.0177066
0.0155526
0.0142993
0.0135685
0.0353251
0.0310168
0.0491405
0.0391872
0.0313655
0.0509551
0.0725463
0.0563235
0.0918346
0.09921
0.0730193
0.0661484
0.0210108
0.0159976
0.0154678
0.0169568
0.0186479
0.0212816
0.021877
0.0266958
0.0288031
0.0171956
0.0165149
0.0155819
0.0249099
0.0230835
0.019702
0.0178179
0.0164327
0.0189839
0.0207771
0.0149781
0.0150213
0.00967867
0.0106803
0.0104312
0.0100973
0.00998594
0.00991519
0.00995193
0.0100535
0.0103372
0.0108324
0.0112042
0.0113314
0.0115991
0.0113914
0.0111072
0.0107689
0.0105676
0.0103715
0.0102146
0.0100963
0.0101334
0.0104537
0.0106015
0.00930393
0.00964533
0.00975161
0.00976519
0.00980204
0.00977723
0.00965658
0.00947182
0.00930066
0.00911302
0.00916465
0.00996221
0.0100918
0.0101487
0.00999699
0.00988628
0.00988069
0.00982164
0.00980941
0.00979601
0.00966696
0.00934677
0.0086199
0.00847689
0.00908577
0.00943825
0.00962416
0.00971325
0.00968942
0.00962187
0.00938311
0.00920298
0.00899688
0.00866983
0.00825318
0.00688376
0.00713462
0.0074761
0.00794797
0.00843588
0.0088639
0.00914901
0.00929593
0.00937698
0.00929153
0.00900094
0.00847792
0.00842624
0.00881578
0.00899895
0.00896636
0.00871913
0.00833164
0.00778692
0.00710405
0.00643724
0.00591743
0.00565585
0.0052526
0.00662616
0.00719061
0.0077245
0.00822627
0.0087096
0.00923248
0.00945174
0.00952455
0.00949881
0.00933662
0.00899771
0.00846298
0.00847517
0.00896
0.00927933
0.00941143
0.00940204
0.00919663
0.00876834
0.00785655
0.00704803
0.00640032
0.00582612
0.00525203
0.00504498
0.00529558
0.00510625
0.00534794
0.00594201
0.00674668
0.00751862
0.00810399
0.00851325
0.00868457
0.0086265
0.00837275
0.00827921
0.00840764
0.00836002
0.00806731
0.00751266
0.00677636
0.00597254
0.00532642
0.0051157
0.00542155
0.0057546
0.00544932
0.00440715
0.0049504
0.00549572
0.00608428
0.00699817
0.00818025
0.00879388
0.00912226
0.00928548
0.00921857
0.00892224
0.00847359
0.00845912
0.00889138
0.00917907
0.00922667
0.00908759
0.0087752
0.0082532
0.00681833
0.00536479
0.00474951
0.00441051
0.00396781
0.00552524
0.00588312
0.00546343
0.00519413
0.00563575
0.00619777
0.00684505
0.00737218
0.00780068
0.00809911
0.00819334
0.00815542
0.00802732
0.00803729
0.00798746
0.00778136
0.00751818
0.0072858
0.00682717
0.00636617
0.00585348
0.00640716
0.00669531
0.00627236
0.00468095
0.00497249
0.00539221
0.00565487
0.00708884
0.00852611
0.00896123
0.00913113
0.00928117
0.00921574
0.00889268
0.00844186
0.00842924
0.00896156
0.00936718
0.00949775
0.00958455
0.00964709
0.00970888
0.00854468
0.00666657
0.00623121
0.00528857
0.00483268
0.00658688
0.00701434
0.0068262
0.00655921
0.00747799
0.00787234
0.00803235
0.00806686
0.00809916
0.00808218
0.00798969
0.00791476
0.00780355
0.00824952
0.0088868
0.00878196
0.00867014
0.00849514
0.00812297
0.00767204
0.00717601
0.00783897
0.00838218
0.00811349
0.00598185
0.00635618
0.00717502
0.00733076
0.00884524
0.0100536
0.0104173
0.0104496
0.0103627
0.0103491
0.00933268
0.00839573
0.00824661
0.00961389
0.0156206
0.0154665
0.0155137
0.0154512
0.0148627
0.0146909
0.0141103
0.0138494
0.0131323
0.0126711
0.0119711
0.0140289
0.0178099
0.0199204
0.0223018
0.0248163
0.0234181
0.0188766
0.0166153
0.0101228
0.00798696
0.00689168
0.00597308
0.00527899
0.00507721
0.00755807
0.00943909
0.0116456
0.0136401
0.0139511
0.0164025
0.0203764
0.0310169
0.0492926
0.0416254
0.0392936
0.0398049
0.0990771
2.55187
2.74154
2.49829
2.90733
3.34307
0.398983
0.153549
0.287148
0.307583
0.344387
0.321963
0.289848
0.26374
0.270048
0.25905
0.267331
0.248701
0.255958
0.223434
0.22939
0.238123
0.710062
1.05286
1.26684
1.76513
1.76224
1.98636
1.93285
1.94881
1.79881
1.91404
1.66313
1.37905
1.30342
1.23142
1.32194
1.43728
1.24718
1.13124
1.01548
0.925102
0.793394
1.00636
0.763908
0.722329
0.721195
0.753757
1.00451
0.915676
1.05423
0.982654
1.02724
0.624903
0.703702
0.516462
0.430453
0.355901
0.433887
0.587129
0.783591
0.975362
0.74116
1.00202
0.918326
0.901663
0.857511
0.780282
0.740326
0.727238
0.748167
0.760754
0.776062
0.804051
0.82538
0.844098
0.995718
1.06129
1.0525
0.862559
0.771042
0.533991
0.571856
0.605821
0.609068
0.567443
0.549543
0.49942
0.486995
0.442671
0.423572
0.385682
0.366394
0.334341
0.46125
0.788034
0.817399
0.887383
0.939893
0.990163
1.0116
1.02885
1.0114
0.977947
0.90712
0.875712
0.812038
0.920417
1.10571
1.10371
1.01444
0.861908
0.816385
3.80529
4.62769
3.06202
6.60383
10.0394
16.8359
7.65009
2.07711
3.47629
2.38922
2.12122
2.06875
2.18546
3.44622
2.52242
3.30053
2.75532
2.918
2.31153
2.6154
2.50233
1.91852
1.61447
1.36636
1.25806
1.01719
1.01799
0.825533
0.767774
0.69294
0.570193
0.696347
0.706307
1.71241
2.32527
2.89465
4.53529
4.97417
5.43021
8.55935
6.91028
8.6356
5.1239
5.17747
3.82711
3.5995
3.63909
5.00662
7.16985
4.93624
8.6242
4.80423
15.5941
34.9021
9.21507
19.0746
11.0034
9.94927
9.58972
9.88173
14.0544
9.58972
15.5994
13.1903
17.5938
17.2036
18.3213
14.2889
10.6086
11.6592
12.5553
16.0705
11.4464
13.2978
10.1308
9.89589
9.17621
7.55586
6.62647
5.06992
5.99881
7.02427
8.00203
12.7121
15.9095
18.2586
22.0019
16.2211
18.4882
11.122
12.2124
9.43034
8.84882
8.98412
11.8234
20.9801
14.8627
27.1971
0.498338
0.226205
0.546301
0.229948
0.487812
0.39121
0.403834
0.404824
0.400566
0.462531
0.220669
0.185422
0.177599
0.175427
0.176931
0.100321
0.124547
0.0804681
0.126958
0.229384
0.504395
0.365705
0.140549
0.0826227
0.054629
0.0429803
0.0635179
0.0613213
0.0980693
0.0994422
0.105802
0.132422
0.228794
0.43498
31.9024
7.15403
1.13794
0.533623
0.283626
0.173891
0.150047
0.169556
0.182359
0.185217
0.174195
0.148481
0.107166
0.0716808
0.0486205
0.0410638
0.0299007
0.0275781
0.0390255
0.0528045
0.0489598
0.0647054
0.0831335
0.105902
0.130077
0.149328
0.163822
0.167878
0.155954
0.122114
0.0803662
0.044366
0.0265877
0.0229443
0.0210143
0.0195123
0.0168605
0.0146639
0.0132256
0.0112935
0.00994867
0.00897097
0.00865001
0.00877011
0.00956717
0.0121
0.0145596
0.0188485
0.0179646
0.0134503
0.0126189
0.00781616
0.00722582
0.00737266
0.00762248
0.00845378
0.0132294
0.0135338
0.0134106
0.0134316
0.0132461
0.0132155
0.0130418
0.0128571
0.0126349
0.0122029
0.011913
0.0113926
0.0111158
0.0104727
0.0104994
0.0108669
0.0111684
0.0101128
0.0100078
0.0093158
0.0201991
0.0484309
0.0699851
0.078483
0.0882988
0.081019
0.0418163
0.0228752
0.00785072
0.00768002
0.0081752
0.00880233
0.00836127
0.00618138
0.00672778
0.00785595
0.011014
0.0109293
0.0109612
0.0127721
0.0133005
0.0146793
0.0152262
0.0156454
0.0158816
0.0158705
0.0160164
0.0157785
0.015887
0.0157085
0.0158054
0.0154064
0.027348
0.0257445
0.0264427
0.0264384
0.0275573
0.027007
0.0264485
0.0254497
0.0246948
0.0231693
0.0215586
0.020002
0.0179217
0.0186681
0.0180255
0.0112455
0.0106766
0.00767079
0.00774221
0.00744211
0.0102202
0.00929962
0.00781688
0.00918054
0.00675095
0.00694067
0.00725178
0.0103246
0.0108526
0.0172653
0.0172591
0.0152807
0.0162433
0.0172718
0.0185879
0.0197612
0.0211867
0.0222176
0.023324
0.0252373
0.0257004
0.0240412
0.0237429
0.0226491
0.0245858
0.0235676
0.021829
0.0233821
0.0249683
0.0274057
0.0270325
0.0248433
0.0235089
0.0220757
0.0197605
0.0171302
0.0157634
0.0147688
0.0147853
0.013761
0.0160716
0.0144962
0.0100916
0.0104728
0.00805095
0.0063349
0.00602052
0.00918076
0.0130904
0.0280318
0.0174839
0.00940489
0.01065
0.0171231
0.035661
0.0210032
0.0342317
0.0144923
0.0156035
0.012514
0.0124738
0.0137524
0.0160318
0.0170967
0.0207356
0.0233889
0.025383
0.0262929
0.027635
0.0280285
0.0294553
0.0299017
0.0326299
0.0328972
0.0329959
0.0325424
0.0302565
0.0272131
0.025099
0.031004
0.035876
0.0390337
0.0414254
0.0438098
0.042514
0.0387832
0.037907
0.0359769
0.0348579
0.0334362
0.030342
0.0265227
0.0217475
0.0211681
0.0271375
0.0328518
0.0490763
0.0529817
0.0527207
0.0550462
0.0555503
0.0573046
0.0577413
0.0604025
0.0609788
0.0621444
0.0624818
0.0677467
0.0686421
0.0696711
0.0699952
0.0697281
0.070734
0.0707824
0.0481056
0.043156
0.0392538
0.0326183
0.0273538
0.0346954
0.0431821
0.0482616
0.0736332
0.0741113
0.0778698
0.080484
0.085497
0.0892087
0.0941754
0.0987079
0.10319
0.106654
0.108772
0.109131
0.109635
0.108688
0.107403
0.11621
0.150955
0.167588
0.198408
0.213534
0.226155
0.230131
0.221369
0.225167
0.217042
0.219585
0.213314
0.211281
0.205978
0.199522
0.195911
0.189451
0.185344
0.213577
0.161613
0.124063
0.0826432
0.066475
0.0594267
0.055654
0.0584723
0.0453284
0.0387008
0.0579115
0.0533867
0.0428616
0.0290055
0.0187266
0.0317785
0.0473409
0.064231
0.0814753
0.0972432
0.107545
0.110111
0.109017
0.104338
0.0965665
0.081472
0.0614691
0.04236
0.0350003
0.0323139
0.0283166
0.0223237
0.017934
0.0157989
0.0141986
0.0124158
0.0111532
0.0105932
0.0107375
0.0110456
0.0132433
0.0173236
0.0173162
0.0116044
0.0111706
0.00768339
0.00776848
0.00802195
0.0133532
0.013493
0.0209263
0.0233617
0.0219999
0.0226795
0.0224048
0.0226843
0.0223087
0.0211101
0.0202654
0.019295
0.0184536
0.0177173
0.0169037
0.0161215
0.0174291
0.0163902
0.0138285
0.0139364
0.0145421
0.0151796
0.0160628
0.0173155
0.0183956
0.0210961
0.0212888
0.020801
0.0209022
0.0194427
0.0187373
0.0199964
0.0195316
0.0133044
0.013135
0.0191739
0.0188252
0.0186998
0.0225088
0.0209117
0.0214329
0.022552
0.0224182
0.0194715
0.0181099
0.0165658
0.0153897
0.014022
0.0125174
0.0121511
0.0148846
0.0131366
0.0107787
0.0119576
0.0143644
0.0169748
0.0184302
0.0204111
0.0231224
0.0240858
0.0263129
0.0277283
0.029822
0.0306625
0.0354835
0.0361664
0.0340535
0.032208
0.0312163
0.0274538
0.0235111
0.0259296
0.0267887
0.0271631
0.0272464
0.0271143
0.0235265
0.0230932
0.0215766
0.0210607
0.0194971
0.0189402
0.0177825
0.0170259
0.0160096
0.0141838
0.0134361
0.0126276
0.0122814
0.0173442
0.0108163
0.0105785
0.0159693
0.00983879
0.011577
0.0113294
0.0118428
0.0124847
0.0103375
0.0151311
0.0103146
0.0112038
0.0114244
0.0143067
0.00987668
0.0199505
0.0624969
0.0920572
0.110917
0.201847
0.242518
0.263068
0.283907
0.298266
0.314315
0.331971
0.349752
0.362941
0.364501
0.338969
0.320547
0.255644
0.228952
0.252856
0.283189
0.195428
0.167698
0.170031
0.170949
0.173597
0.174924
0.178661
0.176672
0.181863
0.17752
0.184933
0.178945
0.185573
0.178012
0.162455
0.145717
0.112851
0.101982
0.0657663
0.0509201
0.0398422
0.0288989
0.0210449
0.0188801
0.0178592
0.0164878
0.0165703
0.0127008
0.0131157
0.00840122
0.00616372
0.00986725
0.00971597
0.00722153
0.00984799
0.0112477
0.0117672
0.0123061
0.0125961
0.019268
0.0193119
0.0247462
0.024622
0.0291924
0.0347922
0.0360258
0.0396775
0.057013
0.0575088
0.0572541
0.0570431
0.0566018
0.0493705
0.0490885
0.0479801
0.0473909
0.0444534
0.0438999
0.0418295
0.0406984
0.0377682
0.0369487
0.035818
0.0362389
0.0400067
0.0544518
0.0962682
0.0289988
0.0274589
0.0202188
0.0144994
0.0212012
0.0158601
0.0153698
0.0135733
0.0186553
0.0134169
0.013673
0.0164663
0.0169751
0.0163637
0.0212743
0.026528
0.023272
0.0256032
0.114665
0.0727044
0.0238903
0.0471449
0.0707171
0.156334
0.203528
0.139153
0.159104
0.183397
0.166358
0.139555
0.108671
0.0811009
0.0572171
0.0438074
0.0113773
0.0133155
0.0184076
0.0402456
0.0598223
0.101236
0.0831766
0.108791
0.148794
0.173298
0.209372
0.20074
0.172555
0.148449
0.145275
0.160699
0.162042
0.104241
0.101146
0.0770059
0.173381
0.219025
0.184278
0.231448
0.243758
0.141325
0.0313889
0.0183094
0.0150803
0.0138817
0.0124096
0.0193798
0.0114207
0.0116184
0.0123277
0.0132513
0.0169081
0.0294043
0.0133957
0.0148949
0.0183268
0.0158952
0.0149657
0.0146181
0.0145418
0.0151823
0.016558
0.0215848
0.0216308
0.0212484
0.0159474
0.0172303
0.0156476
0.0199297
0.0211277
0.0332299
0.0152079
0.0161457
0.0214084
0.475658
0.0245367
0.0177738
0.0231341
0.0218019
0.0299934
0.0441069
0.456724
0.0437616
0.0350026
0.0585327
0.0608294
0.0654785
0.0691404
0.0726349
0.0751566
0.079092
0.0817681
0.0829858
0.0842024
0.099914
0.0999648
0.0989091
0.103512
0.0976782
0.0577037
0.0579328
0.0975345
0.105291
0.0594812
0.0410874
0.0385856
0.0312882
0.0324349
0.0419869
0.0440452
0.0617256
0.06156
0.102689
0.0936325
0.0950322
0.0967519
0.0917172
0.0921637
0.0942438
0.0941351
0.0753278
0.0730389
0.0712867
0.0682218
0.0646916
0.0617913
0.0588844
0.0557827
0.0531097
0.0530923
0.0576416
0.0582345
0.0657349
0.0721916
0.217838
0.14782
0.105788
0.0788216
0.0645147
0.0586709
0.0583729
0.0616015
0.0648395
0.0665103
0.067313
0.0706537
0.0924052
0.0949463
0.0978301
0.0952484
0.0991016
0.097189
0.0947204
0.104643
0.1125
0.0657426
0.0678257
0.0479105
0.0447307
0.0326489
0.0332265
0.0237064
0.0196477
0.0196156
0.0195987
0.0198414
0.0227488
0.0318138
0.0319055
0.0466313
0.0465089
0.0519186
0.0755441
0.0725805
0.129455
0.118618
0.108924
0.101555
0.101937
0.104038
0.106635
0.101611
0.0977339
0.0921625
0.0723999
0.0684207
0.0662788
0.0650012
0.0636752
0.0669552
0.089774
0.144796
0.221392
0.325791
0.426375
0.438408
0.397642
0.246497
0.28765
0.142534
0.163561
0.185194
0.159359
0.168575
0.318146
0.264686
0.374223
0.480167
0.534054
0.600476
0.637034
0.623825
0.493964
0.32027
0.32779
0.436649
0.766591
0.860039
0.744324
0.762678
0.65922
0.541304
0.523013
0.498475
0.562656
0.614004
0.579424
0.596868
0.540968
0.516444
0.446285
0.498111
0.363989
0.327852
0.308199
0.299343
0.358714
0.29025
0.326879
0.268606
0.274779
0.223227
0.228758
0.190975
0.146193
0.138574
0.128447
0.143781
0.162927
0.149218
0.153468
0.133982
0.114447
0.0911562
0.0984472
0.073515
0.0694847
0.0704555
0.0800268
0.124987
0.365734
0.172598
0.16314
0.167433
0.177921
0.318907
0.282665
0.725637
0.508767
0.71245
0.475677
0.564813
0.472657
0.364593
0.380147
0.420162
0.601061
0.824872
6.66232
0.284931
4.26898
3.16863
3.32666
3.47195
4.45048
7.81803
7.11413
9.40428
6.80986
9.08425
4.97401
4.97631
4.32569
4.47081
4.4381
4.26063
5.18128
6.6123
0.238146
0.0909272
0.0854208
0.0856078
0.0873833
0.197709
0.052561
0.202039
0.0539752
0.213528
0.0495361
0.246757
0.196959
0.038243
0.0192586
0.020091
0.0168075
0.0203755
0.0169228
0.0250463
0.0235416
0.0236976
0.0265754
0.0761127
0.291451
13.7414
1.64205
0.683463
0.782221
1.1716
0.795147
1.19414
1.66019
1.11584
0.555883
0.363055
0.428158
0.517461
0.494397
0.632375
0.911813
0.892794
0.701744
0.70612
0.620889
0.878265
0.887562
1.05372
1.23147
1.12805
0.882351
0.69446
0.585486
1.01295
1.02023
0.954091
0.401447
0.112415
0.0463633
0.0484059
0.0353857
0.0374
0.0346658
0.0540101
0.157746
0.217472
0.13056
0.425846
0.412043
0.563719
0.402526
0.412649
0.325422
0.350091
0.533517
0.583129
0.643133
0.674663
0.724866
0.667545
1.28153
2.19078
2.47772
12.8128
17.3993
3.19196
3.09311
13.9468
0.314893
0.0838318
0.0233059
0.0174287
0.0162165
0.0161298
0.0150011
0.0155386
0.0160004
0.0169644
0.0188308
0.0231997
0.045846
0.201553
0.20353
0.0643702
0.032441
0.0229748
0.0196184
0.0170476
0.0163879
0.0155323
0.01546
0.0150084
0.0156578
0.0174635
0.0237797
0.0774472
0.271236
11.343
2.43944
2.2587
8.38976
5.79967
0.206845
0.0438111
0.020097
0.016928
0.0158847
0.0167552
0.0162667
0.0182127
0.0184038
0.0230192
0.0250261
0.0317775
0.05711
0.110262
0.315883
9.60681
8.67609
8.40043
7.83251
0.310503
0.115305
0.0544259
0.0382431
0.034632
0.0338253
0.0226519
0.0236773
0.0189845
0.0216455
0.0182978
0.022689
0.0483326
0.212017
5.35701
1.57336
1.70418
1.21142
0.613744
0.656161
0.66985
0.689259
1.77204
4.0475
4.98106
3.42253
3.35814
4.70145
3.16788
2.47933
1.82699
1.74671
2.54453
1.96329
1.82613
1.35666
1.4661
1.06856
1.46848
0.811936
0.978154
1.07419
1.53262
1.39901
1.41211
0.90971
1.05181
1.47678
1.72809
1.65222
0.845008
1.22891
1.01527
0.655488
0.607663
0.633941
0.603527
0.577927
0.575094
0.579747
0.55881
0.576338
0.556663
0.588905
0.548687
0.53364
0.5076
0.527201
0.544494
0.577003
0.360028
0.422364
0.426969
0.441383
0.453737
0.374644
0.450884
0.441445
0.658868
0.994872
0.830856
1.14386
0.67679
1.00283
2.00719
5.21191
2.33224
0.816567
1.34749
1.58565
1.13988
0.628551
2.55445
3.56414
1.23173
1.78765
10.3987
8.44285
16.5316
10.9632
18.6067
6.02519
4.6328
17.7902
6.66515
6.89758
4.50708
4.51602
2.95501
1.5827
1.62539
1.73728
1.22502
1.29685
1.20733
1.13337
1.47266
1.43686
1.88164
2.03134
2.57232
1.80954
1.77144
2.59024
1.06243
1.39603
1.83331
1.82473
1.35689
2.33485
3.14882
2.95449
2.12811
2.33079
3.49696
4.8082
4.55992
3.15547
3.94761
10.1149
13.4964
13.6733
4.2162
19.3344
18.3037
2.06489
0.559471
0.31934
0.0879783
0.0441859
0.0365849
0.0386456
0.143068
0.0457798
0.0569257
0.045317
0.07217
0.0693763
0.0866438
0.215981
0.125552
0.21378
0.154118
0.187166
0.119409
0.191028
0.223921
0.233514
0.185865
0.113977
0.210258
0.302944
0.104417
0.350013
0.384809
0.256557
0.328016
0.390737
0.19375
0.98843
0.183676
0.125381
0.144346
0.387711
1.24793
0.21515
0.456974
4.46088
14.7137
3.66371
0.930043
0.673011
0.0551874
0.0299578
0.0314443
0.0277048
0.0193539
0.0829278
0.0973232
0.401528
0.206633
0.278185
0.662268
2.93474
2.40012
1.11787
5.47473
10.2834