/*--------------------------------*- C++ -*----------------------------------*\
| =========                 |                                                 |
| \\      /  F ield         | OpenFOAM: The Open Source CFD Toolbox           |
|  \\    /   O peration     | Version:  v2012                                 |
|   \\  /    A nd           | Website:  www.openfoam.com                      |
|    \\/     M anipulation  |                                                 |
\*---------------------------------------------------------------------------*/
FoamFile
{
    version     2.0;
    format      ascii;
    class       volScalarField;
    location    "35";
    object      alphat;
}
// * * * * * * * * * * * * * * * * * * * * * * * * * * * * * * * * * * * * * //

dimensions      [1 -1 -1 0 0 0 0];


internalField   nonuniform List<scalar> 
22960
(
0.00452883
0.00248827
0.00210829
0.00184179
0.00109229
0.00160487
0.00182518
0.00217265
0.00208859
0.00183338
0.00167861
0.00274511
0.00391612
0.00473765
0.00486458
0.00485092
0.00482143
0.00562212
0.00612648
0.00658055
0.00599182
0.00378895
0.00518255
0.00640905
0.00513433
0.00379425
0.00334783
0.00452831
0.0051458
0.00519403
0.00529482
0.00531132
0.00538143
0.00542085
0.00551998
0.00558628
0.00578369
0.00591051
0.00605848
0.00676803
0.0070606
0.00715421
0.00732221
0.00739711
0.00751884
0.00761457
0.00771703
0.00780773
0.00788252
0.00832742
0.00864161
0.00843115
0.00828652
0.00814912
0.00790968
0.00694255
0.00448047
0.00271013
0.00252471
0.00269713
0.00281499
0.00287104
0.00246689
0.00131489
0.00172145
0.0020081
0.00246678
0.00243065
0.00219209
0.00206837
0.00337569
0.00450983
0.00520604
0.00531678
0.00537074
0.00531726
0.00532351
0.00522212
0.00519506
0.0045939
0.00342233
0.00392634
0.00458291
0.00458301
0.00382685
0.00278182
0.0046459
0.00523405
0.00528277
0.00582083
0.00638017
0.00680298
0.00685484
0.00666284
0.0055407
0.00408541
0.00250222
0.00250885
0.00263222
0.00255221
0.00217783
0.00170323
0.00106201
0.00177489
0.00202105
0.0018332
0.00167512
0.00148089
0.001615
0.00285698
0.00526601
0.00606685
0.00607848
0.00599632
0.00593248
0.0059005
0.00591527
0.00611764
0.00630705
0.00646362
0.00677599
0.00707896
0.00715477
0.00627381
0.0037896
0.00215762
0.0019361
0.00206632
0.00213064
0.00243528
0.00243841
0.0021044
0.00201419
0.0021695
0.00346812
0.00613657
0.00684941
0.00674198
0.00645175
0.00611389
0.0058942
0.0056377
0.0054046
0.0053371
0.00535769
0.00548862
0.00567585
0.00570273
0.00504446
0.00288968
0.00176878
0.00159344
0.00168721
0.00202863
0.00209432
0.00224638
0.00183648
0.00110058
0.00183957
0.00230525
0.00244533
0.00249442
0.00262989
0.00293163
0.0032938
0.00320176
0.00285574
0.00258081
0.00241053
0.00230678
0.00210777
0.00189919
0.00148076
0.000919396
0.00155278
0.00168285
0.0015853
0.00146765
0.00133417
0.00143903
0.00252287
0.00404985
0.00456846
0.00459784
0.00447923
0.00424085
0.00395344
0.00366996
0.0041117
0.00450035
0.00479136
0.00500579
0.00510321
0.00505292
0.00447096
0.00265241
0.00149614
0.00134761
0.00151647
0.00161068
0.00162477
0.0013547
0.000816889
0.00131454
0.00176695
0.00198668
0.00203824
0.0019756
0.00198091
0.00196952
0.0019104
0.00168991
0.00126039
0.000858878
0.000923474
0.0010588
0.00114726
0.0012252
0.00133617
0.00148486
0.00163993
0.00177695
0.00187623
0.00193022
0.00194407
0.00191664
0.00183431
0.00159934
0.0015208
0.00246501
0.00324188
0.00343227
0.00337324
0.00309377
0.00262559
0.00188171
0.00121292
0.00119898
0.00123272
0.00100746
0.000712934
0.00049605
0.000419457
0.000233029
0.000243451
0.000296515
0.00031556
0.000336518
0.000262692
0.000219202
0.000407809
0.000541888
0.000647346
0.000726322
0.000789311
0.000838992
0.000842779
0.000831018
0.000780338
0.000535837
0.000357024
0.00047648
0.000585326
0.000543503
0.0005014
0.000402055
0.000371932
0.000625321
0.000711696
0.000799099
0.000732783
0.000659979
0.000678885
0.000696318
0.000709904
0.000722392
0.000720808
0.000725281
0.000713968
0.000712893
0.000688737
0.000679877
0.000630519
0.000607935
0.000547384
0.000518879
0.000520316
0.000671082
0.000907621
0.00154695
0.00241623
0.00291686
0.00321613
0.00343597
0.00347131
0.00473801
0.00466992
0.00414729
0.00335118
0.00272858
0.00162889
0.00100849
0.000920731
0.000934939
0.000851007
0.000825168
0.000695584
0.000777319
0.000882209
0.00109269
0.00111118
0.000870628
0.000940375
0.000973453
0.00102403
0.00103672
0.001065
0.00106353
0.0010824
0.00107191
0.00108386
0.00106504
0.00107084
0.00106799
0.00108732
0.00112949
0.00119717
0.000953652
0.00128398
0.00152534
0.00142983
0.00142267
0.00194475
0.00253063
0.0026686
0.00444392
0.00510932
0.00461193
0.00247945
0.00237577
0.0016916
0.00110585
0.00114799
0.0012754
0.00129023
0.00121082
0.00118153
0.00121375
0.00129991
0.00131499
0.00130583
0.00129409
0.00127698
0.00125204
0.00121459
0.00109134
0.00103797
0.00137045
0.00176996
0.00192695
0.00309719
0.00429734
0.00500921
0.00417274
0.00508236
0.00570565
0.00601173
0.00606247
0.006126
0.00610107
0.00682431
0.0068133
0.00672656
0.00657023
0.00626274
0.00569466
0.00474774
0.00553552
0.00608811
0.00655706
0.00681858
0.00705409
0.00718083
0.0072184
0.00722137
0.00746229
0.00754309
0.00773193
0.00781267
0.00780854
0.00766431
0.00733791
0.00623874
0.00378617
0.00201766
0.00176703
0.00184919
0.00185351
0.00188356
0.00170577
0.00106781
0.0016743
0.00228692
0.00247464
0.00240297
0.00216338
0.00204187
0.00328644
0.00444587
0.00520431
0.00535416
0.0054673
0.00537781
0.00526482
0.00455702
0.00342967
0.00212013
0.00196566
0.00152369
0.00116344
0.00121303
0.00132398
0.00114029
0.000875567
0.000678937
0.000769692
0.000725881
0.000707319
0.000704433
0.000698871
0.0006944
0.000697947
0.000691767
0.000696339
0.000685669
0.000688751
0.000666488
0.000661236
0.000613541
0.000594706
0.000536154
0.000498185
0.000485078
0.000611131
0.000838334
0.00149276
0.00241784
0.00285706
0.00319818
0.00346945
0.00352548
0.00407512
0.0038453
0.00315941
0.00337442
0.00278399
0.00297922
0.0033352
0.00429844
0.00451384
0.00515462
0.0049181
0.00448494
0.00413754
0.00324355
0.00335582
0.00299769
0.00152199
0.00248861
0.00216945
0.00138328
0.00137555
0.00104097
0.00122779
0.00159652
0.00143381
0.00136968
0.00270534
0.0022821
0.00241728
0.00255971
0.00271524
0.00423347
0.00302718
0.0031025
0.00491611
0.0042231
0.00353057
0.00357575
0.00424868
0.00409491
0.00385239
0.00352904
0.00388013
0.00381483
0.00382954
0.00378674
0.00377748
0.00376357
0.00374901
0.00393097
0.00407454
0.0043164
0.00442878
0.00445408
0.00438602
0.00409547
0.00380271
0.00139188
0.000526682
0.000601124
0.000716391
0.00085676
0.00101982
0.00115047
0.00129132
0.00150869
0.00147515
0.00136818
0.00124632
0.00109574
0.000891455
0.000543102
0.000342732
0.00031997
0.000558412
0.000897387
0.00122535
0.0013367
0.00166088
0.00159756
0.00248029
0.0042764
0.00488857
0.0051757
0.00530896
0.00532912
0.00522341
0.00449026
0.00291119
0.00291507
0.00301339
0.00295359
0.00292898
0.00294174
0.00288061
0.00282966
0.00246079
0.00225604
0.00157667
0.00135868
0.00161934
0.00174475
0.00189742
0.00187928
0.00208266
0.00196766
0.00201746
0.00193522
0.00173152
0.00158472
0.00261253
0.00374183
0.00456971
0.00473546
0.00481594
0.00464677
0.00444169
0.00371328
0.00274142
0.00165415
0.00150713
0.00115383
0.000868468
0.000890426
0.000957518
0.000810655
0.000610046
0.000461187
0.000406574
0.000238537
0.000252278
0.000307806
0.000318833
0.000327064
0.000261647
0.00024319
0.00048833
0.000639395
0.000741665
0.000818189
0.000885227
0.000939442
0.00094298
0.000932453
0.000872732
0.000537409
0.000353689
0.000468472
0.000567625
0.000532463
0.000495317
0.000399035
0.000369871
0.000612142
0.000556084
0.000615376
0.000701383
0.000749051
0.000793192
0.000807406
0.000812651
0.000827
0.000916501
0.00106154
0.00137757
0.00192634
0.00221619
0.0025856
0.00259316
0.00251865
0.00240705
0.00223738
0.00203651
0.00178858
0.00144613
0.000848198
0.000558576
0.000566117
0.001605
0.00164212
0.00173942
0.00230364
0.00249295
0.00212969
0.00338285
0.00381433
0.00559345
0.0050276
0.00497966
0.00515943
0.00522052
0.0051421
0.00460605
0.00449926
0.00501548
0.00509537
0.00502599
0.00484119
0.00543865
0.00532189
0.00373343
0.00390724
0.00223586
0.0022794
0.0026912
0.00255992
0.00226491
0.00229711
0.00201277
0.00187109
0.00176048
0.00185194
0.0018106
0.00221795
0.00239406
0.00262461
0.00270819
0.00268828
0.00272229
0.00280559
0.00280249
0.00255407
0.00233911
0.0017072
0.00144029
0.00156304
0.00191426
0.00206104
0.00215449
0.0020602
0.00198748
0.00197522
0.00202102
0.00209524
0.0020269
0.00195177
0.00170146
0.00177919
0.00178167
0.00175018
0.00174189
0.00174181
0.00176055
0.00178472
0.00177073
0.00155383
0.00142893
0.00151122
0.00146355
0.00151467
0.00167744
0.00177526
0.00182417
0.00181143
0.00184342
0.00182758
0.00182573
0.00176011
0.00171258
0.00177493
0.00181547
0.00191037
0.00196474
0.00189197
0.00225368
0.00221253
0.00254096
0.00262762
0.00248751
0.00214781
0.00192078
0.00356041
0.00339264
0.00337183
0.00210887
0.00217409
0.00255277
0.00238803
0.00233088
0.00206056
0.00185916
0.00181973
0.00185413
0.00184459
0.00184148
0.00180095
0.0017945
0.00175765
0.00169822
0.00159501
0.00161207
0.00159628
0.00156991
0.00143392
0.00128957
0.00125538
0.0011507
0.00145761
0.00155795
0.00150314
0.00154529
0.00178745
0.00167874
0.00156897
0.0029495
0.00195346
0.00131092
0.00131293
0.00131338
0.00131395
0.00131057
0.00130202
0.00128213
0.0012447
0.00118481
0.00103329
0.00166009
0.00267898
0.00328891
0.00409882
0.00467961
0.0047831
0.00555999
0.00554089
0.00559804
0.0056422
0.00566964
0.00565862
0.00554926
0.00478544
0.00372051
0.00331854
0.00302058
0.00324527
0.00350867
0.00366615
0.00226777
0.00246434
0.00252316
0.00263693
0.00300426
0.00359501
0.00377873
0.00345791
0.00324801
0.00307955
0.00291506
0.00256862
0.00302181
0.00328866
0.00336479
0.00339093
0.00366187
0.0044558
0.00461819
0.00445615
0.00399398
0.0039665
0.00387641
0.0039256
0.00392231
0.00390703
0.00414236
0.00533663
0.00559112
0.00530316
0.00531793
0.00561064
0.00533478
0.00486132
0.0048977
0.00262584
0.000700963
0.00290819
0.00359412
0.0050261
0.00451414
0.00361804
0.00313846
0.00427752
0.00409788
0.00513434
0.00525032
0.00464745
0.00521124
0.00516788
0.00546889
0.00569877
0.00497903
0.00456621
0.00475561
0.00497333
0.00504357
0.0048173
0.00505574
0.00499724
0.0052396
0.00526913
0.00452919
0.00548879
0.00412921
0.00353454
0.00573233
0.00652902
0.00734933
0.008193
0.00881355
0.00940544
0.0100428
0.0107304
0.0110378
0.0110548
0.0104265
0.00964459
0.00898882
0.00844854
0.00800773
0.00766875
0.00740733
0.00712499
0.00701418
0.00675755
0.00628664
0.00674026
0.00709005
0.00736014
0.00760586
0.00781359
0.00797266
0.00814937
0.00882599
0.00884078
0.00881661
0.00867959
0.0084769
0.00819932
0.00778061
0.00667221
0.00394975
0.00232954
0.00210911
0.00216928
0.00241082
0.00236469
0.00238254
0.00201087
0.00114469
0.00145656
0.00220497
0.00258887
0.00256576
0.00258161
0.00267784
0.00238757
0.00416156
0.00428526
0.00676419
0.00796531
0.00847725
0.00888732
0.00928115
0.00965416
0.00992258
0.0100646
0.00898067
0.00855428
0.00826242
0.00797178
0.00769351
0.00742429
0.0071309
0.00733613
0.00759587
0.00786939
0.00823334
0.00870133
0.00932711
0.0101812
0.0114923
0.0110709
0.0103523
0.00969342
0.00911864
0.00860617
0.00806246
0.00726018
0.00650203
0.00417183
0.00426442
0.00229717
0.00246043
0.00270808
0.00270347
0.00269696
0.00264642
0.00225303
0.00171288
0.00202355
0.00190447
0.00334318
0.00372291
0.00407412
0.0041765
0.00244264
0.00244857
0.00251755
0.0026519
0.00256092
0.00253861
0.00362382
0.00361858
0.00366169
0.00376739
0.00386872
0.00284069
0.00313827
0.00401604
0.00393855
0.00336047
0.00324273
0.00339593
0.00333017
0.00410097
0.00400906
0.00383858
0.00384567
0.00290766
0.00316575
0.00395133
0.00380971
0.00303029
0.00275475
0.00307096
0.00115286
0.00217957
0.001797
0.00303734
0.00376951
0.00405153
0.0047757
0.00462935
0.00454595
0.00446293
0.00368819
0.00340507
0.00313105
0.00437271
0.00431513
0.0035846
0.00366836
0.00413512
0.00383629
0.00475361
0.00484453
0.00455582
0.00433328
0.0028576
0.00428199
0.00441486
0.00452749
0.004291
0.00383951
0.00340012
0.00314117
0.00378557
0.00377049
0.00376567
0.00321096
0.00269062
0.00215241
0.00304688
0.00329741
0.00396055
0.00380708
0.00364257
0.00280009
0.00288748
0.00208954
0.00235861
0.00247699
0.00229162
0.00194475
0.003408
0.00523639
0.00593667
0.00601015
0.00601327
0.00596882
0.00585164
0.00510386
0.00326538
0.00321815
0.00330302
0.00328128
0.00329099
0.00329074
0.00321554
0.00330471
0.00325833
0.00329805
0.0033074
0.0033363
0.00338673
0.00340286
0.00347507
0.00539484
0.0051551
0.00523223
0.00521963
0.00480719
0.00496577
0.00502881
0.00496897
0.00471696
0.00444101
0.00431195
0.00483503
0.00488763
0.00489816
0.00493898
0.00498242
0.00492876
0.0048039
0.00481457
0.00473495
0.00505394
0.00537006
0.00547101
0.00537967
0.00518579
0.00512774
0.00507181
0.00544178
0.005102
0.00514576
0.00575135
0.00586725
0.00591304
0.00590304
0.00580058
0.00521903
0.00330265
0.00185124
0.00218658
0.00236596
0.00236526
0.00220134
0.00207895
0.00220095
0.00223801
0.00211732
0.00180676
0.00336808
0.00335615
0.00519327
0.00577561
0.00588346
0.00588838
0.00583335
0.00571157
0.0057537
0.0058602
0.00592914
0.00595458
0.00590686
0.0056959
0.00554463
0.00335736
0.00341114
0.00165929
0.00177457
0.00205041
0.00215232
0.00217065
0.00206568
0.00182675
0.00192954
0.00187771
0.00182322
0.00339955
0.00345488
0.00311143
0.00319228
0.00201368
0.00308818
0.00401774
0.00414295
0.00428974
0.00332761
0.00384154
0.00286995
0.0029362
0.00382357
0.00379794
0.00362535
0.0037643
0.00394716
0.00409406
0.00382485
0.00384755
0.00555208
0.00411867
0.0041803
0.00388495
0.0042456
0.00426831
0.00420227
0.00394772
0.0062285
0.00494484
0.00453252
0.00435713
0.0049153
0.00488802
0.00470435
0.0031912
0.00345485
0.00356805
0.00364979
0.00413931
0.00408371
0.0048747
0.00496613
0.00461987
0.00423886
0.00411386
0.00359987
0.00348891
0.0047926
0.00545216
0.00549092
0.00371404
0.00433149
0.00547668
0.00549168
0.00566124
0.00581131
0.0057751
0.00348024
0.00334143
0.00323926
0.00304113
0.00282466
0.00317004
0.00351414
0.00384546
0.00399026
0.00438542
0.00477347
0.00520997
0.00527743
0.00496578
0.00551398
0.00545107
0.00539436
0.0053373
0.005311
0.00454758
0.00592665
0.00568715
0.00538262
0.00494885
0.00314808
0.00196084
0.00227204
0.00253888
0.00244742
0.00364997
0.0045168
0.00365057
0.0047488
0.00479487
0.0049551
0.00445272
0.00426575
0.00472421
0.00525016
0.00507641
0.00508271
0.00594189
0.00501393
0.00505617
0.00532119
0.00519616
0.00567791
0.0051526
0.00488788
0.00517759
0.00546752
0.0050146
0.004663
0.00498977
0.0051524
0.00448371
0.00424939
0.00376877
0.00296999
0.00325598
0.00347262
0.00336733
0.00374673
0.00452364
0.00511156
0.00392151
0.00495244
0.00495009
0.00489951
0.00485384
0.00531231
0.00594456
0.00574315
0.00604731
0.00596428
0.00590862
0.00558146
0.00541537
0.00505127
0.00537989
0.00550809
0.00548169
0.00527198
0.00499261
0.00536693
0.00494652
0.00428709
0.0044382
0.00507646
0.00528293
0.00474601
0.00483991
0.0053626
0.00584677
0.0056566
0.00514728
0.00472945
0.00516143
0.00529631
0.00473906
0.00451833
0.00400621
0.00417745
0.00487465
0.00511591
0.00448287
0.00447239
0.0044327
0.00436201
0.00509302
0.00545394
0.0053372
0.00551358
0.00568727
0.0058602
0.00579885
0.00573603
0.0057105
0.00584354
0.00575285
0.00579478
0.00570794
0.00541413
0.00555365
0.00531105
0.00557994
0.00466133
0.00545644
0.00568287
0.00508027
0.00571572
0.00572676
0.00568175
0.00596616
0.00429229
0.0042768
0.00395545
0.00423205
0.00518194
0.00625383
0.00560741
0.0055584
0.00480635
0.00497362
0.00564323
0.00562625
0.00549741
0.00522691
0.00658751
0.00699981
0.00582335
0.00687786
0.00640601
0.00614066
0.0060478
0.00602566
0.00596517
0.00587695
0.00577543
0.00567239
0.00557625
0.00550591
0.00544777
0.00511106
0.00540025
0.00558136
0.00535008
0.00502436
0.00477779
0.00476098
0.0048434
0.00487031
0.00483431
0.00480453
0.00482586
0.00483391
0.00471775
0.00450151
0.00419993
0.0042611
0.00424755
0.00424228
0.004216
0.00427519
0.00465549
0.00501034
0.00531186
0.00535943
0.00530566
0.00512447
0.00487306
0.00495779
0.00517978
0.00554103
0.00577616
0.00589894
0.00600965
0.00611106
0.00629035
0.00666588
0.00721716
0.00739372
0.00654745
0.00576772
0.00559073
0.00537092
0.00519564
0.0049144
0.00442574
0.00408209
0.00466332
0.00456504
0.00528389
0.00551654
0.00561105
0.00557442
0.00510049
0.0035645
0.00364918
0.00355573
0.00313481
0.00277138
0.00328656
0.00334592
0.00373178
0.00375683
0.00350111
0.00339017
0.00313354
0.00342587
0.00371776
0.00368424
0.00366367
0.0035292
0.00337744
0.00325734
0.00310451
0.00302228
0.00292553
0.0028868
0.00283491
0.00281547
0.00275659
0.00436225
0.00495835
0.00484501
0.00455671
0.00417265
0.00441179
0.00457629
0.00413649
0.0026311
0.00271029
0.00265417
0.00272297
0.00266925
0.00266187
0.00266692
0.00265861
0.00266024
0.00264557
0.002656
0.00266221
0.00273952
0.0027185
0.00291774
0.0032876
0.00162653
0.00172958
0.00171766
0.00169517
0.00164466
0.00162539
0.00162114
0.0016156
0.00161771
0.00162061
0.00164113
0.00163692
0.00159629
0.00146529
0.00156091
0.00262727
0.00259675
0.00407965
0.00256667
0.00153083
0.00155458
0.00179512
0.00178389
0.00184935
0.00180658
0.00166155
0.00161528
0.00161623
0.001622
0.00162804
0.00168881
0.00190785
0.00198706
0.00201267
0.00177426
0.00181142
0.0021125
0.0019743
0.00168781
0.00137894
0.00123318
0.00121055
0.00121132
0.00121057
0.00120711
0.00120205
0.00119595
0.00118831
0.00117997
0.0011963
0.00132964
0.00160048
0.00182725
0.00166511
0.00175473
0.00169143
0.00147685
0.00247052
0.00386569
0.00241273
0.00142637
0.00162416
0.00150015
0.0015659
0.00134114
0.00138615
0.00152946
0.00132025
0.00122007
0.00108414
0.00102676
0.00105701
0.00106703
0.00107734
0.00108568
0.00109087
0.00109353
0.00107096
0.00113516
0.00128213
0.00140579
0.0016505
0.00183262
0.00153558
0.00126673
0.00114274
0.00102495
0.000718396
0.000709532
0.0006999
0.000698875
0.000710488
0.000721432
0.000724189
0.000724957
0.000719156
0.000711118
0.00069861
0.000657526
0.000657486
0.000674268
0.000693876
0.000696427
0.000707309
0.000719889
0.00072756
0.000734914
0.00073179
0.00072944
0.000733814
0.000740835
0.000741157
0.000735071
0.000732418
0.000727593
0.000725608
0.000717422
0.000709785
0.000699761
0.000693894
0.00068853
0.000682187
0.000670296
0.000661999
0.000650108
0.000952569
0.00105121
0.00114391
0.00135784
0.00159488
0.00174192
0.00154159
0.00260896
0.00412467
0.0025588
0.00149413
0.00167269
0.00152325
0.00127821
0.00126683
0.00128405
0.00132012
0.00111388
0.00113006
0.00117141
0.00106795
0.000960331
0.000653765
0.000659744
0.000663149
0.00067325
0.000676582
0.000679238
0.000682069
0.000689348
0.000693851
0.00069842
0.000696344
0.000697405
0.000697824
0.000702113
0.000701299
0.000694418
0.000689916
0.000698255
0.000393546
0.000431918
0.000446624
0.000445702
0.000445696
0.000441027
0.000447219
0.000441355
0.000438385
0.000428606
0.000420809
0.000416357
0.0004154
0.000411871
0.000400982
0.000367343
0.00040979
0.000656996
0.000656424
0.000407254
0.00036087
0.000635687
0.000989483
0.000639507
0.000390272
0.000452393
0.000482918
0.000440336
0.000487433
0.00046037
0.000480147
0.000496347
0.000503479
0.000512861
0.000522183
0.000526711
0.000533145
0.00055424
0.00054954
0.000556167
0.000554584
0.000545539
0.000518315
0.000458134
0.000508431
0.000566295
0.000588939
0.000597864
0.0005505
0.000551633
0.000577857
0.000569309
0.000564196
0.000558087
0.000526526
0.000506614
0.000530777
0.000507007
0.00052943
0.000505395
0.000524802
0.000498662
0.000466384
0.000394914
0.00064059
0.000996391
0.000640244
0.000394877
0.000467004
0.000510963
0.000539488
0.00054002
0.000546945
0.000544308
0.000556478
0.000542036
0.000492421
0.000530681
0.00021002
0.000375064
0.000296099
0.000372379
0.000307927
0.000423181
0.000512279
0.000505695
0.000514654
0.000435504
0.000411373
0.000403037
0.000412398
0.000422571
0.000411226
0.000453395
0.000460215
0.00057435
0.000573449
0.000584408
0.000609992
0.000511347
0.000526155
0.000483582
0.000533972
0.000517807
0.000526878
0.000533256
0.000539265
0.000641483
0.000653377
0.000670095
0.000564724
0.000398875
0.000490276
0.000367094
0.000463997
0.00024456
0.000564591
0.000564272
0.000540685
0.00056677
0.000572216
0.000573586
0.000574731
0.000551271
0.000715328
0.000683012
0.000777737
0.000279695
0.000559312
0.000384128
0.000527988
0.00039434
0.000513982
0.000671371
0.000709176
0.000703744
0.000596792
0.000651524
0.00179051
0.127946
0.00136649
0.00166499
0.00168999
0.00165586
0.00126615
0.000936769
0.00126526
0.000801682
0.00131559
0.000578069
0.00192715
0.00169954
0.00188123
0.00198912
0.000878044
0.000933838
0.00096653
0.0010154
0.000876436
0.000851625
0.00102548
0.00106199
0.10598
0.12974
0.136966
0.131136
0.1001
0.127495
0.343639
0.543403
0.643672
0.188196
0.0014179
0.00151241
0.00098931
0.000836941
0.000377514
0.000835705
0.00161607
0.136683
0.294953
0.747615
1.3774
0.988857
0.641409
0.333583
0.123697
0.291864
0.117803
0.3251
0.131975
0.169976
0.445028
0.821185
0.633983
0.971841
0.604767
0.980118
1.26749
1.50086
1.75214
1.21502
0.483882
0.139968
0.00112566
0.00079258
0.000834185
0.00159332
0.00122367
0.000678861
0.000802883
0.00164849
0.144651
0.507696
1.32317
1.63878
1.73177
1.63951
1.47315
1.25591
1.38807
1.15401
1.20134
0.866721
0.467846
0.169974
0.177067
0.46973
0.8649
1.1787
1.40198
1.41972
1.55258
1.5364
1.6955
1.76663
1.78029
1.65969
1.07804
0.214349
0.00205461
0.00103924
0.00112892
0.00208972
0.210789
1.14187
1.73698
1.81507
1.7778
1.7083
1.70376
1.56726
1.45048
1.26956
1.03262
0.680296
0.366768
0.120056
0.00162454
0.00162044
0.00171598
0.00150871
0.118051
0.309684
0.59216
0.949158
1.18351
1.3584
1.59649
1.70213
1.78095
1.82038
1.81416
1.23063
0.204257
0.00208107
0.00113931
0.000865075
0.00170318
0.120886
0.461219
1.79647
1.79294
1.59964
1.52705
0.852566
0.772474
0.658379
0.486327
0.289156
0.112886
0.00193221
0.00123942
0.00160565
0.164353
0.178345
0.184648
0.185902
0.122404
0.464447
0.119925
0.452574
0.118403
0.0019729
0.00217919
0.00089804
0.000821375
0.000920603
0.0019846
0.00206124
0.000906383
0.000951846
0.00185019
0.00214369
0.000844483
0.000689688
0.001405
0.00172789
0.000851205
0.000846422
0.00175778
0.00170751
0.000812706
0.000747278
0.000543622
0.00066365
0.000575196
0.000656925
0.000628549
0.000680342
0.00132542
0.00116831
0.00104173
0.00112596
0.00127287
0.0015101
0.00150463
0.0016834
0.00170696
0.00179565
0.00185177
0.00186986
0.00174224
0.00134389
0.00164999
0.00173354
0.00170397
0.00145564
0.00203034
0.00122009
0.00104895
0.00112204
0.00114117
0.000883069
0.00113024
0.00124151
0.00132523
0.00117149
0.00100092
0.0011955
0.00136178
0.00171852
0.00173167
0.00153809
0.00157698
0.00198305
0.00177472
0.00185233
0.00194022
0.00174173
0.00163727
0.00183571
0.00146721
0.00155916
0.0032085
0.0122846
0.0197954
0.0325382
0.0376484
0.0346703
0.0203928
0.0139874
0.00525504
0.00111172
0.00118961
0.000814993
0.00114204
0.00141437
0.00152137
0.00140471
0.00103207
0.00128968
0.00154381
0.00104792
0.000900423
0.000939086
0.0010533
0.000964387
0.000760484
0.000699035
0.000954484
0.000992143
0.0010639
0.000974404
0.000780131
0.000874424
0.00103955
0.00111399
0.0009952
0.000939517
0.000792532
0.000548903
0.00101926
0.00113095
0.00125735
0.00120958
0.00123408
0.00138088
0.00149694
0.00153619
0.00109095
0.000915189
0.00121953
0.00147558
0.00164383
0.00163206
0.00693184
0.00267069
0.00143135
0.00103286
0.000954506
0.00093533
0.00102669
0.000757403
0.000878356
0.00098339
0.00102678
0.000966607
0.000933732
0.00082325
0.000944972
0.00100253
0.000980148
0.000921104
0.000765984
0.000854907
0.000867141
0.00095106
0.000903843
0.0007986
0.000833006
0.000897101
0.000950571
0.000915193
0.00104548
0.000810671
0.00104824
0.00103666
0.00100304
0.00113844
0.0009704
0.0011768
0.000882652
0.000821743
0.00122701
0.000848105
0.000786883
0.00134014
0.000872772
0.000820193
0.00154318
0.00092717
0.000826678
0.00192342
0.000757081
0.00116474
0.00110566
0.0011211
0.00097067
0.00100194
0.00112656
0.00113655
0.00153166
0.00118327
0.000887302
0.000455036
0.000397449
0.000441524
0.000521451
0.000575208
0.000601094
0.000626663
0.000636726
0.000591155
0.000612236
0.000640445
0.000662912
0.000640018
0.000606427
0.000548526
0.000454995
0.000459965
0.00055675
0.000632083
0.000674964
0.000672046
0.000648689
0.000912356
0.00153317
0.00150799
0.00129425
0.00140758
0.00161325
0.00145459
0.00119574
0.00101981
0.00111
0.00122174
0.00118365
0.00110969
0.000997937
0.00115481
0.00115237
0.00117555
0.00117389
0.00119178
0.00101387
0.00111325
0.00119569
0.00124117
0.00122006
0.00114311
0.00118567
0.00135939
0.00145713
0.00134281
0.00142556
0.00151262
0.00139006
0.00105606
0.000668086
0.000663285
0.000643353
0.000555936
0.000458884
0.000453723
0.000553893
0.000645602
0.000655437
0.000666239
0.000630468
0.000546278
0.000443425
0.000426681
0.000526676
0.000594908
0.000641975
0.000624837
0.000568671
0.000485894
0.000395415
0.000401135
0.000490617
0.000585094
0.000617
0.000642427
0.00067645
0.000691229
0.000687728
0.000675593
0.000656535
0.000624742
0.000609245
0.000603342
0.000577432
0.000566442
0.000564454
0.000546111
0.000538829
0.000549681
0.000520695
0.000484672
0.000435423
0.000400564
0.000352731
0.000624083
0.000971558
0.00111374
0.00133411
0.00128879
0.00108283
0.0010728
0.00107067
0.00108879
0.000977719
0.000631167
0.000390503
0.00046159
0.000513147
0.00051949
0.000523363
0.000759402
0.000799271
0.000931228
0.00098398
0.000870551
0.000962199
0.00106362
0.000953911
0.000821968
0.000947723
0.00103896
0.0012072
0.00134929
0.0011946
0.00112956
0.00130803
0.00143515
0.00128065
0.001032
0.000689559
0.00108766
0.00118165
0.000988764
0.000864218
0.00445088
0.000886663
0.00147176
0.000984661
0.000870783
0.000908907
0.000999122
0.000912117
0.000740802
0.000679529
0.000898061
0.000928794
0.000992679
0.00090785
0.000742062
0.00082968
0.000970498
0.00104192
0.000947665
0.00101539
0.000780548
0.000531601
0.000850461
0.000977696
0.00107996
0.00100142
0.00111977
0.00140252
0.00129373
0.00120287
0.0012492
0.000878762
0.000877821
0.000833598
0.000812748
0.00209577
0.000802738
0.000744339
0.0020059
0.000889511
0.000814453
0.00101819
0.000829299
0.000902425
0.000902681
0.000923982
0.00174147
0.00196445
0.0017957
0.00132279
0.00129914
0.00138721
0.00200196
0.00202402
0.0020065
0.00175973
0.00118078
0.00164088
0.00210626
0.00218368
0.00179573
0.00138713
0.00152497
0.00158422
0.00140669
0.00101243
0.000998019
0.000982032
0.000920773
0.000951768
0.000963282
0.000963408
0.000966057
0.00090133
0.000998216
0.00102533
0.00106474
0.000990683
0.000933548
0.00104166
0.00110248
0.0012084
0.00102554
0.00109676
0.000834434
0.00120684
0.0014223
0.00166712
0.00171107
0.00151738
0.00118454
0.000927317
0.0011014
0.00133231
0.00160745
0.00151599
0.00129441
0.00151317
0.00120471
0.00126085
0.0015519
0.00109839
0.00104426
0.00102758
0.00104352
0.000914292
0.00148972
0.00112671
0.00115619
0.00106999
0.00102359
0.00148868
0.000867492
0.00114079
0.00112875
0.00119349
0.00124888
0.00115609
0.00199751
0.000771629
0.00115238
0.00116488
0.00187477
0.00121016
0.00132334
0.00128289
0.00122869
0.00191252
0.00135189
0.00138629
0.00118829
0.00114721
0.00261165
0.00139935
0.00140838
0.00111501
0.00104505
0.00251733
0.00135038
0.001335
0.00103038
0.0010793
0.000416834
0.000508139
0.000604465
0.000602715
0.000665441
0.000629506
0.000686887
0.000636554
0.000655694
0.000590007
0.000595094
0.000580956
0.000568859
0.000541398
0.000532775
0.000531454
0.00052671
0.000516587
0.000503569
0.000481918
0.00045872
0.000406123
0.000649629
0.000647827
0.000639978
0.000638271
0.00194579
0.000874165
0.000444368
0.000382017
0.000627499
0.000618271
0.000965506
0.000956863
0.000959943
0.000618744
0.000626851
0.000387978
0.000459608
0.000512933
0.000508055
0.000516272
0.000506374
0.00045868
0.000384331
0.000382938
0.000616099
0.00061433
0.000380923
0.000454007
0.000457765
0.000493588
0.00050599
0.00051439
0.000501169
0.00050278
0.000450228
0.000380051
0.000613452
0.000619519
0.000382738
0.000452953
0.000504905
0.000512341
0.000505291
0.000790114
0.000974218
0.00103427
0.00113668
0.00112067
0.000948016
0.000974133
0.00104984
0.00116679
0.00115161
0.0011525
0.0011765
0.00104815
0.000837582
0.000762126
0.00097393
0.00101539
0.0011246
0.00183674
0.00136457
0.00104099
0.000991071
0.00107151
0.0010022
0.0010038
0.000948551
0.000881935
0.000934759
0.000915824
0.000726136
0.000778892
0.000896185
0.000928981
0.000846185
0.000914191
0.00081457
0.000717603
0.00086004
0.000911948
0.000909576
0.000837805
0.000664253
0.000865672
0.000892524
0.00093346
0.000817491
0.000717381
0.000853041
0.00084707
0.000892302
0.00191535
0.000825816
0.000863285
0.00187825
0.000747428
0.000707897
0.000658341
0.000739664
0.000735924
0.000803124
0.000800349
0.000839792
0.000852132
0.00187287
0.000782397
0.000840861
0.0018162
0.000732885
0.000646364
0.000653002
0.000720197
0.000676069
0.000733268
0.0006771
0.00196768
0.000773303
0.0008207
0.000869588
0.000876392
0.000935713
0.000903781
0.00209323
0.000812285
0.000868044
0.000729986
0.000671096
0.000717014
0.000660389
0.00214147
0.000834345
0.000917859
0.000917526
0.00093712
0.000922172
0.000497923
0.000452941
0.000381973
0.000662531
0.00210118
0.00086491
0.000864927
0.000684376
0.000692182
0.00085184
0.00186925
0.00166284
0.00173452
0.00176114
0.00167075
0.00158565
0.00161678
0.00167551
0.0016832
0.00172462
0.00172075
0.00183848
0.0018252
0.00219271
0.00257266
0.00156503
0.00231745
0.0051032
0.00653746
0.00847945
0.00169151
0.00122712
0.000954618
0.00097738
0.000878006
0.000956517
0.000919104
0.00112444
0.00117012
0.00112201
0.000886369
0.000903591
0.000933063
0.00101657
0.000984817
0.0012287
0.0016331
0.00815923
0.00675825
0.00374521
0.00245563
0.00141783
0.00148986
0.00150211
0.00152048
0.00102267
0.00528243
0.00312578
0.00174185
0.00383263
0.00247257
0.00322809
0.00300903
0.00365736
0.00360109
0.00140691
0.00140633
0.00140381
0.00140008
0.00139575
0.00139146
0.00139056
0.00140449
0.00153427
0.0025496
0.00313668
0.00320721
0.00343011
0.00355005
0.00395385
0.00427072
0.0048038
0.00555232
0.00603551
0.00573168
0.0069064
0.00607525
0.00697014
0.0069699
0.00778327