/*--------------------------------*- C++ -*----------------------------------*\
| =========                 |                                                 |
| \\      /  F ield         | OpenFOAM: The Open Source CFD Toolbox           |
|  \\    /   O peration     | Version:  v2012                                 |
|   \\  /    A nd           | Website:  www.openfoam.com                      |
|    \\/     M anipulation  |                                                 |
\*---------------------------------------------------------------------------*/
FoamFile
{
    version     2.0;
    format      ascii;
    class       volScalarField;
    location    "35";
    object      nut;
}
// * * * * * * * * * * * * * * * * * * * * * * * * * * * * * * * * * * * * * //

dimensions      [0 2 -1 0 0 0 0];


internalField   nonuniform List<scalar> 
22960
(
0.00391011
0.00214869
0.00182064
0.00159057
0.000943246
0.00138568
0.00157602
0.00187575
0.00180312
0.00158272
0.001449
0.00236951
0.00338034
0.00408934
0.00419883
0.00418715
0.00416191
0.00485325
0.00528873
0.00568095
0.00517316
0.00327244
0.00447568
0.00553485
0.00443492
0.00327762
0.00289202
0.00391168
0.00444505
0.00448662
0.00457361
0.00458779
0.0046483
0.0046823
0.00476791
0.00482521
0.00499586
0.00510572
0.005234
0.00584694
0.00609977
0.00618073
0.00632601
0.00639085
0.00649617
0.00657904
0.00666774
0.00674635
0.00681141
0.0071963
0.00746838
0.00728663
0.0071618
0.00704328
0.00683662
0.00600099
0.00387293
0.00234268
0.00218245
0.00233159
0.00243357
0.00248214
0.00213289
0.0011369
0.00148857
0.00173664
0.00213289
0.0021016
0.00189531
0.00178831
0.00291855
0.00389928
0.00450142
0.00459732
0.00464409
0.00459795
0.00460343
0.00451585
0.00449253
0.00397273
0.00295966
0.00339557
0.00396353
0.00396371
0.00330993
0.0024067
0.00401884
0.004528
0.00457059
0.0050363
0.00552036
0.0058863
0.00593124
0.00576518
0.0047943
0.00353508
0.00216516
0.00217093
0.00227772
0.00220852
0.00188461
0.00147386
0.000918995
0.00153589
0.00174886
0.00158629
0.00144947
0.00128137
0.00139736
0.00247193
0.00455618
0.00524886
0.00525872
0.00518739
0.00513186
0.00510381
0.00511597
0.00528933
0.00545236
0.00558719
0.0058566
0.00611756
0.0061819
0.00541974
0.00327349
0.00186364
0.00167217
0.00178454
0.00184
0.002103
0.00210583
0.00181749
0.00173969
0.00187377
0.0029957
0.00530069
0.00591753
0.00582579
0.00557594
0.00528466
0.00509537
0.00487431
0.00467405
0.00461641
0.00463468
0.0047483
0.00491051
0.00493394
0.00436456
0.00250025
0.00153045
0.00137873
0.00145989
0.00175534
0.00181221
0.00194382
0.00158917
0.000952362
0.00159182
0.00199484
0.00211605
0.00215853
0.00227576
0.00253686
0.00285027
0.00277064
0.00247123
0.00223333
0.00208599
0.00199623
0.00182404
0.00164357
0.00128143
0.000795637
0.00134378
0.00145633
0.00137189
0.00127006
0.00115453
0.00124524
0.00218306
0.00350428
0.00395293
0.00397826
0.00387555
0.00366921
0.00342046
0.0031743
0.00355349
0.00388894
0.00413993
0.00432478
0.00440858
0.00436482
0.00386185
0.00229088
0.00129221
0.00116396
0.00130979
0.00139112
0.0014033
0.00117018
0.000705575
0.00113527
0.00152599
0.00171568
0.0017602
0.00170609
0.00171067
0.00170082
0.00164976
0.00145938
0.00108846
0.000741713
0.000797497
0.000914363
0.000990746
0.00105805
0.00115385
0.00128219
0.00141597
0.00153409
0.00161958
0.00166595
0.00167766
0.00165375
0.00158256
0.00137981
0.00131173
0.00212442
0.00279322
0.00295726
0.00290652
0.00266585
0.00226256
0.00162157
0.00104529
0.00103333
0.00106249
0.000868419
0.000614611
0.000427753
0.000361692
0.000200936
0.000209903
0.000255647
0.000272038
0.000290065
0.000226434
0.000188911
0.000351426
0.000466983
0.000557914
0.000626056
0.000680439
0.000723369
0.000726703
0.000716584
0.000672914
0.000462391
0.000308117
0.000411166
0.000505088
0.000469038
0.000432736
0.000347008
0.000321031
0.000539748
0.000614303
0.000689674
0.000632444
0.000569707
0.000586087
0.000601174
0.00061295
0.000623765
0.000622443
0.000626335
0.000616603
0.000615697
0.000594861
0.000587222
0.000544606
0.000525102
0.000472807
0.000448188
0.000449425
0.000579642
0.000783946
0.00133615
0.00208703
0.00251942
0.00277792
0.0029678
0.00299843
0.00409242
0.00403351
0.00358211
0.00289449
0.00235675
0.00140688
0.000871013
0.000795228
0.000807505
0.00073502
0.000712721
0.000600796
0.000671354
0.000761933
0.000943696
0.000959614
0.000751918
0.000812139
0.00084069
0.000884345
0.000895263
0.000919626
0.000918299
0.000934521
0.000925389
0.000935616
0.000919286
0.000924188
0.000921655
0.000938262
0.000974622
0.00103303
0.000823049
0.00110809
0.00131634
0.00123387
0.00122768
0.00167818
0.00218374
0.00230275
0.00383468
0.00440889
0.00397981
0.00214081
0.0020516
0.0014612
0.000955455
0.000991873
0.00110195
0.00111475
0.00104613
0.00102082
0.00104864
0.00112307
0.00113609
0.00112815
0.00111801
0.00110323
0.00108167
0.00104932
0.000942833
0.000896719
0.00118396
0.00152909
0.00166471
0.00267569
0.00371249
0.00432745
0.00360488
0.00439045
0.00492875
0.00519304
0.00523678
0.0052916
0.00527011
0.00589469
0.00588521
0.00581039
0.00567549
0.00541001
0.00491942
0.00410165
0.00478235
0.00525987
0.00566519
0.0058913
0.00609499
0.00620472
0.00623741
0.00624024
0.00644913
0.0065199
0.00668414
0.00675467
0.00675159
0.00662723
0.00634527
0.00539503
0.00327419
0.00174486
0.00152815
0.00159929
0.0016031
0.00162913
0.00147543
0.000923584
0.0014481
0.00197796
0.00214028
0.0020783
0.00187109
0.00176599
0.00284235
0.00384503
0.00450097
0.00463058
0.00472845
0.00465109
0.0045534
0.0039413
0.0029663
0.0018337
0.00170012
0.00131787
0.00100629
0.00104919
0.00114517
0.000986302
0.000757342
0.000587288
0.000665781
0.000627885
0.000611821
0.000609323
0.000604508
0.000600643
0.000603709
0.000598365
0.000602318
0.000593091
0.000595755
0.000576502
0.000571959
0.000530707
0.000514412
0.000463764
0.000430919
0.000419573
0.000528592
0.000725093
0.0012911
0.00209122
0.00247106
0.00276605
0.00300055
0.00304889
0.00352424
0.00332559
0.00273246
0.00291846
0.00240783
0.00257668
0.00288449
0.0037177
0.00390387
0.00445797
0.00425348
0.00387894
0.00357894
0.00280556
0.00290244
0.00259269
0.00131639
0.00215238
0.00187637
0.0011964
0.00118971
0.000900349
0.00106194
0.00138085
0.00124013
0.00118465
0.00233988
0.0019738
0.00209073
0.00221393
0.00234846
0.00366161
0.00261826
0.0026834
0.00425204
0.00365261
0.00305364
0.00309271
0.00367473
0.0035417
0.00333193
0.00305225
0.00335589
0.0032994
0.00331212
0.00327509
0.00326708
0.00325504
0.00324244
0.00339981
0.00352399
0.00373317
0.00383038
0.00385229
0.00379344
0.00354218
0.00328899
0.00120388
0.000455551
0.000519955
0.000619698
0.000741142
0.000882291
0.000995395
0.00111728
0.00130532
0.00127623
0.00118364
0.00107818
0.000947915
0.00077127
0.00046997
0.000296603
0.0002769
0.000483232
0.000776566
0.00106035
0.00115671
0.0014372
0.00138239
0.00214628
0.0037004
0.0042303
0.00447872
0.00459401
0.00461146
0.00452001
0.00388563
0.00251921
0.00252254
0.00260757
0.0025558
0.00253447
0.00254549
0.00249259
0.0024485
0.00212934
0.00195219
0.00136435
0.00117573
0.00140131
0.00150985
0.00164199
0.0016263
0.00180226
0.00170277
0.00174589
0.00167474
0.00149845
0.00137141
0.00226084
0.00323806
0.00395442
0.00409783
0.00416746
0.00402108
0.00384364
0.00321336
0.00237236
0.00143148
0.00130426
0.00099853
0.000751579
0.000770589
0.000828659
0.000701569
0.000527962
0.000399145
0.000351879
0.000206447
0.000218337
0.000266393
0.000275935
0.000283055
0.000226441
0.000210461
0.000422563
0.000553241
0.000641714
0.000707929
0.000765944
0.000812862
0.00081593
0.000806815
0.000755124
0.000464905
0.000305983
0.000405217
0.000490979
0.00046057
0.000428444
0.000345163
0.000319941
0.00052951
0.000480996
0.000532281
0.000606656
0.000647885
0.000686059
0.00069835
0.000702884
0.0007153
0.000792717
0.000918188
0.00119159
0.00166633
0.00191716
0.00223684
0.00224343
0.00217899
0.00208242
0.00193552
0.00176164
0.0015471
0.00125097
0.000733877
0.000483376
0.000489898
0.00138834
0.00142057
0.0015049
0.00199277
0.00215654
0.00184229
0.00292634
0.00329932
0.00483836
0.00435012
0.00430904
0.00446457
0.00451742
0.00444957
0.00398574
0.00389325
0.00433993
0.00440906
0.00434904
0.00418913
0.00470471
0.00460332
0.00322921
0.00337958
0.00193391
0.00197161
0.00232779
0.00221422
0.00195904
0.00198692
0.00174095
0.00161839
0.00152274
0.00160185
0.00156611
0.00191844
0.0020708
0.00227029
0.00234268
0.00232552
0.00235496
0.002427
0.00242428
0.0022093
0.0020233
0.00147667
0.00124575
0.00135196
0.00165579
0.00178278
0.00186365
0.00178212
0.00171921
0.0017086
0.00174819
0.00181235
0.0017532
0.0016882
0.00147169
0.00153894
0.00154111
0.00151389
0.00150674
0.00150667
0.00152287
0.00154376
0.00153163
0.001344
0.00123595
0.00130709
0.00126588
0.00131011
0.0014509
0.00153553
0.00157785
0.00156684
0.00159451
0.0015808
0.00157919
0.00152241
0.00148129
0.00153521
0.00157027
0.00165235
0.00169939
0.00163644
0.0019493
0.0019137
0.00219778
0.00227275
0.00215154
0.00185773
0.00166137
0.00307959
0.00293449
0.00291641
0.00182403
0.00188043
0.00220796
0.00206545
0.00201605
0.00178224
0.00160805
0.00157395
0.0016037
0.00159545
0.00159277
0.00155773
0.00155216
0.00152028
0.00146885
0.00137957
0.0013943
0.00138063
0.00135783
0.00124022
0.00111537
0.00108581
0.000995288
0.00126073
0.00134751
0.0013001
0.00133655
0.00154598
0.00145196
0.00135704
0.002551
0.00168955
0.00113384
0.00113557
0.00113594
0.00113643
0.0011335
0.00112611
0.00110891
0.00107654
0.00102474
0.00089369
0.00143578
0.00231703
0.00284452
0.00354496
0.00404712
0.00413642
0.00480824
0.00479164
0.00484098
0.00487907
0.00490266
0.00489297
0.00479819
0.00413755
0.00321663
0.00286907
0.00261148
0.00280574
0.00303347
0.00316972
0.00196097
0.00213094
0.00218182
0.00228024
0.00259788
0.00310881
0.00326778
0.00299039
0.00280892
0.00266328
0.00252108
0.0022215
0.0026134
0.00284413
0.00290992
0.00293248
0.00316672
0.0038531
0.00399332
0.003853
0.00345329
0.00342941
0.00335144
0.00339407
0.00339127
0.00337816
0.00358175
0.00461431
0.00483429
0.00458532
0.00459808
0.00485115
0.00461267
0.0042033
0.0042348
0.00227056
0.00060612
0.00251475
0.00310789
0.0043463
0.00390361
0.00312869
0.00271392
0.00369872
0.00354339
0.00443973
0.00454005
0.00401866
0.00450604
0.00446834
0.00472878
0.00492765
0.00430501
0.00394813
0.00411192
0.00430018
0.00436095
0.00416531
0.00437145
0.00432084
0.0045304
0.00455596
0.00391609
0.00474561
0.00357031
0.00305623
0.00495684
0.00564562
0.00635474
0.0070841
0.0076205
0.00813201
0.00868267
0.0092765
0.00954127
0.00955305
0.00900931
0.00833318
0.00776612
0.00729895
0.00691779
0.00662469
0.00639869
0.00615466
0.00605911
0.00583759
0.00543095
0.00582299
0.00612537
0.00635894
0.00657147
0.00675121
0.00688894
0.00704191
0.00762748
0.00764144
0.0076217
0.00750405
0.00732934
0.00708971
0.00672792
0.00576971
0.00341556
0.00201453
0.00182391
0.00187596
0.00208492
0.00204508
0.00206055
0.00173918
0.00099004
0.00125975
0.00190699
0.00223894
0.00221892
0.00223258
0.00231576
0.0020647
0.00359871
0.00370564
0.00584913
0.00688757
0.00732998
0.00768421
0.00802419
0.00834583
0.00857655
0.00869771
0.00776005
0.00739131
0.00713883
0.00688744
0.00664677
0.00641395
0.00616029
0.00633739
0.00656196
0.00679848
0.00711321
0.00751788
0.00805896
0.00879746
0.00993149
0.00956938
0.00894956
0.00838069
0.00788421
0.0074414
0.00697147
0.00627789
0.00562246
0.00360749
0.00368765
0.00198648
0.00212767
0.00234187
0.00233791
0.00233233
0.00228865
0.00194851
0.00148138
0.00175002
0.00164698
0.00289113
0.00321941
0.00352308
0.00361158
0.00211228
0.00211743
0.00217711
0.00229334
0.00221474
0.00219539
0.00313381
0.00312932
0.00316661
0.00325805
0.00334568
0.00245671
0.00271406
0.0034731
0.00340609
0.0029062
0.00280437
0.00293689
0.00288004
0.00354658
0.00346709
0.0033197
0.00332584
0.00251469
0.00273791
0.00341725
0.00329481
0.00262078
0.00238248
0.00265587
0.000997032
0.00188499
0.00155415
0.00262685
0.00326009
0.00350399
0.0041302
0.00400362
0.00393149
0.0038597
0.00318969
0.00294484
0.00270786
0.00378165
0.00373187
0.0031001
0.00317252
0.00357616
0.00331773
0.004111
0.00418964
0.00394
0.00374753
0.00247136
0.00370313
0.00381807
0.00391554
0.00371104
0.00332063
0.00294066
0.00271671
0.00327396
0.00326092
0.00325677
0.00277707
0.00232706
0.00186159
0.00263514
0.00285178
0.00342525
0.00329255
0.0031503
0.00242174
0.00249732
0.00180729
0.00203996
0.00214233
0.00198199
0.00168199
0.00294745
0.00452868
0.00513431
0.00519788
0.0052006
0.00516219
0.00506089
0.00441421
0.00282414
0.00278331
0.00285667
0.0028379
0.00284626
0.00284604
0.00278102
0.00285815
0.00281807
0.00285242
0.00286055
0.00288556
0.00292922
0.00294318
0.0030057
0.00466615
0.00445894
0.00452587
0.00451514
0.00415961
0.00429686
0.00435139
0.00429959
0.00408151
0.00384274
0.00373105
0.00418355
0.00422908
0.00423821
0.00427355
0.00431116
0.00426476
0.0041567
0.00416541
0.0040962
0.00437182
0.00464516
0.00473234
0.0046529
0.0044851
0.00443485
0.00438645
0.00470639
0.00441256
0.00445043
0.00497415
0.00507436
0.00511394
0.00510528
0.00501664
0.00451369
0.00285635
0.00160114
0.00189117
0.00204631
0.00204571
0.00190394
0.00179805
0.00190357
0.00193563
0.00183126
0.00156266
0.00291293
0.00290259
0.00449136
0.00499503
0.00508833
0.00509261
0.00504505
0.00493974
0.00497615
0.00506822
0.00512781
0.00514977
0.00510844
0.00492593
0.00479501
0.00290352
0.00295006
0.00143506
0.0015348
0.00177335
0.00186146
0.0018773
0.00178649
0.00157979
0.00166871
0.0016239
0.00157681
0.00293997
0.00298779
0.00269074
0.00276065
0.00174146
0.00267063
0.00347445
0.0035827
0.00370967
0.00287767
0.00332209
0.00248189
0.00253916
0.00330661
0.00328453
0.00313534
0.00325541
0.0034135
0.00354046
0.0033077
0.00332727
0.0048012
0.00356169
0.00361494
0.00335956
0.00367138
0.00369106
0.00363399
0.00341392
0.00538625
0.00427627
0.0039198
0.00376818
0.00425088
0.0042273
0.00406848
0.00275991
0.00298787
0.0030857
0.00315631
0.00357954
0.00353145
0.00421532
0.00429418
0.00399457
0.003665
0.00355679
0.0031124
0.00301641
0.0041433
0.00471364
0.0047474
0.00321123
0.00374522
0.00473527
0.00474859
0.00489548
0.00502541
0.0049942
0.00300969
0.00288972
0.00280143
0.00263014
0.00244293
0.0027416
0.00303915
0.0033256
0.00345073
0.00379233
0.00412797
0.00450528
0.00456345
0.00429374
0.00476793
0.00471374
0.00466481
0.00461559
0.00459302
0.00393282
0.00512539
0.00491834
0.00465504
0.00427995
0.00272266
0.0016959
0.00196505
0.00219583
0.00211673
0.00315669
0.00390632
0.00315718
0.00410694
0.00414679
0.00428535
0.00385091
0.00368923
0.0040857
0.00454052
0.00439023
0.00439568
0.00513851
0.00433624
0.00437275
0.00460189
0.00449372
0.00491022
0.00445597
0.00422709
0.00447767
0.00472831
0.00433668
0.0040326
0.00431517
0.00445581
0.00387755
0.00367492
0.00325932
0.00256856
0.00281583
0.00300313
0.00291204
0.0032401
0.00391188
0.00442037
0.00339123
0.00428273
0.00428071
0.00423693
0.00419742
0.00459392
0.00514053
0.00496617
0.00522931
0.00515759
0.00510946
0.00482651
0.004683
0.00436821
0.00465236
0.0047632
0.0047404
0.00455906
0.0043175
0.00464117
0.00427767
0.00370744
0.00383812
0.00439006
0.00456861
0.0041043
0.00418546
0.00463747
0.00505609
0.00489174
0.00445135
0.00409001
0.00446355
0.0045802
0.00409831
0.00390743
0.00346461
0.00361269
0.0042156
0.00442424
0.00387681
0.00386772
0.00383334
0.00377226
0.00440441
0.00471652
0.00461566
0.00476823
0.00491834
0.00506788
0.00501482
0.00496059
0.00493834
0.00505338
0.00497495
0.00501109
0.00493599
0.00468201
0.00480269
0.00459289
0.00482535
0.00403101
0.00471851
0.00491433
0.00439315
0.00494252
0.00495218
0.00491313
0.00515925
0.00371175
0.0036984
0.00342055
0.00365963
0.00448127
0.00540826
0.00484935
0.00480691
0.00415653
0.00430111
0.00488018
0.00486556
0.00475419
0.00452037
0.00569679
0.00605313
0.00503593
0.00594763
0.00553977
0.00531045
0.00523024
0.00521117
0.00515891
0.00508266
0.0049949
0.00490582
0.00482278
0.00476216
0.00471209
0.00442196
0.00467208
0.0048287
0.00462868
0.00434711
0.00413379
0.00411948
0.00419081
0.00421407
0.0041829
0.00415711
0.00417554
0.0041825
0.0040819
0.00389482
0.0036339
0.00368686
0.00367515
0.0036706
0.00364787
0.00369898
0.00402792
0.00433484
0.00459568
0.00463683
0.00459027
0.00443341
0.00421569
0.00428848
0.00448009
0.00479221
0.00499543
0.00510155
0.00519722
0.00528483
0.00543974
0.00576432
0.00624081
0.00639321
0.00566168
0.00498758
0.00483468
0.00464471
0.00449321
0.00425011
0.00382784
0.0035311
0.0040343
0.00394892
0.00457094
0.00477236
0.00485425
0.00482263
0.00441267
0.00308386
0.00315709
0.00307618
0.00271203
0.00239719
0.002842
0.00289321
0.00322609
0.00324762
0.00302612
0.00292985
0.00270721
0.00295732
0.00320918
0.00318055
0.00316313
0.00304733
0.00291667
0.00281314
0.00268139
0.00261047
0.00252702
0.00249361
0.00244885
0.00243209
0.0023815
0.00376869
0.0042839
0.00418649
0.00393792
0.00360933
0.00381702
0.00395942
0.00357892
0.00227647
0.00234497
0.00229643
0.00235596
0.00230949
0.00230311
0.00230748
0.0023003
0.00230171
0.00228902
0.00229804
0.00230338
0.00237024
0.00235206
0.0025244
0.00284436
0.00140727
0.00149643
0.00148613
0.00146668
0.00142299
0.00140632
0.00140264
0.00139785
0.00139967
0.00140218
0.00141993
0.00141628
0.00138113
0.00126778
0.00135051
0.00227312
0.00224669
0.00352966
0.00222063
0.00132446
0.00134502
0.00155313
0.00154343
0.00160007
0.00156307
0.00143758
0.00139756
0.00139838
0.00140338
0.00140861
0.00146118
0.00165069
0.00171921
0.00174135
0.00153507
0.00156721
0.00182772
0.00170817
0.0014603
0.00119307
0.00106696
0.00104737
0.00104804
0.00104739
0.0010444
0.00104002
0.00103474
0.00102813
0.00102092
0.00103504
0.00115041
0.00138474
0.00158094
0.00144063
0.00151817
0.00146336
0.00127769
0.00213731
0.00334411
0.00208716
0.00123394
0.00140507
0.00129781
0.00135477
0.00116034
0.00119928
0.00132328
0.00114227
0.0010556
0.000938
0.00088835
0.000914527
0.000923197
0.000932118
0.000939338
0.000943825
0.000946131
0.000926599
0.000982143
0.0011093
0.00121629
0.00142801
0.00158558
0.00132858
0.00109597
0.000988701
0.000886789
0.000621556
0.000613887
0.000605553
0.000604666
0.000614712
0.000624179
0.000626564
0.000627226
0.000622205
0.000615248
0.000604413
0.000568503
0.000568128
0.000582473
0.000599386
0.000601583
0.000610984
0.000621844
0.000628477
0.000634841
0.000632141
0.000630106
0.000633891
0.000639972
0.00064026
0.000635018
0.000632734
0.000628578
0.000626871
0.000619809
0.000613218
0.000604566
0.000599504
0.000594876
0.000589403
0.000579136
0.000571976
0.000561728
0.000823069
0.000908309
0.000988426
0.00117329
0.00137813
0.00150522
0.00133213
0.00225452
0.00356449
0.00221137
0.00129134
0.00144577
0.00131669
0.00110504
0.00109596
0.00111089
0.00114214
0.000963707
0.000977718
0.00101349
0.000923988
0.000830874
0.000565636
0.000570808
0.000573754
0.000582494
0.000585377
0.000587676
0.000590125
0.000596423
0.00060032
0.000604274
0.000602477
0.000603396
0.000603759
0.00060747
0.000606766
0.000600812
0.000596917
0.000604131
0.000340498
0.000373696
0.00038642
0.000385622
0.000385617
0.000381578
0.000386934
0.00038186
0.000379291
0.00037083
0.000364084
0.000360232
0.000359404
0.00035635
0.000346929
0.000317825
0.000354549
0.00056843
0.000567933
0.000352354
0.000312222
0.000549992
0.000856091
0.000553294
0.000337661
0.000391408
0.000417819
0.000380977
0.000421726
0.000398311
0.000415423
0.000429439
0.00043561
0.000443727
0.000451793
0.000455711
0.000461278
0.00047953
0.000475463
0.000481197
0.000479828
0.000472001
0.000448447
0.000396379
0.000439895
0.000489959
0.000509552
0.000517274
0.000476294
0.000477275
0.000499963
0.000492568
0.000488144
0.000482859
0.000455551
0.000438323
0.000459229
0.000438662
0.000458064
0.000437267
0.000454058
0.00043144
0.000403512
0.000341676
0.00055423
0.000862061
0.000553928
0.000341642
0.000404047
0.000442082
0.000466763
0.000467224
0.000473217
0.000470936
0.000481465
0.00046897
0.000426043
0.00045915
0.000181709
0.000324505
0.000256185
0.000322181
0.000266417
0.000366131
0.000443215
0.000437512
0.000445219
0.00037669
0.000355747
0.000348453
0.000356434
0.000365196
0.000355357
0.000391788
0.000397658
0.000496276
0.000495493
0.000504957
0.000527054
0.000441814
0.000454638
0.000417816
0.000461356
0.000447369
0.0004552
0.000460707
0.000465904
0.000554682
0.000565293
0.000579767
0.000488605
0.000345104
0.000424198
0.00031761
0.000401466
0.000211593
0.000488498
0.000488221
0.000467803
0.000490371
0.000495083
0.000496268
0.000497259
0.00047696
0.000618895
0.000590934
0.000672895
0.000241989
0.000483907
0.000332342
0.000456804
0.000341176
0.000444683
0.00058085
0.000613547
0.000608782
0.000516185
0.000563419
0.00154813
0.110656
0.00118174
0.00144011
0.00146194
0.00143246
0.00109536
0.000810412
0.00109458
0.000693551
0.00113811
0.000500111
0.00166726
0.00147037
0.00162757
0.00172089
0.000759679
0.00080795
0.000836234
0.000878523
0.000758284
0.000736834
0.000887255
0.000918803
0.0916782
0.112244
0.118495
0.113453
0.086613
0.110301
0.297245
0.470031
0.55677
0.162772
0.00122657
0.00130842
0.000855951
0.000724132
0.000326621
0.000723077
0.00139808
0.118238
0.255099
0.64659
1.19131
0.855266
0.554769
0.288525
0.107023
0.252444
0.101924
0.28119
0.114184
0.147045
0.384888
0.710181
0.548325
0.840493
0.523063
0.847675
1.09618
1.29799
1.5153
1.05086
0.418496
0.121076
0.000973765
0.000685731
0.000721749
0.00137834
0.00105855
0.000587339
0.000694659
0.00142606
0.125124
0.439052
1.14421
1.41716
1.49757
1.4178
1.27396
1.08613
1.20034
0.997971
1.03882
0.749499
0.404589
0.14703
0.153146
0.406172
0.747852
1.01915
1.21218
1.22762
1.34247
1.32857
1.46612
1.52761
1.5394
1.43511
0.932188
0.185372
0.00177722
0.000899141
0.00097671
0.00180743
0.182268
0.987301
1.50182
1.56936
1.53715
1.47708
1.47304
1.35505
1.25398
1.09758
0.892756
0.588156
0.317086
0.103795
0.0014042
0.00140042
0.00148278
0.00130356
0.102038
0.267676
0.511873
0.820489
1.02308
1.17425
1.38019
1.47149
1.53975
1.57382
1.5684
1.06392
0.176584
0.0017991
0.000985114
0.000747416
0.00147151
0.104491
0.398666
1.55295
1.54996
1.38271
1.32001
0.736908
0.667698
0.569073
0.420339
0.249888
0.0975604
0.00166943
0.0010708
0.00138721
0.142038
0.154141
0.159592
0.160673
0.105795
0.401405
0.103659
0.391176
0.102348
0.00170444
0.00188262
0.000775847
0.000709619
0.000795349
0.00171452
0.00178085
0.000783108
0.000822371
0.00159839
0.00185217
0.000729674
0.000595875
0.00121382
0.00149283
0.000735435
0.000731314
0.00151867
0.00147524
0.000702191
0.000645668
0.000469708
0.000573451
0.000497035
0.000567702
0.00054324
0.000588161
0.00114569
0.00100976
0.000900374
0.000973231
0.00110014
0.00130524
0.00130065
0.00145519
0.00147543
0.00155205
0.00160053
0.00161628
0.00150598
0.00116163
0.00142614
0.00149843
0.00147266
0.00125812
0.00175462
0.00105441
0.000906542
0.000969625
0.000986165
0.000763169
0.000976788
0.00107292
0.00114525
0.00101236
0.000865003
0.00103318
0.00117687
0.00148514
0.0014964
0.0013291
0.00136282
0.00171374
0.00153371
0.00160065
0.00167657
0.00150502
0.00141488
0.00158643
0.00126796
0.00134733
0.0027727
0.0106188
0.0171153
0.0281369
0.0325597
0.0299869
0.0176394
0.0120998
0.00454638
0.000961845
0.00102923
0.000705114
0.000988077
0.00122368
0.00131626
0.00121533
0.000892927
0.0011158
0.00133567
0.000906642
0.000779033
0.000812482
0.000911296
0.000834375
0.000657964
0.000604801
0.000825806
0.000858388
0.000920471
0.000843041
0.000674963
0.000756544
0.000899404
0.000963807
0.000861034
0.00081286
0.000685696
0.000474911
0.00088185
0.000978488
0.00108784
0.00104651
0.00106771
0.00119471
0.00129512
0.00132909
0.000943869
0.000791804
0.00105512
0.00127664
0.00142221
0.00141203
0.00599701
0.00231061
0.00123838
0.00089362
0.000825829
0.000809238
0.00088828
0.000655303
0.000759945
0.000850818
0.000888363
0.000836299
0.000807856
0.000712268
0.00081758
0.00086738
0.000848015
0.00079693
0.000662723
0.000739657
0.000750243
0.000822849
0.000781997
0.000690943
0.000720711
0.000776164
0.000822426
0.000791818
0.000904542
0.000701388
0.000906929
0.000896911
0.000867826
0.000984967
0.000839582
0.00101814
0.000763666
0.000710969
0.00106159
0.000733777
0.00068081
0.00115947
0.00075512
0.00070963
0.00133514
0.000802185
0.000715241
0.00166412
0.000655026
0.00100772
0.000956606
0.00096997
0.000839818
0.000866874
0.000974686
0.000983332
0.00132517
0.00102376
0.000767689
0.000393698
0.000343873
0.000382007
0.00045116
0.000497671
0.000520068
0.000542192
0.0005509
0.000511469
0.000529707
0.000554119
0.000573556
0.000553746
0.000524682
0.000474585
0.000393662
0.000397962
0.000481701
0.000546879
0.000583982
0.000581459
0.000561252
0.000789377
0.00132652
0.00130473
0.00111979
0.00121783
0.00139578
0.0012585
0.00103455
0.000882342
0.000960363
0.00105705
0.00102409
0.000960104
0.000863414
0.000999136
0.000997021
0.00101708
0.00101564
0.00103112
0.000877204
0.00096318
0.0010345
0.00107386
0.00105559
0.000989017
0.00102584
0.00117615
0.00126071
0.0011618
0.00123338
0.0013087
0.00120267
0.000913707
0.000578031
0.000573876
0.00055663
0.000480995
0.000397026
0.000392559
0.000479227
0.000558575
0.000567086
0.000576429
0.00054548
0.000472637
0.000383647
0.000369154
0.000455669
0.000514703
0.000555426
0.000540209
0.000491619
0.000420072
0.000341865
0.000346577
0.00042387
0.000505489
0.000533052
0.000555005
0.000584411
0.000597181
0.000594174
0.000583687
0.000567232
0.000539756
0.000526376
0.000521286
0.000498908
0.00048942
0.000487711
0.00047187
0.000465588
0.000474974
0.000449931
0.000418805
0.000376249
0.000346129
0.000304801
0.000539282
0.000839539
0.0009624
0.00115282
0.00111398
0.000935938
0.000927569
0.000926262
0.000941974
0.000845889
0.000546069
0.000337855
0.00039936
0.00044397
0.000449459
0.00045281
0.000657026
0.000691516
0.000805681
0.00085132
0.000753184
0.000832478
0.000920224
0.000825307
0.000711155
0.000819952
0.000898887
0.00104444
0.00116738
0.00103355
0.000977277
0.00113168
0.00124166
0.001108
0.000892863
0.000596588
0.000941014
0.00102234
0.000855458
0.000747702
0.00385068
0.000767117
0.00127333
0.000851912
0.000753387
0.00078637
0.000864422
0.000789149
0.000640932
0.000587922
0.000776987
0.000803576
0.000858849
0.000785457
0.000642024
0.000717829
0.000839658
0.000901451
0.000819904
0.000878504
0.000675324
0.000459939
0.000735809
0.000845887
0.000934361
0.00086641
0.000968806
0.00121344
0.00111931
0.00104071
0.00108079
0.000760292
0.000759479
0.00072122
0.000703182
0.00181323
0.000694524
0.000643999
0.00173547
0.000769601
0.000704662
0.000880928
0.000717503
0.000780769
0.00078099
0.000799418
0.00150669
0.00169961
0.00155361
0.00114444
0.00112399
0.00120019
0.00173198
0.00175105
0.00173592
0.00152246
0.0010216
0.00141968
0.00182231
0.0018893
0.00155364
0.00120014
0.00131939
0.00137065
0.00121706
0.000875951
0.00086348
0.00084965
0.000796649
0.000823464
0.000833426
0.000833535
0.000835826
0.000779827
0.000863653
0.000887113
0.000921209
0.000857133
0.000807701
0.00090124
0.000953864
0.00104551
0.000887298
0.000948914
0.000721953
0.00104415
0.00123056
0.00144238
0.0014804
0.00131283
0.00102487
0.000802314
0.000952934
0.0011527
0.00139075
0.00131163
0.00111992
0.0013092
0.00104232
0.00109088
0.0013427
0.000950324
0.000903486
0.000889062
0.000902852
0.000791049
0.00128891
0.000974834
0.00100034
0.000925753
0.000885616
0.00128803
0.000750557
0.000987007
0.000976588
0.00103259
0.00108051
0.00100024
0.00172821
0.00066761
0.000997025
0.00100784
0.00162201
0.00104702
0.00114493
0.00110994
0.00106304
0.00165466
0.00116963
0.00119939
0.00102809
0.000992544
0.00225944
0.00121069
0.00121845
0.000964651
0.000903522
0.00217546
0.00116741
0.00115332
0.000890212
0.00093234
0.000360091
0.000438973
0.0005222
0.000520683
0.000574887
0.000543836
0.000593426
0.000549931
0.000566484
0.000509718
0.000514124
0.000501919
0.000491475
0.000467758
0.000460315
0.000459183
0.000455091
0.000446352
0.00043511
0.000416406
0.000396364
0.000350918
0.000561319
0.000559768
0.000552997
0.000551535
0.00168131
0.000755374
0.000383994
0.000330113
0.000542237
0.000534382
0.00083452
0.000827414
0.00083048
0.000535303
0.00054233
0.000335668
0.000397643
0.000443782
0.000439562
0.000446667
0.000438102
0.000396833
0.000332505
0.000331294
0.000533007
0.000531265
0.000329445
0.000392685
0.000396034
0.00042703
0.000437764
0.000444967
0.000433506
0.000434812
0.000389346
0.000328645
0.000530462
0.000535483
0.000330831
0.000391539
0.000436479
0.000442945
0.00043701
0.000683325
0.000842487
0.000894386
0.000982906
0.000969077
0.000819819
0.00084224
0.00090759
0.00100874
0.000995688
0.000996424
0.00101702
0.000906044
0.000724085
0.000658852
0.000841887
0.000877721
0.000972142
0.00158761
0.00118007
0.000900262
0.000857172
0.000926693
0.000866923
0.00086844
0.000820655
0.000763028
0.000808731
0.000792347
0.00062824
0.000673883
0.000775358
0.000803734
0.000732102
0.000790938
0.00070475
0.000620857
0.000744087
0.000788998
0.000786946
0.000724851
0.000574702
0.000748962
0.000772194
0.00080761
0.000707278
0.000620667
0.000738036
0.000732872
0.000772007
0.00165712
0.000714486
0.000746906
0.00162504
0.00064667
0.00061247
0.000569595
0.000639951
0.000636714
0.000694852
0.00069245
0.000726572
0.000737248
0.00162036
0.000676917
0.0007275
0.00157134
0.000634084
0.000559229
0.000564972
0.000623106
0.000584925
0.00063441
0.000585811
0.00170235
0.000669044
0.000710052
0.000752344
0.000758221
0.000809522
0.00078189
0.0018109
0.000702752
0.000751004
0.00063156
0.0005806
0.000620311
0.000571146
0.0018519
0.000721636
0.000793919
0.000793457
0.000810063
0.000796983
0.000430341
0.000391469
0.000330139
0.000572616
0.00181603
0.000747609
0.000747951
0.000591802
0.000598298
0.000736209
0.00161569
0.00143799
0.00150016
0.0015236
0.00144544
0.00137185
0.00139879
0.0014496
0.00145627
0.0014921
0.00148876
0.00159062
0.00157914
0.00189709
0.00222581
0.00135404
0.00200502
0.0044152
0.00565606
0.00733616
0.00146346
0.00106169
0.000825928
0.00084562
0.000759645
0.000827572
0.000795204
0.000972861
0.00101238
0.00097075
0.000766883
0.000781784
0.000807281
0.000879532
0.000852059
0.00106306
0.00141294
0.0070591
0.00584704
0.00324028
0.00212457
0.00122669
0.00128901
0.00129961
0.00131551
0.000884813
0.00457023
0.00270436
0.00150702
0.00331588
0.00213921
0.00279289
0.00260338
0.00316433
0.00311567
0.00121727
0.00121677
0.00121459
0.00121136
0.00120762
0.0012039
0.00120312
0.00121517
0.00132746
0.0022059