/*--------------------------------*- C++ -*----------------------------------*\
| =========                 |                                                 |
| \\      /  F ield         | OpenFOAM: The Open Source CFD Toolbox           |
|  \\    /   O peration     | Version:  v2012                                 |
|   \\  /    A nd           | Website:  www.openfoam.com                      |
|    \\/     M anipulation  |                                                 |
\*---------------------------------------------------------------------------*/
FoamFile
{
    version     2.0;
    format      ascii;
    class       surfaceScalarField;
    location    "150";
    object      phi;
}
// * * * * * * * * * * * * * * * * * * * * * * * * * * * * * * * * * * * * * //

dimensions      [1 0 -1 0 0 0 0];
oriented        oriented;


internalField   nonuniform List<scalar> 
63799
(
0.00326833
-0.00546615
0.00430583
-0.00836536
-0.00580323
0.00882874
-0.00502455
-0.00843578
0.0104992
0.00614246
0.00623848
-0.00781352
-0.00352879
0.00380923
0.00325671
-0.000890601
0.0043226
0.00172698
-0.0022877
0.00548736
0.00294042
-0.00417607
0.00150528
0.0038942
0.00296075
-0.00642938
0.00487488
0.00449271
-0.00591467
0.00427252
0.00537483
-0.00449226
0.00350762
0.00644865
-0.00306915
0.00189113
0.0122342
-0.00514865
-0.000830004
0.0141934
-0.0115954
0.00907989
0.01516
-0.0132025
0.0115423
0.0182331
-0.0123626
0.00851393
0.0178837
-0.00985221
0.00942046
0.012431
-0.00755066
0.0121925
-0.00478945
-0.00746615
0.0239101
-0.019807
-0.0162941
0.0305494
-0.0173349
-0.0301318
0.0269675
-0.00673473
-0.0336213
0.0224686
-0.0148247
0.00773328
-0.0486644
0.0311451
0.00235387
-0.0537869
-0.0224404
0.0270113
-0.0626389
-0.0125224
0.0208224
-0.0442266
-0.033147
0.0143921
-0.0556276
0.0110424
-0.0893116
0.00720743
0.0259204
-0.109192
0.0145543
0.00462799
-0.122834
0.00830489
0.0045673
-0.128954
0.00276871
0.00254844
-0.130453
-0.00118712
0.00183369
-0.129103
-0.00498027
0.00277363
-0.125508
-0.00971504
0.00524316
-0.118673
-0.0164698
0.00878144
-0.105714
-0.0268271
0.0130124
-0.0836685
-0.0392873
0.016446
-0.0512401
-0.0508626
0.0176456
-0.0618428
0.0098553
-0.103258
0.00332844
0.0372846
-0.131707
-0.00059275
0.0282117
-0.15003
-0.00287323
0.0202882
-0.158559
-0.00459145
0.0121928
-0.158246
-0.00731677
0.00603714
-0.149781
-0.0111499
0.00171886
-0.132776
-0.0159698
-0.00200261
-0.106897
-0.0209934
-0.00584798
-0.0703289
-0.0253749
-0.0121502
-0.0414112
-0.0179822
-0.0118852
0.015307
-0.0145511
-0.0431086
0.0818721
-0.0181934
-0.0492984
0.119361
-0.00362567
-0.0347723
0.141618
0.00313267
-0.0262667
0.151164
0.00842224
-0.0188058
0.140837
0.016153
-0.00658954
0.0816964
0.0367988
0.0217201
0.0343697
0.0174828
0.0296239
0.0193138
0.0114429
0.00353543
0.0198432
0.000757369
-0.00134213
0.0196615
-0.00104368
0.0011542
0.0167221
0.0002164
0.00264212
0.0109708
0.000911121
0.00475545
0.00641446
0.000782262
0.0037025
0.00557442
0.000406925
0.000382071
-0.00254311
0.00628924
0.00175681
-0.000674015
-0.00195728
0.00658163
0.000107583
-0.00746225
0.0125073
0.00252358
-0.00855967
0.0176483
0.00213457
-0.00737867
0.0240274
-0.000880012
-0.0056042
0.0573196
-0.0171333
-0.0163559
0.111871
-0.0114884
-0.0436379
0.134199
0.002869
-0.0259165
0.143543
0.00447791
-0.0146283
0.145919
0.00403563
-0.0072239
0.143212
0.00427084
-0.00240352
0.135457
0.00513489
0.00182321
0.120192
0.00683765
0.00764932
0.0983477
0.00611916
0.0150201
0.0613814
0.00747501
0.0289307
0.0500405
0.0109809
0.0801863
0.0141735
-0.0446621
0.0758956
0.0088824
-0.00514358
0.0518412
0.0162551
0.00724763
-0.00144912
0.0533583
-0.000410985
-0.00595395
0.00414492
0.0111466
0.017399
-0.0350601
0.01078
0.0283423
-0.0286807
0.00174773
0.0319302
-0.0236756
0.00156807
0.0309014
-0.0315184
0.014726
0.0343062
-0.0483029
0.0299007
0.0397221
-0.0557092
0.0429129
0.0422596
-0.0560777
0.0457071
0.043736
-0.0472492
0.0247441
0.0467367
-0.0263477
0.0126151
0.0210524
-0.00912026
0.0122777
0.00610786
-0.00587554
0.0121946
0.00565424
-0.00567408
0.0109029
0.00630889
-0.00512753
0.00710093
0.00538956
-0.00168654
0.00195479
0.00505802
0.00307452
0.00347571
-0.00466689
0.00269761
0.00277207
-0.00244617
0.00182312
0.00411545
-0.00331245
0.0026127
0.00469344
-0.00556769
0.00217204
0.00430821
-0.00394832
0.00181902
0.00397058
-0.00368857
0.00212045
0.00198828
-0.00234501
0.00329391
0.00186251
-0.00311353
-0.00183526
0.0105679
-0.00565852
-0.0122872
0.0343293
-0.0244982
-0.0119857
0.0328443
-0.033908
-0.0123053
0.0346871
-0.0352045
-0.0143506
0.0372004
-0.0360308
-0.0132558
0.0365455
-0.0385465
-0.0109879
0.0369158
-0.0401057
-0.00697297
0.0374288
-0.0423754
0.00177614
0.0430481
-0.0527293
0.00626661
0.0486368
-0.0540496
0.00481947
0.0516333
-0.0510929
0.00320848
0.0526029
-0.0518681
0.00892262
0.0484178
-0.0549692
0.0190374
0.0457592
-0.0566364
0.0164872
0.0479809
-0.0460515
0.00551652
0.0187062
-0.00795497
0.00371482
0.00646718
-0.00474288
0.00556966
0.00258033
-0.00449005
0.00733748
0.00394305
-0.00578081
0.00454214
-0.00509642
-0.00810166
0.00949789
-0.00537546
-0.00563002
0.00764032
-0.00624478
-0.00119292
-0.00187846
0.00736941
-0.00212396
-0.00591348
0.0121913
0.0069927
-0.00601459
-0.00543668
0.0162601
0.00179706
-0.00064241
0.0748568
0.0149235
-0.04758
0.0175889
0.0714084
-0.0447917
0.0261284
0.0711907
-0.0322367
0.0226474
0.0736602
-0.0185163
0.0152487
0.069754
-0.0116788
0.0105756
0.063504
-0.0111631
0.010301
0.0533287
-0.0109816
0.00730911
0.0413882
-0.00194298
0.00249459
0.0406881
7.38055e-05
-0.00474121
0.0441364
-0.00131123
-0.014187
0.0477536
-0.00204689
-0.017261
0.0450825
-0.00824538
-0.0153757
0.0467137
-0.0166657
-0.00982737
0.0527714
-0.00498292
-0.0199942
-0.00601137
0.0106662
-0.00408673
-0.00753966
0.00901629
-0.00516166
-0.00244005
-0.00455129
-0.00115487
-0.00168037
-0.000904464
-0.00266419
0.00860577
-0.00372817
-0.00305321
0.00859637
-0.0039868
-0.00173658
0.00890118
-0.00561594
-0.00263198
0.00695065
-0.00200897
-0.00263981
0.00474574
-0.00201216
-0.00218493
0.00648918
-0.00353112
0.0101597
-0.00738268
0.0147604
-0.00776093
0.00305082
0.0190979
-0.00787659
0.00341548
0.0238926
-0.00830826
0.00337754
0.0341176
-0.012435
0.00203152
0.046285
-0.0189702
0.00651671
0.0342589
-9.72758e-05
0.0118388
0.0248836
-0.000822485
0.0100181
0.0208928
-0.00189131
0.00574599
0.0172726
-0.00101302
0.00450966
0.01304
0.00034624
0.00377694
0.00771867
0.0018396
0.00338566
0.0036087
0.00402186
0.00286887
0.00615878
-0.00549037
0.00277398
0.0039392
-0.0038953
0.00558632
0.00167902
-0.00456284
0.00753079
0.00237836
-0.00440746
0.00873203
0.00288471
-0.00416667
0.00852936
0.00337914
-0.00324742
0.00814262
0.00301251
-0.002681
0.0150893
0.000943921
-0.0079681
0.0391716
-0.00674908
-0.0175524
0.069117
0.0131209
-0.0436834
0.0766097
0.0246284
-0.0328768
0.0746753
0.0291562
-0.0280485
0.0666178
0.0308356
-0.0236341
0.0532416
0.0304413
-0.0179335
0.0259175
0.0285164
-0.00205428
-0.0150472
0.0254825
0.0146254
-0.0398055
0.0320541
-0.00815295
-0.0497585
0.0370993
-0.0280083
-0.0554925
0.0393057
-0.0344388
-0.0569394
0.0387385
-0.0381442
-0.0527168
0.0361274
-0.0411716
-0.0420563
0.0325101
-0.0439215
-0.0208017
0.0266054
-0.0484753
-0.00716622
0.00280104
-0.0166555
-0.00346578
0.00279846
-0.00657645
-0.00402789
0.00360316
-0.00309637
-0.003737
0.00472815
-0.00508977
-0.00221389
0.00444844
-0.00605077
-0.00052545
0.00436845
-0.00613703
0.000621801
0.00190955
-0.0031204
0.000640894
0.00275198
-0.00281877
-0.000624641
0.00540267
-0.0042076
0.00561629
-0.00632761
0.00956603
0.00211886
-0.00616785
0.0122202
0.00385366
-0.0066157
0.0145217
0.00373471
-0.0061427
0.0162248
0.00398134
-0.00578755
0.0172763
0.00420484
-0.00535672
0.0170038
0.00454297
-0.0043645
0.011959
0.00626679
-0.00129915
0.00554599
-0.000124682
0.00650752
0.00539768
-0.000773211
0.000908029
0.00645771
-0.000854259
-0.000220437
0.00748672
-0.000932615
-0.000111919
0.00831885
-0.000655339
-0.000192532
0.00882498
-2.79085e-05
-0.000493678
0.00891993
0.000615884
-0.000726253
0.00873665
0.00106364
-0.000895715
0.00841196
0.00126318
-0.00095387
0.008064
0.00128589
-0.000953358
0.00771876
0.0012287
-0.000898911
0.00738781
0.00115261
-0.000837186
0.00704231
0.00109052
-0.000760481
0.00669138
0.0010472
-0.000711876
0.00616008
0.000963583
-0.000447479
0.00543123
0.000737104
-2.24696e-05
0.00579919
0.000611091
-0.000991843
0.0123724
-0.000822411
-0.00577895
0.0175479
-0.00319846
-0.0020459
0.0184051
-0.000906227
-3.33341e-05
0.0177721
-0.00020308
0.00075372
0.0156353
0.000378837
0.00167509
0.00959503
0.00213075
0.00384047
0.00391446
0.00389881
0.00175367
0.00323044
0.000283785
0.000387597
0.00300827
-0.000330425
0.000538947
0.0023546
5.06089e-05
0.000589499
0.000997823
0.000419814
0.000925818
0.000364313
0.000429382
0.000198667
0.00014522
0.000215986
9.494e-05
0.000127166
-7.85813e-05
7.46558e-05
6.35433e-05
-4.39764e-05
0.000125761
2.50386e-05
-7.67919e-05
0.000213454
2.94525e-05
-0.00011805
0.000328428
3.59798e-05
-0.000152136
0.000547029
4.667e-05
-0.000266537
0.000504352
-1.09961e-05
5.26419e-05
0.000736761
-0.000353899
0.000120728
0.00121259
-0.000731028
0.000254003
0.00187432
-0.000934241
0.000271276
0.00253237
-0.00104668
0.000387378
0.00297562
-0.000960046
0.000515555
0.00308336
-0.000756507
0.000647505
0.00300963
-0.000632175
0.000704649
0.00260014
-0.000289926
0.00069817
0.00166774
0.000231067
0.000700081
0.000147141
0.000794058
0.000725309
-0.00144314
0.00138879
0.000200303
-0.00223123
0.000625148
0.000162176
-0.00215689
1.38956e-05
-8.92536e-05
-0.0013381
-0.000796195
-2.3853e-05
-0.000811969
-0.000547812
2.0513e-05
-0.000444515
-0.000404391
3.60411e-05
-0.000248874
-0.000262267
6.59843e-05
-0.000303387
-0.000147219
0.000201023
-0.000469427
-0.000129179
0.000293546
0.000366048
-0.000838539
0.000246814
-0.000614064
0.000729761
3.22098e-05
-0.000402565
0.000614061
-0.000275902
-0.00024107
0.000546064
-0.000549149
-0.000255881
0.000526141
-0.000716449
-0.0003462
0.000510509
-0.000859007
-0.00034282
0.00048249
-0.000876895
-0.000459412
0.000474467
-0.000921646
-0.000411351
0.000453334
-0.00087325
-0.000506162
0.000455047
-0.000877014
-0.000440892
0.000441959
-0.000805792
-0.000520709
0.000446851
-0.000795537
-0.000443591
0.000430676
-0.000717851
-0.000503628
0.000423412
-0.000698417
-0.000409215
0.000387176
-0.000612966
-0.000458848
0.000371049
-0.000528576
-0.000420723
0.000333819
-0.000545408
-0.000489316
0.000503776
-0.00130389
-0.000300627
0.00105386
-0.0014729
-0.000585771
0.000748283
-0.0026606
-0.000354605
0.00152959
-0.0048118
-0.00410236
0.00621806
-0.0107184
-0.0174653
0.0232468
-0.0157199
-0.022025
0.0268561
-0.0174402
-0.0349854
0.0363907
-0.0152348
-0.0461475
0.0435992
-0.0504783
0.0459129
0.0156341
-0.0811908
0.0217577
0.0247603
-0.0820163
0.0261808
0.0217389
-0.0748625
0.00546795
0.0367637
0.0125752
-0.0233042
0.0102841
0.00489422
-0.0249218
0.0123423
0.00261765
0.00240388
0.00324826
-0.00488809
0.00280428
0.00165914
-0.00369151
0.00161304
0.0019291
0.000515778
0.00107636
0.00026402
0.000736361
-4.26785e-05
0.000380751
0.000347264
8.72336e-05
-0.000175322
3.24625e-05
-0.00115572
0.000816468
0.000162317
-0.00170142
0.000500787
0.00218715
-0.00403034
0.00178655
0.000963133
0.0013519
-0.00436576
0.00206995
0.00215091
0.000814533
0.000540391
0.00114795
0.000555759
0.0009657
-0.000803672
0.000572874
0.00134804
-0.00145299
0.000563238
0.00108183
-0.000778095
0.000596913
0.0014477
-0.00147097
0.000580559
0.001122
-0.000735608
0.000616575
0.00144577
-0.00143908
0.000605253
0.00105834
-0.000685357
0.000657501
0.00125844
-0.00132941
0.000665893
0.000811604
-0.00063456
0.000734525
0.000794733
-0.00109739
0.000763962
0.000440168
-0.000746276
0.000840836
0.000349499
-0.00101933
0.000864801
9.36119e-05
-0.00107158
0.000920699
-0.00024334
-0.00125038
0.000968529
-0.00201283
0.000925609
-0.00435073
0.000589188
0.00173796
-0.00517269
-0.000179881
0.000989202
-0.00518566
-0.000233229
0.000233382
-0.0059129
-0.000269351
0.000985849
-0.0136472
0.000891321
0.00681813
-0.0203637
0.00587278
0.000792073
-0.0245204
0.00234504
0.00175016
-0.0475062
0.00662097
0.0162696
-0.0492427
0.0043605
-0.00282843
-0.0274202
-0.00405116
-0.0178652
-0.0243845
-0.00140059
-0.00169507
-0.018505
-0.00494639
-0.00098371
-0.00852503
-0.00124776
-0.0087568
-0.00794323
0.000381108
-0.000973697
-0.00904294
0.000208652
0.000877963
-0.00943725
8.4797e-05
0.000296036
-0.00900575
-0.000551979
0.000106958
-0.00872405
-0.000483436
0.000189061
-0.00862756
-0.00033348
0.000224198
-0.00882827
-0.000123896
0.000311366
-0.00938863
7.27537e-05
0.000473157
-0.00969435
-0.000359253
0.000649679
-0.00958049
-0.000906086
0.000776425
-0.00910971
-0.00137346
0.000886814
-0.00841094
-0.00168167
0.000967138
-0.00777984
-0.0016398
0.000992867
-0.0070234
-0.0015352
0.000763403
-0.00605023
-0.00130683
0.000318928
-0.00617165
-0.00119928
0.00130738
-0.0134502
-0.000692872
0.00794045
-0.0184436
0.00810251
-0.00318496
-0.0208264
0.00539901
-0.00310327
-0.0418818
0.0127228
0.00816044
-0.0543333
0.0250017
-0.0129981
-0.0357212
0.00929034
-0.0284563
-0.0331665
-0.00312406
-0.0513692
-0.0254697
0.0429902
-0.0592277
-0.0391007
0.0462031
-0.0571808
-0.0501903
0.0473204
-0.0453279
-0.0578747
0.0451851
-0.0278595
-0.0613219
0.0430476
-0.06245
0.0436548
0.0193966
-0.104267
0.0249256
0.0383499
-0.10333
0.0221964
0.052109
-0.0969002
0.0243785
0.0547351
-0.0838006
0.0301041
0.0461016
-0.0653755
0.0340815
0.0261569
-0.0430225
0.0367488
-0.0144337
0.0367896
-0.0290892
-0.0292108
0.0431064
-0.0401755
-0.0373901
0.0476037
-0.0455411
-0.0459332
0.0503897
-0.0439254
-0.0551717
0.0526031
-0.0365334
-0.0630093
0.0546655
-0.0244374
-0.0696821
0.05664
-0.00659247
-0.0745769
0.0558104
0.0111668
-0.0718454
0.0531925
0.0100855
-0.0547233
0.0549324
0.00462134
-0.0577814
0.0623807
0.00973824
-0.068745
0.0627623
0.018268
-0.0708531
0.0614528
0.0277351
-0.0678097
0.0574854
0.0346953
-0.0613734
0.0535859
0.0346909
-0.0514025
0.0506507
0.0147665
-0.0343694
0.0536767
0.00614317
-0.0106371
0.0190414
0.00326711
-0.00119763
0.00399639
0.00275743
-0.00300754
0.00346239
0.00156515
-0.00417074
0.00529318
9.55505e-05
-0.00386768
0.00525916
-0.00100576
-0.00466297
0.00568508
0.000536427
-0.00405775
0.00245247
0.00140493
-0.00460379
0.00368796
-0.00119169
-0.00520792
0.00773358
0.00837923
-0.00965894
0.0139148
-0.00963441
0.0039995
0.0170106
-0.00994131
0.00673479
0.0191643
-0.00819732
0.00594067
0.0224926
-0.00883364
0.00540055
0.0507228
-0.0306703
0.00224521
0.107509
-0.000840224
-0.0565081
0.133226
0.0162382
-0.0426457
0.145922
0.0236018
-0.0370648
0.152098
0.0262982
-0.0332176
0.151408
0.0288396
-0.0289036
0.13641
0.033824
-0.0194897
0.0791669
0.0490117
0.0077051
0.0363945
0.0190929
0.0235027
0.0293037
0.00630483
0.000695339
0.0188027
0.0103077
0.000121297
0.00784587
0.010306
0.000621335
0.00690661
0.00164666
-0.000719782
0.00687592
0.000634296
-0.000617252
0.00572043
0.00160209
-0.00045984
0.00259297
0.00248346
0.00063306
0.00106886
0.0012633
0.000255436
0.000432304
0.000633491
0.000256963
-0.000758895
0.000930689
3.10915e-05
-0.000592942
0.000815696
-0.000121746
-0.000649279
0.000798989
-0.000266885
-0.000614523
0.000756667
-0.000324894
-0.000656877
0.000711886
-0.00039879
-0.000580036
0.000651037
-0.000381776
-0.000641229
0.000621375
-0.000399481
-0.000563946
0.000578876
-0.000341256
-0.000628886
0.000567935
-0.000334249
-0.00055484
0.000545129
-0.000272657
-0.000612192
0.000547956
-0.000267542
-0.000539122
0.000531337
-0.000234605
-0.000561911
0.000526429
-0.000242565
-0.000489876
0.000495212
-0.000190599
-0.00051951
0.000465171
-6.10794e-05
-0.000478026
0.000346003
-2.17796e-06
-0.000436136
0.000374906
-0.000396035
-0.000692654
0.00108122
-0.000647656
0.000872177
-0.000627146
-0.00133736
0.00136538
-0.000688427
-0.00253548
0.00553212
-0.00436979
-0.00914976
0.0249146
-0.0184273
-0.0161382
0.0303115
-0.0234989
-0.0205614
0.0407234
-0.0366206
-0.0164739
0.044788
-0.0492191
0.0493223
-0.0551918
0.0191978
0.071246
-0.0272589
0.0260445
0.0636249
-0.0259503
-0.0184467
0.0498152
-0.00540695
0.0269877
-0.00477702
0.0338822
-0.00207188
-0.00487992
0.00015393
0.0451248
-0.0114374
0.0649252
-0.0150229
-0.0120934
0.0511967
-0.00104491
-0.0283096
0.0546141
-0.0293205
0.0698407
0.0105062
0.0638933
-0.0135569
0.0162781
0.036053
0.0273456
0.00930384
0.00852216
0.0677872
-0.00580509
-0.00588342
-0.0123648
0.0839939
-0.017926
0.0015473
-0.00245703
0.0129341
-0.0257418
-0.0033819
0.010056
-0.0102362
0.00119834
-0.0307247
-0.00895768
0.0227958
0.00657964
0.00431711
-0.00693306
0.00623483
0.0145132
0.0221235
-0.0137626
0.00863628
0.00349076
-0.005937
2.00356e-05
0.0161491
0.00385831
0.00312037
0.011513
0.00135159
0.00327744
0.0106459
-2.62994e-05
0.000882782
-0.00928414
-0.000377199
0.0202936
-0.0192637
0.00100538
0.00419929
0.00354237
0.00543647
-0.00478582
0.00725659
-0.000440449
0.00466022
0.00256593
-0.00468067
0.0089595
0.00175614
0.0107676
0.00361393
-0.0118438
-0.00080677
-0.00564661
-0.00243862
-0.00295485
0.0307497
-0.0101873
-0.00250597
0.000926737
0.00971685
0.00426114
0.00267588
-0.0337759
0.00348721
-0.00230593
0.000569645
-0.0011137
0.00308487
-0.0044351
0.00292728
-0.00451106
0.00315036
-0.0115142
-0.01333
0.00633111
0.0108289
0.00341315
-0.00818888
-0.0108847
0.00708774
0.0117009
-0.00293476
0.0022468
-0.0125317
0.01906
-0.00256168
-0.00282207
-0.00278259
0.00571264
0.000645323
-0.00260835
-0.0020854
0.00182149
-0.000710556
0.000410283
0.00298423
-0.00247033
-0.00211403
0.00183238
0.000530572
0.00254205
0.00189751
-0.00251494
-0.00204768
0.000437573
-0.00255098
-0.00206867
0.00215902
0.00255066
0.000671944
-0.00262886
-0.00203626
0.00199473
0.00243315
0.00066541
-0.00229963
-0.00204081
0.00182412
0.00252006
0.0010443
-0.00256019
-0.00191823
0.00162603
0.00247078
0.000975985
-0.00232409
-0.00198624
0.00176409
0.00261194
0.00142217
-0.0028764
0.0026583
0.00179168
-0.0020223
0.00133572
-0.00269498
0.00202662
0.00307809
-0.00232587
0.00162071
-0.0026813
-0.00354425
0.0034739
0.00246392
0.00121952
-0.00365181
0.00324546
-0.00319074
0.0039954
0.00103914
-0.0045115
-0.00346695
0.00379567
0.00436009
0.000436328
-0.00438072
0.00513736
0.00364229
-0.00379907
5.19031e-05
0.0041668
-0.00483585
0.00556337
-0.00451306
6.94626e-05
-0.00190018
0.00242689
0.00179037
-0.00233593
0.00179947
-0.00110302
0.00122469
-0.00185242
0.00226286
0.00213407
0.000341131
-0.00293952
0.00208109
-0.000879284
0.000644463
0.000415625
0.00213276
-0.00164518
0.00135058
0.000241769
0.00174358
-0.00109059
0.00119841
0.000280251
0.00134767
-0.000655005
0.000769676
0.000280155
0.000646365
-3.8398e-05
0.000325694
0.000412962
-0.000352962
0.00050849
-8.5306e-05
0.000575078
-0.00104568
0.000560163
-0.000484102
0.000615596
-0.00125197
0.000752681
-0.00107718
0.000529737
-0.00124905
0.000965529
-0.00150382
0.000534291
-0.00113283
0.00100547
-0.00154869
0.00042588
-0.000924928
0.000927748
-0.00136612
0.00022931
-0.000784967
0.000378294
-0.00048779
-3.14274e-05
-0.000429607
0.000576147
0.000110146
-0.00104258
-0.000156426
0.000271773
-0.000577185
3.14864e-05
-0.00057573
0.000665561
-0.000561176
0.000313431
-0.00122544
0.00156116
0.00135131
6.82831e-05
-0.00234898
-0.00266282
0.00265561
-0.00217025
0.000929829
-0.00374676
0.000128542
0.0021894
0.000435715
-0.0026237
0.000843159
-0.00192016
-0.000633135
-0.00514417
0.00384851
-0.00264066
0.00193179
-0.00506619
0.00377657
-0.00701752
-0.000956519
-0.00396855
0.00918565
-0.0261646
-0.00994659
-0.0185436
-0.00688755
0.0537026
-0.0429025
-0.02033
0.0252459
0.0110259
-0.0495331
-0.0292575
0.0462617
-0.0111944
-0.0494951
-0.0310292
0.0512517
-0.0210897
-0.0465029
-0.0320585
0.0535271
-0.0252938
-0.0415361
-0.0299798
0.0526088
-0.0284132
-0.0121237
-0.0231145
0.0472605
-0.0164701
-0.0379391
0.0164692
-0.00726442
-0.00961926
-0.0118446
0.0136343
0.0260143
-0.0101697
-0.0131401
0.0217204
0.0166123
-0.0141075
-0.0107252
0.0123097
0.0345399
-0.0112841
-0.013972
0.00529841
0.0277155
-0.00811158
-0.0126918
-0.00657199
0.0394124
-0.0104841
-0.0171579
-0.0125398
0.040219
-0.014477
-0.0199015
-0.00759543
0.02927
-0.0138208
-0.0205295
-0.00888398
0.0333206
-0.0132272
-0.0189586
-0.0106487
-0.00503669
-0.00739559
-0.00233259
-0.00926604
0.00588737
-0.00105905
-0.00991067
0.00641685
-0.00247356
-0.00867907
0.00449572
-0.00292948
-0.00626627
0.0028807
-0.00300577
0.0019891
-0.00269979
-0.00912678
0.00586789
0.0101272
-0.00497558
-0.00431415
0.00657946
-0.00533369
0.00614543
-0.00653661
0.00682823
-0.00665328
0.00586028
0.00728187
-0.00589639
0.00534008
0.00725145
-0.00476583
0.00469167
0.0121977
-0.0126814
0.00754043
0.0224791
-0.033958
0.0319437
-0.0401343
0.0399146
-0.0407952
0.0460679
-0.0379258
0.047103
-0.0310464
0.0453061
-0.0191959
0.0313529
0.00348017
0.0163332
0.0138866
0.0155554
0.00261898
0.0121102
0.00274022
0.00502536
0.00592278
0.00113249
0.00440765
0.000795773
-0.000190441
0.00422929
0.000272171
-0.000107445
0.00338586
0.000873239
-4.30412e-05
0.0014545
0.000604348
0.00131608
0.00054314
0.000241283
0.000664705
0.000444626
9.54487e-05
0.00030652
4.16188e-05
9.48107e-05
0.000223916
-4.90555e-05
0.000130949
0.000343384
-0.000129429
9.31858e-06
0.000570506
-0.000184939
-4.30803e-05
0.000793312
-0.000181813
-4.21658e-05
0.00106323
-4.30968e-05
-0.000228073
0.00088805
-5.91582e-05
0.000233312
0.00130877
-4.3187e-05
0.00218039
5.49463e-05
0.0030777
0.000106934
0.00376899
0.000272984
0.00406188
0.000458551
0.00398797
0.000632817
0.00377324
0.000721962
0.00302828
0.000705323
0.00173788
0.000634141
2.07389e-05
0.000625322
-0.00181581
0.00019018
-0.00290097
0.000205113
-0.00275224
-9.4014e-05
-5.57413e-05
-0.00172166
-1.70743e-05
-0.00101476
-0.00105033
3.97135e-05
-0.000712223
-0.000579384
5.58371e-05
-0.000527679
-0.000327536
8.8964e-05
-0.000341454
-0.000403709
0.000263809
-0.000188347
-0.00014611
0.000374214
-0.000646325
0.000458489
4.12755e-05
-0.000241183
0.000301038
0.0005554
0.000454637
-0.00212059
0.000611474
0.000812052
0.00113054
-0.00273783
0.000949622
0.00111062
0.00115839
-0.00247473
0.00123613
0.00120892
0.00206498
-0.00383118
0.00134383
0.00157883
0.00195613
-0.00286159
0.00141995
0.00154866
0.00430067
-0.00534924
0.00290089
0.00504995
0.0041237
0.00297154
-0.00206161
0.00397471
0.00178827
-0.000996258
0.00480533
0.00162818
-0.00111012
0.00485738
0.00235308
-0.00120843
0.00460608
0.00201509
-0.000995777
0.00411
0.00102938
-0.000209139
0.0033023
0.000247438
0.000473392
0.00243387
-0.000378562
0.00076132
0.00163379
-0.00160614
0.0013275
0.000934845
-0.00276452
0.00195799
0.00011846
-0.00289752
0.0021635
-0.00085193
-0.00245518
0.00205754
-0.00103371
-0.000686475
0.00037903
-0.000642683
0.000662048
-0.000478267
0.000655305
-0.000362071
0.00407441
-0.00245577
-0.00326886
-0.00123871
0.00418983
0.00448505
-0.00146014
0.00259125
0.00625546
-0.000720911
0.00158264
0.019781
-0.00526195
-0.0120496
0.00381123
0.0156708
-0.00721851
0.00607341
0.0114634
-0.00668121
0.00573499
-0.00980822
-0.00137179
0.025379
-0.00844727
-0.0168115
-0.0100553
0.0160406
-0.0180217
-0.0395303
0.0590953
-0.029169
0.0267977
0.0427418
-0.0501032
0.0587811
0.00749758
-0.057616
0.0666603
-0.0088172
-0.059048
0.0702244
-0.0161955
-0.05658
0.0704113
-0.0212062
0.0643917
-0.0320165
0.0694631
0.0835744
-0.0274497
0.068788
0.0841129
-0.0140534
0.0640004
0.081295
-0.00729445
0.0508715
0.0775563
0.00123292
0.0172279
0.0710758
0.0203499
-0.0381965
0.0318379
0.0493719
-0.036774
-0.0466849
-0.0222849
0.0484899
0.0139501
-0.0192902
-0.0116621
-0.019893
-0.0186562
-0.0155004
0.00744797
-0.0243953
-0.00738161
0.00559267
-0.022476
0.00634743
-0.0272543
-0.00838182
0.00583716
-0.0119581
-0.0151832
-0.00712396
0.00164913
0.00400283
-0.0116216
-0.0042297
-0.000132762
-0.0099548
0.00116369
-0.00982188
-0.00395091
0.00233797
-0.00369811
-0.00687077
-0.00418337
0.00245675
0.00320396
-0.00473851
-0.00315157
0.000984184
0.00211395
-0.00372735
0.00154494
-0.00146169
0.0016474
-0.00338686
-0.00347992
0.00294623
-0.00515907
-0.00318035
0.00205215
-0.0072808
-0.00311615
0.00247032
-0.00908347
-0.00227269
0.00246628
-0.0100743
-0.00181219
0.00242147
-0.0115911
-0.00107242
0.00283363
-0.011803
-0.000545001
0.00178333
-0.0111667
0.000924701
0.000451069
-0.0102746
0.00183927
-0.000381169
-0.00922386
0.00297312
-0.00239937
-0.00896319
0.00275404
-0.0012295
0.0101855
0.00622401
-0.0161401
-0.00122755
0.00945604
0.00324886
0.000231061
0.0111932
0.00266292
-0.00143052
0.0123908
0.000802176
-0.000163547
0.0124871
-0.000309458
0.00113472
0.0114706
-0.00115615
0.00162464
0.0106066
-0.00195474
0.00174352
0.00966705
-0.00271545
0.00184
0.00871277
-0.00323812
0.00191675
0.00712104
-0.00343964
0.00191207
0.00574141
-0.00339755
0.0015938
-0.00381206
0.00234262
-0.00673034
-0.00379031
0.0019664
-0.00779104
-0.0047396
0.00239923
-0.0087533
-0.00431597
0.0018354
-0.00974041
-0.00408987
0.00183585
-0.0107604
-0.00351297
0.00181458
-0.0114248
-0.00288889
0.00159549
-0.0120114
-0.00162065
0.00104811
-0.0124526
-0.000169447
0.000298073
-0.0117501
0.00138869
-0.00129258
-0.00970794
0.00143551
-0.000818416
-0.00931402
0.00217864
0.000672477
0.0118411
0.00311787
-0.0188145
0.000747748
0.00904029
0.00461564
0.000359837
0.0129349
-0.00166168
-0.000801326
0.0116193
0.00357402
-0.000873801
0.0158458
-0.00353631
-0.000863714
0.0122944
0.00159505
0.000331568
0.0151136
-0.00562745
-8.47602e-05
0.0110387
-0.000647972
0.00120573
0.0128573
-0.00673712
0.000824461
0.00852962
-0.00196257
0.00197022
0.00842329
-0.00645054
0.00181323
0.00527325
-0.00218043
0.00153624
-0.00534896
0.000595937
0.0113802
-0.00734941
-0.0139214
0.00234418
0.0118019
-0.00599272
0.00137089
-0.00504158
0.00125145
0.0125933
-0.00510601
-0.0130125
0.000464134
-0.00565169
-0.00119062
0.0138005
-0.00435746
-0.0133765
-0.00174112
0.0296039
-0.00474411
-0.0189301
0.000646169
-0.00770931
0.00443727
0.0249422
-0.00658986
-0.0301245
0.00397393
-0.00669638
0.00489616
0.012297
-0.0031098
-0.0185434
0.00261403
-0.0298669
-0.016278
-0.0228967
-0.0185221
0.00834758
0.0048253
-0.0397769
0.00261212
0.00932503
-0.0232125
0.00283506
0.00627894
-0.00579337
-0.0277859
0.00400966
-0.0315393
0.00286146
0.00803798
-0.000175675
-0.032413
-0.0063537
-0.000730933
-0.0134532
-0.00181909
0.00468449
-0.0185638
0.000228381
-0.014122
0.000304099
0.00558294
-0.0156169
-0.00512932
0.00102211
-0.0143504
0.000909866
-0.016786
-0.00634292
0.00141113
0.00772984
-0.0200532
-0.00632573
0.00184538
-0.0181191
0.00349857
-0.0215074
-0.00642471
0.0024122
-0.0224219
-0.0036185
0.000484918
-0.0208847
-0.000462645
-0.00105278
-0.0192742
0.0022984
-0.000972026
-0.0187517
0.00375361
-0.00117496
-0.00504497
0.00436234
-0.01732
-0.000768665
-0.00641791
-0.0165959
-0.000865585
-0.00744147
-0.0150256
-0.000110367
-0.00580503
-0.0115872
0.00172199
-0.0039052
-0.00925875
0.00103765
-0.00688563
0.000591011
-0.00930268
0.00433837
-0.000336318
-0.00668241
-0.00133147
-0.000669789
-0.00471532
-0.000324464
0.00560607
-2.35578e-05
0.0151051
0.00978557
-0.0309392
0.0108198
-0.00060757
-0.00457267
0.00702781
0.00104059
0.000274441
-0.00431597
0.00468636
-0.00791663
0.00902593
-0.00122387
-0.00171579
0.00637814
-0.00136854
-0.0079644
-0.00117778
0.00529966
-0.00631244
-0.00191212
0.00565097
0.00189658
-0.00682982
-0.00234479
0.00559074
-0.00698999
0.00181435
-0.00253231
0.00547837
-0.00701764
0.00170883
-0.00250847
0.00535759
-0.00695523
0.00155573
-0.00238107
0.00526798
-0.00689089
0.00147746
-0.00229528
0.00514849
-0.00670604
0.00145371
-0.00225442
0.0050762
-0.0065623
0.00142727
-0.00212623
0.0047343
-0.00619334
0.00131355
-0.00200723
0.00407653
-0.00493594
0.00072494
-0.00177558
0.00524915
-0.00773766
0.00223323
-0.0116592
0.00366457
-0.0260643
0.0136753
-0.0220161
-0.0248452
0.0115395
-0.027515
0.00507074
-0.0780437
0.0411662
-0.0178193
-0.087761
0.0282724
-0.089084
0.0230119
-0.117086
0.0201746
0.0131665
-0.130533
0.0156782
0.00379214
-0.137727
0.0145944
-0.00310597
-0.140052
0.0146254
-0.00889157
-0.13748
0.0160313
-0.0154317
-0.129142
0.0196908
-0.0244109
-0.11417
0.023698
-0.0366537
-0.0457911
-0.0400429
0.0253203
-0.0660362
-0.00664905
0.00980651
-0.0283382
-0.0208274
-0.0176422
-0.00620527
-0.0161225
-0.00243774
-0.0131649
0.00860673
-0.00954444
-0.00433168
0.004934
-0.0113691
0.000483701
0.00168756
-0.00649256
0.0014036
-0.00297337
0.00593989
0.00183317
-0.00647892
0.00981197
0.00197069
-0.00596652
0.0127561
0.00167718
-0.00475755
0.0201675
0.00359119
-0.0111827
0.0347298
0.0152566
-0.0301041
0.0300426
0.0322454
-0.0278471
0.0250601
0.0213503
-0.016554
0.0227944
0.0155677
-0.0134507
0.0195784
0.0135104
-0.0104304
0.0157726
0.0120934
-0.00840474
0.00952278
-0.00350721
-0.0147107
0.0142931
0.000207818
-0.0183092
-0.00254194
0.0181192
-0.0207515
0.0196816
-0.00385607
-0.021537
0.0213679
-0.00514929
-0.01594
0.0218014
-0.00618693
-0.0553354
0.0382102
0.0567398
-0.0239053
-0.0218142
-0.0201507
-0.0451794
0.0464689
-0.0191607
-0.00724232
0.0256585
-0.0212607
-0.0155489
-0.00758728
0.019655
-0.0158595
-0.0100343
-0.0072255
0.0183056
-0.0167662
-0.00616583
0.0161904
-0.0152796
0.00586122
-0.00861938
0.00992883
-0.00944763
0.012582
-0.00869651
-0.0113583
-0.00367049
-0.00282792
-0.00271772
-0.00215207
-0.00110572
-0.00140357
-0.00116368
-0.00199637
0.00211616
-0.00122863
0.00247272
-0.00253734
-0.00193619
0.00277967
-0.00171384
-0.00446416
0.000583493
0.00382091
0.00317778
0.00532852
-0.0155218
0.00294091
-0.000375957
-0.00779717
0.00509072
-0.00564164
-0.000781631
-0.00717679
0.000144642
0.027107
-0.0088128
-0.0132486
-0.00593629
0.0067132
0.0139637
0.00638857
0.037759
0.00673074
-0.0378463
0.00906453
-0.00160465
0.0302207
-0.018674
-0.00242239
0.000334208
-0.00675658
0.0079973
-0.000917349
0.0028356
-0.00321865
0.0159878
-0.00645018
0.00413868
0.0102197
0.0096978
-0.0106731
-0.0105868
-0.00679329
-0.00750898
0.0081754
-0.0100993
-0.00217151
-0.00660817
-0.0314176
-0.0189649
0.0413676
0.00642153
-0.000161439
-0.00250283
-0.0686753
0.0333257
-0.00785053
-0.0214171
0.00652692
-0.0201297
0.00394605
0.00317324
-0.00059729
0.00322151
-0.00145106
-0.00260432
-0.000971196
-0.000352713
-0.002199
0.00146751
0.00252877
0.00165824
-0.0290407
0.0151723
-0.0109615
-0.0109473
-0.0102559
0.0793544
0.0470164
0.0338284
-0.0158774
-0.0150226
-0.0141665
0.0226849
0.027072