/*--------------------------------*- C++ -*----------------------------------*\
| =========                 |                                                 |
| \\      /  F ield         | OpenFOAM: The Open Source CFD Toolbox           |
|  \\    /   O peration     | Version:  v2012                                 |
|   \\  /    A nd           | Website:  www.openfoam.com                      |
|    \\/     M anipulation  |                                                 |
\*---------------------------------------------------------------------------*/
FoamFile
{
    version     2.0;
    format      ascii;
    class       volScalarField;
    location    "400";
    object      epsilon;
}
// * * * * * * * * * * * * * * * * * * * * * * * * * * * * * * * * * * * * * //

dimensions      [0 2 -3 0 0 0 0];


internalField   nonuniform List<scalar> 
18258
(
0.0242881
0.0123831
0.00925969
0.00729947
0.0127389
0.0126594
0.0131116
0.0174744
0.0243223
0.03719
0.0537681
0.0482761
0.043612
0.0453237
0.0474665
0.0450209
0.0350344
0.0302951
0.0398732
0.0666004
0.0609664
0.0497938
0.0610164
0.0515384
0.0657124
0.0830461
0.0636376
0.0572589
0.0514049
0.0483635
0.0417814
0.02372
0.0345557
0.0532904
0.0728058
0.079593
0.0853072
0.0900851
0.0952506
0.0973512
0.0975732
0.092321
0.0831116
0.0679912
0.0499975
0.0385144
0.0302979
0.0312137
0.0438899
0.0446552
0.0552989
0.085021
0.107385
0.0806517
0.0517277
0.0823788
0.112262
0.143969
0.17049
0.192963
0.200719
0.197339
0.18585
0.169151
0.147726
0.12275
0.101757
0.0848297
0.0670437
0.0572433
0.0462879
0.0383727
0.0328023
0.0291388
0.0269346
0.0252161
0.0240561
0.0249826
0.0248669
0.0177357
0.013949
0.0130994
0.00936832
0.00778443
0.00809586
0.00769983
0.00799698
0.00705819
0.00604738
0.00525366
0.00445927
0.0065006
0.00699833
0.00724044
0.0072602
0.00777795
0.00801705
0.00775078
0.00784273
0.00716472
0.00760721
0.0120735
0.01379
0.0174912
0.0156936
0.0109937
0.0089994
0.0100468
0.0106542
0.0132714
0.0125429
0.0133105
0.0118047
0.0107923
0.00910593
0.0088298
0.00905443
0.00962446
0.0100176
0.011631
0.0114682
0.0106464
0.0117657
0.012976
0.0126998
0.012157
0.0115725
0.0142058
0.0114023
0.0120834
0.0135766
0.0218767
0.0214063
0.025907
0.0254297
0.0258601
0.0260386
0.0314167
0.0315383
0.0319229
0.0322413
0.0340124
0.0569215
0.0506987
0.0495799
0.0493838
0.0427104
0.0422545
0.0415777
0.0423932
0.0358946
0.0345482
0.0313386
0.0309847
0.0345801
0.0436757
0.0611322
0.0883585
0.122274
0.158587
0.188842
0.209807
0.231546
0.236855
0.25074
0.255448
0.25639
0.250777
0.242393
0.232966
0.220134
0.201558
0.188638
0.148266
0.104977
0.0590535
0.0783709
0.0903977
0.10014
0.102066
0.103256
0.0992266
0.0930449
0.0818964
0.0663945
0.0431937
0.0483627
0.0656497
0.0680625
0.0688656
0.0546778
0.0526935
0.048995
0.0490164
0.0644837
0.0739256
0.0621063
0.0857923
0.100838
0.0882098
0.063999
0.0980035
0.143872
0.0808476
0.068647
0.053002
0.0519647
0.0438692
0.0370408
0.0630084
0.0940839
0.128954
0.149882
0.171474
0.188843
0.201935
0.215846
0.187626
0.170459
0.114805
0.200826
0.152372
0.0771049
0.0569967
0.0554432
0.0447768
0.0507503
0.0560442
0.0518897
0.0400041
0.0277
0.0248432
0.0466655
0.065146
0.0787434
0.0625739
0.0796218
0.0899477
0.0972802
0.102651
0.130368
0.0961555
0.106413
0.0761589
0.103331
0.0732709
0.0471232
0.052574
0.100406
0.160175
0.219183
0.255808
0.145433
0.0737353
0.0547573
0.0548009
0.0528982
0.0478946
0.059541
0.105904
0.0718496
0.0465959
0.0403878
0.0476541
0.0413392
0.0307083
0.0322819
0.0397784
0.0551473
0.0690115
0.0818245
0.12496
0.121288
0.146397
0.153704
0.12951
0.125217
0.0808914
0.0830393
0.122397
0.0912537
0.0737288
0.103554
0.14657
0.200713
0.247006
0.287375
0.313178
0.302729
0.273924
0.173334
0.0758873
0.0228591
0.0177906
0.0168463
0.0173182
0.0105213
0.00629002
0.00583516
0.00664053
0.00699707
0.00591044
0.00544309
0.00543493
0.0057737
0.0101777
0.00874859
0.0108198
0.0131052
0.0156472
0.018684
0.0194068
0.012875
0.00871399
0.00817663
0.00811154
0.00804166
0.0080111
0.00802129
0.00805998
0.0080742
0.00804051
0.00796102
0.0078238
0.00768859
0.00763164
0.00826627
0.0111498
0.0153087
0.014812
0.0135259
0.0121746
0.0110186
0.0086952
0.0151168
0.012822
0.0109142
0.0133614
0.0164556
0.0207928
0.024426
0.017615
0.0141008
0.0127596
0.0126314
0.0125139
0.0125548
0.0124276
0.0124856
0.0122794
0.0128631
0.0135413
0.016942
0.0189697
0.0211594
0.0226677
0.0232617
0.0239791
0.0211196
0.0229806
0.0227181
0.023496
0.0233114
0.0226192
0.0206945
0.0188956
0.0176677
0.0190749
0.0236252
0.0322415
0.0266445
0.0206731
0.0167234
0.013675
0.0149486
0.0166205
0.0167945
0.0158078
0.0155804
0.0153725
0.0138494
0.0130513
0.0110608
0.0104537
0.010003
0.0101606
0.0143567
0.0134904
0.0136741
0.0143937
0.0154668
0.0146288
0.0150614
0.0142332
0.0144808
0.0149005
0.016975
0.0185234
0.0177685
0.0164643
0.0159659
0.0136981
0.0157981
0.0156572
0.0169777
0.0185577
0.0190461
0.0189824
0.0183469
0.0167499
0.0186384
0.0220001
0.0256467
0.0246526
0.024336
0.0204067
0.0192156
0.0201924
0.0214681
0.0223736
0.0224376
0.0222478
0.0223148
0.0262781
0.0258713
0.0246856
0.0226136
0.0201641
0.0175112
0.0151145
0.0165897
0.0180692
0.0194585
0.0207267
0.0205119
0.0189806
0.0176217
0.0163913
0.0148993
0.0146208
0.0160737
0.0172964
0.0187306
0.0204529
0.0205402
0.0188182
0.0173187
0.0160343
0.0145602
0.0145165
0.0160175
0.0173185
0.0187403
0.0202318
0.0196004
0.0184408
0.0171864
0.0159414
0.0144882
0.0145575
0.0158799
0.0169508
0.0180367
0.0189893
0.0198363
0.0178766
0.0169651
0.0170534
0.0160646
0.0192389
0.0184847
0.0194265
0.0179788
0.0167603
0.0177664
0.0209507
0.0239764
0.0245267
0.0242465
0.0201195
0.0205749
0.0205517
0.0191382
0.0159237
0.0153256
0.0180812
0.0208018
0.0212604
0.0199637
0.0168818
0.0132521
0.0142657
0.0174093
0.0197114
0.0184611
0.0183044
0.0168976
0.0158176
0.0161114
0.0138302
0.0165664
0.0265796
0.0240447
0.0220188
0.01954
0.0155564
0.0105405
0.0114339
0.0125807
0.0129939
0.0105075
0.00787245
0.00707014
0.00687828
0.00672065
0.00650195
0.00613279
0.0055749
0.0053861
0.0107546
0.026409
0.0366442
0.0359331
0.0241875
0.020941
0.0203977
0.0193388
0.00980301
0.00827664
0.00851395
0.0104297
0.00818719
0.00886897
0.0153563
0.0103885
0.0141562
0.0109018
0.0146428
0.0230655
0.0219855
0.0146986
0.00805166
0.00685365
0.00733605
0.00762586
0.00782913
0.00802478
0.00825678
0.00864011
0.00995319
0.0156389
0.0201857
0.0176554
0.0166624
0.0152011
0.0187257
0.0212078
0.0231489
0.0259111
0.0160343
0.0117297
0.016565
0.0271382
0.0246231
0.0231609
0.0170576
0.0175994
0.0170428
0.0109562
0.0106155
0.0105377
0.0113481
0.0127248
0.0146449
0.0158161
0.0165674
0.0168953
0.0178011
0.0230768
0.0215992
0.0210937
0.0173349
0.0133263
0.0153134
0.0513138
0.0194949
0.0206079
0.0188608
0.0191388
0.0204227
0.0151547
0.0135247
0.0129352
0.0146176
0.0214774
0.0214829
0.0213371
0.0181977
0.0174107
0.020828
0.0219231
0.0223325
0.0217088
0.0212557
0.0193943
0.0166286
0.018055
0.0195679
0.0207521
0.0227558
0.0231029
0.017882
0.0171605
0.0157779
0.0104977
0.0112398
0.00968164
0.00965077
0.00961398
0.00933881
0.00889224
0.00918107
0.00929964
0.00929844
0.00895564
0.00925053
0.00830929
0.00864568
0.00973295
0.0151663
0.0147373
0.0175317
0.0194423
0.0166952
0.0155395
0.0141814
0.0131624
0.0154044
0.014242
0.0168139
0.0211488
0.0264167
0.0190634
0.0180671
0.017841
0.0174338
0.0172753
0.0173244
0.0166372
0.0156431
0.0150812
0.0235162
0.0212288
0.0181151
0.0171694
0.0157406
0.0179835
0.0174291
0.0213099
0.0267681
0.0269686
0.0214747
0.0215499
0.018909
0.0200095
0.022185
0.0269987
0.0269246
0.0143862
0.00956057
0.0153864
0.0157265
0.0183323
0.0169549
0.0184773
0.0196529
0.0203775
0.0202383
0.0176463
0.0188168
0.0196031
0.0205881
0.018542
0.016539
0.0173244
0.0161053
0.015209
0.0147133
0.0126464
0.0128863
0.0138508
0.0152968
0.0162373
0.0177239
0.0193697
0.019403
0.0200661
0.0196601
0.0190709
0.0251481
0.0239101
0.0254501
0.0281499
0.0223764
0.0177615
0.0146492
0.0149568
0.0147219
0.0146285
0.0153747
0.0167298
0.0151088
0.0144936
0.0169921
0.0193394
0.0245935
0.032905
0.0286351
0.0261034
0.033131
0.0313235
0.0381251
0.0285891
0.0280789
0.0207892
0.0262299
0.030462
0.0391007
0.0254405
0.0208968
0.0223672
0.0255014
0.0347195
0.0327119
0.033051
0.0410966
0.0398747
0.0361489
0.0311324
0.0352581
0.021184
0.0301345
0.0321592
0.0267801
0.0256442
0.0306588
0.0309977
0.0329461
0.0283367
0.0267147
0.017863
0.0273569
0.0312851
0.0329833
0.0277441
0.020502
0.0279482
0.020492
0.0191294
0.0202408
0.0137292
0.0126811
0.0147508
0.0138256
0.0111598
0.012102
0.01112
0.0111024
0.0111781
0.0112866
0.011411
0.0116565
0.0116093
0.0125848
0.0132582
0.0125237
0.0114914
0.0121847
0.0126007
0.0161034
0.0181941
0.0204684
0.0220692
0.0229126
0.0240438
0.0226744
0.0248044
0.0236947
0.0251764
0.0248705
0.0237908
0.0212543
0.0186165
0.0162711
0.0169653
0.0207088
0.0274261
0.0225075
0.0174519
0.0141474
0.0117396
0.0130247
0.016334
0.00880087
0.00802249
0.00773128
0.00757412
0.00749421
0.00672533
0.00585604
0.00644249
0.0122836
0.0160774
0.0206536
0.0265992
0.0325461
0.0376457
0.0416123
0.0445824
0.0465307
0.0471357
0.0445268
0.0341784
0.0293104
0.0250587
0.0206113
0.0166613
0.0168153
0.0245481
0.0322189
0.0397405
0.0463443
0.0512566
0.0493005
0.0329535
0.0299349
0.0464322
0.0781715
0.0741543
0.097346
0.11089
0.0625876
0.0462115
0.0451224
0.0621065
0.064802
0.0568686
0.0469388
0.0366867
0.026438
0.0310791
0.0356784
0.0401269
0.0448539
0.0584145
0.0610016
0.0595262
0.0565352
0.0527856
0.0480566
0.0414571
0.033382
0.0250622
0.0184897
0.013368
0.00723577
0.00763205
0.00782162
0.00740271
0.00785486
0.00806496
0.00896672
0.00866044
0.00886435
0.00864408
0.00867482
0.00769493
0.00686029
0.0102583
0.00967487
0.00969626
0.0104131
0.0134596
0.0102437
0.00743769
0.0069812
0.00699066
0.00858668
0.0195457
0.025805
0.0307044
0.0351455
0.0380163
0.0368406
0.0336905
0.0283682
0.0224965
0.0202404
0.0170697
0.0144725
0.0131833
0.0144564
0.0118645
0.00583205
0.00522403
0.0057523
0.00559645
0.00511792
0.00616739
0.00686766
0.00748768
0.00791436
0.00822525
0.0082822
0.00821532
0.0081193
0.00806935
0.00804338
0.0080088
0.0079376
0.00783593
0.00768808
0.00754698
0.00747954
0.00807086
0.0106917
0.0146318
0.0144041
0.0132882
0.0121776
0.0113163
0.00959766
0.0154633
0.0131244
0.0110047
0.0101755
0.0100304
0.0103252
0.0112707
0.0128832
0.013793
0.015786
0.0158291
0.0157276
0.0160353
0.0158249
0.0133549
0.0151385
0.0177146
0.0185181
0.0191034
0.0188691
0.0173293
0.0193503
0.0205025
0.0199788
0.0193874
0.0166749
0.0194355
0.0232469
0.0236721
0.0239022
0.0212217
0.0183791
0.0215471
0.0227285
0.0223786
0.0232914
0.0216262
0.0223919
0.0278442
0.0145174
0.013538
0.00830712
0.00900044
0.00933587
0.009132
0.00881842
0.00915877
0.00936773
0.00900425
0.00968986
0.00999899
0.00926082
0.0118708
0.0109572
0.0106128
0.0100337
0.0103923
0.0109001
0.0111859
0.0125482
0.0199939
0.0205551
0.0184921
0.0211661
0.0217494
0.0181128
0.020643
0.0215556
0.0219097
0.0222887
0.0237019
0.0221503
0.0244631
0.0237835
0.0222647
0.0215188
0.038235
0.0252031
0.0165993
0.0153226
0.014955
0.0149935
0.0168606
0.0125407
0.0140832
0.00985035
0.00853666
0.00817696
0.0079149
0.00872429
0.0118513
0.0189166
0.0254908
0.0277486
0.0266494
0.0235142
0.0182692
0.0138242
0.0133993
0.0119976
0.0111288
0.010927
0.00726815
0.00516835
0.00655424
0.0066227
0.0072117
0.00762584
0.00796176
0.00821215
0.00834602
0.00840951
0.00848031
0.00858727
0.008704
0.00880307
0.00887893
0.00893133
0.00898751
0.00910008
0.00939761
0.0105874
0.0152487
0.0196773
0.0185871
0.0171252
0.015812
0.0165727
0.0173304
0.018082
0.0222884
0.0191392
0.0220497
0.020674
0.0196804
0.018276
0.0190015
0.0207948
0.0165258
0.0164422
0.011194
0.0097766
0.00940826
0.00920327
0.00904526
0.00889121
0.00874809
0.00861906
0.00849581
0.00838821
0.00830425
0.00822383
0.00808974
0.00785337
0.00746061
0.00703891
0.00621625
0.0068132
0.00742565
0.00836462
0.00952262
0.0101553
0.00960932
0.00881423
0.00841428
0.00848606
0.00864341
0.00882426
0.00903301
0.00932437
0.0097855
0.0107459
0.0114204
0.0160905
0.0168123
0.0201762
0.0199915
0.0178958
0.0172489
0.0188617
0.0174035
0.0127008
0.0174308
0.0169357
0.0211347
0.0156373
0.0147385
0.0151184
0.0155895
0.0183165
0.0172219
0.0157537
0.0157355
0.0126788
0.0142224
0.0162216
0.0177388
0.0279858
0.0273864
0.0345521
0.0345213
0.0596755
0.0567185
0.0499583
0.0541487
0.0238084
0.0466224
0.0545692
0.0496698
0.0430635
0.0274138
0.0439154
0.0669783
0.0971093
0.0699352
0.0571795
0.106468
0.0771689
0.0375151
0.0266729
0.0150596
0.0151468
0.0251498
0.0292241
0.0242073
0.0233448
0.0335951
0.0349691
0.0281241
0.0288313
0.031223
0.0301667
0.032635
0.0282224
0.0275589
0.0155712
0.0127723
0.0137915
0.0155067
0.0164952
0.01598
0.0168251
0.0175062
0.0160811
0.0150688
0.0145219
0.012466
0.0132195
0.016201
0.0204155
0.0239191
0.0172616
0.0138612
0.0125582
0.0123641
0.0121391
0.0120235
0.011708
0.011528
0.0110653
0.0112793
0.00982611
0.00983576
0.0103651
0.0105205
0.0107175
0.0108685
0.0109847
0.011093
0.0119706
0.0187496
0.0259549
0.0207708
0.016468
0.0139949
0.0151767
0.0170901
0.0209809
0.0263948
0.0178209
0.0176382
0.0114914
0.010704
0.0105009
0.0103372
0.0101911
0.0100999
0.0101659
0.0101718
0.0118962
0.0114904
0.0134047
0.0144995
0.0119918
0.0115714
0.0111104
0.0108327
0.0106821
0.0106035
0.0106974
0.0115604
0.0113924
0.0104623
0.0103644
0.0104804
0.0106907
0.0110119
0.0114602
0.011969
0.0128806
0.012636
0.0111655
0.0112106
0.0105626
0.0102532
0.0100196
0.00999197
0.0100393
0.0101749
0.0103913
0.0113026
0.017096
0.0172762
0.0266008
0.0265896
0.0211412
0.0176791
0.0155318
0.0142821
0.0135532
0.0352276
0.0309448
0.0490671
0.0390979
0.031282
0.0508071
0.0723632
0.0561807
0.0916317
0.098993
0.0728526
0.0660542
0.0209597
0.0159649
0.0154484
0.0169328
0.0186172
0.0212411
0.0218348
0.0266383
0.0287398
0.0171518
0.0164736
0.0155409
0.0248609
0.0230428
0.0196683
0.0177912
0.0164114
0.0189587
0.0207447
0.0149414
0.0149819
0.00965015
0.0106461
0.0103992
0.0100632
0.00994953
0.00987681
0.00991067
0.0100107
0.0102927
0.0107882
0.0111633
0.0113051
0.0116121
0.0114077
0.0111245
0.0107858
0.0105836
0.010386
0.0102273
0.010107
0.0101417
0.01046
0.0106075
0.00930893
0.00965185
0.00976046
0.00977626
0.00981503
0.00979146
0.00967153
0.00948664
0.00931471
0.00912504
0.00917288
0.0099321
0.0100498
0.0101005
0.0099467
0.00983742
0.0098338
0.00977928
0.00977093
0.00976083
0.00963531
0.00931705
0.00859449
0.00845146
0.00905599
0.0094054
0.00958831
0.00967363
0.00964539
0.00957324
0.00933383
0.00915515
0.0089539
0.00863385
0.00822938
0.00689483
0.00714891
0.0074909
0.0079627
0.00845035
0.00887765
0.00916169
0.00930682
0.00938589
0.00929816
0.00900566
0.0084809
0.00842872
0.00882027
0.00900568
0.00897554
0.00873053
0.00834506
0.00780166
0.00711981
0.00645358
0.0059337
0.00567132
0.00526561
0.00661055
0.00716401
0.007688
0.00818092
0.0086591
0.00918044
0.00940468
0.00948365
0.0094608
0.00930202
0.0089669
0.00843685
0.00844807
0.00892787
0.00924313
0.00937254
0.00936331
0.00915354
0.00872341
0.0078162
0.0070146
0.0063747
0.00580884
0.00524243
0.00505122
0.00530281
0.00511539
0.00535927
0.00595523
0.0067611
0.00753299
0.008116
0.00852274
0.00869133
0.0086307
0.00837464
0.00828048
0.00841156
0.00836682
0.00807695
0.00752452
0.00678939
0.00598462
0.00533646
0.0051236
0.00542825
0.00576215
0.00545493
0.00439952
0.00493854
0.00547494
0.00605425
0.00696024
0.00813682
0.00875265
0.00907989
0.00924424
0.00918049
0.00888881
0.00844556
0.00843035
0.00885665
0.00913888
0.00918344
0.00904502
0.00872858
0.00820351
0.00677393
0.00533576
0.00473023
0.00439861
0.00395609
0.00552981
0.00589015
0.00546932
0.00520039
0.00564285
0.00620644
0.0068555
0.00738284
0.00780951
0.00810539
0.00819679
0.008156
0.00802717
0.00804009
0.00799286
0.00778884
0.00752686
0.00729339
0.00683293
0.00637218
0.00586121
0.00641485
0.00670587
0.00627987
0.0046658
0.00495565
0.00536053
0.0056038
0.00702007
0.00845918
0.00890316
0.00908638
0.00923527
0.00917331
0.00885688
0.00841273
0.0084002
0.00892447
0.0093208
0.00944471
0.00952509
0.00956423
0.00961111
0.0084419
0.00659871
0.00619804
0.00527192
0.00481954
0.00659384
0.00702744
0.00683639
0.00656909
0.00748381
0.00787666
0.0080371
0.00807265
0.00810416
0.00808596
0.00799152
0.00791378
0.00780169
0.0082503
0.00888913
0.00878494
0.00867411
0.00849861
0.00812668
0.00767583
0.00718657
0.00785028
0.00840023
0.00812811
0.00596619
0.00633918
0.00714731
0.00726826
0.0087467
0.00994998
0.0103181
0.0103693
0.0102979
0.0102958
0.00929414
0.0083677
0.00822127
0.00957714
0.0155524
0.0154032
0.0154567
0.0154022
0.014821
0.0146543
0.0140818
0.013828
0.0131204
0.012671
0.0119757
0.0140371
0.01781
0.0199136
0.0222992
0.0248139
0.0234692
0.0189464
0.016702
0.0101542
0.00801439
0.00691982
0.00599108
0.00529198
0.0050898
0.00756746
0.0094489
0.0116613
0.0136708
0.0139719
0.0164284
0.02041
0.0310671
0.0493715
0.0417102
0.0393927
0.0402116
0.100813
2.55653
2.76683
2.51017
2.91693
3.3371
0.404199
0.15491
0.286905
0.3038
0.33723
0.315835
0.287667
0.262465
0.273332
0.262267
0.274058
0.255279
0.263356
0.229624
0.23304
0.235571
0.669098
1.02851
1.24298
1.73658
1.74229
1.96491
1.91877
1.93893
1.79341
1.91104
1.66127
1.37818
1.30239
1.23001
1.32074
1.43604
1.24641
1.13072
1.0156
0.924811
0.792582
1.00581
0.763587
0.721797
0.720389
0.75253
1.00215
0.910928
1.04945
0.974947
1.02725
0.622111
0.697271
0.509954
0.424317
0.352161
0.422852
0.567652
0.752621
0.934422
0.718784
0.977372
0.904274
0.895296
0.85355
0.77948
0.740307
0.727983
0.749268
0.761932
0.777177
0.804854
0.825918
0.84403
0.995457
1.05938
1.04881
0.859104
0.768306
0.531853
0.569438
0.603612
0.607127
0.565895
0.547135
0.495074
0.482422
0.437185
0.418466
0.380049
0.361237
0.329263
0.454513
0.778052
0.807573
0.877074
0.930708
0.980571
1.00282
1.01959
1.00261
0.969374
0.900582
0.871198
0.808755
0.916756
1.10245
1.10262
1.01479
0.862187
0.816999
3.78694
4.60067
3.04927
6.56229
9.94887
16.6648
7.63516
2.08417
3.48625
2.39639
2.12808
2.07501
2.19058
3.45081
2.52281
3.30365
2.7244
2.88129
2.21881
2.52421
2.38981
1.83283
1.54021
1.30262
1.19149
0.964926
0.958922
0.78456
0.734968
0.678106
0.56316
0.687722
0.68553
1.63674
2.27961
2.84419
4.46457
4.90647
5.36006
8.47028
6.86291
8.60187
5.11892
5.16921
3.82332
3.59797
3.63826
5.00512
7.14823
4.92626
8.5953
4.79497
15.564
34.8114
9.23146
19.0952
11.022
9.9707
9.61369
9.90847
14.0854
9.58529
15.5969
13.0535
17.339
16.7302
17.8797
13.8934
10.2712
11.2586
12.0664
15.471
11.0393
12.7841
9.73238
9.52164
8.92367
7.37321
6.58937
5.04668
5.93258
6.97248
7.9301
12.5586
15.7694
18.1257
21.8576
16.1496
18.4282
11.0976
12.1738
9.40914
8.82828
8.96151
11.7928
20.9419
14.8403
27.1091
0.497759
0.226137
0.545621
0.229821
0.488186
0.391292
0.403916
0.40489
0.400527
0.46247
0.220448
0.185325
0.177552
0.175396
0.176906
0.10031
0.124533
0.0804715
0.126977
0.229315
0.503996
0.365544
0.140541
0.0826398
0.0546339
0.042978
0.0635135
0.0613117
0.0980518
0.0994146
0.105742
0.13226
0.228008
0.433416
31.7644
7.1354
1.1301
0.528757
0.283664
0.173874
0.148629
0.167858
0.180385
0.182979
0.171732
0.145882
0.10479
0.0696752
0.046944
0.0394586
0.0287481
0.0281986
0.0393344
0.0529584
0.0490118
0.0646433
0.0829797
0.105689
0.129888
0.149217
0.163794
0.167794
0.155849
0.121999
0.0802424
0.0442688
0.0265196
0.0228894
0.0209685
0.0194739
0.0168343
0.0146524
0.0132177
0.0112895
0.00994612
0.00896793
0.00864479
0.00876366
0.00955829
0.0120886
0.0145458
0.0188302
0.0179457
0.0134363
0.0126097
0.00781058
0.00722163
0.00736918
0.00761973
0.00845341
0.0132317
0.013537
0.013414
0.0134356
0.0132504
0.0132212
0.0130473
0.0128625
0.0126402
0.0122088
0.0119187
0.011399
0.0111236
0.0104892
0.0105159
0.010894
0.0111977
0.0101445
0.0100444
0.00933757
0.0199818
0.0480538
0.0697752
0.0782156
0.0880092
0.0807884
0.0416608
0.0227534
0.00783843
0.00770333
0.00819441
0.00882647
0.00838224
0.00617367
0.00671451
0.00784116
0.0109666
0.0108411
0.0108709
0.0126471
0.0131609
0.0145374
0.0150771
0.0155031
0.0157374
0.0157481
0.015897
0.0156792
0.0157916
0.0156274
0.0157266
0.0153346
0.0272246
0.0256197
0.0262915
0.0262758
0.0273558
0.0268077
0.0262399
0.0252534
0.0244887
0.0229822
0.021372
0.0198481
0.0177947
0.0185542
0.0179378
0.011213
0.0106551
0.00768978
0.00773909
0.00743835
0.0102577
0.00933365
0.00784748
0.00922966
0.00677256
0.00696156
0.00726414
0.0103322
0.0108567
0.0172497
0.0172016
0.0152137
0.0161446
0.0171673
0.0184617
0.0196314
0.0210409
0.0220767
0.0231718
0.0250499
0.025509
0.0238904
0.0236066
0.0225444
0.024486
0.0234836
0.0217369
0.023256
0.0248196
0.0272132
0.0268426
0.0246959
0.0233764
0.0219459
0.019652
0.0170382
0.0156979
0.0147275
0.0147597
0.0137665
0.0161202
0.0145868
0.0101212
0.0103976
0.00790368
0.00631667
0.00603569
0.00917892
0.0130341
0.027916
0.0173945
0.00932539
0.010354
0.0166049
0.0343149
0.0198323
0.0322945
0.0141678
0.0145112
0.0125417
0.0124626
0.0137412
0.016013
0.0170343
0.0206459
0.0232773
0.0252579
0.0261525
0.0274942
0.0278801
0.029292
0.0297297
0.0324031
0.0326647
0.0327681
0.0323191
0.0300775
0.0270532
0.0249755
0.0308314
0.035674
0.0387773
0.0411527
0.0435128
0.0422322
0.0385755
0.0377165
0.0358092
0.0347086
0.0332954
0.0302304
0.0264291
0.0216737
0.0211303
0.027087
0.0327833
0.0490034
0.0527842
0.052524
0.054851
0.0553376
0.0570701
0.0574916
0.0601276
0.0606901
0.0618357
0.0621651
0.0673292
0.0682075
0.0692215
0.0695376
0.0693015
0.0703147
0.0703602
0.0478039
0.0428862
0.0390326
0.0324409
0.0272298
0.0345155
0.0429368
0.0479837
0.073231
0.0737294
0.0774663
0.0800726
0.0850452
0.08874
0.093674
0.0981969
0.102663
0.106142
0.108267
0.108674
0.109197
0.108318
0.10706
0.115894
0.150501
0.167068
0.197704
0.212766
0.225492
0.229644
0.220776
0.224464
0.216243
0.218722
0.212308
0.210173
0.20475
0.198207
0.194524
0.187984
0.183857
0.211935
0.160156
0.12292
0.0820529
0.066082
0.0585225
0.054171
0.0576968
0.0445409
0.0378307
0.057246
0.052457
0.041772
0.0279193
0.0187153
0.0318581
0.0473185
0.064111
0.0813031
0.0970267
0.10732
0.109915
0.108851
0.104155
0.096393
0.0813085
0.0613339
0.0422642
0.0349308
0.0322579
0.02827
0.0222916
0.0179119
0.015782
0.0141864
0.0124093
0.01115
0.0105905
0.0107313
0.0110382
0.0132344
0.0173114
0.0173047
0.0115962
0.0111667
0.00768043
0.00776621
0.00802051
0.0133512
0.0134923
0.0209296
0.0233666
0.0220037
0.0226814
0.0224081
0.022691
0.0223145
0.0211212
0.0202768
0.0193082
0.018467
0.0177335
0.016924
0.0161539
0.0174668
0.016435
0.0138639
0.0139623
0.014562
0.0151953
0.0160772
0.0173281
0.0184067
0.0210967
0.0212908
0.0207975
0.0208967
0.0194432
0.0187363
0.0199988
0.0195326
0.0133007
0.013131
0.0191732
0.0188204
0.0186967
0.0224962
0.0209019
0.0214283
0.0225543
0.0224187
0.0194833
0.0181247
0.0165836
0.0154102
0.0140475
0.0125478
0.0121914
0.0149345
0.0132019
0.0108235
0.0119908
0.0144013
0.0170138
0.0184659
0.0204458
0.0231571
0.0241171
0.0263401
0.0277524
0.0298403
0.0306783
0.0354801
0.036166
0.0340556
0.0322074
0.0312013
0.027439
0.0235034
0.025922
0.0267902
0.027165
0.0272459
0.0271128
0.0235396
0.0231072
0.0215946
0.0210801
0.0195197
0.0189644
0.0178091
0.0170548
0.0160421
0.014215
0.013449
0.0126426
0.0122973
0.0173645
0.0108299
0.0105988
0.0159923
0.00985828
0.0116008
0.0113511
0.0118598
0.0124964
0.0103553
0.0151541
0.0103375
0.0112181
0.0114283
0.0142904
0.00984326
0.0193702
0.0613932
0.091451
0.110234
0.200698
0.241345
0.261913
0.282705
0.297151
0.31316
0.330864
0.348617
0.361823
0.3634
0.337998
0.319649
0.254985
0.228361
0.25224
0.282525
0.195026
0.167354
0.169712
0.170652
0.173335
0.174685
0.178469
0.176503
0.181748
0.177416
0.184883
0.178913
0.185598
0.177995
0.162425
0.145679
0.112795
0.101904
0.065706
0.0508694
0.0398052
0.0288681
0.0210216
0.0188576
0.0178436
0.0164816
0.016566
0.0126976
0.0131076
0.0083943
0.00615334
0.00986028
0.00971199
0.00720924
0.00984276
0.0112433
0.0117613
0.0123005
0.0125911
0.0192619
0.019302
0.024731
0.0246054
0.0291735
0.0347682
0.0360187
0.039678
0.057016
0.0575099
0.0572553
0.05704
0.0565965
0.049396
0.0491147
0.0480101
0.0474216
0.0444923
0.0439399
0.0418736
0.0407447
0.0378184
0.0369996
0.0358683
0.036275
0.0397858
0.0539107
0.095147
0.0288228
0.0272273
0.02008
0.0144895
0.0211426
0.0158759
0.0153653
0.0135814
0.0186781
0.0134298
0.0136892
0.0164848
0.0169898
0.0163657
0.0212248
0.0264893
0.023253
0.0255211
0.113673
0.0712624
0.0235633
0.0465116
0.0702344
0.155632
0.202972
0.138449
0.158315
0.182513
0.165554
0.138914
0.108007
0.0806884
0.0567551
0.0432781
0.0114182
0.0133079
0.0183628
0.0398501
0.0592867
0.101155
0.082918
0.108432
0.1482
0.172591
0.208576
0.199917
0.171817
0.147863
0.145054
0.16073
0.161568
0.103586
0.100519
0.0768198
0.173111
0.218782
0.183859
0.230755
0.242935
0.140227
0.0312596
0.0183267
0.0150955
0.0138947
0.0124225
0.0194004
0.0114297
0.011631
0.0123379
0.0132647
0.0169121
0.0293891
0.013402
0.0149017
0.0183313
0.0158962
0.0149648
0.0146206
0.0145453
0.0151846
0.0165617
0.0215819
0.0216304
0.0212527
0.0159621
0.0172433
0.0156615
0.0199442
0.0211474
0.0332682
0.0152213
0.0161582
0.0214094
0.474557
0.0245361
0.0177864
0.0231411
0.0218114
0.0299991
0.0441314
0.455692
0.0436757
0.035008
0.0585833
0.060901
0.0655543
0.0692153
0.0727035
0.0752243
0.0791458
0.0818234
0.0830309
0.0842445
0.0999093
0.0999757
0.0989128
0.103521
0.0976873
0.0577074
0.0579359
0.0975388
0.105303
0.0594751
0.0410713
0.0385526
0.0312643
0.0324085
0.0419477
0.0440185
0.0617068
0.0615455
0.102691
0.093631
0.0950418
0.0967636
0.0917204
0.0921654
0.0942667
0.0941349
0.075363
0.07308
0.0713347
0.0682699
0.0647493
0.0618477
0.0589345
0.055808
0.0530819
0.0529738
0.0573727
0.058234
0.0655998
0.0716528
0.215234
0.146032
0.104674
0.0782291
0.0642556
0.0585901
0.0583788
0.0616435
0.0648837
0.0665542
0.0673515
0.0706857
0.0924037
0.0949778
0.0978642
0.0952505
0.0991045
0.0971987
0.0947185
0.104642
0.112484
0.065713
0.0677898
0.0478713
0.0446888
0.0326239
0.0331999
0.0236903
0.0196329
0.0196039
0.019582
0.01982
0.0227285
0.0317855
0.0318787
0.0465913
0.0464669
0.0518704
0.0754895
0.0725321
0.12941
0.118595
0.10891
0.101544
0.101941
0.104042
0.106669
0.101647
0.0977333
0.0921587
0.0724326
0.0684607
0.0663195
0.0650335
0.0636713
0.0668204
0.0892675
0.143539
0.219218
0.322709
0.422824
0.435331
0.395126
0.244206
0.285737
0.14135
0.162539
0.183976
0.157858
0.167002
0.316719
0.263411
0.37201
0.477782
0.531432
0.597599
0.633825
0.620138
0.49049
0.317766
0.325321
0.433539
0.763281
0.856477
0.742185
0.76071
0.657373
0.539874
0.521758
0.497383
0.561544
0.613038
0.578516
0.596169
0.540386
0.515999
0.445946
0.497727
0.363722
0.327634
0.308012
0.29918
0.358539
0.290136
0.326756
0.268501
0.274684
0.223189
0.228757
0.190966
0.146192
0.138581
0.128461
0.143803
0.162973
0.149253
0.153477
0.13399
0.114475
0.0911905
0.0985033
0.0735489
0.0694888
0.0703832
0.079784
0.124307
0.363745
0.172205
0.163019
0.167415
0.177971
0.318937
0.282712
0.726015
0.508971
0.712899
0.475813
0.564969
0.47271
0.364556
0.380016
0.419962
0.600716
0.824597
6.66002
0.284925
4.26757
3.16787
3.326
3.47131
4.45032
7.81825
7.11356
9.40593
6.81011
9.08436
4.97343
4.97624
4.32577
4.47083
4.43791
4.26002
5.17414
6.59846
0.23787
0.0908989
0.0854197
0.0856094
0.0873838
0.197698
0.0525576
0.202043
0.0539733
0.213535
0.0495318
0.246779
0.196973
0.0382409
0.0192577
0.0200898
0.0168072
0.0203749
0.0169226
0.0250459
0.0235414
0.0236966
0.0265683
0.0760155
0.291026
13.7047
1.63109
0.67833
0.776709
1.16376
0.789308
1.18703
1.65118
1.10897
0.551914
0.360055
0.424637
0.51317
0.490411
0.627886
0.905885
0.887102
0.697191
0.701641
0.616486
0.872821
0.882112
1.04795
1.22525
1.12281
0.877344
0.690157
0.581336
1.00747
1.0155
0.949627
0.398447
0.11126
0.0461444
0.0480811
0.0352838
0.0372959
0.034639
0.0535162
0.156062
0.215497
0.129142
0.423168
0.409888
0.561784
0.40116
0.411502
0.324156
0.348915
0.531239
0.580686
0.640577
0.672116
0.722082
0.664411
1.2764
2.18164
2.46647
12.7875
17.3747
3.18121
3.08561
13.9316
0.314626
0.0837649
0.0232976
0.0174269
0.016216
0.0161296
0.015001
0.0155385
0.0160003
0.0169642
0.0188306
0.0231991
0.0458448
0.201563
0.203535
0.0643691
0.0324405
0.0229745
0.0196182
0.0170475
0.0163878
0.0155321
0.0154597
0.0150081
0.0156572
0.0174619
0.0237739
0.077404
0.271099
11.3353
2.43416
2.25306
8.38006
5.79253
0.206738
0.0437942
0.0200948
0.0169273
0.0158844
0.0167548
0.0162664
0.0182123
0.0184036
0.0230187
0.0250257
0.0317766
0.0571086
0.110251
0.31586
9.60427
8.67382
8.39855
7.82919
0.310482
0.115295
0.0544227
0.0382419
0.0346309
0.0338236
0.0226512
0.023676
0.0189838
0.0216441
0.0182971
0.0226866
0.0483161
0.211909
5.3504
1.56948
1.69984
1.20926
0.611877
0.654011
0.66751
0.686941
1.76744
4.03733
4.97007
3.41461
3.35147
4.69252
3.16177
2.4742
1.82264
1.74241
2.5392
1.9592
1.82246
1.35323
1.46245
1.06609
1.46571
0.809986
0.975975
1.07173
1.52943
1.39628
1.40943
0.907608
1.04939
1.47361
1.72474
1.64952
0.843017
1.22664
1.01291
0.653895
0.605542
0.631609
0.601206
0.575671
0.573014
0.577642
0.556868
0.574452
0.554988
0.587266
0.54731
0.53217
0.506063
0.525484
0.542687
0.574984
0.359028
0.421307
0.425824
0.440174
0.452626
0.373522
0.449638
0.440139
0.657132
0.992532
0.827635
1.1384
0.674396
1.00054
2.00382
5.20846
2.32274
0.813621
1.34489
1.58362
1.13789
0.626946
2.55118
3.56102
1.22976
1.78541
10.3978
8.44143
16.5339
10.952
18.5883
6.01407
4.62573
17.7808
6.65506
6.8852
4.49818
4.50849
2.94951
1.57857
1.62071
1.732
1.22121
1.29286
1.20373
1.13065
1.46865
1.43244
1.87599
2.02566
2.56545
1.80495
1.76635
2.58259
1.0592
1.39145
1.82784
1.81905
1.35251
2.32747
3.14035
2.94396
2.1198
2.3243
3.48956
4.79856
4.54727
3.1458
3.93451
10.1004
13.478
13.6597
4.20782
19.3382
18.2976
2.05664
0.55566
0.316683
0.0872464
0.0440748
0.0366006
0.0386693
0.14285
0.0458014
0.0569027
0.0452637
0.0717552
0.0691924
0.0863876
0.214924
0.125086
0.212586
0.153377
0.185718
0.118535
0.189591
0.222179
0.231591
0.184283
0.113042
0.208613
0.300631
0.103562
0.347268
0.381734
0.254338
0.325357
0.387557
0.192075
0.984572
0.18287
0.124477
0.143049
0.384529
1.24056
0.213289
0.454269
4.44893
14.7062
3.65185
0.924875
0.668551
0.0550919
0.0299425
0.0313211
0.0276873
0.0193741
0.0824418
0.0966877
0.399435
0.205604
0.277596
0.661184
2.93333
2.39736
1.11191
5.46239
10.2799
15.1591
9.12923
2.21102
9.75099