/*--------------------------------*- C++ -*----------------------------------*\
| =========                 |                                                 |
| \\      /  F ield         | OpenFOAM: The Open Source CFD Toolbox           |
|  \\    /   O peration     | Version:  v2012                                 |
|   \\  /    A nd           | Website:  www.openfoam.com                      |
|    \\/     M anipulation  |                                                 |
\*---------------------------------------------------------------------------*/
FoamFile
{
    version     2.0;
    format      ascii;
    class       volScalarField;
    location    "10";
    object      alphat;
}
// * * * * * * * * * * * * * * * * * * * * * * * * * * * * * * * * * * * * * //

dimensions      [1 -1 -1 0 0 0 0];


internalField   nonuniform List<scalar> 
22960
(
0.00459226
0.00254923
0.0021864
0.00191868
0.0011277
0.00159701
0.0018193
0.00215638
0.00208539
0.0018209
0.00164386
0.00269655
0.00385343
0.0045731
0.00464946
0.00455268
0.00431745
0.00538128
0.00629484
0.00680735
0.00624517
0.00444902
0.00584047
0.00743165
0.00550189
0.003866
0.00343793
0.00471006
0.00540087
0.00548996
0.00562549
0.00566337
0.00573021
0.00574551
0.00580889
0.00582632
0.00596515
0.00602141
0.00611734
0.00677153
0.00700518
0.00704056
0.00714451
0.00715539
0.00722106
0.00728312
0.00737994
0.00750213
0.00770079
0.00847081
0.00903873
0.00887713
0.00875396
0.008629
0.00840271
0.00739648
0.00478293
0.00289836
0.00270599
0.00289978
0.00303644
0.00311015
0.00269394
0.00147149
0.00204764
0.00220019
0.00264714
0.00263888
0.00237871
0.0022409
0.00362866
0.00481856
0.00555544
0.00567183
0.00572147
0.00564639
0.00562801
0.00549072
0.00542457
0.00475625
0.00350372
0.00396033
0.00529222
0.00715805
0.00578226
0.00442937
0.00628129
0.00686872
0.00644826
0.00599225
0.00556273
0.00592019
0.00606151
0.00600805
0.00498018
0.00361712
0.00213457
0.00218074
0.00234748
0.00230902
0.00194815
0.00176874
0.00111484
0.00187818
0.00217877
0.00207765
0.00196011
0.00171022
0.00187401
0.00334464
0.00605092
0.00689789
0.00671915
0.00648499
0.00638055
0.00635848
0.00636299
0.00657341
0.00674842
0.0068874
0.00716122
0.00742433
0.00745286
0.00651042
0.00395981
0.002277
0.00204807
0.00216506
0.00221884
0.00252134
0.00253708
0.00221574
0.00211085
0.00227423
0.00367536
0.00642622
0.00723778
0.00719043
0.00691883
0.00656832
0.00632376
0.00606297
0.00577266
0.00572013
0.00580766
0.0061086
0.00653732
0.00675976
0.006044
0.00336637
0.00212535
0.00184315
0.00194002
0.00237304
0.00238613
0.00243108
0.00196532
0.00115793
0.00186152
0.00210689
0.00228538
0.00236944
0.00252317
0.0028772
0.0032598
0.00318044
0.00284027
0.0025668
0.00239941
0.00229894
0.00209663
0.00186891
0.00143917
0.000865449
0.00147174
0.00164458
0.00158683
0.00148199
0.00134351
0.00148765
0.00268889
0.00445335
0.00503498
0.00503162
0.00482433
0.00443614
0.00389859
0.00341851
0.00399623
0.00454875
0.00496257
0.00525335
0.00538492
0.00532367
0.00467101
0.00270549
0.00149303
0.00132938
0.00150549
0.0015787
0.0015665
0.00123829
0.000782549
0.00127257
0.00172092
0.00192735
0.00197308
0.00190353
0.00189931
0.00187849
0.00181008
0.00157884
0.00116665
0.000794842
0.000854677
0.000978873
0.00105727
0.00113302
0.00125697
0.00142553
0.00159884
0.001747
0.00184848
0.00189667
0.00189845
0.00185435
0.00175588
0.00151245
0.00141098
0.00222982
0.00289302
0.00302749
0.00293236
0.0026326
0.00217563
0.00152246
0.00095069
0.000907602
0.000889203
0.000675015
0.000360861
0.00031795
0.000309356
0.00018997
0.000205103
0.00027297
0.00030796
0.000327866
0.000285675
0.000211588
0.00034419
0.00043066
0.000517354
0.000610383
0.000689065
0.000744789
0.000773738
0.000770628
0.00073877
0.000550432
0.00034351
0.000459472
0.000567081
0.000527709
0.000487701
0.00039032
0.000360153
0.000605086
0.000692227
0.000764776
0.000690304
0.000661912
0.000681181
0.00069568
0.000704765
0.000716004
0.000713701
0.000718731
0.000707592
0.000707949
0.000685056
0.000679283
0.000633577
0.000615642
0.000559058
0.000540581
0.000548843
0.000709688
0.000962289
0.00163705
0.00255105
0.00306621
0.00336754
0.00355843
0.00354044
0.00487764
0.00490785
0.00441008
0.0035685
0.00291527
0.00173378
0.00106072
0.000966136
0.000982045
0.000893204
0.000864181
0.000715951
0.000798199
0.000906184
0.00113091
0.00113789
0.000887397
0.000958477
0.000984515
0.00103499
0.0010416
0.00106948
0.00106363
0.00108183
0.00106878
0.00108048
0.00106159
0.00106876
0.00105815
0.00107182
0.00109609
0.00116045
0.000934698
0.00126668
0.00151299
0.00142623
0.0014275
0.0019598
0.00255892
0.00270845
0.00452485
0.00521111
0.0047131
0.00257885
0.00248625
0.00177511
0.00115748
0.00120092
0.00133557
0.00135229
0.00126995
0.00124016
0.00127506
0.00136677
0.00138378
0.00137506
0.00136348
0.00134615
0.00132059
0.00128196
0.00115273
0.00109725
0.00144961
0.00187176
0.00203514
0.00326692
0.00452706
0.00525725
0.00435333
0.00527895
0.0059125
0.00621711
0.00625562
0.00630182
0.00624874
0.00696495
0.00699559
0.00693608
0.00679339
0.0064902
0.00591407
0.00491042
0.0057331
0.00633363
0.00683933
0.0071254
0.00739312
0.00755913
0.00764623
0.00769511
0.00771036
0.00774974
0.00793287
0.00804214
0.00809954
0.00801337
0.00771701
0.00657867
0.00398689
0.00208835
0.00183095
0.00192675
0.00194591
0.00199917
0.00181868
0.00114063
0.00178656
0.00244325
0.00264585
0.00257075
0.00231371
0.00218086
0.00351408
0.00477695
0.00560054
0.00576578
0.0058898
0.00579226
0.0056661
0.00488986
0.00366925
0.00225464
0.00207777
0.00160194
0.00121472
0.00125648
0.00136239
0.00116613
0.000889731
0.000685516
0.000772827
0.000725851
0.000700404
0.000690947
0.000685473
0.00068206
0.000689694
0.000684066
0.00069165
0.000680181
0.000684486
0.000659954
0.000654731
0.000603949
0.000585153
0.000524097
0.000495859
0.000499393
0.00066099
0.000913167
0.0016021
0.00258092
0.00305295
0.00341025
0.00365711
0.0036381
0.00415627
0.00403904
0.00334879
0.00360296
0.00295699
0.00312916
0.00353111
0.00451213
0.00453821
0.00477873
0.00552793
0.00473927
0.00429888
0.0033613
0.0035409
0.00315098
0.00159737
0.00262335
0.00227161
0.00146986
0.00144386
0.00109094
0.00128357
0.00166897
0.00149979
0.00143589
0.00336211
0.00267548
0.00284826
0.00308619
0.00329575
0.00544639
0.00369254
0.00373261
0.00664054
0.00548583
0.00432317
0.00430453
0.00549015
0.0050166
0.00494573
0.00455986
0.00473726
0.00462759
0.00461582
0.00447195
0.00443538
0.00434249
0.00428668
0.00439283
0.0045202
0.00472795
0.00484003
0.00477167
0.00469415
0.00428674
0.00392672
0.00132353
0.000528404
0.000590208
0.000685602
0.00084138
0.00096572
0.00108593
0.00129784
0.00130375
0.00119378
0.00106335
0.000928525
0.000771281
0.000617575
0.000429817
0.000355759
0.000337506
0.000584266
0.000931414
0.00127514
0.00139964
0.0017412
0.00170986
0.00273053
0.00472644
0.00563962
0.00583312
0.00588806
0.00584653
0.00569324
0.00491043
0.00312966
0.00317197
0.00334847
0.00328606
0.00329764
0.00330765
0.00320504
0.00313456
0.00266677
0.00239125
0.00162406
0.0013798
0.00163949
0.00172249
0.00178892
0.00169019
0.00205986
0.00194342
0.00199696
0.00193279
0.00172184
0.00159222
0.00262486
0.00376188
0.00455385
0.00478016
0.00493416
0.00487062
0.00476003
0.0040487
0.00299171
0.00179315
0.00161308
0.00121722
0.000899636
0.000905832
0.000961557
0.000803807
0.000595627
0.000441304
0.00038788
0.000220647
0.000240062
0.000292938
0.000310058
0.000325573
0.000258459
0.00020628
0.000366653
0.000483326
0.000582711
0.000666774
0.000740283
0.00079899
0.000825788
0.000825133
0.000792029
0.000564093
0.000338373
0.000450266
0.000553574
0.000522847
0.000489549
0.000396937
0.000369397
0.000615435
0.000561167
0.000623226
0.000715529
0.000763885
0.000811551
0.000827502
0.000833592
0.000850882
0.000913215
0.000999959
0.00124999
0.00177941
0.00206227
0.00239967
0.00234319
0.0021521
0.00191706
0.00171296
0.00152202
0.00124758
0.000953552
0.000585452
0.000542878
0.000577986
0.000902451
0.00103635
0.00132385
0.00161082
0.00188716
0.00176581
0.00296642
0.00298131
0.00492991
0.0057101
0.00595316
0.00604083
0.00602322
0.00586765
0.00521949
0.00515921
0.0058199
0.00600072
0.00604498
0.00596549
0.00574691
0.0049861
0.00310816
0.0030988
0.00176243
0.00174395
0.00189888
0.00166634
0.00136899
0.00135941
0.00111939
0.00113426
0.00127695
0.00112662
0.000954453
0.00145103
0.00182937
0.00218447
0.00231564
0.00237787
0.00246332
0.00258398
0.00260966
0.00238973
0.00222356
0.00163336
0.00142797
0.00153468
0.00183694
0.00195353
0.00202232
0.00192445
0.00184876
0.00182779
0.00185922
0.00191149
0.0018165
0.00157257
0.00151189
0.00166471
0.00168328
0.00165684
0.00164821
0.00165192
0.00167572
0.0017045
0.00169722
0.0015176
0.00143855
0.00154128
0.00148691
0.00150306
0.00163111
0.00170525
0.00175224
0.00173748
0.00177126
0.00177283
0.00176172
0.00168205
0.00155591
0.0015411
0.00164967
0.00134271
0.00112877
0.00116691
0.00138253
0.00137492
0.00171554
0.00192077
0.00189046
0.00175627
0.00164121
0.00315623
0.0030832
0.00286568
0.00167231
0.0015946
0.0018003
0.00186394
0.00151277
0.00164964
0.00134132
0.00161438
0.0015661
0.00172969
0.00178927
0.00173638
0.00175197
0.00170988
0.0016576
0.00160436
0.00165513
0.00166443
0.0016295
0.0014861
0.00133284
0.0012935
0.0011784
0.0015049
0.00161915
0.00157145
0.00162063
0.00187614
0.00175214
0.00163193
0.00319204
0.00201769
0.0013441
0.00134811
0.00135159
0.00135464
0.00135489
0.00134907
0.00133234
0.00129431
0.00123621
0.00108641
0.00177253
0.00288327
0.00355871
0.00445253
0.00502675
0.00500206
0.00586904
0.00590516
0.00601335
0.00609333
0.00614025
0.00612622
0.00598702
0.00514494
0.00401455
0.00356743
0.00327236
0.00352336
0.00382023
0.00391731
0.00242416
0.00266843
0.00272013
0.0028373
0.00322924
0.00388063
0.00407457
0.00371834
0.00348425
0.00329763
0.00311786
0.00274494
0.00323349
0.00352498
0.00361268
0.00364613
0.00394306
0.0048088
0.00497722
0.00482209
0.00433196
0.00431764
0.00422773
0.00426322
0.00425151
0.00420777
0.00443578
0.00581208
0.00608038
0.00576814
0.00579777
0.0061127
0.00583393
0.00533457
0.00533068
0.00281086
0.000759934
0.00312956
0.00386755
0.0054162
0.00486322
0.00390603
0.00338371
0.00463441
0.00444587
0.00572596
0.00584935
0.00509634
0.00579675
0.00573197
0.00621322
0.00658855
0.0055459
0.00504278
0.00524451
0.00547138
0.00554167
0.00529735
0.00553066
0.00548805
0.00574098
0.00576024
0.00498324
0.00616915
0.00452521
0.00381028
0.00616919
0.00701618
0.00788901
0.00879217
0.00943932
0.0100486
0.0107041
0.0114416
0.011825
0.0109222
0.0104223
0.0097323
0.00912496
0.00861558
0.00820181
0.0078827
0.00762794
0.00734126
0.00725032
0.00700392
0.00653199
0.00700948
0.00738067
0.00767433
0.00795855
0.00822185
0.00845635
0.00867783
0.00901028
0.00916413
0.00910086
0.00898082
0.00884645
0.00862865
0.00823833
0.00708969
0.00420037
0.00248218
0.00224387
0.00230789
0.00256356
0.00251344
0.00253308
0.00214199
0.00122227
0.00155575
0.002352
0.00275847
0.00273375
0.0027509
0.00285704
0.00254512
0.00442853
0.00457411
0.00722014
0.00848087
0.00897885
0.00933525
0.00965505
0.010014
0.0103684
0.0101057
0.00946854
0.00904405
0.00865891
0.00830526
0.00798897
0.00770108
0.00739327
0.00758192
0.0078495
0.00812873
0.00849854
0.00896691
0.00955863
0.0103025
0.011304
0.0117212
0.0109583
0.010271
0.00969885
0.00918742
0.0086318
0.00777843
0.00697407
0.00447025
0.00455371
0.00245677
0.00262916
0.00289439
0.00288981
0.00287843
0.00282472
0.00240569
0.00183178
0.00216502
0.00204022
0.00358506
0.00399445
0.00437068
0.0044755
0.0026128
0.00262075
0.0026953
0.00283481
0.00273729
0.00271698
0.00390939
0.00391562
0.00396634
0.00409763
0.00421136
0.00308045
0.00341264
0.00437683
0.00429709
0.00364885
0.00351045
0.00369367
0.00361968
0.00445285
0.00436954
0.00418257
0.00416003
0.00313259
0.00341464
0.00427803
0.0041444
0.00331148
0.00302628
0.00337025
0.00123405
0.00232855
0.00191593
0.00325679
0.00407795
0.00438696
0.00518092
0.00503491
0.00494963
0.0048504
0.00398676
0.00368192
0.00339078
0.00478253
0.00470268
0.00388151
0.0039843
0.0045033
0.00417582
0.00523099
0.00532087
0.00498922
0.00475849
0.00309174
0.00473359
0.00486313
0.00496816
0.00469395
0.00415259
0.0036842
0.0034205
0.00411207
0.00409256
0.00406395
0.00347382
0.00293359
0.00234139
0.00331837
0.00355621
0.00428046
0.00413646
0.00392716
0.0029981
0.00310974
0.00222915
0.00251913
0.00265044
0.00245015
0.00207552
0.00365372
0.00564718
0.00642524
0.00652296
0.0065434
0.00650732
0.00637603
0.00552658
0.00352468
0.00348647
0.00358578
0.00355894
0.00357262
0.00355573
0.00345214
0.00352499
0.00343994
0.00344016
0.00340454
0.00337017
0.00324973
0.00290867
0.00280746
0.00472988
0.00482856
0.00539763
0.00583631
0.00596401
0.00598942
0.00597654
0.00583505
0.00548869
0.00509347
0.00489062
0.00548375
0.00560953
0.00567771
0.00577542
0.00589481
0.00595137
0.00613264
0.00597451
0.00571387
0.0054383
0.00525605
0.00539444
0.00535844
0.00538445
0.00542669
0.0054432
0.00589144
0.00555261
0.00560328
0.00629418
0.00643224
0.00648002
0.00646037
0.00633877
0.00568765
0.00356301
0.00198584
0.00235042
0.00254178
0.00253473
0.00235124
0.00220464
0.00235251
0.00240614
0.00228081
0.00194567
0.0036573
0.00364574
0.00566702
0.00632455
0.00644668
0.0064544
0.00638819
0.00624309
0.00625158
0.00637389
0.00644862
0.00646647
0.00640358
0.00613932
0.00591863
0.00353422
0.00365023
0.00173629
0.00189971
0.00218905
0.00228744
0.00229423
0.00217422
0.00191721
0.00200393
0.00193193
0.0018945
0.00355291
0.00362131
0.00325514
0.00335271
0.00207569
0.00324082
0.00425015
0.00444065
0.00460997
0.00356662
0.00412175
0.00307893
0.00314716
0.00413881
0.00412039
0.00391855
0.00406763
0.00426806
0.00445058
0.00415079
0.00417013
0.00647657
0.00447866
0.00451639
0.00419105
0.0046029
0.00466439
0.00456593
0.0042598
0.00737577
0.00558193
0.00502512
0.00478696
0.00547013
0.00543275
0.00512184
0.0034192
0.00370834
0.00383851
0.00393299
0.00446461
0.00441266
0.00528394
0.00538771
0.00500388
0.00458643
0.00444391
0.00390864
0.00379028
0.00527528
0.00601373
0.00609392
0.00402716
0.0046916
0.0061257
0.00643435
0.00674366
0.00675785
0.00664631
0.00375655
0.00359924
0.00347726
0.00325868
0.00302419
0.00339808
0.00377599
0.00415297
0.00431955
0.00475112
0.00519209
0.0056741
0.00575372
0.00539241
0.00601306
0.0059735
0.00589912
0.00581949
0.00575138
0.00491591
0.0069731
0.00641675
0.00596852
0.00541676
0.00334931
0.00208383
0.00241844
0.00270342
0.0026031
0.00392531
0.00487497
0.0039171
0.00517706
0.00522408
0.00543889
0.00480742
0.00456368
0.0051247
0.00587315
0.00564861
0.00567255
0.0070633
0.00566767
0.00581363
0.00603629
0.0058641
0.00654735
0.00582413
0.00547743
0.00574176
0.00614318
0.00553746
0.00516102
0.00552753
0.00569762
0.00490442
0.00464823
0.00410189
0.00317434
0.00348395
0.00372136
0.0036143
0.00403182
0.00487025
0.00549047
0.00420666
0.00538875
0.00539992
0.00536886
0.00529274
0.0058072
0.00684544
0.00655486
0.00693971
0.00683634
0.00671752
0.00625701
0.00596731
0.00552371
0.00599654
0.00611738
0.00608567
0.00578902
0.00546345
0.00597095
0.00551055
0.00467329
0.00485097
0.00565172
0.00586535
0.00519486
0.00529953
0.00595969
0.00662399
0.00639524
0.00571029
0.00526528
0.00573384
0.00587452
0.00519169
0.00494799
0.00436639
0.00456498
0.0054176
0.00566774
0.00490196
0.00489207
0.00495994
0.00485187
0.00577963
0.00628886
0.00604131
0.006166
0.00646683
0.00674002
0.00682109
0.00659737
0.00687498
0.00682015
0.00706544
0.00683783
0.00685274
0.00672917
0.00653354
0.00608398
0.0063933
0.00521706
0.00613541
0.00671219
0.00629322
0.00658921
0.00615144
0.00670016
0.00717676
0.00462673
0.00459831
0.00423616
0.00454233
0.00691368
0.0077596
0.00643761
0.00638555
0.00539732
0.00551342
0.00643842
0.0063299
0.00616466
0.00602221
0.00851407
0.00814616
0.00619982
0.00732781
0.00692089
0.00667311
0.00656988
0.00652158
0.00644462
0.00633727
0.00621186
0.00607664
0.00595789
0.00587143
0.00567625
0.00519225
0.00535387
0.0054617
0.00545358
0.00554886
0.00579152
0.00591411
0.00578626
0.00569814
0.00558772
0.00549872
0.00547958
0.00542606
0.00518492
0.00500038
0.00471536
0.00483956
0.00487675
0.0049401
0.00500295
0.00487649
0.00517629
0.00561405
0.00585634
0.00583338
0.00568554
0.00552329
0.00516683
0.00528706
0.00551395
0.00579201
0.00606966
0.00626514
0.00641854
0.00655088
0.00673958
0.00709872
0.00760933
0.00769074
0.00683214
0.00601348
0.00580903
0.00551517
0.00512253
0.00466162
0.00445534
0.00454458
0.00510987
0.00507713
0.0057794
0.00598818
0.00620618
0.00624236
0.00589345
0.00380383
0.00408943
0.00407246
0.00392486
0.00391254
0.0038328
0.00384433
0.0040901
0.00411406
0.00385013
0.00374189
0.00385178
0.00383088
0.00350766
0.00309534
0.00327946
0.00331494
0.0033867
0.00333918
0.00327719
0.00321787
0.00316142
0.00311688
0.00306736
0.0030461
0.00291496
0.00464047
0.00526416
0.00498822
0.004497
0.00396428
0.00442034
0.00484116
0.00443547
0.00280411
0.00301875
0.0029574
0.00304416
0.00299845
0.00299571
0.00301936
0.00301543
0.00303616
0.00301333
0.00303369
0.00286779
0.00282256
0.00293027
0.00350255
0.00357548
0.00185005
0.00181947
0.0016124
0.00156979
0.00170253
0.00173113
0.00176172
0.0017629
0.00177058
0.00177065
0.00179383
0.00178472
0.00173701
0.0015828
0.00164576
0.00278743
0.00265868
0.00414482
0.00257547
0.0015108
0.00158326
0.00182843
0.0018852
0.00195746
0.00191677
0.00176109
0.00171299
0.00170745
0.00169909
0.001659
0.00163492
0.00182717
0.00220403
0.00240767
0.00223298
0.00238698
0.00271805
0.0025352
0.00191439
0.00141471
0.00114709
0.00116018
0.00118771
0.00121492
0.00121877
0.0012218
0.00121528
0.0012086
0.00119631
0.00121363
0.00134931
0.00163564
0.00186622
0.00162979
0.00171971
0.00157875
0.00139067
0.0023628
0.00372396
0.00233569
0.00136617
0.00153998
0.00141152
0.00145495
0.00124815
0.00134361
0.00149852
0.00130832
0.00120763
0.00107304
0.00101759
0.00105164
0.00106386
0.00107584
0.0010793
0.00107477
0.00104977
0.000996032
0.00109962
0.0014045
0.00167796
0.00210403
0.00243461
0.00195454
0.00156162
0.00131681
0.00105706
0.000696123
0.000710947
0.000718974
0.000810886
0.000817515
0.000841285
0.000852205
0.000863007
0.000866196
0.000868138
0.000868096
0.000843978
0.000841731
0.000832733
0.000825875
0.000803639
0.000799417
0.000787057
0.00078581
0.000784333
0.000782944
0.000735946
0.00073266
0.000712893
0.000705629
0.000684782
0.000682257
0.00068265
0.00068584
0.000690685
0.000685933
0.000681325
0.000678329
0.000677636
0.000672872
0.000663411
0.000658814
0.000644882
0.000948448
0.00104972
0.00114594
0.00136343
0.00159943
0.00175066
0.00155128
0.00262638
0.00411636
0.00254418
0.00148193
0.00166146
0.00151469
0.0012691
0.00120194
0.00119044
0.00121857
0.00102247
0.00105287
0.00113184
0.00103036
0.000927083
0.000628853
0.000644497
0.000651443
0.000661206
0.000667287
0.000669742
0.000674911
0.000681842
0.000688035
0.000689286
0.000686749
0.000681192
0.000679796
0.000667748
0.000662568
0.00063573
0.000633427
0.000670186
0.000354222
0.000378069
0.000402304
0.000410148
0.000419652
0.000421936
0.000433838
0.000432344
0.000432539
0.000420903
0.000412922
0.000406188
0.000404478
0.000398922
0.000387529
0.000353208
0.000391591
0.00063074
0.000626911
0.000383263
0.000335803
0.000591379
0.000922973
0.000594377
0.000361322
0.00042064
0.000450849
0.000415571
0.000461843
0.000440583
0.000460448
0.000478952
0.00048843
0.000500958
0.000511215
0.000517935
0.000518941
0.000531797
0.000517366
0.000511633
0.000496522
0.000470338
0.000436806
0.000409095
0.000450949
0.000471683
0.000495846
0.00053097
0.000503157
0.000517958
0.00055844
0.000556725
0.000554626
0.000545438
0.000510277
0.000487284
0.000507535
0.000481748
0.000499165
0.000474004
0.000486491
0.000459146
0.000427626
0.000360394
0.000584885
0.000912032
0.000584718
0.000360538
0.000427285
0.000468521
0.00049772
0.000502566
0.000511407
0.000513298
0.000528817
0.00051813
0.000471839
0.000507192
0.000200793
0.000354938
0.000280696
0.000347818
0.000287585
0.000390908
0.000487151
0.000489019
0.000508414
0.000426435
0.000409429
0.000400682
0.000406344
0.000417491
0.000400822
0.000440924
0.000435299
0.000545116
0.000541632
0.000542745
0.000556502
0.000452749
0.000486013
0.000450628
0.000509819
0.000494431
0.000511511
0.000520296
0.000567691
0.000673241
0.000662508
0.000656469
0.000534451
0.000350923
0.000429963
0.000319042
0.000408039
0.000215608
0.000516919
0.000525146
0.000510515
0.000549585
0.000559846
0.000561776
0.000559129
0.000532443
0.000749673
0.000707858
0.000792995
0.00028215
0.000580968
0.000396297
0.000577792
0.000421697
0.00057214
0.000713082
0.000751933
0.000733097
0.000594026
0.000639767
0.001804
0.124321
0.00137258
0.00168702
0.00172163
0.00169429
0.00132243
0.000982641
0.00132353
0.000836252
0.00135809
0.000595772
0.00196885
0.00174726
0.0019236
0.00202713
0.000923561
0.000989785
0.00101467
0.00105023
0.000851262
0.000793677
0.000982519
0.00100409
0.106376
0.12919
0.136636
0.130959
0.0989274
0.127409
0.346962
0.546373
0.642134
0.190576
0.00139861
0.00150856
0.00101502
0.00076492
0.000330444
0.000690037
0.00157658
0.138493
0.301124
0.766826
1.39185
1.0023
0.653392
0.334096
0.124662
0.295339
0.120081
0.323258
0.132633
0.169463
0.446951
0.826251
0.641712
0.983818
0.620703
0.998329
1.28258
1.51403
1.77213
1.23833
0.536275
0.154052
0.00102552
0.000540474
0.000645837
0.00155895
0.00114578
0.000486305
0.000689163
0.00162718
0.154546
0.564328
1.36075
1.65239
1.74071
1.64755
1.48259
1.26747
1.39191
1.159
1.19898
0.864207
0.465078
0.167512
0.171193
0.458974
0.850978
1.16666
1.39246
1.41823
1.55194
1.53962
1.69894
1.77112
1.78883
1.68502
1.14348
0.217128
0.00202794
0.000897424
0.000947875
0.0020616
0.214569
1.20946
1.7668
1.82444
1.78094
1.70908
1.70142
1.56109
1.43847
1.25182
1.0096
0.659096
0.359393
0.115701
0.00163852
0.00163959
0.00174952
0.00154216
0.114115
0.299053
0.56997
0.92355
1.16606
1.35368
1.59192
1.71409
1.7852
1.84255
1.89788
1.40008
0.212577
0.00203012
0.000918983
0.000719758
0.00163427
0.131337
0.566719
2.06046
1.86776
1.8013
1.56042
0.85918
0.760977
0.644723
0.475739
0.283902
0.110487
0.00196398
0.00125674
0.00162309
0.164418
0.175967
0.179467
0.181723
0.118141
0.544127
0.123412
0.535568
0.125779
0.00190748
0.00204016
0.000751261
0.00074819
0.000745875
0.00187084
0.00202035
0.000799735
0.000741276
0.00176008
0.00214643
0.000782481
0.000647591
0.00141038
0.00174931
0.000837411
0.000855339
0.00178007
0.00173136
0.000841129
0.000775811
0.000577434
0.000683825
0.000616186
0.00065144
0.000620078
0.000622905
0.00136904
0.00122731
0.00108146
0.00128426
0.00141876
0.00169803
0.00173184
0.00184777
0.00188395
0.00201837
0.00219365
0.00210225
0.00185263
0.00157532
0.00184826
0.00196881
0.00209666
0.00169289
0.00255858
0.00144666
0.00120425
0.00128003
0.00130479
0.000998747
0.00121387
0.00142845
0.00148537
0.00134287
0.00110814
0.00127018
0.00140734
0.00190618
0.00197385
0.00179856
0.00176767
0.00224936
0.00199682
0.00214152
0.00234934
0.00221978
0.00188165
0.00210172
0.00171697
0.00182746
0.00333723
0.01159
0.0183781
0.0302275
0.0367995
0.035169
0.02204
0.0154765
0.00659456
0.00155622
0.00159058
0.00102996
0.0013344
0.0017807
0.00189237
0.00164357
0.00130338
0.00159164
0.00195303
0.00128833
0.00108133
0.00113427
0.00129747
0.00115993
0.000850083
0.000737026
0.00114972
0.00118691
0.00129459
0.00114967
0.000833218
0.000942758
0.00123243
0.00134788
0.00115614
0.00105879
0.000804041
0.000520641
0.00120717
0.0013895
0.00152122
0.00146601
0.00150224
0.00173116
0.00181785
0.00180461
0.00127362
0.00108274
0.00157212
0.0018818
0.00205188
0.00191841
0.00782374
0.00323586
0.00187504
0.00124396
0.00114978
0.00111062
0.00118715
0.000827426
0.00103076
0.00120367
0.00125883
0.00115421
0.00111793
0.000965072
0.00114922
0.00123037
0.0011959
0.0010998
0.000866052
0.00102176
0.00104068
0.00116049
0.00107937
0.000918987
0.000972663
0.00108431
0.00115034
0.00108897
0.00118142
0.000896291
0.00121933
0.00120836
0.00114972
0.00128032
0.00110957
0.00139644
0.00096229
0.000874576
0.00138301
0.000892799
0.000799915
0.0014027
0.000851712
0.000773062
0.00199484
0.00081165
0.000723811
0.00283356
0.000701054
0.000947076
0.00107757
0.00111747
0.000947511
0.00100138
0.00122016
0.00113796
0.00260399
0.00103861
0.000948321
0.000446364
0.000422692
0.000473521
0.000516157
0.000515949
0.000506308
0.000523386
0.000559436
0.000532979
0.000544312
0.000557309
0.000557375
0.000552919
0.00055985
0.000555611
0.000495705
0.000508272
0.000577382
0.000602779
0.000602077
0.000574385
0.000559706
0.000913597
0.00132367
0.00148394
0.00140013
0.00151481
0.00153914
0.0013209
0.00134478
0.00117511
0.00138266
0.00147905
0.00145171
0.00131452
0.00103539
0.00139436
0.00136858
0.00139911
0.00143845
0.00146888
0.000964923
0.00132034
0.00145974
0.00153527
0.00151707
0.00113318
0.00138624
0.00143285
0.00158804
0.00157828
0.00161439
0.0015375
0.00130172
0.000978488
0.00058592
0.000611413
0.000633508
0.000591287
0.000517663
0.000523733
0.000604878
0.000656118
0.000627124
0.000665929
0.00066511
0.000615866
0.000527074
0.000528805
0.000621628
0.000659896
0.000667957
0.000675022
0.0006632
0.000608462
0.000516089
0.000511671
0.000597673
0.000658048
0.00065226
0.000652121
0.000660695
0.000661492
0.000655505
0.000641162
0.000606485
0.000569128
0.000535305
0.000546634
0.000533619
0.000535466
0.000536247
0.000523166
0.000523908
0.000537879
0.000509411
0.000475695
0.000428799
0.000396313
0.000350368
0.00061993
0.000967509
0.00111145
0.00133412
0.00128724
0.00108218
0.00106456
0.0010176
0.00100133
0.000895594
0.000574816
0.000355379
0.00042076
0.000468761
0.000477246
0.000485521
0.000812185
0.000907712
0.00116911
0.00124944
0.00105879
0.0011486
0.00127711
0.00118591
0.00097677
0.00118476
0.00132707
0.00154062
0.00166432
0.0014921
0.0014373
0.00161745
0.00178592
0.00153055
0.00125847
0.000909795
0.0013983
0.0014514
0.00147501
0.00115842
0.0063243
0.00145603
0.00191953
0.00123863
0.00103883
0.00110526
0.00126948
0.00113754
0.000839552
0.000703224
0.00109708
0.00113516
0.00123857
0.00110549
0.000788153
0.000905555
0.00117786
0.0012869
0.00113222
0.00118473
0.000817337
0.000499012
0.000977403
0.00119171
0.00134103
0.00120548
0.0013178
0.0017108
0.00156693
0.00149098
0.001567
0.00105297
0.00105298
0.000956735
0.000872416
0.00249392
0.000892514
0.000808014
0.00229192
0.000998233
0.00088319
0.00118351
0.000958138
0.00102698
0.00106941
0.00111219
0.00214771
0.00240716
0.00212898
0.00164778
0.0015861
0.00168204
0.00203899
0.00206248
0.00205956
0.00151313
0.00112554
0.00165726
0.00226967
0.0023222
0.00199843
0.00141526
0.00157382
0.00158264
0.00139001
0.00101417
0.00100456
0.000968137
0.000903577
0.000965567
0.000946162
0.000938618
0.000938257
0.000800915
0.000963887
0.00101679
0.00105421
0.000967281
0.000831652
0.000984667
0.00101081
0.00117027
0.000986632
0.0010069
0.000736321
0.00108586
0.0012613
0.00144114
0.00149611
0.00141138
0.00112878
0.000766267
0.000928881
0.00118236
0.00134698
0.00123719
0.0011261
0.00121765
0.000948374
0.00111848
0.00127895
0.00114025
0.00105314
0.00121987
0.00125525
0.000881979
0.00118814
0.00121037
0.00128936
0.0013062
0.00102872
0.00121487
0.000808963
0.00132566
0.00127925
0.00121075
0.00122681
0.00129986
0.00360132
0.000823724
0.00101847
0.000972532
0.00370091
0.00119419
0.00135429
0.00108586
0.000980172
0.00254633
0.00115314
0.00121152
0.00100072
0.000932638
0.0020518
0.00108693
0.00112129
0.000938589
0.000933972
0.00164364
0.0010809
0.00105678
0.000903818
0.00101551
0.000506398
0.000590415
0.000648893
0.000624178
0.000659302
0.000618952
0.000649939
0.000597008
0.000614498
0.000544504
0.000531838
0.000511825
0.000511723
0.000498249
0.000503496
0.000504944
0.000505187
0.00050065
0.000491571
0.000470929
0.000450765
0.000400781
0.000644555
0.00064394
0.000639495
0.00063871
0.00233455
0.000965336
0.00043902
0.00037824
0.000622935
0.000618258
0.000964866
0.000949296
0.000913241
0.000585156
0.000573934
0.000355095
0.000420328
0.000468531
0.000465613
0.000488695
0.000477188
0.000433094
0.000363109
0.000366064
0.000588302
0.00060762
0.000376404
0.000448499
0.000438915
0.000473987
0.000488234
0.000508454
0.000494641
0.000498784
0.00044638
0.000376564
0.00060929
0.000617921
0.000381058
0.00045049
0.000502044
0.000510355
0.000501486
0.000837331
0.00109426
0.00116464
0.00127897
0.00123914
0.00109245
0.00102449
0.00118959
0.00134068
0.00125966
0.00127329
0.001399
0.00126235
0.000984849
0.000876578
0.00115091
0.00121814
0.00136891
0.00229921
0.00160348
0.00115795
0.00104872
0.00115665
0.00116243
0.00114306
0.00111376
0.0010124
0.00106522
0.00106086
0.000770502
0.00093251
0.0010754
0.0011332
0.00105521
0.00106063
0.00103746
0.000876708
0.00102853
0.00113213
0.00113985
0.000976576
0.000715229
0.00106083
0.00111626
0.00118549
0.00101664
0.000790008
0.00101377
0.00098109
0.0010376
0.00238864
0.000931983
0.00093292
0.00218727
0.000787538
0.000739077
0.000642786
0.000740989
0.000772145
0.000882153
0.000894507
0.000961329
0.000914839
0.00240085
0.000844201
0.000901157
0.00216959
0.000767709
0.000611274
0.000617197
0.000694499
0.000629773
0.000700976
0.000645307
0.00266436
0.000863582
0.00094866
0.000984679
0.00109736
0.00109079
0.000980894
0.00275137
0.0010168
0.000933568
0.000681836
0.000718627
0.000677176
0.000784243
0.00269934
0.00107573
0.00114267
0.00104939
0.00110197
0.000985885
0.000493089
0.000449922
0.000380572
0.000684858
0.00253137
0.00102863
0.000929555
0.000689313
0.0007928
0.000897766
0.00243191
0.00211931
0.00210596
0.00214686
0.00205913
0.00181564
0.00220443
0.00219743
0.0021698
0.00225607
0.00224175
0.00232892
0.0022665
0.0027934
0.00322904
0.00193258
0.00275317
0.00565889
0.00706151
0.00865458
0.0019478
0.00135518
0.00107878
0.00107861
0.000909184
0.000936999
0.000956147
0.00115377
0.00120491
0.00110685
0.000838907
0.000886663
0.000968482
0.0010254
0.000980415
0.00132737
0.00181282
0.00844062
0.00681777
0.00331271
0.0018768
0.00164685
0.00199565
0.00201398
0.00140789
0.00102461
0.00447225
0.00192643
0.00183053
0.00325882
0.00247327
0.00318145
0.00270745
0.00311479
0.00322072
0.00140886
0.00144305
0.00144348
0.0014528
0.00144597
0.00144835
0.0014402
0.00145761
0.00157788
0.00284445
0.00350636
0.0035451
0.00379722
0.00383392
0.00415381
0.00426155
0.0041194
0.00386836
0.00425819
0.00652812
0.00829473
0.00711943
0.00766725
0.00783879
0.00767901
0.00838292
0.00701114
0.00706623