/*--------------------------------*- C++ -*----------------------------------*\
| =========                 |                                                 |
| \\      /  F ield         | OpenFOAM: The Open Source CFD Toolbox           |
|  \\    /   O peration     | Version:  v2012                                 |
|   \\  /    A nd           | Website:  www.openfoam.com                      |
|    \\/     M anipulation  |                                                 |
\*---------------------------------------------------------------------------*/
FoamFile
{
    version     2.0;
    format      ascii;
    class       volVectorField;
    location    "10";
    object      U;
}
// * * * * * * * * * * * * * * * * * * * * * * * * * * * * * * * * * * * * * //

dimensions      [0 1 -1 0 0 0 0];


internalField   nonuniform List<vector> 
22960
(
(-0.147157 -0.4436 0.257822)
(-0.035352 -0.548543 0.265403)
(-0.0876692 -0.559099 0.119646)
(-0.1316 -0.330683 0.0554959)
(0.268317 -0.183495 0.0546403)
(0.110356 -0.431931 0.082491)
(0.0998681 -0.109319 0.0929193)
(0.118824 -0.20271 0.121909)
(0.274501 -0.165801 0.0618452)
(0.337147 -0.135748 0.0444617)
(0.415683 -0.104766 0.031847)
(0.40045 -0.0915924 0.0696278)
(0.340151 -0.0662837 0.0250358)
(0.30582 -0.0516187 0.0173621)
(0.32226 -0.0272646 0.0135371)
(0.302904 0.0163627 0.0553196)
(0.219782 0.0762572 0.16504)
(-0.091905 0.0299919 0.283141)
(-0.321009 -0.105953 0.223463)
(-0.401555 -0.199525 0.160282)
(-0.295707 -0.255303 0.149671)
(-0.198161 -0.143174 0.147403)
(-0.413873 -0.413775 0.0215304)
(-0.423904 -0.378871 0.0714587)
(-0.38198 0.170773 0.33565)
(-0.548397 0.527394 0.163258)
(-0.672726 0.166936 0.12501)
(-0.887855 0.0385199 0.113804)
(-1.12585 -0.0105388 0.110075)
(-1.26961 -0.0128548 0.0845656)
(-1.36597 -0.0215845 0.0639191)
(-1.43346 -0.0383605 0.0449333)
(-1.46818 -0.0554648 0.0269922)
(-1.46055 -0.0765223 0.0142146)
(-1.39797 -0.110984 0.0144417)
(-1.26917 -0.167657 0.0258746)
(-1.0511 -0.24174 0.0464733)
(-0.729072 -0.326284 0.0577482)
(-0.374931 -0.445112 0.00130931)
(-0.251365 -0.831644 -0.0304157)
(-0.181022 -1.2302 -0.0410366)
(-0.126482 -1.45671 -0.0422673)
(-0.0783252 -1.59132 -0.0368071)
(-0.035277 -1.61933 -0.0339687)
(-0.000951445 -1.56591 -0.0387807)
(0.0276235 -1.44438 -0.0525698)
(0.0589878 -1.24394 -0.0713276)
(0.101212 -0.931942 -0.0873007)
(0.1413 -0.599111 -0.0360575)
(0.272547 -0.258225 -0.130695)
(0.282256 0.638841 -0.201744)
(0.184129 1.09856 -0.122509)
(0.122252 1.41113 -0.0872842)
(0.0787379 1.586 -0.0636695)
(0.0383246 1.68099 -0.0493728)
(-0.000781536 1.70722 -0.0397878)
(-0.00019219 1.668 -0.0411506)
(-0.0080419 1.64248 -0.0260866)
(-0.0311157 1.57723 -0.0152208)
(-0.0583071 1.42869 -0.00712547)
(-0.0874883 1.19041 0.00514507)
(-0.143121 0.92918 0.0153652)
(-0.0297364 0.36098 -0.0228706)
(-0.569854 0.145745 -0.000411083)
(-0.416774 0.657861 -0.0350381)
(-0.0534312 -0.313989 0.00876604)
(-0.211999 0.138398 0.0468274)
(-0.532951 0.203341 0.029927)
(-0.814025 0.17676 -4.15461e-05)
(-1.08649 0.138648 -0.00812384)
(-1.28847 0.147483 0.0203504)
(-1.38889 0.129603 0.0252628)
(-1.46499 0.0918865 0.00648099)
(-1.50772 0.0624869 0.00153588)
(-1.51702 0.0388273 0.00950922)
(-1.49539 0.0189583 0.0242973)
(-1.44705 0.00442245 0.0417187)
(-1.36333 0.000528359 0.0632217)
(-1.22345 -0.00365722 0.0905406)
(-0.978697 -0.0552601 0.0988077)
(-0.76187 -0.200499 0.122069)
(-0.632119 -0.572981 0.168467)
(-0.5135 -0.257137 0.341708)
(-0.450461 0.331372 0.115204)
(-0.427988 0.416516 0.0467088)
(-0.165367 0.127326 0.16212)
(-0.278073 0.277533 0.155261)
(-0.410553 0.214848 0.160488)
(-0.331179 0.127228 0.218973)
(-0.15078 0.0510635 0.258442)
(0.0148611 0.0357968 0.160178)
(-0.034566 0.121714 0.097759)
(-0.110527 0.165736 0.099598)
(-0.221921 0.183338 0.133217)
(-0.224301 0.143366 0.145963)
(-0.223069 0.138642 0.174775)
(-0.177698 0.11526 0.0978618)
(-0.162636 0.128364 0.10253)
(-0.120828 0.124731 0.110646)
(-0.0595235 0.138992 0.12668)
(-0.0233461 0.158939 0.127872)
(-0.111252 0.204119 0.123959)
(-0.0827716 0.108554 0.128027)
(-0.140374 0.0807596 0.106104)
(-0.129257 0.101413 0.106438)
(-0.137662 0.0639802 0.106932)
(-0.156709 0.0535512 0.105398)
(-0.116066 -0.0378094 0.0786967)
(-0.120736 -0.121962 0.190198)
(-0.189519 -0.0625822 0.232065)
(-0.244638 0.0589397 0.246902)
(-0.29745 -0.0219423 0.277782)
(-0.232506 0.00860392 0.299336)
(-0.199159 0.0945655 0.284949)
(-0.215893 0.171959 0.255857)
(-0.245355 0.157501 0.239625)
(-0.275788 0.137574 0.227961)
(-0.348616 0.0237045 0.262273)
(-0.351294 -0.0601259 0.309095)
(-0.32159 -0.0612148 0.339932)
(-0.335437 -0.0184547 0.354707)
(-0.388245 -0.0322031 0.33011)
(-0.434711 -0.144544 0.31342)
(-0.378541 -0.281051 0.285512)
(-0.279567 -0.32922 0.292689)
(-0.201018 -0.405817 0.265195)
(-0.177809 -0.49408 0.143186)
(-0.165405 -0.547185 0.128556)
(-0.137332 -0.565467 0.116876)
(-0.125911 -0.575021 0.275626)
(-0.153895 -0.553005 0.269483)
(-0.166498 -0.486717 0.202649)
(-0.186176 -0.408245 0.310196)
(-0.131606 -0.417716 0.541305)
(-0.200408 -0.326019 0.493737)
(-0.255629 -0.251558 0.576297)
(-0.299209 -0.000640721 0.576432)
(-0.227779 0.185667 0.58065)
(-0.138864 0.240696 0.6094)
(-0.0913109 0.186439 0.587954)
(-0.0998114 0.11273 0.546085)
(-0.106162 0.101262 0.468832)
(-0.0618375 0.130318 0.397174)
(-0.024563 0.0831596 0.398226)
(0.00679326 -0.00319147 0.423485)
(-0.0147423 -0.177007 0.478858)
(-0.0761936 -0.268436 0.480872)
(-0.152072 -0.238296 0.47934)
(-0.147335 -0.0831293 0.501088)
(-0.140112 -0.137169 0.406539)
(-0.0884383 -0.159488 0.419741)
(-0.140798 -0.125181 0.230158)
(-0.133516 -0.0634952 0.157796)
(-0.159717 0.0356883 0.261533)
(-0.136143 0.049626 0.283429)
(-0.121812 0.0888948 0.273548)
(-0.126098 0.0459462 0.253021)
(-0.0943377 0.0873725 0.257537)
(-0.103334 0.206232 0.258676)
(-0.0135534 0.1633 0.30517)
(-0.0054254 0.157566 0.511185)
(0.000767541 0.145447 0.680954)
(-0.00202952 0.120422 0.824324)
(-0.010626 0.0638496 0.913807)
(0.00679695 0.0270058 1.01002)
(0.0153467 0.020444 1.04241)
(0.0364406 0.08424 0.986038)
(0.040462 0.0554931 0.916088)
(0.0426443 0.03426 0.798621)
(0.0535172 0.0180713 0.638355)
(0.0689682 0.00368962 0.428623)
(0.104903 -0.038906 0.241694)
(0.0696393 -0.261783 0.198306)
(0.0107399 -0.152021 0.172689)
(0.122837 -0.164648 0.101155)
(0.0999203 -0.313474 0.108841)
(0.103407 -0.395562 0.123529)
(0.10922 -0.508051 0.122758)
(0.102052 -0.581442 0.110101)
(0.0939417 -0.647092 0.173376)
(0.14419 -0.697641 0.21199)
(0.169495 -0.734454 0.24705)
(0.186769 -0.779379 0.234646)
(0.190061 -0.780535 0.206803)
(0.185123 -0.739783 0.161062)
(0.169432 -0.633664 0.089669)
(0.144049 -0.458787 -0.0201627)
(0.124962 -0.0247119 -0.0933391)
(0.167213 0.357079 0.0406853)
(0.198359 0.460995 0.167281)
(0.214618 0.520214 0.230608)
(0.221809 0.526854 0.262204)
(0.219636 0.507297 0.286206)
(0.215573 0.467757 0.298732)
(0.208382 0.37589 0.296613)
(0.181877 0.343113 0.227819)
(0.117878 0.332671 0.194831)
(0.122154 0.317633 0.129961)
(0.12248 0.253128 0.149519)
(0.11415 0.179698 0.15058)
(0.112605 0.0724252 0.135518)
(0.0421085 0.049317 0.0550239)
(0.159987 0.0742682 0.113842)
(0.129985 0.0643389 0.127928)
(0.139937 0.0622813 0.216166)
(0.271705 0.0739217 0.190951)
(0.429417 0.0870944 0.174982)
(0.545681 0.0949123 0.160581)
(0.640185 0.101536 0.147908)
(0.715542 0.105212 0.136659)
(0.777436 0.106407 0.122755)
(0.837226 0.108681 0.0937164)
(0.883965 0.0914809 0.0678626)
(0.946926 0.0555743 0.0662057)
(1.01515 0.0352301 0.0633098)
(1.09581 0.017709 0.0556655)
(1.19455 -0.000721277 0.0362303)
(1.27594 -0.0217681 -0.000692626)
(1.31046 -0.0412279 -0.0445542)
(1.29155 -0.0575023 -0.0817509)
(1.23612 -0.0666577 -0.10435)
(1.16781 -0.0713568 -0.114228)
(1.10184 -0.0719712 -0.116671)
(1.0417 -0.0710691 -0.114992)
(0.987816 -0.0685599 -0.110611)
(0.938603 -0.0664076 -0.105281)
(0.892528 -0.0614336 -0.0988793)
(0.854977 -0.0503384 -0.0967723)
(0.815154 -0.0442865 -0.0982746)
(0.728632 -0.0514728 -0.0804445)
(0.664462 -0.049544 -0.0626559)
(0.629479 -0.0443207 -0.055033)
(0.593805 -0.0402816 -0.0491119)
(0.558388 -0.0380656 -0.0451725)
(0.514562 -0.033156 -0.0468808)
(0.478815 -0.0259013 -0.0438838)
(0.436349 -0.0144967 -0.0441611)
(0.376366 -0.00380616 -0.0450816)
(0.288625 0.00701118 -0.0460411)
(0.189136 0.0270169 -0.0600754)
(-0.0752253 0.0648248 0.00817047)
(-0.0531694 0.0188199 0.0936507)
(-0.0439128 0.0449178 0.112099)
(-0.0367552 0.0857591 0.12037)
(-0.0443412 0.160103 0.107975)
(-0.0224166 0.226049 0.112583)
(0.00157829 0.405912 0.111909)
(0.0674422 0.447007 0.0883992)
(0.206192 1.13158 0.140158)
(0.775638 0.677866 0.06228)
(0.59081 0.133231 -0.0482446)
(0.959048 -0.197301 -0.18477)
(1.43032 -0.415441 -0.306977)
(1.93041 -0.520577 -0.430585)
(2.28068 -0.472929 -0.494977)
(2.41747 -0.408565 -0.508241)
(2.26342 -0.399032 -0.477603)
(2.05763 -0.303588 -0.45628)
(1.32694 0.0223902 -0.449171)
(0.0204968 0.889841 0.0406288)
(-1.55557 1.81034 0.00724631)
(-0.62583 2.67813 0.0130562)
(-0.375525 1.27966 -0.0248887)
(-0.258273 0.987984 -0.0528311)
(-0.21556 0.661654 -0.0642269)
(-0.187557 0.452401 -0.0646172)
(-0.14001 0.258083 -0.0942779)
(-0.162355 0.170413 -0.134028)
(-0.256399 0.135638 -0.0851308)
(-0.119977 0.172593 -0.10622)
(-0.033587 0.184464 -0.0374704)
(-0.0131386 0.176191 0.0832715)
(-0.0358125 0.165662 0.192583)
(-0.058506 0.153481 0.274237)
(-0.0642768 0.145243 0.332734)
(-0.0815491 0.139615 0.364032)
(-0.0779648 0.135479 0.379074)
(-0.0898084 0.133217 0.383406)
(-0.0800261 0.1321 0.380018)
(-0.0877158 0.131528 0.376627)
(-0.0729654 0.130471 0.370858)
(-0.0772298 0.129316 0.3698)
(-0.0610626 0.125802 0.372771)
(-0.069072 0.124496 0.387663)
(-0.0688358 0.115812 0.406695)
(-0.0916954 0.138675 0.4396)
(-0.0863024 0.157863 0.452732)
(-0.114197 0.161138 0.446506)
(-0.188253 0.182524 0.441594)
(-0.272752 0.251528 0.407438)
(-0.391414 0.229275 0.361007)
(-0.491596 0.229938 0.388732)
(-0.539486 0.314195 0.376278)
(-0.636556 0.212835 0.250172)
(-0.674284 0.206903 0.197793)
(-0.883708 0.112324 0.1751)
(-0.840546 0.119464 0.253761)
(-0.746023 0.152906 0.331892)
(-0.658184 0.169579 0.343254)
(-0.557563 0.167692 0.381782)
(-0.422196 0.151715 0.389963)
(-0.361231 0.118449 0.375349)
(-0.250296 0.10974 0.396484)
(-0.178269 0.118622 0.404324)
(-0.168108 0.123587 0.402479)
(-0.138265 0.12919 0.417349)
(-0.131093 0.128643 0.421366)
(-0.23146 0.119317 0.392134)
(-0.269594 0.119435 0.372375)
(-0.369992 0.108718 0.371181)
(-0.399849 0.100912 0.383027)
(-0.206507 0.10723 0.401967)
(-0.22817 0.109042 0.385872)
(-0.211519 0.111524 0.390304)
(-0.255161 0.110585 0.399004)
(-0.229291 0.114583 0.40476)
(-0.263651 0.113076 0.41037)
(-0.230749 0.117579 0.407897)
(-0.258284 0.117198 0.404002)
(-0.218808 0.125392 0.388337)
(-0.237692 0.128546 0.364129)
(-0.191941 0.140943 0.322208)
(-0.200841 0.147554 0.268287)
(-0.173702 0.163751 0.195638)
(-0.188584 0.169869 0.139416)
(-0.216313 0.178527 0.084191)
(-0.266458 0.178773 0.037999)
(-0.462224 0.16921 -0.00227756)
(-0.660856 0.138747 0.0230418)
(-0.809572 0.0994212 0.0256797)
(-0.931771 0.0740545 0.0215785)
(-1.03667 0.0806117 0.0163621)
(-1.10372 0.10326 0.0164068)
(-1.13655 0.101723 0.0217381)
(-1.18701 0.0879647 0.0189725)
(-1.21353 0.0922097 -0.00355065)
(-1.22871 0.0859471 -0.0274699)
(-1.31349 0.0589536 -0.0253493)
(-1.42874 0.015977 -0.0256282)
(-1.47559 0.00456861 -0.0198568)
(-1.5548 -0.00595665 -0.0310718)
(-1.59395 0.00564343 -0.0135662)
(-1.63778 0.008458 -0.00869887)
(-1.68494 0.00656721 -0.00322207)
(-1.70376 0.00927381 0.0137501)
(-1.68954 0.0150304 0.034046)
(-1.64869 0.0232513 0.0535006)
(-1.59637 0.0354539 0.0696102)
(-1.54995 0.0473338 0.0843649)
(-1.511 0.0575801 0.0987794)
(-1.46942 0.0704974 0.117482)
(-1.41363 0.0843414 0.135829)
(-1.34794 0.0939076 0.144955)
(-1.29291 0.0967352 0.13519)
(-1.25685 0.096584 0.128311)
(-1.23816 0.0971915 0.126254)
(-1.21586 0.11499 0.125819)
(-1.17374 0.162058 0.123358)
(-1.11771 0.171523 0.149169)
(-0.979901 0.15595 0.193196)
(-0.839274 0.128296 0.260432)
(-0.740277 0.0912355 0.307676)
(-0.492421 0.0354996 0.360837)
(-0.261953 -0.0342093 0.39476)
(-0.279984 -0.231047 0.578301)
(-0.279601 -0.303953 0.725936)
(-0.27175 -0.357088 0.708799)
(-0.25603 -0.401863 0.597826)
(-0.250147 -0.433085 0.397164)
(-0.271284 -0.447722 0.192502)
(-0.103726 -0.831578 0.121297)
(-0.0761567 -0.796892 0.317227)
(-0.0869988 -0.727398 0.517451)
(-0.120227 -0.633859 0.619379)
(-0.155888 -0.527599 0.617594)
(-0.207219 -0.386496 0.451808)
(-0.263456 -0.0664196 0.219287)
(-0.288778 -0.288905 0.210212)
(-0.294677 -0.406005 0.270924)
(-0.300417 -0.500002 0.332889)
(-0.30568 -0.505184 0.396761)
(-0.319298 -0.44384 0.45609)
(-0.336608 -0.333337 0.513876)
(-0.3414 -0.184367 0.569135)
(-0.327466 0.0329575 0.597008)
(-0.321185 0.210679 0.466222)
(-0.34356 0.106995 0.410776)
(-0.350392 0.114206 0.50465)
(-0.361539 0.240282 0.52205)
(-0.3568 0.32766 0.499544)
(-0.349602 0.403145 0.466043)
(-0.347302 0.459982 0.416221)
(-0.344597 0.452641 0.316019)
(-0.310033 0.376907 0.24621)
(-0.190492 0.220705 0.144857)
(-0.168019 0.138743 0.12259)
(-0.159426 0.121559 0.0950529)
(-0.143516 -0.0429049 0.0925752)
(-0.158203 -0.0486861 0.127087)
(-0.0478898 -0.163795 0.14616)
(-0.279083 -0.0545137 0.267872)
(-0.233419 -0.0567414 0.165638)
(-0.237857 -0.118265 0.356219)
(-0.425424 -0.136419 0.323682)
(-0.676328 -0.170019 0.29981)
(-0.865732 -0.189486 0.271182)
(-1.02332 -0.195465 0.22715)
(-1.16922 -0.166963 0.296521)
(-1.30083 -0.159205 0.343024)
(-1.39582 -0.174019 0.334098)
(-1.46882 -0.185625 0.318185)
(-1.51175 -0.19101 0.299834)
(-1.53083 -0.192294 0.281381)
(-1.52662 -0.192165 0.260235)
(-1.51094 -0.198025 0.220965)
(-1.48724 -0.190929 0.193899)
(-1.47631 -0.188936 0.142444)
(-1.45319 -0.195225 0.106943)
(-1.42094 -0.18916 0.0873014)
(-1.32608 -0.140145 0.0832971)
(-1.19089 -0.119131 0.0776399)
(-1.04075 -0.144868 0.0708645)
(-0.862297 -0.187615 0.0567033)
(-0.610519 -0.210189 0.0123744)
(-0.341743 -0.168993 -0.107698)
(-0.173234 -0.204334 -0.173606)
(-0.108953 -0.215952 -0.125301)
(-0.0951866 -0.210483 -0.068765)
(-0.0791037 -0.204817 -0.00605643)
(-0.0889005 -0.186946 0.0553226)
(-0.083937 -0.178043 0.0877585)
(-0.102738 -0.167431 0.119207)
(-0.093532 -0.161443 0.121978)
(-0.110072 -0.154838 0.131321)
(-0.096538 -0.153016 0.118697)
(-0.108857 -0.149825 0.123216)
(-0.0906998 -0.148141 0.110415)
(-0.0921203 -0.145251 0.12297)
(-0.0696096 -0.139768 0.125758)
(-0.073429 -0.136791 0.15465)
(-0.0629387 -0.118552 0.170084)
(-0.0898631 -0.156175 0.185704)
(-0.0798497 -0.167998 0.192051)
(-0.0888134 -0.161795 0.24718)
(-0.15972 -0.176379 0.288538)
(-0.255102 -0.264863 0.295954)
(-0.384853 -0.237664 0.292572)
(-0.495032 -0.228199 0.353523)
(-0.551734 -0.319441 0.359078)
(-0.667383 -0.222858 0.254433)
(-0.732261 -0.225108 0.212586)
(-0.694181 -0.681699 0.245909)
(-0.685619 -0.639364 0.274488)
(-0.595399 -0.655191 0.406028)
(-0.522624 -0.409731 0.426551)
(-0.524968 -0.760765 0.31003)
(-0.708487 -1.04043 0.626552)
(-0.655783 -0.750336 0.451873)
(-0.922879 -0.514993 0.472994)
(-0.910134 -0.449874 0.381426)
(-0.887264 -0.490134 0.430909)
(-0.623082 -0.224486 0.476091)
(-0.397284 -0.261227 0.367046)
(0.246225 -0.327958 0.250573)
(-0.0938224 -0.607354 0.526909)
(-0.59445 -0.692239 0.605382)
(-1.1197 -0.778687 0.687881)
(-1.01104 -0.676806 0.525055)
(-0.545943 -0.903186 0.378718)
(-0.441195 -0.826235 0.444971)
(-0.328471 -0.703796 0.405064)
(-0.503584 -1.31312 0.314505)
(-1.06158 -1.23722 -0.0844295)
(-0.990896 -0.731176 0.334017)
(-0.781525 -0.517703 0.470468)
(-1.06859 -0.662953 0.267883)
(-0.985909 -0.81232 0.465272)
(-0.949284 -0.569159 0.441601)
(-1.03093 -0.553277 0.338198)
(-1.2294 -0.194928 0.508396)
(-1.13176 -0.23062 0.379055)
(-1.06195 -0.383135 0.177586)
(-0.961084 -0.342504 0.332743)
(-1.00002 -0.319821 0.400094)
(-0.951349 -0.398748 0.311329)
(-0.888533 -0.532612 0.324627)
(-0.991023 -0.588669 0.351017)
(-1.05219 -0.461721 0.418444)
(-1.15137 -0.454935 0.506615)
(-0.993758 -0.765316 0.372396)
(-0.847814 -0.952692 0.37499)
(-0.96359 -0.939306 0.382137)
(-1.24528 -0.828017 0.273992)
(-0.783923 -0.881894 0.282404)
(-0.826855 -0.866782 0.251152)
(-0.870565 -0.852798 0.244752)
(-0.936791 -0.873445 0.254109)
(-0.931691 -0.864727 0.241868)
(-0.89817 -0.882667 0.259227)
(-0.824586 -0.857004 0.299795)
(-0.871329 -0.918558 0.382665)
(-0.904282 -0.951549 0.43206)
(-1.02755 -1.06285 0.483454)
(-1.13584 -1.14664 0.480407)
(-1.38731 -1.29009 0.40224)
(-1.47388 -1.35699 0.301337)
(-1.5084 -1.41799 0.200559)
(-1.50809 -1.47809 0.142948)
(-1.53486 -1.65383 0.0585492)
(-1.57099 -1.67261 0.0298636)
(-1.59807 -2.32973 -0.00465509)
(-2.4463 -0.553456 -0.499822)
(-1.71664 -0.804583 -0.14204)
(-1.32459 -0.704874 -0.170928)
(-1.00646 -0.428185 -0.167496)
(-0.0220934 0.163727 -0.266009)
(0.843141 0.521305 -0.414617)
(1.28872 0.771247 -0.56928)
(1.58623 1.02973 -0.651647)
(1.65756 1.06563 -0.610738)
(1.47634 0.851423 -0.393636)
(1.20247 0.536092 -0.243647)
(1.05088 0.156863 -0.206504)
(0.645196 -0.613505 -0.0433804)
(0.631954 -0.392105 -0.0451698)
(0.594447 -0.256545 -0.028406)
(0.592665 -0.240909 -0.0258276)
(0.630118 -0.207998 -0.00461583)
(0.675308 -0.188614 0.0123783)
(0.728098 -0.182807 0.031334)
(0.74044 -0.211418 0.0544613)
(0.735926 -0.226441 0.0789461)
(0.743878 -0.271136 0.073734)
(0.739722 -0.288775 0.107886)
(0.718209 -0.316979 0.128381)
(0.685145 -0.33991 0.144188)
(0.645523 -0.353481 0.15226)
(0.603024 -0.363877 0.150597)
(0.551123 -0.357945 0.138967)
(0.555576 -0.415447 0.114973)
(0.564728 -0.497513 0.0944361)
(0.565713 -0.580199 0.0901814)
(0.582608 -0.640572 0.072112)
(0.583948 -0.679716 0.0667109)
(0.56195 -0.695842 0.0686557)
(0.508301 -0.700169 0.0826338)
(0.427867 -0.690559 0.109391)
(0.336129 -0.683335 0.125121)
(0.23913 -0.671991 0.155203)
(0.184948 -0.629923 0.11276)
(0.208033 -0.592598 0.0856711)
(0.207013 -0.527179 0.080968)
(0.165901 -0.428963 0.0817997)
(0.109694 -0.343921 0.08826)
(0.0553616 -0.211112 0.137097)
(0.224195 -0.344251 0.155868)
(0.215587 -0.235557 0.174061)
(0.225721 -0.0826275 0.195416)
(0.355675 -0.106053 0.16703)
(0.457268 -0.116543 0.13664)
(0.533837 -0.118895 0.106114)
(0.536354 -0.140917 0.161115)
(0.51445 -0.148746 0.216236)
(0.555745 -0.158456 0.237487)
(0.600336 -0.159089 0.244902)
(0.643014 -0.156972 0.239561)
(0.681934 -0.150536 0.229621)
(0.711877 -0.140558 0.211548)
(0.732242 -0.139859 0.170087)
(0.7261 -0.136325 0.142647)
(0.73064 -0.131284 0.0987637)
(0.720237 -0.123753 0.0670789)
(0.693538 -0.105516 0.0498076)
(0.644882 -0.0700581 0.0428955)
(0.573807 -0.0550359 0.032617)
(0.496416 -0.0578941 0.0211577)
(0.403387 -0.0655656 0.00756157)
(0.275713 -0.0640452 -0.0178066)
(0.137402 -0.0455262 -0.0762191)
(0.0998414 -0.0302981 -0.106137)
(0.074785 -0.0396316 -0.0829924)
(0.103115 -0.128307 -0.0642208)
(0.113808 -0.172325 -0.0611424)
(0.125704 -0.322974 -0.0627937)
(0.200617 -0.345155 -0.055055)
(0.264521 -0.999903 -0.0371503)
(0.866188 -0.402491 -0.132571)
(1.00852 0.125345 -0.151123)
(1.61182 0.368284 -0.211)
(2.27678 0.483637 -0.309493)
(2.84052 0.488089 -0.402901)
(3.17022 0.405662 -0.460613)
(3.17747 0.343515 -0.480597)
(2.91233 0.314025 -0.464162)
(2.44927 0.209546 -0.425063)
(1.47654 -0.123096 -0.396363)
(-0.00253835 -1.07412 0.100842)
(-1.81838 -2.15994 0.00604734)
(-0.774046 -3.14095 -0.013482)
(-0.47873 -1.52246 -0.0534051)
(-0.337096 -1.15503 -0.0868031)
(-0.281206 -0.780661 -0.0964076)
(-0.246177 -0.537668 -0.0961176)
(-0.184537 -0.303469 -0.139007)
(-0.221614 -0.200547 -0.182053)
(-0.425829 -0.285116 -0.011723)
(-0.539753 -0.260333 -0.000735008)
(-0.846129 -0.459523 0.0146258)
(-0.833906 -0.514348 0.0369929)
(-1.00625 -0.781368 0.0393948)
(-1.09428 -0.879303 0.0441151)
(-1.37192 -1.15477 0.0502645)
(-1.50493 -1.19193 0.0682504)
(-1.68992 -1.45872 0.0940404)
(-2.1366 -1.9702 -0.00379202)
(-2.71774 -1.3811 -0.159351)
(-2.71251 -1.16283 -0.0165661)
(-2.67877 -0.7754 -0.0602031)
(-2.47857 -0.436924 -0.119557)
(-2.28711 -0.197924 -0.124829)
(-1.81899 0.183472 -0.245074)
(-1.07992 0.776859 -0.579232)
(-0.105874 1.25407 -0.908547)
(0.666803 1.41951 -1.01951)
(0.979658 1.16793 -0.647448)
(1.02202 0.719574 -0.31404)
(1.06482 0.134306 -0.161704)
(0.912041 -0.324456 -0.115115)
(0.665748 -0.234435 -0.0547133)
(0.714265 0.0806526 -0.126165)
(0.615458 -0.103907 -0.0606006)
(0.642753 -0.163115 -0.0260684)
(0.667195 -0.186607 -0.0158428)
(0.722756 -0.230812 0.00170446)
(0.742308 -0.264194 0.024252)
(0.744787 -0.274839 0.0560221)
(0.733309 -0.312794 0.0111649)
(0.741411 -0.330298 0.010134)
(0.76154 -0.361291 0.0408066)
(0.739033 -0.407487 0.0580765)
(0.714536 -0.457205 0.0749948)
(0.679218 -0.493474 0.0907442)
(0.636696 -0.521706 0.0994383)
(0.582416 -0.530412 0.102793)
(0.620917 -0.657585 0.0700678)
(0.662481 -0.63067 0.0643858)
(0.697574 -0.587 0.0625314)
(0.714075 -0.524305 0.0546854)
(0.724965 -0.446904 0.0489983)
(0.742165 -0.370282 0.030563)
(0.698509 -0.306911 -0.0186447)
(0.674273 -0.290648 -0.0281582)
(0.72216 -0.307336 -0.00719803)
(0.675051 -0.265102 -0.0312709)
(0.705513 -0.281162 -0.0130205)
(0.660441 -0.218654 -0.027786)
(0.563676 -0.145727 -0.0498101)
(0.4918 -0.0630788 -0.0649231)
(0.605023 -0.130052 -0.0404948)
(0.510337 0.0228859 -0.0961844)
(0.402338 0.297287 -0.201659)
(0.216877 0.584057 -0.271807)
(0.610955 0.482955 -0.22414)
(0.836622 0.405131 -0.176596)
(0.763851 0.914422 -0.441)
(0.455079 1.30363 -0.865117)
(-0.350151 1.49408 -1.29017)
(-1.4224 1.31875 -1.16942)
(-2.48053 0.99583 -1.06404)
(-3.24239 0.497879 -0.80059)
(-3.5516 0.060161 -0.479389)
(-3.61154 -0.295865 -0.218926)
(-3.52652 -0.658846 -0.0441366)
(-3.31546 -0.972444 0.0234973)
(-2.90232 -1.10091 0.0477411)
(-2.42958 -1.25 0.0466197)
(-2.93011 -1.08581 0.03891)
(-3.39638 -0.819717 0.0180771)
(-3.698 -0.473478 -0.062733)
(-3.89924 -0.0599515 -0.237734)
(-3.88179 0.393178 -0.4869)
(-3.55874 0.850797 -0.760094)
(-2.92764 1.26494 -0.982608)
(-2.06201 1.48405 -1.10507)
(-1.13778 1.45647 -1.11026)
(-0.364351 1.32151 -0.910684)
(0.295668 0.999801 -0.555759)
(-0.183194 0.966373 -0.478421)
(-0.755869 1.27699 -0.638576)
(-1.38918 1.51293 -0.908759)
(-2.14034 1.59356 -0.876637)
(-2.83703 1.48483 -0.780495)
(-3.38521 1.16926 -0.617036)
(-3.72531 0.749188 -0.395019)
(-3.76636 0.265417 -0.15034)
(-3.57468 -0.180569 0.0533182)
(-3.2734 -0.544665 0.0523199)
(-2.88493 -0.800829 0.0632888)
(-2.48851 -0.903696 0.0718131)
(-2.7752 -0.744144 0.0600692)
(-3.03446 -0.455449 0.0449772)
(-3.23325 -0.148722 0.0176475)
(-3.24577 0.240634 -0.0952185)
(-3.25621 0.66531 -0.26394)
(-2.9687 1.00322 -0.414487)
(-2.65219 1.29963 -0.543507)
(-2.14843 1.33054 -0.560483)
(-1.58528 1.30227 -0.575247)
(-1.12071 1.10293 -0.447604)
(-0.524786 0.861804 -0.35096)
(-0.285406 0.690165 -0.28804)
(-0.515596 0.657322 -0.279339)
(0.154761 0.348538 -0.222096)
(0.356096 0.124196 -0.115789)
(0.259226 0.142942 -0.160072)
(0.409886 -0.050366 -0.0860391)
(0.222658 0.0378226 -0.113185)
(0.424356 -0.0798391 -0.0782361)
(0.611805 -0.194298 -0.0421641)
(0.513589 -0.199285 -0.059979)
(0.616133 -0.255399 -0.046326)
(0.604459 -0.233198 -0.0635351)
(0.672894 -0.277439 -0.0402142)
(0.626198 -0.232042 -0.0871504)
(0.504581 -0.199721 -0.110243)
(0.486579 -0.199049 -0.0736326)
(0.238859 -0.167425 -0.162764)
(0.325164 -0.120134 -0.137898)
(-0.297761 -0.0287743 -0.200775)
(0.212581 0.00897843 -0.146925)
(-0.209432 0.110831 -0.192084)
(-0.0313485 0.195481 -0.1829)
(-0.458325 0.302591 -0.214053)
(-0.24662 0.370283 -0.241243)
(-0.781039 0.555558 -0.264034)
(-1.43753 0.682042 -0.337378)
(-1.36746 0.882377 -0.379843)
(-2.22692 0.859016 -0.334115)
(-2.81542 0.542824 -0.224646)
(-2.97015 0.0473673 -0.076735)
(-2.73499 -0.404778 0.0501019)
(-2.36014 -0.660117 0.0864676)
(-2.03351 -0.714686 0.0716628)
(-1.99412 -0.841743 0.0757665)
(-1.85312 -1.0113 0.0676706)
(-1.46036 -0.971738 0.0575627)
(-1.12984 -0.74731 0.0542113)
(-0.896661 -0.423211 0.0583189)
(-1.11781 -0.334935 0.0635218)
(-1.21965 -0.268202 0.0667546)
(-1.30524 -0.182755 0.0744811)
(-1.3673 -0.219385 0.0786142)
(-1.41248 -0.499316 0.0620495)
(-1.40669 -0.668482 0.057467)
(-1.28801 -0.584889 0.0557378)
(-1.08677 -0.597667 0.128497)
(-0.923713 -0.338278 0.126767)
(-0.866538 -0.127636 0.135781)
(-0.8367 -0.130848 0.208057)
(-0.786883 -0.116969 0.261504)
(-0.758185 -0.110077 0.291419)
(-0.737368 -0.100081 0.316225)
(-0.717847 -0.0957432 0.322861)
(-0.688173 -0.0915477 0.328594)
(-0.665115 -0.0879137 0.322457)
(-0.643084 -0.0873274 0.312765)
(-0.622087 -0.0947433 0.309418)
(-0.609201 -0.128717 0.315111)
(-0.55082 -0.182431 0.322999)
(-0.655801 -0.174876 0.308647)
(-0.741698 -0.150072 0.311703)
(-0.858246 -0.116502 0.23998)
(-0.937217 -0.112974 0.16947)
(-1.15037 -0.0391663 0.148034)
(-1.29102 -0.00198468 0.111958)
(-1.35956 0.0224067 0.08499)
(-1.3971 0.0513975 0.0686427)
(-1.41461 0.0829054 0.061368)
(-1.39702 0.118689 0.0813774)
(-1.34183 0.154625 0.122944)
(-1.23935 0.194786 0.178713)
(-1.09642 0.227829 0.170838)
(-1.12947 0.205547 0.0571366)
(-0.947816 0.205205 0.0581733)
(-0.818629 0.232725 0.0697056)
(-0.543579 0.297096 0.0890725)
(-0.140286 0.256272 0.109842)
(0.130805 -0.44155 0.0353258)
(0.0651328 -0.248631 0.16017)
(0.069153 -0.24462 0.340115)
(0.0948872 -0.293391 0.406223)
(-0.0303708 -0.164095 0.497038)
(-0.283272 0.169208 0.675448)
(-0.3621 0.255322 0.858551)
(-0.365191 0.280568 0.875504)
(-0.352222 0.240757 0.883489)
(-0.335177 0.195411 0.810957)
(-0.344035 0.176255 0.721725)
(-0.287669 0.0612349 0.559787)
(-0.478812 0.0553009 0.525436)
(-0.52109 0.0983799 0.711541)
(-0.539959 0.133631 0.816869)
(-0.574419 0.166187 0.889641)
(-0.607051 0.194062 0.897138)
(-0.739086 0.205594 0.864427)
(-0.664167 0.237453 0.741206)
(-0.633397 0.287899 0.570126)
(-0.585188 0.281874 0.472122)
(-0.590254 0.314812 0.352065)
(-0.584672 0.324914 0.210526)
(-0.195659 0.263296 0.20236)
(-0.209218 0.251739 0.354859)
(-0.217436 0.228365 0.453807)
(-0.300681 0.223036 0.543941)
(-0.294516 0.473971 0.516675)
(-0.252082 0.470814 0.469035)
(-0.22799 0.601819 0.461245)
(-0.359563 0.684622 0.485506)
(-0.370176 0.558008 0.475706)
(-0.412112 0.535316 0.506402)
(-0.444699 0.711513 0.5324)
(-0.264015 0.602135 0.532987)
(-0.277286 0.622514 0.659884)
(-0.405379 0.294574 0.835454)
(-0.394691 0.464083 0.840708)
(-0.478858 0.621999 0.85294)
(-0.210036 0.778342 0.80033)
(-0.265162 0.709709 0.835066)
(-0.344839 0.546779 0.692127)
(-0.394727 0.65683 0.672009)
(-0.447892 0.626205 0.674704)
(-0.527301 0.654994 0.752462)
(-0.368951 0.704678 0.6952)
(-0.402241 0.612412 0.783109)
(-0.434438 0.521656 0.703492)
(-0.527837 0.388549 0.695952)
(-0.537133 0.503526 0.601397)
(-0.503695 0.436141 0.670918)
(-0.311431 0.652261 0.624283)
(-0.480711 0.659978 0.594621)
(-0.5322 0.694201 0.588286)
(-0.482184 0.658784 0.602435)
(-0.458541 0.576652 0.604934)
(-0.405688 0.527783 0.615116)
(-0.408092 0.610854 0.600654)
(-0.307754 0.617331 0.586736)
(-0.396808 0.688764 0.562087)
(-0.409062 0.571369 0.560146)
(-0.331078 0.513966 0.578531)
(-0.524778 0.724271 0.539926)
(-0.275557 0.899201 0.474746)
(-0.282728 0.726296 0.428325)
(-0.255894 0.691143 0.624767)
(-0.140406 0.83159 0.832295)
(0.0434799 1.21554 0.688446)
(0.119735 1.35904 0.67909)
(0.183986 1.35638 0.723302)
(0.238104 1.30486 0.751283)
(0.297371 1.19239 0.744902)
(0.358096 1.02293 0.697864)
(0.459669 0.699613 0.59784)
(0.491786 0.365099 0.428593)
(0.47487 -0.377692 0.480993)
(0.434116 -0.755521 0.634872)
(0.34301 -1.08299 0.669511)
(0.283028 -1.25015 0.677358)
(0.224198 -1.34555 0.660472)
(0.172955 -1.37256 0.620986)
(0.120727 -1.33442 0.573343)
(0.065962 -1.22471 0.530756)
(0.00374513 -1.05028 0.50696)
(-0.039182 -0.913016 0.618627)
(-0.0910517 -0.754694 0.619714)
(-0.166345 -0.558257 0.446857)
(-0.138554 -0.64919 0.500817)
(-0.115075 -0.716968 0.5763)
(-0.0939178 -0.714976 0.664084)
(-0.0808418 -0.651573 0.751274)
(-0.0697005 -0.54042 0.832214)
(-0.047222 -0.376986 0.899337)
(-0.00994316 -0.153568 0.93165)
(-0.000173222 0.111902 0.796836)
(-0.0413834 0.150611 0.753654)
(-0.0623121 0.25403 0.854267)
(-0.0821156 0.422871 0.856751)
(-0.091181 0.537574 0.826144)
(-0.102602 0.622126 0.778201)
(-0.119656 0.675952 0.707917)
(-0.140556 0.652965 0.596688)
(-0.156213 0.590166 0.479474)
(-0.117489 0.534035 0.417495)
(-0.117396 0.458308 0.322126)
(-0.132788 0.393262 0.257364)
(-0.131736 0.36903 0.246968)
(-0.129749 0.281528 0.236189)
(-0.157774 0.230257 0.256721)
(-0.114233 0.0239846 0.265338)
(-0.274561 0.0402516 0.357799)
(-0.198768 0.0785144 0.462055)
(-0.106495 0.145186 0.362099)
(-0.140368 0.378706 0.419283)
(-0.111435 0.434404 0.410449)
(-0.104549 0.48781 0.41008)
(-0.0856863 0.644089 0.587611)
(-0.0845062 0.679715 0.635817)
(-0.102892 0.701337 0.660614)
(-0.0428376 0.888345 0.799242)
(-0.0250969 0.924754 0.846533)
(0.00574095 0.907519 0.934119)
(0.0344743 0.849308 1.01493)
(0.0612776 0.744722 1.06906)
(0.0949537 0.595663 1.08643)
(0.138996 0.362863 1.06785)
(0.172062 0.20967 0.983784)
(0.231041 0.0590084 0.990834)
(0.208249 -0.290715 1.09315)
(0.136565 -0.581989 1.09687)
(0.0840225 -0.769162 1.04891)
(0.0515785 -0.886859 0.962159)
(0.0219058 -0.948954 0.860997)
(-0.0109057 -0.945567 0.761989)
(-0.0475806 -0.870446 0.676369)
(0.0184698 -1.06227 0.661354)
(0.0654812 -1.15513 0.727738)
(0.107829 -1.17404 0.799103)
(0.155123 -1.13342 0.868245)
(0.212312 -1.02594 0.913264)
(0.278364 -0.843687 0.914874)
(0.354284 -0.561401 0.870827)
(0.43625 -0.152691 0.620112)
(0.372827 0.325295 0.621457)
(0.304501 0.560653 0.864968)
(0.250382 0.807782 0.940126)
(0.199608 0.972302 0.969905)
(0.149756 1.08313 0.952453)
(0.104648 1.14092 0.903034)
(0.0586246 1.15193 0.838929)
(-0.000896592 1.06574 0.786354)
(0.000611679 0.971333 0.783516)
(-0.0193814 0.892078 0.792919)
(-0.022793 0.861941 0.741516)
(-0.0462868 0.834291 0.729043)
(-0.0557559 0.776481 0.693129)
(-0.0746777 0.678941 0.691034)
(-0.0958142 0.573297 0.572285)
(-0.121061 0.532781 0.571511)
(-0.117701 0.282694 0.465932)
(-0.236527 0.301974 0.564353)
(-0.287973 0.336485 0.687894)
(-0.289878 0.418727 0.599032)
(-0.131807 0.555604 0.718235)
(-0.0877459 0.727272 0.805953)
(-0.0795993 0.845667 0.812725)
(-0.0227333 0.982752 0.794621)
(-0.0441312 0.85434 0.7574)