/*--------------------------------*- C++ -*----------------------------------*\
| =========                 |                                                 |
| \\      /  F ield         | OpenFOAM: The Open Source CFD Toolbox           |
|  \\    /   O peration     | Version:  v2012                                 |
|   \\  /    A nd           | Website:  www.openfoam.com                      |
|    \\/     M anipulation  |                                                 |
\*---------------------------------------------------------------------------*/
FoamFile
{
    version     2.0;
    format      ascii;
    class       volScalarField;
    location    "1150";
    object      epsilon;
}
// * * * * * * * * * * * * * * * * * * * * * * * * * * * * * * * * * * * * * //

dimensions      [0 2 -3 0 0 0 0];


internalField   nonuniform List<scalar> 
18258
(
0.0242453
0.0123484
0.00923221
0.00727381
0.0127172
0.0126251
0.0130775
0.0174298
0.0242626
0.0371123
0.0536779
0.048214
0.0435668
0.045289
0.0474457
0.0450179
0.0350568
0.0303173
0.0399915
0.0666913
0.0608251
0.0497339
0.0608064
0.0514894
0.0659467
0.0834396
0.0639755
0.0574713
0.051581
0.048558
0.0420697
0.0242456
0.0343479
0.0528813
0.0724462
0.0793121
0.0851171
0.0900513
0.0952178
0.0973577
0.0976085
0.0923637
0.0831367
0.0679039
0.0497961
0.0381349
0.0293842
0.0318263
0.0445989
0.0450233
0.0555916
0.0853843
0.107759
0.0808261
0.0517637
0.0825075
0.112457
0.144176
0.170655
0.193069
0.200761
0.197324
0.185789
0.169059
0.147618
0.122642
0.101662
0.0847488
0.0669769
0.0571861
0.0462456
0.0383422
0.0327816
0.0291253
0.026926
0.0252075
0.0240476
0.0249734
0.0248574
0.017728
0.0139439
0.0130967
0.00936821
0.00778604
0.00810146
0.00770597
0.00800301
0.00706499
0.00605345
0.00525845
0.00446133
0.00650275
0.00700053
0.00724223
0.0072618
0.00778122
0.00802018
0.0077507
0.00784313
0.007169
0.00754266
0.0120247
0.0137574
0.0174498
0.0156346
0.0109048
0.00900983
0.0100537
0.0106648
0.0132859
0.0125517
0.013323
0.0118145
0.0107965
0.00911004
0.00883665
0.00906266
0.00963194
0.0100288
0.0116411
0.011478
0.0106543
0.0117777
0.0129888
0.0127119
0.0121641
0.0115757
0.014206
0.011406
0.0120864
0.0135772
0.0218764
0.0214064
0.0258996
0.0254225
0.0258539
0.0260334
0.0314048
0.0315261
0.0319071
0.0322253
0.0339791
0.0568857
0.0506728
0.0495578
0.0493622
0.0426981
0.0422404
0.0415629
0.042378
0.0358912
0.0345448
0.0313325
0.0309772
0.0345714
0.043669
0.0611152
0.0883246
0.122222
0.158524
0.188779
0.209767
0.231516
0.23693
0.250856
0.255627
0.256592
0.250973
0.242591
0.233158
0.220335
0.201805
0.188947
0.148565
0.105198
0.0591509
0.0785388
0.0906169
0.100382
0.102266
0.103404
0.0992893
0.0929945
0.0817659
0.0661699
0.0429981
0.0488907
0.0662078
0.068486
0.0692006
0.0548853
0.0528041
0.0490048
0.0489571
0.0642739
0.0738548
0.0621107
0.0859604
0.100974
0.0882714
0.0639676
0.0979991
0.144251
0.0811166
0.0690355
0.0535241
0.0525233
0.0443957
0.0372494
0.0627436
0.0938426
0.129152
0.150406
0.172241
0.189848
0.203117
0.217175
0.188755
0.171431
0.115342
0.20216
0.153614
0.0777278
0.057577
0.0563898
0.0435026
0.0499151
0.0553925
0.0513644
0.0393848
0.0274777
0.0252048
0.0467603
0.0651721
0.0787869
0.0626707
0.079748
0.0900334
0.0973327
0.10273
0.130282
0.0960046
0.10678
0.0767261
0.103991
0.0739438
0.0476845
0.0526919
0.100778
0.160903
0.220632
0.257605
0.146764
0.0743644
0.0552544
0.0555131
0.0533449
0.0481609
0.0598394
0.106483
0.0718706
0.0466287
0.0404838
0.0478578
0.0408634
0.0304201
0.0318837
0.0396004
0.0551774
0.0694894
0.0823887
0.125731
0.121564
0.1468
0.15429
0.12993
0.125531
0.0810004
0.0832248
0.122882
0.0915351
0.0739688
0.103843
0.146808
0.200866
0.247113
0.287506
0.31339
0.302944
0.27412
0.173398
0.0759033
0.0228549
0.017783
0.0168359
0.0173089
0.0105161
0.00628911
0.00583882
0.00664611
0.00699887
0.00590845
0.00544123
0.00543321
0.00577396
0.010176
0.00874619
0.010819
0.0131058
0.0156496
0.0186885
0.0194129
0.0128798
0.00871764
0.00818055
0.00811575
0.00804607
0.00801561
0.00802581
0.00806443
0.00807856
0.00804479
0.00796526
0.00782807
0.00769301
0.00763641
0.00827212
0.0111599
0.0153202
0.0148181
0.0135307
0.0121782
0.0110203
0.00869589
0.015125
0.0128249
0.0109179
0.0133692
0.0164671
0.020809
0.0244466
0.0176311
0.0141143
0.0127732
0.0126464
0.0125308
0.0125742
0.0124501
0.0125128
0.012313
0.0129078
0.0135541
0.0169515
0.0189792
0.0211645
0.0226697
0.0232603
0.0239814
0.0211371
0.0229615
0.0227163
0.0234967
0.0233098
0.0226172
0.020696
0.0189026
0.0176792
0.0190891
0.0236448
0.0322761
0.0266759
0.020698
0.0167434
0.01369
0.0149605
0.0166362
0.0168109
0.0158242
0.0155982
0.0153903
0.0138675
0.0130738
0.0110793
0.01047
0.010013
0.0101656
0.0143527
0.0134964
0.0136901
0.014417
0.0154971
0.0146566
0.0150909
0.0142568
0.0145026
0.014921
0.0169916
0.0185452
0.0177891
0.0164801
0.0159804
0.0137108
0.0158136
0.0156747
0.0169956
0.0185782
0.0190662
0.0190012
0.0183648
0.0167654
0.0186568
0.0220221
0.0256706
0.0246737
0.0243575
0.0204225
0.0192276
0.0202017
0.0214755
0.0223833
0.0224556
0.0222801
0.0223598
0.0263547
0.0259845
0.0247841
0.0227041
0.0202464
0.0175931
0.015159
0.0166365
0.0181199
0.0195131
0.0207844
0.0205542
0.0190229
0.0176615
0.0164283
0.0149334
0.0146484
0.0161034
0.0173279
0.0187622
0.0204813
0.0205591
0.0188418
0.0173437
0.016059
0.0145836
0.0145366
0.0160385
0.017339
0.0187588
0.0202458
0.0196133
0.0184569
0.0172041
0.0159598
0.0145059
0.0145738
0.0158968
0.0169672
0.0180521
0.019003
0.0198527
0.0178927
0.0169816
0.0170711
0.0160816
0.0192592
0.0185042
0.0194474
0.0179979
0.0167773
0.0177836
0.020971
0.0239998
0.0245494
0.0242691
0.020139
0.0205948
0.0205727
0.019158
0.0159389
0.0153404
0.0181044
0.0208345
0.0212944
0.0199911
0.0168976
0.0132653
0.0142812
0.0174332
0.01974
0.01849
0.0183295
0.0169181
0.0158401
0.0161377
0.0138551
0.0165917
0.0266378
0.0241071
0.0220829
0.019604
0.0156038
0.0105639
0.0114595
0.0126106
0.0130261
0.0105332
0.00788738
0.00708153
0.00688803
0.0067294
0.00651012
0.00614065
0.005582
0.00537294
0.0106985
0.026204
0.0365799
0.0358887
0.0241628
0.020904
0.0203539
0.019276
0.00975825
0.00824597
0.00849097
0.0104074
0.00815584
0.00885361
0.0152923
0.0103706
0.0141275
0.0108869
0.0146616
0.0230465
0.0219259
0.0146201
0.00803708
0.00686091
0.00734629
0.00763479
0.0078388
0.00803548
0.00826904
0.008655
0.00997417
0.0156831
0.0202402
0.0177012
0.0167091
0.0152432
0.0187797
0.0212654
0.0232061
0.0259644
0.0160572
0.0117497
0.0165896
0.0271903
0.0246796
0.0232195
0.0171029
0.0176427
0.017076
0.0109756
0.0106321
0.0105536
0.0113666
0.0127484
0.0146734
0.0158413
0.0165923
0.0169201
0.0178285
0.0231061
0.0216284
0.0211244
0.0173604
0.0133749
0.0153501
0.0514337
0.0195458
0.0206546
0.0188832
0.0191561
0.0204392
0.0151558
0.0135223
0.0129431
0.0146493
0.0215136
0.0215107
0.0213655
0.0182231
0.0174351
0.0208615
0.0219568
0.0223686
0.0217416
0.0212886
0.0194239
0.0166495
0.0180771
0.0195914
0.0207812
0.0227886
0.0231375
0.0179149
0.0171897
0.0158013
0.0105129
0.0112573
0.00969541
0.00966436
0.00962778
0.00935336
0.00890458
0.00919338
0.00931203
0.00931065
0.00896591
0.00926237
0.00831519
0.00865171
0.00974059
0.0151785
0.0147491
0.0175448
0.0194535
0.0167046
0.0155482
0.0141892
0.0131696
0.0154143
0.0142532
0.0168249
0.0211645
0.0264382
0.0190811
0.0180847
0.0178581
0.0174509
0.0172914
0.0173409
0.0166519
0.0156562
0.0150935
0.0235316
0.0212416
0.0181256
0.0171793
0.0157499
0.017995
0.0174402
0.0213261
0.0267912
0.0269915
0.0214908
0.021566
0.0189211
0.0200224
0.0222013
0.027021
0.0269476
0.014397
0.00956801
0.0153982
0.0157393
0.0183458
0.0169669
0.0184914
0.019667
0.020396
0.020257
0.0176629
0.018837
0.0196246
0.0206113
0.0185618
0.0165581
0.0173453
0.0161241
0.0152258
0.014727
0.0126575
0.0129012
0.0138693
0.015318
0.0162581
0.0177487
0.0194
0.0194319
0.020098
0.0196914
0.0190994
0.0251939
0.0239521
0.0254925
0.0282034
0.0224127
0.0177829
0.0146634
0.0149729
0.0147375
0.0146442
0.0153878
0.0167436
0.0151206
0.014505
0.0170135
0.0193696
0.0246353
0.0329858
0.028716
0.0261599
0.0331813
0.0313554
0.0381892
0.0286316
0.0281122
0.0208183
0.0262594
0.0304845
0.0391624
0.0254773
0.0209232
0.0223886
0.0255168
0.0347565
0.0327579
0.0331105
0.0411552
0.0399298
0.0361826
0.0311591
0.0353176
0.0212141
0.0301687
0.0321987
0.0268018
0.0256791
0.0307061
0.0310433
0.0329893
0.0283602
0.0267491
0.0178874
0.0274093
0.0313416
0.0330452
0.0277935
0.0205139
0.0279879
0.0205185
0.0191555
0.0202675
0.0137439
0.012693
0.0147655
0.0138384
0.0111693
0.0121148
0.0111346
0.0111196
0.0111985
0.0113111
0.0114408
0.0116936
0.0116566
0.0126615
0.0132933
0.0125696
0.0115171
0.0121905
0.012579
0.0160884
0.0181803
0.0204519
0.0220484
0.0228906
0.0240308
0.0227195
0.024815
0.0236741
0.0251888
0.0248873
0.023797
0.0212379
0.018578
0.0161915
0.0167997
0.0205032
0.0270913
0.022249
0.0172677
0.0140056
0.0116342
0.0129241
0.0161687
0.00870769
0.00790296
0.00758423
0.00739232
0.00724184
0.00639035
0.00567962
0.00743979
0.0126741
0.0163949
0.0209682
0.026821
0.0326187
0.0375956
0.0414617
0.0443686
0.0462835
0.0468647
0.0442443
0.0341359
0.0293524
0.0251819
0.0207864
0.0168438
0.0169088
0.0246583
0.0322956
0.0397719
0.0463297
0.0512098
0.0492561
0.0329393
0.0300356
0.0466544
0.0784101
0.074482
0.0976824
0.110952
0.062891
0.0463882
0.0451791
0.0620565
0.0647122
0.0567979
0.0469264
0.0367471
0.0265661
0.0311743
0.035705
0.0400433
0.0446588
0.0579306
0.0605557
0.059132
0.0561764
0.0525046
0.0479258
0.0415117
0.0336561
0.0254347
0.0188509
0.0137839
0.00810566
0.00725019
0.00765763
0.00703868
0.00893817
0.00849031
0.00863313
0.00829475
0.00846496
0.00823867
0.00828956
0.0073055
0.00655016
0.0102588
0.00955774
0.00948511
0.0100652
0.0132561
0.010106
0.0073955
0.00689753
0.00687032
0.0093746
0.0199975
0.025995
0.0307643
0.0351382
0.0378158
0.0366023
0.0334866
0.028243
0.0225779
0.0203469
0.0172518
0.0146278
0.013321
0.0145662
0.0120028
0.00602407
0.00521206
0.00573646
0.00558968
0.00511472
0.00615553
0.00685175
0.00746893
0.00789351
0.00820288
0.00825896
0.00819161
0.00809539
0.00804536
0.0080195
0.00798528
0.00791477
0.00781412
0.00766759
0.00752787
0.0074616
0.00805242
0.0106676
0.0145994
0.0143783
0.0132656
0.0121577
0.0112991
0.0095816
0.0154313
0.0131018
0.0109836
0.0101548
0.0100044
0.0102947
0.0112379
0.0128584
0.013772
0.0157634
0.0158086
0.0157135
0.0160155
0.0158026
0.0132935
0.0150535
0.0176763
0.0184855
0.0190771
0.0188395
0.0173037
0.0193171
0.0204643
0.0199317
0.0193352
0.016566
0.0192782
0.0231624
0.0235939
0.023845
0.0211812
0.0183519
0.021503
0.0226695
0.0222884
0.0231804
0.021427
0.0221838
0.02791
0.0143745
0.0131552
0.00797682
0.00887552
0.00916039
0.00889015
0.00854418
0.00883929
0.00901001
0.00869535
0.00939335
0.00971713
0.00902716
0.0116848
0.0107386
0.0103202
0.0097461
0.0102148
0.0108271
0.0111509
0.0124158
0.0198061
0.0203019
0.018361
0.0208786
0.0215202
0.0180358
0.0204846
0.0214018
0.0216859
0.0220451
0.0235063
0.0220248
0.02438
0.0236384
0.0222118
0.0214596
0.0381112
0.0251464
0.0165502
0.0152121
0.0148171
0.0148563
0.0167019
0.0124581
0.0139883
0.0097944
0.00848484
0.00811255
0.00785479
0.0087723
0.012079
0.0195177
0.0255932
0.0276496
0.0265103
0.0234352
0.018303
0.0139893
0.0135401
0.0121473
0.011251
0.0110472
0.00741732
0.00517468
0.00651981
0.00660553
0.00718993
0.00760096
0.00793406
0.00818222
0.00831407
0.00837533
0.00844347
0.00854874
0.00866461
0.00876373
0.00884033
0.00889393
0.00895132
0.00906479
0.00936273
0.0105506
0.0152003
0.0196181
0.0185363
0.0170787
0.0157689
0.0165256
0.0172806
0.0180341
0.0222314
0.0190925
0.0219916
0.0206133
0.0196194
0.0182203
0.0189491
0.0207362
0.0164739
0.0163885
0.0111499
0.009734
0.00936407
0.00915733
0.00899762
0.0088424
0.00870056
0.00857319
0.00845216
0.00834707
0.00826569
0.00818917
0.00805521
0.00781964
0.00743353
0.00700865
0.0061998
0.00685875
0.00739002
0.00831325
0.00950579
0.0101755
0.00963447
0.00881496
0.00838064
0.00843218
0.00858758
0.00876889
0.00897875
0.00927142
0.00973527
0.0106974
0.0113776
0.0160344
0.016755
0.0201147
0.0199337
0.0178443
0.0171963
0.0188142
0.0173687
0.0126813
0.0173814
0.0168768
0.0210716
0.0155962
0.0146925
0.0150676
0.0155357
0.0182573
0.0171575
0.0156937
0.0156821
0.0126286
0.0141712
0.0161761
0.0176905
0.0279149
0.0273225
0.0344511
0.0344233
0.0594638
0.0565256
0.0497855
0.053956
0.0237521
0.0464505
0.0543632
0.0495058
0.0429235
0.0273173
0.0437234
0.0666702
0.0965286
0.0695126
0.0568173
0.105744
0.0767569
0.0373747
0.0266041
0.0150251
0.0151237
0.0250892
0.0291448
0.024136
0.0232725
0.033485
0.0348573
0.0280387
0.0287433
0.0311307
0.0300756
0.0325253
0.0281254
0.0274682
0.015532
0.0127402
0.0137577
0.015472
0.0164674
0.0159567
0.0167967
0.0174723
0.0160481
0.0150354
0.0144905
0.0124377
0.0131919
0.0161665
0.0203723
0.02387
0.0172296
0.0138386
0.0125395
0.0123462
0.0121216
0.0120053
0.0116886
0.0115064
0.0110416
0.0112518
0.00978934
0.00980135
0.0103342
0.0104938
0.0106941
0.0108481
0.0109671
0.011077
0.0119502
0.0187141
0.0259035
0.0207301
0.0164361
0.0139677
0.0151486
0.0170589
0.0209421
0.0263453
0.0177883
0.0176052
0.0114711
0.0106866
0.0104806
0.0103126
0.0101627
0.0100673
0.0101296
0.0101352
0.0118633
0.0115102
0.0134851
0.0145703
0.0120388
0.0116101
0.0111419
0.0108583
0.0107031
0.0106208
0.0107118
0.0115728
0.0114042
0.010476
0.010381
0.0105004
0.0107143
0.0110394
0.0114911
0.0120028
0.0129228
0.0126882
0.0111648
0.011173
0.0105187
0.0102095
0.00997942
0.00995629
0.0100081
0.0101486
0.0103694
0.0112798
0.0170625
0.0172441
0.0265497
0.0265388
0.0211017
0.0176462
0.0155033
0.0142562
0.0135288
0.0350798
0.0308245
0.0488635
0.0389366
0.0311587
0.0505642
0.0719694
0.0558967
0.0911023
0.0984343
0.0725172
0.0657663
0.0208805
0.015915
0.0154198
0.0169013
0.0185821
0.0212011
0.0217922
0.0265856
0.0286811
0.017117
0.0164398
0.0155096
0.0248108
0.0229971
0.0196304
0.0177574
0.0163803
0.0189218
0.0207039
0.0149087
0.0149509
0.00962842
0.0106236
0.0103774
0.0100376
0.00991798
0.00983982
0.00986932
0.00996542
0.010246
0.0107428
0.0111259
0.0112836
0.0116256
0.0114172
0.011136
0.0108015
0.0106012
0.0104036
0.0102436
0.0101213
0.0101539
0.0104702
0.0106165
0.00931609
0.00966023
0.00977013
0.00978639
0.0098251
0.00979992
0.00967632
0.00948585
0.00930592
0.00911047
0.00915361
0.0099003
0.01002
0.0100644
0.00990464
0.00979189
0.00978818
0.00973681
0.00973388
0.00973061
0.00961009
0.00929433
0.00857352
0.00842916
0.00903129
0.00937723
0.00955489
0.00963339
0.00960109
0.00952846
0.00929247
0.00911975
0.00892434
0.00860616
0.0081921
0.00685766
0.00712306
0.00746868
0.00794777
0.00844246
0.00887556
0.00916367
0.00931117
0.00939226
0.00930477
0.0090118
0.00848632
0.00843372
0.00882544
0.00901036
0.00897852
0.00872978
0.00833756
0.00778956
0.00710342
0.00643465
0.00591768
0.00566485
0.00526494
0.00658402
0.00714381
0.00766506
0.00815108
0.00862153
0.00913638
0.0093599
0.00944226
0.00942525
0.00927156
0.00894032
0.00841305
0.00842299
0.00889994
0.00921142
0.00933605
0.00932136
0.00910988
0.00868357
0.00778654
0.00699503
0.00636013
0.00579621
0.00522677
0.00509074
0.00534293
0.0051317
0.00535664
0.00594559
0.00674921
0.00752138
0.00811141
0.00852275
0.0086941
0.00863491
0.0083793
0.00828485
0.00841499
0.00836837
0.00807588
0.00752053
0.00678319
0.00598053
0.00533917
0.00514106
0.00545872
0.00579617
0.00548724
0.00439137
0.00493024
0.00546544
0.00604148
0.00693775
0.00810075
0.00871114
0.00903949
0.00920735
0.00914786
0.00885997
0.00841956
0.00840371
0.00882695
0.0091049
0.00914414
0.00899867
0.00867983
0.00815822
0.0067431
0.00532406
0.00472018
0.00438908
0.00394775
0.005562
0.00592457
0.00549778
0.00522488
0.00566674
0.00622313
0.00686463
0.0073864
0.00781058
0.00810708
0.0081999
0.00816022
0.00803134
0.00804331
0.0079956
0.00779352
0.00754009
0.00731461
0.00686136
0.00640395
0.00588443
0.00644109
0.00673925
0.00631127
0.00465462
0.00493992
0.00534282
0.00557983
0.00696909
0.00839628
0.00884196
0.00903246
0.00919155
0.00913688
0.00882613
0.00838567
0.00837283
0.00889216
0.00928041
0.00939351
0.00945559
0.00948283
0.0095231
0.00836526
0.00657081
0.00618528
0.00525673
0.00481051
0.00662843
0.00706053
0.00685722
0.00658736
0.00751072
0.00790356
0.00806079
0.0080911
0.00811494
0.00809048
0.00799507
0.00791797
0.00780573
0.00825364
0.00889329
0.00879268
0.00868592
0.00851382
0.00814424
0.00769541
0.00719938
0.00787207
0.00843859
0.00816396
0.00595256
0.00632132
0.00714289
0.0072485
0.00867451
0.00986536
0.0102333
0.0102933
0.0102387
0.0102492
0.00925988
0.00834046
0.00819512
0.0095432
0.0154863
0.0153381
0.0153921
0.0153411
0.014766
0.014601
0.0140337
0.013783
0.0130823
0.0126406
0.0119501
0.0140033
0.0177514
0.0198415
0.0222226
0.0247299
0.023426
0.0189317
0.0167117
0.0101724
0.00802778
0.00693117
0.0059965
0.00529389
0.00508954
0.0075409
0.00940653
0.0116036
0.0136019
0.013911
0.0163603
0.0203324
0.0309548
0.0492021
0.0415737
0.0392747
0.0401518
0.100874
2.55742
2.77474
2.51383
2.92075
3.3469
0.405801
0.155778
0.291098
0.314131
0.356664
0.337609
0.305495
0.278735
0.290897
0.279152
0.290114
0.270016
0.272792
0.237117
0.236735
0.233927
0.631761
1.00558
1.22099
1.71028
1.72312
1.94395
1.90197
1.92458
1.78054
1.89757
1.64958
1.36828
1.29216
1.2195
1.30937
1.42384
1.23626
1.1218
1.00803
0.917843
0.785557
0.997065
0.756879
0.715231
0.713613
0.745186
0.991977
0.900778
1.03838
0.97768
1.03657
0.645249
0.729654
0.53923
0.450596
0.373962
0.453277
0.610459
0.806879
0.987021
0.747562
0.99589
0.909168
0.885362
0.844423
0.772118
0.733739
0.722063
0.743478
0.756175
0.77138
0.798691
0.819461
0.836993
0.987055
1.04924
1.03747
0.849945
0.761139
0.526952
0.564243
0.598907
0.602883
0.562967
0.54377
0.490925
0.478258
0.432838
0.414576
0.375928
0.357484
0.32552
0.450094
0.771037
0.800601
0.869352
0.923089
0.971771
0.993638
1.00909
0.991634
0.957952
0.890521
0.862387
0.801001
0.906972
1.09094
1.09265
1.00668
0.855272
0.810824
3.75221
4.5572
3.02206
6.49772
9.83319
16.4634
7.5869
2.07855
3.47159
2.38585
2.11858
2.06506
2.17879
3.43061
2.50668
3.28759
2.71322
2.89897
2.24875
2.64328
2.56439
1.98159
1.67964
1.43043
1.35795
1.11618
1.13898
0.93238
0.873554
0.772806
0.621327
0.730154
0.694263
1.57498
2.23799
2.79817
4.39834
4.83421
5.28516
8.36057
6.79918
8.54327
5.09254
5.133
3.79708
3.57382
3.61355
4.97139
7.08897
4.88958
8.52658
4.76146
15.4873
34.6296
9.22261
19.0442
10.9945
9.94861
9.5937
9.88788
14.0465
9.54955
15.556
12.9861
17.286
16.6877
18.0809
14.3214
10.637
11.7615
12.7
16.3271
11.7523
13.8646
10.6139
10.4174
9.58717
7.84177
6.73402
5.08087
5.88733
6.924
7.86177
12.4074
15.6124
17.9761
21.6744
16.0516
18.3288
11.0424
12.0895
9.34784
8.76867
8.8976
11.7082
20.825
14.7682
26.9289
0.496141
0.225842
0.543934
0.229442
0.487705
0.39083
0.403432
0.404383
0.399923
0.461548
0.220077
0.185086
0.177372
0.175234
0.176745
0.100222
0.124412
0.0804083
0.126897
0.228976
0.502372
0.364655
0.140383
0.0825892
0.0545937
0.0429451
0.0634596
0.0612552
0.0979609
0.0993119
0.105605
0.132047
0.227618
0.432318
31.6517
7.11197
1.12154
0.523872
0.282259
0.172875
0.14696
0.165835
0.178012
0.180277
0.168783
0.142905
0.102275
0.0676727
0.0453239
0.0379405
0.0276713
0.0287505
0.039612
0.0531651
0.0491373
0.0647625
0.0831058
0.105786
0.129924
0.149193
0.163734
0.16779
0.155862
0.122012
0.0802694
0.0442674
0.0265036
0.0228753
0.0209553
0.0194644
0.0168249
0.0146325
0.0132017
0.0112787
0.00993846
0.00896218
0.00864158
0.00876148
0.00955774
0.0120891
0.0145477
0.0188341
0.0179513
0.0134409
0.0126123
0.00781303
0.00722435
0.00737238
0.00762344
0.00845606
0.0132344
0.0135421
0.0134192
0.0134444
0.0132597
0.0132347
0.0130617
0.0128805
0.0126592
0.0122301
0.011941
0.0114235
0.0111474
0.0105057
0.0105331
0.0109175
0.0112252
0.0101677
0.0100696
0.00936022
0.0200365
0.0481168
0.0697542
0.0782021
0.0879796
0.0807552
0.041649
0.0227553
0.00785604
0.00772835
0.00821852
0.00886881
0.00842134
0.00616538
0.00669894
0.00784732
0.0109649
0.0108149
0.0108429
0.0125614
0.0130597
0.0144234
0.0149566
0.0153837
0.0156158
0.0156374
0.0157868
0.0155893
0.0157055
0.0155564
0.0156584
0.0152712
0.0271197
0.0255083
0.0261511
0.0261239
0.0271681
0.0266222
0.0260595
0.0250817
0.0243176
0.0228279
0.0212371
0.0197489
0.0177597
0.0185318
0.0179276
0.01122
0.0106698
0.00771474
0.00772431
0.0074302
0.010306
0.00937456
0.00788072
0.0092815
0.00678423
0.00696511
0.0072882
0.0103645
0.0108855
0.0172801
0.017208
0.015208
0.0161219
0.0171063
0.0183702
0.0195199
0.0209122
0.0219435
0.0230292
0.0248652
0.0253243
0.0237422
0.0234716
0.0224457
0.0243994
0.0234069
0.0216436
0.0231213
0.0246756
0.0270313
0.0266595
0.0245582
0.0232514
0.0218318
0.0195627
0.016976
0.0156679
0.0147186
0.0147788
0.0138051
0.0161911
0.0146914
0.010168
0.010391
0.00781929
0.00630219
0.00605288
0.00920323
0.0130398
0.0278961
0.0173711
0.00927538
0.0100962
0.0161695
0.0332386
0.0190668
0.0308772
0.0140218
0.0138602
0.0125996
0.0124823
0.0137559
0.0160121
0.0169981
0.020571
0.0231841
0.0251454
0.0260278
0.0273596
0.0277392
0.0291371
0.0295684
0.0321848
0.0324432
0.0325542
0.0321097
0.0299036
0.0268964
0.0248329
0.0306448
0.0354658
0.0385367
0.0408977
0.0432325
0.0419605
0.0383791
0.037533
0.0356462
0.0345608
0.033164
0.0301246
0.0263489
0.0216181
0.0210999
0.0270374
0.0327064
0.0488995
0.0525944
0.0523358
0.0546475
0.055122
0.0568351
0.0572471
0.0598576
0.0604116
0.0615416
0.0618658
0.0669226
0.0677893
0.0687973
0.0691068
0.0689012
0.069924
0.0699671
0.0475218
0.0426295
0.0387893
0.0322387
0.027073
0.0342956
0.0426533
0.0477011
0.072838
0.0733564
0.0770534
0.0796504
0.0845668
0.0882411
0.0931311
0.097641
0.102085
0.105576
0.107705
0.108159
0.108701
0.107885
0.106653
0.115544
0.150124
0.166687
0.197256
0.212317
0.225207
0.229564
0.220572
0.224175
0.215845
0.218289
0.211727
0.209511
0.203959
0.197336
0.193559
0.186942
0.18275
0.21078
0.15894
0.121862
0.081338
0.0654721
0.0575225
0.0527871
0.0567678
0.0436817
0.0369568
0.0563385
0.0514008
0.0406705
0.0268662
0.0187055
0.0319628
0.047382
0.0641471
0.0813455
0.0970523
0.107305
0.109862
0.108775
0.104099
0.0963506
0.08129
0.0613045
0.042221
0.0348687
0.0321901
0.0282147
0.0222544
0.0178854
0.0157612
0.0141697
0.0123974
0.0111417
0.0105832
0.0107279
0.0110356
0.0132325
0.0173118
0.0173052
0.0115987
0.0111641
0.00767969
0.00776606
0.00802171
0.0133465
0.0134905
0.0209226
0.0233667
0.0220049
0.0226877
0.0224169
0.0227025
0.0223367
0.02114
0.020301
0.01933
0.0184928
0.0177599
0.0169503
0.0161717
0.017491
0.0164569
0.0138746
0.0139766
0.0145763
0.0152105
0.0160895
0.0173467
0.0184226
0.0211167
0.0212974
0.0208023
0.0208996
0.0194387
0.0187263
0.0199859
0.0195151
0.013292
0.0131188
0.0191545
0.0188
0.0186825
0.0224884
0.0209031
0.0214247
0.0225526
0.0224339
0.0194972
0.0181405
0.0165938
0.0154228
0.0140598
0.0125601
0.0121986
0.0149533
0.0132139
0.0108332
0.0120042
0.0144146
0.0170257
0.0184786
0.0204581
0.0231688
0.0241279
0.0263594
0.0277735
0.0298633
0.0306991
0.0355058
0.0361721
0.0340387
0.0321924
0.0311915
0.027423
0.0234964
0.0259134
0.0267825
0.0271582
0.0272579
0.0271328
0.023556
0.0231252
0.021612
0.0210976
0.0195299
0.018976
0.0178215
0.0170677
0.0160545
0.0142288
0.0134639
0.0126559
0.0123065
0.0173727
0.0108467
0.0106107
0.0160128
0.00987209
0.01162
0.0113645
0.0118741
0.0125155
0.010372
0.0151752
0.0103583
0.0112396
0.0114449
0.0143043
0.00986352
0.0194472
0.0616797
0.0916149
0.110407
0.200902
0.241371
0.261871
0.282627
0.297053
0.31304
0.330695
0.348376
0.361479
0.362971
0.337494
0.319108
0.254489
0.22791
0.251677
0.281808
0.194533
0.166967
0.169286
0.170171
0.172798
0.174088
0.177785
0.175776
0.1809
0.176559
0.183891
0.177902
0.184434
0.176961
0.161554
0.144919
0.112316
0.101532
0.0654808
0.0507131
0.0396856
0.0288061
0.0209926
0.0188379
0.0178295
0.0164731
0.0165568
0.0126897
0.0131055
0.00839422
0.00615692
0.00986032
0.0097095
0.00721116
0.00983935
0.0112395
0.0117548
0.0122921
0.012583
0.0192469
0.0192802
0.0246894
0.0245815
0.0291477
0.0347512
0.0359997
0.0396521
0.0570066
0.0575131
0.057258
0.0570715
0.0566423
0.0494252
0.049144
0.0480409
0.0474564
0.0445213
0.0439705
0.041899
0.0407686
0.0378293
0.0370104
0.0358802
0.0362941
0.0399272
0.0542679
0.0958436
0.0289498
0.0273998
0.0201923
0.0144928
0.0211843
0.0159007
0.0153926
0.0135979
0.0187054
0.0134477
0.0137061
0.0165117
0.0170201
0.0163923
0.0212553
0.0265369
0.0233126
0.0256191
0.11416
0.0716491
0.0236021
0.0466647
0.0705085
0.155973
0.202838
0.138505
0.158323
0.182477
0.165582
0.138978
0.108107
0.0807303
0.0568322
0.0433918
0.0114332
0.0133313
0.0183876
0.0398959
0.0593561
0.101121
0.0829067
0.108424
0.14817
0.172535
0.208467
0.199846
0.171802
0.147871
0.144998
0.160599
0.161589
0.103682
0.100677
0.0770231
0.173215
0.218644
0.183767
0.230553
0.242742
0.140802
0.0314124
0.0183655
0.0151198
0.0139158
0.0124398
0.0194107
0.0114495
0.0116442
0.0123524
0.0132779
0.0169425
0.0293679
0.0134301
0.0149146
0.0183377
0.015897
0.0149434
0.0146341
0.014551
0.0151823
0.0165517
0.0215775
0.0216438
0.0212878
0.0159827
0.01727
0.0156871
0.0199853
0.0211949
0.0333337
0.0152492
0.0161897
0.0214754
0.477375
0.024607
0.0178123
0.0231845
0.0218577
0.0300895
0.043881
0.455995
0.043833
0.0350458
0.0585861
0.0608972
0.0655695
0.0692341
0.0727371
0.0752494
0.0791875
0.081837
0.0830696
0.0843005
0.0999763
0.0999693
0.0988976
0.103498
0.0976346
0.0576794
0.0578973
0.0974584
0.105198
0.0594411
0.0410376
0.0385198
0.031224
0.032356
0.0418913
0.0439693
0.0616704
0.0614995
0.102581
0.0935399
0.0949369
0.0966809
0.0916699
0.0921347
0.0942088
0.0941925
0.0754144
0.0731044
0.0713408
0.0682995
0.0647665
0.0618668
0.0589432
0.0558187
0.0531015
0.053032
0.0575062
0.0582572
0.0657001
0.0719494
0.216699
0.147006
0.10525
0.0785132
0.0643713
0.0586288
0.0583974
0.0616582
0.0649084
0.066558
0.0673642
0.0707293
0.0924825
0.094885
0.09775
0.0951806
0.0990077
0.0970703
0.0946073
0.104518
0.112343
0.0656545
0.0677325
0.0478059
0.0446044
0.0325567
0.0331229
0.0236486
0.0196103
0.0195923
0.0195712
0.0198003
0.0226928
0.0317091
0.0318065
0.0464616
0.0463556
0.0517785
0.0753942
0.0724471
0.129214
0.11843
0.108748
0.101415
0.101793
0.103915
0.106519
0.10151
0.0978109
0.0922631
0.0724704
0.0684632
0.0663212
0.0650515
0.0636782
0.0668485
0.0894195
0.144045
0.220231
0.324172
0.424355
0.436334
0.395783
0.245363
0.28635
0.141864
0.16281
0.184315
0.15892
0.167794
0.317014
0.263539
0.372472
0.477888
0.531455
0.597521
0.633849
0.620858
0.49151
0.318534
0.325847
0.43443
0.763278
0.856467
0.74146
0.759802
0.656535
0.539094
0.520913
0.496471
0.560378
0.611588
0.577175
0.59453
0.538856
0.514724
0.444833
0.496344
0.362666
0.326686
0.307116
0.298297
0.357464
0.289288
0.325837
0.267808
0.274063
0.22274
0.228289
0.190576
0.145902
0.138322
0.128232
0.143563
0.162739
0.149084
0.153501
0.134027
0.114566
0.0912316
0.09848
0.0735466
0.069491
0.0703734
0.0798032
0.124474
0.364831
0.172382
0.163163
0.167544
0.177829
0.319251
0.282807
0.724296
0.5076
0.710036
0.474486
0.563194
0.471318
0.363541
0.379025
0.418837
0.599225
0.822727
6.65363
0.284767
4.26363
3.16534
3.32406
3.46986
4.44845
7.81046
7.11124
9.394
6.80667
9.08191
4.97555
4.97494
4.32567
4.47092
4.43805
4.26007
5.17946
6.60627
0.238015
0.090911
0.0854183
0.0856083
0.0873839
0.19774
0.0525601
0.201997
0.0539588
0.213447
0.0495135
0.246664
0.196897
0.0382349
0.019257
0.020089
0.0168069
0.0203748
0.0169226
0.0250467
0.0235416
0.0236969
0.0265718
0.0760641
0.291199
13.7263
1.6364
0.680593
0.779813
1.16863
0.793023
1.19097
1.65622
1.11235
0.553668
0.361764
0.426842
0.51602
0.492919
0.630449
0.9091
0.889831
0.699304
0.703592
0.618938
0.875667
0.884594
1.05043
1.22809
1.12513
0.879378
0.691903
0.583679
1.01026
1.01766
0.9514
0.400158
0.11196
0.0463167
0.048309
0.0354349
0.0373868
0.0346875
0.0538358
0.15699
0.216926
0.129968
0.424582
0.410716
0.561779
0.401025
0.411261
0.324066
0.34865
0.531063
0.580326
0.639939
0.671397
0.721449
0.664407
1.27706
2.18451
2.46965
12.796
17.3754
3.1817
3.08423
13.9261
0.314563
0.0837717
0.0233003
0.0174274
0.016216
0.0161296
0.0150006
0.0155381
0.0159995
0.0169633
0.0188285
0.023195
0.0458319
0.201481
0.203444
0.0643418
0.0324281
0.0229697
0.0196159
0.0170462
0.0163868
0.0155315
0.0154591
0.0150078
0.0156568
0.0174616
0.0237725
0.0773811
0.270948
11.3251
2.43106
2.24964
8.37358
5.7877
0.206644
0.0437786
0.0200923
0.0169262
0.0158836
0.0167536
0.0162655
0.0182108
0.018402
0.0230157
0.025021
0.0317649
0.057076
0.110184
0.315563
9.58649
8.65666
8.37955
7.81361
0.310178
0.115204
0.0543924
0.0382304
0.0346235
0.033817
0.0226485
0.0236725
0.0189819
0.0216402
0.018295
0.0226816
0.0482957
0.211803
5.34551
1.56663
1.69708
1.20772
0.610903
0.653105
0.666643
0.686146
1.76735
4.03968
4.97183
3.41512
3.35159
4.69364
3.16175
2.47438
1.82286
1.74199
2.53884
1.95837
1.82131
1.35239
1.46179
1.06503
1.46436
0.809125
0.974826
1.07047
1.52796
1.39487
1.40795
0.90652
1.0481
1.47206
1.72242
1.64743
0.842052
1.22521
1.01165
0.653192
0.604732
0.630824
0.600654
0.575346
0.572656
0.577055
0.556268
0.573612
0.554109
0.586211
0.546187
0.531225
0.505442
0.524894
0.542294
0.574579
0.358729
0.421011
0.425444
0.439748
0.452189
0.373188
0.44921
0.439792
0.656554
0.991736
0.828405
1.14125
0.67481
0.999919
2.00279
5.20408
2.3271
0.814261
1.34352
1.58106
1.13669
0.626286
2.54922
3.55772
1.2284
1.7826
10.3868
8.43267
16.5248
10.9513
18.5937
6.01499
4.62448
17.7866
6.65636
6.88658
4.49849
4.50852
2.9494
1.5783
1.62071
1.73194
1.22075
1.29306
1.2039
1.12998
1.46826
1.43215
1.87591
2.02549
2.56567
1.80475
1.76657
2.58353
1.05851
1.3921
1.82816
1.81924
1.35255
2.3282
3.14158
2.94744
2.12274
2.32495
3.49059
4.80019
4.55164
3.14918
3.94061
10.1042
13.4849
13.6635
4.20895
19.3303
18.2915
2.06091
0.558192
0.318196
0.0877123
0.0441946
0.0366362
0.0387103
0.143235
0.0458001
0.0569481
0.0453592
0.0720363
0.0693453
0.0865997
0.215624
0.125424
0.213319
0.153747
0.18654
0.119029
0.190427
0.223241
0.232766
0.185101
0.113565
0.209571
0.30212
0.104018
0.348997
0.383733
0.255545
0.327006
0.389692
0.192876
0.987006
0.183569
0.125174
0.143946
0.386811
1.24447
0.214557
0.455795
4.45229
14.7006
3.6554
0.927249
0.671521
0.0552776
0.0300306
0.0314634
0.0277806
0.0194187
0.082808
0.0972356
0.400761
0.206194
0.277157
0.66015
2.92848
2.39495
1.11565
5.46647
10.2715
15.1494