/*--------------------------------*- C++ -*----------------------------------*\
| =========                 |                                                 |
| \\      /  F ield         | OpenFOAM: The Open Source CFD Toolbox           |
|  \\    /   O peration     | Version:  v2012                                 |
|   \\  /    A nd           | Website:  www.openfoam.com                      |
|    \\/     M anipulation  |                                                 |
\*---------------------------------------------------------------------------*/
FoamFile
{
    version     2.0;
    format      ascii;
    class       volVectorField;
    location    "1150";
    object      U;
}
// * * * * * * * * * * * * * * * * * * * * * * * * * * * * * * * * * * * * * //

dimensions      [0 1 -1 0 0 0 0];


internalField   nonuniform List<vector> 
18258
(
(-0.176021 0.114162 0.138682)
(-0.0515352 0.244981 0.158833)
(-0.104676 0.21242 0.0963085)
(-0.0404046 0.0687087 0.0845942)
(-0.226201 0.20078 0.0191996)
(-0.159598 0.358702 0.0174786)
(-0.223152 0.0442667 0.0544609)
(-0.341574 -0.0536216 0.0756066)
(-0.448892 -0.106031 0.108343)
(-0.535922 -0.159769 0.145836)
(-0.621641 -0.217253 0.179987)
(-0.68791 -0.271624 0.309649)
(-0.678722 -0.334323 0.357308)
(-0.622301 -0.445512 0.385873)
(-0.487989 -0.542948 0.369378)
(-0.20506 -0.587228 0.340244)
(0.0739776 -0.373983 0.288589)
(0.0778449 -0.163754 0.298263)
(-0.128456 -0.0788357 0.236771)
(-0.400471 -0.273767 0.116901)
(-0.139049 -0.526394 0.292841)
(-0.198715 -0.365792 0.407256)
(-0.303802 -0.737703 0.301595)
(-0.364663 -0.779304 0.262656)
(-0.13635 -0.708093 0.132625)
(0.00364233 -0.645344 0.183108)
(-0.0176526 -0.340329 0.42285)
(0.173837 -0.113097 0.805241)
(0.298679 -0.0953402 0.893217)
(0.316254 0.0575972 0.913899)
(0.317471 0.184782 0.815581)
(0.167105 0.301575 0.102929)
(0.0772276 0.132591 -0.430238)
(0.0109177 0.080807 -0.722559)
(-0.0675348 0.0778459 -0.897477)
(-0.0577136 0.0739379 -1.07998)
(-0.0708224 0.0731094 -1.21969)
(-0.0991664 0.0911111 -1.31371)
(-0.140816 0.0823596 -1.36125)
(-0.188528 0.0888026 -1.34718)
(-0.238138 0.0751689 -1.26306)
(-0.284691 0.0844232 -1.10926)
(-0.323496 0.0788492 -0.898388)
(-0.354401 0.0799325 -0.643936)
(-0.364142 0.0826478 -0.351159)
(-0.347136 0.0777445 -0.153528)
(-0.156442 0.178587 -0.195013)
(0.362952 -0.0994147 -0.136612)
(0.62962 -0.13022 -0.156993)
(0.675593 -0.112743 -0.166644)
(0.787344 -0.135821 -0.175917)
(0.814724 -0.132706 -0.193475)
(0.508079 -0.00383173 -0.257315)
(0.259969 -0.137919 -0.217908)
(0.113441 -0.0417954 -0.158587)
(0.282584 -0.00958979 -0.168989)
(0.537737 -0.00252031 -0.173663)
(0.792025 -0.03018 -0.177978)
(1.0924 -0.0348843 -0.175818)
(1.42806 -0.0490301 -0.185281)
(1.76257 -0.0647498 -0.183655)
(2.04665 -0.0813043 -0.16674)
(2.24724 -0.0929747 -0.138286)
(2.34733 -0.0990731 -0.102655)
(2.35394 -0.0963725 -0.0680515)
(2.2935 -0.0886705 -0.0413908)
(2.19986 -0.0821522 -0.0247675)
(2.10732 -0.0760272 -0.0180452)
(2.03783 -0.0672263 -0.0190815)
(1.99215 -0.0643769 -0.0237703)
(1.96779 -0.0592387 -0.0262292)
(1.95724 -0.0503473 -0.0207226)
(1.94297 -0.0398578 -0.00374439)
(1.89953 -0.0250543 0.023809)
(1.812 -0.00802446 0.0533827)
(1.69116 0.00933261 0.0766472)
(1.57038 0.021514 0.0794866)
(1.47768 0.0304718 0.0748497)
(1.39961 0.0374995 0.0701975)
(1.3375 0.0501764 0.0628353)
(1.28671 0.0568306 0.0645707)
(1.19308 0.0439901 0.0780208)
(1.09593 0.0186924 0.109461)
(1.01294 0.000393456 0.126873)
(0.905636 -0.0212113 0.119732)
(0.761674 0.0165304 0.145086)
(0.640945 0.081576 0.132663)
(0.517307 0.100542 0.133452)
(0.380329 0.117944 0.117826)
(0.224002 0.126837 0.0956916)
(0.119878 0.189921 0.09128)
(0.121624 0.010828 0.196855)
(0.164013 -0.100744 0.142751)
(0.112946 -0.129798 0.0383195)
(0.104355 -0.115094 -0.143948)
(0.216285 -0.210252 -0.373311)
(0.262435 -0.231579 -0.558657)
(0.203931 -0.138204 -0.730872)
(0.105314 -0.079916 -0.713231)
(0.0362051 0.0596488 -0.48809)
(-0.0934583 0.233292 -0.147693)
(-0.217303 0.192765 0.181726)
(-0.234453 0.0645163 0.156505)
(-0.340345 0.0144432 0.171073)
(-0.274336 0.136761 0.180236)
(-0.248627 0.285344 -0.0413268)
(-0.106704 0.164816 -0.401425)
(0.062721 0.00544005 -0.583781)
(0.332558 -0.0935126 -0.633435)
(0.494913 -0.229593 -0.492085)
(0.351171 -0.210925 -0.282687)
(0.271502 -0.192212 -0.102596)
(0.282721 -0.186866 0.0379122)
(0.280454 -0.140117 0.159152)
(0.224859 -0.0989307 0.190861)
(0.395996 -0.0813883 0.179878)
(0.535033 -0.0633732 0.175433)
(0.587491 -0.0521447 0.163606)
(0.699366 -0.078837 0.159663)
(0.731766 -0.133841 0.131164)
(0.600371 -0.134356 0.133959)
(0.454024 -0.15186 0.138484)
(0.461096 -0.18608 0.033736)
(0.610321 -0.162965 0.0496883)
(0.735639 -0.162146 0.0471705)
(0.904056 -0.14183 0.0795725)
(1.08767 -0.109943 0.109158)
(1.18903 -0.0777864 0.146765)
(1.208 -0.0108013 0.138727)
(1.24518 -0.00919097 0.119364)
(1.33527 -0.00706552 0.13886)
(1.37719 -0.00184621 0.128907)
(1.36884 -0.0125969 0.157557)
(1.32829 -0.0482322 0.19254)
(1.32263 -0.0511551 0.189448)
(1.28552 -0.0620448 0.150418)
(1.2788 -0.0602089 0.13351)
(1.25773 -0.047742 0.107093)
(1.24918 -0.0457391 0.109146)
(1.20131 0.00473054 0.10785)
(1.19428 0.0282444 0.136604)
(1.07655 0.137576 0.270533)
(1.22609 0.0532058 0.253258)
(1.21768 0.0203598 0.157515)
(1.26624 -0.020765 0.126971)
(1.27841 -0.024945 0.117723)
(1.28895 -0.0381958 0.142681)
(1.30784 -0.0415117 0.182004)
(1.35037 -0.0367279 0.216042)
(1.38618 -0.0367225 0.220993)
(1.42305 -0.0128487 0.182316)
(1.43637 -0.00202932 0.137253)
(1.51257 -0.0066256 0.150372)
(1.61058 -0.0168048 0.158491)
(1.74979 -0.0317047 0.142911)
(1.88184 -0.0542759 0.0483804)
(1.96319 -0.0757318 -0.0717745)
(1.98248 -0.0905738 -0.164807)
(1.96497 -0.0965745 -0.201005)
(1.94858 -0.0968971 -0.194914)
(1.95871 -0.0912695 -0.175108)
(2.00573 -0.0827412 -0.144671)
(2.08722 -0.0702878 -0.108072)
(2.19844 -0.0600465 -0.0842346)
(2.31271 -0.0597157 -0.113065)
(2.38973 -0.0608166 -0.173385)
(2.39251 -0.0584399 -0.277228)
(2.2867 -0.050215 -0.392429)
(2.07133 -0.0425748 -0.483808)
(1.771 -0.0367867 -0.540267)
(1.42724 -0.0316346 -0.549053)
(1.08127 -0.0193463 -0.527846)
(0.792791 -0.0243515 -0.459433)
(0.537135 -0.0156712 -0.415435)
(0.283196 -0.0211516 -0.386723)
(0.109194 -0.0398087 -0.360529)
(0.102348 -0.0416579 -0.636915)
(0.0774601 -0.0369474 -0.87287)
(0.0507404 -0.0389997 -1.05729)
(0.0117944 -0.0403369 -1.17587)
(-0.0233718 -0.0280507 -1.21556)
(-0.0600559 -0.0155668 -1.16786)
(-0.0938366 0.00352568 -1.03869)
(-0.119263 0.0274915 -0.820836)
(-0.12106 0.0846759 -0.559306)
(-0.146823 0.132333 -0.0343772)
(-0.193847 0.0249236 0.573057)
(-0.209902 -0.034235 0.759389)
(-0.228214 -0.00299695 0.927761)
(-0.233365 -0.0461171 1.06978)
(-0.318985 -0.105875 1.13296)
(-0.372038 -0.113081 1.14552)
(-0.370599 -0.234551 1.00515)
(-0.299251 -0.253312 0.771147)
(-0.460623 -0.669471 0.687342)
(-0.48582 -0.547345 0.705202)
(-0.414002 -0.414802 0.832984)
(-0.549391 -0.768532 0.85921)
(-0.683742 -0.833748 0.606933)
(-0.474375 -0.7564 0.800115)
(-0.435664 -0.575821 0.742921)
(-0.783563 -0.526132 0.750694)
(-0.902598 -0.4094 0.860906)
(-0.530664 -0.707806 0.825717)
(-0.440055 -0.577797 0.666826)
(-0.32045 -0.32025 0.40657)
(-0.299668 -0.18243 0.400419)
(-0.283264 -0.146304 0.35442)
(-0.23479 0.110476 0.115232)
(-0.162456 0.297949 -0.41739)
(-0.152176 0.189587 -0.63813)
(-0.132388 0.0288832 -0.913139)
(-0.0872074 -0.0568637 -1.08539)
(-0.0288879 -0.0694407 -1.23336)
(0.0382739 -0.101979 -1.26826)
(0.0980094 -0.0986837 -1.23335)
(0.172641 -0.10928 -1.11952)
(0.216669 -0.123505 -0.919706)
(0.261041 -0.146683 -0.705327)
(0.249941 -0.139364 -0.398267)
(0.419812 -0.0492322 -0.637204)
(0.77522 -0.118294 -0.456125)
(0.730959 -0.109652 -0.411138)
(0.632676 -0.0757406 -0.403497)
(0.569355 -0.105072 -0.409207)
(0.131281 -0.0998754 -0.519264)
(0.178336 -0.115741 -0.904439)
(0.258315 -0.223917 -1.05672)
(0.343296 -0.282026 -0.945616)
(0.389283 -0.351339 -0.506106)
(0.199234 0.0427207 0.128691)
(0.265684 0.123423 0.181063)
(0.429097 -0.324239 0.336245)
(0.516104 -0.529024 0.505893)
(0.545633 -0.522688 0.552195)
(0.412571 -0.235374 0.678312)
(0.471489 -0.337848 0.564767)
(0.486792 -0.609951 0.545452)
(0.703977 -0.672915 0.318007)
(0.746125 -0.489081 0.453408)
(0.798395 -0.34577 0.599362)
(0.235976 -0.22598 0.576784)
(-0.235531 -0.269339 0.829857)
(-0.171688 -0.19159 0.681393)
(-0.672683 -0.299201 0.820267)
(-0.468884 -0.183621 0.696181)
(-0.319679 -0.00576269 0.544299)
(-0.218816 0.177355 -0.292836)
(-0.192665 -0.0419977 -0.616108)
(-0.0574951 -0.169026 -1.09941)
(0.104493 -0.157994 -1.24949)
(0.276263 -0.0870574 -1.11752)
(0.437902 -0.108203 -0.698026)
(0.508031 -0.074034 -0.621693)
(0.502877 -0.0435998 -0.610255)
(0.555257 -0.0878236 -0.634295)
(0.59669 -0.121023 -0.726678)
(0.403282 -0.0429223 -0.678178)
(0.361565 -0.0793434 -0.658733)
(0.136221 -0.11396 -0.667927)
(-0.111384 -0.048578 -0.57929)
(0.296671 0.00618073 -0.589047)
(0.35652 0.0156267 -0.606365)
(0.641893 -0.0965147 -0.642608)
(0.575109 -0.097609 -0.368724)
(0.271136 0.0744757 -0.355388)
(0.272652 0.0553125 -0.234076)
(-0.303247 -0.0388278 0.11995)
(-0.308293 0.143194 -0.00530103)
(-0.283424 -0.0252939 -0.447611)
(0.0890322 -0.20205 -0.574963)
(0.36298 -0.280547 -0.568341)
(0.727355 -0.346252 -0.405362)
(0.811458 -0.41904 -0.377638)
(0.772722 -0.290986 -0.295284)
(0.814063 -0.365509 -0.219402)
(0.828707 -0.487501 -0.283969)
(0.741906 -0.433162 -0.27815)
(0.721132 -0.30668 -0.330983)
(0.748382 -0.252193 -0.341343)
(0.794019 -0.312054 -0.211981)
(0.806345 -0.367677 -0.160395)
(0.89331 -0.46484 -0.156543)
(1.1586 -0.631264 -0.117653)
(1.61667 -0.726716 -0.098775)
(1.99365 -0.672256 -0.0381647)
(2.15018 -0.490169 0.0472486)
(2.07014 -0.291105 0.0953027)
(1.90476 -0.163211 0.102764)
(1.8072 -0.0950972 0.0992841)
(1.71037 -0.000258299 0.0988103)
(1.57279 0.0878928 0.0909411)
(1.43537 0.106072 0.0479221)
(1.33082 0.0563065 0.0271619)
(1.24098 -0.00571412 0.0214268)
(1.13918 -0.0551168 0.0231033)
(1.05524 -0.0796912 0.0212533)
(0.997352 -0.0631933 0.0167723)
(0.821122 -0.110753 -0.0240261)
(0.716221 0.00178093 0.00953029)
(0.63293 0.0678601 0.00869419)
(0.497361 0.0224747 0.00634256)
(0.359259 -0.0612901 -0.0133478)
(0.139034 -0.147116 -0.0323271)
(0.225519 -0.308432 0.00130036)
(0.353218 -0.0820112 0.0120277)
(-0.00255756 -0.230348 -0.00923387)
(0.0429288 -0.546135 -0.0505163)
(0.0119255 -0.712703 -0.0526538)
(-0.00811135 -0.876646 -0.0532759)
(-0.0260636 -1.00669 -0.0649953)
(-0.0361019 -1.10263 -0.0958852)
(-0.0466357 -1.15702 -0.105183)
(-0.0581766 -1.21432 -0.118315)
(-0.0884058 -1.27607 -0.134311)
(-0.113507 -1.32081 -0.149632)
(-0.137487 -1.35455 -0.162555)
(-0.159524 -1.37624 -0.173622)
(-0.178559 -1.38762 -0.183293)
(-0.193977 -1.38931 -0.190013)
(-0.206131 -1.38226 -0.193873)
(-0.216175 -1.36759 -0.193995)
(-0.224753 -1.34573 -0.192077)
(-0.233051 -1.31529 -0.186625)
(-0.240725 -1.27442 -0.17826)
(-0.246174 -1.22017 -0.165199)
(-0.244055 -1.15102 -0.147433)
(-0.191086 -1.07158 -0.127025)
(-0.141303 -0.968935 -0.112659)
(-0.165859 -0.868446 -0.0795586)
(-0.189888 -0.754511 -0.0819735)
(-0.205105 -0.543023 -0.0855734)
(-0.27391 -0.450184 -0.0920813)
(0.0224013 0.0533584 -0.116279)
(-0.350913 -0.308342 0.0251073)
(-0.231762 -0.617484 -0.0546477)
(-0.270539 -0.0992596 -0.0111378)
(-0.458248 -0.182425 0.0645053)
(-0.679029 -0.198632 0.0822019)
(-0.842562 -0.20921 0.114022)
(-0.954069 -0.223061 0.144143)
(-1.03486 -0.232457 0.203708)
(-1.1182 -0.244259 0.245219)
(-1.18741 -0.244154 0.301949)
(-1.20112 -0.248388 0.336228)
(-1.17417 -0.250156 0.366157)
(-1.10725 -0.248877 0.394479)
(-0.996448 -0.243215 0.422687)
(-0.84182 -0.230241 0.454125)
(-0.667943 -0.206038 0.493579)
(-0.420813 -0.147061 0.542739)
(-0.137848 -0.118669 0.566807)
(-0.15601 0.0284784 0.822652)
(-0.15929 0.0829685 1.04271)
(-0.158927 0.115237 1.11238)
(-0.160138 0.164326 1.0209)
(-0.16388 0.153442 0.838175)
(-0.151391 0.13141 0.567752)
(-0.124142 0.143491 0.285739)
(-0.225584 0.439591 0.370969)
(-0.507335 0.467539 0.335268)
(-0.692404 0.480561 0.339312)
(-0.917367 0.465283 0.332742)
(-1.09953 0.424513 0.308677)
(-1.22655 0.353047 0.265896)
(-1.28212 0.273142 0.218735)
(-1.26479 0.20601 0.181486)
(-1.23175 0.147822 0.158215)
(-1.18881 0.115136 0.140309)
(-1.0994 0.09244 0.0901693)
(-0.95767 0.0450675 0.0698288)
(-0.76639 -0.0208112 0.0593938)
(-0.50011 -0.114041 0.0189845)
(-0.252656 -0.207757 -0.0190873)
(-0.273736 -0.197533 -0.0665269)
(-0.318045 -0.176973 0.00768422)
(-0.314263 -0.174172 0.0588027)
(-0.272374 -0.156536 0.149869)
(-0.38074 -0.233676 0.11743)
(-0.422597 -0.296947 0.117479)
(-0.326553 -0.287983 0.176185)
(-0.269518 -0.214985 0.0440412)
(-0.140939 -0.1007 -0.0268312)
(-0.14093 -0.0768539 -0.00825826)
(-0.138751 -0.0741761 -0.0361902)
(-0.169466 -0.0556961 -0.0684825)
(-0.167934 -0.501557 -0.149181)
(-0.126381 -0.479695 -0.139062)
(-0.110759 -0.447145 -0.0967508)
(-0.100611 -0.424021 -0.146883)
(-0.266411 -0.537942 -0.032586)
(-0.27603 -0.575329 -0.0269729)
(-0.283292 -0.631595 -0.0853794)
(-0.33703 -0.582808 -0.0214895)
(-0.339991 -0.529903 0.0539294)
(-0.301386 -0.359106 0.0840486)
(-0.444339 -0.317047 0.113894)
(-0.361308 -0.431802 0.0394115)
(-0.347016 -0.522614 0.0128751)
(-0.377714 -0.508517 -0.024939)
(-0.428435 -0.394525 0.0311146)
(-0.497224 -0.346631 0.0723212)
(-0.528827 -0.25491 0.163161)
(-0.591142 -0.215499 0.240827)
(-0.680028 -0.197606 0.255404)
(-0.576442 -0.206761 0.211016)
(-0.516623 -0.187868 0.180637)
(-0.544871 -0.185017 0.117352)
(-0.53943 -0.172104 0.0915333)
(-0.495834 -0.184297 0.000573962)
(-0.761202 -0.0867309 0.0643376)
(-0.97121 -0.00547188 0.0894663)
(-1.07882 0.052047 0.103357)
(-1.12801 0.0749388 0.137924)
(-1.16576 0.0357806 0.237582)
(-1.25048 0.0689592 0.266846)
(-1.31658 0.119375 0.34873)
(-1.33031 0.170824 0.431432)
(-1.27319 0.221929 0.523968)
(-1.14848 0.260985 0.603743)
(-0.975905 0.281409 0.648418)
(-0.775734 0.283663 0.657605)
(-0.623289 0.288766 0.644608)
(-0.342276 0.272482 0.644396)
(-0.43602 0.245012 0.874996)
(-0.468084 0.227687 1.00333)
(-0.460988 0.179871 1.08176)
(-0.44177 0.123648 1.0139)
(-0.440368 0.0585308 0.798044)
(-0.711619 -0.00504192 0.744426)
(-0.722238 0.071546 0.944771)
(-0.740982 0.117362 1.02357)
(-0.745871 0.164363 0.979634)
(-0.69563 0.198867 0.872764)
(-0.838323 0.186445 0.862675)
(-0.880196 0.145977 0.965188)
(-0.883048 0.0884435 1.00115)
(-0.873342 0.0420789 0.926406)
(-0.867019 -0.0389231 0.707017)
(-1.01022 -0.0601902 0.675809)
(-1.02476 0.0206307 0.901105)
(-1.03774 0.0696534 0.966254)
(-1.04596 0.122123 0.944231)
(-1.02104 0.174135 0.854249)
(-1.1646 0.163044 0.804072)
(-1.16513 0.110647 0.892743)
(-1.1484 0.057221 0.914531)
(-1.13124 0.0065494 0.859377)
(-1.11117 -0.0729732 0.640039)
(-1.17125 -0.083624 0.5954)
(-1.19677 -0.00614767 0.79675)
(-1.22312 0.0436715 0.83996)
(-1.25247 0.0918736 0.811405)
(-1.27013 0.141393 0.716778)
(-1.31953 0.110857 0.610014)
(-1.29108 0.0688604 0.709075)
(-1.25266 0.0250241 0.747061)
(-1.21728 -0.0216882 0.716235)
(-1.1872 -0.0934304 0.53965)
(-1.15392 -0.104671 0.472573)
(-1.18202 -0.0413599 0.621183)
(-1.22083 0.000205392 0.640491)
(-1.27512 0.0391494 0.606209)
(-1.30817 0.0742452 0.508915)
(-1.22505 0.0356739 0.414054)
(-1.18833 0.00286447 0.499839)
(-1.12864 -0.0321859 0.530912)
(-1.08646 -0.060078 0.519979)
(-1.04024 -0.111746 0.386634)
(-0.919323 -0.120119 0.315077)
(-0.923577 -0.10936 0.357962)
(-0.972943 -0.0803701 0.438046)
(-0.956872 -0.0870259 0.424819)
(-0.927886 -0.102651 0.394342)
(-1.00458 -0.0684448 0.381045)
(-0.996256 -0.0630967 0.307064)
(-1.00091 -0.0391916 0.282449)
(-1.04391 -0.0272136 0.208828)
(-1.03891 -0.00956641 0.202167)
(-0.806127 -0.105204 0.145059)
(-0.819032 -0.125224 0.157498)
(-0.788101 -0.128424 0.215861)
(-0.82407 -0.141501 0.248979)
(-0.610018 -0.281716 0.132605)
(-0.556951 -0.291431 0.11432)
(-0.50347 -0.326857 0.1319)
(-0.420084 -0.39957 0.115415)
(-0.396814 -0.383985 0.148837)
(-0.4881 -0.284152 0.164652)
(-0.605948 -0.239058 0.183063)
(-0.615221 -0.267869 0.0963029)
(-0.513371 -0.37791 0.0433477)
(-0.43953 -0.460084 0.0274174)
(-0.397302 -0.526289 0.0569671)
(-0.383938 -0.697881 0.121161)
(-0.387044 -0.663254 0.127006)
(-0.40532 -0.380281 0.105858)
(-0.408225 -0.536515 0.0804312)
(-0.399188 -0.60186 0.0426712)
(-0.215675 -0.788134 -0.159948)
(-0.193349 -0.793868 -0.260544)
(-0.115346 -0.703869 -0.369989)
(-0.0785992 -0.623804 -0.386043)
(-0.0451396 -0.588501 -0.348275)
(-0.0135874 -0.555476 -0.301799)
(0.0316096 -0.501463 -0.232161)
(0.124135 -0.454891 -0.10896)
(0.124719 -0.5795 -0.121962)
(0.116836 -0.635816 -0.120214)
(0.0848964 -0.693747 -0.157745)
(0.0923166 -0.748357 -0.155932)
(0.100493 -0.804967 -0.175114)
(0.118268 -0.833234 -0.167163)
(0.126291 -0.839895 -0.152917)
(0.126479 -0.82591 -0.130283)
(0.117751 -0.789675 -0.095798)
(0.104217 -0.732568 -0.042384)
(0.0364916 -0.651676 0.0338976)
(0.00228133 -0.542338 0.155096)
(0.0169218 -0.295369 0.362076)
(-0.151188 0.0204111 0.448648)
(-0.368767 0.0969151 0.349317)
(-0.393446 -0.0380534 0.257296)
(-0.220411 -0.172941 0.2515)
(-0.182077 -0.190287 0.268138)
(-0.159402 -0.180696 0.214906)
(-0.0962742 -0.148241 0.206757)
(-0.00418785 -0.0490566 0.0758998)
(-0.0333806 0.106053 0.0816246)
(-0.0802378 0.143565 0.0808574)
(-0.0485811 0.208796 0.172018)
(-0.0024796 0.175146 0.19533)
(0.0153071 0.018743 0.145012)
(-0.0502402 -0.0373078 0.230646)
(0.0228599 0.0834555 0.3269)
(-0.0047462 -0.0697648 0.287899)
(0.0745808 0.139913 0.249508)
(0.0892172 -0.0252634 0.226159)
(-0.0223473 -0.25237 0.455324)
(0.0488169 -0.355543 0.544917)
(0.171788 -0.498256 0.516151)
(0.168808 -0.690463 0.353487)
(0.0763687 -0.815129 0.145428)
(0.0588505 -0.887492 -0.00703273)
(0.0654979 -0.922568 -0.11927)
(0.0633987 -0.949205 -0.197618)
(0.060318 -0.96399 -0.248793)
(0.0521929 -0.962309 -0.279572)
(0.0420249 -0.942483 -0.292984)
(0.0294118 -0.904951 -0.289848)
(0.0237883 -0.830042 -0.250039)
(0.00741002 -0.784364 -0.329282)
(0.0436265 -0.703478 -0.225625)
(0.0476962 -0.653253 -0.211545)
(0.0448869 -0.635878 -0.232303)
(0.00468982 -0.701864 -0.325767)
(-0.0225638 -0.741566 -0.383694)
(-0.057327 -0.777039 -0.411464)
(-0.0732201 -0.843909 -0.40232)
(-0.13189 -0.904317 -0.346718)
(-0.0939069 -0.968677 -0.332715)
(-0.0888631 -0.979396 -0.373862)
(-0.0537502 -0.918058 -0.418736)
(-0.0435438 -0.867994 -0.432586)
(-0.017726 -0.825693 -0.404913)
(-0.0095078 -0.869111 -0.341748)
(-0.0392223 -0.901502 -0.374796)
(-0.0559522 -0.948242 -0.397284)
(-0.0236267 -0.991285 -0.406408)
(-0.0485916 -1.05961 -0.421223)
(-0.066594 -1.04226 -0.424819)
(-0.0933784 -0.92011 -0.345677)
(-0.18644 -0.761588 -0.225185)
(-0.197836 -0.614277 -0.0416653)
(-0.0997365 -0.733206 -0.197905)
(-0.0794977 -0.83922 -0.260497)
(-0.0593542 -0.928442 -0.324347)
(-0.0609168 -0.945941 -0.335019)
(-0.0278625 -0.829197 -0.38205)
(-0.0240858 -0.724251 -0.338438)
(-0.0322745 -0.541675 -0.255346)
(-0.0165646 -0.353159 -0.165095)
(0.0348641 -0.089332 -0.21093)
(-0.247036 -0.433312 0.0725168)
(-0.328173 -0.460981 0.0256917)
(0.219514 -0.118989 -0.243909)
(-0.172897 -0.247298 0.0427894)
(-0.218057 -0.266478 -0.117675)
(-0.258376 -0.268738 -0.103846)
(-0.208468 -0.281574 -0.0217022)
(0.0811091 0.141013 -0.219525)
(0.102682 0.0598966 -0.232352)
(0.100792 -0.000100565 -0.261578)
(0.0959547 -0.000169656 -0.26638)
(-0.080422 -0.429584 -0.202475)
(-0.133263 -0.449888 -0.223196)
(-0.186385 -0.458223 -0.207023)
(-0.24934 -0.445011 -0.169455)
(-0.169077 -0.547301 -0.184459)
(-0.126941 -0.559142 -0.257609)
(-0.0964063 -0.565447 -0.291996)
(-0.0608594 -0.553691 -0.292493)
(-0.0509409 -0.742668 -0.349734)
(-0.0817254 -0.757278 -0.332577)
(-0.106452 -0.769571 -0.282109)
(-0.147276 -0.759839 -0.194988)
(-0.134588 -0.821589 -0.182542)
(-0.128874 -0.882516 -0.200545)
(-0.0982222 -0.905176 -0.297777)
(-0.0727685 -0.872283 -0.374335)
(-0.0493499 -0.852074 -0.400836)
(-0.0770019 -0.967596 -0.371496)
(-0.112323 -0.989294 -0.336309)
(-0.138251 -1.00954 -0.284038)
(-0.137365 -1.0922 -0.34728)
(-0.0802727 -1.06656 -0.399886)
(-0.0726816 -1.1442 -0.441448)
(-0.0494168 -1.12266 -0.474138)
(-0.0268685 -1.11367 -0.459469)
(-0.00318842 -1.04185 -0.416016)
(0.0122311 -1.07382 -0.407044)
(-0.0126601 -1.1522 -0.470257)
(-0.0398992 -1.17929 -0.494741)
(-0.0687011 -1.20749 -0.463464)
(-0.131739 -1.22802 -0.379466)
(-0.13508 -1.16571 -0.369555)
(-0.28391 -1.04589 -0.225498)
(-0.457714 -1.14535 -0.0769745)
(-0.464098 -1.09943 -0.0674955)
(-0.416296 -1.04511 -0.0648236)
(-0.303099 -1.03564 -0.0739079)
(-0.255867 -0.966924 -0.0641138)
(-0.309402 -0.944423 -0.0577002)
(-0.342528 -0.848627 -0.0422675)
(-0.37826 -0.713345 -0.0379381)
(-0.473982 -0.626705 -0.0367615)
(-0.410066 -0.401418 -0.0341597)
(-0.46512 -0.660684 -0.005869)
(-0.316887 -0.457574 0.024552)
(-0.638702 -0.398727 0.00539643)
(-0.815645 -0.379342 0.0601153)
(-0.918143 -0.384475 0.0845848)
(-0.968138 -0.397259 0.124302)
(-0.980115 -0.525284 0.0977353)
(-0.940499 -0.689361 0.0653423)
(-0.924218 -0.750091 0.0524755)
(-0.874739 -0.84839 0.0364257)
(-0.859139 -0.895543 0.0304524)
(-0.82129 -0.927826 0.00760149)
(-0.704006 -0.967465 -0.023031)
(-0.59282 -1.00199 -0.0420307)
(-0.627053 -0.952605 -0.0172279)
(-0.485233 -0.97162 -0.0307415)
(-0.503144 -0.893357 -0.0301577)
(-0.530757 -0.796931 -0.0233148)
(-0.559598 -0.730774 -0.0195075)
(-0.686715 -0.712371 -0.00982206)
(-0.675265 -0.598124 -0.00781085)
(-0.824429 -0.577202 0.0303206)
(-0.918751 -0.559572 0.0503803)
(-0.881659 -0.697 0.0231258)
(-0.800714 -0.704536 0.0121783)
(-0.777843 -0.789691 0.00226656)
(-0.661213 -0.798154 -0.0107917)
(-0.636061 -0.882508 -0.0170559)
(-0.748791 -0.866104 -0.0051495)
(-0.825819 -0.850496 0.0044284)
(-0.863443 -0.772927 0.013495)
(-0.801949 -0.738844 -0.0118064)
(-0.624399 -0.612016 0.00178136)
(-0.847459 -0.659606 0.011653)
(-0.868396 -0.518308 0.0520073)
(-0.870806 -0.379762 0.0580836)
(-0.843663 -0.282209 0.121517)
(-0.832664 -0.302221 0.0764657)
(-0.879266 -0.35062 0.0525243)
(-0.875535 -0.203893 0.128976)
(-0.894511 -0.184208 0.174017)
(-0.761011 -0.161486 0.158366)
(-0.766706 -0.129023 0.259034)
(-0.777934 -0.120727 0.301736)
(-0.821567 -0.108617 0.355091)
(-0.82901 -0.119242 0.352365)
(-0.642404 -0.181682 0.250694)
(-0.607524 -0.173596 0.248149)
(-0.567643 -0.180441 0.215305)
(-0.551249 -0.175587 0.188762)
(-0.568999 -0.191178 0.12023)
(-0.338471 -0.19472 0.0766312)
(-0.320326 -0.189216 0.101508)
(-0.329404 -0.191932 0.113902)
(-0.360712 -0.198796 0.12403)
(-0.449194 -0.21687 0.141274)
(-0.405277 -0.25334 0.0591425)
(-0.382104 -0.284884 0.0677567)
(-0.410682 -0.340952 0.046508)
(-0.31598 -0.426786 0.0352821)
(-0.311734 -0.394234 0.048442)
(-0.283635 -0.416092 0.0149037)
(-0.192979 -0.419336 -0.0211336)
(-0.33713 -0.254023 0.0348264)
(-0.402987 -0.330777 0.0406175)
(-0.248317 -0.457241 -0.00722517)
(-0.291712 -0.459623 -0.000314849)
(-0.451806 -0.321118 0.0714955)
(-0.524581 -0.298913 0.130866)
(-0.49806 -0.318575 0.135994)
(-0.471001 -0.336736 0.111083)
(-0.458867 -0.350568 0.0940851)
(-0.493363 -0.373112 0.00841422)
(-0.710959 -0.317751 0.0630514)
(-0.718071 -0.529749 0.0388361)
(-0.549233 -0.554274 -0.00194487)
(-0.510131 -0.606947 -0.00421455)
(-0.465919 -0.649229 -0.0177094)
(-0.437141 -0.6525 -0.0214688)
(-0.413019 -0.530906 -0.0233036)
(-0.411275 -0.540931 -0.0486559)
(-0.410155 -0.541395 -0.0345682)
(-0.335544 -0.550443 -0.0173542)
(-0.267608 -0.595882 -0.00760279)
(-0.319735 -0.580837 -0.0038382)
(-0.40355 -0.51296 0.0068654)
(-0.332081 -0.535361 -0.00442377)
(-0.438934 -0.630332 -0.0120861)
(-0.293014 -0.473209 -0.00538627)
(-0.210495 -0.539688 -0.0185939)
(-0.281278 -0.524607 -0.0165631)
(-0.394552 -0.436062 -0.000964999)
(-0.413987 -0.36274 -0.0106404)
(-0.260676 -0.394213 -0.0112926)
(-0.157074 -0.422869 -0.0366364)
(-0.136455 -0.39943 -0.0229574)
(-0.238263 -0.205283 0.0220713)
(-0.382742 -0.342872 -0.00226509)
(-0.251914 -0.474558 -0.0200167)
(-0.21922 -0.46797 -0.0239586)
(-0.122181 -0.392768 -0.0303284)
(-0.219288 -0.194422 0.0389069)
(-0.346983 -0.337935 0.0119193)
(-0.36633 -0.363255 0.0539726)
(-0.195967 -0.511087 -0.0111572)
(-0.174212 -0.468039 0.0183417)
(-0.110075 -0.420174 0.00156304)
(-0.222415 -0.229022 0.0444074)
(-0.32601 -0.341875 0.0521127)
(-0.335176 -0.338955 0.0566959)
(-0.180713 -0.463226 0.0163581)
(-0.109402 -0.408936 -0.000289435)
(-0.232013 -0.220428 0.0618002)
(-0.286056 -0.221439 0.0771359)
(-0.240552 -0.230225 0.0708678)
(-0.350455 -0.337004 0.0781657)
(-0.189814 -0.465324 0.0479639)
(-0.117936 -0.415629 0.0369528)
(-0.140629 -0.449722 -0.00427285)
(-0.196621 -0.497618 0.0253438)
(-0.381821 -0.350667 0.0788711)
(-0.334491 -0.62547 -0.00388503)
(-0.355857 -0.632168 -0.0118747)
(-0.499514 -0.511868 0.0577504)
(-0.651521 -0.444691 0.0981964)
(-0.66696 -0.28676 0.136239)
(-0.79839 -0.271568 0.17043)
(-0.891095 -0.320738 0.166337)
(-1.02112 -0.488826 0.125964)
(-1.10794 -0.495142 0.1677)
(-1.13282 -0.502759 0.192869)
(-1.11284 -0.505106 0.21587)
(-1.04954 -0.50138 0.238756)
(-0.943931 -0.490427 0.260642)
(-0.794983 -0.467091 0.287233)
(-0.640293 -0.432009 0.326778)
(-0.397702 -0.380635 0.395344)
(-0.16352 -0.292552 0.483178)
(0.0408789 -0.15025 0.487161)
(0.336222 -0.158353 0.428265)
(0.337101 -0.216467 0.378273)
(0.204816 -0.127315 0.487703)
(0.272307 -0.00271833 0.766688)
(0.283518 0.0466117 1.03227)
(0.268746 0.0814883 1.14219)
(0.250772 0.133896 1.0918)
(0.212922 0.123093 0.954989)
(0.142411 0.121306 0.703582)
(0.0395846 0.187122 0.404406)
(0.174434 0.512585 0.424923)
(0.419844 0.513611 0.374329)
(0.605478 0.538608 0.375676)
(0.850295 0.497955 0.351374)
(1.00892 0.417505 0.317482)
(1.07399 0.323234 0.27367)
(1.05877 0.255745 0.233907)
(1.00962 0.211046 0.198428)
(1.02871 0.158778 0.167127)
(1.0432 0.118621 0.144232)
(0.984223 0.0926435 0.0906739)
(0.879918 0.0423185 0.0679519)
(0.714965 -0.0227531 0.0544522)
(0.470322 -0.109806 0.0209504)
(0.24316 -0.21733 -0.021774)
(0.103115 -0.622191 -0.109654)
(0.178408 -0.384745 -0.0797294)
(-0.178172 -0.172093 0.00741428)
(-0.0995561 -0.390595 -0.0372042)
(-0.108868 -0.309678 -0.0634876)
(-0.110871 -0.333949 -0.0718148)
(-0.108369 -0.291062 -0.0617585)
(-0.0755158 -0.211565 -0.0554595)
(-0.146296 -0.164788 -0.0335798)
(-0.221317 0.180336 0.131657)
(-0.135625 0.448498 0.113258)
(-0.0366285 0.56375 0.06636)
(0.0433349 0.632475 0.10163)
(0.13096 0.679486 0.201268)
(0.224547 0.735159 0.30131)
(0.315304 0.771538 0.338102)
(0.397669 0.767361 0.366955)
(0.474764 0.702102 0.374225)
(0.540271 0.560933 0.370903)
(0.592732 0.337521 0.337025)
(0.572377 0.00400412 0.263378)
(0.394931 -0.336039 0.25902)
(0.2943 -0.335116 0.32147)
(0.228584 -0.289429 0.330636)
(0.161301 -0.198736 0.335866)
(0.147716 -0.00215531 0.313202)
(0.289033 0.00897907 0.340367)
(0.451675 -0.157855 0.331085)
(0.603902 -0.255234 0.342695)
(0.642842 -0.344319 0.351743)
(0.623477 -0.4363 0.353661)
(0.476729 -0.5414 0.334871)
(0.106822 -0.566438 0.317059)
(-0.171541 -0.298581 0.302835)
(-0.0389623 -0.128253 0.355778)
(0.230488 -0.151651 0.237837)
(0.282138 -0.403737 0.0722972)
(0.00884439 -0.519386 0.238058)
(-0.141111 -0.748684 -0.141729)
(0.200712 -0.720002 -0.480648)
(0.308332 -0.392444 -0.176801)
(0.331417 -0.374936 0.093444)
(0.344679 -0.545442 0.18374)
(0.326491 -0.8902 0.119716)
(0.531476 -0.872603 0.0645989)
(0.610875 -0.691731 0.0984334)
(0.576611 -0.538018 0.138381)
(0.507183 -0.39562 0.188867)
(0.338066 -0.230459 0.247064)
(0.362709 -0.34631 0.195638)
(0.426634 -0.377028 0.142858)
(0.508149 -0.36302 0.080607)
(0.620056 -0.295833 -0.0565638)
(0.865432 0.193469 -0.118655)
(0.909538 0.478325 -0.0234533)
(0.854918 0.682524 0.0467382)
(0.757343 0.786651 0.0897956)
(0.631957 0.815159 0.135505)
(0.489267 0.784929 0.155949)
(0.331286 0.722477 0.174213)
(0.165683 0.64466 0.129355)
(-0.00921034 0.578223 0.0674827)
(-0.14894 0.51707 0.0543547)
(-0.285956 0.415696 0.113206)
(-0.407852 0.204262 0.150436)
(-0.285409 -0.120198 0.00981653)
(-0.401279 -0.0225322 0.0539988)
(-0.485648 0.0326376 0.0810005)
(-0.542326 0.146987 0.11994)
(-0.542213 0.103037 0.0939778)
(-0.500004 -0.029874 0.0218006)
(-0.457661 -0.0908006 0.0123974)
(-0.389136 -0.146957 -0.0103286)
(-0.292803 -0.206513 -0.0245082)
(-0.189424 -0.237868 -0.0374596)
(-0.140019 -0.208672 -0.0285832)
(-0.195896 -0.175087 -0.0248413)
(-0.183728 -0.329965 -0.0373251)
(-0.122905 -0.323795 -0.0454001)
(-0.100522 -0.342736 -0.0723726)
(-0.0787111 -0.376734 -0.104772)
(-0.0484233 -0.564061 -0.221735)
(-0.0878184 -0.501637 -0.15635)
(-0.1059 -0.598071 -0.124567)
(-0.158621 -0.569548 -0.0764999)
(-0.222833 -0.457384 -0.0448)
(-0.308543 -0.122531 0.0252036)
(-0.187107 0.317506 0.176887)
(-0.0730241 0.437175 0.309731)
(0.00982267 0.513214 0.447366)
(0.0770486 0.500749 0.563761)
(0.145474 0.435632 0.624521)
(0.199335 0.321655 0.654642)
(0.249572 0.165837 0.627429)
(0.235503 -0.0136781 0.53198)
(0.104574 -0.136165 0.44016)
(-0.0125065 -0.0989293 0.449576)
(-0.0326387 0.0160787 0.426031)
(-0.0340918 0.139081 0.426664)
(0.0373302 0.245069 0.366791)
(0.199202 0.136504 0.381586)
(0.157001 0.273004 0.450048)
(-0.0603086 0.174171 -0.0653578)
(-0.173443 -0.0673227 -0.642431)
(-0.180537 -0.307268 -0.538583)
(-0.168041 -0.343661 -0.302902)
(-0.144837 -0.302096 -0.0941672)
(-0.0618566 -0.585363 -0.106795)
(-0.0277938 -0.862937 -0.0941314)
(0.00234584 -1.02023 -0.0915651)
(0.0327226 -1.144 -0.100656)
(0.0659977 -1.22783 -0.114965)
(0.0963925 -1.28061 -0.129042)
(0.122915 -1.30699 -0.140927)
(0.146818 -1.31528 -0.15288)
(0.167639 -1.31296 -0.165424)
(0.185885 -1.3035 -0.176255)
(0.201539 -1.2884 -0.184745)
(0.215534 -1.2682 -0.189913)
(0.227952 -1.24264 -0.192614)
(0.239299 -1.2105 -0.191462)
(0.248932 -1.17065 -0.186355)
(0.254731 -1.12085 -0.175565)
(0.251854 -1.05827 -0.158922)
(0.194769 -0.99545 -0.139052)
(0.139779 -0.910746 -0.122797)
(0.164416 -0.826923 -0.0870324)
(0.18771 -0.726607 -0.088259)
(0.203863 -0.558164 -0.0881479)
(0.246706 -0.44143 -0.0844624)
(0.0720854 -0.0295882 -0.0955345)
(0.365769 -0.297764 0.043532)
(0.245675 -0.550282 -0.0572256)
(0.285992 -0.0945602 -0.0269846)
(0.180656 -0.0367858 -0.147501)
(0.20144 -0.112203 -0.124977)