/*--------------------------------*- C++ -*----------------------------------*\
| =========                 |                                                 |
| \\      /  F ield         | OpenFOAM: The Open Source CFD Toolbox           |
|  \\    /   O peration     | Version:  v2012                                 |
|   \\  /    A nd           | Website:  www.openfoam.com                      |
|    \\/     M anipulation  |                                                 |
\*---------------------------------------------------------------------------*/
FoamFile
{
    version     2.0;
    format      ascii;
    class       volScalarField;
    location    "670";
    object      k;
}
// * * * * * * * * * * * * * * * * * * * * * * * * * * * * * * * * * * * * * //

dimensions      [0 2 -2 0 0 0 0];


internalField   nonuniform List<scalar> 
18258
(
0.0334005
0.0157424
0.0122968
0.0101501
0.0109736
0.0139656
0.0167582
0.0211151
0.0255267
0.0314616
0.0385302
0.0474663
0.0534742
0.0606368
0.0636295
0.06194
0.0521088
0.0473602
0.0567176
0.0811119
0.0708954
0.0513366
0.0620613
0.0614666
0.0727019
0.0770021
0.0606628
0.0552852
0.049816
0.0441242
0.0376492
0.0237864
0.0239749
0.0286246
0.0319297
0.0356826
0.0385923
0.0409995
0.0426261
0.0434504
0.0433685
0.0420736
0.0393726
0.0352449
0.0296792
0.0235345
0.0224486
0.0244919
0.0302857
0.0356021
0.040907
0.0464329
0.0548082
0.044786
0.0290717
0.0392778
0.0477829
0.0546838
0.0591018
0.0615351
0.0622812
0.0613512
0.0590462
0.0557738
0.0518028
0.0474574
0.0434369
0.0394504
0.0342062
0.0309451
0.0268346
0.0234912
0.0210523
0.0193411
0.0182234
0.0172183
0.0163512
0.0156167
0.0149999
0.0145755
0.0144846
0.014512
0.0146138
0.0147117
0.0150588
0.0127085
0.0109351
0.0104681
0.0102129
0.009561
0.00810154
0.0106538
0.0117585
0.0121741
0.0124436
0.0136225
0.0147775
0.0143504
0.0136264
0.0125165
0.0125169
0.0169991
0.0177823
0.0228119
0.0216231
0.0167788
0.0148846
0.0166671
0.0195018
0.0225412
0.0192658
0.0192453
0.0179459
0.017035
0.0148905
0.0149329
0.0144215
0.0141138
0.0150386
0.0177971
0.0172049
0.0173133
0.0185382
0.0188626
0.0200918
0.0211077
0.020448
0.0202631
0.016409
0.0163084
0.0173491
0.0172221
0.0177029
0.0201963
0.0202537
0.0206006
0.0208181
0.0236046
0.0236232
0.0235858
0.0236768
0.0245025
0.0235493
0.0231396
0.0231705
0.0232064
0.0210403
0.0208166
0.0204513
0.0204894
0.0183245
0.0175869
0.0183184
0.019299
0.0212752
0.0250289
0.0314663
0.0403904
0.050489
0.0607354
0.0685117
0.0728752
0.0772458
0.0767243
0.0774308
0.0795402
0.079917
0.0787807
0.076934
0.0747774
0.0718392
0.0672254
0.0667873
0.0591276
0.0482034
0.033459
0.0389775
0.0418244
0.0445786
0.044867
0.0453329
0.0440971
0.0423027
0.0386987
0.0335436
0.0246439
0.0261559
0.0305774
0.0351923
0.0389443
0.0430772
0.0466224
0.0483454
0.049952
0.059147
0.057082
0.0552573
0.0571198
0.0586327
0.0617795
0.0601274
0.0562233
0.050466
0.0521541
0.0453679
0.0340972
0.0318879
0.0297843
0.0272323
0.0377011
0.0495232
0.0612997
0.0677693
0.0739879
0.0789119
0.0830016
0.0875936
0.0821192
0.0769372
0.0580569
0.0844466
0.0664104
0.0511126
0.0419239
0.0342475
0.0299908
0.0333269
0.0336953
0.032038
0.0273695
0.0217739
0.0233575
0.0359983
0.0457708
0.0538162
0.0554698
0.0601805
0.0625608
0.0572386
0.0578254
0.04689
0.0480311
0.0517696
0.0466089
0.0442417
0.0356704
0.0279512
0.0337771
0.0502614
0.068944
0.0850904
0.10029
0.0667381
0.0508261
0.0417576
0.0350415
0.0336111
0.0381436
0.0440564
0.0531995
0.0412663
0.0372992
0.03386
0.0310399
0.0254187
0.0272143
0.0282911
0.0267672
0.0499595
0.0581748
0.0618407
0.0844027
0.0928092
0.108935
0.107867
0.0932166
0.0967203
0.0691956
0.069097
0.0867896
0.0686382
0.0515183
0.0617859
0.0746923
0.0885116
0.101669
0.112965
0.122032
0.123717
0.112189
0.0813159
0.046819
0.0213084
0.0186509
0.0180937
0.0173854
0.0164983
0.0157073
0.0150935
0.0121481
0.00950952
0.00927973
0.00945863
0.00940361
0.00826605
0.00951439
0.0115757
0.0137698
0.0152798
0.0164907
0.0175123
0.0182479
0.0188375
0.0192372
0.0195354
0.0198041
0.0200403
0.0202267
0.0203648
0.0204553
0.0204973
0.020483
0.0204059
0.0202646
0.0200574
0.0197685
0.0192946
0.0177658
0.0159107
0.0150782
0.0151363
0.0148858
0.0145821
0.0119474
0.0123247
0.0143408
0.0149747
0.0177687
0.0198061
0.0215106
0.0229656
0.0244934
0.0252711
0.026102
0.0263702
0.0264261
0.0263299
0.0261857
0.0259696
0.0256797
0.0246294
0.0213035
0.0249001
0.0272949
0.0289772
0.0303253
0.0312242
0.0313316
0.028605
0.0360327
0.038521
0.0394284
0.0396871
0.0388657
0.0368649
0.0344322
0.03239
0.0308854
0.02977
0.0276327
0.025386
0.0230753
0.0206573
0.0174306
0.0186971
0.0205375
0.0207484
0.0204585
0.0215072
0.0227677
0.021114
0.0190275
0.0161357
0.0151353
0.0146378
0.0144418
0.0148388
0.0145039
0.0144114
0.0149155
0.0179349
0.0190293
0.0207336
0.023989
0.022852
0.0209043
0.0280779
0.0296984
0.0301488
0.0304945
0.0304016
0.0296468
0.0265574
0.025101
0.0264882
0.0250308
0.0243979
0.0244856
0.0241175
0.0222507
0.0245544
0.0265572
0.0281472
0.0289937
0.0302352
0.0317878
0.0339458
0.0357346
0.0373902
0.0383983
0.0383927
0.0378824
0.0380847
0.0387706
0.0385138
0.0368025
0.0347212
0.032625
0.0296699
0.0294347
0.0314075
0.032971
0.0346336
0.0364106
0.0356983
0.0338145
0.0321884
0.0307677
0.0290574
0.028924
0.0305997
0.0320424
0.0337776
0.0358887
0.0360492
0.0339176
0.0321046
0.0306032
0.0289019
0.0288621
0.0305604
0.0320692
0.0337874
0.035666
0.0347936
0.0333293
0.0318112
0.0303468
0.0286844
0.0282421
0.0298448
0.031225
0.0325361
0.0335976
0.0319249
0.031337
0.0302683
0.02888
0.0271217
0.0258647
0.026374
0.027763
0.0278737
0.0283517
0.0294696
0.0293153
0.0290322
0.0289857
0.0287039
0.0264568
0.0268645
0.0269148
0.0276079
0.0309111
0.0304328
0.0331148
0.0355377
0.033225
0.0317274
0.028145
0.0337223
0.0337678
0.0347343
0.0335601
0.0237704
0.0219116
0.0229101
0.0244476
0.0260936
0.0254064
0.0226473
0.0225909
0.0232028
0.0226207
0.0210627
0.0180709
0.0135698
0.0135791
0.0135722
0.0143088
0.0171177
0.0187092
0.0188156
0.0186565
0.018351
0.0178766
0.0171574
0.0160829
0.01562
0.0245748
0.0444574
0.0563577
0.0557762
0.0424198
0.0355131
0.0261969
0.0180743
0.0107438
0.0106954
0.0113601
0.0136948
0.0114923
0.0106206
0.0146377
0.0118633
0.0197918
0.0229403
0.0302969
0.0413033
0.0398242
0.0301834
0.0204156
0.0184563
0.0193244
0.0198408
0.0202318
0.0206164
0.0210052
0.0214287
0.0219455
0.0216313
0.0189892
0.0167419
0.016871
0.0174434
0.0199527
0.0213319
0.0221223
0.0217836
0.022024
0.0237516
0.0225008
0.0212796
0.0210772
0.0203744
0.0232238
0.0235676
0.0229305
0.0229351
0.0232107
0.0230931
0.0232263
0.0240355
0.0198368
0.0219467
0.0224959
0.0227789
0.0235753
0.0190673
0.0192564
0.0193198
0.0181622
0.0149494
0.0180466
0.0168031
0.012182
0.0134965
0.0134515
0.0140598
0.014384
0.0171208
0.0162804
0.0155667
0.0163429
0.0223261
0.0231329
0.0233122
0.0206686
0.0194231
0.0219194
0.0225081
0.0220476
0.0211592
0.0213263
0.0203802
0.0184694
0.0177487
0.0178859
0.0193032
0.0201037
0.0201723
0.0237965
0.023291
0.0217212
0.0227208
0.0233182
0.0229077
0.0227965
0.0227412
0.0223705
0.0219456
0.0223598
0.0225504
0.022604
0.0221594
0.0224123
0.025062
0.0214769
0.0212855
0.0201991
0.01954
0.0179077
0.0176515
0.0177493
0.017709
0.0176141
0.0167755
0.0186371
0.0179121
0.0200458
0.0216624
0.0228171
0.0239935
0.0241452
0.0237143
0.0236751
0.0232892
0.0232558
0.0227029
0.0218534
0.0212671
0.0204864
0.0192752
0.0192672
0.0192175
0.0190733
0.0204814
0.0203802
0.0219501
0.0230754
0.0227891
0.0218192
0.0217105
0.0205295
0.0205067
0.0215521
0.0224456
0.0226962
0.0235646
0.0261149
0.0237515
0.0253082
0.0260023
0.026668
0.0260542
0.0249526
0.025706
0.0240413
0.0229275
0.0242503
0.0249747
0.0262383
0.0270326
0.0250544
0.0240261
0.0228267
0.0219618
0.0209715
0.0184445
0.0190619
0.0198555
0.0210895
0.0229044
0.0256338
0.0283772
0.0313057
0.0313649
0.0290596
0.0273598
0.0321777
0.0316437
0.0366272
0.0372385
0.0330996
0.0302803
0.0273588
0.0269373
0.0260161
0.0254801
0.0241952
0.0254457
0.0258741
0.0249269
0.0274072
0.0289881
0.033327
0.0389187
0.0355884
0.0327357
0.0377748
0.0366718
0.0426653
0.036437
0.0347651
0.0286304
0.0332255
0.0355671
0.0433486
0.0339316
0.0297398
0.0295032
0.0308147
0.0383166
0.0368691
0.0394866
0.0446362
0.0439724
0.0390693
0.0358354
0.0416318
0.0316569
0.0370786
0.0390949
0.0324484
0.0322287
0.0391251
0.0397432
0.0398943
0.0337844
0.0330763
0.0250558
0.0336386
0.0401326
0.0400414
0.0332426
0.0260001
0.0359407
0.031576
0.0313824
0.0313773
0.026977
0.0269096
0.0261981
0.0264552
0.0271748
0.0247204
0.0255342
0.0258024
0.0259747
0.0261174
0.0263242
0.0266884
0.0273635
0.0281618
0.0229582
0.0244387
0.0230349
0.0216416
0.0202269
0.0240194
0.0264967
0.0283015
0.0297525
0.0308896
0.0313897
0.0300586
0.0379697
0.0396332
0.0413374
0.0415195
0.0402852
0.0376065
0.0341413
0.0306101
0.0282411
0.026896
0.0243264
0.0222279
0.020196
0.0180773
0.0153315
0.0140595
0.0127411
0.0114306
0.0110793
0.010524
0.00990083
0.00915596
0.00868146
0.011229
0.0204214
0.0284881
0.0332931
0.0384628
0.0449997
0.0515352
0.0568508
0.0607606
0.0635114
0.0652282
0.0656605
0.0630423
0.0528616
0.0480018
0.043266
0.0384101
0.0333809
0.0323566
0.0415025
0.0497281
0.056652
0.0628877
0.0669387
0.0653239
0.0498518
0.0470234
0.0628406
0.0903142
0.0811084
0.104096
0.120451
0.0802064
0.0652411
0.0642767
0.0793985
0.0818185
0.0752774
0.0664458
0.0567379
0.0459528
0.0509723
0.0556611
0.0600244
0.064386
0.0768811
0.0794322
0.0783191
0.0759264
0.0728037
0.0684914
0.0618913
0.0532887
0.0444314
0.0370539
0.0304157
0.0212833
0.0120235
0.0142392
0.0135031
0.0174208
0.0157247
0.00972944
0.00973056
0.00993611
0.00987475
0.0097175
0.00971955
0.0111319
0.0180779
0.014684
0.0132358
0.0113718
0.014293
0.0162167
0.0182187
0.0188016
0.0188434
0.0193025
0.0337642
0.0438732
0.0496649
0.0544298
0.0575958
0.0561601
0.0527142
0.0467587
0.0402637
0.0376131
0.0338031
0.0303281
0.0285437
0.0293358
0.0258667
0.016425
0.0146362
0.0156499
0.0154355
0.0144621
0.0163678
0.0175561
0.0183051
0.0189094
0.0193615
0.0197093
0.0199578
0.0201232
0.020211
0.0202388
0.0202207
0.0201613
0.0200587
0.0199095
0.0197023
0.0194066
0.0188967
0.0171967
0.0153632
0.0146552
0.0147401
0.0145107
0.0141497
0.0122748
0.0124947
0.0143534
0.0149517
0.0145616
0.0151433
0.0156088
0.0168123
0.0190014
0.0211485
0.022993
0.021692
0.0210453
0.0210042
0.020594
0.0173322
0.0205981
0.0235978
0.0241297
0.0244173
0.0252325
0.0268294
0.0277845
0.0268408
0.0263162
0.0257686
0.0225377
0.0241152
0.0278102
0.0282409
0.0289526
0.0295713
0.0301552
0.0314338
0.0307798
0.0298342
0.0292073
0.0262123
0.0253344
0.0317827
0.0205349
0.0139285
0.00994222
0.0106477
0.0107241
0.0102572
0.0109536
0.0114491
0.0116926
0.0111943
0.0122669
0.013173
0.0125306
0.0151545
0.014392
0.0132861
0.0127831
0.013797
0.0147597
0.0152257
0.0160893
0.0260692
0.026723
0.0225053
0.0288422
0.0314211
0.028994
0.0317823
0.0293825
0.0279151
0.0306618
0.0342028
0.0356927
0.0333129
0.0317832
0.0313315
0.0207819
0.0200825
0.019389
0.0175299
0.0177363
0.0172426
0.0167928
0.0163868
0.0189696
0.0203376
0.0215201
0.0212044
0.0208641
0.020389
0.0208217
0.0254258
0.0347796
0.0438205
0.0466571
0.0453414
0.0416259
0.0351062
0.02928
0.0287195
0.026824
0.0254802
0.0251687
0.0193463
0.0150127
0.0172406
0.0173394
0.0183761
0.0190232
0.0195279
0.0199307
0.0202677
0.0205594
0.0208434
0.0211171
0.021362
0.0215733
0.0217585
0.0219156
0.0220838
0.0222841
0.022556
0.0227793
0.0211631
0.0185449
0.0172069
0.0170602
0.0177754
0.0186748
0.019797
0.0190459
0.0153395
0.0154273
0.0218212
0.0222704
0.0209018
0.019482
0.0196924
0.0188496
0.0226506
0.0224595
0.0232406
0.0230149
0.0227144
0.0224122
0.0221111
0.0218013
0.0215036
0.0212456
0.0210159
0.0208082
0.0206098
0.0204161
0.0201413
0.0197208
0.0190352
0.0181996
0.0170059
0.0183032
0.0191236
0.0208067
0.0228952
0.023943
0.0229976
0.021596
0.0209029
0.0210802
0.0214038
0.0217594
0.0221391
0.0225767
0.0230199
0.0234396
0.0234129
0.0220725
0.0227164
0.0173999
0.01825
0.0185531
0.0185127
0.0201738
0.0193285
0.0146227
0.0151137
0.0158273
0.0171206
0.0197208
0.0200794
0.0214308
0.0216545
0.0172547
0.016946
0.0165198
0.0175274
0.0151496
0.0157973
0.0265708
0.0271479
0.0348725
0.0382559
0.0398237
0.0330514
0.0454688
0.052314
0.0504444
0.0407973
0.0234594
0.0345568
0.0420626
0.0487167
0.045666
0.0355213
0.0447836
0.0472221
0.0629738
0.058645
0.052306
0.0629727
0.044563
0.0268377
0.0157664
0.0163401
0.0151551
0.0305695
0.0346575
0.031366
0.0322229
0.0398133
0.0408264
0.036118
0.0344108
0.0361642
0.0357146
0.0396604
0.0369829
0.0335919
0.0232284
0.0189564
0.0197995
0.0212155
0.0230586
0.0254106
0.0252978
0.0241433
0.022771
0.0217889
0.0207342
0.0182388
0.0175849
0.0195402
0.0211674
0.0225452
0.0240577
0.0248842
0.0257308
0.0258982
0.0257907
0.0254656
0.0250324
0.0244709
0.0237797
0.0223675
0.023569
0.0242478
0.0244693
0.0247595
0.0250825
0.0253678
0.0255172
0.0254066
0.0244443
0.0236269
0.0224581
0.0213435
0.0197401
0.0176274
0.0183109
0.0200679
0.0216662
0.022778
0.0238273
0.0234355
0.02393
0.0245945
0.0246092
0.0244156
0.024182
0.02402
0.0241042
0.0247349
0.026472
0.0263388
0.0293233
0.0304758
0.0278617
0.0265079
0.0257973
0.0253563
0.0250991
0.0248832
0.024676
0.0241227
0.0235818
0.0240908
0.0243521
0.024657
0.0250214
0.0255337
0.0262277
0.0273235
0.0287477
0.0286517
0.0262867
0.0260306
0.0249525
0.0241656
0.0237934
0.0237524
0.0238059
0.0239193
0.023869
0.0233498
0.0230239
0.0234338
0.0224225
0.0224885
0.0215193
0.0201616
0.0187234
0.0172756
0.016616
0.035131
0.0351326
0.0455676
0.0422702
0.0369726
0.0469497
0.0598605
0.0519054
0.0625292
0.066303
0.0538962
0.0500518
0.0277925
0.0243308
0.0173471
0.0188689
0.0202115
0.0214152
0.0212284
0.0221475
0.0220266
0.0229933
0.0224514
0.0216731
0.0211219
0.0201084
0.0201661
0.0188975
0.0173563
0.0172222
0.0188662
0.0199131
0.021093
0.0210758
0.0225346
0.023036
0.0234253
0.0235663
0.0235495
0.0236356
0.0237981
0.0242468
0.0249622
0.0254478
0.0256401
0.0261391
0.0258759
0.025572
0.0251393
0.0248438
0.0245328
0.0242543
0.023956
0.0236716
0.0232328
0.0225726
0.0224528
0.0229702
0.0233143
0.023549
0.0236808
0.0236526
0.0234421
0.0231023
0.0227524
0.0223761
0.0224147
0.0236801
0.0239286
0.0240514
0.0238277
0.0236435
0.0236218
0.0234943
0.0233969
0.0231767
0.0228179
0.0223526
0.0212887
0.021377
0.0222516
0.022688
0.0230075
0.0232756
0.0233041
0.023235
0.0228652
0.022583
0.0222354
0.0216629
0.0208906
0.018455
0.0189717
0.0196169
0.0204969
0.0213795
0.0221302
0.0226111
0.0228162
0.0228226
0.0226517
0.0222971
0.0215446
0.0215244
0.0220662
0.022232
0.0221727
0.0218503
0.0212002
0.0202458
0.0190117
0.0177731
0.016805
0.016359
0.0155997
0.0180592
0.01913
0.0200946
0.0209649
0.0217749
0.0226292
0.0229373
0.0229817
0.022834
0.0225758
0.0221704
0.0214075
0.0214028
0.0220976
0.0224809
0.022693
0.0227775
0.0225305
0.0218858
0.0203406
0.0189199
0.0177339
0.0166327
0.0154881
0.0154286
0.0159374
0.015438
0.0158053
0.0169097
0.0183927
0.0197703
0.0207893
0.0214093
0.0217106
0.0217479
0.0214198
0.0212366
0.0213599
0.0211525
0.020646
0.0197674
0.0184748
0.0170091
0.0158116
0.0154868
0.0161594
0.0168095
0.0162016
0.0138175
0.014939
0.0160448
0.0171709
0.018856
0.0209301
0.0218946
0.0223638
0.0224992
0.0223728
0.0220116
0.0213673
0.0213039
0.0219212
0.0222777
0.0223878
0.0222964
0.0218989
0.0211142
0.0185905
0.015812
0.0145615
0.0138407
0.0129102
0.0163525
0.0170595
0.0162329
0.0156849
0.0165351
0.0175475
0.0186729
0.0195434
0.0201775
0.0206817
0.0209623
0.0209948
0.0207205
0.0206019
0.0203807
0.020044
0.0197334
0.019421
0.0186685
0.0178492
0.0168581
0.0179266
0.0185135
0.0177492
0.0143982
0.0149549
0.015811
0.0163138
0.0190218
0.0215109
0.0221353
0.0222831
0.0223605
0.0222144
0.0218194
0.0212108
0.0210847
0.0217157
0.0221992
0.0225155
0.0228365
0.023102
0.023292
0.0213797
0.0180523
0.0173223
0.0155267
0.0146966
0.0183127
0.0190031
0.0184877
0.0179242
0.0196271
0.0203273
0.0205599
0.020529
0.0204259
0.0203117
0.0203247
0.0204391
0.0201389
0.0200152
0.0201245
0.0203579
0.0203351
0.0201297
0.0195691
0.0187998
0.0176848
0.0195615
0.0212871
0.0209925
0.0169286
0.017467
0.0184061
0.0179483
0.020675
0.0225114
0.022976
0.0228881
0.022553
0.0220697
0.0215304
0.0208979
0.0206235
0.0211828
0.0217396
0.021774
0.0218656
0.0218233
0.0212837
0.0211308
0.0205772
0.0203231
0.019588
0.0190377
0.0183109
0.020458
0.0236185
0.0257969
0.0273845
0.0292669
0.0279346
0.0244642
0.0222288
0.0153976
0.0153926
0.0155976
0.0149394
0.0145483
0.014361
0.0187072
0.0213896
0.0240148
0.0257122
0.0232959
0.0232654
0.0231908
0.0230803
0.0229767
0.0228858
0.0226909
0.0235329
0.0413103
0.283118
0.211144
0.236112
0.224837
0.315289
0.0796892
0.039096
0.0433365
0.0504395
0.0578601
0.0560194
0.0520136
0.0452682
0.0404398
0.0400173
0.0393452
0.0391074
0.0380533
0.038097
0.0374739
0.043817
0.0874077
0.119887
0.133895
0.142674
0.152464
0.148061
0.157497
0.14983
0.150486
0.152149
0.156872
0.149523
0.142069
0.138092
0.133773
0.116548
0.11695
0.0986769
0.10252
0.0855585
0.089867
0.093719
0.0930606
0.091844
0.0915981
0.0918345
0.092601
0.0961649
0.0916161
0.0977642
0.0911297
0.0727639
0.0703048
0.072687
0.0670597
0.0586876
0.0668171
0.0819322
0.0973298
0.113359
0.0962065
0.120123
0.113548
0.113823
0.108208
0.101957
0.098259
0.0975852
0.0982159
0.099327
0.101928
0.103795
0.105343
0.108138
0.116654
0.118879
0.117377
0.10022
0.0853023
0.093714
0.0984891
0.102303
0.102686
0.0981848
0.0958991
0.0893648
0.0877706
0.0820558
0.0795599
0.073945
0.0707328
0.0658879
0.0822871
0.0806475
0.0876158
0.0938324
0.0981923
0.101734
0.103351
0.104473
0.103243
0.100789
0.0959855
0.094086
0.0894064
0.107492
0.125658
0.128534
0.124028
0.110604
0.105105
0.335406
0.407115
0.407992
0.60511
0.645803
0.834193
0.332604
0.17908
0.190966
0.187621
0.179522
0.176308
0.175979
0.187525
0.196511
0.187912
0.197622
0.176628
0.170824
0.166547
0.194256
0.192592
0.173955
0.152498
0.120683
0.0982403
0.0977875
0.0807984
0.0816677
0.0709298
0.0718695
0.0735171
0.0885552
0.160173
0.203576
0.230208
0.25653
0.316124
0.286754
0.434313
0.34961
0.435708
0.301676
0.325539
0.311416
0.302732
0.300633
0.31635
0.337551
0.297091
0.368951
0.296012
0.642933
0.777751
0.495546
0.456742
0.405155
0.391324
0.381641
0.376191
0.367829
0.484416
0.449729
0.547644
0.508086
0.630065
0.557567
0.566713
0.532683
0.572015
0.592797
0.606643
0.486537
0.533778
0.414162
0.448545
0.372755
0.408766
0.292033
0.291045
0.329639
0.367652
0.392249
0.446053
0.704018
0.599128
0.808345
0.580729
0.702666
0.488445
0.534084
0.510426
0.492612
0.493877
0.521465
0.625518
0.605363
0.689388
0.514647
0.526974
0.516645
0.534011
0.523431
0.558449
0.563127
0.564278
0.562214
0.523387
0.533954
0.532156
0.531958
0.531984
0.532324
0.509559
0.512728
0.505203
0.510984
0.526922
0.514554
0.514485
0.51235
0.504777
0.502726
0.502246
0.504
0.503772
0.508899
0.50877
0.509105
0.51215
0.526856
0.5144
1.81377
0.896457
0.425744
0.336117
0.21829
0.133279
0.0546651
0.0589725
0.0617718
0.0625778
0.0604253
0.0549627
0.0467881
0.0368657
0.0291403
0.0281528
0.0251378
0.0276489
0.0349374
0.0424158
0.0387076
0.0464611
0.0541602
0.062489
0.070494
0.0774665
0.0833541
0.0862617
0.0832069
0.0704581
0.05277
0.0353319
0.0250379
0.0226273
0.0209789
0.0189832
0.016873
0.0152072
0.0142074
0.013043
0.0124158
0.012331
0.0125562
0.0127986
0.0132418
0.0147566
0.0160571
0.0172428
0.0182063
0.0184516
0.0179333
0.0184772
0.0190736
0.0194698
0.0198152
0.0196382
0.0196337
0.0198855
0.0198476
0.0200634
0.0199677
0.0199893
0.0198522
0.0196966
0.0194725
0.0190463
0.0187675
0.0182054
0.0178532
0.0170027
0.0170389
0.0174637
0.0177963
0.0167919
0.0167419
0.015968
0.0269438
0.0480978
0.0611733
0.0662072
0.0715145
0.0674917
0.0571126
0.0391445
0.0192551
0.0188957
0.0193617
0.0219348
0.0214336
0.017335
0.0181129
0.0188799
0.0176255
0.01751
0.0175388
0.019597
0.0201938
0.0215408
0.0220302
0.0223814
0.0225934
0.0225064
0.0225867
0.0222725
0.02226
0.0218583
0.0218338
0.0215192
0.0212958
0.0215894
0.0222987
0.0223967
0.0230801
0.0228144
0.0225621
0.0220159
0.0216249
0.0207832
0.0198732
0.0188575
0.0172938
0.0168466
0.0173898
0.017898
0.0174446
0.0189556
0.0199738
0.0196499
0.0245687
0.0228201
0.020368
0.0229093
0.0185147
0.0186692
0.0182809
0.017202
0.0177481
0.0172605
0.0171371
0.0174423
0.0177084
0.018892
0.0198605
0.0204838
0.0213345
0.0219732
0.0226693
0.0238184
0.0240687
0.0230307
0.0228196
0.0216274
0.0209508
0.020631
0.0215493
0.02284
0.0227896
0.0237359
0.0235382
0.0223449
0.0215509
0.020704
0.0197377
0.0190915
0.0183239
0.0175923
0.0171943
0.0163976
0.0165265
0.0154863
0.0169776
0.017243
0.019081
0.0173516
0.0170249
0.0226063
0.0284551
0.0443268
0.0323267
0.0212215
0.0221778
0.0300191
0.0370418
0.0256562
0.0250786
0.0149882
0.0163641
0.0154146
0.0156558
0.0167328
0.0170112
0.018173
0.0192203
0.0194504
0.0201912
0.0205283
0.0212944
0.0215477
0.0222723
0.0224614
0.0236905
0.0237468
0.0237683
0.0237385
0.0228869
0.0228081
0.0227806
0.0232534
0.023058
0.0238124
0.0238528
0.0239769
0.0239296
0.0226315
0.0223149
0.021554
0.0210448
0.0201442
0.0196029
0.0188932
0.0185145
0.0178917
0.0182021
0.0189154
0.0191141
0.0200231
0.0200415
0.0207859
0.0209892
0.0214517
0.0215819
0.0222411
0.0223767
0.0226392
0.0226934
0.02387
0.0239777
0.0239961
0.0239597
0.0239673
0.0241777
0.0241632
0.0240996
0.0240651
0.0239073
0.0237249
0.0235393
0.0245991
0.0252983
0.0249203
0.0246986
0.0249631
0.0258048
0.026357
0.027425
0.0282701
0.0293158
0.0301921
0.0309905
0.0316504
0.0321097
0.0322258
0.0322527
0.0318126
0.0314408
0.033137
0.03959
0.0427966
0.0480203
0.0503859
0.0523853
0.0531419
0.0519849
0.0526846
0.051403
0.0516577
0.0504448
0.0500029
0.0491614
0.0481466
0.047413
0.0459378
0.0451972
0.0497892
0.0561626
0.0561715
0.0491655
0.0462485
0.041571
0.0357534
0.0381486
0.0442378
0.0395264
0.0376606
0.0346812
0.029527
0.0222668
0.017931
0.0258317
0.0335091
0.0407131
0.0475092
0.0535104
0.057399
0.059524
0.0610468
0.0627288
0.0606803
0.053214
0.0415678
0.031692
0.0277904
0.0262276
0.0237934
0.0203674
0.0184884
0.0174199
0.0162709
0.014929
0.0140774
0.0138367
0.0140889
0.0142068
0.0155558
0.0168213
0.0168139
0.0179978
0.0178041
0.0183179
0.0189126
0.0193202
0.0199734
0.0199479
0.0189832
0.0193396
0.0196049
0.0202902
0.0201945
0.0203723
0.0201672
0.0194541
0.0189457
0.0183481
0.0178328
0.0173716
0.016795
0.01607
0.0160675
0.0162633
0.0158017
0.016217
0.016661
0.017072
0.017698
0.0186113
0.0193655
0.0211931
0.0213158
0.0210573
0.0211393
0.0196996
0.0196293
0.0186509
0.0184104
0.0200083
0.0198433
0.0181716
0.0195646
0.0195779
0.0213706
0.021386
0.0207101
0.0209128
0.0208188
0.0189975
0.0181103
0.0170362
0.0162574
0.0156654
0.0152634
0.0147926
0.0154271
0.0142104
0.0136334
0.0140924
0.0140663
0.0141319
0.0145233
0.0149542
0.015699
0.0164053
0.0174579
0.0180991
0.0189977
0.0193289
0.0212335
0.0211314
0.0209832
0.0210146
0.0211517
0.0215954
0.0208146
0.0207758
0.02092
0.0209361
0.0209792
0.0209686
0.0191341
0.0189322
0.018098
0.0177795
0.0168416
0.0164824
0.0158252
0.0155091
0.0151161
0.0149193
0.0233273
0.0255348
0.0256865
0.0398908
0.0200406
0.0200137
0.0344973
0.0173768
0.0231372
0.0236838
0.0247592
0.0259977
0.0226201
0.0308607
0.0212865
0.0234068
0.024134
0.025305
0.0128833
0.0197861
0.0374399
0.0426105
0.0439271
0.048857
0.0555058
0.0587043
0.0617423
0.0637741
0.0660394
0.0684854
0.0708839
0.0726116
0.0727531
0.0690516
0.0659819
0.0564691
0.0526437
0.0563704
0.0607754
0.0472828
0.0424953
0.0430288
0.0434784
0.043996
0.044188
0.0448541
0.0446465
0.0456163
0.0448779
0.0459553
0.0448011
0.0457946
0.0445839
0.0418816
0.038673
0.0325224
0.0305665
0.0294653
0.0267636
0.0242633
0.022035
0.0202226
0.0197946
0.0182343
0.0168367
0.0165371
0.0152455
0.0155148
0.016757
0.0199197
0.0168287
0.0176565
0.0260525
0.0191408
0.0180289
0.0185723
0.0190902
0.0193312
0.0182223
0.0198458
0.0221095
0.0221244
0.0221947
0.0222134
0.021411
0.0212454
0.0209889
0.0210526
0.0210846
0.021219
0.0211923
0.0193683
0.0193121
0.0190402
0.0189035
0.0181127
0.0179452
0.0173584
0.0170265
0.0161796
0.0158847
0.0154355
0.0154972
0.0167526
0.020732
0.0303342
0.0174682
0.0181873
0.0157257
0.013989
0.0267246
0.0248191
0.0287171
0.0268461
0.0395154
0.0264915
0.0232324
0.0242436
0.0297914
0.0297438
0.032723
0.0425303
0.0331402
0.0283653
0.0739966
0.054118
0.0334983
0.0467169
0.0587789
0.109658
0.127672
0.0560544
0.0565486
0.062223
0.0631561
0.0630663
0.0535092
0.0493038
0.0415182
0.032028
0.0129121
0.0249891
0.0323594
0.0430314
0.0574979
0.092146
0.0529421
0.0597716
0.0657206
0.0647856
0.0678676
0.0660321
0.0646719
0.0656333
0.102722
0.111662
0.108042
0.0868672
0.0816006
0.0745651
0.124372
0.139155
0.120025
0.130037
0.135965
0.0824069
0.0305494
0.0250084
0.0238846
0.0264733
0.025413
0.04603
0.0206631
0.0218737
0.0227084
0.0272075
0.0302828
0.0528367
0.0233545
0.0255185
0.0324667
0.0349159
0.0458319
0.0275289
0.028124
0.0344144
0.0361903
0.0395359
0.0337327
0.0318602
0.0287822
0.0259766
0.0244845
0.0255387
0.0319492
0.0463988
0.0279647
0.0283943
0.0301548
0.134503
0.0308262
0.0267064
0.0277888
0.0267931
0.0337597
0.0351132
0.111655
0.0356641
0.0167373
0.0154718
0.0159422
0.0167581
0.0173982
0.0180214
0.0184657
0.0191102
0.0194982
0.0196557
0.0198325
0.0222002
0.0220864
0.0216165
0.0210716
0.0218545
0.0211609
0.0212036
0.0218147
0.0212769
0.0214309
0.022474
0.0236417
0.0231409
0.0236944
0.0250518
0.023902
0.0222169
0.0220091
0.0221241
0.0228337
0.0239705
0.0227869
0.0234465
0.0226349
0.0235503
0.0236892
0.0203993
0.0200211
0.0198141
0.0193162
0.0186389
0.0180139
0.0173391
0.0166922
0.0162002
0.0161495
0.0166933
0.0152177
0.0156506
0.018099
0.0398789
0.0328506
0.0268536
0.0224218
0.0196686
0.0184654
0.0183259
0.0187646
0.0194195
0.0199765
0.0201865
0.0207834
0.0246618
0.0245577
0.0257573
0.0246291
0.0259576
0.0248941
0.0235736
0.0227036
0.0239073
0.0232205
0.0237106
0.0253109
0.0261374
0.023771
0.0240307
0.021455
0.0200571
0.018456
0.0187953
0.0202319
0.0208931
0.0233076
0.0233945
0.0268112
0.0268058
0.0266804
0.0254611
0.0247911
0.0262298
0.0247494
0.025896
0.0247928
0.0261915
0.0273814
0.0277264
0.0270247
0.0262277
0.0253602
0.0210782
0.0202777
0.019973
0.0194854
0.0192276
0.0201686
0.0244893
0.0338153
0.0460514
0.0582448
0.0676412
0.0669922
0.0602927
0.0410236
0.0419259
0.0389742
0.0423716
0.0604991
0.0871706
0.0610783
0.114792
0.0888919
0.0527214
0.0629506
0.0749499
0.0841102
0.0900617
0.0911751
0.0777362
0.0572593
0.0502292
0.052678
0.0848784
0.0835881
0.0824492
0.0779545
0.0824452
0.0803098
0.0776206
0.0760369
0.0742368
0.0699561
0.0699382
0.0672078
0.0671651
0.0600638
0.0612401
0.0614534
0.0588791
0.0561407
0.0538607
0.0516759
0.049358
0.0454832
0.0442141
0.0417577
0.0400354
0.0366972
0.0361621
0.0356801
0.0335148
0.0319722
0.0307264
0.0294737
0.0277861
0.027956
0.0264038
0.0262523
0.021411
0.0210252
0.019995
0.0196666
0.0194208
0.0196218
0.0208839
0.0236056
0.0438571
0.0332166
0.0330454
0.0335924
0.0337378
0.0397194
0.0464658
0.0704947
0.0652105
0.0716593
0.0613404
0.0637492
0.0629514
0.0625785
0.0653054
0.0688792
0.074225
0.0866916
0.333329
0.513785
0.253085
0.237087
0.246739
0.251653
0.25904
0.33894
0.360096
0.355754
0.360544
0.330517
0.31855
0.196632
0.226059
0.238142
0.237031
0.223911
0.202622
0.393794
0.522649
0.518783
0.523655
0.523767
0.518768
0.522593
0.502915
0.514274
0.501759
0.515023
0.502298
0.52165
0.518911
0.504364
0.501138
0.501158
0.500918
0.501381
0.501557
0.504897
0.506058
0.506109
0.505104
0.504121
0.51452
0.438003
0.123085
0.0856309
0.142601
0.198243
0.162412
0.234567
0.269548
0.194262
0.110507
0.0902812
0.101884
0.125561
0.127038
0.154123
0.201585
0.188651
0.154001
0.154946
0.155712
0.200985
0.192457
0.218711
0.2612
0.254312
0.189564
0.15099
0.150454
0.228662
0.243271
0.238427
0.12402
0.0446625
0.0219695
0.0229063
0.0328962
0.0166111
0.016873
0.0223697
0.0587083
0.0977977
0.0505815
0.137091
0.138641
0.1823
0.14761
0.178502
0.115683
0.118899
0.0676725
0.0796684
0.0895836
0.095336
0.0996719
0.0938367
0.217014
0.320771
0.191145
0.561904
0.538338
0.196363
0.217329
0.575996
0.513008
0.503527
0.501786
0.501699
0.50186
0.501817
0.50097
0.500916
0.500729
0.500766
0.500717
0.501164
0.504767
0.520374
0.514592
0.505239
0.501385
0.500825
0.5008
0.500691
0.500731
0.500751
0.500809
0.501018
0.501051
0.501152
0.501671
0.503942
0.512024
0.435363
0.169837
0.182236
0.405964
0.361729
0.5115
0.504622
0.50137
0.500943
0.500856
0.50083
0.500795
0.50097
0.50089
0.501398
0.501232
0.501287
0.502776
0.508255
0.506388
0.442467
0.368799
0.416326
0.329491
0.506663
0.507773
0.503277
0.502901
0.503248
0.503415
0.501515
0.501528
0.500993
0.501061
0.500894
0.501341
0.504755
0.511009
0.345876
0.17076
0.177694
0.25794
0.0878605
0.0908081
0.0927444
0.0948488
0.24734
0.44219
0.556198
0.471645
0.475538
0.542633
0.385841
0.364647
0.294328
0.317792
0.402139
0.347353
0.312858
0.250413
0.288737
0.247804
0.303542
0.217956
0.234205
0.221733
0.283075
0.286972
0.287313
0.226749
0.216563
0.271638
0.285829
0.316808
0.218796
0.258961
0.2033
0.192399
0.0871233
0.0893088
0.0812203
0.0712943
0.0710421
0.0791536
0.077589
0.0837468
0.0807328
0.0844118
0.0815136
0.07952
0.0727624
0.0748014
0.0686077
0.0712643
0.130322
0.166542
0.1504
0.151816
0.179601
0.131079
0.157436
0.153551
0.197636
0.24805
0.227327
0.293104
0.225605
0.275764
0.405837
0.754204
0.440479
0.245118
0.318256
0.339944
0.288691
0.189601
0.449528
0.538358
0.298008
0.360091
1.19548
1.04307
1.78086
0.992519
1.11945
0.671308
0.597795
1.0291
0.654188
0.666694
0.560092
0.573754
0.499826
0.324687
0.324258
0.306081
0.24217
0.281092
0.271777
0.266929
0.2966
0.261772
0.316937
0.352688
0.397384
0.322819
0.285747
0.367336
0.215773
0.291295
0.346792
0.31607
0.260117
0.338532
0.450686
0.422644
0.363816
0.399707
0.510198
0.564072
0.534081
0.453267
0.515075
1.00812
0.965103
0.931894
0.591335
1.93382
1.71968
0.355032
0.139129
0.0969305
0.0367003
0.0225392
0.0182994
0.0179136
0.0491042
0.0195673
0.0235804
0.0212555
0.0302649
0.0274506
0.0317435
0.0558441
0.0377955
0.0531801
0.0393861
0.0525592
0.0418474
0.057574
0.0618243
0.0651459
0.0526426
0.0415304
0.0627573
0.0837789
0.0391931
0.100859
0.106591
0.0688447
0.0837232
0.103447
0.0534705
0.16629
0.0577218
0.0574915
0.068532
0.128508
0.254018
0.0866499
0.113241
0.588306
1.5315
0.512552
0.203066
0.165931
0.0415734
0.0360592
0.0294612
0.035696
0.0314356