/*--------------------------------*- C++ -*----------------------------------*\
| =========                 |                                                 |
| \\      /  F ield         | OpenFOAM: The Open Source CFD Toolbox           |
|  \\    /   O peration     | Version:  v2012                                 |
|   \\  /    A nd           | Website:  www.openfoam.com                      |
|    \\/     M anipulation  |                                                 |
\*---------------------------------------------------------------------------*/
FoamFile
{
    version     2.0;
    format      ascii;
    class       volScalarField;
    location    "770";
    object      k;
}
// * * * * * * * * * * * * * * * * * * * * * * * * * * * * * * * * * * * * * //

dimensions      [0 2 -2 0 0 0 0];


internalField   nonuniform List<scalar> 
18258
(
0.0336638
0.0158571
0.0124177
0.0102648
0.0110248
0.0140617
0.0168635
0.0212384
0.0256629
0.0315922
0.0386467
0.0475652
0.0535527
0.060685
0.0636457
0.0619324
0.0520441
0.0472924
0.0565418
0.0810318
0.0711052
0.0514349
0.0623117
0.0615744
0.0725347
0.0767501
0.060413
0.0551495
0.0497267
0.0440391
0.0374841
0.023332
0.0241543
0.028879
0.0321348
0.0358712
0.0387538
0.0411208
0.0427499
0.043554
0.0434523
0.0421445
0.0394431
0.0353678
0.0298753
0.0238475
0.0232456
0.023905
0.0296596
0.0351549
0.0405402
0.0460946
0.0544894
0.0446109
0.0290146
0.039174
0.0476465
0.0545366
0.058968
0.0614216
0.0621875
0.061276
0.0589868
0.0557266
0.0517636
0.0474217
0.0433997
0.0394095
0.0341631
0.030899
0.0267837
0.0234365
0.0209936
0.0192791
0.0181591
0.0171577
0.0162939
0.0155621
0.0149467
0.0145248
0.0144323
0.014456
0.0145537
0.0146481
0.0149879
0.0126457
0.0108794
0.0104122
0.0101624
0.00952039
0.00807568
0.0106323
0.0117421
0.0121596
0.01243
0.013601
0.0147304
0.0143
0.0135745
0.0124524
0.0127456
0.0171722
0.0178825
0.0229334
0.021812
0.0170646
0.0147828
0.0165715
0.0193779
0.0224365
0.0192385
0.019205
0.0179063
0.0170134
0.0148614
0.0148865
0.0143646
0.0140581
0.014969
0.0177334
0.0171502
0.0172708
0.0184807
0.0187979
0.0200178
0.0210319
0.020371
0.0201907
0.0163317
0.0162322
0.0172717
0.0171461
0.0176251
0.0201294
0.0201857
0.0205249
0.020739
0.0235237
0.0235426
0.0235118
0.0236027
0.0244579
0.0234865
0.0230705
0.0230959
0.0231306
0.0209644
0.020745
0.0203859
0.0204253
0.018249
0.0175127
0.0182456
0.0192253
0.0211974
0.0249375
0.0313695
0.0402886
0.0503806
0.0606177
0.0683864
0.0727402
0.077108
0.0765585
0.0772658
0.0793658
0.0797433
0.0786128
0.0767674
0.0746113
0.071666
0.0670357
0.0665661
0.0589299
0.0480622
0.0333754
0.0388747
0.0417151
0.0444747
0.0447889
0.0452795
0.0440756
0.0423228
0.0387411
0.0336306
0.0247505
0.0258723
0.0303334
0.0349994
0.0387902
0.0429583
0.0465748
0.0483873
0.0500601
0.0593947
0.0572109
0.0553243
0.0570937
0.058647
0.061836
0.0602451
0.0563132
0.0504268
0.0520517
0.0451767
0.0338094
0.0315809
0.029453
0.0270753
0.0378305
0.0496344
0.0612133
0.0675529
0.0736955
0.0785233
0.0825297
0.0870394
0.081587
0.0764346
0.0577159
0.0837812
0.065781
0.0505864
0.0413558
0.033526
0.0308354
0.0338686
0.0340756
0.0323479
0.0277935
0.0219572
0.023091
0.0360576
0.0459007
0.0539584
0.0555349
0.0602545
0.062731
0.0574046
0.0579884
0.0470893
0.0483078
0.051705
0.0464009
0.0440643
0.0354435
0.027688
0.0336297
0.0500162
0.0686213
0.0845261
0.0995028
0.0660755
0.0502986
0.0412399
0.0344442
0.0331919
0.0377955
0.0437333
0.0528823
0.041188
0.0371581
0.0336548
0.0307897
0.0256361
0.02739
0.0285738
0.0268761
0.0500257
0.0577232
0.0612312
0.0834285
0.0920198
0.107947
0.106816
0.0923495
0.0958621
0.0686509
0.0685182
0.0859653
0.0680277
0.051178
0.0614064
0.0742898
0.0881042
0.101274
0.112588
0.121668
0.123379
0.11191
0.0811438
0.0467169
0.0212702
0.0186391
0.0180932
0.0173833
0.0164939
0.0156842
0.0150529
0.0121035
0.00948713
0.00927455
0.00945806
0.00940459
0.00825659
0.00951131
0.0115743
0.0137627
0.0152678
0.0164739
0.0174914
0.0182226
0.0188091
0.0192062
0.0195015
0.0197674
0.0200003
0.0201836
0.0203184
0.0204056
0.0204448
0.0204282
0.0203499
0.0202085
0.0200024
0.0197153
0.0192442
0.017723
0.0158788
0.0150551
0.0151142
0.0148657
0.0145658
0.0119365
0.0123059
0.0143234
0.0149536
0.0177367
0.0197669
0.0214646
0.0229128
0.0244331
0.0252066
0.0260319
0.0262947
0.0263442
0.0262408
0.0260874
0.0258597
0.0255542
0.0244902
0.0212631
0.024869
0.0272683
0.0289655
0.0303261
0.03124
0.0313498
0.0285958
0.0360587
0.0385114
0.0394162
0.0396772
0.0388517
0.036839
0.0343916
0.0323377
0.0308292
0.0297111
0.0275695
0.0253222
0.0230133
0.0205987
0.017379
0.0186514
0.0204889
0.0206987
0.020407
0.0214553
0.0227125
0.0210539
0.0189576
0.0160847
0.0150888
0.0146051
0.0144188
0.0148348
0.0144864
0.0143784
0.0148725
0.0178668
0.0189569
0.0206567
0.0239177
0.0227853
0.0208436
0.0280181
0.0296261
0.0300767
0.0304288
0.0303339
0.0295769
0.0264979
0.0250415
0.0264299
0.0249751
0.024342
0.0244305
0.0240634
0.0221961
0.0244961
0.0264964
0.0280866
0.0289343
0.0301781
0.0317338
0.0338981
0.0356945
0.0373569
0.0383648
0.0383466
0.0378082
0.0379813
0.0386254
0.0383016
0.0366141
0.0345356
0.0324387
0.029468
0.0292939
0.0312713
0.0328359
0.0344978
0.0362742
0.035596
0.0337038
0.0320756
0.0306535
0.028941
0.0288226
0.0305011
0.031947
0.0336892
0.0358151
0.0359937
0.0338461
0.0320235
0.0305161
0.0288113
0.02878
0.0304826
0.0319982
0.0337261
0.0356183
0.0347461
0.0332723
0.031746
0.0302754
0.0286091
0.0281722
0.0297779
0.0311628
0.0324795
0.033547
0.0318702
0.0312793
0.0302073
0.0288162
0.0270569
0.0258032
0.026312
0.0277002
0.0278111
0.0282914
0.029411
0.0292577
0.0289744
0.0289281
0.028646
0.0264002
0.0268076
0.0268575
0.0275501
0.0308538
0.0303703
0.0330333
0.035438
0.0331264
0.0316424
0.0280863
0.0336543
0.0336902
0.0346415
0.0334599
0.0237045
0.0218538
0.0228528
0.0243821
0.0260192
0.0253214
0.0225823
0.0225108
0.0231135
0.0225199
0.0209502
0.0179709
0.0135032
0.0135121
0.0135022
0.0142349
0.0170353
0.0186276
0.0187354
0.0185772
0.0182718
0.017796
0.017073
0.0159944
0.0156318
0.0248285
0.0453078
0.0565951
0.0559191
0.0425243
0.0357438
0.0265084
0.0185576
0.0113774
0.0107834
0.0114661
0.0137426
0.0114862
0.0110304
0.0151876
0.0121346
0.0201439
0.0232031
0.0303031
0.0414559
0.040174
0.030651
0.0204792
0.0183746
0.0192302
0.019758
0.0201488
0.0205323
0.0209193
0.0213399
0.0218519
0.0215295
0.0188986
0.0166594
0.0167811
0.0173526
0.0198543
0.0212388
0.0220363
0.0217081
0.0219626
0.0236674
0.0224314
0.0212076
0.0209971
0.0202884
0.0231238
0.0234706
0.0228475
0.0228477
0.023126
0.0230133
0.0231516
0.0239536
0.0197742
0.0218947
0.0224465
0.0227265
0.0235173
0.0190341
0.0192268
0.0192957
0.0181523
0.0148777
0.0179684
0.0167326
0.0121465
0.0134592
0.0134283
0.014041
0.0143654
0.0171198
0.016293
0.0155644
0.0163259
0.0222909
0.0230931
0.0232658
0.0206191
0.0193725
0.0218611
0.0224541
0.0220022
0.0211115
0.0212697
0.0203237
0.0184229
0.0177042
0.0178414
0.0192504
0.0200501
0.0201226
0.0237198
0.0232153
0.0216565
0.0226394
0.0232382
0.0228234
0.0227132
0.0226562
0.0222838
0.0218604
0.0222742
0.0224643
0.0225174
0.0220773
0.0223298
0.0249569
0.0214121
0.0212234
0.0201497
0.0194952
0.0178706
0.0176182
0.0177163
0.0176767
0.0175829
0.0167471
0.0186009
0.0178746
0.0200064
0.021616
0.0227638
0.0239314
0.0240794
0.0236468
0.0236047
0.0232184
0.0231823
0.0226345
0.0217921
0.0212112
0.02044
0.0192353
0.0192285
0.0191799
0.0190367
0.0204392
0.0203392
0.021901
0.0230184
0.022731
0.0217689
0.0216589
0.0204857
0.0204616
0.0214995
0.0223848
0.022636
0.0234937
0.0260175
0.0236845
0.0252367
0.0259367
0.0266009
0.0259904
0.0248931
0.0256442
0.0239856
0.0228751
0.0241926
0.0249154
0.0261772
0.0269717
0.0249945
0.0239669
0.0227702
0.0219084
0.0209243
0.0184044
0.0190142
0.0198011
0.0210314
0.0228436
0.025562
0.0282906
0.0312136
0.031269
0.028969
0.027282
0.0320819
0.0315539
0.0365247
0.0371273
0.0330037
0.0302016
0.0272925
0.0268653
0.0259437
0.0254073
0.0241352
0.0253821
0.0258021
0.0248599
0.0273261
0.0288958
0.0332268
0.0387801
0.0354399
0.0326202
0.0376876
0.0366098
0.0425598
0.0363431
0.0346916
0.0285456
0.0331587
0.0355208
0.0432483
0.0338429
0.0296626
0.0294477
0.0307774
0.0382563
0.0367898
0.039375
0.0445426
0.043886
0.0390181
0.0357833
0.0415243
0.0315689
0.0370111
0.0390222
0.0324085
0.0321576
0.0390244
0.0396479
0.0398169
0.0337448
0.0330091
0.0249917
0.0335407
0.0400156
0.0399314
0.0331571
0.0259674
0.035857
0.0314913
0.0312919
0.0312919
0.0268927
0.0268245
0.0261225
0.0263773
0.0270868
0.0246498
0.0254523
0.0257112
0.0258732
0.0260036
0.0261953
0.0265393
0.027182
0.0279053
0.0228499
0.0242807
0.0229272
0.0215993
0.0202669
0.0240416
0.0265202
0.028332
0.0297906
0.0309273
0.0314065
0.0299822
0.0379415
0.0396077
0.0412737
0.0414269
0.0401816
0.0375005
0.0340524
0.0306118
0.0285154
0.0272167
0.0247624
0.022655
0.0205992
0.0184643
0.0156716
0.0143345
0.0130132
0.0116285
0.0112863
0.0107535
0.0101661
0.00951186
0.00918109
0.0115426
0.0162768
0.0270717
0.0327187
0.0386209
0.0455159
0.0519316
0.0570987
0.0609896
0.0638189
0.0656475
0.0661782
0.0637375
0.0533433
0.0482892
0.0433369
0.038292
0.0331198
0.0322032
0.0413795
0.0496796
0.0566647
0.0629503
0.0670314
0.065381
0.0497917
0.0467512
0.06251
0.0900316
0.0808707
0.103856
0.12016
0.079628
0.0648505
0.0640459
0.079482
0.0819807
0.0754511
0.0665795
0.0567916
0.0458774
0.0510561
0.0559463
0.0605697
0.0652232
0.0777776
0.0800361
0.0787386
0.0760758
0.0726869
0.0683103
0.0619587
0.0536777
0.044365
0.0361071
0.0286233
0.0173984
0.0127472
0.0136968
0.0132399
0.0137173
0.0139236
0.0101552
0.0104829
0.0106644
0.0105551
0.0102582
0.0103061
0.0117026
0.0181423
0.0149427
0.0135875
0.0117249
0.0144255
0.016245
0.018001
0.0185184
0.0187269
0.0214787
0.0370724
0.0445126
0.0498922
0.0545304
0.0574163
0.0561976
0.052924
0.0471888
0.0404247
0.0377009
0.0336271
0.0301152
0.0282731
0.0291072
0.0255282
0.0158384
0.0147338
0.0157761
0.0154629
0.0144669
0.0164159
0.0176318
0.0184013
0.0190218
0.0194835
0.0198361
0.0200853
0.0202483
0.0203308
0.0203509
0.0203233
0.0202529
0.0201385
0.0199777
0.0197596
0.0194544
0.018937
0.0172377
0.0154092
0.0147012
0.0147855
0.0145553
0.0141935
0.012319
0.0125459
0.014408
0.0150101
0.0146166
0.0152004
0.0156634
0.0168464
0.0190053
0.0211383
0.0229715
0.0216704
0.021024
0.021004
0.0205997
0.0175216
0.0208241
0.0236371
0.0241411
0.0243996
0.0252086
0.0267967
0.0277553
0.0268307
0.0263418
0.0258204
0.0227912
0.0244185
0.0278903
0.0282965
0.0289548
0.029541
0.0301022
0.0313958
0.0307759
0.0299067
0.0293232
0.0265264
0.0256674
0.0317059
0.0207237
0.014589
0.0105608
0.010944
0.0111772
0.0108706
0.0116252
0.0121459
0.0123566
0.0116674
0.0127493
0.0136618
0.012929
0.0155895
0.0148792
0.0138574
0.0134182
0.0141825
0.0149048
0.0152956
0.0164443
0.0265315
0.0273417
0.0228062
0.0293133
0.0319107
0.0289813
0.0318551
0.0295469
0.0282008
0.0309813
0.0343339
0.0355334
0.0332181
0.0318516
0.0311691
0.0207983
0.0201102
0.0193921
0.017535
0.0177852
0.0173049
0.0168401
0.0164193
0.0188424
0.0202396
0.0212954
0.020997
0.0206779
0.0202819
0.0216209
0.0264773
0.0361062
0.0440035
0.0465289
0.0452672
0.0416236
0.0351699
0.0292136
0.0286282
0.0265836
0.02523
0.0248708
0.0188909
0.0150009
0.017468
0.0174106
0.0184702
0.0191349
0.0196556
0.0200691
0.0204118
0.020705
0.0209863
0.0212499
0.0214811
0.0216767
0.0218457
0.0219865
0.0221384
0.0223205
0.0225729
0.022776
0.0211753
0.0185787
0.0172478
0.0171015
0.0178145
0.0187137
0.0198395
0.0190993
0.0153896
0.0154644
0.0218807
0.022304
0.0209306
0.0195135
0.0197191
0.0188811
0.022645
0.0224388
0.0231883
0.0229817
0.022702
0.0224228
0.0221439
0.0218586
0.0215931
0.0213608
0.0211504
0.0209553
0.0207622
0.0205541
0.0202848
0.0198852
0.0192107
0.0184198
0.017078
0.0182315
0.0193294
0.0209184
0.0228136
0.0238379
0.0229895
0.0217004
0.0210402
0.0211756
0.021459
0.0217762
0.0221175
0.0225123
0.0229351
0.023334
0.0233051
0.0220225
0.0226558
0.0174222
0.0182783
0.0185762
0.0185339
0.0201981
0.0193585
0.0146674
0.0151672
0.015878
0.0171443
0.0197057
0.0200603
0.0213922
0.0216146
0.0172749
0.0169637
0.0165406
0.0175594
0.0152009
0.0158239
0.0264842
0.0271273
0.0348704
0.0382028
0.0398349
0.0331009
0.0455598
0.0523891
0.0504857
0.040879
0.0234782
0.034597
0.042127
0.0487599
0.0456779
0.0355168
0.0448345
0.0473321
0.0631934
0.0588062
0.052439
0.0632224
0.0446805
0.0268746
0.0158183
0.0163936
0.0152036
0.0306449
0.0347475
0.0314332
0.0322769
0.0399161
0.0409329
0.0361806
0.0345104
0.0362668
0.0358223
0.039763
0.0370541
0.0337046
0.0232745
0.0190059
0.0198359
0.0212336
0.0230512
0.0253867
0.025286
0.0241489
0.0227935
0.0218272
0.0207836
0.0182942
0.0176468
0.0196016
0.021227
0.0226019
0.0241052
0.0249202
0.0257568
0.0259217
0.025815
0.0254949
0.0250706
0.0245207
0.023842
0.0224379
0.0236642
0.0243392
0.0245415
0.0248135
0.0251206
0.0253911
0.0255266
0.025409
0.0244719
0.0236711
0.0225106
0.0213954
0.0197937
0.0176835
0.0183616
0.0201142
0.0217077
0.0228182
0.0238641
0.0234706
0.0239524
0.0245971
0.0246229
0.0244468
0.024226
0.0240785
0.0241737
0.0248094
0.0265197
0.0262255
0.029063
0.0302594
0.0276873
0.0263547
0.0256608
0.0252348
0.0249903
0.0247858
0.024589
0.0240472
0.0235033
0.024001
0.0242528
0.0245487
0.0249057
0.0254127
0.0261061
0.0272048
0.0286187
0.0284872
0.0262302
0.0260862
0.025027
0.0242367
0.0238596
0.0238056
0.0238522
0.0239539
0.0238908
0.0233798
0.0230589
0.0234646
0.022459
0.0225284
0.02156
0.0202076
0.0187723
0.0173238
0.0166639
0.0352036
0.0352007
0.0457282
0.0423527
0.0370206
0.0470456
0.0600327
0.052037
0.062772
0.0665434
0.054052
0.0502549
0.027819
0.0243422
0.017395
0.0189166
0.0202562
0.0214544
0.0212707
0.0221867
0.0220685
0.0230285
0.0224863
0.0216971
0.0211664
0.0201545
0.0202113
0.0189448
0.0174041
0.0172705
0.0189137
0.0199406
0.0211154
0.0211014
0.0225547
0.0230635
0.0234611
0.0236131
0.0236028
0.0236885
0.0238602
0.0243069
0.0250223
0.0254923
0.0256503
0.0261158
0.0258674
0.0255446
0.0250817
0.0247662
0.0244433
0.0241607
0.0238635
0.0235839
0.0231532
0.0224999
0.0223801
0.0228934
0.0232359
0.0234753
0.0236174
0.0236074
0.0234252
0.023122
0.0228193
0.0224761
0.0225317
0.023755
0.0239649
0.0240791
0.0238578
0.0236871
0.0236713
0.023557
0.0234653
0.0232363
0.0228679
0.0223946
0.0213295
0.021433
0.0223132
0.0227588
0.0230892
0.0233681
0.0233793
0.0232842
0.0229031
0.0226114
0.0222746
0.0217343
0.0210462
0.0187078
0.0191693
0.0197828
0.0206086
0.0214398
0.0221467
0.022594
0.0227749
0.0227629
0.0225839
0.0222277
0.0214793
0.0214608
0.022004
0.0221796
0.0221394
0.0218488
0.0212467
0.0203339
0.0191409
0.0179312
0.0169553
0.0164498
0.0156542
0.018217
0.0192197
0.0201457
0.0209964
0.0218023
0.0226588
0.0230055
0.0230864
0.0229306
0.0226651
0.0222502
0.0214789
0.0214893
0.0221944
0.0225871
0.0228054
0.0229058
0.0226086
0.0219158
0.0203791
0.0189656
0.017796
0.0167272
0.0156218
0.0152369
0.0157392
0.0153681
0.0158532
0.0170044
0.0184959
0.0198579
0.020825
0.021405
0.0216777
0.0216967
0.0213603
0.0211834
0.0213214
0.0211378
0.0206608
0.0198128
0.0185421
0.0170642
0.0158163
0.0153945
0.0159989
0.0166474
0.0160495
0.0139077
0.015022
0.0160911
0.0172056
0.0188777
0.0209383
0.0219595
0.0224544
0.0226052
0.0224865
0.0221214
0.0214674
0.0214156
0.0220403
0.022395
0.0224906
0.0223891
0.0219148
0.0210482
0.0185331
0.0158094
0.0145925
0.0139054
0.0129588
0.0161988
0.0168925
0.0160749
0.0155413
0.0164092
0.017478
0.0186576
0.0195567
0.0201899
0.0206762
0.0209346
0.0209489
0.0206812
0.0205812
0.0203753
0.0200391
0.0196953
0.0193325
0.0185252
0.0176807
0.0167306
0.0177964
0.0183688
0.0176141
0.0144505
0.0150156
0.0157889
0.0162364
0.0188587
0.0213574
0.0220798
0.0223272
0.0224449
0.0223285
0.0219436
0.0213314
0.0212117
0.0218422
0.0223077
0.0225805
0.0228396
0.0229584
0.0230447
0.0211117
0.0178887
0.017233
0.0155786
0.0147435
0.0181691
0.0188681
0.0183978
0.0178366
0.019483
0.0201818
0.0204455
0.0204557
0.0203925
0.0202992
0.0203072
0.0204053
0.0201099
0.0200015
0.0201124
0.0203279
0.0202765
0.0200407
0.0194609
0.018695
0.0176294
0.0194676
0.0211365
0.0208696
0.016983
0.0175201
0.0182849
0.0177617
0.0203978
0.0222738
0.0228067
0.0228385
0.0225987
0.0221723
0.0216572
0.0210288
0.0207559
0.0213108
0.0218775
0.0219243
0.0220456
0.0220208
0.0214594
0.0212998
0.0207276
0.0204626
0.0197008
0.0191278
0.0183748
0.0205473
0.0237567
0.0259639
0.0275476
0.0294388
0.0280177
0.0244987
0.0222317
0.0152873
0.0152999
0.0155298
0.0148945
0.0145181
0.0143428
0.0187852
0.0215331
0.0242474
0.0260094
0.023547
0.0235178
0.0234328
0.0233133
0.0231986
0.0231049
0.0229027
0.0237669
0.041688
0.283314
0.210842
0.236052
0.224993
0.315089
0.0802854
0.0392749
0.0434607
0.0504308
0.0578433
0.0562117
0.0525559
0.0458335
0.0414982
0.0410963
0.0406114
0.040404
0.0389669
0.0389423
0.0378823
0.0448094
0.0918743
0.122271
0.135992
0.144569
0.153894
0.149394
0.158628
0.150738
0.151387
0.153093
0.157854
0.150524
0.143169
0.139314
0.135048
0.117775
0.118137
0.0997449
0.103595
0.0864808
0.0909808
0.0949131
0.0942732
0.0930593
0.0928321
0.0930969
0.0938964
0.0974417
0.0928091
0.0990948
0.0921867
0.0740435
0.0715
0.0736343
0.0677747
0.0592776
0.0669732
0.0821803
0.097942
0.114473
0.0977446
0.121705
0.115149
0.115455
0.109741
0.103465
0.099685
0.0989634
0.0995719
0.100679
0.103296
0.105184
0.106747
0.109578
0.118118
0.12034
0.118812
0.101359
0.0861183
0.0945706
0.0993669
0.103074
0.10337
0.0986826
0.0964597
0.0901034
0.0885115
0.0828974
0.0803374
0.074824
0.0715576
0.0667523
0.0831377
0.0813916
0.0883573
0.0946079
0.0989149
0.102538
0.104173
0.105408
0.104233
0.101847
0.0969712
0.0949972
0.090264
0.108692
0.127124
0.130024
0.125492
0.111997
0.106406
0.339216
0.411361
0.412557
0.61188
0.653176
0.843912
0.335642
0.180282
0.19277
0.189473
0.181321
0.178133
0.177878
0.189575
0.198569
0.189692
0.199689
0.177831
0.17305
0.167932
0.194793
0.192635
0.173497
0.151903
0.12006
0.0985409
0.0982096
0.0821484
0.0832888
0.0726429
0.0733587
0.0744714
0.0902974
0.165897
0.20695
0.233531
0.259857
0.320085
0.29011
0.43899
0.352291
0.438174
0.3029
0.327377
0.313213
0.304552
0.302611
0.318654
0.340802
0.29978
0.372661
0.298776
0.646995
0.783309
0.497183
0.459601
0.407732
0.393748
0.383994
0.378546
0.370412
0.487416
0.452153
0.551358
0.510981
0.635216
0.559636
0.567681
0.533611
0.571254
0.590405
0.604413
0.484559
0.529961
0.412999
0.447626
0.374249
0.409946
0.292469
0.291714
0.332284
0.369867
0.395129
0.450545
0.709846
0.60317
0.813828
0.583532
0.705636
0.49031
0.536963
0.513068
0.495413
0.497017
0.525015
0.629462
0.608846
0.694855
0.514692
0.526977
0.516689
0.534029
0.523457
0.558377
0.563051
0.564217
0.562181
0.523406
0.533975
0.532167
0.531959
0.531982
0.532328
0.509573
0.512751
0.505218
0.510999
0.526914
0.514581
0.5145
0.512362
0.504789
0.502735
0.502252
0.504009
0.503779
0.508909
0.508779
0.509117
0.512169
0.526878
0.514433
1.82331
0.903644
0.430523
0.339963
0.220712
0.13507
0.0555386
0.059953
0.062842
0.0637222
0.0616244
0.0561915
0.0480037
0.038047
0.030285
0.029348
0.0261514
0.0269672
0.0345107
0.0420751
0.0384181
0.0461884
0.053873
0.0621828
0.0701785
0.077161
0.0830736
0.0860148
0.0829999
0.0703013
0.0526367
0.0352699
0.0250364
0.0226429
0.021003
0.0190079
0.016905
0.0152665
0.0142589
0.0130835
0.0124476
0.0123547
0.0125665
0.0128027
0.0132367
0.0147483
0.016045
0.0172261
0.018183
0.0184269
0.0179233
0.0184634
0.0190572
0.0194494
0.0197903
0.0196294
0.01963
0.0198763
0.0198363
0.0200397
0.0199397
0.0199412
0.0197986
0.0196207
0.0193932
0.0189536
0.0186754
0.0181158
0.0177723
0.0169578
0.0169931
0.0174091
0.0177386
0.0167476
0.016701
0.0159293
0.026442
0.0474876
0.0609266
0.0659469
0.0712472
0.0672564
0.0568185
0.0387932
0.0190998
0.0188191
0.0192855
0.021795
0.0213116
0.0173817
0.0181625
0.0187259
0.0174862
0.0173416
0.0173704
0.019369
0.0199481
0.0213276
0.0218187
0.0222213
0.022443
0.0224434
0.0225454
0.0223026
0.0223105
0.0219487
0.021935
0.0216259
0.0213954
0.021681
0.0223645
0.0224271
0.023037
0.0227325
0.0224156
0.0218563
0.0214303
0.0205857
0.0196488
0.0186554
0.01713
0.0166999
0.0172309
0.0177582
0.0173124
0.0187995
0.0200413
0.0197181
0.0244281
0.0227074
0.0202644
0.0227702
0.0185242
0.0187093
0.0181622
0.0170606
0.0176059
0.0170881
0.0169809
0.017262
0.0175284
0.0186853
0.0196374
0.0202845
0.0211451
0.0218052
0.0225185
0.0237084
0.0240163
0.0230726
0.0229072
0.0217321
0.0210556
0.020745
0.0216694
0.0229498
0.0228374
0.0236904
0.0234331
0.0222002
0.0213908
0.0205283
0.0195519
0.0188894
0.0181247
0.0174047
0.0169998
0.0162088
0.016341
0.0152857
0.0168277
0.0171418
0.0191825
0.0174078
0.0169605
0.0224291
0.02821
0.0440506
0.0321117
0.0211939
0.0227509
0.0307912
0.0381267
0.0263846
0.025983
0.0149941
0.0167777
0.015221
0.0154834
0.0165491
0.0168349
0.0179881
0.0190408
0.0192713
0.0200191
0.0203571
0.0211325
0.0213878
0.0221218
0.0223128
0.0235735
0.0236421
0.0237184
0.0236997
0.0229351
0.0228647
0.0229147
0.0233508
0.0231242
0.0237837
0.0238075
0.0238818
0.0238118
0.0224844
0.0221652
0.0213979
0.0208877
0.0199828
0.0194389
0.0187222
0.0183377
0.0177216
0.0180392
0.0187592
0.0189649
0.0198682
0.0198876
0.020636
0.0208396
0.0213033
0.0214332
0.0220974
0.0222347
0.0224999
0.0225551
0.0237554
0.0238687
0.0239077
0.0238717
0.0238922
0.0241244
0.0241247
0.0240618
0.0240518
0.0239956
0.0238452
0.0237081
0.0247608
0.0254181
0.0249354
0.0246972
0.0249687
0.0258286
0.026381
0.0274786
0.0283355
0.0294175
0.0303149
0.0311482
0.0318313
0.0323172
0.0324484
0.0324895
0.0320487
0.0316789
0.0333788
0.0398751
0.043097
0.0483508
0.0507225
0.0527147
0.0534488
0.0522768
0.0529818
0.0516916
0.051941
0.0507289
0.0502805
0.049445
0.0484217
0.0476935
0.0462093
0.0454754
0.0500836
0.056654
0.0567708
0.0498059
0.046927
0.0424038
0.0366816
0.0388894
0.0452697
0.040562
0.038396
0.0354841
0.0303891
0.0231962
0.0178141
0.0255407
0.0332482
0.0404757
0.0472736
0.0532779
0.057172
0.0593039
0.0608392
0.0625373
0.0605212
0.0530893
0.0415175
0.0317221
0.0278814
0.0263399
0.0238934
0.0204493
0.0185583
0.017482
0.0163256
0.0149742
0.0141126
0.0138662
0.0140985
0.014212
0.0155582
0.0168177
0.0168118
0.0179888
0.017823
0.0183318
0.0189207
0.0193194
0.0199889
0.019955
0.0189957
0.0193412
0.019603
0.020277
0.0201747
0.0203417
0.0201186
0.0194007
0.0188838
0.0182845
0.0177681
0.0173139
0.0167476
0.016049
0.0160384
0.0162433
0.0157992
0.0161989
0.0166312
0.0170313
0.0176556
0.0185614
0.0193203
0.0211466
0.0212935
0.0210418
0.0211298
0.0197068
0.019647
0.0186742
0.0184434
0.0200349
0.0198812
0.0182099
0.019605
0.0196048
0.0213783
0.0213796
0.0207082
0.0209053
0.0207834
0.0189607
0.0180712
0.0170069
0.016232
0.0156511
0.0152594
0.0148047
0.0154236
0.0142468
0.0136592
0.0140948
0.0140693
0.014134
0.0145192
0.0149465
0.0156889
0.0163906
0.017432
0.0180681
0.0189635
0.0192961
0.0211996
0.021114
0.0209917
0.0210221
0.021155
0.0216076
0.0208169
0.0207793
0.0209207
0.0209353
0.0209518
0.0209327
0.0190991
0.0188959
0.0180626
0.017746
0.0168184
0.0164614
0.0158081
0.0154961
0.0151095
0.0149137
0.0232904
0.0254906
0.0256547
0.0398215
0.0199956
0.0199937
0.0343698
0.0173654
0.0230934
0.0236513
0.0247206
0.025931
0.0225799
0.0307583
0.0212399
0.0233397
0.0240794
0.0252668
0.0127667
0.0189263
0.0363509
0.0421223
0.0434747
0.0484463
0.0551959
0.0584471
0.0615067
0.0635802
0.0658524
0.0683261
0.0707421
0.0725026
0.0726704
0.0690173
0.0659779
0.0565177
0.0527037
0.0564545
0.0608898
0.0474189
0.0426248
0.0431793
0.0436573
0.0442019
0.0444195
0.0451219
0.044934
0.045949
0.0452165
0.0463391
0.0451963
0.0462414
0.0449825
0.042227
0.0389866
0.0327441
0.0307469
0.0296293
0.0269013
0.0243909
0.0221239
0.0202848
0.0198449
0.018275
0.0168652
0.0165657
0.015276
0.0155194
0.0167254
0.0198354
0.0168154
0.0176686
0.0259523
0.0191361
0.0180517
0.0186029
0.0191245
0.0193621
0.0182576
0.0198912
0.0221717
0.0221564
0.0222174
0.0222224
0.0214216
0.0212603
0.0209846
0.0210393
0.0210718
0.0211909
0.021157
0.0193389
0.0192827
0.0190102
0.018872
0.0180855
0.0179186
0.0173372
0.0170084
0.0161706
0.0158775
0.0154276
0.0154753
0.0165068
0.0202215
0.0295216
0.0171796
0.0177814
0.0154181
0.0139417
0.0265707
0.0247878
0.0286174
0.0267809
0.0394483
0.0264364
0.023199
0.0242172
0.0297352
0.0296608
0.0325746
0.0423617
0.0330167
0.0281178
0.0721568
0.0519741
0.0328833
0.0456009
0.0576653
0.108168
0.126882
0.0556877
0.0562325
0.0619365
0.0628259
0.0627052
0.0530282
0.0489321
0.0409793
0.0313959
0.0129248
0.0249031
0.0321255
0.0422599
0.056369
0.0917921
0.0527394
0.0595635
0.0655014
0.0645806
0.0676888
0.0658163
0.0644238
0.0653775
0.102503
0.111602
0.107011
0.0854185
0.0802164
0.0738009
0.123789
0.13895
0.119652
0.129652
0.13523
0.0805039
0.0301977
0.0249601
0.0238312
0.0264068
0.0253532
0.0460506
0.0205789
0.0218263
0.0226514
0.0271723
0.0301755
0.0529157
0.0232422
0.0254577
0.0324082
0.0348674
0.0459655
0.0274225
0.0280906
0.0344243
0.0362166
0.0395274
0.0336377
0.0317527
0.0287349
0.0259204
0.0244238
0.025476
0.031882
0.0464064
0.0278902
0.0283172
0.0300805
0.133347
0.0307442
0.0266521
0.0277028
0.026714
0.0336797
0.0351308
0.110904
0.0354247
0.0166902
0.0154599
0.0159396
0.0167504
0.0173874
0.018003
0.0184481
0.0190854
0.019481
0.0196314
0.019799
0.0221722
0.0220792
0.0216117
0.0210686
0.0218642
0.0211691
0.0212189
0.0218366
0.0213042
0.0214448
0.0224957
0.0236643
0.0231807
0.0237483
0.025095
0.0239363
0.0222329
0.0220293
0.0221558
0.0228623
0.024004
0.0228093
0.0234585
0.0226379
0.0235642
0.0236648
0.0203674
0.0200016
0.0198001
0.0192955
0.0186246
0.0180001
0.0173268
0.0166692
0.0161489
0.0160418
0.016496
0.0151786
0.01554
0.0177719
0.0388357
0.0319611
0.0262134
0.0220306
0.0194697
0.018378
0.0182896
0.0187465
0.0194002
0.0199641
0.0201716
0.0207542
0.0246308
0.024586
0.0257937
0.0246496
0.02599
0.0249379
0.0236109
0.0227406
0.0239486
0.0232473
0.0237369
0.0253567
0.0262061
0.0238453
0.024118
0.0215245
0.0201071
0.0184881
0.018827
0.0202786
0.0209592
0.0234034
0.0234824
0.0269262
0.0269004
0.0267463
0.0255056
0.0248302
0.026286
0.0247979
0.0259499
0.0248359
0.0262436
0.0274265
0.0277761
0.0270702
0.0261987
0.0253213
0.021053
0.0202672
0.0199607
0.0194634
0.0191901
0.0200597
0.0241873
0.0331894
0.0450931
0.0571071
0.0665406
0.0661705
0.0596762
0.0402374
0.0414318
0.0383306
0.0419221
0.0594402
0.0847146
0.0591387
0.113541
0.0879839
0.0522442
0.0625721
0.074526
0.0836616
0.0895146
0.0903476
0.076764
0.0564081
0.0495319
0.0519735
0.0844163
0.0831593
0.082328
0.0779056
0.0823817
0.0802835
0.077633
0.0760875
0.074327
0.0701019
0.0700809
0.0674194
0.067393
0.0602532
0.0614433
0.0616795
0.059108
0.0563621
0.0540771
0.0518887
0.0495667
0.0456722
0.0443911
0.0419093
0.040164
0.0368054
0.0362735
0.0357883
0.0336128
0.0320599
0.0308059
0.0295435
0.0278395
0.0279978
0.0263954
0.0262374
0.0213784
0.0210022
0.0199906
0.0196527
0.0193922
0.0195609
0.020744
0.0233343
0.043276
0.033002
0.0329218
0.0335078
0.0337272
0.0396352
0.0464261
0.070705
0.0654192
0.0720212
0.0615494
0.0640056
0.0632078
0.0628152
0.0655269
0.0691129
0.0744496
0.0869537
0.333675
0.513814
0.25333
0.23729
0.246894
0.251768
0.259212
0.339377
0.360224
0.356321
0.360762
0.33061
0.318343
0.196637
0.226047
0.238115
0.23698
0.22382
0.201865
0.391917
0.522665
0.518792
0.523658
0.523771
0.518765
0.522607
0.502911
0.514274
0.501758
0.51503
0.502299
0.52168
0.51894
0.504364
0.501137
0.501156
0.500916
0.501378
0.501555
0.504893
0.506055
0.506107
0.505102
0.504109
0.514527
0.435425
0.121365
0.0842637
0.139821
0.194273
0.15887
0.230692
0.265433
0.191214
0.108502
0.0882727
0.0995793
0.122598
0.124171
0.151118
0.198074
0.185604
0.151441
0.152467
0.152684
0.197656
0.189485
0.215792
0.257996
0.25156
0.186999
0.1487
0.147462
0.225364
0.240561
0.235833
0.121306
0.04332
0.0216922
0.0225504
0.0326255
0.0164601
0.0168157
0.0218314
0.056685
0.0952471
0.0489231
0.134565
0.136768
0.181297
0.146849
0.177794
0.114962
0.118469
0.0673956
0.0793872
0.0893361
0.0951093
0.0993749
0.0932916
0.215447
0.317767
0.18959
0.559861
0.537338
0.195481
0.216808
0.57559
0.513014
0.50352
0.501783
0.501698
0.501858
0.501815
0.500969
0.500915
0.500728
0.500765
0.500716
0.501163
0.504767
0.520405
0.514616
0.50524
0.501385
0.500824
0.500799
0.50069
0.50073
0.50075
0.500807
0.501017
0.501049
0.50115
0.50167
0.50394
0.512033
0.435669
0.169801
0.182177
0.40596
0.361721
0.511506
0.504622
0.501369
0.500941
0.500855
0.500829
0.500794
0.500969
0.50089
0.501397
0.501231
0.501287
0.502777
0.50826
0.506398
0.443446
0.369661
0.417446
0.330192
0.506674
0.507778
0.503277
0.502899
0.503246
0.503413
0.501513
0.501526
0.500992
0.50106
0.500892
0.50134
0.504755
0.511017
0.345884
0.170752
0.177642
0.257839
0.0878055
0.0907012
0.0925982
0.0946795
0.246624
0.440451
0.554419
0.470226
0.474468
0.54125
0.385007
0.363759
0.293505
0.317118
0.401353
0.346787
0.312423
0.249939
0.288169
0.24743
0.3032
0.217618
0.233923
0.221518
0.282793
0.28666
0.287031
0.226477
0.216367
0.271399
0.285728
0.316697
0.21852
0.258821
0.203096
0.192111
0.0869967
0.0891425
0.0810194
0.0710727
0.0708604
0.0789972
0.0774583
0.0836584
0.0806806
0.084403
0.0815562
0.0795097
0.0726839
0.0746946
0.0684704
0.071105
0.130048
0.16615
0.150112
0.151534
0.179213
0.130738
0.157089
0.153082
0.197153
0.247523
0.225587
0.289835
0.224213
0.27496
0.404921
0.753665
0.435794
0.243419
0.317515
0.33985
0.288286
0.189266
0.449122
0.538269
0.297704
0.36005
1.19656
1.0438
1.78185
0.991677
1.11763
0.669538
0.596876
1.02781
0.652731
0.664973
0.558622
0.572554
0.497982
0.323472
0.322846
0.304814
0.241207
0.279673
0.270416
0.266255
0.295732
0.260837
0.315715
0.351484
0.396094
0.322007
0.284792
0.365814
0.21505
0.289567
0.345124
0.314613
0.25884
0.336728
0.448405
0.419028
0.360403
0.397729
0.50793
0.561626
0.529984
0.449414
0.509828
1.00404
0.960315
0.929211
0.588871
1.93367
1.71634
0.350439
0.136022
0.0946244
0.0358528
0.0223824
0.0182694
0.0178756
0.048751
0.0195462
0.0235106
0.0211404
0.0297719
0.0272094
0.0314402
0.0549773
0.037392
0.0523602
0.0388942
0.0514899
0.0410221
0.0563504
0.0604976
0.0636542
0.0514744
0.0406129
0.0613543
0.0818689
0.0383305
0.0985652
0.104149
0.0672444
0.081838
0.101017
0.0522732
0.163649
0.0568436
0.0563746
0.0668621
0.125336
0.249228
0.0845644
0.111158
0.582888
1.52814
0.507677
0.199773
0.162722
0.0413627
0.0359345
0.0291397
0.0355453
0.0313687