/*--------------------------------*- C++ -*----------------------------------*\
| =========                 |                                                 |
| \\      /  F ield         | OpenFOAM: The Open Source CFD Toolbox           |
|  \\    /   O peration     | Version:  v2012                                 |
|   \\  /    A nd           | Website:  www.openfoam.com                      |
|    \\/     M anipulation  |                                                 |
\*---------------------------------------------------------------------------*/
FoamFile
{
    version     2.0;
    format      ascii;
    class       surfaceScalarField;
    location    "770";
    object      phi;
}
// * * * * * * * * * * * * * * * * * * * * * * * * * * * * * * * * * * * * * //

dimensions      [1 0 -1 0 0 0 0];
oriented        oriented;


internalField   nonuniform List<scalar> 
50655
(
0.002572
-0.00361063
-0.00137722
-0.00511173
0.00127094
0.00366705
-0.00342574
0.00386177
0.00454758
-0.00249807
-0.0027869
0.00296979
-0.00368746
-0.0037611
0.00271876
-0.00180735
-0.00480628
0.000869696
0.000128385
-0.004662
0.00165933
-0.00187418
-0.00721087
0.00246133
-0.0105043
0.00288516
0.000309484
-0.0113259
-0.00349413
0.00420578
-0.0120749
-0.00486278
0.00550938
-0.012932
-0.00565063
0.0064036
-0.0262214
-0.00933801
0.0224334
-0.0487493
-0.0283135
0.0502811
-0.048329
-0.0527761
0.0516586
-0.0310823
-0.0711713
0.0531467
-0.00451713
-0.0780537
0.0507056
0.00790803
-0.0546999
0.0414634
-0.00171091
-0.0314109
0.040257
-0.0210578
-0.0217009
0.040281
-0.0169863
-0.0513085
0.0465146
-0.00712392
-0.0553167
0.0448967
-0.0388673
0.0314143
-0.0414205
0.0188158
-0.0165638
-0.0161318
-0.0755599
0.0497764
0.0200854
-0.0798115
0.0430979
0.0305915
-0.0293714
0.0185583
0.0341638
-0.00390973
0.0366014
0.0178788
-0.0206388
0.0254936
-0.018018
0.0288499
0.0165617
-0.0094992
0.018262
0.00353241
-0.00133096
0.0142332
-0.00644923
0.00691546
0.00297089
-0.00541811
0.000209101
-0.00128092
-0.00538932
-0.00119482
0.00114763
-0.00631204
0.000194931
0.000710503
-0.00757742
0.000182938
0.00106584
-0.00870939
6.36697e-05
0.00105116
-0.00910178
-0.000275394
0.000651423
-0.00936454
-0.000694836
0.000941005
-0.00892837
-0.0011228
0.000670336
-0.00829909
-0.0015928
0.000946836
-0.00707406
-0.00204253
0.000801073
-0.00564294
-0.00250712
0.00105913
-0.00377323
-0.00280409
0.000918203
-0.00194822
-0.00298965
0.00114768
0.000999084
-0.0029649
0.000759358
-0.00246343
0.00267751
-0.00563247
0.00496084
0.00138921
-0.0112163
0.00469824
0.000829115
-0.0132678
0.00511789
-0.00313346
-0.0130618
0.00534889
-0.00562184
-0.00546548
0.00463341
-0.0122862
0.000498512
0.00559836
-0.0116041
0.000599566
0.00357006
-0.00369675
-0.00150327
0.00208525
-0.0029488
0.00214093
-0.000712542
-0.00450666
0.00218894
-0.000647236
-0.00581846
0.0023485
-0.00105308
-0.00708457
0.00230639
-0.00105523
-0.00858543
0.00249842
-0.00101158
-0.0101511
0.00258467
-0.00103242
-0.0114464
0.00237753
-0.00109536
-0.0123494
0.002017
-0.00112695
-0.012818
0.00160482
-0.00114925
-0.0131374
0.00143966
-0.00113357
-0.0137424
0.0015673
-0.000976522
-0.0139506
0.0011233
-0.00093019
-0.0136568
0.000897159
-0.0012064
-0.0136477
0.000782977
-0.000807751
-0.0133734
0.00082735
-0.00111776
-0.0131261
0.00090203
-0.00116526
-0.0129812
0.000845157
-0.00100576
-0.0127053
0.000575624
-0.000867157
-0.0121659
0.000126986
-0.00068183
-0.0112653
-0.000447616
-0.000468224
-0.0101453
-0.000906633
-0.000228746
-0.00882825
-0.00100229
-0.000329477
-0.00738041
-0.000752778
-0.000708916
-0.00757867
-0.000686264
0.000872523
-0.0163822
0.000830582
0.00794636
-0.0211475
0.000419019
0.00428569
-0.0225865
0.00116305
0.000210729
-0.0425465
0.0163579
0.00348473
-0.054517
0.00565486
0.00601732
-0.0294391
-0.0162267
-0.00915879
-0.0131022
-0.0149145
-0.00155458
-0.0112419
-0.00397273
0.00203445
-0.00998417
-0.00305679
0.00170901
-0.0080662
-0.00340496
0.00138549
-0.00471059
-0.0032719
-0.000178976
-0.00316016
-0.00163574
-0.00441828
0.00457316
-0.00340992
-0.00263246
0.0067231
-0.00862255
0.000964794
0.00619798
-0.00992742
0.00626911
0.00588568
-0.0113348
0.0150706
0.00875523
-0.0177378
0.0285968
0.0137105
-0.0275192
0.0248492
0.0196321
-0.0161659
0.0163621
0.00632858
0.00197377
0.00743106
9.12949e-05
0.00869244
-0.00140386
-0.00415566
0.0128556
-0.00456236
-0.00689777
0.0099399
-0.00758283
0.00538435
0.00447971
0.000965913
-0.0102408
0.00228513
-0.00835473
0.00353785
-0.00487223
-0.00445737
0.0073333
-0.0123759
0.00206619
0.00539591
-0.014311
0.00567138
0.00245544
-0.038579
0.0268184
0.0232312
-0.00673087
-0.0133636
0.0369866
-0.00985536
-0.0392136
-0.00486958
0.00925209
-0.00912539
-0.000604581
0.00894816
-0.00745753
0.00261977
0.00956862
-0.00671741
0.00455032
0.00958853
-0.0049059
0.00710275
-0.00134499
0.0112452
-0.004936
-0.00272856
0.0124217
-0.00187373
-0.00246197
0.00881772
-0.000399422
-0.00411137
-0.00203576
-0.0210549
-0.00209758
0.0295365
-0.0106699
-0.0143053
-0.00164143
-0.00712761
-0.00245937
-0.00733999
0.0158602
0.00136355
-0.0102785
0.0219049
0.00116492
-0.0090073
0.0324372
0.000394944
-0.0132016
0.0831665
-0.0020874
-0.0360078
0.0467666
-0.00197623
0.0455055
-0.0021439
0.00740651
-0.00308934
0.0384324
0.00384689
0.0217689
0.00194884
0.0232265
-0.000321673
0.0113103
0.0139358
0.00621899
-0.00791852
0.00010602
0.00680665
0.00521322
-0.0014761
0.00731781
0.00818289
-0.00152107
0.00711854
-0.0150668
0.00797508
-0.00209182
0.00736613
-0.0153145
0.00849927
-0.00126004
0.00743269
-0.0166968
0.00841182
-0.00129675
0.00741651
-0.0160114
0.00861076
-0.000627647
0.00727868
-0.0165724
0.00860398
-0.000252997
0.00702701
-0.0159778
0.00855614
0.000708081
0.00623017
-0.0154358
0.00822593
0.0057593
0.00441855
-0.0169337
0.00744944
0.00149099
-0.00415053
0.00567035
0.00273417
0.000805186
0.00537677
-0.000279403
0.000624048
0.00713431
-0.000733764
0.000776985
0.00801088
-0.00114909
0.000931446
0.0083143
-0.00120306
0.001268
0.00838332
-0.00131662
0.00149135
0.00855823
-0.00136216
0.00149362
0.00870292
-0.00135204
0.00125685
0.00871411
-0.00137112
0.000930431
0.00882904
-0.0011967
0.00730488
-0.000264458
0.00935209
-0.00199429
-0.000819687
0.0110294
-0.00183963
-0.000855334
0.0123123
-0.00153685
-0.000668626
0.0130979
-0.000302934
-0.000945912
0.013528
0.000860519
-0.00117935
0.0137058
0.00171656
-0.00133471
0.0137053
0.00224447
-0.00141498
0.0137647
0.00225743
-0.00143143
0.01372
0.00183397
-0.000978312
0.0137265
0.00135735
-0.000596943
0.0139082
0.00123761
-0.000537811
0.013295
0.00115726
0.00056399
0.012441
0.00243909
0.000239121
-0.000271019
0.0126801
-0.000415352
0.00244354
-0.000840922
0.0123405
-0.000239605
0.00280488
-0.000634091
0.0114663
-7.56257e-05
0.00311606
-0.000162356
0.0102037
4.74368e-05
0.000300341
0.00327908
0.00860517
0.000724945
0.00331618
0.000128534
0.00686061
0.00104298
0.00304979
0.000136388
0.00585577
0.000965969
0.00224278
8.75219e-05
0.00441331
0.00462505
-0.00085049
0.002862
0.00427974
-0.000555695
0.00141885
-0.000506871
0.00407454
0.00389424
-0.000407074
0.0056031
-0.000515268
-0.00120973
0.00682646
-0.000409725
-0.000830486
0.0077986
-0.000607974
-0.000380656
0.00816401
-0.00047373
9.15997e-05
0.00822256
-0.000607393
0.000532386
0.00753567
-0.000259987
0.000930276
0.00656206
-0.000296383
0.00125343
0.00474921
0.000289982
0.00150579
0.00206631
0.00113182
0.00153396
-0.00170537
0.00206027
0.00169346
-0.00446619
0.000573898
0.00216894
-0.00599444
-0.000866297
0.00237528
-0.00728161
0.000626619
0.000638601
-0.0137448
0.000509827
0.00590853
-0.0248248
-0.00654429
0.0175084
-0.0309801
-0.01613
0.0221201
-0.0391335
-0.0260602
0.0339472
-0.0316468
0.0236173
0.0161996
-0.0384423
0.00917579
0.0259024
-0.0166904
0.00691915
-0.00457692
0.00436507
-0.0322496
0.0261179
0.001506
-0.0147009
-0.0233391
0.0057552
-0.0375246
0.00608697
0.0411971
-0.0573678
-0.000821674
0.0289975
-0.0499848
0.0151677
0.0125886
-0.00998582
0.0169583
-0.0102746
0.0109354
-0.00250905
0.0189262
0.00790488
0.0112959
-0.012556
0.0135262
0.00527624
-0.00619375
0.00134576
0.0112527
0.00486724
0.00102416
0.00270312
0.00128761
-0.00102689
0.00155031
0.00273202
-0.00487937
0.00383557
0.00205565
-0.00544397
-0.00049925
0.00217471
-0.0095755
0.0019777
0.00242333
-0.0082244
-0.00369267
0.00202509
-0.0118733
0.00194879
0.00142029
-0.00891225
-0.00418559
0.000597308
-0.0112456
0.00214556
-0.000305653
-0.0073245
-0.00320739
-0.0013414
-0.00816161
0.00228416
-0.00187694
-0.00440925
-0.00171975
-0.00256712
0.00129391
-0.00255924
0.00397857
0.0117538
-0.0106192
0.0114768
0.00653212
-0.00944942
0.0129978
0.00887142
-0.00511331
0.0100382
0.0104843
-0.00247657
0.00408475
0.00947583
0.0011234
0.0126868
-0.00227754
-0.00219766
0.000774601
0.0150331
-0.00587404
0.00471783
-0.00331558
0.00205016
0.0149536
-0.00747248
-0.0031159
0.00318556
0.00740896
0.0103564
-0.00787761
-0.00272507
0.00322742
0.0118983
0.00179215
-0.00670875
-0.00203303
0.00108994
0.016131
-0.000755193
-0.00444872
0.00745115
-0.000357914
-0.00519102
0.0111672
7.59566e-05
-0.0103702
0.0126832
-0.00894647
-0.0142712
-0.0141481
0.00843976
0.00572554
-0.0241558
0.00411065
-0.0185817
0.00623454
-0.0165124
-0.0114074
0.00926903
0.00797276
0.00960773
-0.0341395
-0.0237697
0.00755132
0.0112182
0.00753074
-0.0100346
-0.0325726
-0.00917545
0.00782119
-0.00163318
2.25696e-05
0.00780924
-0.00658729
-0.0104832
0.0115095
-0.00764947
-0.0141752
0.0105234
0.0105495
-0.000795018
-0.00885379
0.0103408
-0.00150726
0.00794608
-0.00777647
0.00390612
0.00103285
0.00460519
-0.00363844
0.00587512
-0.00630459
0.0139825
-0.0121441
-0.00357316
0.0108136
-0.0170396
-0.00262621
0.00570442
-0.0169733
-0.00101042
-0.00116936
0.0020158
-0.00823386
0.00838378
0.00966393
-0.00956865
0.0108664
0.0113024
-0.00499381
0.0114981
0.0119369
-0.00216448
0.0107032
0.00432773
-0.0109173
0.0110624
0.00301527
-0.00914044
0.0122036
-0.00212711
-0.00494034
0.0117833
-0.00476465
0.0097677
-0.00612534
0.00221199
0.00382318
0.00103362
0.00795292
0.00760238
-0.00164728
0.010967
0.00880257
0.00029994
0.00759257
0.0064876
-0.00920426
0.0102241
-0.000207565
-0.00715698
0.00376889
0.00289796
0.00017318
0.00160886
-0.00142611
0.0049534
-0.00657086
-0.00155872
-0.00231
0.0187617
-0.00353456
-0.0194154
0.016939
-0.00145004
-0.00177084
-0.016238
-0.0119007
-0.000880642
0.00332202
-0.00866313
-0.0106949
-0.0131222
0.00654441
-0.00595133
-0.0049641
0.000867054
0.00137186
0.00038738
-0.00209381
-0.00424735
-0.000992244
0.00396978
-0.00259174
-0.000420816
0.00180002
-0.00237283
0.00128737
-0.00380418
0.00675756
0.000696455
-0.0111428
0.000656782
-0.00347444
0.0104277
-0.00346183
-0.00444845
-0.0188929
0.0139121
-0.0118426
-0.0193629
-0.0118116
0.00788476
0.0043047
-0.0265629
-0.0154389
0.00260849
0.00934824
0.0105712
-0.0355374
-0.0165216
0.0130983
0.00186351
0.0104319
-0.0422453
-0.0146856
0.00986742
0.000114235
0.0113085
-0.0436223
-0.010851
0.00327455
-0.00149833
0.0103473
-0.04313
-0.00623853
-0.00145825
-0.00180785
0.00890243
-0.0394483
-0.00341354
-0.00447421
0.00411191
-0.0347118
-0.00125478
-0.00707799
0.00650899
-0.0030208
-0.0321501
0.0012633
-0.0060827
0.00563203
-0.00347621
-0.0291023
0.00256632
0.00450623
-0.00395624
-0.00626696
-0.0289081
0.00195539
0.00399966
-0.00351866
-0.00274258
-0.0298098
8.86362e-05
0.00189739
-0.00119151
-0.027751
-0.00171793
0.0014528
-0.00190725
-0.0229237
-0.00275628
0.0015983
-0.00376561
-0.0300881
0.00175775
0.0226066
-0.0172755
-0.0591881
0.0293127
-0.0130505
0.0124606
0.00589762
-0.0198578
-0.00148793
-0.013302
-0.0251638
-0.00904218
-0.0122418
-0.000536798
-0.00871568
-0.0111375
0.000552198
0.0003088
-0.00940977
-0.000673386
0.000558129
-0.00578703
-0.00383504
0.0014875
-0.00308381
-0.00403683
0.00105624
-0.00454155
-0.000247663
-0.00446151
0.000790882
-0.000918167
-0.00685251
0.0020427
0.000285111
-0.0107921
0.00219497
0.00166497
-0.0131023
0.000805847
0.00142573
-0.0133674
-0.000363105
0.000558482
-0.0130754
-0.00175648
0.00141047
-0.0236464
0.0014158
0.00908047
-0.0568471
0.0174875
0.0155064
-0.101255
0.00876766
0.0350672
-0.117881
-0.00597002
0.0219023
-0.127201
-0.0116977
0.0202433
-0.133594
-0.0165967
0.0221547
-0.137216
-0.0222842
0.0250219
-0.138525
-0.0273404
0.0277381
-0.138439
-0.030814
0.0298043
-0.137627
-0.0329598
0.0312226
-0.136171
-0.0342066
0.0318352
-0.134025
-0.0348581
0.0318098
-0.130183
-0.0353704
0.0306569
-0.122215
0.0278798
-0.0366814
-0.10309
0.0208616
-0.040746
-0.0533512
0.00341319
-0.0537705
-0.0225765
-0.00118216
-0.0298115
-0.012363
-0.00426472
-0.00602606
-0.0120848
0.00199798
-0.00233128
-0.0111855
0.00433948
-0.00530951
-0.00875256
0.00385607
-0.0063695
-0.00423767
0.0040247
-0.00862395
-0.00478063
0.00349329
-0.00302155
-0.0080491
-4.84301e-05
0.00326608
-0.00780993
0.00237402
-0.00268437
-0.00894293
0.0010452
-0.0138141
0.00697252
-0.00219997
-0.0166428
0.00714018
-0.00442136
-0.0189157
0.00764004
-0.00546977
-0.0237692
0.0070009
-0.0022521
-0.0533019
0.0187306
0.0106056
-0.0978902
-0.00809248
0.0521071
-0.110875
-0.0316726
0.0439366
-0.112341
-0.0418197
0.0424749
-0.107659
-0.0476611
0.0421567
-0.0988943
-0.0521291
0.0425079
-0.0862259
-0.0543476
0.0408546
-0.0692847
-0.0558474
0.0380863
-0.0495775
-0.0568272
0.0363541
-0.0239097
-0.0481047
0.0218002
-0.0375651
0.0132168
-0.0534288
0.0235139
-0.00811735
-0.0592931
0.0258037
-0.0204422
-0.0593918
0.0271279
-0.0275554
-0.0504085
0.0268959
-0.0364054
-0.040357
0.0247382
-0.0352925
-0.0231662
0.0167478
-0.0344058
0.00930341
-0.0329083
0.0271005
0.0382353
-0.0566691
0.0508335
0.0496307
-0.0741296
0.074666
0.0497118
-0.0743641
0.0948237
0.0499079
-0.0708901
0.110535
0.047084
-0.063652
0.118734
0.0397393
-0.04876
0.116683
0.0329484
-0.0317078
0.101018
0.0300494
-0.0151048
0.0543769
0.0398017
0.00626558
0.0254137
0.0249981
0.0037687
0.0213145
0.00417307
-0.000178502
0.0194073
0.000591683
0.00121296
0.0158339
0.000297767
0.00316571
0.00910768
-0.000250326
0.00687799
-0.000930517
0.00995042
-0.000976687
-0.00969515
0.00964558
0.000706329
-0.0130798
0.0112878
0.00254124
-0.0142067
0.0122487
0.00403847
-0.0135384
0.0119056
0.00427464
-0.0191239
0.0187098
0.00777455
-0.0285655
0.0247805
0.0037621
0.0235655
-0.0198367
-0.000241731
0.0168524
-0.0130277
-0.000431338
0.00841707
-0.00836312
-0.000591976
0.00773238
-0.00769495
-0.00112248
0.0073617
-0.00694019
0.00630914
-0.0064822
0.00346257
0.00545251
-0.000294462
0.00324604
0.00618583
0.00132034
0.00333986
0.00590947
0.00165135
0.00399527
0.00478012
0.0029033
0.0103394
0.0115694
-0.0011668
0.0193669
-0.0089601
-0.000112888
0.0091179
-0.00418726
0.0143956
-0.0229724
-0.0113925
0.043413
-0.0155258
-0.00575002
-0.00177505
-0.000977055
0.00356766
0.0048684
-0.00942884
0.00604456
-0.00260054
0.0036286
-0.00178623
-0.00824109
0.000448608
-0.0091473
-0.0102497
-0.0126391
0.0183876
-0.0047717
-0.0306876
0.00322082
0.00365364
0.00405454
-0.0175119
-0.0495763
0.00586244
0.0101073
0.00084849
-0.0580477
-0.0156374
0.026166
-0.00421019
-0.0203634
0.00616073
-0.00323502
-0.0202486
0.00560251
-0.00225954
-0.0206072
0.00530042
-0.000892087
-0.0189922
0.0044324
-0.0149619
0.00402761
-0.0210856
0.00225969
0.00403691
-0.0218978
-0.00133958
0.00262932
-0.0178491
8.64277e-05
0.00543762
0.00164659
-0.0464872
0.035378
0.00829953
0.00803106
-0.114811
0.0350323
0.0513764
0.0208259
-0.124881
0.047287
-0.00802214
-0.125731
0.0547812
-0.02185
-0.117924
0.0645582
-0.0335024
-0.103023
0.0732331
-0.0419325
-0.0839536
0.0769885
-0.0470174
-0.0614747
0.0747831
-0.0483894
-0.0367707
0.0744422
-0.0503295
0.0505629
-0.032918
0.0589678
0.0460177
-0.030292
0.0685349
0.0519774
-0.0352737
0.0688463
0.0531407
-0.0269491
0.0634032
0.0508722
-0.020233
0.0441171
-0.00587221
-0.0882821
0.0719361
0.00282185
-0.0980785
0.0755713
-0.0158114
-0.0995612
0.0800205
-0.0263394
-0.0882696
0.079224
-0.0394804
0.0718793
-0.0405976
0.0880806
0.094325
-0.036634
0.097662
0.10157
-0.0328564
0.0945287
0.101037
-0.0188128
0.0819556
0.0960071
-0.00875351
0.0903195
0.00688553
-0.0812812
0.103361
0.0130244
-0.0944938
0.110417
-0.00211827
-0.0983926
0.115861
-0.0118865
-0.090531
0.116706
-0.0239586
0.111223
-0.031362
0.0870472
0.124022
-0.0275492
0.0946868
0.128071
-0.019982
0.09126
0.126255
-0.00794384
0.0783331
0.120198
0.00220965
0.111998
0.0166844
-0.0724528
0.116549
0.0193639
-0.0843938
0.125264
0.00593733
-0.086734
0.131811
-0.00419507
-0.0788274
0.134178
-0.0149927
0.131101
-0.0222855
0.0682052
0.13178
-0.0150393
0.0760952
0.134528
-0.00921715
0.075006
0.130964
0.000959302
0.0640727
0.124597
0.0106633
0.115352
0.0225828
-0.0525797
0.105644
0.0297606
-0.0646044
0.116155
0.019524
-0.0641601
0.119707
0.00984968
-0.0562208
0.125103
0.000522572
0.125976
-0.00407271
0.0351516
0.019102
0.0612509
0.0445648
0.0514182
0.0945378
0.0134236
0.0547164
0.0923159
0.0232174
0.0357311
0.0482271
0.0451463
0.0408275
0.0444688
0.0364717
0.0514508
-0.0122942
0.0268155
0.0153658
0.0143655
-0.0187193
0.0276291
0.0150661
-0.0152787
0.0310874
0.0134957
-0.0135334
0.0290042
0.0141878
-0.039928
0.0275112
0.0407105
-0.000805795
0.0248185
-0.0283628
-0.00826487
0.0384329
0.00579344
-0.0369673
-0.0067878
0.0299093
0.00547072
-0.0370336
-0.00458456
0.0290285
-0.0364845
0.00508285
0.0258287
0.00346325
0.00380011
0.00514212
0.00490845
0.00714218
0.00679101
0.007599
0.00903298
0.00889325
0.00837264
-0.00412296
-0.0199011
0.0156532
0.00266055
-0.000615077
0.000582661
0.00623494
0.00289357
0.000295291
-0.000532344
0.000350708
0.00408267
-0.00154467
-0.0024342
-0.00131885
0.00409959
-0.00165541
-0.000487151
0.00117894
0.0105775
0.0120595
0.0315437
-0.0530856
0.00539549
0.0177269
-0.00422075
-0.00726835
0.0567154
0.00123012
-0.0150581
0.00282697
0.00354303
-0.00653853
0.00504004
0.00396524
-0.00619303
-0.0221674
0.00966294
0.0175042
-0.00940033
-0.0124929
-0.000317813
0.0178886
-0.00256227
0.0239086
-0.0078714
0.0461826
-0.0126807
0.0216086
0.0764661
-0.0249524
-0.0325428
0.00464736
0.00709413
0.0297165
0.00215946
-0.0175209
0.00804368
0.0136379
-0.00404448
-0.0106353
0.00847908
0.0149321
-0.00403962
-0.0114345
0.00758096
0.0144034
-0.00235544
-0.0112563
0.0061307
0.0127577
-0.0104055
-0.00100056
0.00367083
0.0105
-0.00877242
0.00064501
0.00870063
-0.00787866
0.00276843
0.00840349
-0.00315578
0.00338221
0.00800134
-0.00279797
0.00314505
0.0151285
-0.00807006
0.000865692
0.039118
-0.0159427
-0.00826568
0.0725583
-0.0388933
0.00483448
0.082592
-0.0276619
0.0168687
0.0841214
-0.0235193
0.021156
0.0815262
-0.0202469
0.0219696
0.0763059
-0.0157896
0.0201071
0.069205
-0.00866401
0.0148465
0.0595952
0.00187024
0.00681154
0.0409427
0.0179411
-0.000216484
0.013259
0.0419193
-0.0151536
-0.00636285
0.0554349
-0.0367154
-0.00215038
0.0502359
-0.0553202
0.0121083
0.039272
-0.0543637
0.0156407
0.0262281
-0.0305189
0.00981187
0.0290122
-0.0238007
0.00226412
0.0114165
-0.00408704
0.000535346
0.00392017
-0.00226837
-0.000264004
0.00182631
-0.00108155
-0.00199945
0.00331149
-0.00164556
0.00318226
-0.00228969
0.00311426
0.00529499
-0.00145031
7.05843e-06
0.00670733
-0.000364071
0.00200573
-0.000193923
0.00653736
-0.000640106
0.00153938
0.00604059
-0.00365839
0.00250299
0.00536857
0.00631379
0.00110229
0.0116256
0.0172056
-0.0104891
0.0150587
-0.0100672
0.0232329
0.0237826
-0.0293038
0.0432689
0.0143207
-0.0434051
0.0506806
0.0127214
-0.0617498
0.0466978
0.0261295
-0.0779328
0.0298093
0.0273278
-0.0890622
0.00797645
0.0201216
-0.0947446
-0.00846052
0.0150402
-0.0982521
-0.0207967
0.0146741
-0.100473
-0.0294094
0.0148865
-0.100687
-0.0352037
0.0142338
-0.0973299
-0.0395854
0.0117876
-0.0884775
-0.0439933
0.00657076
-0.0318113
-0.0405096
-0.0448207
-0.0112125
-0.0183801
-0.0104294
-0.0191163
0.0026308
-0.0153381
-0.00711394
0.00132788
-0.0057335
0.000265369
-0.00941058
0.000857371
-0.00381279
0.00166992
-0.00750221
0.00100469
-0.00882925
0.0157971
-0.000172747
-0.00797611
0.0158125
-0.00183382
-0.00617169
0.0139116
-0.00215965
-0.00212688
0.0197821
0.00574843
0.0205384
0.106856
-0.0447431
-0.00943888
0.00402574
0.0306805
0.00550896
0.0076336
0.0104981
-0.000246468
0.00844191
0.0142565
0.000668964
0.0151088
0.00192613
-0.0162696
-0.0197052
-0.0126783
0.0307447
-0.0202116
0.0462208
-0.0178246
-0.0512293
0.106742
-0.0244748
-0.0522986
0.121687
-0.0149258
-0.104274
-0.0445632
0.125519
-0.0301456
-0.0751323
-0.0286723
-0.0175211
-0.0288179
-0.0143919
-0.00299083
-0.0402453
0.0169962
-0.00217511
-0.0241212
-0.00527832
0.0279112
-0.00549101
-0.00857421
0.0163259
-0.00788952
-0.0093386
0.0143941
-0.00620796
-0.00948674
-0.0118169
-0.00276841
0.0500927
-0.0212174
-0.0125578
-0.00613452
0.000615332
-0.0119015
-0.00852344
-0.000103876
-0.00873222
-0.0071924
-0.00156025
-0.00495707
-0.00447296
-0.00157698
1.44097e-05
-0.000775294
-0.00381558
-0.000446887
-0.00983989
2.14005e-05
0.00044323
0.00126976
-0.0017189
0.00136764
-0.00209703
0.00336136
0.00174706
-0.00266565
0.00436459
0.00205667
-0.00198938
0.00370548
0.00175092
0.00266256
0.000705982
0.00452942
0.00262461
-0.0010671
0.00473765
0.00382744
-0.000405957
0.00459742
0.0049085
-0.000484735
0.00482451
-0.000754759
-0.0064162
0.0108599
-0.00420265
-0.00623381
0.0108831
-0.00626866
-0.00535647
0.0100387
-0.00719406
0.0089998
-0.00779819
0.00658637
0.0118556
-0.00567347
0.00802215
0.0135797
-0.00507547
0.00821969
0.0150994
-0.00452034
0.0149067
-0.0031261
-0.00922553
0.0168447
-0.00133618
-0.0093378
0.0178497
-0.00274424
-0.00966853
0.0177467
-0.00394073
0.0104652
-0.00401518
0.01286
-0.000418567
0.0102415
-0.00167508
0.00751384
0.0232642
-0.00290316
0.00737711
0.018285
-0.000388612
0.0172797
0.000728855
-0.00888269
0.0484347
-0.0251728
-0.00521942
0.0420939
-0.0276168
0.0449549
-0.0282641
0.0294833
0.117542
-0.057547
0.127368
-0.0450279
0.0508871
0.134796
-0.0387543
-0.0206065
0.0555331
0.134689
-0.0149315
0.0521325
0.129918
-0.00594693
0.115103
-0.00126767
-0.050304
0.119551
0.00524939
-0.0560408
0.134889
-0.000316932
-0.0535663
0.140615
-0.00948365
-0.0448953
-0.0146405
0.139745
-0.128086
-0.0233415
0.133491
-0.029345
-0.0128566
-0.0511969
-0.114253
0.028657
0.119242
-0.105958
-0.0668487
0.118288
-0.0383466
-0.0495065
-0.0681355
-0.00472695
0.0138822
-0.0135373
-0.0193176
-0.0195279
-0.00996308
-0.00601856
-0.0131129
-0.00289961
-0.0139987
-0.00407795
0.00257796
-0.0143724
-0.00819571
0.00317949
-0.012735
-0.0106302
0.00253666
-0.00979396
-0.0145214
0.00286605
-0.0107593
0.00114744
-0.0137587
0.0160413
-0.0137541
0.000616104
-0.00950488
-6.57472e-05
-0.0153661
0.0144636
-0.00157629
-0.0167632
0.0116444
-0.00271166
-0.0180429
0.00965505
-0.0014585
0.0149444
-0.0254696
0.0110891
0.0251959
0.0187261
0.0207333
-0.0498474
0.0188426
0.0161762
0.0178356
-0.0277901
0.0305472
0.0160594
0.0191801
-0.0470798
0.0213516
0.0134361
-0.0227746
0.0184057
0.0392669
-0.0422349
0.00893979
0.015279
0.0201075
0.0463016
-0.0100988
-0.0171447
0.0254019
0.0300596
-0.0202195
-0.0152628
-0.0172066
-0.0205719
0.00992705
-0.018237
0.00381386
-0.012793
-0.017921
0.00437077
-0.0172132
-0.0123092
0.00330816
-0.0161047
-0.0141233
0.00228615
-0.0167944
0.00210261
-0.0176459
-0.0170728
0.0174334
0.000374313
-0.0162836
-0.000770884
-0.0183862
0.015625
-0.00199016
0.0129977
-0.00309259
0.0175635
0.0143157
-0.00279241
0.0174151
-0.00140809
0.0164966
0.0182232
-0.0170428
-0.00036711
0.018367
0.00133264
-0.0151363
0.00285666
-0.0154967
0.00100582
0.0174814
-0.0153966
-0.00120595
0.0144656
-0.00214933
-0.00752247
-0.0160077
0.0235687
0.0168721
-0.00150264
-0.0143634
-0.0171195
-0.0261783
-0.0242445
-0.00254243
-0.105243
0.103703
0.00754286
0.0012145
0.0182403
0.0127151
0.0239124
0.0146975
-0.0202451
0.0176584
-0.00845652
0.0179701
-0.0122377
-0.00477056
0.0023613
-0.000510875
-0.00555086
0.00484832
-0.00582143
-0.00170711
-0.00210795
-0.00217589
-0.00379045
0.0131632
-0.000990125
-0.00316275
-0.0014022
-0.00338235
0.0163748
-0.020067
-0.0115594
0.0154709
0.00687934
-0.0115987
0.0175875
0.00910537
-0.013258
0.0201938
0.00892464
-0.0141906
0.0229371
0.00890625
0.0301436
0.011981
0.00987124
0.0134633
0.0124813
0.00946972
0.0132573
0.00990217
0.00784067
0.0119107
0.00974132
0.00607039
0.0108006
0.00840313
0.0100036
0.00699146
-0.00219395
0.00341863
-0.00260399
0.00415786
-0.00326661
0.00475372
-0.00390069
0.00539558
0.00650436
0.00166271
0.00289954
0.00142101
0.000511263
0.000410155
0.00139231
-0.000142218
0.00198322
-0.00154945
-2.65741e-05
-0.000929098
0.00194329
0.000965588
-0.000332893
0.000793312
-0.000436492
0.00182515
-0.00111399
0.00121327
-0.000538883
0.000311314
-6.76439e-06
0.00202123
-0.00173967
2.64574e-05
0.00379337
-0.00056328
-0.00358788
0.0111358
-0.00637718
0.00356651
-0.0180004
0.00336282
0.017037
0.00387645
-0.0181142
0.0204088
0.00713952
0.00292888
0.00676535
-0.0170607
0.0208266
0.00028406
0.0059651
0.0197758
-0.0148396
-0.0136316
0.0141769
0.00504075
0.0109719
-0.00738572
0.0172062
-0.00765367
0.0172616
0.0109159
-0.000399488
0.0199644
0.00717561
0.00334349
-0.00114792
0.0015292
-0.00351176
0.00037725
-0.00229141
0.0125878
0.00135505
-0.00233579
0.000800244
0.000617797
-0.000777267
0.00151268
-0.000567998
0.00156135
-0.000391403
-0.0012455
0.00106763
-0.0020696
0.000899453
-0.00021129
-0.000226668
-0.00163314
-0.000457268
-0.00209181
0.000247205
-0.00185438
0.001399
-0.00137987
0.000392661
0.000112279
-0.00188606
0.000170283
-0.00141218
-0.000662104
-0.00126136
-0.00240606
0.00114891
0.00124417
0.00023174
0.000479245
-0.00129318
0.000448147
-0.00168425
-0.000480235
0.000534715
0.000392152
0.000108756
7.09165e-05
-0.00066126
0.00104472
0.000306481
0.000316038
-0.000887979
-0.00161289
0.0028135
-0.000775639
0.00027716
0.000178106
-0.000885236
-0.00113125
0.0038018
0.0013787
-0.00035871
-0.00302084
0.0122625
-0.00264178
-0.00129179
-0.0017473
1.41731e-05
-0.000829616
0.000262832
-0.00072794
0.000328504
-3.92517e-05
-0.00112124
-4.32061e-05
0.00188068
-0.000306627
-0.00162058
-0.00132047
0.003211
-0.000893457
-0.000167315
-0.00124188
0.00111864
0.00204065
0.000342317
0.000323628
0.000920157
-0.000127719
0.00191317
-0.00142301
-0.000169885
-0.00136905
0.0031898
8.80537e-05
-0.00065457
0.000202496
0.00285758
-0.00405112
0.0132929
-0.00114196
-0.0180404
0.000760537
0.00704824
0.0245241
-0.0164864
0.0218817
0.00640916
-0.0177692
0.0225676
-0.00209248
-0.0148798
-0.00438873
-0.0206821
-0.0218535
-0.00631333
-0.021886
-0.00573334
0.0151506
-0.00262285
0.0197816
0.0317729
0.0374376
-0.0235824
-0.101053
0.066536
-0.0967351
0.0700353
-0.107803
0.0712596
-0.0170998
-0.110046
0.068693
-0.0248499
-0.106598
0.0674657
-0.0296481
-0.0981371
0.0663255
-0.03318
-0.0860704
0.0636847
-0.035791
-0.0686936
0.0577665
-0.0379406
-0.0489763
0.0534169
-0.0376804
-0.0389043
0.0427674
-0.0317866
0.00379062
-0.0298895
0.0161412
0.0324834
-0.0455014
0.0141178
0.0444778
-0.043122
-0.0072246
0.0475076
-0.0265765
-0.0343169
0.0266536
-0.0510568
-0.0128721
0.0291447
-0.0596918
-0.0245306
0.0326628
-0.0619895
-0.0310964
0.0328679
-0.0555731
-0.038349
0.0314063
-0.0475364
-0.0354459
0.0269064
-0.0301444
-0.0337018
0.0158427
0.00337952
-0.0339627
0.0202916
0.0444026
-0.0619515
0.042913
0.0554942
-0.0788817
0.068148
0.0548005
-0.0808553
0.0882221
0.0523219
-0.0732206
0.0994852
0.0477006
-0.0598204
0.100583
0.0399475
-0.0418676
0.095403
0.0339872
-0.0296176
0.0837367
0.0305872
-0.0196411
0.0472176
0.0376672
-0.00172162
0.0227079
0.0229584
0.00135491
0.0194885
0.00390536
-0.000790687
0.0181018
0.000485099
0.00079874
0.0149708
0.000139906
0.00288074
0.00869655
1.81599e-05
0.00615719
0.0091389
-0.000529976
0.00724336
0.00339427
-0.00156936
0.00463473
0.00388296
-0.00132144
0.00483274
0.00166343
-0.00192426
0.00580739
0.00185587
-0.00290938
0.00553513
0.00303959
-0.00284514
0.00442167
0.0033265
-0.00228261
0.0034644
0.00270585
-0.0018032
0.00566763
0.00167417
-0.00395442
0.0123796
0.00168934
-0.00861986
-0.0134538
0.0306835
-0.00546807
-0.0438217
0.0256069
0.00400196
-0.0586458
0.011327
0.00266319
-0.0652579
-0.00119564
0.00693479
-0.0704085
-0.0160385
0.0202847
-0.075524
-0.0311053
0.0352987
-0.0766434
-0.0457739
0.0459563
-0.073679
-0.0591343
0.055225
-0.063299
-0.0712728
0.0599407
-0.0452669
-0.0811307
0.0621415
-0.0174021
-0.0877851
0.0589571
0.0168675
-0.0840101
0.0487797
0.0323656
-0.0586456
0.0421862
0.0313596
-0.0450767
0.0451604
0.0237119
-0.0354699
0.0422142
0.00973586
-0.0263842
0.0395332
-0.000670114
-0.0233165
0.0329206
-0.0348567
0.0334373
-0.0503921
-0.0194697
0.0342072
-0.0575792
-0.0342432
0.0406196
-0.0579868
-0.0490891
0.048622
-0.0494681
-0.0641433
0.0547494
-0.0255102
-0.0817557
0.0568991
0.00465932
-0.0832111
0.0521655
0.00993363
-0.0471573
0.0410176
-0.00775545
-0.026427
0.0433062
-0.0210464
-0.0283314
0.0408365
-0.00473788
-0.0604657
0.0434189
-0.0523302
0.0431133
-0.0150414
-0.069043
0.00168069
0.0185439
-0.0548173
-0.0401185
0.0285948
-0.039304
4.62463e-05
0.0321521
-0.0477054
0.0168269
0.0305001
-0.0775559
0.0311264
0.0411905
-0.126549
0.0317087
0.0546086
-0.123439
0.0273201
0.0572604
-0.0962094
0.028483
0.052293
-0.072703
0.0276757
0.0417019
-0.0517133
0.0272012
-0.0300989
0.0281919
-0.0368621
-0.0475688
0.0270767
-0.0389161
-0.0572942
0.022949
-0.0334199
-0.0684473
0.0169041
-0.0051977
-0.0845598
-0.00330583
0.0353831
-0.119703
-0.00589401
0.0613642
-0.125418
0.0106458
0.0766218
-0.118734
0.0213448
0.0839972
-0.104556
0.0249119
0.0833651
-0.0864614
0.0269694
0.079259
-0.0662205
0.0235704
0.0713932
-0.0450005
0.0207893
0.0638505
-0.0236038
0.0141498
0.0558104
-0.00213527
0.00803828
0.0419028
0.0157885
0.00851942
0.0166953
0.0358732
0.0140251
-0.00966966
-0.000817591
0.0475022
0.00937809
0.00821756
-0.00360036
-0.00877614
-0.0056646
0.0147358
-0.00318986
-0.00428252
0.0104372
-0.00275656
0.00864995
-0.00172293
0.0133514
-0.00116116
-0.00277066
0.000916293
-0.00672124
0.0271244
0.00186856
-0.00902101
-0.00776498
-0.00160634
0.00143928
-0.00799805
-0.00391484
0.00131619
-0.00670544
-0.00505392
0.000489114
-0.00496295
-0.00568644
0.000262172
0.00228862
-0.00404129
-0.000558684
0.00502077
-0.00108127
-0.00211826
-0.00031302
-0.000464494
-0.00134468
-0.000748784
-0.000647547
-0.000566156
-0.000587532
0.000402337
-0.00112355
-0.0034257
0.0131163
-0.00544667
-0.0118943
0.00298826
0.0221854
-0.00787908
-0.00998134
0.0595178
-0.030923
-0.0294051
0.0165452
0.0545714
-0.0215132
0.0295538
0.0332073
-0.0140473
0.0371532
-0.00671371