/*--------------------------------*- C++ -*----------------------------------*\
| =========                 |                                                 |
| \\      /  F ield         | OpenFOAM: The Open Source CFD Toolbox           |
|  \\    /   O peration     | Version:  v2012                                 |
|   \\  /    A nd           | Website:  www.openfoam.com                      |
|    \\/     M anipulation  |                                                 |
\*---------------------------------------------------------------------------*/
FoamFile
{
    version     2.0;
    format      ascii;
    class       volVectorField;
    location    "275";
    object      U;
}
// * * * * * * * * * * * * * * * * * * * * * * * * * * * * * * * * * * * * * //

dimensions      [0 1 -1 0 0 0 0];


internalField   nonuniform List<vector> 
22960
(
(-0.183222 -0.385292 0.261266)
(-0.0492771 -0.453696 0.273111)
(-0.0980427 -0.46575 0.121772)
(-0.133709 -0.276935 0.065775)
(0.188088 -0.168669 0.0728603)
(0.0420918 -0.389831 0.105343)
(0.0687676 -0.142567 0.114068)
(0.0822702 -0.216994 0.129233)
(0.202196 -0.167957 0.0699234)
(0.230308 -0.141105 0.0576994)
(0.278365 -0.113885 0.0527875)
(0.242328 -0.100675 0.0973721)
(0.197807 -0.0743836 0.0550635)
(0.151051 -0.074844 0.0491724)
(0.19094 -0.0625085 0.0363753)
(0.213331 -0.0415447 0.0679924)
(0.194781 -0.0152379 0.130699)
(0.0965029 0.00233418 0.244743)
(-0.185053 -0.0956609 0.253143)
(-0.298666 -0.225866 0.193337)
(-0.191644 -0.310664 0.210119)
(-0.0676943 0.0609208 0.188913)
(-0.639977 -0.296005 0.18235)
(-0.732743 -0.151286 0.246189)
(-0.821 0.308323 0.218945)
(-0.704484 0.605436 0.113097)
(-0.763467 0.232056 0.0828653)
(-0.997172 0.124155 0.0414549)
(-1.25161 0.0512656 0.034464)
(-1.3921 0.0141795 0.0151108)
(-1.46958 -0.00972389 0.00425274)
(-1.49975 -0.0283277 0.00131622)
(-1.49542 -0.048114 0.00181785)
(-1.46317 -0.0761209 0.00583256)
(-1.39166 -0.117127 0.0192669)
(-1.26438 -0.179135 0.0415132)
(-1.04468 -0.260998 0.0676272)
(-0.719503 -0.342995 0.0731341)
(-0.365212 -0.443651 0.00316215)
(-0.249966 -0.821947 -0.0422689)
(-0.185935 -1.21066 -0.0661676)
(-0.136841 -1.42742 -0.0823704)
(-0.100313 -1.56064 -0.0959611)
(-0.074395 -1.59991 -0.114424)
(-0.0502266 -1.55587 -0.138062)
(-0.024665 -1.43208 -0.165426)
(0.0029915 -1.2207 -0.192838)
(0.0377148 -0.882489 -0.211903)
(0.046183 -0.548962 -0.161898)
(0.241998 -0.260704 -0.140213)
(0.299464 0.573327 -0.166348)
(0.200241 1.01835 -0.0906837)
(0.143418 1.30547 -0.0574651)
(0.103984 1.47069 -0.0346682)
(0.0649917 1.55841 -0.0218758)
(0.0214347 1.57872 -0.0148776)
(0.020107 1.53131 -0.016384)
(0.00827751 1.50245 -0.0024188)
(-0.0145578 1.43635 0.00266815)
(-0.0407556 1.29342 0.00785988)
(-0.0680073 1.06887 0.0185704)
(-0.117897 0.818658 0.0297249)
(-0.0217967 0.300564 0.00577489)
(-0.492948 0.0552434 0.0172396)
(-0.323922 0.327486 0.0662747)
(0.252475 -0.57622 -0.117974)
(-0.189277 0.227785 -0.0228304)
(-0.426165 0.216141 0.0187264)
(-0.707331 0.175294 -0.00493168)
(-0.971446 0.136174 -0.00982001)
(-1.1734 0.156417 0.0288035)
(-1.30729 0.167492 0.0375053)
(-1.42957 0.127304 0.01451)
(-1.51936 0.089342 -0.00203638)
(-1.56908 0.0577284 -0.00722995)
(-1.58479 0.0336433 -0.00471067)
(-1.56137 0.0133231 0.00224537)
(-1.48856 -0.0114036 0.0127258)
(-1.35238 -0.052442 0.0289316)
(-1.08744 -0.122081 0.0264259)
(-0.846419 -0.253505 0.0587908)
(-0.876491 -0.67304 0.0707588)
(-1.17655 -0.408341 0.0721524)
(-1.00883 -0.169307 0.198679)
(-0.866521 0.0176357 0.174087)
(0.32699 -0.210146 0.0566899)
(-0.230605 0.414393 0.151858)
(-0.162874 0.228992 0.19738)
(-0.107933 0.153481 0.223991)
(0.0483901 0.20035 0.212771)
(-0.0930448 0.330331 0.226724)
(-0.236365 0.3819 0.259753)
(-0.40285 0.394619 0.280019)
(-0.541268 0.367275 0.291808)
(-0.609118 0.288831 0.290635)
(-0.63835 0.243234 0.27714)
(-0.610549 0.204849 0.165514)
(-0.566144 0.172699 0.148673)
(-0.483604 0.135815 0.15103)
(-0.338559 0.10336 0.13381)
(-0.204547 0.0613343 0.122249)
(-0.174371 -0.208507 0.10139)
(-0.241581 -0.0419343 0.127128)
(-0.114507 0.0125321 0.134316)
(-0.176024 -0.146975 0.105268)
(-0.118387 -0.137905 0.0997736)
(-0.108424 -0.115684 0.0957994)
(-0.0895974 -0.109823 0.0790571)
(-0.092261 -0.124014 0.177199)
(-0.14028 -0.0271376 0.205541)
(-0.176174 0.157391 0.226188)
(-0.243899 0.115118 0.243199)
(-0.238135 0.114204 0.251838)
(-0.233189 0.129639 0.254422)
(-0.244374 0.147433 0.24241)
(-0.249983 0.112755 0.239772)
(-0.266808 0.110275 0.235763)
(-0.34296 0.024205 0.264289)
(-0.352068 -0.0566748 0.302877)
(-0.324056 -0.063461 0.330753)
(-0.335263 -0.0264686 0.351066)
(-0.377646 -0.0308333 0.331625)
(-0.417609 -0.120726 0.315825)
(-0.36105 -0.239237 0.285311)
(-0.267436 -0.259645 0.291146)
(-0.189948 -0.310957 0.262479)
(-0.165275 -0.388621 0.137444)
(-0.161533 -0.440681 0.125529)
(-0.141374 -0.461979 0.115916)
(-0.131859 -0.465742 0.281445)
(-0.153709 -0.439648 0.271271)
(-0.158184 -0.377143 0.191968)
(-0.182416 -0.298118 0.307449)
(-0.121722 -0.301497 0.52695)
(-0.183593 -0.229954 0.485094)
(-0.232452 -0.180035 0.569126)
(-0.271255 0.060818 0.566768)
(-0.201191 0.20668 0.575895)
(-0.127519 0.23769 0.602177)
(-0.0931037 0.173485 0.577938)
(-0.110292 0.106914 0.537528)
(-0.11513 0.093233 0.471599)
(-0.0682951 0.100782 0.404104)
(-0.0461249 0.0432691 0.397554)
(-0.0401907 0.0113872 0.399934)
(-0.046238 -0.0853232 0.417496)
(-0.0632704 -0.143342 0.392721)
(-0.0840503 -0.126017 0.39041)
(-0.0597467 -0.0501323 0.430177)
(-0.0743602 -0.148579 0.349855)
(-0.0426021 -0.256945 0.371332)
(-0.103264 -0.18551 0.223815)
(-0.0947975 -0.16219 0.169985)
(-0.102609 -0.147348 0.236656)
(-0.109738 -0.1674 0.24587)
(-0.167055 -0.166069 0.242018)
(-0.0704518 0.00164235 0.259587)
(-0.239186 -0.0572076 0.240548)
(-0.172921 -0.212077 0.255282)
(-0.199158 0.0715228 0.319912)
(-0.17778 0.0591435 0.53783)
(-0.160706 0.0471191 0.710284)
(-0.156624 0.0339265 0.857224)
(-0.161809 -0.0223751 0.954701)
(-0.162827 -0.068042 1.00566)
(-0.131383 -0.0818497 1.01922)
(-0.0890238 -0.0134186 0.958811)
(-0.0539406 -0.0210572 0.884126)
(-0.031557 -0.0314082 0.778213)
(-0.00603829 -0.0343592 0.632015)
(0.0263169 -0.0315144 0.430888)
(0.0908238 -0.0457236 0.248541)
(0.0627878 -0.31362 0.22486)
(-0.0218855 -0.182906 0.200927)
(0.146873 -0.212746 0.134954)
(0.10482 -0.407594 0.111877)
(0.102892 -0.469291 0.113435)
(0.10618 -0.576341 0.110432)
(0.0975913 -0.642292 0.100057)
(0.0838064 -0.694294 0.152684)
(0.129456 -0.737959 0.183836)
(0.152003 -0.761271 0.214385)
(0.170534 -0.782494 0.208594)
(0.177616 -0.766621 0.193327)
(0.178407 -0.718442 0.167876)
(0.171372 -0.622435 0.128102)
(0.163624 -0.497216 0.0342819)
(0.155557 -0.0672932 -0.0836109)
(0.19818 0.395097 0.0484917)
(0.217519 0.475786 0.197449)
(0.226207 0.554285 0.241974)
(0.228148 0.572467 0.26988)
(0.220997 0.563246 0.291889)
(0.213254 0.522914 0.305654)
(0.198027 0.434882 0.30294)
(0.168751 0.389054 0.237247)
(0.12166 0.354177 0.211022)
(0.129054 0.322728 0.137835)
(0.128103 0.27009 0.158101)
(0.120355 0.186513 0.1678)
(0.118006 0.071576 0.157036)
(0.05369 0.0349092 0.0778161)
(0.17878 0.0617094 0.0994749)
(0.140269 0.0346628 0.13593)
(0.147284 0.0529924 0.202)
(0.277837 0.0658377 0.174789)
(0.433031 0.0815879 0.163129)
(0.54671 0.0920609 0.154665)
(0.639686 0.101353 0.147564)
(0.715499 0.107694 0.141401)
(0.779391 0.111738 0.131926)
(0.843666 0.117466 0.107215)
(0.895536 0.101108 0.0825083)
(0.964842 0.0634434 0.0827707)
(1.04105 0.041903 0.0814419)
(1.13198 0.0244263 0.0747762)
(1.24411 0.00633564 0.0559006)
(1.33794 -0.0143713 0.0182481)
(1.38231 -0.0334636 -0.0261073)
(1.37166 -0.049608 -0.0639855)
(1.32404 -0.0592026 -0.087514)
(1.26407 -0.0647086 -0.0985504)
(1.20757 -0.0664552 -0.102302)
(1.15838 -0.0668118 -0.102091)
(1.11667 -0.0656204 -0.0992042)
(1.08097 -0.0647584 -0.0951765)
(1.04948 -0.0601175 -0.0895303)
(1.03017 -0.0499398 -0.088374)
(1.00774 -0.0419239 -0.0907815)
(0.91519 -0.0396329 -0.0677409)
(0.846866 -0.0329509 -0.0457617)
(0.821536 -0.0275021 -0.03879)
(0.794024 -0.0231353 -0.0352024)
(0.76104 -0.0200655 -0.0340122)
(0.717579 -0.015077 -0.0378263)
(0.685184 -0.0147366 -0.0401951)
(0.644897 -0.01386 -0.0450539)
(0.578128 -0.00679505 -0.0479845)
(0.489139 0.00106585 -0.0475806)
(0.372597 0.0181615 -0.0451995)
(0.227075 0.0292428 -0.046429)
(0.0970688 0.0369742 -0.0499054)
(0.0575574 0.0596077 -0.0560528)
(0.0375324 0.0835219 -0.0348079)
(0.0441348 0.141936 -0.027007)
(0.05136 0.167099 -0.0302556)
(0.0616436 0.287674 -0.03339)
(0.118997 0.272436 -0.032367)
(0.185497 0.76706 -0.00450606)
(0.757026 0.24944 -0.107772)
(0.973452 -0.14963 -0.137366)
(1.48273 -0.333338 -0.196048)
(2.03487 -0.420698 -0.291568)
(2.47512 -0.418569 -0.37624)
(2.72192 -0.367487 -0.43349)
(2.6637 -0.36431 -0.465199)
(2.43515 -0.339796 -0.449108)
(1.9947 -0.180367 -0.419952)
(1.04785 0.173028 -0.409798)
(-0.4652 1.12971 0.16788)
(-1.73465 1.94159 0.0197304)
(-0.696557 2.91625 0.0134809)
(-0.413592 1.3564 -0.026386)
(-0.278689 1.04411 -0.0573994)
(-0.227961 0.693925 -0.0682486)
(-0.196859 0.47476 -0.0679285)
(-0.147849 0.26833 -0.100363)
(-0.17533 0.178724 -0.146122)
(-0.274165 0.1387 -0.0956235)
(-0.146515 0.180335 -0.120616)
(-0.065484 0.191413 -0.0816196)
(0.0084345 0.187322 0.0355302)
(-0.0196368 0.172922 0.178016)
(-0.0502003 0.158716 0.274088)
(-0.0638496 0.149287 0.346127)
(-0.0856158 0.143231 0.380176)
(-0.0850251 0.139073 0.396471)
(-0.100175 0.13684 0.396558)
(-0.0930469 0.136118 0.388638)
(-0.10442 0.13579 0.376367)
(-0.0912563 0.135476 0.361377)
(-0.0978694 0.134461 0.347502)
(-0.0783074 0.131889 0.338263)
(-0.0849446 0.130733 0.343467)
(-0.0832468 0.122954 0.354249)
(-0.103932 0.150882 0.373282)
(-0.0931449 0.169739 0.383245)
(-0.119569 0.169004 0.378192)
(-0.195861 0.188795 0.371345)
(-0.288783 0.267601 0.333993)
(-0.417921 0.246283 0.282087)
(-0.522403 0.246613 0.316549)
(-0.560698 0.336884 0.316304)
(-0.666149 0.234518 0.20153)
(-0.703643 0.233068 0.173225)
(-0.911018 0.129853 0.0962574)
(-0.865885 0.126127 0.171436)
(-0.770536 0.160098 0.247904)
(-0.693977 0.177968 0.259138)
(-0.591108 0.172902 0.299552)
(-0.447183 0.15548 0.30852)
(-0.382543 0.11912 0.306813)
(-0.266685 0.113732 0.326594)
(-0.189967 0.12667 0.335203)
(-0.181463 0.134076 0.335413)
(-0.151016 0.140677 0.352086)
(-0.157712 0.138293 0.35867)
(-0.26177 0.123454 0.340571)
(-0.305746 0.121455 0.316093)
(-0.398657 0.106834 0.3156)
(-0.434011 0.0982153 0.336619)
(-0.235247 0.108688 0.356074)
(-0.253258 0.109945 0.343157)
(-0.241613 0.112245 0.357308)
(-0.285785 0.110762 0.371952)
(-0.255873 0.115195 0.385279)
(-0.286862 0.113487 0.39396)
(-0.248687 0.118544 0.39673)
(-0.272953 0.118223 0.393513)
(-0.227763 0.127474 0.380564)
(-0.242596 0.131213 0.353253)
(-0.18831 0.145228 0.308836)
(-0.189753 0.153214 0.245334)
(-0.169019 0.170982 0.170335)
(-0.190858 0.177685 0.121908)
(-0.248542 0.183553 0.0728501)
(-0.306391 0.183614 0.0266017)
(-0.497224 0.167712 -0.00891038)
(-0.70932 0.135243 0.0159334)
(-0.863622 0.0919795 0.0178416)
(-0.985957 0.0661132 0.0143322)
(-1.08654 0.0687864 0.0101266)
(-1.14748 0.0839191 0.0110404)
(-1.17719 0.0804596 0.01463)
(-1.22326 0.0663112 0.00915145)
(-1.24309 0.0715387 -0.014452)
(-1.25186 0.0669089 -0.0380395)
(-1.3211 0.0422071 -0.0317654)
(-1.42708 0.00512691 -0.0274413)
(-1.46696 -0.00446675 -0.0217546)
(-1.53713 -0.0104992 -0.0308261)
(-1.57072 0.00476467 -0.0119168)
(-1.61251 0.00749468 -0.00758379)
(-1.65704 0.00516956 -0.00233091)
(-1.67341 0.00786923 0.0143524)
(-1.65708 0.0135684 0.0337694)
(-1.61501 0.0214672 0.0522096)
(-1.56194 0.0328972 0.0672918)
(-1.51473 0.043775 0.0810794)
(-1.47489 0.0531854 0.0942653)
(-1.43258 0.0650761 0.111505)
(-1.37687 0.0779142 0.128559)
(-1.31168 0.0867572 0.137064)
(-1.25618 0.0892684 0.127765)
(-1.21827 0.0890899 0.120932)
(-1.19655 0.0898043 0.11834)
(-1.17097 0.106064 0.116972)
(-1.1274 0.149698 0.114031)
(-1.07261 0.159289 0.137934)
(-0.939395 0.144766 0.17873)
(-0.80472 0.11916 0.241153)
(-0.709045 0.0849822 0.284435)
(-0.471157 0.0343251 0.335301)
(-0.251369 -0.0327669 0.367962)
(-0.267216 -0.217782 0.554254)
(-0.267694 -0.290259 0.698248)
(-0.260988 -0.341867 0.686835)
(-0.245352 -0.384902 0.586286)
(-0.237076 -0.416747 0.399077)
(-0.257817 -0.436987 0.199545)
(-0.0926654 -0.807861 0.108804)
(-0.0648041 -0.764049 0.304949)
(-0.0797811 -0.693279 0.495819)
(-0.112698 -0.602921 0.591527)
(-0.146506 -0.499145 0.589416)
(-0.193499 -0.359789 0.431725)
(-0.248447 -0.0715053 0.21258)
(-0.267566 -0.265515 0.209478)
(-0.275581 -0.363657 0.258735)
(-0.283097 -0.448757 0.310893)
(-0.292259 -0.461533 0.368028)
(-0.304298 -0.417992 0.423386)
(-0.316971 -0.324779 0.478794)
(-0.307931 -0.188203 0.535109)
(-0.259566 0.0468143 0.522774)
(-0.269655 0.187536 0.362553)
(-0.339228 0.043675 0.390796)
(-0.35645 0.0684476 0.498246)
(-0.365032 0.152632 0.518455)
(-0.353745 0.245659 0.49947)
(-0.336981 0.326152 0.460756)
(-0.324494 0.397585 0.412186)
(-0.323232 0.415056 0.314055)
(-0.292151 0.349075 0.252728)
(-0.185475 0.235637 0.164304)
(-0.165257 0.176355 0.129767)
(-0.153438 0.157111 0.0993343)
(-0.139351 0.0186081 0.0852779)
(-0.158717 -0.0185293 0.109094)
(-0.0479873 -0.13376 0.132137)
(-0.270659 -0.0511782 0.235952)
(-0.222531 -0.0379696 0.156242)
(-0.225633 -0.113476 0.331746)
(-0.405651 -0.125884 0.29998)
(-0.647725 -0.155004 0.279239)
(-0.836571 -0.170952 0.254149)
(-0.998105 -0.174857 0.212757)
(-1.14878 -0.144648 0.279126)
(-1.29629 -0.136362 0.320672)
(-1.41226 -0.148657 0.312305)
(-1.50937 -0.15922 0.29688)
(-1.57558 -0.164938 0.27941)
(-1.61646 -0.16759 0.261606)
(-1.62964 -0.169888 0.240641)
(-1.62319 -0.176499 0.205301)
(-1.60307 -0.17156 0.181369)
(-1.59116 -0.171897 0.135283)
(-1.567 -0.182827 0.100903)
(-1.53243 -0.181291 0.083142)
(-1.4336 -0.138539 0.0795558)
(-1.28844 -0.1212 0.0754428)
(-1.12233 -0.15217 0.0710901)
(-0.920196 -0.204421 0.0593617)
(-0.641669 -0.235956 0.0171357)
(-0.354093 -0.193655 -0.101957)
(-0.17254 -0.238559 -0.149908)
(-0.101088 -0.253262 -0.0673154)
(-0.111298 -0.238348 0.0128069)
(-0.107485 -0.228198 0.06752)
(-0.119549 -0.20837 0.120741)
(-0.107231 -0.197547 0.146446)
(-0.125028 -0.184916 0.167071)
(-0.112367 -0.177978 0.164162)
(-0.130069 -0.170103 0.162049)
(-0.114805 -0.168211 0.14311)
(-0.130628 -0.164749 0.13496)
(-0.111983 -0.163859 0.113766)
(-0.116789 -0.161128 0.11357)
(-0.0952348 -0.156009 0.107467)
(-0.103332 -0.152666 0.121881)
(-0.0941271 -0.127166 0.12925)
(-0.115721 -0.175883 0.109082)
(-0.114756 -0.191259 0.0570005)
(-0.0898375 -0.17577 0.101582)
(-0.149559 -0.189003 0.176681)
(-0.264701 -0.301999 0.197072)
(-0.427358 -0.268714 0.195749)
(-0.549809 -0.259305 0.268368)
(-0.594697 -0.36225 0.296221)
(-0.720895 -0.250476 0.203943)
(-0.76925 -0.237943 0.170888)
(-0.802226 -0.691544 0.207938)
(-0.783073 -0.691804 0.241449)
(-0.669972 -0.718603 0.380878)
(-0.569881 -0.455253 0.380934)
(-0.580388 -0.868602 0.242741)
(-0.791179 -1.17694 0.585763)
(-0.747602 -0.840148 0.426556)
(-1.10878 -0.548039 0.460716)
(-1.18467 -0.409055 0.370918)
(-1.18617 -0.441065 0.269892)
(-1.00886 -0.191152 0.354414)
(-0.765975 -0.276358 0.385824)
(-0.201672 -0.349725 0.349212)
(-0.398646 -0.680391 0.53362)
(-0.803111 -0.751222 0.503664)
(-1.3043 -0.879429 0.626178)
(-1.14781 -0.767598 0.42281)
(-0.605315 -1.0138 0.284062)
(-0.492228 -0.933504 0.369441)
(-0.345986 -0.776325 0.310684)
(-0.558322 -1.48432 0.209726)
(-1.16278 -1.40724 -0.227761)
(-1.10014 -0.836372 0.212547)
(-0.87768 -0.603848 0.377127)
(-1.19247 -0.773489 0.165609)
(-1.09782 -0.932732 0.361282)
(-1.07023 -0.633729 0.357913)
(-1.16218 -0.639758 0.230159)
(-1.39895 -0.225978 0.409125)
(-1.3139 -0.257839 0.290368)
(-1.21174 -0.441723 0.0699348)
(-1.11815 -0.378591 0.261887)
(-1.18308 -0.347133 0.309227)
(-1.10248 -0.435058 0.220602)
(-0.999326 -0.591587 0.226886)
(-1.11353 -0.649437 0.254319)
(-1.21249 -0.508051 0.328125)
(-1.29543 -0.540203 0.402545)
(-1.10018 -0.873096 0.276542)
(-0.937674 -1.04291 0.287599)
(-1.05216 -0.997642 0.31357)
(-1.35556 -0.880049 0.223202)
(-0.869784 -0.936349 0.238407)
(-0.903262 -0.918887 0.215155)
(-0.944757 -0.904574 0.214251)
(-1.01543 -0.923458 0.241382)
(-1.00655 -0.914406 0.236542)
(-0.966259 -0.935663 0.275521)
(-0.892138 -0.910113 0.327814)
(-0.949022 -0.98185 0.435571)
(-0.992317 -1.02058 0.498495)
(-1.14084 -1.14935 0.570473)
(-1.26845 -1.24498 0.574763)
(-1.56966 -1.41596 0.495595)
(-1.67578 -1.4984 0.379975)
(-1.72878 -1.58084 0.259351)
(-1.7308 -1.65704 0.188289)
(-1.74445 -1.87937 0.0888907)
(-1.77959 -1.90647 0.0452781)
(-1.85453 -2.68303 0.00252924)
(-2.87446 -0.447074 -0.616683)
(-2.26914 -0.713483 -0.188999)
(-1.94818 -0.745251 -0.171292)
(-1.47525 -0.571249 -0.097956)
(-1.35378 -0.222927 -0.140172)
(-0.162152 0.297037 -0.389677)
(1.00973 0.510125 -0.458984)
(1.25441 0.768748 -0.50628)
(1.41498 0.955194 -0.613069)
(1.38632 0.905662 -0.557893)
(1.30946 0.674953 -0.348222)
(1.19936 0.233603 -0.232849)
(0.525848 -0.854943 -0.000793311)
(0.361984 -0.521466 -0.00998853)
(0.168143 -0.335819 -0.0160281)
(0.157224 -0.401802 -0.0580784)
(0.172533 -0.324219 -0.00905707)
(0.338056 -0.208596 0.0141364)
(0.0157964 0.190833 -0.069974)
(0.0630913 0.277271 -0.183877)
(0.322212 0.15868 -0.22071)
(0.246081 -0.0103463 -0.3236)
(0.432659 -0.226622 -0.0679776)
(0.490544 -0.371394 0.0765575)
(0.503138 -0.406954 0.147015)
(0.470708 -0.428821 0.165238)
(0.432461 -0.437091 0.162774)
(0.38343 -0.429311 0.130488)
(0.428095 -0.494159 0.108437)
(0.455684 -0.579502 0.0854073)
(0.477949 -0.658677 0.0773257)
(0.503568 -0.713967 0.0629435)
(0.518783 -0.747458 0.0542427)
(0.500898 -0.755247 0.0554505)
(0.452831 -0.761004 0.0703484)
(0.377954 -0.746714 0.0949972)
(0.283858 -0.735808 0.104488)
(0.202171 -0.713678 0.123361)
(0.158832 -0.682927 0.0892307)
(0.174473 -0.658836 0.0714143)
(0.165547 -0.600462 0.0685001)
(0.123445 -0.506423 0.0760356)
(0.0651284 -0.431317 0.0962562)
(0.0438338 -0.250341 0.160681)
(0.21754 -0.412046 0.162206)
(0.212987 -0.274825 0.175416)
(0.191762 -0.0999909 0.182017)
(0.263891 -0.128542 0.150805)
(0.318085 -0.144428 0.138021)
(0.376554 -0.150653 0.116034)
(0.342438 -0.185249 0.178082)
(0.279196 -0.192866 0.242898)
(0.32912 -0.201764 0.304537)
(0.391162 -0.202198 0.315613)
(0.456195 -0.196109 0.301829)
(0.494238 -0.18509 0.250527)
(0.507629 -0.136536 0.162269)
(0.587603 -0.0671385 0.0293886)
(0.692071 -0.0677381 0.0233597)
(0.765206 -0.0350665 -0.00993851)
(0.927224 -0.0554995 -0.0108306)
(0.972049 -0.0392792 0.00973544)
(0.915344 -0.0289022 0.0100929)
(0.815798 -0.0401982 0.00990109)
(0.689414 -0.0602736 0.0126561)
(0.53382 -0.0900287 0.0103649)
(0.346092 -0.12599 -0.00195722)
(0.16312 -0.122005 -0.0173063)
(0.0922927 -0.175537 -0.0338723)
(0.0680158 -0.255602 -0.0189791)
(0.0770387 -0.370208 -0.0116206)
(0.0850472 -0.504642 -0.0134)
(0.0810396 -0.664033 -0.0116187)
(0.112785 -0.732816 -0.00636187)
(0.237399 -1.31931 0.0166533)
(1.24228 -0.567462 -0.0231925)
(1.73144 0.0613695 -0.0465426)
(2.43109 0.269602 -0.113994)
(3.08137 0.325892 -0.20551)
(3.50677 0.287247 -0.284129)
(3.64615 0.254093 -0.359312)
(3.35654 0.293008 -0.421168)
(3.07817 0.247512 -0.414163)
(2.25129 0.0103547 -0.34318)
(1.01593 -0.330414 -0.314065)
(-0.639182 -1.43729 0.244482)
(-2.16772 -2.51911 0.0300791)
(-0.910871 -3.67965 0.00375429)
(-0.535495 -1.77925 -0.0409162)
(-0.368215 -1.337 -0.0805251)
(-0.301817 -0.90278 -0.0930506)
(-0.258806 -0.619684 -0.0904905)
(-0.190699 -0.355579 -0.13103)
(-0.223378 -0.237144 -0.179871)
(-0.44321 -0.326591 -0.00298143)
(-0.564306 -0.291321 0.00648618)
(-0.899252 -0.518166 0.0170745)
(-0.886788 -0.579756 0.0416343)
(-1.0856 -0.877987 0.0457973)
(-1.18925 -0.98894 0.0514998)
(-1.52239 -1.30241 0.0608857)
(-1.6758 -1.33468 0.082006)
(-1.91457 -1.64462 0.120837)
(-2.48804 -2.24023 0.0101101)
(-3.18791 -1.52546 -0.156387)
(-3.28437 -1.25378 0.056512)
(-3.28774 -0.916305 0.0370186)
(-3.16976 -0.571079 -0.0206733)
(-3.07217 -0.273048 -0.108757)
(-2.82416 -0.0826013 -0.183197)
(-2.15034 0.241249 -0.302645)
(-1.38707 0.772048 -0.578855)
(-0.697498 1.18054 -0.915334)
(-0.185737 1.24268 -0.98372)
(0.368891 0.887597 -0.602783)
(0.795703 0.233526 -0.337492)
(0.749728 -0.500165 -0.11876)
(0.291422 -0.270261 -0.0747038)
(-0.47201 0.263165 -0.267417)
(-0.62142 0.0123375 -0.248016)
(-0.497939 -0.133963 -0.11584)
(-0.976156 0.203276 -0.0950156)
(-0.828491 0.258993 -0.0948477)
(-0.666657 0.295054 -0.116885)
(-0.404994 0.215835 -0.247062)
(-0.708379 0.241981 -0.174859)
(-0.425767 0.122362 -0.359751)
(0.220005 -0.249013 -0.289011)
(0.426077 -0.491447 -0.0520941)
(0.530333 -0.549788 0.0461263)
(0.529403 -0.581505 0.0774505)
(0.507532 -0.602262 0.0902206)
(0.464164 -0.610164 0.0830737)
(0.539842 -0.727958 0.0528699)
(0.573555 -0.708864 0.0484621)
(0.5836 -0.683994 0.0321621)
(0.543456 -0.656249 0.00327848)
(0.408803 -0.592236 -0.118969)
(-0.0186777 -0.253513 -0.303872)
(-0.635322 0.171672 -0.251815)
(-1.00487 0.332569 -0.149158)
(-0.868161 0.337323 -0.166255)
(-1.10112 0.412418 -0.0723436)
(-1.00874 0.376864 -0.0980733)
(-1.12755 0.412754 -0.0716615)
(-1.29378 0.456276 -0.0777284)
(-1.39015 0.541706 -0.0727213)
(-1.25273 0.397764 -0.0902593)
(-1.2267 0.532407 -0.144167)
(-1.3093 0.7493 -0.19658)
(-1.4746 1.12343 -0.313226)
(-1.14293 0.976304 -0.441425)
(-0.417228 0.860997 -0.490162)
(-0.733683 1.17366 -0.814172)
(-1.34649 1.37337 -1.17594)
(-2.08773 1.34201 -1.29703)
(-2.99448 1.06644 -1.11726)
(-3.77435 0.692121 -0.928419)
(-4.2485 0.230644 -0.618009)
(-4.36676 -0.110705 -0.335492)
(-4.30839 -0.408706 -0.114754)
(-4.12626 -0.730444 0.0280203)
(-3.85711 -0.98677 0.0783635)
(-3.34406 -1.16437 0.0879339)
(-2.77995 -1.38195 0.0671425)
(-3.36956 -1.18652 0.0675284)
(-3.92432 -0.885866 0.0680466)
(-4.29767 -0.555585 0.00128768)
(-4.60102 -0.173031 -0.143325)
(-4.71734 0.240133 -0.363596)
(-4.57388 0.670951 -0.610421)
(-4.1612 1.1118 -0.845279)
(-3.50038 1.43054 -1.03153)
(-2.7393 1.52823 -1.09566)
(-2.05904 1.49341 -0.977065)
(-1.49825 1.28604 -0.704444)
(-1.816 1.41438 -0.485362)
(-2.28549 1.63167 -0.663547)
(-2.85969 1.75094 -0.847093)
(-3.48255 1.70792 -0.79913)
(-4.03475 1.49921 -0.68627)
(-4.40912 1.12174 -0.51266)
(-4.58186 0.67368 -0.295696)
(-4.47633 0.182098 -0.0639457)
(-4.17749 -0.260958 0.124635)
(-3.79785 -0.616605 0.101748)
(-3.32404 -0.88462 0.0934089)
(-2.84899 -0.994817 0.0931913)
(-3.20095 -0.82792 0.0856918)
(-3.55464 -0.52803 0.0855809)
(-3.84013 -0.22278 0.0711273)
(-3.962 0.17146 -0.0256589)
(-4.07245 0.615081 -0.195979)
(-3.91532 1.0216 -0.357435)
(-3.7601 1.39998 -0.497319)
(-3.35445 1.53179 -0.533237)
(-2.94177 1.62419 -0.577391)
(-2.50874 1.49748 -0.46282)
(-2.06288 1.36519 -0.346933)
(-1.79634 1.17302 -0.226809)
(-1.98725 1.08342 -0.2413)
(-1.63404 0.875232 -0.149485)
(-1.48562 0.698666 -0.118483)
(-1.62972 0.735279 -0.138164)
(-1.50667 0.618992 -0.0965024)
(-1.57815 0.615052 -0.0994604)
(-1.44589 0.496636 -0.0729709)
(-1.23491 0.450626 -0.0486186)
(-1.3459 0.403938 -0.0388958)
(-1.20448 0.39173 -0.0598112)
(-1.13576 0.429968 -0.0789468)
(-0.967445 0.398478 -0.127425)
(-0.984737 0.420257 -0.0503168)
(-1.15981 0.4454 -0.0792659)
(-1.27356 0.448976 -0.0620419)
(-1.48799 0.426672 -0.105789)
(-1.55484 0.394649 -0.0765012)
(-1.74824 0.380448 -0.0552085)
(-1.67568 0.521298 -0.0596817)
(-1.76513 0.587545 -0.100363)
(-1.70892 0.708463 -0.142761)
(-1.89587 0.76551 -0.175317)
(-1.81827 0.848968 -0.18058)
(-2.13512 0.96468 -0.254758)
(-2.59348 0.973359 -0.314028)
(-2.65278 1.20116 -0.36106)
(-3.31885 1.04107 -0.308934)
(-3.68879 0.603292 -0.188043)
(-3.63652 0.0321734 -0.02241)
(-3.23492 -0.442164 0.0842774)
(-2.72942 -0.707504 0.112295)
(-2.31676 -0.74874 0.087399)
(-2.24489 -0.905277 0.0911899)
(-2.07506 -1.10666 0.0801037)
(-1.61723 -1.07738 0.0668932)
(-1.22469 -0.829973 0.0614263)
(-0.955559 -0.472351 0.0645821)
(-1.20257 -0.363967 0.0668061)
(-1.3172 -0.284638 0.0677074)
(-1.41048 -0.185876 0.0722985)
(-1.47572 -0.216845 0.0759264)
(-1.52858 -0.516335 0.0615059)
(-1.53139 -0.716636 0.0616437)
(-1.39533 -0.629902 0.0588089)
(-1.21085 -0.649436 0.142954)
(-1.02017 -0.369505 0.135543)
(-0.961932 -0.138047 0.14146)
(-0.938731 -0.141078 0.216571)
(-0.888146 -0.124362 0.271795)
(-0.855718 -0.116272 0.294984)
(-0.831674 -0.105122 0.310743)
(-0.812292 -0.100267 0.305654)
(-0.781316 -0.095579 0.300722)
(-0.762669 -0.0909352 0.285417)
(-0.743895 -0.0899954 0.269137)
(-0.718247 -0.0979556 0.256117)
(-0.697375 -0.133657 0.247674)
(-0.617802 -0.20138 0.243368)
(-0.733269 -0.198522 0.225894)
(-0.807348 -0.175245 0.236209)
(-0.925087 -0.13622 0.17343)
(-0.990602 -0.130918 0.0981135)
(-1.23454 -0.0507228 0.0819373)
(-1.38367 0.0148367 0.059341)
(-1.44815 0.0484504 0.0495631)
(-1.46809 0.0755215 0.0529621)
(-1.45421 0.10698 0.0691695)
(-1.39867 0.144243 0.108985)
(-1.30019 0.180272 0.165196)
(-1.15482 0.213957 0.222377)
(-0.988547 0.233167 0.188501)
(-1.01597 0.215857 0.068121)
(-0.838981 0.206085 0.0619114)
(-0.713958 0.231984 0.0727422)
(-0.460842 0.296189 0.084119)
(-0.086961 0.265174 0.0177749)
(0.123264 -0.308556 -0.0416496)
(0.026311 -0.112105 0.138899)
(0.0503663 -0.171117 0.315092)
(0.0877301 -0.243403 0.39138)
(-0.00774834 -0.155227 0.481065)
(-0.238341 0.147163 0.6559)
(-0.31896 0.225697 0.819962)
(-0.326381 0.249882 0.831945)
(-0.318706 0.215508 0.836186)
(-0.306945 0.175637 0.76489)
(-0.318833 0.160534 0.677699)
(-0.26872 0.055691 0.523637)
(-0.450018 0.0542572 0.490175)
(-0.485329 0.0907144 0.667788)
(-0.498884 0.12289 0.770504)
(-0.527247 0.152587 0.842363)
(-0.555448 0.178077 0.8532)
(-0.675773 0.195365 0.830766)
(-0.601746 0.228033 0.722496)
(-0.574896 0.271789 0.568488)
(-0.525631 0.263874 0.47397)
(-0.519208 0.295776 0.352963)
(-0.50617 0.312239 0.209093)
(-0.163072 0.262493 0.177883)
(-0.179739 0.239648 0.339425)
(-0.189776 0.218068 0.448732)
(-0.264371 0.218263 0.537205)
(-0.258041 0.441058 0.526944)
(-0.2205 0.43516 0.484994)
(-0.197723 0.559248 0.477993)
(-0.320209 0.636368 0.502433)
(-0.331797 0.516782 0.492622)
(-0.370302 0.497314 0.521915)
(-0.402458 0.663206 0.548635)
(-0.228687 0.560788 0.541051)
(-0.229603 0.563861 0.633434)
(-0.360129 0.254095 0.797819)
(-0.366728 0.410003 0.817017)
(-0.439798 0.55456 0.835007)
(-0.201912 0.700535 0.794796)
(-0.246433 0.634766 0.823785)
(-0.308228 0.48353 0.679442)
(-0.344262 0.585352 0.652604)
(-0.400286 0.572682 0.667099)
(-0.479378 0.597267 0.740105)
(-0.346277 0.645479 0.698641)
(-0.371251 0.562452 0.778404)
(-0.390871 0.475911 0.695941)
(-0.489372 0.367385 0.689669)
(-0.496326 0.472854 0.608738)
(-0.477748 0.421129 0.672745)
(-0.299395 0.61851 0.633133)
(-0.445476 0.620432 0.605646)
(-0.484605 0.649221 0.59717)
(-0.436982 0.618724 0.609029)
(-0.414672 0.541473 0.61042)
(-0.364902 0.496901 0.618559)
(-0.365978 0.575133 0.605269)
(-0.272 0.580922 0.593407)
(-0.357641 0.644845 0.573836)
(-0.368494 0.532667 0.569013)
(-0.294299 0.48206 0.585258)
(-0.478751 0.674184 0.555071)
(-0.25847 0.840975 0.505097)
(-0.263888 0.658777 0.44911)
(-0.246169 0.623612 0.627357)
(-0.136917 0.754417 0.82461)
(0.0342627 1.11644 0.689467)
(0.11001 1.24481 0.684339)
(0.170911 1.23437 0.732117)
(0.219505 1.1726 0.76916)
(0.271547 1.05896 0.776187)
(0.316185 0.918062 0.749428)
(0.396603 0.669246 0.661615)
(0.41349 0.426631 0.450334)
(0.48734 -0.199952 0.271837)
(0.453856 -0.694108 0.460754)
(0.349491 -1.02802 0.525398)
(0.283191 -1.2049 0.565075)
(0.22254 -1.29693 0.572553)
(0.171046 -1.3151 0.552527)
(0.120414 -1.27233 0.520267)
(0.0672441 -1.16589 0.489762)
(0.00775146 -1.00138 0.476159)
(-0.0351591 -0.868203 0.583839)
(-0.0846399 -0.713464 0.587403)
(-0.154383 -0.521677 0.425409)
(-0.129837 -0.605267 0.471748)
(-0.109076 -0.669566 0.537557)
(-0.0917541 -0.676828 0.615822)
(-0.0757812 -0.629889 0.693247)
(-0.0591313 -0.534141 0.76484)
(-0.0255713 -0.37162 0.821755)
(0.0565392 -0.108503 0.818664)
(0.039844 0.214725 0.68645)
(-0.0671562 0.235861 0.722227)
(-0.0977239 0.293683 0.824163)
(-0.110566 0.364584 0.844319)
(-0.10754 0.44644 0.81912)
(-0.104427 0.523417 0.765844)
(-0.109252 0.584603 0.692757)
(-0.130803 0.577851 0.582526)
(-0.148157 0.519706 0.466071)
(-0.109756 0.47039 0.405401)
(-0.110024 0.409174 0.312655)
(-0.124424 0.353503 0.246987)
(-0.122103 0.330521 0.240224)
(-0.121533 0.252097 0.228446)
(-0.149566 0.212081 0.240861)
(-0.107972 0.0241982 0.244151)
(-0.260738 0.0357875 0.324489)
(-0.188123 0.0684304 0.425946)
(-0.100943 0.128868 0.338023)
(-0.132166 0.339499 0.399844)
(-0.104558 0.385151 0.397575)
(-0.096765 0.431861 0.400244)
(-0.0800143 0.575649 0.570432)
(-0.0787994 0.605709 0.618)
(-0.095142 0.625157 0.645885)
(-0.0378384 0.795418 0.774702)
(-0.0199835 0.829154 0.823728)
(0.0105724 0.797643 0.910596)
(0.0296821 0.732568 0.997519)
(0.0392619 0.633985 1.06015)
(0.0447148 0.534213 1.09533)
(0.0656764 0.446241 1.08283)
(0.117595 0.380411 0.949376)
(0.279303 0.249573 0.786789)
(0.287725 -0.243957 0.902145)
(0.166661 -0.565063 0.971549)
(0.0929262 -0.754606 0.953911)
(0.0521851 -0.859765 0.884463)
(0.0194136 -0.907284 0.798461)
(-0.0106982 -0.894524 0.710774)
(-0.044222 -0.821313 0.635679)
(0.0194137 -1.00858 0.61749)
(0.0635982 -1.09925 0.672868)
(0.104164 -1.12627 0.731128)
(0.153594 -1.09874 0.78081)
(0.218329 -0.99858 0.801371)
(0.298734 -0.802378 0.76664)
(0.399676 -0.505309 0.681761)
(0.475035 0.0556887 0.426113)
(0.290216 0.462865 0.634722)
(0.218512 0.590679 0.921049)
(0.190206 0.714761 0.980859)
(0.168921 0.837266 0.980651)
(0.135205 0.949644 0.947354)
(0.0985642 1.01904 0.887274)
(0.0558311 1.04295 0.82108)
(-0.0025267 0.970623 0.770467)
(-0.000583888 0.883179 0.7651)
(-0.0137413 0.797038 0.769157)
(-0.0202709 0.773206 0.720493)
(-0.0424216 0.745764 0.704968)
(-0.051697 0.696681 0.672506)
(-0.0709259 0.608433 0.67093)
(-0.0905812 0.511699 0.554519)
(-0.114325 0.478157 0.550082)
(-0.113354 0.254174 0.443656)
(-0.222349 0.272717 0.533315)
(-0.267071 0.300757 0.659819)
(-0.266194 0.373745 0.581352)
(-0.120357 0.498043 0.6984)
(-0.0830825 0.658906 0.785251)
(-0.0774987 0.765703 0.792884)
(-0.0231437 0.894104 0.775094)
(-0.0416191 0.772425 0.737404)
(-0.0717528 0.685991 0.749119)
(-0.0950456 0.64774 0.715997)
(-0.0917035 0.593516 0.667249)