/*--------------------------------*- C++ -*----------------------------------*\
| =========                 |                                                 |
| \\      /  F ield         | OpenFOAM: The Open Source CFD Toolbox           |
|  \\    /   O peration     | Version:  v2012                                 |
|   \\  /    A nd           | Website:  www.openfoam.com                      |
|    \\/     M anipulation  |                                                 |
\*---------------------------------------------------------------------------*/
FoamFile
{
    version     2.0;
    format      ascii;
    class       volScalarField;
    location    "440";
    object      alphat;
}
// * * * * * * * * * * * * * * * * * * * * * * * * * * * * * * * * * * * * * //

dimensions      [1 -1 -1 0 0 0 0];


internalField   nonuniform List<scalar> 
18258
(
0.00484253
0.00210619
0.00172417
0.00149311
0.000990913
0.00162065
0.00225125
0.00268062
0.00281297
0.00278997
0.00288956
0.00487693
0.00684495
0.00846061
0.00888784
0.00887279
0.00805494
0.0076925
0.00834998
0.0102703
0.00863988
0.00553323
0.00663188
0.00766104
0.0083282
0.00737261
0.00596044
0.00552126
0.0049988
0.00416599
0.00349139
0.00237757
0.00175447
0.00162742
0.00147405
0.00167969
0.00182883
0.00194918
0.00199332
0.00202483
0.00201103
0.00199963
0.00194563
0.00191288
0.00185679
0.00153716
0.00186698
0.0019024
0.00208235
0.00288197
0.0030985
0.00260697
0.00288532
0.0025738
0.00169619
0.00194138
0.00210737
0.00215279
0.00212511
0.00203688
0.00200714
0.00198197
0.00195006
0.00191219
0.00188913
0.00190812
0.00192799
0.00190718
0.00181362
0.00173789
0.00161528
0.00149233
0.00140123
0.00133066
0.00127745
0.00121821
0.00115165
0.00101161
0.000937591
0.00124139
0.00155846
0.00166522
0.00236026
0.00287769
0.00289723
0.00216921
0.0015461
0.00160467
0.00178357
0.00180099
0.00152575
0.00181306
0.00205299
0.00212773
0.00221716
0.00247849
0.00282348
0.00275309
0.00245201
0.00226002
0.00220461
0.00253028
0.00240813
0.00312369
0.00314408
0.00273809
0.00253789
0.00285507
0.00368287
0.00395937
0.00307376
0.00288779
0.00283134
0.00279448
0.00252841
0.00261814
0.00237863
0.00214338
0.0023355
0.0028208
0.0026752
0.00292112
0.00302737
0.00284052
0.00329153
0.00379571
0.00374172
0.00299428
0.00244272
0.00227706
0.00229421
0.00140315
0.00151518
0.0016318
0.0016718
0.00170003
0.00172391
0.00183762
0.00183346
0.00180642
0.00180243
0.00183374
0.00101069
0.00109505
0.00112234
0.00113022
0.00107384
0.00106272
0.00104279
0.00102663
0.000968525
0.00092681
0.00110883
0.00124497
0.00135591
0.00148572
0.00167909
0.0019157
0.00216441
0.0024158
0.00258206
0.00262942
0.00267721
0.00258016
0.00248233
0.00257072
0.00258551
0.0025687
0.0025341
0.00249044
0.00243152
0.00232354
0.00244801
0.00244089
0.00229294
0.00196556
0.00200921
0.00200561
0.00205784
0.00204757
0.00206854
0.00203963
0.00200569
0.00190947
0.00177505
0.00147752
0.00143875
0.00145714
0.00187159
0.00227245
0.00351059
0.00428319
0.00497394
0.0053234
0.00569845
0.00460921
0.00512954
0.00395286
0.00354885
0.00451086
0.00590139
0.00336683
0.00183753
0.00348526
0.00309048
0.00224073
0.00199428
0.00205474
0.00205951
0.00236806
0.00273003
0.00302882
0.00317341
0.0033012
0.00340321
0.00351583
0.00365877
0.00369829
0.00357318
0.00302519
0.00364524
0.00296009
0.00345736
0.00312238
0.00210542
0.00223561
0.00236893
0.00216698
0.00210726
0.00201852
0.00181582
0.00223199
0.00289386
0.00335947
0.00384068
0.00512039
0.00473723
0.00454312
0.00351838
0.00340207
0.00176632
0.0025197
0.00261085
0.00293422
0.00195149
0.0017791
0.00168757
0.00224067
0.00259666
0.00306413
0.00339741
0.00403534
0.00312777
0.00357246
0.00323201
0.00225073
0.00216772
0.00310608
0.00334615
0.0027515
0.00246255
0.00308906
0.00292275
0.00207279
0.00166207
0.0025523
0.00264355
0.00189466
0.00470573
0.00500704
0.00477614
0.00582311
0.00729969
0.00832523
0.00775138
0.00687785
0.00767838
0.00609686
0.00590459
0.00629842
0.00528953
0.00370821
0.00380167
0.00393182
0.00403905
0.00433718
0.00460795
0.00493818
0.00525185
0.00477339
0.00396327
0.00299909
0.00206222
0.00203318
0.00202249
0.0018162
0.00269187
0.00407474
0.00404867
0.00230202
0.00134137
0.00151596
0.00171132
0.00169435
0.00123015
0.000925542
0.00159427
0.0018232
0.00185281
0.00180693
0.00170614
0.00178295
0.00286335
0.00441124
0.00484712
0.00502043
0.0051845
0.00530049
0.00536519
0.00538594
0.0053976
0.00541179
0.00542419
0.00544288
0.00542596
0.00531022
0.00467047
0.00293594
0.00171594
0.00159389
0.0017591
0.00189051
0.00200518
0.00170604
0.00104322
0.00166632
0.00213376
0.00245275
0.00247378
0.00230881
0.00223982
0.00353197
0.00469619
0.00553557
0.00570564
0.00578138
0.00571795
0.00570967
0.00558492
0.00554573
0.00486242
0.00347873
0.00380339
0.00408347
0.00413003
0.00422518
0.00436819
0.00426654
0.00403045
0.0058923
0.00679873
0.0068855
0.007032
0.00694889
0.00682892
0.00651871
0.00616428
0.00518947
0.00389172
0.00245554
0.0025068
0.00266867
0.00264319
0.002301
0.00242442
0.00263106
0.00265744
0.00274453
0.00307771
0.00349585
0.00333507
0.00287039
0.00243734
0.00226943
0.00222153
0.00213132
0.00159601
0.00161999
0.00157496
0.00160104
0.00215128
0.00256054
0.00295286
0.00418774
0.00373577
0.00303816
0.00481637
0.00493494
0.00530139
0.00585692
0.00600238
0.00665026
0.00462951
0.00417267
0.0042861
0.00350099
0.00324068
0.0032752
0.00328753
0.00306422
0.00335362
0.00332398
0.00320379
0.00353715
0.00389761
0.0051395
0.00622763
0.00657097
0.0067695
0.0068507
0.00682481
0.00669171
0.00673381
0.00591438
0.00590824
0.00565883
0.00549695
0.00544019
0.00517135
0.00591965
0.00614446
0.00621873
0.00637299
0.00661407
0.00643503
0.0062358
0.00608448
0.00597515
0.00586074
0.00592307
0.00603226
0.00614882
0.00631293
0.00653258
0.00656943
0.00634168
0.00616983
0.00605255
0.00594249
0.00594696
0.00604507
0.00615968
0.0063226
0.00653096
0.00641514
0.00625326
0.00610925
0.00599127
0.00588755
0.00568156
0.0058181
0.00596841
0.00609224
0.00617245
0.00533313
0.00570091
0.00560316
0.00507328
0.00474874
0.00360621
0.00390265
0.00411518
0.00448215
0.00497503
0.00507156
0.00425557
0.00364686
0.00355362
0.00352495
0.00360809
0.00363797
0.00365567
0.00413072
0.00622206
0.00626492
0.00628239
0.00628452
0.00537474
0.00522306
0.00486641
0.00889405
0.00828027
0.00717341
0.00591408
0.00317078
0.00271796
0.00321981
0.00391562
0.00437766
0.00483175
0.00320747
0.00198659
0.00231505
0.00240032
0.00234173
0.00216468
0.0018034
0.00166474
0.00151099
0.00162614
0.00287977
0.00459621
0.00517781
0.00523335
0.00518201
0.00508185
0.00496025
0.0047909
0.00472044
0.00593488
0.00800956
0.00907865
0.00904702
0.00777258
0.00632642
0.00355834
0.00181902
0.00131756
0.00145761
0.00159922
0.00188304
0.00168359
0.00139084
0.00152296
0.00145209
0.00294736
0.00510087
0.0065224
0.00773846
0.0076033
0.00659659
0.00541345
0.00514073
0.00526165
0.00534108
0.00540972
0.00548021
0.00552841
0.0054971
0.00500276
0.00309004
0.0018446
0.00163895
0.0017623
0.00206534
0.00219451
0.00221685
0.00218605
0.00189522
0.00313466
0.00497846
0.00316588
0.00172712
0.00186603
0.00185238
0.00326778
0.00326293
0.00319276
0.00496816
0.00525342
0.00524043
0.00492333
0.00469977
0.002782
0.00315727
0.00316788
0.00318482
0.00323718
0.00163495
0.00178205
0.00183738
0.0019776
0.00172956
0.00219794
0.000568775
0.000787971
0.000915498
0.000995489
0.00107252
0.00105216
0.00201248
0.00204166
0.00194843
0.00189711
0.00240854
0.0025849
0.00264212
0.00243372
0.00224585
0.00239059
0.00239573
0.00225754
0.00213858
0.00221757
0.00221919
0.00212666
0.00180886
0.00169501
0.00186086
0.00184078
0.00182595
0.00327949
0.00327393
0.00309844
0.00509175
0.00500953
0.00561147
0.005575
0.00556833
0.00554553
0.00560543
0.00563667
0.00566034
0.00568802
0.00567717
0.00562219
0.00782362
0.00553077
0.00482602
0.00279057
0.00268785
0.0018981
0.0016635
0.00195877
0.00209496
0.00227118
0.00221973
0.00234025
0.00233741
0.00248031
0.00230227
0.00204439
0.00313139
0.00334542
0.00326765
0.00333246
0.0032542
0.0032352
0.00321132
0.00316549
0.00311032
0.00185179
0.00181633
0.00212689
0.00223259
0.00239888
0.00242073
0.00247321
0.00234571
0.00206312
0.00199716
0.00229992
0.00226898
0.00231294
0.00218075
0.00217188
0.001935
0.00198395
0.00400107
0.00738593
0.00380101
0.00422192
0.00382489
0.00435014
0.00381022
0.0032861
0.00336304
0.0029622
0.00308983
0.00324099
0.00329953
0.00346766
0.00408743
0.00393527
0.00345438
0.00335423
0.00328825
0.0031005
0.00279075
0.00292342
0.00294972
0.00301296
0.0033486
0.00384062
0.00430506
0.00522997
0.00507494
0.00444671
0.00406503
0.00426211
0.00433683
0.00545847
0.00509875
0.00506932
0.00534835
0.00529617
0.00502649
0.00476315
0.00459771
0.00394779
0.00401302
0.00459301
0.004444
0.00457937
0.00449877
0.00467645
0.00476018
0.00456903
0.00424678
0.00446383
0.00445485
0.00494724
0.00481205
0.00446364
0.00408439
0.00436506
0.00431199
0.00498091
0.00468936
0.00438624
0.00403722
0.00386708
0.0043885
0.00430866
0.00488559
0.00502665
0.00502877
0.00438417
0.00428278
0.00509298
0.00490014
0.00473264
0.00492911
0.00408219
0.00419921
0.00517261
0.00528077
0.00500945
0.00418227
0.00424687
0.00364181
0.00428208
0.00532946
0.00503251
0.00412481
0.00342307
0.00478953
0.0050404
0.00533158
0.0050392
0.00548915
0.00591436
0.00482106
0.00524559
0.00685432
0.00523402
0.00607398
0.00620865
0.00624525
0.00624842
0.00627241
0.00630335
0.00663995
0.00645716
0.00410706
0.00491192
0.00477203
0.00399168
0.00339441
0.00373862
0.00402618
0.00408399
0.00418737
0.00434664
0.00427183
0.00412908
0.0060458
0.00690086
0.0070494
0.00718907
0.00707156
0.00689852
0.00649752
0.0060063
0.00498657
0.00371879
0.00232075
0.00236518
0.00251989
0.00249503
0.00216365
0.0016325
0.00107285
0.00159272
0.00164754
0.00155235
0.0014157
0.00125064
0.0012954
0.00236091
0.00460413
0.00629794
0.00694334
0.00746853
0.00803078
0.00858273
0.00900649
0.0093129
0.00951743
0.00963991
0.00966166
0.00946618
0.00859189
0.00820924
0.00773664
0.00735057
0.00681987
0.00641086
0.00724585
0.00796061
0.00840295
0.0089001
0.00913099
0.00903583
0.00785216
0.00761182
0.00875404
0.0107864
0.00916678
0.0115204
0.0135534
0.0105498
0.00948771
0.00948511
0.0105999
0.010804
0.0104168
0.00981398
0.00912286
0.00825177
0.00867979
0.00906994
0.00944736
0.00979404
0.0107654
0.010942
0.0108648
0.0107027
0.0104809
0.010154
0.00963794
0.00893123
0.00815081
0.00738923
0.00650305
0.00465711
0.00219569
0.00248075
0.00243487
0.00262279
0.00255352
0.00117768
0.00129984
0.00131697
0.00132647
0.00125326
0.00142616
0.00206398
0.00336084
0.00241734
0.00198806
0.00137114
0.00161153
0.00269316
0.0045793
0.0051751
0.00527461
0.00533643
0.00674866
0.00788951
0.00840727
0.00879658
0.00908843
0.00897169
0.00867219
0.00814255
0.00748419
0.0072376
0.00683652
0.00648339
0.00629384
0.00609831
0.00572361
0.00449387
0.00431094
0.00449326
0.00443937
0.00424969
0.00454173
0.0047065
0.00470309
0.00475586
0.00480206
0.00494441
0.00511188
0.00525772
0.00533447
0.00536324
0.00537262
0.00538407
0.00539317
0.00540995
0.00539181
0.00527385
0.00463078
0.00289512
0.00168949
0.00156148
0.00171199
0.00181031
0.00185223
0.00164459
0.00105867
0.00164515
0.0021295
0.00218444
0.00239738
0.00247381
0.00262388
0.00292276
0.00337712
0.00348446
0.00309155
0.00292768
0.00286485
0.00279218
0.00238531
0.00297385
0.00328284
0.00327691
0.00324649
0.00350941
0.00431944
0.00414849
0.00365768
0.00361621
0.00357933
0.00323494
0.00318634
0.00348302
0.00352175
0.00365403
0.00428528
0.00514018
0.0047678
0.00434201
0.00416177
0.00384284
0.00338187
0.00305673
0.00376379
0.00309026
0.00162294
0.00137602
0.00137305
0.00137747
0.00132845
0.00157535
0.00165793
0.0016808
0.00156493
0.00173689
0.00193378
0.00187346
0.00211696
0.0020883
0.00186866
0.00185038
0.00200432
0.00211786
0.00217451
0.00223017
0.00365525
0.00377307
0.00292303
0.00423311
0.00487716
0.0048449
0.0051396
0.00422653
0.00378845
0.00449747
0.00520012
0.00596954
0.00471565
0.0044591
0.00456459
0.00209308
0.00110142
0.00155391
0.00192957
0.00215132
0.00208798
0.0019733
0.00166934
0.00296571
0.00304563
0.00483923
0.00542927
0.00550042
0.00546552
0.00546598
0.00594125
0.00682208
0.00783165
0.00815747
0.00804507
0.00768277
0.00700561
0.00633082
0.00629705
0.00608642
0.00593136
0.00588827
0.00511721
0.00451378
0.00483566
0.00475783
0.00491922
0.0049949
0.00504999
0.00510613
0.00519945
0.00531206
0.00541489
0.00548526
0.00553228
0.00557171
0.00561175
0.00565175
0.00569488
0.00571815
0.00566394
0.00511876
0.00306858
0.00182849
0.00166743
0.00177909
0.00209113
0.00220192
0.00236646
0.00210052
0.0011061
0.00130067
0.00226041
0.00250799
0.00232083
0.00217195
0.00213312
0.00178687
0.00323973
0.0031981
0.00502397
0.00565123
0.00573077
0.00571504
0.00567083
0.00562033
0.00557013
0.00552871
0.00549528
0.00546001
0.00541086
0.00535172
0.00529678
0.00524054
0.00514506
0.00501019
0.00485301
0.00504596
0.0052241
0.00545206
0.00569339
0.00580979
0.00570343
0.00554861
0.00548579
0.00552501
0.00557522
0.00562622
0.00567199
0.00569534
0.00563119
0.00530598
0.00497599
0.00314965
0.00319123
0.00156822
0.00174186
0.00200992
0.00207585
0.00225424
0.00224272
0.001762
0.00137367
0.00155027
0.00144952
0.00259062
0.00284943
0.00316113
0.00313028
0.00169847
0.0017423
0.00181058
0.00204181
0.00189794
0.00183493
0.00454637
0.00435283
0.00455378
0.00558714
0.00481302
0.00332115
0.00363772
0.00506233
0.00534016
0.00322675
0.00242031
0.00268372
0.00339964
0.00500591
0.00506915
0.00481729
0.00478967
0.00349411
0.00429585
0.0051729
0.00503238
0.00391904
0.00269967
0.00201181
0.000976517
0.00185731
0.0015877
0.00389645
0.00431311
0.00426389
0.00466296
0.00495393
0.00500442
0.00486302
0.00431092
0.00439743
0.00444122
0.00506196
0.00508505
0.00430223
0.00362916
0.00294558
0.0029724
0.00303041
0.00335828
0.00420486
0.00396177
0.00347234
0.00336682
0.00329387
0.00309782
0.00279519
0.00245135
0.0024686
0.00229791
0.002224
0.00350608
0.0046673
0.00550408
0.00566237
0.00571966
0.00563183
0.00559192
0.00543198
0.0053493
0.00464732
0.0059363
0.00627382
0.0060538
0.00609846
0.0061365
0.00618335
0.00618441
0.00606817
0.00521376
0.00311324
0.00203338
0.00229509
0.002477
0.00232565
0.00231276
0.00246531
0.0023396
0.00205516
0.00332984
0.00325488
0.00520497
0.00589529
0.00602149
0.00602866
0.00600457
0.00598472
0.00599275
0.00630822
0.00616481
0.00624684
0.00657627
0.00658736
0.00666873
0.00626208
0.006183
0.00613244
0.00609849
0.00604296
0.00589446
0.00521594
0.00505726
0.00574335
0.00592035
0.00599872
0.00605278
0.0061172
0.00620169
0.00644659
0.00662797
0.0066972
0.00643046
0.00633236
0.00618542
0.00597611
0.0059261
0.00591579
0.00591059
0.00588177
0.00572922
0.00504275
0.00324212
0.00332201
0.00197611
0.00198882
0.00229059
0.00240555
0.00236236
0.00218753
0.00213272
0.00367939
0.00418803
0.00445286
0.00479959
0.00458506
0.00455893
0.00520992
0.00504174
0.00449143
0.00467512
0.00419413
0.00399386
0.00386822
0.00389136
0.00203917
0.00220058
0.00229562
0.00225781
0.00215901
0.00192585
0.00176608
0.00322342
0.0031999
0.00315867
0.00187772
0.00183641
0.00216348
0.00210083
0.00192165
0.00163807
0.00179597
0.00277438
0.00310319
0.00481247
0.00498511
0.00533523
0.00570566
0.00584625
0.00588493
0.00590888
0.00593552
0.00599225
0.00605874
0.00607722
0.0060733
0.00611769
0.00610694
0.00610883
0.00607754
0.00604142
0.00599898
0.00595333
0.00587768
0.00572122
0.005346
0.00497793
0.00561253
0.00566445
0.00576998
0.00587879
0.00592472
0.00593136
0.0059091
0.00586538
0.00581363
0.00575441
0.00575353
0.0059262
0.00596804
0.00599781
0.00597955
0.00595791
0.00594995
0.00592238
0.00587889
0.00576974
0.00566044
0.00561432
0.00552043
0.00566784
0.00573329
0.00574294
0.00579862
0.00588804
0.00591482
0.00591539
0.00587256
0.00583608
0.00578815
0.00570932
0.00560459
0.00525808
0.0053279
0.00541977
0.00554026
0.00565659
0.00575079
0.00580422
0.005809
0.00575653
0.00572116
0.00572262
0.005674
0.00569914
0.00572499
0.00569542
0.00569111
0.00569399
0.00562718
0.00550716
0.00534082
0.00516547
0.00502166
0.00495041
0.00483254
0.00522174
0.00537529
0.00551142
0.00563134
0.00573852
0.00584497
0.00587579
0.00586191
0.00579592
0.00575833
0.00575675
0.00570128
0.00569844
0.00575196
0.0057541
0.00578524
0.00584124
0.00582753
0.00575142
0.0055502
0.00535362
0.00518177
0.00501629
0.00483939
0.00480167
0.00488055
0.00481072
0.0048732
0.00504078
0.00525359
0.00543879
0.00555897
0.00559823
0.00563459
0.0056869
0.00568178
0.0056506
0.0056329
0.00556219
0.00550017
0.00542447
0.00526162
0.00505608
0.00487689
0.00482338
0.00492363
0.00501993
0.00492848
0.00457293
0.00475684
0.00493264
0.00510589
0.00535006
0.00563014
0.00574973
0.00579215
0.0057636
0.00574139
0.00573843
0.00568773
0.00566971
0.00571648
0.00572049
0.00574314
0.0057793
0.00574657
0.00564998
0.00530777
0.00489621
0.00469769
0.00457922
0.00442355
0.00495304
0.00505686
0.00493336
0.00484956
0.0049794
0.00512888
0.00528437
0.00538854
0.00543118
0.00549155
0.00557071
0.00560927
0.00555337
0.00548767
0.00540715
0.00536574
0.00536564
0.0053414
0.00524239
0.00512361
0.00498331
0.00515056
0.00524786
0.00515335
0.00466536
0.0047428
0.00486403
0.00493589
0.00532278
0.0056544
0.0057279
0.00572715
0.00568991
0.00566579
0.00566592
0.0056362
0.00558071
0.0055711
0.00556708
0.00563436
0.005723
0.00577803
0.00580761
0.00556104
0.00509879
0.00501573
0.00479918
0.00470078
0.00522282
0.00528168
0.00516057
0.00504859
0.00529425
0.00539783
0.00542484
0.00540085
0.00534272
0.00530525
0.00537406
0.00548262
0.00540072
0.00504923
0.00473746
0.00489812
0.00493892
0.00492852
0.00486287
0.00475069
0.00450538
0.00503173
0.00554421
0.00558525
0.00503799
0.00504656
0.00489334
0.00456053
0.00500962
0.00524224
0.0052906
0.00526457
0.00517918
0.0049799
0.00525918
0.00550541
0.00545794
0.004941
0.00320695
0.00325093
0.00327388
0.00327653
0.00323387
0.00322198
0.00317523
0.00315106
0.00307822
0.00300398
0.00293332
0.00312859
0.00329652
0.00352203
0.00354096
0.00363432
0.00347842
0.00329256
0.00307492
0.00239396
0.00303782
0.00362439
0.00385177
0.00414311
0.00420273
0.00484584
0.00509719
0.00523112
0.00512779
0.00411329
0.00348869
0.0027876
0.00181287
0.00112954
0.00132566
0.00137863
0.00144676
0.00176823
0.00328618
0.00167233
0.00232258
0.00181452
0.00312986
0.00164217
0.00102696
0.000679715
0.000863481
0.00102208
0.00103046
0.000989577
0.000826233
0.000651469
0.000666011
0.000622783
0.00066199
0.00059783
0.000685161
0.000640855
0.000895053
0.00134519
0.00152619
0.00155999
0.0012609
0.00142186
0.00118788
0.00137002
0.00122322
0.00133323
0.00127877
0.00156414
0.00171418
0.00164123
0.0016459
0.0014403
0.00100733
0.00116756
0.000917194
0.00110118
0.000842504
0.00108795
0.000932908
0.00121216
0.00124956
0.00124596
0.00119969
0.000916575
0.00108682
0.000855508
0.00104694
0.000856635
0.000909183
0.000756226
0.00109472
0.00111452
0.00102759
0.00109185
0.00122469
0.00131379
0.00145057
0.00137733
0.00157388
0.00152499
0.0015526
0.00147048
0.00142969
0.00139697
0.00139975
0.00137673
0.00138429
0.00142893
0.00143116
0.00143684
0.00148242
0.00146088
0.00142595
0.001405
0.00124816
0.00100704
0.00175432
0.00180921
0.00183588
0.00183536
0.00179357
0.00177367
0.0017124
0.00169615
0.00164279
0.00161147
0.00154006
0.00148139
0.00141452
0.00159041
0.000889929
0.00101048
0.00106683
0.00109849
0.00112062
0.00113078
0.00113905
0.0011327
0.00111868
0.00109095
0.00108141
0.00105122
0.00134511
0.00153
0.0015991
0.0016174
0.00151592
0.00144337
0.00315522
0.00381871
0.00580931
0.00593809
0.00445689
0.00444384
0.0015386
0.00162274
0.00110952
0.00155915
0.00160757
0.00159118
0.00150319
0.0010843
0.00162724
0.00113337
0.0015272
0.00114284
0.00141422
0.00115891
0.00164256
0.00209204
0.00201735
0.00182668
0.00124174
0.00103283
0.00102943
0.000882119
0.000968116
0.000802539
0.000988661
0.000838311
0.00124961
0.0017814
0.00197076
0.00201048
0.00158539
0.00218725
0.00164441
0.00238045
0.0018892
0.00232942
0.00186931
0.00216418
0.00267773
0.00268956
0.00262561
0.00211601
0.00169595
0.00190335
0.00168624
0.00194181
0.00280685
0.00183947
0.00278965
0.00115277
0.00157115
0.00161931
0.00159701
0.00150578
0.00101464
0.00258484
0.00136664
0.00243546
0.00157558
0.00253142
0.00183135
0.00241811
0.00289016
0.00301745
0.00300265
0.00245131
0.00220457
0.00227091
0.00181195
0.00217462
0.00162731
0.00236594
0.00135026
0.00175787
0.00194728
0.00205041
0.00205911
0.00169307
0.00334278
0.00209851
0.00316755
0.00220197
0.00282123
0.00226115
0.00247436
0.00292195
0.00290384
0.00287956
0.00244181
0.00197543
0.00260719
0.00186012
0.0553227
0.12793
0.0508892
0.129331
0.0585687
0.0831478
0.0819439
0.0821276
0.0824422
0.0619215
0.135067
0.159537
0.16636
0.168365
0.167091
0.27001
0.220129
0.330738
0.214363
0.126081
0.0546059
0.0753215
0.19456
0.321406
0.482358
0.612148
0.417154
0.43185
0.275586
0.271745
0.255847
0.206961
0.126812
0.0635901
0.0109175
0.0119375
0.0170809
0.0227307
0.0178904
0.0109643
0.00216844
0.00223853
0.00229004
0.00232293
0.00231671
0.00226957
0.00230755
0.00218094
0.00205275
0.0022979
0.00250519
0.0026748
0.00315586
0.00348832
0.00314459
0.00344591
0.00365126
0.00381902
0.00395837
0.00416569
0.00439885
0.0046028
0.00461321
0.00422632
0.00360165
0.00292821
0.00245934
0.00232944
0.00218728
0.00192885
0.00176436
0.00165141
0.00159741
0.0015753
0.00161923
0.00176998
0.00190104
0.00194704
0.00190905
0.00187407
0.00184359
0.00164169
0.00191957
0.00263314
0.00265325
0.00454573
0.00523794
0.00534703
0.00535472
0.00474572
0.00303138
0.00303817
0.00305381
0.00311235
0.0031248
0.0031337
0.00313075
0.00312091
0.00310293
0.00306982
0.00305286
0.00300326
0.00296126
0.00285556
0.00286018
0.00289619
0.00292503
0.00287655
0.00288774
0.00282782
0.00369755
0.00493417
0.00555315
0.00580253
0.00601798
0.00584075
0.00809774
0.0069339
0.00486819
0.00478536
0.00472609
0.0056068
0.00564486
0.00509652
0.0051179
0.00467285
0.00291834
0.00291324
0.00291526
0.00312004
0.00318201
0.00328818
0.00331787
0.0033422
0.00335764
0.00334856
0.00334581
0.00331406
0.00329127
0.00321562
0.00319058
0.00317974
0.00175302
0.00191352
0.00198572
0.00199955
0.00202985
0.00201813
0.00200724
0.00198334
0.00196853
0.00193566
0.00189833
0.00184134
0.00173051
0.00157589
0.00173382
0.00294053
0.00293904
0.00478755
0.00539994
0.00543965
0.00605766
0.00574953
0.00544524
0.00584187
0.00526519
0.00522236
0.00473
0.00293833
0.00297841
0.00176872
0.00175399
0.00205175
0.00199588
0.00213332
0.00219216
0.00219821
0.00222832
0.00225638
0.00229197
0.00234977
0.0023661
0.00232741
0.00231958
0.00218413
0.001887
0.00190912
0.0022512
0.00236217
0.00219427
0.00215749
0.00214164
0.00208933
0.00204977
0.00201216
0.00203861
0.00219536
0.00219228
0.00215259
0.00204796
0.00199338
0.001727
0.00166749
0.00291442
0.00296067
0.00489445
0.00499914
0.00496339
0.0057259
0.00639789
0.00727406
0.00621143
0.00504895
0.00525952
0.00601804
0.00448296
0.00375902
0.00223554
0.00167556
0.00209894
0.0019277
0.00201049
0.00208323
0.00185014
0.00198882
0.00183888
0.00167115
0.00166168
0.00165979
0.00170049
0.00171777
0.00174881
0.00175307
0.00179559
0.00179146
0.00179594
0.00181773
0.00182614
0.00201758
0.00219156
0.00184511
0.00156453
0.00152528
0.00144044
0.00137183
0.00140541
0.00137154
0.00136309
0.00133807
0.00131531
0.0012552
0.00130795
0.00138798
0.00162383
0.00155388
0.00125587
0.00112206
0.000766801
0.0007824
0.000787809
0.00081195
0.000820881
0.000831818
0.000835925
0.000849524
0.000852196
0.000856524
0.000856204
0.000877105
0.00087411
0.000863978
0.000857496
0.000861548
0.000865386
0.000864712
0.0012663
0.00140988
0.00153929
0.00182796
0.00215046
0.00185148
0.0015697
0.0013535
0.000870042
0.000883039
0.000899142
0.000907455
0.000926767
0.000944334
0.000963919
0.000976239
0.000985471
0.000995108
0.0010053
0.00100931
0.00100681
0.00098731
0.000975854
0.0010006
0.00109987
0.00115755
0.00123164
0.00125961
0.00128335
0.00129503
0.00128922
0.00130287
0.00128784
0.00128583
0.00126421
0.00125506
0.00124641
0.00123538
0.00122158
0.00118716
0.00117575
0.00123698
0.00209498
0.00273989
0.00315289
0.00347078
0.00321362
0.00261235
0.00273917
0.00481672
0.00456319
0.00268904
0.00251241
0.00232101
0.00203128
0.0017709
0.00214034
0.00244206
0.00267005
0.00286984
0.00305285
0.00317744
0.00333805
0.00354762
0.00391709
0.00396317
0.00361449
0.00292744
0.00247592
0.00231064
0.00223186
0.00209581
0.00194715
0.00199628
0.00201087
0.00195127
0.00187728
0.00185663
0.00188765
0.00192773
0.00190482
0.00190417
0.00170129
0.00170061
0.00290608
0.00295935
0.00455237
0.004797
0.00484403
0.00311371
0.00307134
0.00179394
0.00166624
0.00181779
0.00188719
0.00189128
0.00189927
0.00188992
0.00185723
0.00183324
0.00180523
0.00178234
0.00176189
0.00172668
0.00165945
0.00153278
0.0016698
0.00187223
0.00195582
0.00197791
0.00198868
0.0020202
0.00207171
0.00211281
0.00220818
0.00221748
0.00221637
0.00222401
0.00207853
0.0021433
0.00181389
0.00181101
0.00313911
0.00313014
0.00179808
0.00212317
0.00213803
0.00211386
0.00227608
0.00208289
0.00201703
0.00200677
0.00192205
0.0018769
0.00181643
0.00178023
0.00181457
0.00192972
0.00186781
0.00165535
0.00159388
0.00178884
0.00172201
0.00142869
0.00122074
0.00118736
0.00113674
0.00110604
0.00115945
0.00120116
0.00122497
0.0012551
0.00126402
0.00131915
0.00128335
0.00134639
0.00142781
0.00149261
0.00177036
0.00191877
0.00173341
0.00170027
0.00167921
0.0016778
0.00168319
0.00161402
0.00160944
0.0015736
0.00155587
0.00150884
0.00148756
0.0014605
0.00146512
0.00148033
0.00162727
0.00418755
0.00534032
0.00556158
0.00950551
0.00383828
0.00392024
0.00769316
0.00317977
0.00478109
0.00512298
0.00535409
0.00559113
0.00511718
0.00651073
0.00454136
0.00506048
0.00526754
0.00459948
0.00173567
0.00199748
0.00229185
0.00203645
0.00179809
0.00122473
0.00131929
0.00136184
0.00139658
0.00141889
0.00144404
0.00147086
0.00149607
0.00151368
0.00151374
0.00146739
0.00141756
0.00130312
0.00126501
0.00131396
0.00136454
0.0011979
0.00112773
0.00114096
0.00115959
0.00117002
0.00117215
0.00118351
0.00118651
0.0012045
0.00119475
0.00120376
0.00118306
0.00119339
0.00117804
0.00113806
0.00108166
0.000985969
0.000962661
0.00138662
0.00147662
0.00155105
0.00176061
0.00203335
0.00217002
0.00194534
0.00179463
0.00172272
0.0019109
0.00191282
0.00347962
0.00667761
0.00298929
0.00334644
0.00975459
0.0038802
0.00301471
0.00305986
0.00309189
0.00309647
0.00179909
0.00213064
0.00206573
0.00207486
0.00176002
0.00147788
0.00132559
0.0011852
0.000803883
0.000801296
0.000807342
0.000819792
0.000823671
0.000788477
0.000788385
0.000783886
0.000782126
0.000765494
0.000760844
0.000747292
0.000739054
0.000719558
0.000708992
0.000690515
0.000687497
0.000720544
0.000804128
0.000972563
0.00107865
0.0012284
0.00124958
0.00139917
0.00345627
0.00400827
0.00552533
0.00548446
0.00865012
0.00540488
0.00408213
0.00368463
0.00539246
0.00557224
0.00516269
0.00699169
0.00483778
0.00320952
0.00490055
0.00409056
0.00475832
0.00469513
0.00499124
0.0079304
0.00833672
0.00234244
0.00208737
0.00219487
0.00249064
0.0029578
0.00272781
0.00310576
0.00311171
0.0024094
0.00151916
0.00483583
0.0058337
0.00471671
0.00568891
0.00872368
0.0035004
0.00341297
0.0030193
0.00252005
0.00229014
0.00226012
0.00252047
0.0030161
0.00754461
0.00807353
0.00749592
0.00749104
0.00678956
0.00741291
0.00923752
0.00918402
0.00812427
0.00760174
0.0078925
0.00493844
0.00302788
0.00352169
0.00390741
0.00521452
0.00537695
0.0113599
0.00385732
0.00425919
0.00432504
0.00578112
0.00560018
0.00989211
0.00419931
0.00452646
0.00596248
0.00797234
0.0146895
0.00536948
0.00564995
0.00812281
0.00824637
0.00753707
0.00544859
0.00493163
0.00537119
0.00404704
0.0039569
0.00337482
0.00498024
0.00670366
0.00530773
0.00515343
0.00438124
0.00391147
0.00399518
0.00414837
0.00344653
0.00339729
0.00391804
0.00291821
0.00282817
0.00297819
0.000829038
0.000424752
0.000434128
0.00044541
0.000454596
0.000464077
0.000470991
0.000479208
0.000482886
0.000483306
0.000484571
0.00051235
0.000507546
0.000491498
0.000446295
0.000509202
0.000808066
0.000808543
0.000508555
0.000448314
0.000804466
0.00128172
0.00151101
0.00178724
0.00180911
0.00156117
0.00135366
0.000833367
0.000820256
0.00049716
0.000580651
0.000630568
0.00055934
0.000624286
0.000578665
0.00061287
0.00061936
0.000573191
0.000569949
0.000572133
0.00056778
0.000557651
0.000545309
0.000530298
0.000518632
0.000512564
0.000508233
0.000498183
0.000412473
0.000385104
0.000465138
0.000744015
0.00074456
0.000696835
0.000655139
0.0006192
0.000602318
0.000597191
0.000593589
0.000603904
0.0006234
0.000628921
0.000634511
0.000683559
0.000662009
0.000707058
0.000663643
0.000708959
0.000665374
0.000612095
0.000513944
0.000530231
0.000855437
0.000864538
0.00139659
0.00159738
0.0018111
0.00182014
0.00203183
0.00214004
0.00181263
0.00188186
0.00215621
0.00200791
0.00178953
0.00179677
0.00161615
0.00161802
0.00143363
0.000896112
0.000883977
0.000555134
0.000539158
0.000642884
0.00063168
0.000702513
0.000751894
0.00075213
0.000749708
0.000731161
0.000724418
0.000637133
0.000624565
0.000625413
0.000606588
0.000602872
0.000629697
0.000689243
0.000810708
0.000981011
0.00106719
0.00110262
0.00105661
0.000945338
0.000699963
0.000630789
0.00109523
0.00113424
0.00204768
0.00486344
0.00228652
0.00429812
0.00310075
0.000768867
0.000856834
0.00109254
0.00122411
0.00132203
0.00137946
0.00126253
0.00105466
0.000794075
0.000655428
0.000975717
0.000843571
0.000951476
0.000830763
0.00107525
0.00124305
0.00120237
0.00121126
0.00102351
0.000833571
0.000882769
0.000792309
0.000873242
0.00073116
0.000879644
0.000794151
0.000997902
0.00100725
0.000986271
0.000934831
0.000711777
0.000746816
0.000626453
0.000679638
0.000610236
0.000630777
0.000597689
0.000697025
0.000803213
0.000770909
0.000767927
0.000631002
0.000494505
0.00054621
0.00047248
0.00053479
0.000415761
0.000503618
0.000422296
0.000546755
0.00056387
0.000567428
0.000564767
0.000460399
0.000541463
0.000661682
0.000693765
0.000699018
0.000665557
0.000513086
0.000793872
0.000716188
0.000874228
0.000755962
0.000827564
0.000753542
0.000878245
0.00112477
0.00117437
0.00118218
0.0009592
0.000953235
0.00174065
0.0965628
0.00156573
0.00185063
0.00190845
0.00190163
0.0015722
0.00153384
0.00190005
0.00140538
0.00199043
0.00125342
0.00212321
0.000809341
0.00123021
0.0013208
0.00131803
0.00122504
0.000822326
0.00243312
0.118909