/*--------------------------------*- C++ -*----------------------------------*\
| =========                 |                                                 |
| \\      /  F ield         | OpenFOAM: The Open Source CFD Toolbox           |
|  \\    /   O peration     | Version:  v2012                                 |
|   \\  /    A nd           | Website:  www.openfoam.com                      |
|    \\/     M anipulation  |                                                 |
\*---------------------------------------------------------------------------*/
FoamFile
{
    version     2.0;
    format      ascii;
    class       volScalarField;
    location    "440";
    object      nut;
}
// * * * * * * * * * * * * * * * * * * * * * * * * * * * * * * * * * * * * * //

dimensions      [0 2 -1 0 0 0 0];


internalField   nonuniform List<scalar> 
18258
(
0.00418699
0.00182149
0.00149122
0.00129138
0.000856947
0.00140143
0.00194674
0.0023177
0.00243197
0.0024118
0.00249765
0.00421542
0.00591642
0.00731226
0.00768083
0.00766705
0.00695953
0.00664649
0.00721408
0.00887142
0.00746139
0.00477936
0.00572742
0.00661611
0.00719167
0.00636658
0.00514812
0.00476867
0.00431741
0.00359802
0.00301554
0.0020548
0.00151675
0.00140695
0.00127442
0.00145217
0.00158102
0.00168499
0.00172308
0.00175027
0.00173831
0.00172844
0.00168177
0.0016535
0.00160506
0.00132887
0.00161377
0.00164362
0.00179887
0.00248953
0.00267626
0.00225137
0.00249107
0.00222268
0.00146561
0.00167718
0.00182057
0.00185981
0.00183601
0.00175991
0.00173433
0.00171268
0.00168522
0.0016526
0.00163277
0.00164928
0.00166654
0.00164862
0.00156783
0.00150239
0.00139644
0.00129018
0.00121142
0.00115041
0.00110439
0.00105317
0.000995611
0.000874535
0.000810535
0.00107316
0.00134724
0.00143948
0.00204026
0.00248748
0.00250426
0.00187512
0.00133662
0.0013873
0.00154198
0.00155705
0.00131919
0.00156727
0.0017746
0.00183913
0.00191638
0.00214226
0.00244054
0.00237984
0.00211962
0.00195369
0.00190584
0.00218762
0.00208208
0.00270048
0.00271808
0.00236697
0.00219374
0.00246789
0.00318329
0.00342201
0.00265655
0.00249576
0.00244701
0.00241526
0.00218542
0.00226295
0.00205595
0.00185263
0.0020186
0.00243783
0.00231207
0.00252464
0.00261637
0.00245484
0.00284453
0.00328017
0.00323363
0.00258772
0.0021114
0.00196822
0.00198301
0.00121284
0.00130964
0.00141028
0.00144484
0.00146924
0.00148988
0.00158816
0.00158456
0.00156122
0.00155778
0.00158492
0.000873537
0.000946433
0.00097
0.000976805
0.000928069
0.000918459
0.00090123
0.000887266
0.000837136
0.000801103
0.000958433
0.00107611
0.001172
0.00128418
0.00145126
0.00165565
0.00187042
0.00208742
0.00223086
0.00227165
0.00231279
0.00222899
0.00214446
0.00222077
0.00223355
0.00221907
0.00218923
0.00215156
0.00210065
0.00200733
0.00211464
0.00210843
0.00198064
0.00169823
0.00173585
0.00173271
0.0017778
0.00176896
0.00178708
0.00176216
0.00173287
0.00164984
0.00153382
0.00127668
0.00124286
0.00125857
0.00161649
0.00196269
0.00303204
0.00369922
0.00429598
0.00459784
0.00492108
0.00398026
0.00442968
0.00341324
0.00306432
0.00389502
0.005096
0.00290724
0.00158669
0.00300951
0.00266877
0.00193498
0.0017222
0.00177443
0.00177884
0.00204541
0.00235753
0.00261506
0.00273968
0.00284999
0.00293793
0.00303523
0.00315851
0.00319289
0.00308489
0.00261218
0.00314639
0.00255565
0.00298569
0.0026968
0.00181854
0.00193145
0.00204664
0.00187212
0.00182049
0.00174385
0.00156908
0.00192841
0.00249895
0.00290078
0.00331622
0.00442152
0.0040905
0.00392266
0.00303782
0.0029375
0.00152517
0.00217574
0.00225445
0.00253369
0.00168513
0.00153641
0.00145752
0.00193501
0.00224179
0.00264498
0.00293237
0.00348275
0.00270028
0.00308494
0.00279139
0.00194404
0.00187232
0.00268261
0.00288957
0.00237561
0.00212631
0.00266771
0.00252433
0.00179034
0.00143565
0.0022045
0.0022832
0.00163627
0.00406348
0.00432311
0.00412361
0.00502682
0.00630219
0.0071863
0.00669114
0.00593766
0.00662856
0.00526485
0.00509873
0.00543792
0.00456763
0.00320264
0.00328283
0.00339471
0.00348659
0.00374326
0.00397639
0.00426102
0.00453198
0.00412028
0.00342289
0.00259143
0.00178239
0.00175729
0.00174802
0.00156971
0.00232651
0.00352176
0.00349918
0.00198983
0.0011596
0.00131053
0.00147937
0.00146469
0.00106359
0.000800203
0.00137834
0.00157603
0.00160152
0.00156179
0.00147459
0.00154098
0.00247479
0.00381268
0.00418933
0.0043391
0.00448093
0.00458124
0.00463726
0.00465531
0.00466553
0.00467795
0.00468883
0.00470516
0.00469068
0.00459079
0.00403789
0.00253847
0.0014838
0.00137837
0.00152127
0.00163494
0.00173416
0.00147564
0.000902283
0.00144111
0.0018454
0.002121
0.00213909
0.00199629
0.00193652
0.00305364
0.00406012
0.00478559
0.00493243
0.00499774
0.00494274
0.00493544
0.00482745
0.00479345
0.00420272
0.00300718
0.00328744
0.00352944
0.00356964
0.00365185
0.00377553
0.00368774
0.00348399
0.00509296
0.00587698
0.00595239
0.00607968
0.00600846
0.00590527
0.0056374
0.00533118
0.00448832
0.00336598
0.00212384
0.00216831
0.00230849
0.00228656
0.00199076
0.00209719
0.0022758
0.00229857
0.0023738
0.00266181
0.00302317
0.00288405
0.00248217
0.00210775
0.00196256
0.00192111
0.00184308
0.00138014
0.00140091
0.00136198
0.00138455
0.00186033
0.00221433
0.00255347
0.00362135
0.00323049
0.00262734
0.00416454
0.00426705
0.00458382
0.0050641
0.00518989
0.00574989
0.00400298
0.00360805
0.00370633
0.00302777
0.00280273
0.0028327
0.00284341
0.00265045
0.00290081
0.00287508
0.00277105
0.00305934
0.00337077
0.00444463
0.00538531
0.00568189
0.00585316
0.00592289
0.00589998
0.00578444
0.00582047
0.00511176
0.00510623
0.0048905
0.00475055
0.00470149
0.00446923
0.00511628
0.00531054
0.00537479
0.00550821
0.00571677
0.00556232
0.00538992
0.00525903
0.00516447
0.0050656
0.00511967
0.00521408
0.0053149
0.00545691
0.00564702
0.00567929
0.0054821
0.00533335
0.00523186
0.00513665
0.00514072
0.00522564
0.00532487
0.00546594
0.00564643
0.00554663
0.00540631
0.00528155
0.00517937
0.00508957
0.00491169
0.00502989
0.00516005
0.00526738
0.00533711
0.00461161
0.00492927
0.0048445
0.00438617
0.00410544
0.00311777
0.00337414
0.00355797
0.00387531
0.00430168
0.00438534
0.00368016
0.00315383
0.00307338
0.00304861
0.00312069
0.00314648
0.00316164
0.00357235
0.00538045
0.00541744
0.0054326
0.00543448
0.00464782
0.00451661
0.00420805
0.00768977
0.00715929
0.00620281
0.00511403
0.00274216
0.00235067
0.00278449
0.00338607
0.00378574
0.00417811
0.0027737
0.00171804
0.00200221
0.00207612
0.00202561
0.00187261
0.00156041
0.00144042
0.00130732
0.00140678
0.00249097
0.00397531
0.00447815
0.00452604
0.00448151
0.0043948
0.0042896
0.00414322
0.00408237
0.00513253
0.00692608
0.00785002
0.0078227
0.00672123
0.00547091
0.00307698
0.00157282
0.0011394
0.00126076
0.00138322
0.0016286
0.00145619
0.00120279
0.00131691
0.00125578
0.00254863
0.00441127
0.00564047
0.00669153
0.0065746
0.00570416
0.00468098
0.00444485
0.00454921
0.00461792
0.00467737
0.00473846
0.00478031
0.00475342
0.00432617
0.00267242
0.00159551
0.00141774
0.00152451
0.00178667
0.00189824
0.00191738
0.00189059
0.00163898
0.00271068
0.00430475
0.00273757
0.0014936
0.0016138
0.0016021
0.00282588
0.00282155
0.00276082
0.00429579
0.00454222
0.00453069
0.00425687
0.00406381
0.00240575
0.00273011
0.0027392
0.00275376
0.00279891
0.00141386
0.00154109
0.001589
0.00171043
0.00149613
0.00190076
0.000491835
0.000681632
0.000791756
0.000860925
0.000927526
0.000909874
0.0017406
0.00176587
0.00168526
0.00164087
0.00208291
0.00223535
0.00228476
0.00210455
0.00194204
0.00206717
0.00207164
0.00195221
0.0018493
0.00191756
0.00191896
0.00183897
0.00156415
0.00146566
0.00160906
0.00159173
0.00157895
0.0028354
0.0028305
0.00267881
0.00440176
0.00433088
0.00485103
0.00481971
0.00481426
0.00479484
0.00484646
0.00487316
0.00489329
0.00491703
0.00490753
0.00486013
0.00676191
0.00478074
0.00417177
0.00241246
0.00232379
0.00164117
0.00143833
0.00169369
0.00181147
0.00196387
0.00191943
0.0020235
0.00202111
0.0021446
0.00199052
0.00176746
0.00270717
0.00289209
0.00282476
0.00288067
0.00281295
0.00279645
0.00277584
0.00273631
0.0026887
0.00160093
0.00157039
0.00183894
0.00193036
0.00207419
0.00209299
0.00213841
0.00202803
0.00178361
0.00172654
0.00198839
0.00196158
0.00199973
0.00188538
0.00187759
0.00167271
0.00171507
0.00345864
0.00638421
0.00328585
0.00364976
0.00330667
0.00376072
0.00329405
0.00284095
0.00290757
0.00256109
0.00267154
0.00280219
0.00285286
0.00299829
0.00353424
0.00340282
0.002987
0.00290037
0.00284326
0.0026809
0.00241304
0.00252777
0.00255057
0.00260529
0.00289554
0.00332092
0.00372248
0.00452204
0.00438805
0.00384496
0.00351496
0.00368538
0.00374996
0.00471959
0.00440865
0.00438317
0.00462432
0.00457912
0.00434587
0.00411814
0.00397505
0.0034132
0.00346945
0.00397064
0.00384199
0.00395907
0.00388945
0.00404312
0.00411565
0.00395035
0.0036718
0.00385956
0.00385179
0.0042774
0.00416045
0.00385932
0.00353133
0.00377411
0.0037283
0.00430654
0.00405438
0.00379231
0.00349069
0.00334367
0.00379447
0.0037254
0.00422407
0.0043461
0.00434794
0.00379075
0.00370305
0.00440339
0.00423659
0.00409194
0.00426185
0.00352971
0.00363083
0.00447226
0.0045658
0.00433133
0.00361627
0.00367207
0.00314894
0.00370255
0.00460794
0.00435131
0.00356662
0.00295991
0.00414119
0.00435793
0.00460953
0.00435671
0.00474546
0.00511276
0.00416789
0.0045347
0.00592496
0.00452475
0.00525051
0.00536668
0.00539809
0.00540063
0.00542118
0.00544773
0.00573846
0.00558027
0.00354949
0.0042449
0.00412398
0.00344962
0.00293411
0.00323121
0.00347968
0.00352958
0.00361891
0.00375663
0.00369204
0.00356892
0.00522463
0.00596412
0.00609295
0.00621459
0.00611386
0.00596496
0.0056188
0.0051945
0.00431287
0.00321646
0.00200731
0.00204588
0.00217986
0.00215847
0.001872
0.00141244
0.000928258
0.00137821
0.00142564
0.00134324
0.001225
0.00108211
0.00112071
0.00204226
0.00398322
0.00544813
0.00600585
0.0064595
0.00694509
0.00742178
0.00778764
0.00805211
0.00822855
0.00833414
0.00835275
0.00818377
0.00742821
0.00709737
0.0066887
0.00635488
0.00589587
0.00554228
0.00626307
0.00688031
0.00726199
0.00769096
0.00788966
0.00780638
0.00678294
0.00657563
0.00756217
0.00931677
0.00791591
0.00994722
0.011705
0.00911181
0.00819463
0.00819251
0.00915707
0.00933514
0.00900162
0.0084815
0.00788488
0.00713259
0.00750287
0.00784039
0.00816689
0.00846679
0.00930621
0.00945883
0.00939233
0.00925247
0.00906111
0.00877903
0.00833336
0.00772289
0.00704865
0.0063907
0.00562499
0.00402888
0.00189942
0.00214602
0.00210638
0.002269
0.00220916
0.001019
0.00112466
0.00113947
0.00114768
0.00108432
0.00123387
0.00178553
0.00290708
0.0020911
0.00171978
0.00118614
0.001394
0.00232938
0.00396041
0.00447552
0.00456141
0.00461479
0.00583631
0.00682251
0.00726976
0.00760595
0.0078579
0.00775673
0.00749773
0.00703996
0.00647094
0.00625768
0.00591082
0.00560535
0.00544116
0.00527196
0.00494807
0.00388481
0.00372622
0.00388353
0.00383682
0.00367318
0.00392529
0.00406764
0.00406464
0.00411021
0.00415013
0.00427316
0.00441793
0.00454402
0.00461044
0.00463542
0.00464366
0.0046537
0.00466171
0.00467637
0.00466086
0.00455904
0.00400331
0.00250302
0.00146084
0.00135025
0.00148045
0.00156549
0.00160179
0.00142236
0.000915558
0.00142268
0.00184161
0.00188891
0.00207299
0.00213906
0.00226885
0.00252734
0.00292032
0.00301327
0.00267375
0.00253214
0.0024779
0.00241514
0.0020634
0.00257237
0.00283944
0.00283426
0.00280782
0.00303507
0.00373513
0.00358774
0.00316342
0.00312773
0.00309589
0.00279824
0.0027561
0.0030124
0.00304586
0.00316006
0.00370586
0.0044446
0.00412287
0.0037548
0.00359922
0.00332344
0.00292508
0.00264391
0.00325578
0.00267329
0.00140399
0.00119054
0.00118802
0.00119185
0.00114944
0.00136304
0.00143447
0.00145424
0.00135402
0.0015028
0.00167316
0.00162098
0.00183141
0.0018067
0.00161672
0.00160095
0.00173412
0.00183231
0.00188128
0.00192935
0.00316184
0.00326372
0.00252842
0.00366156
0.00421872
0.00419083
0.00444563
0.00365584
0.00327694
0.0038902
0.00449785
0.00516332
0.00407877
0.00385692
0.00394808
0.00181045
0.000952653
0.00134407
0.00166907
0.00186087
0.00180608
0.00170686
0.00144391
0.0025649
0.00263386
0.00418456
0.00469455
0.00475587
0.00472554
0.00472592
0.00513709
0.00589898
0.00677191
0.00705332
0.00695596
0.0066427
0.00605738
0.0054741
0.00544476
0.00526245
0.00512813
0.00509058
0.00442397
0.00390171
0.00417938
0.0041118
0.00425124
0.00431665
0.00436428
0.00441283
0.00449353
0.0045909
0.00467982
0.00474071
0.00478143
0.00481562
0.00485034
0.00488504
0.00492245
0.00494269
0.00489597
0.00442488
0.00265284
0.00158097
0.00144174
0.00153833
0.00180815
0.00190395
0.00204629
0.00181662
0.000956488
0.00112524
0.00195498
0.00216867
0.00200674
0.001878
0.00184445
0.00154503
0.00280078
0.00276491
0.00434321
0.00488525
0.00495382
0.00494006
0.0049017
0.00485794
0.00481444
0.00477854
0.00474955
0.00471899
0.00467644
0.00462527
0.00457777
0.00452921
0.00444685
0.00433033
0.00419588
0.0043629
0.00451663
0.00471338
0.00492179
0.00502218
0.00493001
0.00479604
0.00474172
0.00477571
0.00481922
0.00486344
0.00490316
0.00492351
0.00486825
0.00458733
0.00430237
0.00272325
0.00275909
0.00135609
0.00150618
0.00173798
0.00179504
0.0019492
0.00193933
0.00152375
0.00118782
0.00134056
0.00125344
0.00224025
0.00246394
0.00273333
0.00270657
0.00146874
0.00150669
0.00156579
0.00176566
0.00164132
0.00158688
0.00393091
0.00376351
0.0039372
0.00483035
0.00416125
0.00287169
0.00314532
0.00437676
0.00461688
0.00278997
0.00209278
0.00232046
0.00293952
0.00432792
0.00438253
0.00416473
0.00414095
0.00302149
0.00371463
0.00447237
0.00435083
0.00338908
0.00233503
0.00173952
0.000844358
0.00160599
0.00137289
0.00336889
0.00372907
0.00368645
0.00403132
0.00428297
0.00432663
0.00420432
0.00372716
0.00380199
0.00383985
0.00437637
0.00439627
0.00371968
0.0031378
0.00254683
0.00257011
0.00262032
0.00290385
0.0036358
0.00342565
0.00300244
0.00291115
0.002848
0.00267846
0.00241676
0.00211968
0.0021345
0.00198675
0.00192272
0.00303106
0.00403487
0.00475804
0.00489467
0.00494401
0.00486793
0.0048333
0.00469494
0.0046234
0.00401663
0.00512997
0.00542177
0.00523174
0.00527049
0.00530353
0.00534422
0.00534536
0.00524515
0.00450695
0.0026913
0.00175783
0.00198419
0.00214161
0.00201083
0.0019996
0.00213145
0.00202262
0.00177662
0.00287844
0.00281354
0.00449903
0.00509538
0.00520419
0.00521017
0.00518915
0.00517182
0.0051786
0.00545107
0.00532693
0.00539787
0.00568258
0.00569222
0.0057629
0.00541167
0.00534352
0.00530001
0.00527087
0.00522309
0.00509499
0.0045088
0.00437136
0.00496412
0.00511685
0.00518438
0.00523092
0.00528641
0.00535927
0.00557073
0.00572719
0.00578701
0.00555643
0.00547159
0.00534478
0.00516402
0.00512094
0.00511219
0.00510788
0.00508318
0.00495157
0.00435854
0.00280233
0.00287145
0.00170818
0.00171923
0.0019802
0.00207973
0.00204248
0.00189141
0.00184405
0.00318125
0.00362085
0.00384993
0.00414954
0.00396402
0.00394157
0.00450437
0.00435893
0.00388357
0.00404235
0.00362645
0.00345333
0.0033442
0.00336411
0.00176312
0.00190257
0.00198462
0.0019518
0.00186634
0.0016647
0.00152657
0.0027861
0.00276579
0.00273023
0.00162315
0.00158753
0.00187033
0.00181629
0.00166148
0.00141625
0.00155268
0.00239831
0.00268237
0.0041598
0.00430868
0.0046111
0.00493098
0.00505226
0.00508548
0.00510601
0.00512888
0.00517777
0.00523511
0.00525098
0.00524768
0.00528611
0.00527679
0.00527862
0.00525175
0.0052207
0.0051842
0.00514492
0.00507974
0.00494475
0.0046207
0.00430274
0.00485106
0.00489571
0.00498667
0.00508049
0.00511999
0.00512556
0.00510616
0.00506821
0.00502331
0.00497195
0.00497122
0.00512037
0.00515645
0.00518227
0.00516661
0.00514804
0.00514132
0.00511765
0.00508026
0.00498615
0.00489195
0.00485232
0.00477151
0.00489872
0.00495496
0.00496305
0.00501094
0.005088
0.00511095
0.0051113
0.00507414
0.0050425
0.00500098
0.00493277
0.00484233
0.004543
0.0046033
0.00468284
0.00478712
0.00488779
0.00496936
0.00501569
0.00502
0.00497486
0.00494452
0.00494602
0.00490435
0.0049259
0.0049479
0.00492209
0.00491815
0.00492045
0.00486255
0.00475867
0.00461477
0.00446309
0.00433864
0.00427688
0.004175
0.00451127
0.00464395
0.0047617
0.00486546
0.00495819
0.00505031
0.00507709
0.00506527
0.00500844
0.00497618
0.00497506
0.00492744
0.00492482
0.00497077
0.00497238
0.00499908
0.00504729
0.00503529
0.00496937
0.00479537
0.00462539
0.00447675
0.00433362
0.00418073
0.00414808
0.0042163
0.00415617
0.00421036
0.00435534
0.00453941
0.00469961
0.00480363
0.00483773
0.00486936
0.00491481
0.00491072
0.00488361
0.00486799
0.00480665
0.00475286
0.00468727
0.00454637
0.00436859
0.00421357
0.00416714
0.00425354
0.0043365
0.00425741
0.0039502
0.00410917
0.00426128
0.00441119
0.00462231
0.00486447
0.00496795
0.00500476
0.00498026
0.00496127
0.00495893
0.00491542
0.0048997
0.00493984
0.0049431
0.00496249
0.00499359
0.00496515
0.00488154
0.00458565
0.00422986
0.0040581
0.00395549
0.00382091
0.00427846
0.00436827
0.00426184
0.00418967
0.0043021
0.00443146
0.00456598
0.00465615
0.00469315
0.00474549
0.0048141
0.00484773
0.00479928
0.00474223
0.00467247
0.00463654
0.00463633
0.00461527
0.00452958
0.00442676
0.00430528
0.00444952
0.0045331
0.00445131
0.00402953
0.00409651
0.00420164
0.00426401
0.00459853
0.00488529
0.00494897
0.00494846
0.00491642
0.00489574
0.00489604
0.00487062
0.00482256
0.00481402
0.00481038
0.00486839
0.00494486
0.00499229
0.00501772
0.00480444
0.00440472
0.00433266
0.0041451
0.00406002
0.00451116
0.00456225
0.00445822
0.00436181
0.00457439
0.00466404
0.00468746
0.0046668
0.00461665
0.00458437
0.00464397
0.00473803
0.00466716
0.00436322
0.0040937
0.00423247
0.00426768
0.00425863
0.00420183
0.00410474
0.00389249
0.00434691
0.00478894
0.00482403
0.00435111
0.00435862
0.00422685
0.00393968
0.00432801
0.00452921
0.00457114
0.00454875
0.00447507
0.00430296
0.00454442
0.0047574
0.00471632
0.00426944
0.002771
0.00280898
0.00282881
0.00283108
0.00279422
0.00278393
0.00274354
0.00272264
0.00265974
0.0025956
0.00253462
0.00270336
0.00284846
0.00304332
0.00305971
0.00314038
0.00300573
0.00284521
0.00265718
0.00206907
0.0026255
0.00313233
0.00332881
0.00358061
0.00363225
0.00418774
0.00440476
0.00452042
0.00443113
0.00355462
0.0030149
0.00240907
0.00156669
0.000976172
0.00114569
0.0011915
0.00125041
0.00152787
0.00282097
0.00143727
0.00199075
0.00155665
0.00267518
0.00141695
0.000887418
0.000587358
0.000746142
0.000883201
0.000890472
0.000855185
0.000714023
0.000563033
0.000575597
0.000538246
0.000572128
0.000516674
0.00059215
0.00055383
0.000773542
0.00116255
0.00131889
0.00134803
0.00108951
0.00122858
0.00102647
0.00118382
0.0010571
0.00115205
0.00110513
0.0013515
0.00148114
0.00141809
0.00142211
0.00124444
0.000870347
0.00100886
0.000792501
0.000951517
0.000727917
0.000939955
0.000805886
0.0010471
0.00107934
0.00107617
0.00103613
0.000791545
0.000938416
0.000738693
0.000904051
0.000739789
0.000785616
0.000653526
0.000945966
0.000963096
0.00088802
0.000943458
0.00105812
0.00113492
0.00125282
0.00118977
0.001359
0.00131668
0.00134034
0.00126955
0.00123459
0.00120645
0.00120896
0.00118915
0.00119574
0.00123436
0.00123633
0.00124129
0.00128075
0.00126217
0.00123201
0.00121391
0.00107846
0.000870186
0.0015158
0.00156317
0.00158614
0.00158566
0.00154956
0.00153235
0.00147945
0.00146539
0.00141933
0.00139228
0.00133062
0.00127994
0.00122222
0.00137412
0.000768915
0.000873034
0.000921692
0.000949033
0.000968146
0.000976928
0.000984088
0.00097863
0.000966537
0.000942614
0.000934395
0.000908335
0.00116221
0.00132189
0.00138159
0.00139738
0.00130967
0.00124695
0.00272551
0.00329847
0.005017
0.00512817
0.00384951
0.00383838
0.00132914
0.00140159
0.000958058
0.00134629
0.00138801
0.00137374
0.00129763
0.000935854
0.00140451
0.000978195
0.00131826
0.000986639
0.00122157
0.001001
0.00141848
0.0018067
0.00174247
0.00157798
0.00107281
0.0008925
0.000889576
0.000762316
0.000836628
0.000693552
0.000854397
0.000724434
0.00107991
0.00153943
0.00170294
0.00173714
0.00136973
0.00188971
0.00142083
0.00205662
0.00163243
0.00201245
0.00161507
0.00186936
0.00231296
0.00232316
0.0022679
0.00182769
0.00146488
0.00164425
0.00145659
0.00167757
0.00242356
0.00158811
0.00240838
0.000995058
0.00135616
0.00139755
0.00137809
0.0012991
0.000874999
0.00222879
0.00117821
0.00209957
0.00135842
0.00218316
0.00157937
0.00208463
0.00249226
0.00260286
0.00259095
0.00211576
0.00190353
0.00196079
0.00156472
0.00187782
0.00140532
0.00204329
0.00116626
0.00151824
0.00168176
0.00177081
0.00177841
0.00146235
0.00288698
0.00181243
0.00273549
0.00190176
0.00243612
0.0019528
0.00213653
0.00252299
0.00250727
0.00248623
0.00210822
0.0017054
0.00225098
0.0016059
0.0477751
0.110433
0.0439447
0.111627
0.0505726
0.0717773
0.070724
0.0708621
0.0711152
0.0534079
0.116447
0.137573
0.143492
0.145264
0.144197
0.233021
0.190005
0.285479
0.185049
0.108841
0.0471567
0.0650388
0.167968
0.277454
0.416342
0.528286
0.36001
0.37262
0.23778
0.234405
0.220643
0.178452
0.109326
0.0548348
0.00940676
0.0102796
0.0147116
0.019585
0.015435
0.00946753
0.00187375
0.00193422
0.00197867
0.00200706
0.00200171
0.00196106
0.00199401
0.00188466
0.0017739
0.00198563
0.00216475
0.00231087
0.00272636
0.00301324
0.0027168
0.00297686
0.00315395
0.00329848
0.00341842
0.00359708
0.00379811
0.00397413
0.00398346
0.00365026
0.00311162
0.0025304
0.00212545
0.00201319
0.00189032
0.00166697
0.00152483
0.0014272
0.00138052
0.00136142
0.00139938
0.00152971
0.00164303
0.00168283
0.00165008
0.00161976
0.00159336
0.00141884
0.00165906
0.00227575
0.00229281
0.0039283
0.00452639
0.00462066
0.00462735
0.0041009
0.00261943
0.00262527
0.00263878
0.00268934
0.00270008
0.00270775
0.00270519
0.00269667
0.00268112
0.00265246
0.0026378
0.00259486
0.00255854
0.00246708
0.00247108
0.00250214
0.00252696
0.00248508
0.00249472
0.00244304
0.00319518
0.00426407
0.00479864
0.00501372
0.00519915
0.0050459
0.00699693
0.00599168
0.00420594
0.00413397
0.00408281
0.00484305
0.00487544
0.00440158
0.00442016
0.00403629
0.00252096
0.00251663
0.00251837
0.00269544
0.00274901
0.00284085
0.00286653
0.00288762
0.00290098
0.00289319
0.00289083
0.00286345
0.00284376
0.00277844
0.00275682
0.00274748
0.00151474
0.00165339
0.00171575
0.00172769
0.00175384
0.00174371
0.00173427
0.0017136
0.00170077
0.00167235
0.00164004
0.00159077
0.00149495
0.00136138
0.0014978
0.00254002
0.00253872
0.00413528
0.00466366
0.00469784
0.00523183
0.00496632
0.00470376
0.00504561
0.00454725
0.00451039
0.00408557
0.00253805
0.00257266
0.00152794
0.00151522
0.00177253
0.00172424
0.00184305
0.00189394
0.0018992
0.00192525
0.00194953
0.00198031
0.00203028
0.00204441
0.002011
0.00200425
0.00188723
0.00163053
0.00164966
0.00194521
0.00204108
0.00189599
0.00186419
0.00185048
0.00180524
0.00177104
0.00173851
0.00176133
0.00189672
0.00189401
0.00185974
0.00176927
0.00172214
0.00149191
0.00144055
0.00251739
0.00255748
0.00422802
0.00431791
0.00428704
0.00494633
0.00552782
0.00628527
0.00536674
0.00436192
0.00454384
0.00519985
0.00387399
0.00324792
0.001932
0.00144766
0.00181369
0.00166545
0.00173705
0.00179984
0.0015985
0.0017183
0.0015888
0.00144388
0.00143572
0.00143409
0.00146928
0.00148421
0.00151105
0.00151473
0.0015515
0.00154792
0.00155182
0.00157065
0.00157793
0.00174335
0.00189369
0.00159435
0.0013519
0.00131798
0.00124467
0.00118536
0.00121438
0.00118509
0.00117779
0.00115616
0.00113649
0.00108454
0.00113011
0.00119924
0.001403
0.00134259
0.00108512
0.000969512
0.000662563
0.000676026
0.000680697
0.000701562
0.00070928
0.000718731
0.000722281
0.000734038
0.000736347
0.000740089
0.000739812
0.000757884
0.000755298
0.000746544
0.000740945
0.00074446
0.000747782
0.0007472
0.00109421
0.00121828
0.00133012
0.00157956
0.0018582
0.00159989
0.00135641
0.00116958
0.00075182
0.000763053
0.00077697
0.000784154
0.000800849
0.000816034
0.000832965
0.000843617
0.0008516
0.000859932
0.000868742
0.000872215
0.000870051
0.000853207
0.00084331
0.000864697
0.000950475
0.00100032
0.00106434
0.00108851
0.00110903
0.00111912
0.00111412
0.00112592
0.00111295
0.00111122
0.00109255
0.00108465
0.0010772
0.00106767
0.00105575
0.00102602
0.00101617
0.00106909
0.0018106
0.00236796
0.00272485
0.00299963
0.00277746
0.00225781
0.00236738
0.00416252
0.00394325
0.00232395
0.00217121
0.00200568
0.00175522
0.00153033
0.0018494
0.00211003
0.00230695
0.00247946
0.00263744
0.00274497
0.00288364
0.00306464
0.00338377
0.00342368
0.00312279
0.00252961
0.0021397
0.00199691
0.00192881
0.00181122
0.00168274
0.00172519
0.00173777
0.00168625
0.0016223
0.00160445
0.00163129
0.00166598
0.00164622
0.00164558
0.0014702
0.0014696
0.00251129
0.0025572
0.00393381
0.00414519
0.00418583
0.00269058
0.00265397
0.00155021
0.00143984
0.00157076
0.00163072
0.00163425
0.00164114
0.00163306
0.0016048
0.00158406
0.00155983
0.00154004
0.00152233
0.00149189
0.00143375
0.00132431
0.00144269
0.00161764
0.00168991
0.00170902
0.00171836
0.00174561
0.00179014
0.00182567
0.0019081
0.00191615
0.0019152
0.0019218
0.0017961
0.0018521
0.00156747
0.001565
0.00271252
0.00270477
0.00155385
0.00183474
0.00184757
0.00182668
0.00196683
0.00179988
0.00174296
0.00173408
0.00166085
0.00162183
0.00156957
0.00153826
0.00156792
0.00166739
0.00161385
0.00143022
0.00137714
0.00154566
0.00148796
0.00123456
0.00105489
0.00102605
0.000982305
0.000955775
0.00100192
0.00103797
0.00105854
0.00108458
0.00109229
0.00113995
0.00110901
0.0011635
0.00123385
0.00128987
0.00152988
0.0016581
0.00149793
0.00146927
0.00145108
0.00144985
0.00145451
0.00139471
0.00139076
0.00135977
0.00134445
0.0013038
0.00128542
0.00126203
0.00126603
0.00127915
0.00140613
0.00361829
0.00461433
0.00480556
0.00821444
0.00331634
0.00338706
0.00664794
0.00274719
0.00413089
0.00442639
0.00462618
0.00483096
0.00442133
0.00562603
0.00392367
0.00437228
0.00455129
0.0039742
0.00149983
0.0017263
0.0019812
0.00176042
0.00155436
0.00105867
0.00114036
0.0011771
0.00120712
0.00122637
0.0012481
0.00127127
0.00129306
0.00130828
0.00130833
0.00126829
0.00122521
0.00112632
0.00109338
0.00113567
0.00117938
0.00103537
0.000974725
0.000986154
0.00100225
0.00101126
0.0010131
0.00102291
0.00102549
0.00104103
0.00103259
0.00104036
0.00102247
0.00103138
0.00101812
0.000983569
0.00093482
0.000852132
0.000831985
0.00119839
0.00127615
0.00134045
0.00152153
0.00175717
0.00187524
0.00168106
0.00155079
0.00148865
0.0016513
0.00165303
0.00300682
0.00577012
0.00258317
0.00289167
0.00842858
0.00335282
0.00260501
0.00264402
0.00267169
0.00267567
0.00155473
0.00184121
0.00178514
0.001793
0.00152097
0.00127715
0.00114554
0.00102422
0.000694695
0.000692445
0.000697668
0.000708427
0.000711778
0.000681356
0.000681276
0.000677388
0.000675867
0.000661492
0.000657474
0.000645764
0.000638645
0.000621798
0.00061267
0.000596707
0.000594106
0.000622744
0.000695024
0.000840707
0.000932224
0.00106165
0.00107992
0.00120915
0.00298661
0.00346341
0.00477411
0.00473885
0.00747465
0.00467009
0.0035272
0.00318379
0.00465939
0.0048147
0.00446094
0.00604153
0.00418023
0.00277343
0.0042353
0.00353536
0.00411168
0.00405733
0.00431322
0.00685311
0.00720452
0.00202479
0.00180432
0.00189715
0.00215277
0.00255652
0.00235794
0.00268442
0.00268957
0.00208246
0.00131265
0.00417821
0.00504086
0.00407588
0.00491619
0.00753807
0.00302524
0.00294965
0.00260949
0.00217807
0.00197938
0.00195348
0.00217848
0.0026068
0.00651949
0.00697676
0.0064781
0.00647339
0.00586733
0.00640555
0.00798236
0.0079361
0.0070206
0.00656912
0.00682068
0.00426808
0.00261652
0.00304302
0.00337626
0.00450565
0.00464601
0.00981683
0.0033329
0.00368013
0.0037371
0.00499531
0.00483899
0.0085484
0.00362848
0.0039112
0.0051521
0.0068889
0.012694
0.0046397
0.00488208
0.00701894
0.00712568
0.00651276
0.00470803
0.00426129
0.00464106
0.00349693
0.00341902
0.00291612
0.00430323
0.00579264
0.00458617
0.00445284
0.00378565
0.00337997
0.00345208
0.00358449
0.00297809
0.00293554
0.00338543
0.00252151
0.00244376
0.00257345
0.000716419
0.000367069
0.000375165
0.00038491
0.000392846
0.000401037
0.000407012
0.000414113
0.000417292
0.000417654
0.000418747
0.000442758
0.000438607
0.000424739
0.000385683
0.000440055
0.000698314
0.000698726
0.000439496
0.000387439
0.000695217
0.00110764
0.00130579
0.0015445
0.00156343
0.00134916
0.00116984
0.000720194
0.000708862
0.000429657
0.000501808
0.000544948
0.000483386
0.000539511
0.000500077
0.000529634
0.000535242
0.000495342
0.000492541
0.000494429
0.000490667
0.000481913
0.000471252
0.000458286
0.000448214
0.000442983
0.000439257
0.000430589
0.000356467
0.000332827
0.000402042
0.000643224
0.000643679
0.000602382
0.000566295
0.000535189
0.000520567
0.000516115
0.000512989
0.000521898
0.000538748
0.00054352
0.000548351
0.000590738
0.000572111
0.000611056
0.000573533
0.000612708
0.000575037
0.00052899
0.000444166
0.000458242
0.000739268
0.000747136
0.00120695
0.00138046
0.00156515
0.00157297
0.00175585
0.00184934
0.00156643
0.00162623
0.00186331
0.00173518
0.00154652
0.00155277
0.0013967
0.00139831
0.00123897
0.00077443
0.000763939
0.000479763
0.000465957
0.000555609
0.000545922
0.000607144
0.000649824
0.000650026
0.000647928
0.000631895
0.000626062
0.00055062
0.000539762
0.000540499
0.000524231
0.00052103
0.000544237
0.000595742
0.000700796
0.000848087
0.000922621
0.000953222
0.00091341
0.000817197
0.000605141
0.000545323
0.000946805
0.000980504
0.00177001
0.00420305
0.0019764
0.00371488
0.00268011
0.000664637
0.000740646
0.000944405
0.00105818
0.00114288
0.00119257
0.00109149
0.000911729
0.000686499
0.000566646
0.000843578
0.000729341
0.000822629
0.000718305
0.000929603
0.00107468
0.00103949
0.00104714
0.000884796
0.0007206
0.000763167
0.000684952
0.000754966
0.000632101
0.00076051
0.000686505
0.000862634
0.000870705
0.000852555
0.000808074
0.000615249
0.000645529
0.000541516
0.000587474
0.000527513
0.000545236
0.000516661
0.000602463
0.000694243
0.000666312
0.000663724
0.000545367
0.000427391
0.000472092
0.000408352
0.00046222
0.000359329
0.000435275
0.000364969
0.000472547
0.000487346
0.000490436
0.000488153
0.000397951
0.000467976
0.000571871
0.000599583
0.000604108
0.00057518
0.000443399
0.000686094
0.000618928
0.000755539
0.000653297
0.000715204
0.000651209
0.000758968
0.00097203
0.00101491
0.00102166
0.000828949
0.000823893
0.00150383
0.0834622
0.00135273
0.00159893
0.00164886
0.00164295
0.00135827
0.00132502
0.00164132
0.00121395
0.00171942
0.00108267
0.00183424
0.000699313
0.0010631
0.00114142