/*--------------------------------*- C++ -*----------------------------------*\
| =========                 |                                                 |
| \\      /  F ield         | OpenFOAM: The Open Source CFD Toolbox           |
|  \\    /   O peration     | Version:  v2012                                 |
|   \\  /    A nd           | Website:  www.openfoam.com                      |
|    \\/     M anipulation  |                                                 |
\*---------------------------------------------------------------------------*/
FoamFile
{
    version     2.0;
    format      ascii;
    class       volScalarField;
    location    "360";
    object      alphat;
}
// * * * * * * * * * * * * * * * * * * * * * * * * * * * * * * * * * * * * * //

dimensions      [1 -1 -1 0 0 0 0];


internalField   nonuniform List<scalar> 
18258
(
0.00483396
0.00210536
0.00172436
0.00149366
0.000990626
0.00162004
0.00225026
0.00267911
0.00281118
0.00278814
0.00288779
0.00487438
0.0068418
0.00845739
0.00888616
0.00887406
0.00805837
0.0076957
0.00836633
0.0102788
0.0086295
0.00553046
0.00661733
0.00765992
0.00835726
0.00740825
0.0059907
0.00554364
0.00501855
0.0041842
0.00351318
0.00241502
0.0017508
0.00162178
0.00147185
0.00167893
0.00182973
0.00195222
0.00199568
0.00202727
0.00201358
0.00200206
0.00194769
0.00191248
0.00185271
0.00152717
0.00182372
0.00193154
0.00211103
0.00290246
0.00311168
0.00261483
0.00289171
0.00257755
0.00169715
0.00194387
0.00211027
0.00215544
0.00212719
0.00203841
0.00200825
0.00198272
0.00195051
0.00191239
0.00188912
0.00190795
0.0019277
0.0019068
0.00181314
0.00173731
0.00161461
0.00149159
0.00140043
0.00132981
0.00127656
0.00121735
0.00115082
0.00101086
0.000936868
0.00124044
0.00155726
0.00166395
0.00235851
0.00287564
0.00289542
0.00216744
0.00154464
0.00160314
0.00178207
0.00179971
0.00152481
0.00181248
0.00205277
0.00212756
0.00221706
0.00247828
0.00282235
0.00275146
0.00245064
0.00225888
0.0022031
0.00252968
0.00240711
0.00312196
0.00314232
0.00273435
0.0025368
0.00285384
0.003681
0.00395838
0.00307458
0.00288832
0.00283149
0.00279464
0.00252801
0.0026173
0.00237747
0.00214222
0.00233423
0.0028203
0.00267479
0.00292097
0.00302733
0.00284037
0.0032914
0.00379532
0.0037406
0.00299323
0.00244095
0.00227532
0.00229253
0.00140209
0.00151408
0.00163114
0.00167111
0.00169924
0.00172308
0.00183704
0.00183288
0.00180581
0.00180182
0.00183283
0.00101031
0.00109468
0.00112198
0.00112985
0.00107334
0.00106224
0.00104236
0.00102623
0.000967882
0.000926123
0.00110808
0.0012442
0.00135513
0.00148486
0.00167818
0.00191473
0.00216343
0.00241485
0.00258125
0.00262883
0.00267679
0.0025803
0.00248274
0.00257154
0.00258658
0.00256995
0.00253553
0.00249206
0.00243343
0.00232594
0.00245155
0.00244506
0.00229697
0.00196804
0.00201243
0.00200916
0.00206148
0.0020505
0.00207077
0.00204071
0.00200523
0.00190786
0.00177154
0.00147353
0.00145038
0.00146658
0.00188078
0.00228149
0.00352201
0.00429217
0.00497743
0.00532165
0.00568921
0.00460944
0.00513333
0.00396167
0.00355537
0.00451684
0.00590569
0.00337026
0.00184322
0.00349671
0.00310546
0.00225769
0.00201043
0.00207298
0.00206848
0.00236227
0.00272645
0.00303326
0.00318228
0.00331208
0.00341642
0.00353048
0.00367478
0.003714
0.00358755
0.00303518
0.00366181
0.0029773
0.00347951
0.00314995
0.00213622
0.00217978
0.00233467
0.00214587
0.0020905
0.00199573
0.00180465
0.00224997
0.00290263
0.00336741
0.00385044
0.00513601
0.0047518
0.00455642
0.00352735
0.00341117
0.00176979
0.00252348
0.00262084
0.00295431
0.00196289
0.00179303
0.0017038
0.00224774
0.00260598
0.00307589
0.00341462
0.00405594
0.00314947
0.00359841
0.00325875
0.00227637
0.00218449
0.00312359
0.0033628
0.00276434
0.0024648
0.00309497
0.0029318
0.00208168
0.0016492
0.00253705
0.00262189
0.00188825
0.00471791
0.00506103
0.00483332
0.00588693
0.00736133
0.00838657
0.00782496
0.0069351
0.00772909
0.00613432
0.00595758
0.00636419
0.00533883
0.00371518
0.00380725
0.00393484
0.00403981
0.00433655
0.00460655
0.00493668
0.00525067
0.00477246
0.0039621
0.00299826
0.00206235
0.00203377
0.00202323
0.00181679
0.00269256
0.00407483
0.00404843
0.00230098
0.00134076
0.00151568
0.00171124
0.00169438
0.00122987
0.00092547
0.00159417
0.00182307
0.0018527
0.00180683
0.00170605
0.00178285
0.0028632
0.00441108
0.00484707
0.00502045
0.00518453
0.00530048
0.00536509
0.00538567
0.00539718
0.00541122
0.00542353
0.0054422
0.00542532
0.0053097
0.00467018
0.00293602
0.00171595
0.00159374
0.00175889
0.00189026
0.00200485
0.00170574
0.00104316
0.00166602
0.00213342
0.0024525
0.00247358
0.00230866
0.00223967
0.00353177
0.004696
0.00553558
0.00570593
0.00578206
0.00571912
0.00571155
0.00558776
0.00555013
0.00486821
0.00347893
0.00380299
0.00408311
0.00412938
0.0042244
0.00436726
0.0042662
0.00403167
0.00588897
0.00679764
0.00688481
0.00703073
0.00694722
0.00682753
0.00651803
0.00616418
0.00518943
0.00389173
0.00245571
0.00250699
0.00266878
0.00264316
0.00230073
0.00242397
0.00263088
0.00265729
0.00274439
0.00307786
0.00349603
0.00333523
0.00287071
0.00243786
0.00226983
0.00222164
0.0021311
0.00159558
0.00161991
0.00157518
0.00160144
0.00215176
0.00256099
0.00295352
0.00418851
0.00373621
0.00303837
0.00481802
0.00493785
0.00530575
0.00586183
0.00600696
0.00665589
0.00463041
0.00417286
0.00428633
0.00350125
0.00324076
0.00327519
0.0032875
0.00306392
0.00335353
0.00332404
0.00320383
0.00353712
0.00389782
0.00513973
0.00622788
0.00657103
0.00676944
0.00685124
0.00682698
0.00669622
0.00674019
0.00592257
0.0059208
0.00566965
0.00550702
0.00544969
0.00518109
0.00592565
0.00615107
0.00622609
0.00638111
0.00662275
0.00644114
0.00624183
0.00608988
0.00597977
0.00586468
0.00592583
0.00603561
0.00615279
0.0063172
0.00653644
0.0065715
0.00634438
0.00617253
0.00605491
0.0059444
0.00594822
0.00604664
0.00616139
0.00632421
0.006532
0.00641577
0.00625424
0.0061103
0.00599226
0.00588832
0.00568197
0.00581868
0.00596906
0.00609287
0.00617292
0.00533351
0.00570137
0.00560359
0.00507362
0.00474891
0.00360632
0.00390279
0.00411546
0.00448244
0.00497531
0.00507189
0.00425589
0.00364713
0.00355379
0.0035251
0.00360817
0.00363807
0.00365588
0.00413102
0.00622485
0.00626816
0.00628686
0.0062902
0.00537889
0.00522589
0.00486731
0.00890206
0.00828877
0.0071812
0.00591995
0.0031714
0.00271831
0.00322001
0.00391608
0.00437852
0.00483269
0.00320796
0.00198734
0.0023163
0.00240176
0.00234318
0.00216569
0.00180363
0.00166495
0.00151122
0.00162647
0.0028805
0.00459645
0.00517745
0.00523253
0.00518085
0.0050804
0.0049584
0.00478839
0.00471885
0.00593425
0.00801357
0.00907876
0.00904577
0.00777083
0.00632871
0.00356452
0.00182992
0.00133672
0.00145562
0.00159926
0.00188076
0.00167657
0.00140159
0.00153568
0.00145884
0.00295765
0.00511033
0.00652575
0.00774055
0.00760715
0.00660126
0.00541271
0.00513879
0.00525987
0.00533974
0.00540868
0.00547946
0.00552803
0.00549725
0.00500368
0.0030915
0.00184535
0.00163947
0.00176292
0.00206611
0.00219556
0.00221795
0.00218705
0.00189582
0.00313502
0.00497917
0.00316621
0.00172758
0.00186673
0.00185316
0.00326928
0.00326423
0.0031935
0.00496879
0.00525397
0.00524145
0.00492442
0.00470084
0.00278295
0.00315842
0.00316907
0.003186
0.00323848
0.00163554
0.00178278
0.00183827
0.00197876
0.00173219
0.00219861
0.000568974
0.000788496
0.000916008
0.000995802
0.00107276
0.00105232
0.00201261
0.00204188
0.00194915
0.00189858
0.00240985
0.00258599
0.00264313
0.00243449
0.00224646
0.00239153
0.00239672
0.0022586
0.00213946
0.00221841
0.00221992
0.00212709
0.00180919
0.00169531
0.00186136
0.00184137
0.00182663
0.00328102
0.00327524
0.00309939
0.0050932
0.00501114
0.00561288
0.0055759
0.0055687
0.00554572
0.00560526
0.00563685
0.00566107
0.00568916
0.00567818
0.00562345
0.00784086
0.00553031
0.00482572
0.00279048
0.00268785
0.00189807
0.00166337
0.00195861
0.00209478
0.00227099
0.00221958
0.00234006
0.00233731
0.00248007
0.00230207
0.00204423
0.00313118
0.00334522
0.0032674
0.0033322
0.00325391
0.00323493
0.00321101
0.00316523
0.00311011
0.00185158
0.00181614
0.00212666
0.00223234
0.00239864
0.00242047
0.00247295
0.00234551
0.00206296
0.00199698
0.00229969
0.00226874
0.00231268
0.0021805
0.00217164
0.0019348
0.00198377
0.00400259
0.00739685
0.00380205
0.00422355
0.00382553
0.00435147
0.00381094
0.00328621
0.00336326
0.00296213
0.00308981
0.00324113
0.0032997
0.00346792
0.00408767
0.00393556
0.0034547
0.00335447
0.00328841
0.00310048
0.00279072
0.00292363
0.00295007
0.00301336
0.00334886
0.00384214
0.00430735
0.00523489
0.00508001
0.00444998
0.00406834
0.00426696
0.00434018
0.00546444
0.00510545
0.00507502
0.00535298
0.0052996
0.00503046
0.00476691
0.00460139
0.00394971
0.00401466
0.00459585
0.00444704
0.00458299
0.00450285
0.00468065
0.00476543
0.0045744
0.0042512
0.00446735
0.00445749
0.00495109
0.00481583
0.00446672
0.00408793
0.00436779
0.0043139
0.00498456
0.0046929
0.00438915
0.00403924
0.00386834
0.00439072
0.00431091
0.00488931
0.00503011
0.00503234
0.00438631
0.00428478
0.00509717
0.00490443
0.00473619
0.00493328
0.00408458
0.00420184
0.00517738
0.0052859
0.00501419
0.004185
0.00424969
0.00364367
0.00428591
0.00533535
0.00503875
0.00412949
0.00342558
0.00479459
0.00504508
0.00533839
0.00504464
0.00549542
0.00592058
0.00482458
0.00524939
0.00686171
0.00523381
0.00607423
0.00620946
0.00624678
0.0062509
0.00627617
0.00630889
0.00664877
0.0064724
0.00411007
0.00491752
0.00477388
0.00399044
0.00339011
0.00373516
0.00402282
0.00408076
0.00418412
0.00434366
0.0042701
0.0041328
0.00604598
0.00689577
0.00705018
0.00719082
0.00707165
0.00689367
0.00648757
0.00598936
0.0049602
0.00369783
0.00230453
0.00234905
0.00250377
0.00247995
0.00215211
0.00162497
0.00106686
0.00158358
0.00163471
0.00153705
0.00139832
0.0012294
0.00126373
0.00232957
0.00481033
0.00637375
0.0069943
0.007506
0.00806689
0.00859519
0.0089947
0.00928566
0.0094856
0.00961089
0.00963614
0.00945033
0.00863658
0.00826453
0.00780164
0.00742193
0.00688376
0.0064358
0.00727403
0.00798126
0.00841365
0.00890124
0.00912411
0.009027
0.00783983
0.00762857
0.00879413
0.010824
0.00920984
0.0115675
0.0135818
0.0105935
0.00951065
0.00948578
0.0105896
0.0107919
0.0104148
0.00982642
0.00915235
0.0082984
0.00872979
0.00911618
0.00948325
0.0098218
0.0107225
0.0108905
0.0108115
0.0106406
0.0104191
0.0101138
0.00963182
0.00895547
0.00818435
0.0074373
0.00657834
0.0048269
0.00214496
0.00254594
0.00248972
0.00281619
0.002662
0.00117191
0.00126954
0.00128558
0.00129353
0.00122482
0.00138996
0.00201948
0.00328396
0.00236695
0.0019387
0.00134923
0.00159867
0.00267361
0.00455432
0.00514354
0.00522927
0.00530058
0.00704384
0.00794375
0.00842158
0.00879961
0.00903253
0.00891466
0.00863513
0.00813708
0.0075546
0.00730849
0.00691939
0.00655007
0.00634376
0.00612479
0.00575548
0.00455823
0.004314
0.00448882
0.00444462
0.00425721
0.00454372
0.00470441
0.00469768
0.00474754
0.00479143
0.00493156
0.00509705
0.0052413
0.00531708
0.00534541
0.00535474
0.00536645
0.00537604
0.00539344
0.0053761
0.00525921
0.00461865
0.00288848
0.00168608
0.00155881
0.00170913
0.00180737
0.00184939
0.0016421
0.00105689
0.00164261
0.00212595
0.0021805
0.00239217
0.00246777
0.00261671
0.00291593
0.00337012
0.00347797
0.00308666
0.00292413
0.00286119
0.00278817
0.00237806
0.00296311
0.00327736
0.00327217
0.00324201
0.00350381
0.00431195
0.00414214
0.00365205
0.00361017
0.00357269
0.00322166
0.00317073
0.00347504
0.00351433
0.00364765
0.00427868
0.00513211
0.00476065
0.00433437
0.00415175
0.00383198
0.00336359
0.00303991
0.00377471
0.00310949
0.00159665
0.0013533
0.00136425
0.00136226
0.00130606
0.00154514
0.00162389
0.00164588
0.00153706
0.0017085
0.00190372
0.00184613
0.00209908
0.00206556
0.00184047
0.00181933
0.0019839
0.0021084
0.00216964
0.00221703
0.00362614
0.0037289
0.00289803
0.00420489
0.00484941
0.00486191
0.0051536
0.00422464
0.00377357
0.00448244
0.00520412
0.00600977
0.00473235
0.00446199
0.00458323
0.00208955
0.00109919
0.00155149
0.00192575
0.00214276
0.00207706
0.00196256
0.0016597
0.00295108
0.00302934
0.00480829
0.00539301
0.00545829
0.00541471
0.00548491
0.00606512
0.00709979
0.00790002
0.00812882
0.00800578
0.00766881
0.0070462
0.006444
0.00638441
0.00616376
0.00598609
0.00592877
0.00517271
0.00453533
0.00481894
0.00475683
0.00491403
0.00498593
0.00503727
0.00509
0.00517989
0.00528887
0.00538793
0.00545607
0.00550191
0.00554106
0.0055814
0.00562213
0.00566617
0.00569044
0.00563767
0.00509653
0.00305808
0.00182326
0.00166328
0.0017747
0.00208586
0.00219621
0.00236044
0.00209599
0.00110388
0.00129788
0.00225577
0.00250127
0.00231407
0.00216567
0.00212725
0.00178192
0.00322796
0.00318616
0.00500017
0.00562169
0.00569843
0.00568056
0.00563447
0.00558264
0.00553371
0.00549384
0.00546265
0.00543029
0.00538463
0.00533139
0.00527794
0.00522182
0.00512856
0.00499174
0.00487615
0.00509107
0.00520984
0.00542808
0.00570036
0.00584643
0.00573774
0.00555599
0.00545985
0.00548435
0.00553394
0.00558641
0.00563401
0.00565895
0.00559851
0.00527864
0.00495462
0.00313733
0.00317847
0.00156366
0.00173699
0.00200431
0.00206998
0.00224851
0.00223824
0.00175961
0.00137066
0.00154607
0.00144553
0.00258334
0.00284046
0.00314996
0.0031187
0.0016934
0.00173667
0.0018048
0.00203602
0.00189239
0.00182941
0.00452678
0.00433011
0.00453054
0.00556341
0.00479085
0.00330751
0.00362692
0.00504609
0.00532242
0.00321822
0.00241241
0.00267785
0.00339188
0.00499196
0.00505487
0.00480277
0.00477515
0.00348674
0.00428429
0.00515434
0.00501464
0.00391048
0.00269484
0.00200666
0.000974487
0.00185375
0.0015854
0.00388533
0.00429989
0.00425008
0.00464903
0.00493801
0.0049887
0.00484872
0.0042985
0.00438392
0.00442734
0.00504562
0.00506954
0.00428945
0.0036199
0.00293865
0.00296519
0.00302311
0.00335106
0.0041967
0.00395348
0.0034646
0.00335921
0.0032864
0.00309122
0.00278928
0.0024468
0.00246385
0.00229348
0.0022198
0.00349967
0.00465916
0.00549505
0.00565365
0.00571136
0.00562392
0.00558408
0.00542412
0.00534111
0.00463982
0.00592215
0.00625883
0.00604034
0.00608577
0.00612433
0.00617143
0.00617267
0.00605664
0.00520351
0.00310717
0.00202947
0.00229069
0.00247233
0.00232142
0.00230851
0.00246061
0.00233501
0.00205108
0.00332319
0.00324792
0.00519341
0.00588212
0.00600759
0.00601415
0.0059895
0.00596883
0.00597612
0.00629092
0.00615049
0.00624605
0.00659095
0.0065995
0.00667746
0.00626825
0.00618737
0.0061353
0.00610022
0.00604381
0.00589466
0.00521567
0.00505697
0.00574358
0.00592136
0.00600068
0.00605587
0.00612153
0.00620723
0.00645335
0.00663689
0.00670747
0.00642374
0.00631447
0.0061656
0.00595645
0.00590718
0.00589782
0.00589343
0.00586544
0.00571421
0.00503009
0.00323447
0.00331462
0.0019718
0.00198468
0.00228594
0.00240084
0.00235792
0.00218354
0.00212892
0.00366392
0.00417184
0.00443592
0.00478055
0.00456677
0.00453928
0.00518887
0.0050218
0.0044775
0.00465876
0.00417599
0.0039788
0.00385162
0.00387335
0.00203535
0.00219632
0.00229097
0.00225306
0.00215431
0.00192149
0.00176196
0.00321547
0.00319197
0.00315066
0.00187352
0.00183247
0.00215896
0.00209663
0.00191797
0.00163489
0.00179228
0.00276733
0.00309524
0.00479853
0.00497041
0.00532039
0.00568861
0.00582752
0.00586515
0.00588818
0.00591381
0.00597002
0.00603685
0.00605753
0.00606021
0.00612023
0.00611028
0.00611239
0.00608142
0.00604501
0.00600191
0.0059554
0.00587885
0.00572158
0.00534577
0.00497762
0.00561218
0.00566441
0.00577054
0.00588001
0.00592666
0.00593374
0.00591157
0.00586742
0.00581462
0.00575435
0.00575071
0.00590876
0.0059476
0.00597492
0.00595538
0.00593356
0.00592631
0.00589978
0.00585757
0.00575026
0.00564264
0.00559672
0.00550347
0.00564938
0.005714
0.00572304
0.00577727
0.00586477
0.0058904
0.00589036
0.00584748
0.00581229
0.00576636
0.00568964
0.00558669
0.00525358
0.00532807
0.00542022
0.00554136
0.00565823
0.00575258
0.00580587
0.00581017
0.0057573
0.00572138
0.00572241
0.00567353
0.0056988
0.00572509
0.00569609
0.00569239
0.00569565
0.00562878
0.00550894
0.00534285
0.00516796
0.00502572
0.00495753
0.00484033
0.00520787
0.00535898
0.00549158
0.00560794
0.00571298
0.00581928
0.00585047
0.0058376
0.00577329
0.00573695
0.00573614
0.00568168
0.00567793
0.0057304
0.00573193
0.0057625
0.00581803
0.00580446
0.00572947
0.00552878
0.00533478
0.00516636
0.00500443
0.00483003
0.00481755
0.00489653
0.00482082
0.0048784
0.00504441
0.00525659
0.00544135
0.0055615
0.00560027
0.00563589
0.00568744
0.00568167
0.00565083
0.00563404
0.00556431
0.00550323
0.00542823
0.00526576
0.00506068
0.00488281
0.00483294
0.00493638
0.00503424
0.00494197
0.00456669
0.00474828
0.00491974
0.00508827
0.00532969
0.00560968
0.00572845
0.00576982
0.00574114
0.00571896
0.00571633
0.00566659
0.00564827
0.00569419
0.00569806
0.00572121
0.00575843
0.00572654
0.00563121
0.00528788
0.00487901
0.00468437
0.00456972
0.00441415
0.00496604
0.00507111
0.00494547
0.00486021
0.00498905
0.00513678
0.00529126
0.00539435
0.00543539
0.00549453
0.00557251
0.00560991
0.00555442
0.00549004
0.0054108
0.00537078
0.00537289
0.00534928
0.00525075
0.00513338
0.00499321
0.00516134
0.00526188
0.00516617
0.00465405
0.00472995
0.00484439
0.00490677
0.00529331
0.00563062
0.00570612
0.00570503
0.00566775
0.00564335
0.00564374
0.00561485
0.00555979
0.00554918
0.00554421
0.00561092
0.00569868
0.00575011
0.00577578
0.00552292
0.00506599
0.004999
0.00478753
0.00469162
0.00523585
0.00529609
0.00516996
0.00505682
0.00530162
0.00540443
0.00543169
0.00540797
0.00534872
0.00530934
0.00537683
0.00548401
0.0054023
0.00505201
0.00474098
0.00490256
0.00494351
0.00493262
0.0048668
0.00475526
0.00451178
0.00504086
0.00555983
0.00559919
0.00502812
0.00503635
0.00488404
0.00453719
0.00497719
0.00521082
0.00526126
0.00523854
0.00515582
0.00495893
0.00523868
0.00548536
0.00543924
0.00492269
0.00319425
0.00323839
0.00326135
0.00326467
0.00322322
0.00321212
0.00316665
0.00314363
0.00307266
0.00300086
0.00293151
0.00312576
0.00329042
0.00351389
0.00353336
0.00362645
0.00347816
0.00329686
0.00308187
0.00240461
0.0030501
0.00363688
0.00386143
0.00415142
0.00421103
0.00484538
0.00509253
0.00522516
0.00512453
0.00411118
0.00348769
0.00278759
0.00181304
0.00112989
0.00132673
0.00138049
0.0014569
0.00179076
0.0032916
0.00168466
0.00233222
0.00182144
0.0031361
0.00166436
0.00103733
0.000688159
0.000880923
0.00104992
0.00106208
0.0010161
0.000846276
0.000664163
0.000678747
0.000632259
0.00067152
0.000602823
0.000690164
0.000642356
0.000881763
0.00128024
0.00149743
0.001536
0.001244
0.00140782
0.00117656
0.00135969
0.00121569
0.00132592
0.00127231
0.00155625
0.00170546
0.00163192
0.00163539
0.00143092
0.00100064
0.00116014
0.000911481
0.00109481
0.000837843
0.00108121
0.000927315
0.00120498
0.00124209
0.00123841
0.00119224
0.000910718
0.00107956
0.000850367
0.00104934
0.000864345
0.000926906
0.000772439
0.00112484
0.00114692
0.00105657
0.00112837
0.00126811
0.00135771
0.00148741
0.0014006
0.00158961
0.00152949
0.0015424
0.00146142
0.0014216
0.00138952
0.00139283
0.00137006
0.00137741
0.00142152
0.00142312
0.00142821
0.00147241
0.00145089
0.00141491
0.00139277
0.00123771
0.000999833
0.00174201
0.00179646
0.00182485
0.00182559
0.00178654
0.00176488
0.00169992
0.00168332
0.00162807
0.00159799
0.00152493
0.0014676
0.00140025
0.00157521
0.000882366
0.00100213
0.00105786
0.00109012
0.00111145
0.00112162
0.00112882
0.00112208
0.0011075
0.0010809
0.00107274
0.00104342
0.00133388
0.0015173
0.0015876
0.00160709
0.00150625
0.00143512
0.0031536
0.00382143
0.0057941
0.00592206
0.00445385
0.00443709
0.0015303
0.00162012
0.00110647
0.00155482
0.00160354
0.00158723
0.00149913
0.00108126
0.00162306
0.00113237
0.00152222
0.00114771
0.0014098
0.00118129
0.00169361
0.00216491
0.00209474
0.0018997
0.00131364
0.00109517
0.00110398
0.000941128
0.0010316
0.0008383
0.00101992
0.000852617
0.00123896
0.00172032
0.00193898
0.00198081
0.00156354
0.00215916
0.00162418
0.00235507
0.00187486
0.00231734
0.00186206
0.00215235
0.00266359
0.00267601
0.00261235
0.0021053
0.00168443
0.00189163
0.0016748
0.0019303
0.00279437
0.00183083
0.00278763
0.00115029
0.00156851
0.00161746
0.00159588
0.00150519
0.00101405
0.00258064
0.00136618
0.00242371
0.00156929
0.00250659
0.00183184
0.00244329
0.0029227
0.00306444
0.00305781
0.00249613
0.00225808
0.00234933
0.0018762
0.00225383
0.00166917
0.00241721
0.00136055
0.00175973
0.00193222
0.00203774
0.00204293
0.00167441
0.00331347
0.00208309
0.00314497
0.00219064
0.00280872
0.0022519
0.0024601
0.00290639
0.00288757
0.00286233
0.00242682
0.00196573
0.00259592
0.00184903
0.0557903
0.128389
0.0513032
0.129856
0.058691
0.0833656
0.082131
0.0822904
0.0826172
0.0620694
0.135431
0.159906
0.166687
0.16869
0.167432
0.270523
0.220624
0.331345
0.214713
0.126582
0.055053
0.0757675
0.195115
0.321914
0.483202
0.613187
0.417936
0.432684
0.276116
0.272292
0.256471
0.207603
0.127432
0.0639653
0.0109092
0.011911
0.0170549
0.0227221
0.0177938
0.0108348
0.00214465
0.00221202
0.00226056
0.00228994
0.00227963
0.00222781
0.0022588
0.00212776
0.00199404
0.00222406
0.00242635
0.00272172
0.00317439
0.00349775
0.00314919
0.00344875
0.00365388
0.00382079
0.00395871
0.0041647
0.00439692
0.00460125
0.00461184
0.00422522
0.00360082
0.00292852
0.00246092
0.00233127
0.00218911
0.00193046
0.00176588
0.00165313
0.00159893
0.00157657
0.00162028
0.00177082
0.00190149
0.0019473
0.00190905
0.00187411
0.00184364
0.00164173
0.00191953
0.00263311
0.00265385
0.00454685
0.0052395
0.00534867
0.00535635
0.0047483
0.00303343
0.00304034
0.00305605
0.00311494
0.00312736
0.00313629
0.00313325
0.00312318
0.00310515
0.00307195
0.00305508
0.00300587
0.0029641
0.00285955
0.00286425
0.00290259
0.00293205
0.00288415
0.00289655
0.00283433
0.00367627
0.00491592
0.00555101
0.00580204
0.00601806
0.00584159
0.00809091
0.00691737
0.00486688
0.00479925
0.00473747
0.00562444
0.00566172
0.00509188
0.00511082
0.00467318
0.00291262
0.00289896
0.00290056
0.00310177
0.00316202
0.00326909
0.00329842
0.00332394
0.0033394
0.00333191
0.00332944
0.00329914
0.00327676
0.00320232
0.00317751
0.00316725
0.00174645
0.00190604
0.0019772
0.00199074
0.00202013
0.00200877
0.00199798
0.00197435
0.00195878
0.00192638
0.00188871
0.00183311
0.00172333
0.00157046
0.00172985
0.00293825
0.00293881
0.00480448
0.00539815
0.00543739
0.0060798
0.00577011
0.00546582
0.00587192
0.00527917
0.00523376
0.00474347
0.00294467
0.00298398
0.0017704
0.00175215
0.00204804
0.00198955
0.00212663
0.00218414
0.00219011
0.00221954
0.00224851
0.00228376
0.0023392
0.00235471
0.00231688
0.0023094
0.00217582
0.00188052
0.00190311
0.00224305
0.00235199
0.00218472
0.0021476
0.00213248
0.00208251
0.00204342
0.00200547
0.00203253
0.0021894
0.00218855
0.00215115
0.0020487
0.00199742
0.00173397
0.00167856
0.00292584
0.00294905
0.00482969
0.00498885
0.00497604
0.00573203
0.00638566
0.00726125
0.00619424
0.00502016
0.00513479
0.00586219
0.00433891
0.00359225
0.0021312
0.00164938
0.00198497
0.00193462
0.00201243
0.00208511
0.00185095
0.00198588
0.00183495
0.00166699
0.00165726
0.00165488
0.00169584
0.00171286
0.00174359
0.00174759
0.00178811
0.00178373
0.0017879
0.00180955
0.00181826
0.00200883
0.00218244
0.00183708
0.00155794
0.00151866
0.00143428
0.00136611
0.00139985
0.00136759
0.00135946
0.0013348
0.00131241
0.00125244
0.00130562
0.00138577
0.00162155
0.00155354
0.0012554
0.00112134
0.000766608
0.000780929
0.00078632
0.000810544
0.000819298
0.000830076
0.000834042
0.000847501
0.000850057
0.000854244
0.000853864
0.000873896
0.00087079
0.00086054
0.000854033
0.00085826
0.000862117
0.000861362
0.00126112
0.00140397
0.00153266
0.00181998
0.00214167
0.00184333
0.00156268
0.00134814
0.000866834
0.000879955
0.000895916
0.00090424
0.000923236
0.0009407
0.000960007
0.000972292
0.000981401
0.000991111
0.00100126
0.00100551
0.00100307
0.000984008
0.000972676
0.000997839
0.00109678
0.00115431
0.00122786
0.00125576
0.00128018
0.00129279
0.00128626
0.00129937
0.00128367
0.00128141
0.00125889
0.00124921
0.0012397
0.00122805
0.00121369
0.00117884
0.00116708
0.00122822
0.00207652
0.00271422
0.00312689
0.00344451
0.00316529
0.00254966
0.0027018
0.00473281
0.00446648
0.00265477
0.00246937
0.0022672
0.00196374
0.00177174
0.0021449
0.00244285
0.00266952
0.00287022
0.00305368
0.00317809
0.00333805
0.00354687
0.00391641
0.0039626
0.00361423
0.00292813
0.00247784
0.00231339
0.0022347
0.00209835
0.00194944
0.00199843
0.00201296
0.00195316
0.0018789
0.00185794
0.00188874
0.00192825
0.0019052
0.00190457
0.00170165
0.00170105
0.00290684
0.00296112
0.0045551
0.00479974
0.00484669
0.00311564
0.00307327
0.001795
0.00166731
0.00181901
0.00188858
0.00189268
0.00190066
0.00189139
0.00185852
0.00183458
0.00180646
0.00178371
0.00176351
0.00172861
0.00166201
0.00153544
0.00167334
0.00187566
0.00195862
0.0019801
0.00199046
0.00202175
0.00207344
0.00211449
0.00220993
0.00221911
0.00221796
0.00222559
0.00207988
0.00214465
0.00181493
0.00181208
0.00314101
0.00313208
0.00179929
0.00212464
0.00213943
0.00211529
0.0022777
0.00208426
0.0020184
0.00200828
0.00192357
0.0018785
0.00181799
0.00178208
0.00181702
0.0019331
0.00187193
0.00165953
0.00159969
0.00179392
0.0017255
0.00143138
0.00122277
0.00118908
0.0011382
0.00110732
0.00116063
0.00120234
0.00122609
0.00125617
0.00126503
0.00132016
0.00128423
0.00134725
0.00142873
0.00149357
0.00177146
0.00192
0.00173452
0.00170139
0.00168033
0.00167901
0.00168448
0.00161531
0.00161078
0.00157498
0.0015573
0.00151022
0.00148906
0.00146217
0.00146699
0.0014825
0.00162992
0.00420041
0.00535641
0.00557709
0.00953533
0.00384765
0.003929
0.00772675
0.0031833
0.00479382
0.00513872
0.00537123
0.00561074
0.0051339
0.00653174
0.00455172
0.00506956
0.00528689
0.0046383
0.0017319
0.001967
0.0022728
0.00203098
0.00179388
0.00122244
0.00131776
0.00136078
0.00139577
0.00141843
0.00144367
0.00147064
0.00149596
0.0015136
0.00151374
0.00146752
0.00141779
0.0013036
0.00126558
0.00131447
0.00136497
0.00119864
0.00112857
0.00114181
0.00116046
0.0011709
0.00117302
0.00118438
0.00118737
0.00120536
0.0011956
0.00120459
0.00118388
0.00119415
0.00117871
0.00113867
0.00108224
0.000986549
0.000963235
0.00138748
0.00147763
0.00155228
0.00176204
0.00203514
0.00217195
0.00194696
0.0017958
0.00172378
0.00191208
0.00191332
0.00348134
0.00668905
0.00299033
0.00334866
0.00977512
0.00388281
0.00301661
0.00306192
0.00309399
0.00309846
0.00180047
0.00213225
0.00206711
0.00207619
0.00176107
0.00147879
0.00132642
0.00118593
0.00080439
0.000801825
0.000807872
0.00082039
0.000824307
0.000789094
0.000789007
0.000784529
0.000782792
0.000766176
0.000761548
0.000748015
0.000739805
0.000720288
0.00070974
0.00069124
0.000688017
0.000718298
0.000799382
0.000966248
0.00107495
0.00122252
0.0012446
0.00139929
0.00347549
0.00402572
0.00555373
0.00550367
0.00867968
0.00542258
0.00409407
0.00369932
0.00541589
0.00559838
0.00520005
0.00704174
0.00487046
0.00322581
0.00486689
0.00405176
0.00479628
0.00470678
0.00499162
0.0079136
0.00831538
0.00233929
0.002085
0.00219312
0.00248854
0.00295512
0.00272219
0.00310068
0.00309963
0.00239372
0.00152324
0.0048557
0.00587449
0.00471558
0.00566309
0.00870939
0.00349927
0.00341263
0.0030192
0.00251978
0.00228989
0.00225944
0.00251971
0.00301544
0.00755475
0.0080804
0.00745955
0.00744428
0.00676281
0.0074306
0.00924713
0.00919795
0.00812818
0.00760262
0.00787939
0.0049061
0.00304229
0.00353624
0.00391978
0.00523141
0.00539422
0.0113766
0.00386766
0.0042682
0.0043331
0.00579542
0.00561863
0.00990685
0.00421106
0.00453507
0.00597771
0.00798378
0.0146863
0.00538073
0.00565584
0.00812888
0.00825387
0.0075479
0.00546496
0.00494904
0.00538639
0.00405833
0.00396894
0.00338749
0.00500079
0.00672132
0.00532554
0.00517051
0.00439359
0.00392399
0.00400692
0.00415896
0.00345574
0.00340768
0.00393112
0.00293268
0.002827
0.00299239
0.000829523
0.000425031
0.000434501
0.000445833
0.000455014
0.00046449
0.000471384
0.000479594
0.000483237
0.000483672
0.000484976
0.000512736
0.000507883
0.000491803
0.000446566
0.0005095
0.000808559
0.000809033
0.000508847
0.000448565
0.000804965
0.00128249
0.00151188
0.00178827
0.00181013
0.00156201
0.00135445
0.000833877
0.000820751
0.000497435
0.000580976
0.000630907
0.00055965
0.00062465
0.000579017
0.00061326
0.000619846
0.000573656
0.000570368
0.000572538
0.000568231
0.000558107
0.000545761
0.000530675
0.000518838
0.000512399
0.000507512
0.000496739
0.000412515
0.000384674
0.000463055
0.000738896
0.000737903
0.000691458
0.000651506
0.000617326
0.000601674
0.000597268
0.000593966
0.000604356
0.000623828
0.000629357
0.000635001
0.000684119
0.000662417
0.000707483
0.000664018
0.00070934
0.00066572
0.000612423
0.000514221
0.000530514
0.00085594
0.000865042
0.00139735
0.00159821
0.00181216
0.00182121
0.00203331
0.00214179
0.00181412
0.00188339
0.00215804
0.00200951
0.00179074
0.00179792
0.00161704
0.00161886
0.00143436
0.000896594
0.000884463
0.000555412
0.000539437
0.000643208
0.000632013
0.000702872
0.000752282
0.000752541
0.000750133
0.00073171
0.000725015
0.000637594
0.00062497
0.000625809
0.000606927
0.000602865
0.000628746
0.000686552
0.000806301
0.000975562
0.00106214
0.00109883
0.00105332
0.000942945
0.000696636
0.000628965
0.0010908
0.00113142
0.00203234
0.00483411
0.00225088
0.00428141
0.0030885
0.000767177
0.000855607
0.001091
0.00122241
0.00131988
0.00137623
0.00125828
0.00105006
0.000790457
0.000652875
0.000974356
0.000842518
0.000951182
0.000830596
0.00107494
0.00124279
0.0012022
0.00121116
0.00102349
0.000833656
0.00088285
0.000792487
0.000873452
0.000731311
0.00087984
0.000794345
0.000998162
0.00100753
0.000986554
0.000935112
0.000712
0.000747066
0.000626665
0.000679874
0.000610455
0.000631028
0.000597939
0.000697327
0.000803569
0.000771257
0.000768281
0.000631299
0.00049475
0.000546487
0.000472773
0.000535116
0.000416033
0.000503931
0.000422515
0.000547014
0.000563937
0.00056695
0.000563465
0.000458678
0.000539631
0.000660683
0.000693602
0.000699238
0.000665729
0.000513478
0.000794248
0.000716102
0.000874332
0.000755953
0.000827798
0.000753723
0.000878482
0.00112511
0.00117472
0.0011825
0.000959456
0.000953367
0.00174058
0.0965652
0.00156574
0.00185066
0.00190849
0.0019017
0.0015723
0.00153385
0.00190017
0.00140535
0.00199053
0.00125347
0.00212345
0.000809332
0.00123025
0.00132083
0.001318
0.00122489
0.000821712
0.00243011
0.119159
0.308045
0.334284
0.333716
0.320725
0.143787