/*--------------------------------*- C++ -*----------------------------------*\
| =========                 |                                                 |
| \\      /  F ield         | OpenFOAM: The Open Source CFD Toolbox           |
|  \\    /   O peration     | Version:  v2012                                 |
|   \\  /    A nd           | Website:  www.openfoam.com                      |
|    \\/     M anipulation  |                                                 |
\*---------------------------------------------------------------------------*/
FoamFile
{
    version     2.0;
    format      ascii;
    class       volScalarField;
    location    "360";
    object      nut;
}
// * * * * * * * * * * * * * * * * * * * * * * * * * * * * * * * * * * * * * //

dimensions      [0 2 -1 0 0 0 0];


internalField   nonuniform List<scalar> 
18258
(
0.00417958
0.00182078
0.00149139
0.00129185
0.000856697
0.0014009
0.00194588
0.0023164
0.00243042
0.00241022
0.00249611
0.00421322
0.00591369
0.00730948
0.00767938
0.00766815
0.00696248
0.00664924
0.00722817
0.00887872
0.00745242
0.00477695
0.00571485
0.00661511
0.00721675
0.00639735
0.00517425
0.00478799
0.00433447
0.00361374
0.00303435
0.00208706
0.00151356
0.00140207
0.0012725
0.00145149
0.00158178
0.00168759
0.00172509
0.00175236
0.00174049
0.00173052
0.00168354
0.00165313
0.00160152
0.00132023
0.00157639
0.00166879
0.00182363
0.00250721
0.00268763
0.00225816
0.00249659
0.00222591
0.00146643
0.00167932
0.00182307
0.00186209
0.0018378
0.00176122
0.00173528
0.00171333
0.00168561
0.00165277
0.00163277
0.00164913
0.00166628
0.00164828
0.00156741
0.00150188
0.00139586
0.00128953
0.00121073
0.00114967
0.00110362
0.00105242
0.00099489
0.000873885
0.000809908
0.00107233
0.0013462
0.00143838
0.00203874
0.00248571
0.00250269
0.00187358
0.00133536
0.00138598
0.00154068
0.00155594
0.00131837
0.00156676
0.0017744
0.00183898
0.00191629
0.00214208
0.00243957
0.00237844
0.00211844
0.00195269
0.00190453
0.00218709
0.0020812
0.00269898
0.00271656
0.00236374
0.0021928
0.00246683
0.00318167
0.00342115
0.00265725
0.00249623
0.00244714
0.00241539
0.00218508
0.00226223
0.00205494
0.00185162
0.0020175
0.00243739
0.00231172
0.00252451
0.00261633
0.00245471
0.00284441
0.00327983
0.00323266
0.00258682
0.00210986
0.00196672
0.00198156
0.00121192
0.00130869
0.0014097
0.00144424
0.00146855
0.00148916
0.00158765
0.00158407
0.0015607
0.00155725
0.00158412
0.00087321
0.000946111
0.000969688
0.000976487
0.000927635
0.000918044
0.000900861
0.000886921
0.00083658
0.000800508
0.00095779
0.00107545
0.00117132
0.00128344
0.00145048
0.00165481
0.00186957
0.0020866
0.00223016
0.00227114
0.00231243
0.0022291
0.00214481
0.00222147
0.00223446
0.00222015
0.00219047
0.00215295
0.00210229
0.0020094
0.00211769
0.00211202
0.00198412
0.00170037
0.00173862
0.00173578
0.00178095
0.00177149
0.001789
0.00176309
0.00173248
0.00164845
0.00153079
0.00127321
0.00125288
0.00126672
0.00162442
0.00197048
0.00304189
0.00370696
0.00429897
0.00459631
0.00491308
0.00398044
0.00443293
0.00342084
0.00306993
0.00390017
0.00509969
0.00291019
0.0015916
0.00301938
0.00268169
0.00194961
0.00173613
0.00179017
0.00178656
0.00204042
0.00235447
0.00261889
0.00274733
0.00285938
0.00294932
0.00304787
0.00317232
0.00320643
0.00309729
0.00262079
0.00316069
0.0025705
0.0030048
0.00272059
0.00184512
0.00188318
0.00201701
0.00185386
0.00180599
0.00172415
0.00155952
0.00194392
0.00250652
0.00290763
0.00332464
0.00443501
0.00410308
0.00393414
0.00304556
0.00294535
0.00152816
0.002179
0.00226307
0.00255103
0.00169497
0.00154842
0.00147152
0.00194111
0.00224982
0.00265511
0.0029472
0.00350052
0.002719
0.00310731
0.00281445
0.00196616
0.00188677
0.00269769
0.00290392
0.00238668
0.00212824
0.00267279
0.00253211
0.00179799
0.00142453
0.00219131
0.00226449
0.00163074
0.00407399
0.0043697
0.00417295
0.00508188
0.0063554
0.00723923
0.00675464
0.00598706
0.00667234
0.00529719
0.00514448
0.00549468
0.00461019
0.00320866
0.00328764
0.00339732
0.00348725
0.00374272
0.00397518
0.00425972
0.00453097
0.00411948
0.00342189
0.00259071
0.0017825
0.0017578
0.00174866
0.00157022
0.00232709
0.00352183
0.00349896
0.00198893
0.00115907
0.00131028
0.00147929
0.00146471
0.00106335
0.000800139
0.00137825
0.00157592
0.00160142
0.0015617
0.00147451
0.00154089
0.00247466
0.00381253
0.00418928
0.00433911
0.00448095
0.00458123
0.00463716
0.00465508
0.00466516
0.00467746
0.00468826
0.00470456
0.00469013
0.00459035
0.00403764
0.00253855
0.00148381
0.00137823
0.00152109
0.00163472
0.00173387
0.00147537
0.000902226
0.00144085
0.00184511
0.00212078
0.00213892
0.00199616
0.00193639
0.00305347
0.00405996
0.00478559
0.00493268
0.00499832
0.00494375
0.00493706
0.00482991
0.00479726
0.00420772
0.00300736
0.00328709
0.00352913
0.00356907
0.00365117
0.00377472
0.00368744
0.00348503
0.00509006
0.00587602
0.00595178
0.00607857
0.00600701
0.00590406
0.00563682
0.00533109
0.00448828
0.00336598
0.002124
0.00216847
0.00230858
0.00228653
0.00199053
0.00209679
0.00227564
0.00229844
0.00237368
0.00266193
0.00302333
0.00288418
0.00248244
0.0021082
0.00196291
0.0019212
0.00184289
0.00137977
0.00140084
0.00136217
0.0013849
0.00186074
0.00221472
0.00255404
0.00362202
0.00323086
0.00262751
0.00416596
0.00426957
0.00458759
0.00506835
0.00519385
0.00575475
0.00400376
0.00360821
0.00370652
0.00302799
0.0028028
0.00283269
0.00284338
0.00265019
0.00290074
0.00287513
0.00277108
0.00305932
0.00337095
0.00444482
0.00538551
0.00568192
0.00585311
0.00592335
0.00590185
0.00578833
0.00582597
0.00511881
0.00511707
0.00489984
0.00475925
0.00470969
0.00447763
0.00512146
0.00531625
0.00538115
0.00551523
0.00572426
0.00556759
0.00539513
0.00526369
0.00516846
0.00506899
0.00512205
0.00521697
0.00531833
0.00546059
0.00565036
0.00568107
0.00548443
0.00533567
0.00523389
0.0051383
0.00514181
0.00522699
0.00532634
0.00546733
0.00564732
0.00554717
0.00540715
0.00528246
0.00518022
0.00509023
0.00491204
0.00503039
0.00516061
0.00526792
0.00533751
0.00461194
0.00492966
0.00484486
0.00438646
0.00410558
0.00311787
0.00337426
0.0035582
0.00387556
0.00430191
0.00438563
0.00368043
0.00315406
0.00307352
0.00304875
0.00312076
0.00314657
0.00316181
0.0035726
0.00538286
0.00542024
0.00543646
0.00543938
0.00465142
0.00451905
0.00420883
0.0076967
0.00716665
0.00620956
0.0051191
0.0027427
0.00235097
0.00278466
0.00338648
0.00378648
0.00417892
0.00277413
0.00171869
0.00200329
0.00207736
0.00202686
0.00187348
0.0015606
0.0014406
0.00130752
0.00140707
0.0024916
0.00397552
0.00447784
0.00452533
0.00448051
0.00439354
0.004288
0.00414106
0.00408099
0.00513199
0.00692954
0.0078501
0.00782161
0.00671971
0.00547288
0.00308232
0.00158225
0.00115595
0.00125904
0.00138325
0.00162663
0.00145012
0.00121205
0.00132789
0.00126161
0.00255752
0.00441945
0.00564335
0.00669333
0.00657792
0.00570819
0.00468034
0.00444317
0.00454767
0.00461676
0.00467647
0.00473782
0.00477998
0.00475356
0.00432697
0.00267368
0.00159616
0.00141819
0.00152504
0.00178734
0.00189916
0.00191833
0.00189145
0.0016395
0.002711
0.00430537
0.00273786
0.001494
0.00161441
0.00160278
0.00282718
0.00282267
0.00276146
0.00429634
0.00454269
0.00453157
0.00425781
0.00406473
0.00240658
0.0027311
0.00274022
0.00275478
0.00280004
0.00141437
0.00154173
0.00158977
0.00171143
0.0014984
0.00190134
0.000492007
0.000682086
0.000792197
0.000861196
0.000927734
0.000910011
0.00174072
0.00176606
0.00168588
0.00164214
0.00208404
0.00223629
0.00228562
0.00210522
0.00194257
0.00206798
0.00207251
0.00195313
0.00185006
0.00191828
0.00191959
0.00183935
0.00156444
0.00146592
0.00160949
0.00159224
0.00157954
0.00283672
0.00283163
0.00267963
0.00440302
0.00433227
0.00485226
0.00482049
0.00481458
0.00479501
0.00484632
0.00487332
0.00489393
0.00491802
0.0049084
0.00486123
0.00677681
0.00478035
0.00417151
0.00241238
0.00232379
0.00164115
0.00143822
0.00169355
0.00181131
0.00196371
0.0019193
0.00202333
0.00202103
0.00214439
0.00199035
0.00176731
0.00270699
0.00289192
0.00282454
0.00288045
0.0028127
0.00279622
0.00277558
0.00273608
0.00268852
0.00160075
0.00157023
0.00183874
0.00193015
0.00207397
0.00209276
0.00213818
0.00202786
0.00178347
0.00172639
0.0019882
0.00196138
0.0019995
0.00188517
0.00187738
0.00167254
0.00171491
0.00345996
0.00639366
0.00328674
0.00365117
0.00330723
0.00376188
0.00329467
0.00284104
0.00290775
0.00256103
0.00267152
0.00280231
0.00285301
0.00299852
0.00353444
0.00340307
0.00298727
0.00290057
0.0028434
0.00268088
0.002413
0.00252795
0.00255087
0.00260563
0.00289577
0.00332224
0.00372446
0.00452629
0.00439242
0.00384778
0.00351782
0.00368957
0.00375286
0.00472475
0.00441444
0.0043881
0.00462832
0.00458209
0.0043493
0.00412139
0.00397823
0.00341486
0.00347086
0.0039731
0.00384462
0.0039622
0.00389298
0.00404675
0.00412018
0.00395499
0.00367562
0.0038626
0.00385408
0.00428073
0.00416371
0.00386198
0.0035344
0.00377647
0.00372995
0.00430969
0.00405744
0.00379482
0.00349244
0.00334476
0.00379639
0.00372735
0.00422729
0.00434909
0.00435104
0.00379259
0.00370478
0.004407
0.00424031
0.004095
0.00426545
0.00353178
0.0036331
0.00447638
0.00457024
0.00433543
0.00361862
0.00367451
0.00315055
0.00370586
0.00461303
0.00435671
0.00357068
0.00296208
0.00414556
0.00436196
0.00461542
0.00436141
0.00475088
0.00511813
0.00417094
0.00453798
0.00593135
0.00452457
0.00525073
0.00536738
0.00539942
0.00540277
0.00542443
0.00545252
0.00574608
0.00559344
0.0035521
0.00424974
0.00412558
0.00344854
0.00293039
0.00322822
0.00347677
0.00352679
0.0036161
0.00375404
0.00369053
0.00357211
0.00522476
0.0059597
0.0060936
0.00621608
0.00611393
0.00596076
0.00561018
0.00517985
0.00429008
0.00319833
0.00199329
0.00203193
0.00216592
0.00214543
0.00186202
0.00140592
0.000923071
0.00137031
0.00141454
0.00133
0.00120996
0.00106374
0.00109331
0.00201514
0.0041616
0.00551363
0.00604985
0.00649184
0.00697624
0.00743249
0.0077774
0.00802852
0.008201
0.00830903
0.00833067
0.00817002
0.00746677
0.0071451
0.00674482
0.0064165
0.00595104
0.00556381
0.00628738
0.00689809
0.00727117
0.00769189
0.00788365
0.0077987
0.00677226
0.00659007
0.00759676
0.00934928
0.0079531
0.00998795
0.0117295
0.00914954
0.0082144
0.00819303
0.00914814
0.00932457
0.00899981
0.00849218
0.0079103
0.00717282
0.00754602
0.00788029
0.00819785
0.00849072
0.00926905
0.00941436
0.00934623
0.00919878
0.00900768
0.00874419
0.00832802
0.0077438
0.00707759
0.0064322
0.00569002
0.00417572
0.00185554
0.00220245
0.00215384
0.00243628
0.00230299
0.00101402
0.00109846
0.00111232
0.00111919
0.00105972
0.00120255
0.00174703
0.00284059
0.00204752
0.00167709
0.00116719
0.00138288
0.00231248
0.00393883
0.00444823
0.00452219
0.00458379
0.00609158
0.00686936
0.00728208
0.00760852
0.00780953
0.0077074
0.00746565
0.00703519
0.00653175
0.00631891
0.0059824
0.00566294
0.00548427
0.00529483
0.0049756
0.00394046
0.00372888
0.00387971
0.00384136
0.00367966
0.00392701
0.00406583
0.00405997
0.00410302
0.00414094
0.00426205
0.00440511
0.00452984
0.00459541
0.00462001
0.0046282
0.00463846
0.0046469
0.0046621
0.00464726
0.00454638
0.00399281
0.00249727
0.00145788
0.00134794
0.00147796
0.00156295
0.00159933
0.0014202
0.000914023
0.00142048
0.00183853
0.0018855
0.00206848
0.00213383
0.00226265
0.00252143
0.00291427
0.00300766
0.00266952
0.00252907
0.00247474
0.00241166
0.00205712
0.00256308
0.0028347
0.00283016
0.00280394
0.00303023
0.00372865
0.00358225
0.00315856
0.00312251
0.00309015
0.00278676
0.0027426
0.00300551
0.00303944
0.00315455
0.00370015
0.00443763
0.00411669
0.0037482
0.00359056
0.00331405
0.00290928
0.00262936
0.00326524
0.00268994
0.00138125
0.0011709
0.00118041
0.00117868
0.00113007
0.00133691
0.00140503
0.00142404
0.00132992
0.00147825
0.00164716
0.00159733
0.00181594
0.00178703
0.00159235
0.00157409
0.00171646
0.00182413
0.00187707
0.00191798
0.00313666
0.00322552
0.0025068
0.00363715
0.00419472
0.00420555
0.00445774
0.0036542
0.00326407
0.0038772
0.00450132
0.00519813
0.00409322
0.00385943
0.0039642
0.0018074
0.000950724
0.00134198
0.00166576
0.00185347
0.00179664
0.00169758
0.00143557
0.00255224
0.00261978
0.00415781
0.0046632
0.00471945
0.00468161
0.00474235
0.00524432
0.00613924
0.00683099
0.00702852
0.00692197
0.00663059
0.00609243
0.00557189
0.00552024
0.00532928
0.00517542
0.00512557
0.00447194
0.00392042
0.00416497
0.00411094
0.00424676
0.0043089
0.00435329
0.0043989
0.00447662
0.00457087
0.00465653
0.00471549
0.00475519
0.00478913
0.00482411
0.00485944
0.00489763
0.00491874
0.00487326
0.00440566
0.00264376
0.00157645
0.00143814
0.00153453
0.0018036
0.00189902
0.00204108
0.00181269
0.00095457
0.00112281
0.00195096
0.00216285
0.00200089
0.00187257
0.00183937
0.00154075
0.0027906
0.00275458
0.00432264
0.00485971
0.00492586
0.00491025
0.00487028
0.00482536
0.00478297
0.00474841
0.00472136
0.00469332
0.00465378
0.00460773
0.00456152
0.00451308
0.00443267
0.00431445
0.00421582
0.00440195
0.00450445
0.0046928
0.00492797
0.005054
0.00495979
0.0048025
0.00471933
0.00474057
0.00478355
0.00482903
0.00487033
0.00489205
0.00484
0.00456369
0.00428389
0.00271259
0.00274806
0.00135215
0.00150195
0.00173314
0.00178995
0.00194424
0.00193545
0.00152168
0.00118521
0.00133692
0.00125
0.00223395
0.00245619
0.00272366
0.00269656
0.00146436
0.00150182
0.00156079
0.00176065
0.00163652
0.00158211
0.00391397
0.00374387
0.0039171
0.00480983
0.00414208
0.00285989
0.00313597
0.00436271
0.00460153
0.00278259
0.00208595
0.00231539
0.00293281
0.00431586
0.00437018
0.00415216
0.00412839
0.0030151
0.00370462
0.00445632
0.00433548
0.00338167
0.00233083
0.00173506
0.000842602
0.00160292
0.00137089
0.00335928
0.00371764
0.00367451
0.00401928
0.0042692
0.00431303
0.00419195
0.00371642
0.0037903
0.00382784
0.00436224
0.00438285
0.00370863
0.00312979
0.00254084
0.00256387
0.00261401
0.0028976
0.00362875
0.00341847
0.00299574
0.00290457
0.00284154
0.00267274
0.00241165
0.00211574
0.00213038
0.00198292
0.00191909
0.00302552
0.00402783
0.00475022
0.00488712
0.00493683
0.00486108
0.00482651
0.00468814
0.00461632
0.00401014
0.00511774
0.00540881
0.00522011
0.00525951
0.00529301
0.00533391
0.0053352
0.00523517
0.00449809
0.00268605
0.00175444
0.00198038
0.00213757
0.00200716
0.00199592
0.00212739
0.00201865
0.00177309
0.00287269
0.00280751
0.00448903
0.00508399
0.00519217
0.00519762
0.00517612
0.00515809
0.00516423
0.00543611
0.00531456
0.00539719
0.00569527
0.00570271
0.00577045
0.005417
0.00534729
0.00530249
0.00527236
0.00522383
0.00509517
0.00450857
0.00437111
0.00496431
0.00511773
0.00518608
0.00523359
0.00529016
0.00536405
0.00557657
0.0057349
0.00579589
0.00555063
0.00545613
0.00532765
0.00514703
0.00510459
0.00509666
0.00509304
0.00506906
0.0049386
0.00434759
0.00279571
0.00286507
0.00170445
0.00171564
0.00197618
0.00207566
0.00203864
0.00188796
0.00184076
0.00316787
0.00360684
0.00383528
0.00413307
0.0039482
0.00392456
0.00448616
0.00434168
0.00387151
0.00402819
0.00361076
0.00344031
0.00332985
0.00334853
0.00175981
0.00189888
0.0019806
0.00194769
0.00186228
0.00166092
0.00152301
0.00277922
0.00275894
0.00272331
0.00161951
0.00158412
0.00186642
0.00181266
0.0016583
0.0014135
0.00154949
0.00239221
0.00267549
0.00414775
0.00429597
0.00459828
0.00491624
0.00503606
0.00506839
0.00508812
0.00511011
0.00515856
0.0052162
0.00523397
0.00523638
0.0052883
0.00527968
0.0052817
0.0052551
0.0052238
0.00518673
0.00514672
0.00508075
0.00494506
0.00462051
0.00430248
0.00485077
0.00489567
0.00498715
0.00508155
0.00512167
0.00512762
0.00510829
0.00506997
0.00502417
0.0049719
0.00496878
0.0051053
0.00513879
0.00516249
0.00514573
0.005127
0.00512089
0.00509812
0.00506183
0.00496931
0.00487656
0.0048371
0.00475684
0.00488276
0.00493828
0.00494585
0.00499248
0.00506789
0.00508985
0.00508967
0.00505247
0.00502195
0.00498215
0.00491577
0.00482687
0.0045391
0.00460345
0.00468322
0.00478807
0.00488921
0.00497091
0.00501712
0.00502101
0.00497552
0.00494471
0.00494585
0.00490395
0.0049256
0.00494798
0.00492267
0.00491925
0.00492189
0.00486393
0.00476022
0.00461653
0.00446524
0.00434214
0.00428303
0.00418172
0.00449929
0.00462985
0.00474456
0.00484524
0.00493612
0.00502811
0.00505521
0.00504426
0.00498888
0.0049577
0.00495724
0.0049105
0.0049071
0.00495213
0.00495322
0.00497943
0.00502724
0.00501535
0.0049504
0.00477685
0.0046091
0.00446343
0.00432337
0.00417264
0.00416179
0.0042301
0.0041649
0.00421485
0.00435848
0.004542
0.00470182
0.00480582
0.0048395
0.00487048
0.00491528
0.00491063
0.00488381
0.00486898
0.00480849
0.00475551
0.00469053
0.00454996
0.00437256
0.00421869
0.0041754
0.00426456
0.00434886
0.00426907
0.0039448
0.00410177
0.00425013
0.00439596
0.00460471
0.00484678
0.00494956
0.00498547
0.00496086
0.00494188
0.00493983
0.00489715
0.00488118
0.00492058
0.00492372
0.00494354
0.00497555
0.00494784
0.00486532
0.00456846
0.00421499
0.00404659
0.00394729
0.00381279
0.00428969
0.00438057
0.00427229
0.00419888
0.00431044
0.00443829
0.00457194
0.00466117
0.00469679
0.00474806
0.00481566
0.00484828
0.00480019
0.00474428
0.00467562
0.0046409
0.0046426
0.00462208
0.0045368
0.0044352
0.00431384
0.00445883
0.00454521
0.00446238
0.00401976
0.0040854
0.00418467
0.00423884
0.00457306
0.00486475
0.00493015
0.00492934
0.00489728
0.00487635
0.00487687
0.00485217
0.00480448
0.00479507
0.00479061
0.00484813
0.00492385
0.00496817
0.00499021
0.00477149
0.00437638
0.0043182
0.00413503
0.00405211
0.00452241
0.0045747
0.00446633
0.00436892
0.00458076
0.00466975
0.00469339
0.00467296
0.00462183
0.0045879
0.00464637
0.00473923
0.00466852
0.00436562
0.00409673
0.00423631
0.00427165
0.00426218
0.00420522
0.00410869
0.00389801
0.00435479
0.00480243
0.00483606
0.00434259
0.00434979
0.00421882
0.00391951
0.00429998
0.00450206
0.00454578
0.00452626
0.00445488
0.00428484
0.00452671
0.00474008
0.00470016
0.00425362
0.00276003
0.00279816
0.00281799
0.00282084
0.00278502
0.00277541
0.00273613
0.00271622
0.00265494
0.00259291
0.00253305
0.00270091
0.00284319
0.00303629
0.00305314
0.00313357
0.0030055
0.00284892
0.00266318
0.00207826
0.0026361
0.00314311
0.00333714
0.00358778
0.0036394
0.00418733
0.00440074
0.00451526
0.00442831
0.00355279
0.00301403
0.00240906
0.00156684
0.00097647
0.00114661
0.0011931
0.00125916
0.00154733
0.00282554
0.00144774
0.00199887
0.00156242
0.00268036
0.001436
0.00089637
0.000594649
0.000761203
0.000907239
0.000917779
0.000878097
0.000731339
0.000574002
0.000586602
0.000546436
0.000580364
0.000520989
0.000596474
0.000555127
0.000762054
0.00110643
0.00129406
0.00132732
0.00107493
0.00121646
0.0010167
0.00117491
0.0010506
0.00114575
0.00109955
0.00134469
0.00147362
0.00141006
0.00141304
0.00123634
0.000864575
0.00100245
0.00078757
0.000946023
0.000723893
0.000934136
0.000801058
0.00104089
0.00107289
0.00106965
0.00102971
0.000786489
0.000932152
0.000734252
0.000906055
0.000746368
0.000800889
0.000667515
0.000971963
0.000991073
0.000913044
0.000974988
0.0010956
0.00117281
0.00128455
0.00120979
0.00137242
0.00132046
0.00133153
0.00126173
0.0012276
0.00120002
0.00120299
0.00118339
0.0011898
0.00122796
0.00122938
0.00123384
0.00127211
0.00125355
0.00122249
0.00120335
0.00106944
0.000863959
0.00150517
0.00155216
0.00157662
0.00157722
0.00154349
0.00152476
0.00146867
0.00145431
0.00140663
0.00138064
0.00131755
0.00126804
0.0012099
0.001361
0.000762385
0.000865827
0.000913955
0.000941814
0.000960235
0.000969025
0.000975262
0.000969466
0.000956893
0.000933941
0.000926908
0.000901605
0.00115251
0.00131092
0.00137167
0.00138848
0.00130132
0.00123982
0.00272412
0.00330084
0.00500392
0.00511439
0.00384692
0.00383258
0.00132197
0.00139934
0.000955426
0.00134256
0.00138454
0.00137033
0.00129413
0.000933236
0.0014009
0.00097731
0.00131388
0.000990749
0.0012177
0.00102029
0.00146249
0.00186953
0.00180923
0.00164101
0.0011349
0.00094636
0.000953984
0.000813307
0.000891487
0.000724455
0.000881412
0.000736795
0.0010707
0.00148667
0.00167551
0.00171153
0.00135087
0.00186547
0.00140336
0.00203472
0.00162006
0.00200204
0.00160882
0.00185918
0.00230078
0.0023115
0.00225648
0.00181847
0.00145495
0.00163415
0.00144673
0.00166764
0.00241281
0.00158067
0.00240666
0.000992929
0.0013539
0.00139598
0.00137714
0.00129861
0.000874498
0.00222518
0.00117779
0.00208936
0.00135292
0.00216167
0.00157976
0.00210624
0.00252019
0.00264322
0.00263836
0.00215432
0.00194968
0.00202849
0.00162022
0.00194626
0.0014415
0.0020876
0.00117517
0.00151985
0.00166877
0.00175989
0.00176446
0.00144626
0.0028617
0.00179913
0.00271603
0.00189199
0.00242537
0.00194484
0.00212426
0.00250961
0.00249328
0.00247141
0.00209532
0.00169705
0.00224129
0.00159634
0.0481798
0.110831
0.0443029
0.112083
0.050679
0.0719666
0.0708866
0.0710035
0.0712668
0.0535358
0.11676
0.137891
0.143776
0.145547
0.144494
0.233467
0.190436
0.286007
0.185355
0.109275
0.0475439
0.0654253
0.168451
0.277897
0.417076
0.529189
0.36069
0.373344
0.23824
0.23488
0.221181
0.179004
0.109858
0.0551573
0.00939948
0.0102568
0.0146894
0.019578
0.0153518
0.00935583
0.0018532
0.00191133
0.00195322
0.00197859
0.0019697
0.00192501
0.00195192
0.00183871
0.00172315
0.00192179
0.00209656
0.00235137
0.00274235
0.00302139
0.00272077
0.0029793
0.00315621
0.00330001
0.00341871
0.00359623
0.00379645
0.0039728
0.00398228
0.00364931
0.00311091
0.00253067
0.00212681
0.00201477
0.00189189
0.00166836
0.00152615
0.00142869
0.00138183
0.00136251
0.00140028
0.00153044
0.00164342
0.00168306
0.00165008
0.00161979
0.00159341
0.00141887
0.00165903
0.00227572
0.00229333
0.00392927
0.00452774
0.00462208
0.00462876
0.00410313
0.00262121
0.00262715
0.00264071
0.00269157
0.0027023
0.00270999
0.00270736
0.00269862
0.00268304
0.00265431
0.00263971
0.00259712
0.00256099
0.00247053
0.00247459
0.00250767
0.00253303
0.00249165
0.00250232
0.00244866
0.00317678
0.0042483
0.0047968
0.0050133
0.00519923
0.00504664
0.00699103
0.00597738
0.00420479
0.00414597
0.00409264
0.00485828
0.00488999
0.00439756
0.00441404
0.00403658
0.00251602
0.00250428
0.00250566
0.00267965
0.00273174
0.00282435
0.00284973
0.00287184
0.00288522
0.00287881
0.00287668
0.00285055
0.00283122
0.00276695
0.00274553
0.00273669
0.00150906
0.00164693
0.00170839
0.00172008
0.00174545
0.00173562
0.00172627
0.00170584
0.00169234
0.00166432
0.00163173
0.00158366
0.00148875
0.00135668
0.00149437
0.00253805
0.00253852
0.00414991
0.0046621
0.00469587
0.00525095
0.00498409
0.00472152
0.00507155
0.00455929
0.0045202
0.00409719
0.00254353
0.00257748
0.00152939
0.00151363
0.00176932
0.00171877
0.00183726
0.001887
0.0018922
0.00191767
0.00194273
0.00197321
0.00202115
0.00203457
0.0020019
0.00199545
0.00188005
0.00162493
0.00164447
0.00193817
0.00203228
0.00188774
0.00185564
0.00184255
0.00179935
0.00176555
0.00173273
0.00175607
0.00189156
0.00189078
0.00185849
0.0017699
0.00172562
0.00149793
0.00145009
0.00252724
0.00254741
0.00417199
0.00430896
0.00429792
0.00495158
0.00551722
0.00627419
0.00535185
0.00433696
0.00443596
0.00506505
0.0037494
0.00310369
0.00184174
0.00142499
0.0017151
0.00167141
0.00173871
0.00180146
0.0015992
0.00171575
0.00158539
0.00144028
0.0014319
0.00142984
0.00146525
0.00147996
0.00150653
0.00150999
0.00154503
0.00154124
0.00154487
0.00156357
0.00157113
0.00173578
0.00188581
0.00158742
0.00134621
0.00131225
0.00123934
0.00118042
0.00120957
0.00118168
0.00117465
0.00115333
0.00113398
0.00108215
0.00112809
0.00119733
0.00140102
0.00134229
0.00108471
0.000968891
0.000662393
0.000674752
0.000679408
0.000700345
0.00070791
0.000717225
0.000720651
0.000732288
0.000734498
0.000738117
0.000737789
0.00075511
0.000752428
0.000743572
0.000737952
0.000741617
0.000744956
0.000744304
0.00108973
0.00121317
0.00132439
0.00157266
0.0018506
0.00159285
0.00135034
0.00116494
0.000749047
0.000760387
0.000774182
0.000781374
0.000797798
0.000812892
0.000829584
0.000840204
0.000848081
0.000856478
0.000865251
0.000868926
0.000866821
0.000850353
0.000840563
0.000862312
0.000947807
0.00099752
0.00106107
0.00108519
0.00110629
0.00111719
0.00111156
0.00112289
0.00110934
0.0011074
0.00108795
0.00107959
0.00107139
0.00106134
0.00104893
0.00101882
0.00100868
0.00106152
0.00179464
0.00234578
0.00270239
0.00297693
0.0027357
0.00220361
0.00233509
0.00408997
0.00385962
0.00229433
0.00213399
0.00195915
0.00169682
0.00153103
0.00185332
0.0021107
0.00230648
0.00247979
0.00263816
0.00274553
0.00288363
0.00306399
0.00338318
0.00342319
0.00312257
0.0025302
0.00214136
0.00199929
0.00193126
0.00181341
0.00168472
0.00172704
0.00173958
0.00168788
0.0016237
0.00160558
0.00163223
0.00166643
0.00164655
0.00164593
0.00147051
0.00146998
0.00251194
0.00255873
0.00393617
0.00414756
0.00418813
0.00269225
0.00265564
0.00155113
0.00144076
0.00157182
0.00163193
0.00163546
0.00164234
0.00163433
0.00160591
0.00158522
0.0015609
0.00154122
0.00152373
0.00149355
0.00143596
0.00132661
0.00144575
0.0016206
0.00169232
0.00171091
0.0017199
0.00174695
0.00179164
0.00182712
0.00190962
0.00191755
0.00191657
0.00192317
0.00179726
0.00185327
0.00156837
0.00156592
0.00271417
0.00270644
0.00155488
0.00183601
0.00184877
0.00182792
0.00196823
0.00180107
0.00174415
0.00173539
0.00166217
0.00162321
0.00157091
0.00153986
0.00157003
0.0016703
0.00161741
0.00143383
0.00138216
0.00155005
0.00149097
0.00123688
0.00105664
0.00102753
0.000983564
0.000956882
0.00100294
0.00103898
0.0010595
0.0010855
0.00109317
0.00114082
0.00110977
0.00116424
0.00123465
0.00129069
0.00153083
0.00165916
0.00149888
0.00147024
0.00145204
0.00145089
0.00145562
0.00139583
0.00139191
0.00136096
0.00134569
0.00130499
0.00128671
0.00126347
0.00126764
0.00128103
0.00140842
0.0036294
0.00462824
0.00481896
0.00824022
0.00332443
0.00339463
0.00667697
0.00275023
0.00414188
0.00443999
0.00464098
0.00484789
0.00443578
0.0056442
0.00393263
0.00438013
0.004568
0.00400773
0.00149656
0.00169993
0.00196473
0.00175569
0.00155072
0.00105669
0.00113905
0.00117619
0.00120641
0.00122597
0.00124779
0.00127109
0.00129296
0.00130821
0.00130833
0.0012684
0.00122541
0.00112673
0.00109386
0.00113611
0.00117975
0.00103601
0.000975446
0.000986883
0.00100301
0.00101202
0.00101385
0.00102366
0.00102624
0.00104177
0.00103333
0.00104108
0.00102318
0.00103204
0.0010187
0.000984091
0.000935326
0.000852633
0.00083248
0.00119913
0.00127702
0.00134151
0.00152276
0.00175871
0.00187691
0.00168245
0.0015518
0.00148956
0.00165232
0.00165346
0.00300831
0.00578
0.00258407
0.00289359
0.00844632
0.00335508
0.00260666
0.0026458
0.0026735
0.00267739
0.00155592
0.00184259
0.00178632
0.00179415
0.00152188
0.00127794
0.00114626
0.00102486
0.000695133
0.000692902
0.000698126
0.000708943
0.000712327
0.000681888
0.000681812
0.000677943
0.000676441
0.00066208
0.000658081
0.000646388
0.000639294
0.000622428
0.000613316
0.000597332
0.000594554
0.0006208
0.000690918
0.000835245
0.000929026
0.00105657
0.00107561
0.00120925
0.00300321
0.00347848
0.00479865
0.00475544
0.00750019
0.00468539
0.00353752
0.00319648
0.00467963
0.00483728
0.00449322
0.00608478
0.00420846
0.0027875
0.00420621
0.00350182
0.00414446
0.00406739
0.00431354
0.0068386
0.00718609
0.00202207
0.00180227
0.00189564
0.00215095
0.0025542
0.00235308
0.00268003
0.00267912
0.0020689
0.00131617
0.00419537
0.00507611
0.00407489
0.00489387
0.00752573
0.00302426
0.00294935
0.0026094
0.00217783
0.00197916
0.0019529
0.00217782
0.00260623
0.00652826
0.0069827
0.00644668
0.00643298
0.00584421
0.00642084
0.00799067
0.00794815
0.00702398
0.00656989
0.00680937
0.00424013
0.00262897
0.00305559
0.00338694
0.00452024
0.00466093
0.00983131
0.00334184
0.00368791
0.00374407
0.00500767
0.00485493
0.00856116
0.00363864
0.00391865
0.00516526
0.00689878
0.0126913
0.00464942
0.00488718
0.00702419
0.00713217
0.00652213
0.00472217
0.00427633
0.0046542
0.00350669
0.00342942
0.00292707
0.00432098
0.00580791
0.00460155
0.00446759
0.00379632
0.00339079
0.00346222
0.00359364
0.00298604
0.00294451
0.00339673
0.00253402
0.00244274
0.00258571
0.000716836
0.00036731
0.000375487
0.000385275
0.000393206
0.000401394
0.000407351
0.000414446
0.000417595
0.00041797
0.000419097
0.000443091
0.000438898
0.000425003
0.000385917
0.000440312
0.00069874
0.000699149
0.000439748
0.000387655
0.000695648
0.00110832
0.00130655
0.00154539
0.00156431
0.00134988
0.00117052
0.000720634
0.000709289
0.000429894
0.000502088
0.000545241
0.000483653
0.000539824
0.00050038
0.000529971
0.000535662
0.000495743
0.000492902
0.000494778
0.000491056
0.000482307
0.000471641
0.00045861
0.00044839
0.00044284
0.000438632
0.00042934
0.000356502
0.000332454
0.00040024
0.000638798
0.000637922
0.000597731
0.000563152
0.000533566
0.000520008
0.000516181
0.000513313
0.000522288
0.000539118
0.000543896
0.000548773
0.000591221
0.000572462
0.000611424
0.000573857
0.000613037
0.000575335
0.000529273
0.000444404
0.000458486
0.000739702
0.00074757
0.00120761
0.00138118
0.00156606
0.0015739
0.00175713
0.00185085
0.00156772
0.00162754
0.00186489
0.00173657
0.00154757
0.00155376
0.00139747
0.00139904
0.0012396
0.000774846
0.000764359
0.000480003
0.000466197
0.000555889
0.000546209
0.000607453
0.000650158
0.00065038
0.000648295
0.000632368
0.000626578
0.000551019
0.000540112
0.000540841
0.000524523
0.000521023
0.000543413
0.000593414
0.000696984
0.000843374
0.000918248
0.000949945
0.000910565
0.000815129
0.000602265
0.000543747
0.000942977
0.00097807
0.00175675
0.0041777
0.0019456
0.00370044
0.00266952
0.000663176
0.000739585
0.000943076
0.0010567
0.00114102
0.00118978
0.00108781
0.00090775
0.000683369
0.000564438
0.0008424
0.00072843
0.000822374
0.000718159
0.000929337
0.00107446
0.00103934
0.00104706
0.000884784
0.000720673
0.000763236
0.000685105
0.000755146
0.00063223
0.000760678
0.000686671
0.000862857
0.000870941
0.000852798
0.000808316
0.000615442
0.000645745
0.000541699
0.000587677
0.000527703
0.000545451
0.000516877
0.000602723
0.000694549
0.000666613
0.00066403
0.000545623
0.000427603
0.000472331
0.000408605
0.000462501
0.000359564
0.000435544
0.000365158
0.00047277
0.000487403
0.000490021
0.000487026
0.000396461
0.000466391
0.000571005
0.000599441
0.000604298
0.000575328
0.000443737
0.000686418
0.000618852
0.000755627
0.00065329
0.000715406
0.000651365
0.000759172
0.000972322
0.00101521
0.00102194
0.00082917
0.000824006
0.00150377
0.0834642
0.00135274
0.00159896
0.0016489
0.00164301
0.00135836
0.00132503
0.00164143
0.00121393
0.0017195
0.00108272
0.00183445
0.000699305
0.00106313
0.00114144