/*--------------------------------*- C++ -*----------------------------------*\
| =========                 |                                                 |
| \\      /  F ield         | OpenFOAM: The Open Source CFD Toolbox           |
|  \\    /   O peration     | Version:  v2012                                 |
|   \\  /    A nd           | Website:  www.openfoam.com                      |
|    \\/     M anipulation  |                                                 |
\*---------------------------------------------------------------------------*/
FoamFile
{
    version     2.0;
    format      ascii;
    class       surfaceScalarField;
    location    "360";
    object      phi;
}
// * * * * * * * * * * * * * * * * * * * * * * * * * * * * * * * * * * * * * //

dimensions      [1 0 -1 0 0 0 0];
oriented        oriented;


internalField   nonuniform List<scalar> 
50655
(
0.00257042
-0.00359705
-0.00141121
-0.00511775
0.00138135
0.00358458
-0.00339209
0.00391986
0.00444933
-0.00249313
-0.00283114
0.00304785
-0.00368763
-0.00378581
0.00265845
-0.00176658
-0.00484759
0.000803684
0.000211001
-0.0047142
0.00158379
-0.00178776
-0.00717205
0.00237032
-0.0104519
0.00280611
0.000374959
-0.0112747
-0.0034362
0.00414905
-0.0120315
-0.00482588
0.00548025
-0.0128943
-0.00562306
0.00638166
-0.0261609
-0.00930187
0.0223746
-0.0486827
-0.0282253
0.0501868
-0.048297
-0.0526814
0.0515984
-0.0311282
-0.0711048
0.0531582
-0.00461745
-0.0780775
0.0507838
0.00777382
-0.0548284
0.0416257
-0.00188588
-0.03143
0.0403169
-0.0213748
-0.0216826
0.0404048
-0.0174703
-0.0513017
0.0466748
-0.00750265
-0.0556796
0.0451543
-0.0392431
0.0314113
-0.042103
0.0187797
-0.016221
-0.0167671
-0.0757132
0.0498826
0.0197886
-0.0798431
0.0427909
0.0305288
-0.0295964
0.0185491
0.0342943
-0.00410281
0.0367542
0.0177045
-0.0204869
0.0257147
-0.0179998
0.0287634
0.016827
-0.00949661
0.0182151
0.00402363
-0.00142486
0.0141012
-0.00622389
0.007014
0.00313824
-0.00536443
0.000476049
-0.00137621
-0.00535248
-0.00108422
0.00105387
-0.00627672
0.000107633
0.00079932
-0.00753484
9.67994e-05
0.00114472
-0.00864158
-1.43785e-05
0.00110399
-0.00902338
-0.000343262
0.000708699
-0.00927998
-0.000764811
0.00100482
-0.00884804
-0.00119455
0.000746335
-0.00821861
-0.00167215
0.00102604
-0.0069971
-0.00212669
0.000888752
-0.00556222
-0.00259758
0.00114583
-0.00370266
-0.00289295
0.00101721
-0.0018961
-0.00307497
0.00125145
0.00112087
-0.00303456
0.000858703
-0.00231304
0.00254956
-0.00608057
0.00488295
0.00201456
-0.0117047
0.00459656
0.000971104
-0.0135838
0.00503366
-0.00322155
-0.0132755
0.00530402
-0.00567932
-0.00559465
0.0046123
-0.0123496
0.000458552
0.00557945
-0.0116744
0.000589577
0.00356631
-0.00372297
-0.00151221
0.0020842
-0.00296872
0.00214119
-0.000701812
-0.0045336
0.00218885
-0.000640117
-0.00584807
0.00234773
-0.00104964
-0.00711442
0.00230482
-0.00105343
-0.00861605
0.0024974
-0.00100979
-0.0101823
0.00258337
-0.00103049
-0.0114774
0.00237465
-0.00109273
-0.0123785
0.00201144
-0.00112338
-0.0128431
0.00159622
-0.00114456
-0.0131574
0.00142894
-0.00112795
-0.013757
0.0015553
-0.000969917
-0.0139611
0.00111232
-0.000923315
-0.0136651
0.000888229
-0.00119968
-0.0136541
0.000775494
-0.000802132
-0.0133796
0.000820908
-0.00111152
-0.0131325
0.00089634
-0.00115932
-0.0129883
0.000839887
-0.000999911
-0.0127128
0.000570279
-0.000861323
-0.0121739
0.000121477
-0.000675869
-0.0112727
-0.000454485
-0.000461939
-0.0101518
-0.000914634
-0.000221651
-0.0088341
-0.00101051
-0.000321904
-0.00738564
-0.000761009
-0.000701307
-0.00758257
-0.00069297
0.000877895
-0.0163875
0.00081867
0.00795967
-0.0211617
0.000386343
0.00432735
-0.0226099
0.00113667
0.000246235
-0.0426069
0.0163335
0.0035461
-0.0546002
0.00553842
0.00615652
-0.029475
-0.016385
-0.00904776
-0.013122
-0.0149888
-0.0014964
-0.0112672
-0.00400661
0.00207386
-0.0100173
-0.00310139
0.00176145
-0.0081003
-0.00345335
0.00143481
-0.00473156
-0.00331353
-0.000150496
-0.0031944
-0.00162247
-0.0044675
0.00460601
-0.00342778
-0.00269582
0.00673869
-0.008624
0.000884815
0.00621792
-0.00993075
0.00617448
0.00590812
-0.0113426
0.0149324
0.00881465
-0.0177537
0.0285002
0.0138036
-0.027654
0.0249355
0.0196807
-0.0163974
0.0166073
0.00640732
0.00173621
0.00799883
6.36412e-05
0.00839747
-0.00096902
-0.00389062
0.0127235
-0.00440886
-0.00675132
0.0100748
-0.00755879
0.00542279
0.00434646
0.00100097
-0.0101976
0.00200484
-0.00815424
0.00363086
-0.00520137
-0.00420177
0.00739157
-0.012555
0.00199824
0.00528618
-0.0143684
0.00570716
0.0023767
-0.0384557
0.0270408
0.0232963
-0.00715049
-0.0132897
0.0371749
-0.0097168
-0.039398
-0.00478914
0.00930351
-0.00912392
-0.000527056
0.00897701
-0.00746104
0.00268317
0.00959994
-0.00671466
0.00459885
0.00961896
-0.00490589
0.00714098
-0.00134347
0.0112869
-0.00500734
-0.0027091
0.0124649
-0.00193601
-0.00244579
0.00882019
-0.000392558
-0.00419555
-0.00202347
-0.0210999
-0.00218197
0.0295715
-0.0106597
-0.0143403
-0.00172494
-0.00711647
-0.00254758
-0.00732768
0.015895
0.00126192
-0.0102685
0.0219474
0.00106952
-0.00900318
0.0325184
0.000273641
-0.0132034
0.0832717
-0.00225132
-0.0359911
0.0468304
-0.00192955
0.0455383
-0.00229842
0.007493
-0.00316095
0.0384625
0.00386558
0.0218129
0.00196691
0.0232369
-0.000314444
0.0113221
0.0139368
0.00624529
-0.00797976
9.61135e-05
0.00681153
0.00521811
-0.00149539
0.00732205
0.008189
-0.00153616
0.00712338
-0.015082
0.00798132
-0.00211489
0.00737069
-0.0153175
0.00850566
-0.0012763
0.00743701
-0.016713
0.00841687
-0.00131817
0.0074207
-0.0160158
0.00861613
-0.00063951
0.00728599
-0.0165963
0.00861104
-0.000266606
0.00703484
-0.0159923
0.00856459
0.000702456
0.00623792
-0.0154582
0.00823258
0.00576401
0.0044227
-0.0169523
0.0074535
0.00149369
-0.00416018
0.00568205
0.00273412
0.000809143
0.00538278
-0.000282514
0.000631357
0.00714207
-0.000737124
0.000786281
0.00801913
-0.0011515
0.000942905
0.00832149
-0.00120509
0.00127999
0.00838768
-0.00131732
0.00150379
0.00856218
-0.00136225
0.00150543
0.00870814
-0.00135206
0.00126778
0.0087195
-0.00137078
0.000938837
0.00883495
-0.00119584
0.00730992
-0.00026292
0.00935768
-0.00200636
-0.000816384
0.0110357
-0.00185169
-0.000852304
0.0123195
-0.00154859
-0.000665644
0.0131048
-0.000312525
-0.000943018
0.0135349
0.000851836
-0.00117615
0.0137118
0.00170871
-0.00133124
0.01371
0.00223667
-0.00141119
0.0137686
0.00224834
-0.00142712
0.0137238
0.00182251
-0.000973328
0.013732
0.00134284
-0.000591539
0.0139158
0.00121958
-0.000530778
0.0133071
0.00113342
0.000572386
0.0124602
0.00242952
0.000223683
-0.000265211
0.0127051
-0.00041048
0.00243598
-0.000854718
0.0123698
-0.000235469
0.00280078
-0.000647066
0.0114976
-7.26515e-05
0.00311564
-0.000172431
0.0102346
5.02556e-05
0.000292927
0.00328114
0.00863485
0.000719622
0.00331961
0.000130403
0.00688789
0.00103885
0.00305346
0.000138229
0.0058832
0.000961757
0.00224377
8.90276e-05
0.00443896
0.00462547
-0.000849888
0.00288152
0.00428104
-0.000550977
0.00142868
-0.000499273
0.0040769
0.00389633
-0.000400378
0.00560742
-0.00050767
-0.00121957
0.00683346
-0.000403519
-0.000839371
0.00780479
-0.000600186
-0.000387624
0.00816793
-0.000466542
8.66871e-05
0.00821961
-0.000597763
0.000529617
0.00752421
-0.000250345
0.000929148
0.0065361
-0.000281198
0.00125274
0.00469804
0.000315081
0.0015059
0.00195157
0.00120236
0.00152699
-0.00183948
0.00207057
0.00170252
-0.00455208
0.000494842
0.00219977
-0.00606717
-0.000910592
0.00240642
-0.0073504
0.000607712
0.000653568
-0.0138506
0.000481917
0.00597344
-0.0250193
-0.00658346
0.0176363
-0.0311769
-0.0162411
0.0222334
-0.0392168
-0.0263068
0.0340802
-0.031913
0.0237972
0.0162249
-0.0386355
0.00904145
0.0260487
-0.0166869
0.00679457
-0.00458164
0.00426962
-0.0323464
0.0263075
0.00140851
-0.0147917
-0.0232331
0.00564317
-0.0374358
0.0059109
0.0412629
-0.0575124
-0.000652311
0.0291226
-0.0501116
0.0152277
0.0126205
-0.00990594
0.0169642
-0.0102063
0.0109889
-0.00257672
0.0190909
0.00782459
0.0114795
-0.0125554
0.0134676
0.00543207
-0.00626905
0.00138685
0.0112868
0.0049968
0.00103153
0.00277567
0.00130031
-0.00098325
0.00145684
0.00277535
-0.00485414
0.00387742
0.00204251
-0.00542229
-0.000399321
0.00214886
-0.00956615
0.00202577
0.00241269
-0.00822164
-0.0036647
0.00201891
-0.0118772
0.00197058
0.00141479
-0.0089189
-0.00416363
0.00058775
-0.011257
0.0021692
-0.000317394
-0.00733277
-0.00318603
-0.00135806
-0.00816736
0.00230789
-0.00189698
-0.00441174
-0.00169387
-0.00258866
0.00131458
-0.00257946
0.00408271
0.0117459
-0.0106878
0.0116721
0.00647636
-0.00950599
0.0133103
0.00876832
-0.00517221
0.0104979
0.0103535
-0.00257718
0.0043936
0.00936028
0.00128809
0.012517
-0.00168842
-0.00225316
0.000641822
0.0146797
-0.00617415
0.00537971
-0.00336384
0.0019202
0.0145695
-0.00767328
-0.00316291
0.0030538
0.00781921
0.00998425
-0.00796499
-0.00276101
0.00311847
0.0121187
0.00170262
-0.00674558
-0.00206204
0.000957768
0.0160464
-0.000525309
-0.00469251
0.00742687
-0.000142306
-0.00526604
0.0114396
0.000207013
-0.0103857
0.0125825
-0.00899926
-0.0142378
-0.0141754
0.00842086
0.00572899
-0.0241382
0.00412296
-0.0185748
0.0062493
-0.0165997
-0.0113399
0.00929572
0.00788652
0.00963878
-0.0341716
-0.0238593
0.00757239
0.0111626
0.00743115
-0.0100837
-0.0324579
-0.00921854
0.00782993
-0.0016819
-5.22328e-05
0.00786817
-0.00664056
-0.0104571
0.0116036
-0.00768571
-0.0142396
0.0104417
0.0106443
-0.000684186
-0.00888362
0.0103907
-0.00158485
0.0080381
-0.00760715
0.00361934
0.0010378
0.00487983
-0.00347569
0.0055248
-0.00631674
0.013989
-0.0121469
-0.00343332
0.0108125
-0.0170463
-0.00259487
0.0057267
-0.016987
-0.000939246
-0.00118794
0.00211351
-0.00830808
0.00857094
0.00958323
-0.00963317
0.0111106
0.0111589
-0.00501048
0.0118708
0.0117487
-0.00223566
0.0105159
0.00447219
-0.0111746
0.0108459
0.00310094
-0.00931263
0.0119764
-0.00217319
-0.00507068
0.0115998
-0.00476636
0.00964707
-0.00614456
0.00229164
0.00353705
0.00115081
0.00814246
0.00713215
-0.0014705
0.011138
0.00844584
0.000447985
0.00725578
0.00669152
-0.00916311
0.0101715
-0.000569683
-0.00696011
0.00402965
0.00212475
0.000229918
0.00177315
-0.00192051
0.00513848
-0.00628663
-0.00139043
-0.00224629
0.0187233
-0.00382732
-0.0191766
0.0170032
-0.00142976
-0.00169272
-0.0160901
-0.0118421
-0.00098415
0.00343866
-0.00857116
-0.0106939
-0.0133085
0.00672112
-0.00597691
-0.00494847
0.000933489
0.00140735
0.000391509
-0.00208969
-0.00428118
-0.000991868
0.00399921
-0.00261742
-0.000425045
0.00182721
-0.00239542
0.00131793
-0.00383485
0.00682234
0.000714541
-0.0111794
0.000642472
-0.00349221
0.010591
-0.0034678
-0.00442691
-0.0190861
0.0141214
-0.0119006
-0.0195103
-0.0117909
0.00783369
0.00428916
-0.0266678
-0.015389
0.00257532
0.00933419
0.0105259
-0.0356307
-0.0164619
0.0130666
0.00182988
0.010426
-0.0423285
-0.0146124
0.00983334
7.77058e-05
0.0112959
-0.0436864
-0.0107651
0.0032348
-0.00154076
0.0103245
-0.0431651
-0.00614705
-0.00150519
-0.00185045
0.00887149
-0.0394865
-0.00333096
-0.00449407
0.00405239
-0.0347367
-0.00117359
-0.00710875
0.00647717
-0.00305278
-0.0321747
0.00134939
-0.00611251
0.00560685
-0.00350766
-0.0291291
0.00266116
0.00448062
-0.00399114
-0.00629902
-0.0289328
0.00206169
0.00396962
-0.0035614
-0.00277829
-0.0298399
0.000196131
0.00182515
-0.00122128
-0.0277842
-0.0016047
0.00137619
-0.00194074
-0.0229859
-0.00264315
0.00154561
-0.00379714
-0.0301734
0.00170662
0.0226437
-0.0172384
-0.0593112
0.0293294
-0.0129232
0.012359
0.00603232
-0.0199185
-0.00133621
-0.0132079
-0.0252015
-0.00920178
-0.0122574
-0.000479679
-0.00875974
-0.0111607
0.000621818
0.000286225
-0.00943294
-0.000579626
0.000516763
-0.0058071
-0.00376028
0.00145895
-0.00310598
-0.00399593
0.00104593
-0.00453691
-0.000261211
-0.00445824
0.0008041
-0.000930011
-0.00684461
0.00204996
0.000273216
-0.0107861
0.0022068
0.00165501
-0.0130987
0.000816584
0.00141748
-0.0133667
-0.000353508
0.000551701
-0.0130768
-0.00174994
0.00140603
-0.0236499
0.00142296
0.00907547
-0.0568557
0.0175082
0.0154909
-0.101299
0.0088398
0.035031
-0.117957
-0.005893
0.0218572
-0.127311
-0.0116148
0.0201935
-0.133739
-0.0165133
0.0221063
-0.137393
-0.0222062
0.0249761
-0.138721
-0.0272785
0.0276957
-0.138644
-0.0307675
0.029766
-0.137832
-0.0329236
0.0311868
-0.136376
-0.0341715
0.0317991
-0.134233
-0.0348152
0.0317706
-0.130398
-0.0353189
0.0306126
-0.122433
0.0278268
-0.0366252
-0.103291
0.0207938
-0.0406951
-0.0534685
0.00330589
-0.0537473
-0.0226193
-0.0012336
-0.0298345
-0.0123842
-0.00428715
-0.00602523
-0.0121062
0.00198957
-0.0023226
-0.0112063
0.00432838
-0.00529901
-0.00877023
0.00384266
-0.00635924
-0.0042546
0.00400901
-0.00860901
-0.00478998
0.00347504
-0.00301088
-0.00805816
-6.29118e-05
0.00328027
-0.00782011
0.00235664
-0.00266586
-0.00893236
0.00102444
-0.0138036
0.00698363
-0.00221101
-0.0166384
0.00715038
-0.00442552
-0.0189163
0.00764666
-0.00547133
-0.0237747
0.00700529
-0.00225165
-0.0533265
0.0187388
0.0106165
-0.0979603
-0.00807334
0.0521335
-0.110963
-0.0316675
0.04395
-0.112427
-0.0418204
0.0424733
-0.107725
-0.0476638
0.0421389
-0.098922
-0.052132
0.0424726
-0.086199
-0.0543482
0.0408006
-0.0691828
-0.0558458
0.0380098
-0.0493851
-0.0568164
0.0362527
-0.0236756
-0.0481288
0.0217827
-0.0376828
0.0135685
-0.0535186
0.0231177
-0.00774903
-0.0592856
0.0252957
-0.0200314
-0.0593234
0.0266165
-0.0271049
-0.0502834
0.0264007
-0.0359669
-0.0401947
0.0243354
-0.0349269
-0.0230264
0.0165429
-0.0341783
0.00943444
-0.0328995
0.0272788
0.038056
-0.056537
0.0510472
0.0494444
-0.0739787
0.0749272
0.0495455
-0.0742453
0.0951101
0.049775
-0.0707822
0.110854
0.0469871
-0.0635874
0.119068
0.0396799
-0.0487161
0.117024
0.0329223
-0.0316891
0.101314
0.0300564
-0.0150663
0.0545307
0.0398606
0.00634906
0.0254848
0.0250533
0.00379621
0.0213733
0.00417909
-0.000172303
0.0194597
0.000589113
0.0012219
0.01588
0.000297648
0.00317215
0.00913849
-0.000249781
0.00689277
-0.000925398
0.00997611
-0.000970072
-0.00971617
0.00966509
0.000719782
-0.0131096
0.0113108
0.00256432
-0.0142404
0.0122728
0.00407141
-0.013573
0.0119304
0.00432063
-0.0191714
0.0187443
0.00784686
-0.0286469
0.0248356
0.00382891
0.0236346
-0.0199003
-0.000190032
0.0169097
-0.0130699
-0.000386516
0.00844258
-0.00838175
-0.000545931
0.00775075
-0.00771454
-0.00108858
0.00737721
-0.00694354
0.00631915
-0.00647907
0.00343388
0.0054612
-0.000281832
0.00320897
0.00619793
0.00133212
0.00330354
0.00592225
0.00165621
0.00396926
0.00478952
0.0029091
0.0103276
0.0116157
-0.00117001
0.0194203
-0.00901775
-0.000120358
0.00909588
-0.00421324
0.0144969
-0.0230711
-0.0114276
0.0435248
-0.0155434
-0.00576127
-0.00184498
-0.000983151
0.00358502
0.0048721
-0.009456
0.00605731
-0.0026034
0.00361613
-0.00178698
-0.00827198
0.000431907
-0.00918574
-0.0102629
-0.0126558
0.0184492
-0.00484183
-0.0307596
0.00323399
0.00366776
0.00405877
-0.0175769
-0.049709
0.00588051
0.0101514
0.00083942
-0.0581968
-0.0156824
0.0262227
-0.00423052
-0.0204126
0.00617356
-0.00325211
-0.0202974
0.00561348
-0.00227081
-0.0206558
0.00530949
-0.000898196
-0.0190353
0.00444048
-0.0149944
0.00403355
-0.0211362
0.00226576
0.00404879
-0.021953
-0.00134779
0.00263954
-0.0178985
8.67382e-05
0.00543516
0.00165475
-0.0466143
0.0354657
0.00830464
0.00806287
-0.115134
0.0350593
0.0515061
0.0209237
-0.125238
0.0473012
-0.00799562
-0.126093
0.0547635
-0.0218525
-0.118276
0.0645085
-0.0335228
-0.103347
0.0731496
-0.0419737
-0.0842317
0.0768724
-0.04708
-0.061605
0.0746436
-0.048564
-0.0366882
0.0742902
-0.0505765
0.0503855
-0.0330423
0.0588356
0.045801
-0.0305232
0.068429
0.05169
-0.0355076
0.0687331
0.0528397
-0.0271524
0.0633352
0.0505701
-0.0204841
0.0438825
-0.00612596
-0.0881839
0.0718563
0.00257972
-0.0979736
0.0754898
-0.0160386
-0.099482
0.0799501
-0.0265443
-0.0881593
0.0791901
-0.0397651
0.0719196
-0.0408963
0.0879858
0.0945384
-0.0368518
0.0976132
0.101716
-0.0330828
0.0944777
0.101121
-0.0189644
0.0819119
0.0960532
-0.00888854
0.0903362
0.00674677
-0.0812556
0.103445
0.0129308
-0.0944602
0.110548
-0.00221161
-0.0983483
0.116046
-0.0119986
-0.0904477
0.116953
-0.0240989
0.111518
-0.0314763
0.0869825
0.124365
-0.0276164
0.0946515
0.128383
-0.0200757
0.0912401
0.126507
-0.00802604
0.0783232
0.120392
0.00213677
0.112131
0.0166229
-0.072449
0.116709
0.0193303
-0.084382
0.125491
0.0058971
-0.0867104
0.132097
-0.00424128
-0.0787879
0.134516
-0.0150346
0.131461
-0.0223126
0.0681902
0.13214
-0.0150419
0.0760873
0.13487
-0.00922801
0.0750037
0.131261
0.000943151
0.0640715
0.124835
0.0106509
0.115519
0.0225742
-0.0525782
0.105797
0.0297777
-0.0646136
0.116384
0.0195433
-0.064166
0.119985
0.00986482
-0.0562247
0.125419
0.000546456
0.126316
-0.0040422
0.0351508
0.019195
0.061402
0.0446883
0.051438
0.0947777
0.013479
0.0547495
0.0925322
0.023266
0.035734
0.0483164
0.0452489
0.0408952
0.0445252
0.0365328
0.0515083
-0.0122979
0.0268526
0.0153843
0.01437
-0.018729
0.0276752
0.0150872
-0.0152892
0.031153
0.0135203
-0.0135351
0.0290716
0.0142142
-0.0399759
0.0275599
0.0407915
-0.000791817
0.0248894
-0.0284048
-0.00827354
0.0385298
0.00581069
-0.0370589
-0.00679639
0.0299825
0.00549027
-0.0371265
-0.00458746
0.0290992
-0.0365759
0.00509785
0.0258904
0.00347815
0.00381002
0.00515688
0.00492338
0.0071593
0.00680911
0.00762024
0.00905388
0.00893482
0.00840096
-0.00415253
-0.0199647
0.0156974
0.0026683
-0.00060942
0.000593174
0.00625259
0.00290168
0.000298697
-0.000536119
0.000355783
0.00409324
-0.00155221
-0.00244064
-0.0013249
0.00411715
-0.00165509
-0.000490499
0.0011761
0.0106054
0.0120971
0.0316407
-0.0532569
0.00539453
0.0178099
-0.00424834
-0.00730472
0.0568841
0.0012437
-0.0150793
0.00284639
0.00352473
-0.00655666
0.00505283
0.00398817
-0.00620933
-0.022223
0.00971304
0.0175225
-0.00940307
-0.012545
-0.00031854
0.0179515
-0.00257274
0.0239391
-0.00790903
0.0463093
-0.0127268
0.0215552
0.0766808
-0.0247044
-0.0327429
0.00456499
0.00707047
0.0297952
0.00210043
-0.0175704
0.00802177
0.0136754
-0.00405552
-0.0106636
0.00845685
0.014981
-0.00405143
-0.0114713
0.00756206
0.0144594
-0.00237345
-0.0112977
0.00612497
0.0128138
-0.0104487
-0.00102665
0.00367334
0.0105496
-0.00881158
0.000626283
0.00874814
-0.00791749
0.00276226
0.00845204
-0.00315495
0.00338034
0.00805047
-0.00280231
0.00314881
0.0152171
-0.00809733
0.000853416
0.0393339
-0.0159755
-0.00836013
0.0729326
-0.0389347
0.00471742
0.0830211
-0.027654
0.0168061
0.0845795
-0.0235096
0.0211173
0.0820168
-0.0202584
0.0219487
0.0768192
-0.0158447
0.0201395
0.069874
-0.00876217
0.014789
0.0605149
0.00165005
0.006781
0.042033
0.017423
0.000131018
0.0148048
0.0413461
-0.0150359
-0.00532988
0.0552112
-0.0359789
-0.00174778
0.0503051
-0.0547591
0.0122138
0.0392647
-0.0540593
0.0154362
0.0263465
-0.0303273
0.00955329
0.0287346
-0.0234691
0.00210193
0.0112607
-0.00402761
0.000389958
0.00379799
-0.00216298
-0.00044114
0.00176539
-0.000988877
-0.00210931
0.00325085
-0.0016522
0.00313841
-0.00227766
0.00323753
0.00520899
-0.00147334
0.000233515
0.00658631
-0.000406877
0.00215346
-0.000176125
0.00652227
-0.000599465
0.00173891
0.0059281
-0.00381951
0.00256199
0.00565138
0.0061785
0.000998479
0.0117091
0.017026
-0.0108897
0.0155606
-0.0106171
0.0235967
0.0241707
-0.0302386
0.0434064
0.0145607
-0.0446586
0.050534
0.013256
-0.0629937
0.0462451
0.0263489
-0.0788235
0.0292721
0.0269387
-0.0897998
0.00755403
0.0198728
-0.0952947
-0.0086759
0.0148479
-0.0986972
-0.0208971
0.0145712
-0.100897
-0.0294495
0.0148506
-0.10109
-0.0351904
0.0141875
-0.0977138
-0.0395394
0.0117325
-0.0888359
-0.0439339
0.00649375
-0.0319617
-0.0406482
-0.0447658
-0.0113782
-0.0184636
-0.0104254
-0.01922
0.00261301
-0.0154062
-0.00710389
0.00132026
-0.00577419
0.000260986
-0.00945562
0.000857389
-0.00379678
0.00165934
-0.007483
0.000989466
-0.00880966
0.0158598
-0.000179801
-0.00795381
0.0158658
-0.00184091
-0.00614639
0.0139511
-0.00216464
-0.00201954
0.0198301
0.00569713
0.0204565
0.107152
-0.0444966
-0.00957702
0.00400604
0.0307122
0.00546299
0.00762053
0.0105324
-0.000247821
0.00843161
0.0143081
0.000667902
0.0151696
0.00192773
-0.016252
-0.0197965
-0.0126667
0.0308814
-0.0202906
0.0463592
-0.0178854
-0.0510841
0.107082
-0.0246299
-0.0521046
0.122032
-0.0150244
-0.104554
-0.0443656
0.125837
-0.0301866
-0.075338
-0.0285865
-0.017384
-0.028869
-0.0142837
-0.00282955
-0.0403608
0.017032
-0.00207722
-0.0241636
-0.00526137
0.0279948
-0.00541406
-0.00853771
0.0163861
-0.00782685
-0.00929212
0.014511
-0.0061677
-0.00944659
-0.0118372
-0.00270864
0.0502112
-0.0212586
-0.0125896
-0.00608383
0.000616442
-0.0119322
-0.00845856
-0.000107237
-0.00874989
-0.00712
-0.00156869
-0.0049822
-0.00436732
-0.00157728
-0.000101115
-0.000744923
-0.00374594
-0.000456505
-0.00987983
4.80924e-06
0.000443335
0.00127598
-0.00169657
0.00137578
-0.00206448
0.00335521
0.00175238
-0.00263884
0.00437841
0.00206137
-0.00197088
0.00372191
0.00175489
0.00267495
0.000706306
0.00449707
0.00264091
-0.00105691
0.00469141
0.00385206
-0.000400253
0.004545
0.00492879
-0.000485015
0.00482934
-0.000748527
-0.00634687
0.0108839
-0.00418546
-0.00618343
0.0109087
-0.00625501
-0.00532234
0.0100629
-0.00717738
0.00901927
-0.00778291
0.00655998
0.0118802
-0.00566559
0.00798179
0.0136102
-0.00506788
0.0081634
0.0151328
-0.00451228
0.0149385
-0.00311779
-0.00917659
0.0168804
-0.00132425
-0.00930333
0.0178865
-0.00273308
-0.00965091
0.0177836
-0.00393018
0.010488
-0.00400687
0.0128716
-0.000415788
0.0102298
-0.00167423
0.00748605
0.0233093
-0.00289521
0.00733761
0.0183217
-0.00037691
0.0173145
0.000741007
-0.00881564
0.0485082
-0.0252188
-0.00517967
0.0422034
-0.0276622
0.0450343
-0.0283102
0.0293335
0.117775
-0.0575485
0.127639
-0.0450585
0.0507293
0.135083
-0.0386323
-0.0205875
0.0553755
0.135018
-0.0149433
0.0520073
0.130277
-0.005993
0.115461
-0.00135166
-0.0502103
0.119927
0.00518433
-0.0559193
0.135254
-0.000351197
-0.0534491
0.140946
-0.009481
-0.0448039
-0.0146158
0.140033
-0.128335
-0.0233022
0.133739
-0.029307
-0.0128384
-0.0511426
-0.114496
0.0286295
0.119478
-0.106155
-0.0667741
0.118479
-0.0384356
-0.0495775
-0.0680725
-0.00480354
0.013862
-0.0135219
-0.0193526
-0.0195771
-0.0099928
-0.00603204
-0.0131347
-0.00290671
-0.0140256
-0.00406159
0.00257538
-0.0143997
-0.00817584
0.00317055
-0.0127584
-0.0106139
0.00252671
-0.009811
-0.0145044
0.00285758
-0.0107448
0.00114079
-0.0137833
0.0160676
-0.013736
0.000610645
-0.00948647
-7.91249e-05
-0.0153542
0.0144838
-0.00157979
-0.0167574
0.0116588
-0.00271334
-0.0180407
0.00966322
-0.00145875
0.0149528
-0.0254678
0.0110892
0.0252151
0.0187224
0.0207328
-0.0498538
0.0188593
0.0161685
0.0178274
-0.0277717
0.0305756
0.0160503
0.0191696
-0.047072
0.0213688
0.0134244
-0.0227387
0.0183927
0.0392799
-0.0422086
0.00893098
0.0152658
0.0201
0.046364
-0.0101148
-0.0171707
0.0253821
0.0301344
-0.0202552
-0.0152896
-0.0172381
-0.0206159
0.00991165
-0.0182696
0.00381734
-0.01278
-0.0179568
0.00437256
-0.0172458
-0.0122892
0.00330487
-0.016135
-0.0141035
0.00228029
-0.0167759
0.00209718
-0.0176715
-0.017056
0.0174622
0.000372877
-0.0162691
-0.000772591
-0.0183766
0.015645
-0.00199084
0.0130107
-0.00309168
0.0175513
0.0143316
-0.00279074
0.0174392
-0.0014076
0.0164787
0.0182502
-0.0170291
-0.000365748
0.0183985
0.00133178
-0.0151186
0.00285788
-0.0154825
0.00100873
0.017509
-0.0154149
-0.001203
0.0144835
-0.00214713
-0.00752896
-0.0160264
0.0235981
0.0168598
-0.00150792
-0.0143905
-0.017153
-0.0262142
-0.0242772
-0.00257834
-0.105264
0.103889
0.00754752
0.00121098
0.0182425
0.0127094
0.0239161
0.0146955
-0.0202654
0.0176481
-0.00846341
0.0179654
-0.0122461
-0.00477389
0.00235965
-0.000511736
-0.00555191
0.00484984
-0.00582499
-0.00170864
-0.0021077
-0.00217542
-0.00379244
0.0131646
-0.000990935
-0.00316257
-0.00140352
-0.00338383
0.0163859
-0.020079
-0.0115676
0.0154792
0.00688866
-0.0116079
0.0176109
0.00911998
-0.0132727
0.02023
0.00894016
-0.0142085
0.0229883
0.00892386
0.0302178
0.012005
0.00989551
0.0135031
0.0125094
0.009492
0.0132891
0.00992352
0.00785556
0.0119353
0.00976028
0.00608013
0.0108106
0.00842164
0.0100042
0.00700478
-0.00220989
0.00342725
-0.00262364
0.00416828
-0.00329213
0.00476459
-0.00392714
0.00540969
0.00651966
0.00166344
0.00290709
0.00142734
0.000511968
0.000410797
0.00139602
-0.000145838
0.00198866
-0.00155079
-3.00353e-05
-0.000931371
0.00195301
0.000963588
-0.00032937
0.000791217
-0.00043267
0.00182918
-0.00111711
0.00121589
-0.000534563
0.000311954
-4.18846e-06
0.00202667
-0.00174774
2.97323e-05
0.00379661
-0.000558464
-0.00359753
0.0111625
-0.00639553
0.00358502
-0.0180451
0.0033589
0.0170768
0.00389457
-0.0181509
0.0204511
0.00715563
0.00294109
0.00677496
-0.017084
0.0208652
0.000291906
0.0059649
0.019811
-0.0148517
-0.0136305
0.0141996
0.00503462
0.0109891
-0.00739274
0.0172001
-0.00766181
0.0172876
0.0109119
-0.000411964
0.0199957
0.00718102
0.00333871
-0.00115295
0.00152965
-0.00352161
0.000373291
-0.00229335
0.012609
0.00135517
-0.00233841
0.000788113
0.000619814
-0.000777708
0.00151123
-0.000568316
0.00155973
-0.000393035
-0.00124287
0.00106631
-0.00207071
0.000898487
-0.000210985
-0.000224863
-0.00163635
-0.000454821
-0.00209657
0.000247706
-0.00185747
0.00140333
-0.00138188
0.000391257
0.000112187
-0.00188659
0.000171071
-0.00141758
-0.000660232
-0.0012672
-0.00240737
0.00114973
0.00124063
0.000227019
0.000472436
-0.00129945
0.000447959
-0.00168364
-0.000479991
0.000537248
0.000389186
0.000109806
6.83363e-05
-0.000659485
0.00104449
0.000304207
0.000312507
-0.000892745
-0.00161345
0.0028153
-0.000776066
0.000269856
0.000180105
-0.000890243
-0.00113208
0.00380575
0.00137651
-0.000361489
-0.00303273
0.0122891
-0.00265067
-0.00129585
-0.00174954
8.58673e-06
-0.000830857
0.000258217
-0.000726145
0.000330207
-4.21786e-05
-0.00112126
-4.59437e-05
0.00188389
-0.000307807
-0.00162534
-0.00132415
0.0032123
-0.000895319
-0.000173757
-0.00124784
0.00111817
0.00204474
0.000343587
0.000324695
0.000922068
-0.000131162
0.0019168
-0.00142203
-0.000173433
-0.00137209
0.00320259
8.19379e-05
-0.000650377
0.000197175
0.00286428
-0.00405822
0.0133208
-0.00112144
-0.0180634
0.00073522
0.00705517
0.0245729
-0.016493
0.021925
0.0064073
-0.0177793
0.0226088
-0.00210748
-0.014904
-0.00439707
-0.0206949
-0.0218732
-0.00632233
-0.0219044
-0.00573825
0.0151692
-0.00262246
0.0198028
0.0318028
0.0374675
-0.0236098
-0.10115
0.0666181
-0.096765
0.0700874
-0.107846
0.0712984
-0.0171115
-0.110087
0.0687092
-0.0248712
-0.106617
0.0674541
-0.029676
-0.0981149
0.06628
-0.0332106
-0.0859887
0.0635975
-0.0358174
-0.0685276
0.0576167
-0.0379515
-0.0486859
0.0531792
-0.0376684
-0.038541
0.0425828
-0.0316924
0.00463055
-0.0300143
0.0173909
0.0320938
-0.0455217
0.0149355
0.0448315
-0.0430435
-0.00698562
0.0479525
-0.0264427
-0.0341367
0.0267124
-0.0508972
-0.0129949
0.0292882
-0.0596624
-0.0245488
0.0328112
-0.0620832
-0.0310311
0.0329257
-0.0557844
-0.0382007
0.0313756
-0.0478219
-0.035275
0.0268096
-0.0304306
-0.0335751
0.0157166
0.00325098
-0.0341203
0.0201217
0.0446502
-0.0621578
0.0427919
0.0556582
-0.0790944
0.0680926
0.0549336
-0.0810543
0.0881372
0.0523981
-0.0732672
0.0991241
0.0477348
-0.0595784
0.0996947
0.0400274
-0.0414202
0.0934266
0.0341871
-0.0287295
0.0812688
0.0311111
-0.0196735
0.0460459
0.0378283
-0.00317887
0.022243
0.0227919
0.000814611
0.0191719
0.0039387
-0.000972359
0.0178371
0.00053446
0.000697544
0.0146797
0.000156583
0.00289048
0.00844905
2.12136e-05
0.00611049
0.00901354
-0.000652105
0.00707198
0.00353601
-0.00166508
0.00447607
0.00386355
-0.00131475
0.00466366
0.00174468
-0.00199508
0.00555092
0.00195163
-0.00291774
0.00518128
0.00312509
-0.00283326
0.00400088
0.0033744
-0.00226355
0.00296674
0.00269013
-0.0017106
0.00478488
0.00166986
-0.00356501
0.00871212
0.00295139
-0.00709714
-0.0268972
0.0334562
0.00153521
-0.0527319
0.022716
0.00235959
-0.0645957
0.0108652
0.000164743
-0.067228
-0.000125974
0.00188534
-0.0697327
-0.0144203
0.0160206
-0.0742162
-0.0297745
0.0333358
-0.0753563
-0.0449186
0.0451216
-0.0726287
-0.0586557
0.054983
-0.0624872
-0.0710797
0.0599862
-0.0446288
-0.0810876
0.062272
-0.0168572
-0.0877485
0.0590137
0.017344
-0.083891
0.0487291
0.0328412
-0.0587713
0.0423128
0.0320433
-0.0452647
0.0451403
0.024464
-0.0357092
0.0423851
0.0106058
-0.0266588
0.0396898
-0.000156436
-0.0235183
0.0334787
-0.0350169
0.0341112
-0.05069
-0.0198615
0.0347368
-0.0579119
-0.0346264
0.0410376
-0.0583608
-0.0494279
0.0490022
-0.0498286
-0.0644227
0.0550154
-0.0259058
-0.0818943
0.0570727
0.00426814
-0.0831983
0.0521484
0.00965455
-0.0472419
0.0409901
-0.00784139
-0.0267149
0.043401
-0.0209178
-0.0288759
0.0411664
-0.00454208
-0.060748
0.0436342
-0.0525682
0.0433541
-0.0152945
-0.0693587
0.00178646
0.0184133
-0.055346
-0.0399946
0.0286355
-0.0401596
0.000186163
0.0323976
-0.0481893
0.0168183
0.0309711
-0.0778445
0.0311048
0.0417014
-0.126647
0.0317799
0.0550773
-0.12376
0.0275443
0.057716
-0.0966844
0.0286918
0.0527037
-0.0732516
0.0279304
0.0420798
-0.0523251
0.0274626
-0.030722
0.0285993
-0.0375406
-0.0478832
0.027172
-0.0395865
-0.0575686
0.022976
-0.0339242
-0.068619
0.0167217
-0.00565356
-0.0845461
-0.00349383
0.0349687
-0.119464
-0.0060547
0.0608066
-0.125377
0.0107852
0.0758015
-0.118724
0.0216401
0.0828076
-0.104274
0.0251923
0.0818577
-0.0857495
0.0270538
0.0777175
-0.0649937
0.0232329
0.0705617
-0.0432111
0.0196206
0.0660246
-0.0214526
0.0106113
0.061479
-0.000712839
0.00419096
0.050426
0.0148813
0.00611029
0.0280335
0.0314408
0.0127516
-0.00685302
0.00495353
0.0454786
0.0169247
0.00851544
-0.00260817
-0.00895031
-0.00396386
0.0155833
-0.00137554
-0.000875324
0.0109433
-0.000986464
0.00380324
0.00169507
0.0160354
0.000364903
-0.0096988
0.00414046
-0.00656207
0.0269179
0.00420864
-0.00862977
-0.00770311
-0.000106
0.00156231
-0.00789409
-0.00236777
0.00149713
-0.00641379
-0.0036703
0.000732114
-0.00482109
-0.00475105
0.000468757
0.00176013
-0.00347606
-0.000469285
0.00433193
-0.00092522
-0.00171922
-0.000331803
-0.000253265
-0.00113809
-0.000686627
-0.000572438
-0.000576852
-0.000528622
0.000416281
-0.000968388
-0.00320215
0.0128366
-0.00535814
-0.0115935
0.00303375
0.0225136
-0.0074763
-0.00946929
0.0640025
-0.0309556
-0.028428
0.0184476
0.0615056
-0.0245612
0.0285099
0.045968
-0.0194099
0.0341908
0.0073335
-0.010478