/*--------------------------------*- C++ -*----------------------------------*\
| =========                 |                                                 |
| \\      /  F ield         | OpenFOAM: The Open Source CFD Toolbox           |
|  \\    /   O peration     | Version:  v2012                                 |
|   \\  /    A nd           | Website:  www.openfoam.com                      |
|    \\/     M anipulation  |                                                 |
\*---------------------------------------------------------------------------*/
FoamFile
{
    version     2.0;
    format      ascii;
    class       volVectorField;
    location    "360";
    object      U;
}
// * * * * * * * * * * * * * * * * * * * * * * * * * * * * * * * * * * * * * //

dimensions      [0 1 -1 0 0 0 0];


internalField   nonuniform List<vector> 
18258
(
(-0.176324 0.11725 0.137419)
(-0.0516769 0.246023 0.157256)
(-0.104642 0.214471 0.0961638)
(-0.0384615 0.0702621 0.0839851)
(-0.225981 0.202983 0.0178499)
(-0.158833 0.361703 0.0161389)
(-0.222484 0.0450058 0.0533766)
(-0.340691 -0.0523583 0.0747612)
(-0.447746 -0.105208 0.107816)
(-0.534567 -0.159127 0.145455)
(-0.620444 -0.216716 0.17969)
(-0.686896 -0.271089 0.309276)
(-0.678064 -0.33383 0.357104)
(-0.621819 -0.445105 0.385775)
(-0.487912 -0.542729 0.369501)
(-0.205409 -0.587392 0.340664)
(0.0733916 -0.374757 0.289262)
(0.077622 -0.16395 0.298086)
(-0.128346 -0.0786894 0.237083)
(-0.402423 -0.27314 0.117499)
(-0.140591 -0.527133 0.294191)
(-0.201285 -0.366517 0.407418)
(-0.307075 -0.738587 0.302228)
(-0.368752 -0.780601 0.262754)
(-0.138347 -0.707327 0.130836)
(0.00238331 -0.644868 0.182441)
(-0.0188253 -0.340781 0.423185)
(0.172914 -0.113152 0.805903)
(0.298351 -0.0954117 0.89411)
(0.315985 0.0576721 0.915659)
(0.316723 0.183546 0.817548)
(0.168202 0.301512 0.112746)
(0.0753206 0.135535 -0.427705)
(0.00834021 0.0831675 -0.719371)
(-0.0694544 0.0791524 -0.895157)
(-0.0595064 0.0747312 -1.07781)
(-0.0723961 0.0735961 -1.21667)
(-0.100998 0.0916913 -1.30996)
(-0.143112 0.0830559 -1.35713)
(-0.191262 0.0897236 -1.34307)
(-0.241132 0.0761674 -1.25914)
(-0.287951 0.0855549 -1.10562)
(-0.327111 0.079875 -0.894998)
(-0.358262 0.0811869 -0.641017)
(-0.367972 0.0841753 -0.348875)
(-0.350422 0.0785641 -0.151987)
(-0.152157 0.188364 -0.192873)
(0.374357 -0.106233 -0.135192)
(0.641631 -0.132281 -0.155489)
(0.682138 -0.114224 -0.165901)
(0.792272 -0.13604 -0.175649)
(0.818713 -0.131833 -0.193468)
(0.509996 -0.00149521 -0.25752)
(0.260607 -0.137658 -0.217882)
(0.11363 -0.0411698 -0.158587)
(0.283543 -0.00906326 -0.169047)
(0.539473 -0.00213026 -0.173702)
(0.794294 -0.0299501 -0.177989)
(1.09508 -0.0347527 -0.175811)
(1.43104 -0.0489393 -0.185243)
(1.76575 -0.0646662 -0.18357)
(2.0499 -0.0811856 -0.166579)
(2.2504 -0.0927948 -0.138017)
(2.35023 -0.0988219 -0.10226)
(2.35641 -0.0960606 -0.0675283)
(2.29549 -0.0883252 -0.0407826)
(2.20146 -0.0818106 -0.0241896)
(2.10869 -0.0757118 -0.0174892)
(2.03907 -0.0669274 -0.018547)
(1.99331 -0.0640673 -0.0232659)
(1.96893 -0.058934 -0.0257459)
(1.95838 -0.0500391 -0.0202403)
(1.94412 -0.0395406 -0.00324214)
(1.90067 -0.024722 0.0243323)
(1.81307 -0.00767432 0.0539119)
(1.69208 0.00971676 0.0772275)
(1.57119 0.0219225 0.0800784)
(1.47849 0.0309139 0.0754259)
(1.40039 0.0380073 0.0707223)
(1.33817 0.0508487 0.0633202)
(1.28732 0.0575033 0.0651346)
(1.19369 0.044553 0.0787611)
(1.09666 0.0192056 0.1105)
(1.01383 0.000897646 0.128071)
(0.906741 -0.0207294 0.121017)
(0.762767 0.0168464 0.146221)
(0.641926 0.0817575 0.133454)
(0.51829 0.10066 0.134394)
(0.381308 0.118181 0.118797)
(0.224757 0.127347 0.0967756)
(0.12019 0.190049 0.0922051)
(0.122345 0.0102467 0.19778)
(0.164238 -0.100793 0.144115)
(0.113244 -0.129627 0.0400701)
(0.104713 -0.115204 -0.141848)
(0.216945 -0.210479 -0.370519)
(0.263048 -0.232989 -0.556043)
(0.204615 -0.140035 -0.730211)
(0.106229 -0.0820328 -0.716005)
(0.0363644 0.0559908 -0.49411)
(-0.0866079 0.229658 -0.166974)
(-0.21532 0.195911 0.178315)
(-0.234241 0.0653996 0.152438)
(-0.339892 0.0159393 0.167951)
(-0.27163 0.139942 0.176454)
(-0.245227 0.287131 -0.0530818)
(-0.106153 0.161503 -0.405739)
(0.0647236 0.00325844 -0.586618)
(0.334335 -0.0947471 -0.632792)
(0.496551 -0.230446 -0.489834)
(0.351874 -0.211024 -0.280175)
(0.271878 -0.192078 -0.100517)
(0.2831 -0.186655 0.0398956)
(0.280919 -0.140037 0.160504)
(0.225761 -0.0989662 0.191887)
(0.397012 -0.0812036 0.181079)
(0.536127 -0.0631456 0.176675)
(0.588577 -0.0518944 0.16471)
(0.700584 -0.0786183 0.160932)
(0.732807 -0.133638 0.132738)
(0.601202 -0.134192 0.135451)
(0.454702 -0.151701 0.139931)
(0.461662 -0.185848 0.0357115)
(0.611045 -0.16283 0.051661)
(0.736469 -0.162069 0.0491713)
(0.904969 -0.141735 0.0812573)
(1.08849 -0.10991 0.110784)
(1.18969 -0.0777456 0.148364)
(1.20879 -0.0106075 0.140042)
(1.24595 -0.00898559 0.120508)
(1.33589 -0.0068929 0.140026)
(1.37791 -0.00161946 0.129925)
(1.36948 -0.0124492 0.158762)
(1.32896 -0.0481628 0.193991)
(1.32327 -0.0510962 0.190897)
(1.2861 -0.0620096 0.152045)
(1.27942 -0.0602153 0.135198)
(1.25864 -0.0478507 0.108447)
(1.25014 -0.0458187 0.110468)
(1.20188 0.00435666 0.109141)
(1.19484 0.0277839 0.137699)
(1.07761 0.136965 0.271324)
(1.22662 0.0528765 0.253929)
(1.2184 0.0200755 0.158718)
(1.26716 -0.0208107 0.128272)
(1.27924 -0.0250028 0.119119)
(1.28949 -0.0381789 0.144293)
(1.30837 -0.0414627 0.183525)
(1.35102 -0.0366733 0.217508)
(1.38685 -0.0366477 0.222445)
(1.42372 -0.0127128 0.18355)
(1.43715 -0.00183774 0.138243)
(1.51333 -0.0064555 0.151372)
(1.61135 -0.0166446 0.159454)
(1.75068 -0.0315528 0.143801)
(1.88284 -0.0541345 0.0490653)
(1.96424 -0.075585 -0.0712437)
(1.98354 -0.0904249 -0.164363)
(1.96598 -0.096425 -0.200598)
(1.94954 -0.0967425 -0.19452)
(1.95965 -0.0911072 -0.174694)
(2.00673 -0.0825683 -0.144175)
(2.08837 -0.0700696 -0.107445)
(2.19981 -0.059762 -0.083368)
(2.31455 -0.0594115 -0.112065)
(2.39216 -0.0605414 -0.172362)
(2.39543 -0.0582379 -0.276405)
(2.28994 -0.0501029 -0.391943)
(2.07461 -0.0425532 -0.483602)
(1.77415 -0.0368031 -0.540258)
(1.43014 -0.0316512 -0.549172)
(1.08384 -0.0193439 -0.528042)
(0.794965 -0.0242777 -0.459663)
(0.538844 -0.015458 -0.415715)
(0.284222 -0.0208291 -0.387033)
(0.109487 -0.0394042 -0.360825)
(0.102681 -0.0412954 -0.637486)
(0.0777646 -0.0366604 -0.873732)
(0.0509725 -0.0387266 -1.05829)
(0.0119315 -0.0400551 -1.17682)
(-0.0233042 -0.0277441 -1.21622)
(-0.0600373 -0.0152286 -1.16799)
(-0.0938308 0.00401683 -1.03815)
(-0.119271 0.0284975 -0.81857)
(-0.120767 0.0868585 -0.557062)
(-0.147341 0.131816 -0.022917)
(-0.194781 0.0233498 0.577652)
(-0.210733 -0.0350001 0.763324)
(-0.228887 -0.00371722 0.930765)
(-0.234021 -0.0471542 1.07187)
(-0.319498 -0.107042 1.13535)
(-0.3722 -0.114843 1.14727)
(-0.370784 -0.235709 1.00587)
(-0.300181 -0.254537 0.771252)
(-0.460623 -0.670875 0.68712)
(-0.484978 -0.54901 0.705099)
(-0.413328 -0.416272 0.832954)
(-0.547811 -0.769702 0.860903)
(-0.681274 -0.834375 0.608585)
(-0.472447 -0.757068 0.80024)
(-0.43385 -0.576025 0.743829)
(-0.781151 -0.526255 0.752268)
(-0.900613 -0.409468 0.862705)
(-0.529473 -0.70825 0.828424)
(-0.439349 -0.577724 0.669679)
(-0.320623 -0.321508 0.409361)
(-0.299961 -0.184779 0.403447)
(-0.283761 -0.148521 0.358356)
(-0.235729 0.106103 0.118606)
(-0.161979 0.300013 -0.415886)
(-0.151401 0.193975 -0.637971)
(-0.132062 0.0305717 -0.912649)
(-0.0870292 -0.0555426 -1.08576)
(-0.0286046 -0.0685336 -1.23393)
(0.0386271 -0.101012 -1.26918)
(0.0985709 -0.0980993 -1.23446)
(0.173347 -0.108629 -1.12065)
(0.217545 -0.123185 -0.920732)
(0.26196 -0.146369 -0.706124)
(0.250817 -0.139158 -0.398598)
(0.421308 -0.0471737 -0.637966)
(0.779003 -0.117532 -0.456099)
(0.735487 -0.109737 -0.410407)
(0.63845 -0.0770373 -0.401908)
(0.58127 -0.106569 -0.406102)
(0.142681 -0.10132 -0.513317)
(0.186488 -0.11767 -0.895544)
(0.263785 -0.225491 -1.04768)
(0.346594 -0.283051 -0.937413)
(0.389146 -0.351838 -0.496126)
(0.198977 0.0504225 0.124648)
(0.266898 0.122355 0.183941)
(0.429201 -0.325911 0.335279)
(0.516711 -0.529469 0.505193)
(0.546678 -0.522695 0.55113)
(0.413248 -0.235471 0.678526)
(0.472428 -0.337749 0.563748)
(0.488065 -0.610142 0.543505)
(0.705632 -0.673164 0.316179)
(0.747867 -0.489485 0.451137)
(0.799958 -0.346168 0.597671)
(0.236366 -0.226372 0.576158)
(-0.2339 -0.269493 0.831682)
(-0.170746 -0.1914 0.683569)
(-0.671697 -0.299116 0.821807)
(-0.467703 -0.184325 0.698609)
(-0.318488 -0.00614039 0.547322)
(-0.218273 0.179503 -0.295719)
(-0.191847 -0.0381975 -0.617447)
(-0.0574458 -0.167401 -1.10012)
(0.104909 -0.156115 -1.25074)
(0.277307 -0.0851875 -1.11849)
(0.440719 -0.107392 -0.697526)
(0.511191 -0.0735374 -0.620304)
(0.506778 -0.0443412 -0.607714)
(0.563455 -0.0891525 -0.630277)
(0.601735 -0.12212 -0.722124)
(0.405631 -0.0434883 -0.674482)
(0.363422 -0.0787039 -0.655598)
(0.138127 -0.11314 -0.665521)
(-0.111142 -0.0476377 -0.576842)
(0.298459 0.00881258 -0.586439)
(0.358684 0.0166733 -0.602566)
(0.644835 -0.0960523 -0.638628)
(0.574206 -0.0974702 -0.358766)
(0.270321 0.0756498 -0.347768)
(0.269101 0.0569093 -0.21974)
(-0.302052 -0.036186 0.131335)
(-0.308335 0.146068 0.0022259)
(-0.28361 -0.023143 -0.445367)
(0.0901831 -0.201397 -0.572515)
(0.365285 -0.280022 -0.567141)
(0.730531 -0.34568 -0.404506)
(0.814123 -0.418201 -0.377301)
(0.775783 -0.290443 -0.295523)
(0.817197 -0.365121 -0.219581)
(0.831469 -0.486714 -0.283559)
(0.745386 -0.433031 -0.277242)
(0.725017 -0.306874 -0.330143)
(0.751958 -0.252052 -0.341126)
(0.797641 -0.312185 -0.211893)
(0.81016 -0.367988 -0.160099)
(0.896494 -0.464325 -0.15632)
(1.16142 -0.630729 -0.11751)
(1.61948 -0.72605 -0.0985912)
(1.99634 -0.671306 -0.0379187)
(2.15254 -0.488891 0.047466)
(2.07205 -0.289654 0.0955523)
(1.90634 -0.161758 0.103012)
(1.80852 -0.0935876 0.0995586)
(1.7115 0.00152295 0.0990831)
(1.57391 0.0899309 0.0912213)
(1.43649 0.108409 0.048212)
(1.33191 0.0587293 0.0274904)
(1.24206 -0.00329578 0.0218404)
(1.14029 -0.0527415 0.023606)
(1.05628 -0.0775964 0.0217873)
(0.998466 -0.0614485 0.0174248)
(0.82248 -0.109177 -0.0233939)
(0.717182 0.00357484 0.0105135)
(0.633798 0.069988 0.00951523)
(0.498079 0.0249498 0.00717313)
(0.359772 -0.0594581 -0.012847)
(0.139254 -0.146112 -0.0319559)
(0.225795 -0.307859 0.0011359)
(0.353463 -0.0818393 0.012072)
(-0.00239296 -0.230068 -0.00920557)
(0.0431085 -0.545958 -0.0504388)
(0.0120927 -0.71257 -0.0525632)
(-0.0079486 -0.876603 -0.0531927)
(-0.0259025 -1.00671 -0.0648885)
(-0.0359349 -1.10273 -0.095707)
(-0.0464163 -1.1572 -0.104985)
(-0.0579251 -1.21462 -0.118129)
(-0.0881537 -1.27651 -0.134127)
(-0.11327 -1.32137 -0.149444)
(-0.137263 -1.35525 -0.162362)
(-0.159311 -1.37707 -0.173427)
(-0.178366 -1.38853 -0.183097)
(-0.193797 -1.39025 -0.189821)
(-0.205954 -1.38318 -0.193684)
(-0.215983 -1.36847 -0.193808)
(-0.224534 -1.34659 -0.191888)
(-0.232805 -1.31617 -0.186437)
(-0.240462 -1.27531 -0.178072)
(-0.245907 -1.22109 -0.165019)
(-0.243804 -1.15194 -0.147268)
(-0.190926 -1.07245 -0.126871)
(-0.141215 -0.969709 -0.112489)
(-0.16573 -0.86912 -0.0794188)
(-0.189734 -0.755068 -0.0818231)
(-0.204933 -0.543506 -0.085423)
(-0.273585 -0.450578 -0.091926)
(0.0227076 0.0529692 -0.116096)
(-0.350861 -0.30861 0.0252622)
(-0.231655 -0.617762 -0.0544593)
(-0.27036 -0.0993558 -0.0109437)
(-0.458015 -0.182568 0.0646222)
(-0.678791 -0.198739 0.0822579)
(-0.842362 -0.209304 0.114052)
(-0.953913 -0.223146 0.144168)
(-1.0348 -0.232536 0.203748)
(-1.11824 -0.244328 0.245266)
(-1.18752 -0.244197 0.302016)
(-1.20121 -0.2484 0.336305)
(-1.17422 -0.250133 0.36624)
(-1.10722 -0.248817 0.394568)
(-0.996291 -0.243114 0.422789)
(-0.841458 -0.230081 0.45427)
(-0.667234 -0.205786 0.493818)
(-0.420164 -0.146725 0.54343)
(-0.13583 -0.119211 0.568077)
(-0.152905 0.0283808 0.823559)
(-0.155808 0.0828911 1.04295)
(-0.155488 0.115016 1.11212)
(-0.156802 0.163889 1.02031)
(-0.161181 0.153191 0.837279)
(-0.149697 0.131312 0.566863)
(-0.124493 0.143388 0.284917)
(-0.225961 0.438891 0.370264)
(-0.507785 0.466905 0.334847)
(-0.693053 0.479993 0.338811)
(-0.918056 0.464845 0.332367)
(-1.10035 0.424318 0.308442)
(-1.22758 0.353 0.265782)
(-1.28336 0.273186 0.218719)
(-1.26621 0.206055 0.181533)
(-1.23319 0.147855 0.158298)
(-1.19022 0.11517 0.140411)
(-1.10075 0.0924674 0.0902451)
(-0.958902 0.0451112 0.0699007)
(-0.767453 -0.0207539 0.0594815)
(-0.500917 -0.114007 0.0190166)
(-0.253218 -0.207813 -0.0189764)
(-0.274152 -0.197567 -0.0662741)
(-0.318438 -0.176994 0.0081565)
(-0.314654 -0.174194 0.0594916)
(-0.272798 -0.15667 0.150742)
(-0.38109 -0.23393 0.118397)
(-0.423023 -0.297181 0.1185)
(-0.327083 -0.288263 0.17723)
(-0.270039 -0.215381 0.0453484)
(-0.140923 -0.101009 -0.0258785)
(-0.141041 -0.0769829 -0.00720953)
(-0.13864 -0.0743417 -0.0354588)
(-0.169349 -0.0558106 -0.0679332)
(-0.167917 -0.501775 -0.148621)
(-0.126268 -0.480055 -0.138099)
(-0.11077 -0.447466 -0.0954914)
(-0.100592 -0.424386 -0.145681)
(-0.26684 -0.53855 -0.0315218)
(-0.276704 -0.576079 -0.0257718)
(-0.284225 -0.632509 -0.0838926)
(-0.337714 -0.583286 -0.0199725)
(-0.340548 -0.530416 0.0551751)
(-0.301901 -0.359445 0.0854114)
(-0.444895 -0.317281 0.114835)
(-0.361963 -0.432141 0.0403596)
(-0.347873 -0.523111 0.0139801)
(-0.378357 -0.5088 -0.023755)
(-0.428964 -0.39479 0.032079)
(-0.497759 -0.346872 0.0731079)
(-0.5294 -0.255087 0.163937)
(-0.591738 -0.215643 0.241539)
(-0.680687 -0.197745 0.256123)
(-0.576947 -0.206905 0.211724)
(-0.517186 -0.187946 0.181282)
(-0.54547 -0.185064 0.117892)
(-0.540019 -0.172141 0.0919024)
(-0.496474 -0.184308 0.000753532)
(-0.762154 -0.0867494 0.0645301)
(-0.972398 -0.00542179 0.0896251)
(-1.08011 0.0520972 0.103493)
(-1.12935 0.0749997 0.138074)
(-1.16702 0.0358069 0.237839)
(-1.2518 0.0689782 0.267076)
(-1.31789 0.119405 0.348923)
(-1.33152 0.17088 0.431541)
(-1.27423 0.221973 0.523932)
(-1.14935 0.260991 0.603502)
(-0.976712 0.281354 0.647924)
(-0.776336 0.283784 0.656847)
(-0.623301 0.289093 0.643853)
(-0.341798 0.272877 0.643388)
(-0.435141 0.245764 0.874224)
(-0.467105 0.228554 1.00274)
(-0.460034 0.180829 1.08108)
(-0.440767 0.124695 1.01309)
(-0.439426 0.0593808 0.797821)
(-0.711034 -0.00462246 0.744135)
(-0.721652 0.07204 0.944276)
(-0.740351 0.11781 1.02327)
(-0.745258 0.16491 0.979275)
(-0.695273 0.199346 0.872217)
(-0.838598 0.18676 0.86212)
(-0.880186 0.146395 0.96487)
(-0.882872 0.0887434 1.00101)
(-0.873121 0.0423788 0.926196)
(-0.866775 -0.0386781 0.706911)
(-1.01024 -0.0600244 0.675787)
(-1.02489 0.0208305 0.901026)
(-1.03799 0.0698522 0.966181)
(-1.04641 0.122352 0.943996)
(-1.0217 0.174244 0.853853)
(-1.16541 0.163114 0.803892)
(-1.16581 0.110799 0.892647)
(-1.14888 0.0573591 0.914546)
(-1.13158 0.00668688 0.859422)
(-1.11136 -0.0728619 0.640087)
(-1.17156 -0.0835595 0.595492)
(-1.19727 -0.00606024 0.79687)
(-1.22378 0.0437566 0.84006)
(-1.25333 0.0919599 0.811457)
(-1.27111 0.141438 0.716799)
(-1.32064 0.11089 0.610179)
(-1.29206 0.068909 0.709244)
(-1.25345 0.0250657 0.747252)
(-1.21788 -0.021645 0.716414)
(-1.18757 -0.0934077 0.53977)
(-1.15432 -0.104688 0.472709)
(-1.18266 -0.041359 0.621409)
(-1.22167 0.000212749 0.640752)
(-1.27617 0.0391588 0.606469)
(-1.30936 0.0742519 0.509181)
(-1.22623 0.0356629 0.414385)
(-1.18935 0.00283756 0.50017)
(-1.12948 -0.0322137 0.53124)
(-1.08709 -0.0601103 0.520258)
(-1.0406 -0.111795 0.386791)
(-0.919595 -0.120191 0.315224)
(-0.923937 -0.109429 0.358176)
(-0.973507 -0.0804277 0.438346)
(-0.957475 -0.0870854 0.425157)
(-0.928649 -0.102711 0.394805)
(-1.0055 -0.0685114 0.381513)
(-0.997221 -0.0631272 0.307521)
(-1.00193 -0.0392276 0.282875)
(-1.04505 -0.0272112 0.209167)
(-1.04005 -0.00955392 0.202449)
(-0.807014 -0.105254 0.145369)
(-0.819934 -0.125297 0.15792)
(-0.788929 -0.128527 0.216369)
(-0.824887 -0.1416 0.249536)
(-0.610767 -0.281951 0.1332)
(-0.557624 -0.29172 0.114993)
(-0.504082 -0.327165 0.132671)
(-0.420626 -0.399937 0.116242)
(-0.397227 -0.384331 0.149717)
(-0.488515 -0.284451 0.165498)
(-0.606538 -0.239251 0.183867)
(-0.615999 -0.268054 0.0969801)
(-0.514045 -0.378225 0.04416)
(-0.440025 -0.460547 0.0282391)
(-0.397654 -0.526744 0.057947)
(-0.384207 -0.698395 0.122388)
(-0.387345 -0.663781 0.128099)
(-0.405743 -0.380622 0.107077)
(-0.408776 -0.53689 0.0815973)
(-0.399645 -0.602367 0.0439282)
(-0.216032 -0.788842 -0.158613)
(-0.193629 -0.794671 -0.259606)
(-0.115488 -0.70449 -0.369345)
(-0.0786284 -0.62456 -0.385352)
(-0.0452405 -0.589439 -0.347643)
(-0.0138189 -0.556563 -0.301378)
(0.0314192 -0.502541 -0.232114)
(0.124137 -0.456055 -0.108979)
(0.124712 -0.580888 -0.121967)
(0.11681 -0.637457 -0.120254)
(0.0848209 -0.695513 -0.157715)
(0.0921962 -0.750216 -0.155813)
(0.10034 -0.806773 -0.174942)
(0.118072 -0.835097 -0.167018)
(0.126089 -0.841874 -0.152839)
(0.126313 -0.828086 -0.130317)
(0.117678 -0.792031 -0.0960208)
(0.104069 -0.735437 -0.0427796)
(0.0376428 -0.655711 0.0330559)
(0.00167138 -0.547413 0.152637)
(0.0151827 -0.301993 0.359401)
(-0.146126 0.0103743 0.448772)
(-0.365425 0.0944235 0.350593)
(-0.391606 -0.0402151 0.25647)
(-0.219153 -0.17251 0.252211)
(-0.179612 -0.18894 0.268523)
(-0.157032 -0.178462 0.214164)
(-0.0907049 -0.143677 0.205671)
(-0.000129904 -0.0344991 0.0715555)
(-0.0360073 0.110505 0.080793)
(-0.0809066 0.148154 0.0802583)
(-0.0495198 0.212458 0.170168)
(-0.00629022 0.180628 0.19162)
(0.0148642 0.0356878 0.142812)
(-0.044745 -0.0297048 0.227276)
(0.0243606 0.0911431 0.323269)
(-0.00226284 -0.064875 0.286039)
(0.0776134 0.142908 0.246778)
(0.090984 -0.0265459 0.227116)
(-0.0199031 -0.257259 0.455982)
(0.0517244 -0.361099 0.544456)
(0.172972 -0.506327 0.513674)
(0.166045 -0.695653 0.350613)
(0.0749896 -0.819056 0.143128)
(0.0588432 -0.890568 -0.00821809)
(0.0652414 -0.924783 -0.119776)
(0.0632526 -0.951099 -0.197839)
(0.060145 -0.965723 -0.248735)
(0.052016 -0.963887 -0.279333)
(0.0418638 -0.943954 -0.292625)
(0.0292706 -0.906343 -0.289433)
(0.0236003 -0.831616 -0.249764)
(0.00731186 -0.785808 -0.328997)
(0.0435172 -0.704964 -0.225461)
(0.0475411 -0.654699 -0.211532)
(0.0447371 -0.637168 -0.23223)
(0.00458902 -0.70316 -0.32537)
(-0.0225935 -0.742705 -0.383105)
(-0.0573781 -0.777961 -0.410815)
(-0.073336 -0.844725 -0.401648)
(-0.13219 -0.905181 -0.345818)
(-0.0941588 -0.969683 -0.331499)
(-0.0891121 -0.980458 -0.37291)
(-0.0538595 -0.919 -0.418045)
(-0.0436123 -0.869038 -0.43199)
(-0.0177693 -0.826939 -0.404395)
(-0.00965063 -0.870424 -0.341188)
(-0.0393976 -0.902614 -0.374093)
(-0.0561437 -0.949227 -0.396429)
(-0.0238151 -0.992385 -0.40571)
(-0.0487493 -1.06073 -0.420231)
(-0.0666559 -1.04335 -0.423914)
(-0.0936284 -0.921141 -0.344681)
(-0.18686 -0.762407 -0.224262)
(-0.198839 -0.614275 -0.040659)
(-0.100261 -0.734032 -0.196592)
(-0.0798147 -0.840187 -0.259082)
(-0.0594738 -0.92951 -0.322976)
(-0.060855 -0.946908 -0.333698)
(-0.0277024 -0.830021 -0.380342)
(-0.0238807 -0.725082 -0.336606)
(-0.0320415 -0.542658 -0.253168)
(-0.0160658 -0.353565 -0.162286)
(0.0331244 -0.0911151 -0.207482)
(-0.248795 -0.434144 0.0734937)
(-0.329883 -0.461814 0.0264161)
(0.222163 -0.118234 -0.244451)
(-0.172563 -0.247533 0.0438046)
(-0.218125 -0.266699 -0.116354)
(-0.258488 -0.268969 -0.103066)
(-0.20865 -0.281779 -0.0211472)
(0.0812627 0.140645 -0.218995)
(0.102825 0.059448 -0.231491)
(0.101023 -0.00039649 -0.260256)
(0.0965533 -2.06908e-05 -0.265373)
(-0.0798017 -0.43011 -0.200957)
(-0.132822 -0.450283 -0.222204)
(-0.185981 -0.45864 -0.206292)
(-0.248989 -0.445384 -0.169053)
(-0.168933 -0.54781 -0.184103)
(-0.126775 -0.559725 -0.256994)
(-0.0961849 -0.566068 -0.291107)
(-0.0605061 -0.554325 -0.291305)
(-0.0506512 -0.743373 -0.348657)
(-0.0815736 -0.757966 -0.33175)
(-0.106346 -0.770221 -0.281557)
(-0.147163 -0.760418 -0.194643)
(-0.134493 -0.822212 -0.182251)
(-0.12879 -0.883212 -0.200222)
(-0.0981638 -0.905929 -0.297268)
(-0.0726873 -0.873053 -0.373559)
(-0.0491587 -0.852905 -0.399764)
(-0.0767955 -0.968565 -0.370577)
(-0.112187 -0.990175 -0.335633)
(-0.138137 -1.0104 -0.283476)
(-0.137198 -1.09313 -0.346787)
(-0.0801439 -1.0676 -0.399008)
(-0.0725464 -1.14522 -0.440716)
(-0.0494137 -1.12378 -0.473353)
(-0.0269656 -1.11486 -0.458647)
(-0.00334426 -1.04304 -0.4154)
(0.0120771 -1.07513 -0.406588)
(-0.0127279 -1.15342 -0.469604)
(-0.0398663 -1.18042 -0.494101)
(-0.0685681 -1.20851 -0.462869)
(-0.131554 -1.22898 -0.37908)
(-0.134888 -1.16668 -0.369121)
(-0.28363 -1.04677 -0.22534)
(-0.457301 -1.14614 -0.0769528)
(-0.46369 -1.10023 -0.0674699)
(-0.415999 -1.04596 -0.0647477)
(-0.302842 -1.03648 -0.0737954)
(-0.255714 -0.967759 -0.0639952)
(-0.309167 -0.945215 -0.0575848)
(-0.342281 -0.849324 -0.0421609)
(-0.378047 -0.713936 -0.0378263)
(-0.473737 -0.62716 -0.0366557)
(-0.409807 -0.401655 -0.0340074)
(-0.464735 -0.661099 -0.00578851)
(-0.31658 -0.457852 0.0246432)
(-0.638373 -0.398958 0.00545082)
(-0.815348 -0.37954 0.060137)
(-0.917895 -0.384651 0.0846073)
(-0.967959 -0.397431 0.124337)
(-0.979917 -0.525565 0.0977625)
(-0.94022 -0.689734 0.0653673)
(-0.923903 -0.750533 0.0524915)
(-0.874377 -0.848882 0.0364295)
(-0.858747 -0.896074 0.0304474)
(-0.820877 -0.928408 0.00759943)
(-0.703579 -0.96814 -0.023029)
(-0.592392 -1.00274 -0.0420027)
(-0.62665 -0.953338 -0.0172083)
(-0.484864 -0.972416 -0.0306971)
(-0.502756 -0.894096 -0.0301116)
(-0.530374 -0.797593 -0.0232544)
(-0.559208 -0.731337 -0.0194367)
(-0.686332 -0.712884 -0.00979863)
(-0.674896 -0.598503 -0.00777175)
(-0.824096 -0.577551 0.0303384)
(-0.918482 -0.559892 0.0503939)
(-0.881341 -0.697419 0.023134)
(-0.800352 -0.705001 0.0121899)
(-0.777462 -0.790248 0.00227515)
(-0.660822 -0.798767 -0.0107735)
(-0.635661 -0.88319 -0.0170387)
(-0.748397 -0.866724 -0.00514233)
(-0.825446 -0.851051 0.00443001)
(-0.863096 -0.773428 0.0135004)
(-0.801602 -0.739323 -0.0117811)
(-0.62423 -0.612507 0.00189478)
(-0.84716 -0.659999 0.0116847)
(-0.868193 -0.518609 0.0520668)
(-0.870618 -0.379941 0.058157)
(-0.843592 -0.282352 0.121635)
(-0.832521 -0.302373 0.0765572)
(-0.879054 -0.350773 0.0525771)
(-0.875475 -0.203986 0.129066)
(-0.894525 -0.184291 0.174113)
(-0.761036 -0.161587 0.158488)
(-0.766919 -0.129126 0.259212)
(-0.778269 -0.120825 0.302015)
(-0.822071 -0.108711 0.355448)
(-0.829633 -0.119329 0.352795)
(-0.642904 -0.18183 0.251203)
(-0.607897 -0.173755 0.248601)
(-0.56791 -0.180584 0.21569)
(-0.551374 -0.175746 0.18902)
(-0.568965 -0.191298 0.120413)
(-0.338434 -0.194925 0.0769644)
(-0.32036 -0.189433 0.101913)
(-0.329604 -0.192127 0.114486)
(-0.360946 -0.199032 0.12464)
(-0.449663 -0.217041 0.141991)
(-0.405641 -0.253545 0.059903)
(-0.382515 -0.2851 0.0685746)
(-0.411057 -0.341275 0.0471954)
(-0.316279 -0.427223 0.0360791)
(-0.312081 -0.394603 0.0493399)
(-0.283876 -0.416544 0.0158425)
(-0.193158 -0.419782 -0.0202614)
(-0.337467 -0.254286 0.0355929)
(-0.403318 -0.331146 0.0412326)
(-0.248513 -0.457729 -0.00649425)
(-0.291953 -0.460128 0.000455668)
(-0.452188 -0.32143 0.0720745)
(-0.525006 -0.299177 0.131366)
(-0.498345 -0.318849 0.136434)
(-0.471157 -0.336996 0.11147)
(-0.458894 -0.350843 0.094326)
(-0.493225 -0.373353 0.0086012)
(-0.710838 -0.317954 0.0631707)
(-0.717853 -0.530092 0.0389333)
(-0.549006 -0.554678 -0.00178843)
(-0.509881 -0.607409 -0.00403543)
(-0.465635 -0.649722 -0.0175067)
(-0.436889 -0.652983 -0.021168)
(-0.412837 -0.531175 -0.0229982)
(-0.410984 -0.541129 -0.0484759)
(-0.409844 -0.541597 -0.0343996)
(-0.335383 -0.550715 -0.0170598)
(-0.267372 -0.596237 -0.00726722)
(-0.319411 -0.581237 -0.00347863)
(-0.403342 -0.513289 0.00712717)
(-0.331909 -0.535681 -0.004147)
(-0.43862 -0.630737 -0.011905)
(-0.292858 -0.473501 -0.00508599)
(-0.210247 -0.54002 -0.0182185)
(-0.280938 -0.524971 -0.0161944)
(-0.394353 -0.436355 -0.000699744)
(-0.413797 -0.362977 -0.0104066)
(-0.260499 -0.394447 -0.0109806)
(-0.156878 -0.423213 -0.0362043)
(-0.136236 -0.399804 -0.0224561)
(-0.238128 -0.205515 0.0225387)
(-0.382503 -0.343082 -0.00193357)
(-0.251585 -0.474893 -0.0196127)
(-0.218938 -0.468325 -0.023511)
(-0.122021 -0.39316 -0.0297843)
(-0.219266 -0.194664 0.0394368)
(-0.346813 -0.338172 0.0123026)
(-0.366272 -0.363534 0.0542881)
(-0.195826 -0.511489 -0.010661)
(-0.174109 -0.46842 0.0188866)
(-0.11004 -0.420569 0.00224788)
(-0.222435 -0.229262 0.0449473)
(-0.325942 -0.342135 0.0525147)
(-0.335247 -0.339227 0.0571881)
(-0.180691 -0.463601 0.0169539)
(-0.109426 -0.409325 0.000426912)
(-0.232142 -0.220664 0.0624288)
(-0.286208 -0.221647 0.0777844)
(-0.240661 -0.230471 0.0715696)
(-0.350542 -0.337284 0.0787446)
(-0.189825 -0.465694 0.048693)
(-0.117929 -0.415979 0.0378173)
(-0.140644 -0.450075 -0.00342531)
(-0.196618 -0.498005 0.0260071)
(-0.381924 -0.350939 0.0793467)
(-0.334537 -0.62596 -0.0033637)
(-0.355763 -0.632644 -0.0114981)
(-0.499482 -0.512273 0.0579628)
(-0.6515 -0.445021 0.0983443)
(-0.667023 -0.286969 0.136411)
(-0.798478 -0.271736 0.170568)
(-0.891185 -0.320927 0.166489)
(-1.02098 -0.489063 0.125997)
(-1.10786 -0.495326 0.167769)
(-1.13274 -0.502891 0.192961)
(-1.11271 -0.505177 0.215978)
(-1.04932 -0.501376 0.238875)
(-0.943559 -0.490331 0.260764)
(-0.794371 -0.466876 0.287363)
(-0.639313 -0.431658 0.326993)
(-0.396524 -0.380636 0.396095)
(-0.16061 -0.293806 0.485049)
(0.0477719 -0.150938 0.487999)
(0.341531 -0.158304 0.428133)
(0.341346 -0.214496 0.377134)
(0.205658 -0.128232 0.486363)
(0.273743 -0.00386377 0.765754)
(0.284826 0.0452151 1.03215)
(0.269591 0.080056 1.14288)
(0.251138 0.132671 1.09311)
(0.212904 0.122212 0.956662)
(0.142166 0.120992 0.705438)
(0.0398254 0.187875 0.405958)
(0.173885 0.513813 0.425494)
(0.421249 0.515163 0.374666)
(0.607728 0.539153 0.375804)
(0.852561 0.497697 0.351593)
(1.00987 0.416408 0.317886)
(1.07233 0.321846 0.274527)
(1.05302 0.253135 0.235313)
(0.996996 0.210087 0.201654)
(1.01185 0.158773 0.169853)
(1.0323 0.118181 0.14648)
(0.974465 0.0917296 0.0918294)
(0.872745 0.0419506 0.0685957)
(0.708576 -0.023475 0.0545314)
(0.464155 -0.110446 0.0212703)
(0.237395 -0.216906 -0.0238201)
(0.0980437 -0.617034 -0.111743)
(0.173573 -0.38084 -0.07909)
(-0.180186 -0.16941 0.0049813)
(-0.100129 -0.385738 -0.0393953)
(-0.109609 -0.303898 -0.0650385)
(-0.111683 -0.32721 -0.0728955)
(-0.108989 -0.282698 -0.0609246)
(-0.0747338 -0.198856 -0.0543472)
(-0.159719 -0.144924 -0.014682)
(-0.223637 0.269009 0.165335)
(-0.127423 0.492713 0.123098)
(-0.0396884 0.615383 0.0733695)
(0.0314009 0.657075 0.0758443)
(0.116474 0.673567 0.165359)
(0.212559 0.717807 0.285516)
(0.307218 0.754698 0.332427)
(0.392585 0.752357 0.366599)
(0.471678 0.690752 0.374752)
(0.538047 0.552521 0.372016)
(0.590244 0.332191 0.33703)
(0.569987 0.000477446 0.26283)
(0.393725 -0.336614 0.257045)
(0.293371 -0.337229 0.319257)
(0.228083 -0.291761 0.328942)
(0.161196 -0.201198 0.334178)
(0.147771 -0.00428613 0.31272)
(0.289769 0.00904494 0.340294)
(0.452784 -0.158693 0.330691)
(0.60533 -0.256155 0.342178)
(0.644553 -0.345128 0.351342)
(0.625525 -0.436888 0.353435)
(0.478615 -0.541339 0.334894)
(0.110555 -0.566103 0.316704)
(-0.169237 -0.298597 0.302183)
(-0.0367591 -0.129329 0.355477)
(0.230082 -0.152915 0.237838)
(0.281662 -0.404313 0.0723841)
(0.00824371 -0.520335 0.238352)
(-0.141462 -0.749672 -0.14228)
(0.200762 -0.721499 -0.481316)
(0.309012 -0.39643 -0.178036)
(0.332871 -0.377343 0.0922258)
(0.347725 -0.547383 0.182943)
(0.330879 -0.890375 0.120124)
(0.534078 -0.873198 0.065243)
(0.612952 -0.692911 0.0981116)
(0.578017 -0.539391 0.137371)
(0.508051 -0.39735 0.187627)
(0.338755 -0.232382 0.24594)
(0.362387 -0.348843 0.193971)
(0.425603 -0.379765 0.141315)
(0.506484 -0.365908 0.0789794)
(0.616099 -0.296533 -0.0566155)
(0.861089 0.191237 -0.117473)
(0.906518 0.474711 -0.0218105)
(0.852145 0.675198 0.0504473)
(0.752446 0.775112 0.0929775)
(0.622866 0.799245 0.138767)
(0.474942 0.767374 0.154698)
(0.310829 0.704765 0.165183)
(0.139581 0.640625 0.101524)
(-0.0333422 0.603658 0.0492129)
(-0.153356 0.564365 0.058955)
(-0.272536 0.45809 0.11879)
(-0.401943 0.265112 0.166751)
(-0.288433 -0.101863 0.020894)
(-0.408199 0.0479768 0.0791437)
(-0.492199 0.0918985 0.104512)
(-0.525746 0.212333 0.137791)
(-0.537753 0.15904 0.106587)
(-0.499944 0.022984 0.0273503)
(-0.453939 -0.0542052 0.0144362)
(-0.381956 -0.118323 -0.00761899)
(-0.286311 -0.19004 -0.0208549)
(-0.191414 -0.226368 -0.0356241)
(-0.138283 -0.195772 -0.027065)
(-0.19937 -0.155826 -0.0185831)
(-0.181977 -0.318063 -0.0309326)
(-0.121614 -0.314278 -0.0432935)
(-0.100432 -0.335764 -0.0706883)
(-0.0792313 -0.372158 -0.103614)
(-0.0484374 -0.562227 -0.221932)
(-0.08935 -0.502115 -0.149571)
(-0.107574 -0.609494 -0.1132)
(-0.15207 -0.617769 -0.0844745)
(-0.19575 -0.525721 -0.0769673)
(-0.301333 -0.333705 -0.0422994)
(-0.245063 0.216995 0.131053)
(-0.0932372 0.39069 0.288663)
(-0.000107363 0.482809 0.43261)
(0.071559 0.480122 0.555476)
(0.142082 0.420184 0.62209)
(0.195185 0.309777 0.653415)
(0.24745 0.158103 0.626562)
(0.234269 -0.019991 0.530149)
(0.105386 -0.139728 0.438658)
(-0.0116256 -0.104479 0.447787)
(-0.0325738 0.0111834 0.426182)
(-0.0345942 0.136136 0.428038)
(0.0375444 0.243485 0.370674)
(0.199946 0.136548 0.386612)
(0.158868 0.270813 0.452176)
(-0.0560022 0.183382 -0.0449861)
(-0.170232 -0.0711794 -0.643977)
(-0.179949 -0.30747 -0.54686)
(-0.168028 -0.346924 -0.313391)
(-0.143948 -0.306469 -0.0967175)
(-0.0624911 -0.590276 -0.107047)
(-0.0286716 -0.868159 -0.0931372)
(0.00118567 -1.02426 -0.0900786)
(0.0312629 -1.14654 -0.0988536)
(0.0641288 -1.22902 -0.112851)
(0.094391 -1.2807 -0.126732)
(0.121005 -1.30623 -0.138682)
(0.145118 -1.31389 -0.150765)
(0.166222 -1.31104 -0.163517)
(0.184733 -1.30121 -0.174618)
(0.200586 -1.28601 -0.183408)
(0.214699 -1.26605 -0.188856)
(0.227172 -1.24106 -0.191813)
(0.238536 -1.20968 -0.190851)
(0.248206 -1.17047 -0.18578)
(0.254046 -1.12099 -0.175012)
(0.251266 -1.05849 -0.158351)
(0.194451 -0.995407 -0.138597)
(0.139579 -0.910546 -0.122491)
(0.164182 -0.826651 -0.086821)
(0.187434 -0.726294 -0.0880291)
(0.203556 -0.557885 -0.0879167)
(0.246317 -0.441104 -0.0842515)
(0.0719606 -0.0297135 -0.0952456)
(0.365274 -0.297311 0.043554)
(0.245264 -0.549529 -0.0569445)
(0.285436 -0.0942921 -0.0268032)
(0.18022 -0.0365629 -0.147081)
(0.200961 -0.111968 -0.124383)
(0.193687 -0.118922 -0.0805202)