/*--------------------------------*- C++ -*----------------------------------*\
| =========                 |                                                 |
| \\      /  F ield         | OpenFOAM: The Open Source CFD Toolbox           |
|  \\    /   O peration     | Version:  v2012                                 |
|   \\  /    A nd           | Website:  www.openfoam.com                      |
|    \\/     M anipulation  |                                                 |
\*---------------------------------------------------------------------------*/
FoamFile
{
    version     2.0;
    format      ascii;
    class       volScalarField;
    location    "220";
    object      alphat;
}
// * * * * * * * * * * * * * * * * * * * * * * * * * * * * * * * * * * * * * //

dimensions      [1 -1 -1 0 0 0 0];


internalField   nonuniform List<scalar> 
18258
(
0.0048483
0.00211054
0.00173047
0.00149955
0.000992096
0.00162369
0.00225495
0.00268435
0.00281627
0.00279212
0.00289081
0.00487801
0.00684548
0.00845991
0.00888718
0.00887421
0.00805561
0.0076928
0.00835951
0.010276
0.00863916
0.0055352
0.00662717
0.00766626
0.00835326
0.00740218
0.0059852
0.00554185
0.00501868
0.00418491
0.00351189
0.00240626
0.00175403
0.00162549
0.00147432
0.00168117
0.0018315
0.00195365
0.0019971
0.00202856
0.00201483
0.00200348
0.00194945
0.00191537
0.00185726
0.00153382
0.00184207
0.00191859
0.00209824
0.00289074
0.00310164
0.00260714
0.00288427
0.00257297
0.00169576
0.00194164
0.00210772
0.00215314
0.00212545
0.00203721
0.00200742
0.00198219
0.00195022
0.00191225
0.00188907
0.00190788
0.00192749
0.00190637
0.00181248
0.00173645
0.00161344
0.00149017
0.00139875
0.00132794
0.00127456
0.00121546
0.00114904
0.00100932
0.000935418
0.00123857
0.00155483
0.0016612
0.00235439
0.00287041
0.00288979
0.00216293
0.00154125
0.00159943
0.00177836
0.00179664
0.001523
0.00181146
0.00205228
0.00212719
0.00221676
0.0024774
0.00281906
0.00274772
0.00244713
0.00225475
0.00221576
0.00253811
0.00241157
0.00312747
0.00315128
0.00274908
0.00253062
0.00284766
0.00367185
0.00395144
0.00307392
0.00288682
0.00282982
0.00279424
0.0025268
0.00261459
0.00237396
0.00213901
0.00232997
0.00281681
0.00267204
0.002919
0.00302442
0.0028372
0.00328733
0.00379048
0.00373512
0.00298899
0.00243596
0.00227069
0.00228803
0.00139935
0.00151115
0.00162894
0.00166882
0.00169662
0.00172032
0.00183449
0.00183036
0.00180349
0.00179951
0.00183109
0.00100915
0.00109334
0.00112052
0.00112835
0.0010717
0.00106071
0.00104099
0.00102492
0.000966135
0.00092439
0.00110614
0.00124211
0.00135293
0.00148246
0.00167594
0.00191274
0.00216164
0.00241319
0.00257967
0.00262722
0.00267532
0.00257828
0.00248082
0.00256943
0.0025845
0.00256799
0.00253355
0.0024901
0.00243138
0.00232355
0.00244839
0.00244151
0.00229369
0.00196579
0.00200971
0.00200633
0.0020587
0.00204834
0.0020692
0.00203996
0.00200544
0.0019087
0.0017733
0.00147581
0.00144633
0.00146381
0.00187866
0.00228
0.00352107
0.00429312
0.00498091
0.00532696
0.00569847
0.00461474
0.00513785
0.00396338
0.00355752
0.0045203
0.00591218
0.00337377
0.0018441
0.00349699
0.00310396
0.00225376
0.00200607
0.00206745
0.00206569
0.00236493
0.00272794
0.00303026
0.00317638
0.00330452
0.00340704
0.00351967
0.00366273
0.00370202
0.00357625
0.00302692
0.00364834
0.00296495
0.00346582
0.00313621
0.00212318
0.00219477
0.00234369
0.00215123
0.00209471
0.00200279
0.00180812
0.00224726
0.00290783
0.00337326
0.00385607
0.00514106
0.00475605
0.00456244
0.00353257
0.00341609
0.00177357
0.0025302
0.00262188
0.00295341
0.00196239
0.00179165
0.00170089
0.00224453
0.0026003
0.00306799
0.00340276
0.00404052
0.003135
0.00358388
0.00324566
0.00226495
0.00217623
0.00311419
0.0033531
0.00275589
0.00246194
0.00309033
0.00292572
0.00207617
0.00165197
0.00254035
0.00262814
0.00189073
0.00472914
0.00503653
0.00477995
0.00581545
0.00728454
0.00831086
0.00775384
0.00687745
0.00766086
0.00607503
0.00589781
0.0063044
0.00529472
0.00370451
0.00379713
0.00392651
0.00403344
0.00433122
0.00460164
0.00493142
0.00524518
0.00476739
0.00395846
0.00299547
0.00206117
0.0020338
0.00202386
0.0018173
0.00269313
0.00407343
0.00404503
0.00229785
0.00133974
0.0015159
0.00171194
0.00169526
0.00122972
0.000925655
0.00159458
0.00182316
0.00185252
0.00180645
0.00170552
0.00178212
0.00286183
0.00440874
0.0048442
0.00501712
0.00518068
0.00529611
0.00536019
0.00538028
0.0053913
0.00540493
0.00541693
0.00543541
0.00541851
0.00530312
0.00466455
0.00293285
0.0017144
0.00159254
0.0017576
0.00188893
0.0020036
0.00170484
0.00104238
0.00166491
0.00213183
0.0024503
0.0024712
0.0023063
0.00223727
0.00352779
0.00469062
0.00552909
0.00569898
0.00577465
0.00571131
0.00570314
0.00557875
0.00554014
0.00485842
0.00347626
0.00380103
0.00408152
0.00412866
0.00422436
0.004368
0.00426713
0.00403141
0.00588928
0.00679617
0.0068832
0.00702902
0.00694516
0.00682478
0.00651443
0.00615993
0.00518547
0.00388853
0.00245344
0.00250444
0.00266586
0.00264007
0.00229786
0.00242132
0.00262815
0.00265452
0.00274138
0.0030746
0.00349225
0.00333096
0.00286604
0.00243443
0.00226677
0.00221936
0.00212939
0.00159515
0.00161893
0.00157358
0.00159943
0.00214818
0.00255672
0.00294876
0.00418311
0.00373141
0.0030344
0.00481377
0.00493277
0.00530043
0.0058553
0.0060002
0.00664881
0.004626
0.00416849
0.00428223
0.0034979
0.00323759
0.00327205
0.00328434
0.00306069
0.00335019
0.00332089
0.00320098
0.00353411
0.00389473
0.00513601
0.00622398
0.00656747
0.00676622
0.00684803
0.00682327
0.00669128
0.00673379
0.00591532
0.0059105
0.00566039
0.00549747
0.00543937
0.00516924
0.00591562
0.00614177
0.00621729
0.00637254
0.00661426
0.00643442
0.00623446
0.0060822
0.00597174
0.00585605
0.00591797
0.00602833
0.00614592
0.00631087
0.00653108
0.00656703
0.00633896
0.00616645
0.00604828
0.00593716
0.00594147
0.00604054
0.00615591
0.00631938
0.00652797
0.0064118
0.0062497
0.00610518
0.00598654
0.00588198
0.00567603
0.00581327
0.00596413
0.00608839
0.00616887
0.00532964
0.00569695
0.00559884
0.00506886
0.00474397
0.00360253
0.00389877
0.00411146
0.00447812
0.00497076
0.0050676
0.00425238
0.00364409
0.00355084
0.00352213
0.00360492
0.00363483
0.00365259
0.00412737
0.00622156
0.00626387
0.00628191
0.00628489
0.00537342
0.00522068
0.00486323
0.00889687
0.00828295
0.00717594
0.00591357
0.00316769
0.00271521
0.00321644
0.00391153
0.00437326
0.00482585
0.00320393
0.0019845
0.00231284
0.00239774
0.00233863
0.00216135
0.00180026
0.00166182
0.00150826
0.00162328
0.0028752
0.00458842
0.00516839
0.00522325
0.00517141
0.00507065
0.00494799
0.00477718
0.00471944
0.00595875
0.00807527
0.00909499
0.00905608
0.00778035
0.00634712
0.00358334
0.00185158
0.00137163
0.00145979
0.00160477
0.00188248
0.00167446
0.00142593
0.00156124
0.00147371
0.0029814
0.00513738
0.00653018
0.00775403
0.00763567
0.0066435
0.00541938
0.00512901
0.00524899
0.00533032
0.00539935
0.00547013
0.00551868
0.00548798
0.00499521
0.00308603
0.00184201
0.00163641
0.00175945
0.00206212
0.00219152
0.00221425
0.0021837
0.00189312
0.00313113
0.00497166
0.00316194
0.00172515
0.0018639
0.00185012
0.00326386
0.00325895
0.00318873
0.00496097
0.0052458
0.00523354
0.00491746
0.00469387
0.00277915
0.00315505
0.00316595
0.00318275
0.003235
0.00163437
0.00178169
0.00183739
0.00197854
0.00172904
0.0021946
0.000567944
0.000787661
0.00091504
0.000995114
0.00107217
0.00105175
0.00201253
0.0020426
0.00194928
0.0018983
0.00240846
0.00258419
0.00264096
0.00243207
0.002244
0.00238891
0.00239435
0.00225674
0.0021375
0.00221597
0.00221736
0.00212479
0.00180725
0.0016935
0.00185921
0.00183933
0.0018248
0.00327658
0.00327067
0.00309539
0.0050851
0.0050037
0.00560396
0.00556712
0.00555984
0.00553676
0.00559615
0.00562773
0.00565187
0.0056798
0.00566891
0.00561427
0.00781367
0.00552249
0.00481907
0.00278721
0.00268493
0.00189623
0.00166185
0.00195683
0.00209289
0.002269
0.00221773
0.00233783
0.00233499
0.00247766
0.00229969
0.00204196
0.00312743
0.00334102
0.00326306
0.00332757
0.00324925
0.00323011
0.00320641
0.00316097
0.00310616
0.00184954
0.00181431
0.00212455
0.00223017
0.00239635
0.00241801
0.0024705
0.00234297
0.00206056
0.00199456
0.00229713
0.00226613
0.00231025
0.00217814
0.00216907
0.0019323
0.00198126
0.00399562
0.00737673
0.00379636
0.00421717
0.00382068
0.00434562
0.00380629
0.00328255
0.00335959
0.00295898
0.00308656
0.00323768
0.00329624
0.00346441
0.00408367
0.00393141
0.00345095
0.00335077
0.00328481
0.00309723
0.00278786
0.00292031
0.00294647
0.00300968
0.00334492
0.00383752
0.00430158
0.00522794
0.00507326
0.00444398
0.00406324
0.00426156
0.00433512
0.00545772
0.00509899
0.00506848
0.00534651
0.00529338
0.00502387
0.0047602
0.0045948
0.00394471
0.00400948
0.00458867
0.00444031
0.00457618
0.0044962
0.00467459
0.00475963
0.00456816
0.00424535
0.00446379
0.00445474
0.00494676
0.00481047
0.00446267
0.00408195
0.00436419
0.00431189
0.00498058
0.00468758
0.00438395
0.00403613
0.00386662
0.00438845
0.00430764
0.00488426
0.00502651
0.00502897
0.00438438
0.00428171
0.00509206
0.00489848
0.00473293
0.00493017
0.00408325
0.00419838
0.00517217
0.00528028
0.00501053
0.00418365
0.00424622
0.00363996
0.0042816
0.00532946
0.00503417
0.00412636
0.00342447
0.0047903
0.00503883
0.00533059
0.0050378
0.00548601
0.00590975
0.00481717
0.00524081
0.0068486
0.00522702
0.00606575
0.00620026
0.0062369
0.00624025
0.00626453
0.00629597
0.00663317
0.00645259
0.00410306
0.00490629
0.00476626
0.00398769
0.00339223
0.00373645
0.00402445
0.0040828
0.00418643
0.00434567
0.00427081
0.00412963
0.00604465
0.00689283
0.00704667
0.00718625
0.00706641
0.0068871
0.0064809
0.0059887
0.00497977
0.00371596
0.00232168
0.00236792
0.00252481
0.00250245
0.00217249
0.00163847
0.00107624
0.00159416
0.00164595
0.00154929
0.00141206
0.00124731
0.00129118
0.00235234
0.00438203
0.00623988
0.00695305
0.00754092
0.00812365
0.00863223
0.00901537
0.00930097
0.00950304
0.00963319
0.00966275
0.00948642
0.00866654
0.00828756
0.00781434
0.00742395
0.00687544
0.0064321
0.00727407
0.00798487
0.00841889
0.00890716
0.00912995
0.00903091
0.00783879
0.00761888
0.00878295
0.010816
0.00920352
0.0115601
0.0135785
0.0105742
0.00949631
0.0094794
0.0105954
0.010801
0.0104257
0.00983793
0.00916237
0.00830296
0.00874297
0.0091387
0.00951641
0.00986447
0.0107626
0.0109169
0.0108299
0.0106456
0.0104113
0.0101058
0.00964517
0.00900306
0.00819991
0.00736269
0.00640853
0.00443973
0.00219304
0.00246924
0.002436
0.00253387
0.00251346
0.00118776
0.00130948
0.00132334
0.00132888
0.0012511
0.00142186
0.00205822
0.00330759
0.00238032
0.00195992
0.00136425
0.0016028
0.00267124
0.00452419
0.00509556
0.00520189
0.00573053
0.00736056
0.00800845
0.00844613
0.00881134
0.00902132
0.00891577
0.00864733
0.00816623
0.00757092
0.00732168
0.00691624
0.00654292
0.00633192
0.00611605
0.00573901
0.00452201
0.0043248
0.00450331
0.00445004
0.00425936
0.00454957
0.00471267
0.00470766
0.00475912
0.00480411
0.00494517
0.00511127
0.00525567
0.00533102
0.00535848
0.00536663
0.005377
0.00538519
0.00540125
0.00538268
0.00526467
0.00462278
0.00289112
0.00168792
0.00156071
0.00171123
0.00180964
0.00185178
0.00164447
0.00105856
0.00164522
0.00212939
0.00218386
0.00239562
0.00247086
0.00261804
0.00291575
0.0033695
0.00347699
0.00308554
0.00292306
0.00286126
0.00278845
0.00238922
0.00297696
0.00327982
0.00327306
0.00324141
0.00350294
0.00431078
0.00414117
0.00365205
0.00361198
0.00357598
0.00323701
0.00318746
0.00347952
0.00351756
0.00364845
0.00427786
0.00513005
0.00475951
0.00433511
0.00415636
0.00383865
0.00338028
0.00305651
0.00375513
0.00307825
0.00162774
0.00138671
0.00137992
0.00138667
0.00133924
0.00158495
0.00166484
0.00168362
0.00156195
0.00173445
0.00193131
0.00186951
0.00212376
0.00209407
0.0018725
0.00185712
0.00200698
0.00211696
0.00217373
0.00223745
0.00365273
0.00376922
0.00291712
0.00421055
0.00486179
0.00482629
0.00511397
0.00421042
0.0037691
0.00447168
0.00517072
0.00593662
0.00469445
0.00443524
0.0045417
0.00208991
0.0010996
0.00155133
0.00192541
0.00214399
0.00207862
0.00196322
0.00165947
0.00293938
0.00302053
0.00478236
0.005365
0.00543075
0.00539934
0.00558469
0.00618372
0.0072254
0.00791778
0.00811972
0.00799979
0.00766885
0.00705441
0.00644666
0.00638463
0.00615205
0.00597271
0.00591264
0.00514225
0.00453432
0.00484198
0.0047659
0.00492491
0.00499823
0.00505096
0.0051048
0.0051956
0.0053052
0.00540444
0.00547169
0.00551604
0.00555336
0.00559179
0.00563062
0.00567279
0.00569504
0.00564016
0.00509688
0.00305868
0.00182435
0.00166463
0.00177618
0.00208745
0.00219773
0.00236205
0.00209788
0.00110516
0.00129915
0.00225817
0.00250262
0.00231512
0.00216682
0.00212845
0.00178303
0.00322774
0.00318495
0.00499528
0.00561779
0.00569648
0.00568111
0.0056376
0.0055887
0.00554354
0.00550671
0.00547773
0.00544668
0.00540143
0.00534613
0.00529348
0.00524001
0.00514826
0.00501476
0.00487999
0.00508679
0.00523275
0.00544143
0.00569196
0.00583153
0.00573179
0.00556375
0.00547368
0.00549433
0.00553898
0.00558665
0.00562959
0.00564981
0.00558788
0.00526732
0.00494427
0.00313422
0.00317493
0.00156434
0.00173801
0.0020054
0.00207109
0.00224988
0.00224025
0.0017622
0.00137254
0.00154771
0.00144588
0.00258191
0.00283882
0.00314739
0.00311612
0.00169406
0.00173714
0.00180528
0.00203759
0.00189454
0.00183
0.00449789
0.00431536
0.00452022
0.00554621
0.00477992
0.00330417
0.00362284
0.00503975
0.005313
0.00321458
0.00241002
0.00267456
0.00338829
0.00498623
0.00504691
0.00479247
0.00476724
0.00348471
0.00428206
0.00514723
0.00500659
0.00390982
0.00269448
0.0020045
0.000975751
0.00185633
0.00158775
0.00388478
0.0042982
0.00424618
0.00464337
0.00493414
0.00498506
0.00484324
0.00429762
0.00438255
0.00442552
0.00504085
0.00506247
0.00428846
0.00361951
0.00294177
0.00296739
0.00302421
0.00335094
0.00419593
0.00395353
0.0034655
0.00336101
0.00328911
0.0030945
0.00279278
0.00245041
0.00246717
0.00229632
0.00222232
0.00350299
0.00466271
0.00549833
0.00565667
0.00571423
0.00562692
0.00558753
0.00542819
0.00534594
0.00464458
0.00592951
0.00626706
0.00604728
0.00609167
0.00612928
0.00617545
0.00617564
0.00605895
0.00520729
0.00311014
0.0020317
0.00229324
0.0024753
0.00232454
0.0023113
0.00246324
0.00233722
0.00205296
0.00332606
0.00325079
0.00519719
0.00588493
0.00601154
0.00601945
0.00599545
0.00597545
0.00598304
0.0062978
0.00615393
0.00623714
0.00657145
0.00658358
0.00666248
0.00625474
0.00617472
0.00612353
0.00608924
0.00603363
0.00588539
0.00520815
0.0050491
0.00573385
0.00591069
0.00598939
0.00604422
0.00610984
0.00619599
0.00644283
0.00662656
0.00669447
0.00641903
0.00631899
0.0061722
0.00596326
0.00591427
0.00590447
0.00590012
0.00587149
0.00571892
0.00503461
0.00323749
0.00331742
0.00197359
0.00198655
0.0022881
0.00240339
0.00236065
0.00218612
0.00213151
0.0036598
0.00416595
0.00443316
0.00477379
0.00455896
0.00453288
0.0051825
0.00501547
0.00447602
0.0046557
0.00417234
0.0039774
0.00384315
0.00386304
0.00203772
0.00219878
0.00229335
0.00225517
0.00215646
0.00192335
0.00176376
0.00321857
0.00319499
0.00315294
0.00187547
0.0018344
0.00216122
0.00209894
0.00192016
0.00163675
0.00179422
0.0027692
0.00309725
0.00480179
0.00497399
0.00532511
0.00569475
0.00583477
0.00587239
0.00589458
0.0059203
0.00597575
0.00604218
0.00606144
0.00606096
0.00611836
0.00610933
0.00610926
0.00607526
0.00603673
0.00599227
0.00594514
0.00586854
0.00571178
0.00533716
0.00497001
0.0056036
0.00565546
0.00576138
0.00587125
0.00591895
0.0059279
0.00590856
0.00586808
0.00582002
0.00576335
0.00576141
0.00591587
0.00595178
0.00597812
0.00595874
0.0059385
0.00593249
0.00590808
0.00586715
0.00575904
0.00565005
0.00560295
0.00550887
0.00565665
0.00572257
0.00573301
0.00578873
0.00587738
0.00590053
0.00589705
0.00585241
0.00581615
0.00577147
0.00569803
0.00560279
0.00527998
0.00534854
0.00543656
0.00555159
0.0056629
0.0057527
0.00580257
0.00580448
0.00574989
0.0057132
0.00571403
0.00566554
0.00569107
0.00571753
0.00568955
0.00568771
0.00569408
0.00563203
0.00551675
0.00535554
0.00518459
0.00504249
0.00496867
0.00484787
0.00522656
0.00537068
0.00549892
0.00561281
0.0057173
0.0058241
0.00586017
0.00585185
0.00578658
0.00574921
0.00574692
0.0056908
0.00568894
0.00574336
0.0057464
0.00577788
0.00583532
0.00581581
0.00573492
0.00553508
0.00534213
0.00517592
0.00501797
0.00484813
0.00479775
0.00487599
0.00481338
0.00488378
0.00505451
0.00526692
0.00544943
0.00556409
0.00559879
0.00563154
0.00568121
0.00567455
0.00564459
0.00562938
0.00556213
0.00550407
0.00543232
0.0052724
0.00506637
0.00488309
0.0048224
0.00491903
0.00501823
0.00492718
0.00458069
0.00476128
0.00492864
0.0050955
0.00533509
0.00561332
0.00573896
0.00578331
0.00575622
0.00573464
0.00573106
0.00567938
0.00566262
0.00571029
0.00571448
0.00573622
0.00577213
0.00573144
0.00562625
0.00528354
0.00488235
0.0046915
0.00458034
0.00442227
0.00495112
0.00505466
0.00492825
0.00484358
0.00497469
0.00512895
0.00528936
0.00539549
0.00543638
0.00549363
0.00556926
0.00560465
0.00555011
0.00548781
0.00541021
0.00537022
0.00536888
0.00533978
0.0052352
0.0051149
0.00497916
0.00514836
0.00524883
0.0051541
0.00466253
0.00473968
0.00484673
0.00490288
0.00527767
0.00561691
0.00570377
0.00571438
0.0056813
0.00565977
0.00566069
0.00563043
0.00557624
0.00556655
0.00556027
0.00562279
0.00570369
0.00573945
0.00575452
0.0054991
0.00505626
0.00499676
0.0047967
0.00469983
0.00522309
0.00528429
0.00516125
0.00504754
0.00528649
0.00538924
0.00541982
0.00540058
0.00534557
0.00530828
0.0053752
0.00548052
0.00539952
0.00505101
0.00474016
0.00489992
0.00493786
0.00492378
0.00485592
0.00474463
0.00450648
0.00503267
0.00554776
0.00558984
0.0050372
0.00504579
0.00488038
0.004527
0.00495557
0.00519407
0.00525085
0.00523932
0.00516561
0.00497326
0.00525555
0.00550227
0.00545623
0.00493882
0.0032057
0.0032508
0.00327575
0.00328023
0.00323731
0.00322584
0.00317908
0.00315547
0.00308267
0.0030093
0.00293825
0.00313505
0.00330345
0.00352906
0.00354794
0.0036412
0.0034884
0.00330465
0.00308804
0.00240046
0.00304645
0.00363524
0.00386088
0.0041514
0.00421134
0.0048571
0.005112
0.00525249
0.00515524
0.00413466
0.00350782
0.00280328
0.00182296
0.00113578
0.00133346
0.00138722
0.00146333
0.00179552
0.00329204
0.00168326
0.00233144
0.00182093
0.00313322
0.00166339
0.00103743
0.000685984
0.000872853
0.00103403
0.00104364
0.00100206
0.000835416
0.000657752
0.00067226
0.000628384
0.000667732
0.000602085
0.000689644
0.000642716
0.000885118
0.00129534
0.00150485
0.00154233
0.00124859
0.00141198
0.00117993
0.00136326
0.00121861
0.00132929
0.00127575
0.00156064
0.00171057
0.00163733
0.00164135
0.00143637
0.0010046
0.00116461
0.000915094
0.00109906
0.000841039
0.00108575
0.000931285
0.00121021
0.00124748
0.00124379
0.00119741
0.000914623
0.00108356
0.00085338
0.00104812
0.000862392
0.000918476
0.000763988
0.00110886
0.00112933
0.00104118
0.00110646
0.0012408
0.00132832
0.00145989
0.0013825
0.00157733
0.00152537
0.00154764
0.00146689
0.00142789
0.00139575
0.0013991
0.00137622
0.00138362
0.00142793
0.00142958
0.00143478
0.00147931
0.00145752
0.00142139
0.00139925
0.00124322
0.0010038
0.00174891
0.00180336
0.00183104
0.00183122
0.00179096
0.00176942
0.00170487
0.00168813
0.00163296
0.00160237
0.0015295
0.00147173
0.00140445
0.00157915
0.000884444
0.0010045
0.00106054
0.00109288
0.00111463
0.00112504
0.00113273
0.00112628
0.00111201
0.00108527
0.00107697
0.00104752
0.00133973
0.00152414
0.00159458
0.00161412
0.00151301
0.00144135
0.0031653
0.00383355
0.00581277
0.00594192
0.00446807
0.00445122
0.00153479
0.00162404
0.00110986
0.00155979
0.00160865
0.0015923
0.00150393
0.00108451
0.00162725
0.00113454
0.00152241
0.00114356
0.00139917
0.00116313
0.00165516
0.00211169
0.00203838
0.00184602
0.00126361
0.00105085
0.00105141
0.000898651
0.000986215
0.000812719
0.00099754
0.000841054
0.00123399
0.00173315
0.00194719
0.00198876
0.00156966
0.00216753
0.00163019
0.00236304
0.00187972
0.00232193
0.00186574
0.00215819
0.00267105
0.00268361
0.00262001
0.00211154
0.00169001
0.00189768
0.00168029
0.00193641
0.00280041
0.00183492
0.00279091
0.00115261
0.00157169
0.00162059
0.00159886
0.00150794
0.00101598
0.00258444
0.00136746
0.00242515
0.00156819
0.002503
0.00182243
0.00241749
0.00288736
0.00301897
0.00300518
0.00245318
0.00221384
0.00229051
0.00182757
0.00219439
0.00163587
0.00237539
0.00135295
0.0017565
0.00193488
0.002041
0.00204724
0.00167955
0.00332239
0.00208784
0.00315236
0.00219455
0.00281343
0.00225582
0.0024661
0.00291344
0.00289502
0.00287022
0.00243369
0.00197041
0.00260147
0.00185398
0.055563
0.128136
0.0510978
0.129547
0.0585428
0.0831547
0.0819285
0.0820949
0.0824229
0.0619103
0.135197
0.159648
0.166435
0.168436
0.167172
0.270132
0.220275
0.330885
0.214457
0.126316
0.0548286
0.0755385
0.194795
0.321535
0.482569
0.612427
0.417348
0.432066
0.275716
0.271892
0.25607
0.207288
0.127336
0.0638731
0.0109161
0.0119336
0.0171112
0.0228036
0.0178744
0.0108999
0.00215752
0.0022257
0.00227502
0.00230526
0.00229596
0.00224532
0.00227856
0.00214884
0.00201668
0.00225134
0.00245449
0.00270206
0.00316111
0.00348663
0.00313937
0.00343973
0.00364551
0.00381353
0.00395276
0.00415983
0.00439288
0.00459698
0.00460784
0.00422173
0.0035972
0.00292688
0.00246176
0.00233291
0.0021911
0.00193236
0.00176809
0.00165665
0.00160213
0.00157935
0.00162273
0.00177298
0.00190285
0.00194823
0.00190933
0.00187418
0.00184351
0.00164141
0.00191886
0.00263209
0.00265378
0.00454632
0.0052385
0.00534708
0.00535417
0.00474796
0.00303343
0.00303999
0.00305555
0.00311363
0.00312572
0.00313326
0.00312984
0.00311825
0.00309998
0.00306585
0.00304898
0.00299989
0.00295871
0.00285674
0.00286138
0.00289984
0.00292928
0.00288226
0.00289512
0.00283238
0.00364577
0.00488876
0.00554115
0.00579222
0.00600935
0.00583386
0.00807254
0.00688998
0.00485081
0.00479383
0.00473178
0.00561393
0.00565285
0.0051009
0.00512055
0.00466766
0.00290924
0.00289329
0.00289488
0.00309114
0.00315021
0.00325981
0.00328943
0.00331804
0.00333405
0.00333182
0.00333061
0.00330461
0.00328338
0.003211
0.00318668
0.00317675
0.00175146
0.00191124
0.00198168
0.00199399
0.00202081
0.00200806
0.00199497
0.00197086
0.00195409
0.00192142
0.00188264
0.00182788
0.00172011
0.00156798
0.00172705
0.00293515
0.00293617
0.00479985
0.00541
0.00544873
0.00607014
0.00576269
0.00545857
0.00586325
0.00528651
0.0052452
0.00474216
0.00294192
0.00298126
0.00176748
0.00174949
0.00204403
0.00198555
0.00212087
0.00217759
0.00218455
0.00221453
0.00224424
0.00228017
0.00233738
0.00235519
0.00232105
0.00231541
0.00218226
0.00188606
0.00190907
0.00225034
0.00235902
0.00218894
0.00214833
0.0021311
0.00207959
0.00203994
0.0020015
0.00202797
0.00218381
0.00218318
0.0021465
0.00204437
0.0019934
0.00173075
0.00167491
0.00292297
0.00294825
0.00484226
0.00499988
0.00497229
0.00571459
0.00636153
0.00724061
0.00617416
0.00501213
0.00517919
0.0059154
0.00438195
0.00362151
0.00215258
0.00165028
0.00199613
0.00193043
0.00200856
0.00208088
0.00184728
0.00198155
0.0018311
0.00166349
0.00165409
0.00165176
0.00169294
0.00170999
0.00174101
0.00174507
0.00178666
0.00178264
0.00178839
0.00181037
0.00182177
0.00201302
0.00218992
0.00184212
0.00156135
0.00151957
0.00143476
0.0013655
0.00139872
0.0013657
0.00135751
0.00133269
0.00131029
0.0012503
0.00130329
0.00138307
0.00161824
0.00155059
0.00125313
0.00111948
0.000765443
0.000779675
0.000785071
0.000809337
0.000818086
0.000828873
0.000832833
0.000846371
0.00084895
0.000853173
0.000852808
0.000873228
0.000870202
0.000860233
0.000853736
0.000858122
0.000862253
0.0008617
0.00126166
0.00140513
0.00153648
0.00182559
0.00215019
0.00185016
0.00156722
0.00134979
0.000867645
0.000880836
0.000897059
0.000905368
0.000924817
0.000942451
0.00096229
0.000974848
0.000984426
0.000994426
0.00100495
0.0010094
0.00100716
0.000988062
0.000976786
0.00100181
0.00110093
0.00115848
0.00123214
0.00125999
0.00128424
0.00129653
0.00129004
0.00130322
0.00128757
0.00128523
0.0012628
0.00125303
0.00124365
0.00123189
0.00121759
0.00118255
0.00117086
0.00123197
0.00208521
0.00272786
0.00314645
0.00346833
0.00319038
0.00257254
0.00272324
0.00477814
0.00451138
0.0026764
0.00249131
0.00229012
0.00198919
0.00176603
0.00213502
0.00243465
0.00266253
0.0028641
0.00304846
0.00317378
0.00333437
0.00354351
0.0039128
0.00395938
0.00361143
0.0029274
0.00247977
0.00231767
0.00223977
0.00210299
0.00195362
0.00200244
0.00201685
0.00195676
0.00188207
0.00186061
0.00189111
0.00192941
0.00190607
0.0019052
0.00170189
0.00170136
0.00290684
0.00296316
0.00455759
0.00480146
0.00484731
0.00311696
0.003074
0.00179561
0.00166748
0.00181906
0.00188819
0.00189201
0.00189951
0.00188958
0.00185641
0.00183213
0.00180386
0.00178105
0.00176113
0.00172668
0.00166129
0.00153456
0.00167292
0.00187583
0.00195785
0.00197867
0.00198851
0.00201971
0.00207119
0.00211248
0.00220805
0.0022182
0.00221743
0.00222536
0.00208033
0.0021456
0.00181599
0.00181357
0.0031431
0.00313495
0.00180108
0.00212669
0.00214083
0.0021158
0.00227764
0.00208429
0.00201813
0.00200696
0.00192206
0.00187687
0.0018167
0.00178098
0.00181647
0.00193317
0.00187301
0.0016599
0.0016021
0.00179598
0.001726
0.00143176
0.00122301
0.00118906
0.00113804
0.00110708
0.00116024
0.00120165
0.00122527
0.00125528
0.00126419
0.00131937
0.00128383
0.00134748
0.00142896
0.00149376
0.00177197
0.0019202
0.00173473
0.00170143
0.00168032
0.00167817
0.00168339
0.00161413
0.00160955
0.00157375
0.00155614
0.00150937
0.00148831
0.00146158
0.00146659
0.00148238
0.00162987
0.0042011
0.00535331
0.00557428
0.00951416
0.00384566
0.00392917
0.00770279
0.00318554
0.00478983
0.00513497
0.00536749
0.00560588
0.00513034
0.00650948
0.00454653
0.00505884
0.00528646
0.0046579
0.00172503
0.00192672
0.00224285
0.00202075
0.00178571
0.00121777
0.00131434
0.00135799
0.0013933
0.0014165
0.00144189
0.00146921
0.00149473
0.00151274
0.00151314
0.00146737
0.00141794
0.0013043
0.00126644
0.00131553
0.00136627
0.00120036
0.0011303
0.00114375
0.00116271
0.0011734
0.00117578
0.00118747
0.00119068
0.00120908
0.0011994
0.00120876
0.00118821
0.00119892
0.00118303
0.0011425
0.00108584
0.000989341
0.000965618
0.00139074
0.00148091
0.00155588
0.00176533
0.00203832
0.00217499
0.00194943
0.00179758
0.00172549
0.00191429
0.00191408
0.00347327
0.00666764
0.00298769
0.00334879
0.00974361
0.00387699
0.00301893
0.00306473
0.00309691
0.00310105
0.00180227
0.00213461
0.00206967
0.00207758
0.0017619
0.00147914
0.00132673
0.00118629
0.000804337
0.000801634
0.000807689
0.000819986
0.000823798
0.000788624
0.000788533
0.000784044
0.000782283
0.00076573
0.000761111
0.000747668
0.000739511
0.000720142
0.00070963
0.000691121
0.00068763
0.000713737
0.000790857
0.000954996
0.00106731
0.00121087
0.00123436
0.00139726
0.00348174
0.00403191
0.0055552
0.00550153
0.00867832
0.00542081
0.00409481
0.00370576
0.00542196
0.00560192
0.00521369
0.00706424
0.0048875
0.00323098
0.00478593
0.00396519
0.00479491
0.00467521
0.00494802
0.00784557
0.00826126
0.00233228
0.00207958
0.0021884
0.00248251
0.00294741
0.0027111
0.00309024
0.00308179
0.00237267
0.0015244
0.00485683
0.00586619
0.00467986
0.00559605
0.00867557
0.00349338
0.00340735
0.00301472
0.0025163
0.00228736
0.00225614
0.00251532
0.00301008
0.00754278
0.00806853
0.00738434
0.00734916
0.00668372
0.00740168
0.00922467
0.00918961
0.00810814
0.00758464
0.00783916
0.00482705
0.00304341
0.00354132
0.00391897
0.00522767
0.0053896
0.0113768
0.0038605
0.00426605
0.00433095
0.0057957
0.00561007
0.00991716
0.00420087
0.0045305
0.00596889
0.00796726
0.0146923
0.00536124
0.00565036
0.00812578
0.00824679
0.00754007
0.00545145
0.00494326
0.00538693
0.00405822
0.00396757
0.0033902
0.0050072
0.00673832
0.00532346
0.00516935
0.00440049
0.00390903
0.00401159
0.0041593
0.00345489
0.00340845
0.00393814
0.00291813
0.00281437
0.00299554
0.000828951
0.000424894
0.000434477
0.000445762
0.000454911
0.00046431
0.000471211
0.000479353
0.000483065
0.000483439
0.000484649
0.000512508
0.000507827
0.000491766
0.000446545
0.000509594
0.000808695
0.000809277
0.000509058
0.000448799
0.000805201
0.00128304
0.00151256
0.00178961
0.00181188
0.00156317
0.00135529
0.000834156
0.000821083
0.000497726
0.000581275
0.000631258
0.00055987
0.000624786
0.000579057
0.00061341
0.000619629
0.000573305
0.000570152
0.000572376
0.000567997
0.000557946
0.000545604
0.000530527
0.000518535
0.00051169
0.000506031
0.000494174
0.000412057
0.000383499
0.000459411
0.000730396
0.00072922
0.000684286
0.000646556
0.000614603
0.000600432
0.000596765
0.000593738
0.000604127
0.000623675
0.000629177
0.000634658
0.000683826
0.000662721
0.000707879
0.000664246
0.000709699
0.000666187
0.000612818
0.000514564
0.000530891
0.000856376
0.000865473
0.00139843
0.00159997
0.00181456
0.00182401
0.00203629
0.00214448
0.00181591
0.00188528
0.00216073
0.00201256
0.00179396
0.00180084
0.00161993
0.00162123
0.00143585
0.000897269
0.000885067
0.000555902
0.000539871
0.000643751
0.000632462
0.00070343
0.000752778
0.000753069
0.00075063
0.00073144
0.000724634
0.000637304
0.000624844
0.000625655
0.000606651
0.00060235
0.000627228
0.000682781
0.000799701
0.000966614
0.00105296
0.00109083
0.00104751
0.000938573
0.000690746
0.00062565
0.00108288
0.00112609
0.00200201
0.00475236
0.00218705
0.00424136
0.00306104
0.000764008
0.000853186
0.00108806
0.00121927
0.00131605
0.00137052
0.0012512
0.00104306
0.000785488
0.000648958
0.000971869
0.000840496
0.000950483
0.000830334
0.00107455
0.00124262
0.0012023
0.00121154
0.00102405
0.000834403
0.000883626
0.000793526
0.000874679
0.00073225
0.000881019
0.000795522
0.000999722
0.00100912
0.00098814
0.000936652
0.000713202
0.000748305
0.000627666
0.000680863
0.000611241
0.000631776
0.000598678
0.000698173
0.000804508
0.000772099
0.000769068
0.000631889
0.000495123
0.000546811
0.000472733
0.000535018
0.000415797
0.00050372
0.000422473
0.00054685
0.000563571
0.000566142
0.000561746
0.000456314
0.000536617
0.00065889
0.00069256
0.000698562
0.000665636
0.000513082
0.000794017
0.00071692
0.000875377
0.000757382
0.000828864
0.000754875
0.000879868
0.00112677
0.00117629
0.00118409
0.000960607
0.000954524
0.00174129
0.0964912
0.00156635
0.00185131
0.00190899
0.00190207
0.00157273
0.0015346
0.00190043
0.00140619
0.00199098
0.00125361
0.00212294
0.000809336
0.00123023
0.00132078
0.00131789
0.00122469
0.000820476
0.00242524
0.11956
0.308338
0.334318
0.333725