/*--------------------------------*- C++ -*----------------------------------*\
| =========                 |                                                 |
| \\      /  F ield         | OpenFOAM: The Open Source CFD Toolbox           |
|  \\    /   O peration     | Version:  v2012                                 |
|   \\  /    A nd           | Website:  www.openfoam.com                      |
|    \\/     M anipulation  |                                                 |
\*---------------------------------------------------------------------------*/
FoamFile
{
    version     2.0;
    format      ascii;
    class       volScalarField;
    location    "560";
    object      k;
}
// * * * * * * * * * * * * * * * * * * * * * * * * * * * * * * * * * * * * * //

dimensions      [0 2 -2 0 0 0 0];


internalField   nonuniform List<scalar> 
18258
(
0.033394
0.0157477
0.0122876
0.0101352
0.0109758
0.0139673
0.0167624
0.0211261
0.0255444
0.0314868
0.0385611
0.0474992
0.0535073
0.0606681
0.0636443
0.0619205
0.0520719
0.0473226
0.0565201
0.0810065
0.0710219
0.0513694
0.06227
0.0614563
0.0722671
0.076369
0.0601197
0.0548821
0.0494568
0.0437694
0.0372229
0.0231266
0.0240625
0.0287981
0.032017
0.035724
0.038585
0.0409241
0.0425871
0.0434108
0.04332
0.0420196
0.0393202
0.0352692
0.0298007
0.023813
0.0234206
0.0238102
0.0295163
0.0351208
0.0405849
0.046207
0.0546588
0.0447157
0.029058
0.0392274
0.0477139
0.0546077
0.0590289
0.0614702
0.0622268
0.0613075
0.0590124
0.055749
0.0517858
0.047447
0.0434322
0.0394513
0.0342132
0.0309553
0.0268496
0.0235101
0.0210745
0.0193657
0.0182495
0.0172439
0.0163762
0.0156412
0.0150243
0.0145991
0.0145085
0.0145362
0.0146383
0.014736
0.0150825
0.0127334
0.010959
0.0104917
0.010234
0.00957815
0.00811377
0.0106636
0.0117641
0.0121787
0.0124468
0.0136275
0.0147907
0.014367
0.0136421
0.012532
0.0125083
0.016989
0.0177872
0.0228243
0.0216263
0.0167894
0.0149044
0.0166861
0.0195265
0.022556
0.0192594
0.019243
0.0179491
0.0170374
0.0149003
0.0149483
0.0144416
0.0141344
0.0150613
0.0178095
0.0172159
0.0173205
0.0185442
0.0188701
0.0200992
0.0211175
0.0204658
0.0202824
0.0164375
0.0163373
0.0173785
0.0172519
0.0177325
0.0202172
0.020275
0.0206244
0.0208425
0.0236247
0.0236432
0.023606
0.023697
0.0245232
0.0235692
0.0231599
0.0231907
0.0232267
0.021064
0.0208395
0.0204721
0.0205094
0.0183525
0.0176163
0.0183461
0.0193254
0.0213009
0.0250555
0.0314915
0.0404137
0.0505102
0.060754
0.068528
0.0728904
0.0772551
0.0767311
0.0774324
0.0795329
0.0798985
0.078749
0.0768944
0.0747252
0.0717715
0.0671422
0.0666837
0.05904
0.0481433
0.0334207
0.0389309
0.0417685
0.0445206
0.0448136
0.0452854
0.0440651
0.0423013
0.0387209
0.0336203
0.0247366
0.0257891
0.0302282
0.0348829
0.0386629
0.042818
0.0464341
0.0482721
0.0499723
0.0592997
0.0570564
0.0551603
0.0568724
0.0584258
0.0616225
0.0600391
0.0561045
0.0501639
0.051823
0.0449556
0.0336376
0.0314333
0.0293242
0.0270199
0.0378178
0.0496088
0.0611886
0.0675612
0.0737545
0.0786306
0.0826978
0.087258
0.0817927
0.0766357
0.0578523
0.0840455
0.0659081
0.0505725
0.041238
0.033322
0.0314511
0.0342557
0.0343278
0.0325272
0.0279457
0.0220207
0.0230199
0.035787
0.0455558
0.0535566
0.0551551
0.0598449
0.0622357
0.0569663
0.0575386
0.046699
0.0478722
0.0513936
0.0460197
0.0437579
0.0351594
0.0274682
0.033599
0.0499999
0.0686443
0.0846518
0.0998023
0.0661816
0.0502272
0.0411135
0.0342939
0.0331141
0.0377247
0.0436753
0.0528874
0.0412061
0.0371414
0.03364
0.0307808
0.0257693
0.0274876
0.0286829
0.0269109
0.0496984
0.0574047
0.0613052
0.0839841
0.0928204
0.108841
0.107496
0.0929556
0.0966933
0.0693301
0.0690211
0.0864366
0.068404
0.0513917
0.0616968
0.0746325
0.0884448
0.101599
0.112909
0.122015
0.123714
0.112209
0.081336
0.0468336
0.0213093
0.0186447
0.0180833
0.0173761
0.0164916
0.0157096
0.0151
0.0121635
0.00952045
0.00928434
0.00946082
0.00940476
0.0082716
0.00951681
0.0115772
0.0137717
0.0152813
0.0164916
0.0175127
0.018248
0.0188372
0.0192361
0.019533
0.019801
0.020037
0.0202237
0.0203628
0.0204549
0.0204989
0.0204865
0.0204111
0.0202711
0.0200649
0.0197763
0.0193019
0.0177705
0.0159142
0.0150827
0.0151413
0.014891
0.0145877
0.0119516
0.0123274
0.0143464
0.0149804
0.0177749
0.0198127
0.0215173
0.0229727
0.0245009
0.0252783
0.0261077
0.0263741
0.0264275
0.0263284
0.0261799
0.0259575
0.0256573
0.024592
0.0213039
0.0249085
0.0273044
0.0289906
0.0303406
0.0312407
0.0313402
0.0285944
0.0360665
0.0385324
0.0394376
0.0397039
0.038887
0.036883
0.0344442
0.0323976
0.0308931
0.0297777
0.0276375
0.0253914
0.0230823
0.0206659
0.017441
0.018709
0.0205462
0.0207567
0.0204665
0.0215118
0.0227719
0.0211188
0.0190317
0.0161363
0.0151366
0.0146404
0.0144465
0.0148459
0.0145075
0.0144127
0.0149151
0.0179363
0.0190321
0.0207352
0.0239907
0.0228556
0.0209087
0.0280809
0.0296975
0.0301457
0.0304921
0.0304016
0.0296472
0.0265626
0.0251051
0.0264919
0.0250342
0.0244036
0.0244927
0.0241249
0.0222618
0.0245634
0.0265646
0.0281548
0.029002
0.0302398
0.0317926
0.0339506
0.0357416
0.0373992
0.0384028
0.0383815
0.037847
0.0380298
0.038678
0.0383816
0.0366958
0.0346282
0.0325447
0.0295913
0.0293987
0.0313659
0.0329209
0.0345744
0.0363425
0.0356539
0.0337739
0.0321545
0.0307409
0.0290365
0.0289112
0.0305822
0.03202
0.0337524
0.0358654
0.0360414
0.0339047
0.0320914
0.0305921
0.0288945
0.0288587
0.0305544
0.0320625
0.0337822
0.035666
0.0347956
0.0333278
0.0318084
0.0303444
0.0286841
0.0282442
0.029845
0.0312247
0.0325364
0.0335999
0.0319273
0.0313383
0.0302695
0.0288819
0.0271255
0.0258688
0.0263778
0.0277651
0.0278759
0.0283544
0.029472
0.0293179
0.0290353
0.0289906
0.0287091
0.026463
0.0268704
0.026919
0.0276109
0.0309114
0.0304343
0.0331113
0.0355284
0.0332186
0.0317261
0.0281505
0.0337165
0.0337627
0.0347274
0.0335551
0.023771
0.0219139
0.0229143
0.0244506
0.0260946
0.0254106
0.0226517
0.0225898
0.0231977
0.0226161
0.0210597
0.0180728
0.0135766
0.0135858
0.0135786
0.0143145
0.017123
0.0187182
0.0188267
0.0186688
0.018364
0.0178905
0.0171731
0.016102
0.0156298
0.0245597
0.0443398
0.0563348
0.055775
0.0424266
0.0354731
0.0260962
0.0178544
0.0104423
0.0107152
0.0113542
0.0137233
0.011576
0.0104666
0.0143937
0.0117556
0.0196509
0.0228528
0.030276
0.0412741
0.0397606
0.0301046
0.0204126
0.018471
0.0193392
0.0198526
0.0202429
0.0206273
0.0210157
0.0214381
0.0219521
0.0216318
0.018991
0.0167459
0.016875
0.0174471
0.0199532
0.0213305
0.0221205
0.0217845
0.0220295
0.0237579
0.0225073
0.0212818
0.0210774
0.0203746
0.0232235
0.0235683
0.0229345
0.022942
0.0232176
0.0230971
0.0232301
0.0240391
0.0198361
0.0219455
0.0224942
0.0227774
0.0235731
0.019064
0.0192517
0.0193133
0.0181525
0.0149276
0.018047
0.0168017
0.012173
0.01349
0.0134488
0.0140578
0.014383
0.01712
0.0162784
0.0155613
0.0163287
0.0223171
0.0231281
0.0233086
0.0206665
0.0194232
0.0219174
0.0225053
0.0220423
0.021156
0.0213252
0.0203802
0.0184711
0.0177506
0.017888
0.0193045
0.0201037
0.0201702
0.0237945
0.0232915
0.0217233
0.0227239
0.023319
0.0229091
0.0228
0.0227479
0.0223789
0.0219542
0.0223658
0.022553
0.0226049
0.0221614
0.0224152
0.0250618
0.0214858
0.0212947
0.0202071
0.0195467
0.0179127
0.0176574
0.0177555
0.0177152
0.01762
0.0167804
0.0186437
0.0179174
0.0200532
0.0216701
0.0228253
0.024002
0.0241543
0.0237246
0.0236859
0.0233006
0.0232674
0.0227144
0.021864
0.0212768
0.0204952
0.0192828
0.019275
0.0192252
0.0190807
0.0204898
0.0203882
0.0219585
0.0230841
0.0227986
0.0218282
0.0217201
0.0205383
0.0205156
0.0215618
0.0224562
0.0227064
0.0235743
0.0261208
0.0237604
0.0253158
0.026011
0.0266756
0.0260618
0.0249618
0.0257123
0.0240475
0.0229331
0.0242543
0.0249782
0.0262406
0.0270356
0.0250574
0.0240286
0.0228302
0.0219658
0.020977
0.0184495
0.0190654
0.0198581
0.0210915
0.0229079
0.0256338
0.0283753
0.0312985
0.0313562
0.0290553
0.0273531
0.0321584
0.0316307
0.0366087
0.0372119
0.0330848
0.0302758
0.0273601
0.0269375
0.0260178
0.0254822
0.0241996
0.0254511
0.0258805
0.0249324
0.0274072
0.0289831
0.0333166
0.0388931
0.0355626
0.0327191
0.03776
0.036664
0.0426463
0.0364262
0.0347572
0.0286251
0.0332191
0.0355634
0.0433304
0.0339232
0.0297368
0.0295009
0.0308147
0.0383074
0.0368586
0.0394712
0.0446193
0.0439549
0.0390601
0.0358292
0.0416137
0.0316511
0.0370685
0.0390807
0.0324423
0.0322203
0.0391108
0.0397266
0.0398765
0.0337757
0.0330664
0.0250535
0.0336215
0.0401116
0.0400142
0.0332216
0.0259965
0.0359252
0.0315705
0.0313755
0.0313718
0.026979
0.0269128
0.0262009
0.0264584
0.0271764
0.0247291
0.0255406
0.025806
0.0259746
0.0261124
0.0263125
0.0266666
0.0273234
0.0280729
0.0229397
0.0244083
0.023027
0.0216542
0.0202685
0.0240547
0.0265295
0.0283319
0.0297823
0.0309171
0.0314072
0.0300139
0.0379683
0.0396794
0.0413286
0.0414972
0.0402743
0.0376373
0.0342129
0.0307345
0.0284665
0.0271253
0.0245869
0.0224595
0.0203928
0.0182437
0.0154564
0.0141584
0.0128504
0.01153
0.0112101
0.0106825
0.0100881
0.00939756
0.00901229
0.0114558
0.0191725
0.0279744
0.0329226
0.0381671
0.0446786
0.0514097
0.056963
0.0610466
0.0638653
0.0655659
0.065967
0.0632421
0.0524101
0.0474496
0.0426349
0.03776
0.0328359
0.0321356
0.041215
0.0494974
0.0565239
0.0628764
0.0670308
0.0654219
0.0499619
0.0468364
0.0623707
0.0897978
0.0804632
0.103408
0.119932
0.0796781
0.0649725
0.064218
0.0795058
0.0819819
0.0753069
0.0662958
0.0564097
0.0454911
0.0504535
0.0551666
0.059641
0.0641189
0.0774402
0.0800839
0.0789723
0.0766452
0.0734711
0.0688827
0.0619164
0.0530417
0.044141
0.0366857
0.0298871
0.0201789
0.0124632
0.0136692
0.0129654
0.0156239
0.0147653
0.00978588
0.0100975
0.0103128
0.010263
0.010062
0.0101063
0.0115044
0.0182854
0.0149343
0.0135366
0.0116478
0.0144648
0.0163964
0.0183862
0.0189915
0.0191065
0.0195091
0.0315199
0.0433858
0.049514
0.0543878
0.0581549
0.0567446
0.0530887
0.0468118
0.0396198
0.0369774
0.0330922
0.0297852
0.0281473
0.0291149
0.0256228
0.0160279
0.0146178
0.0156783
0.0153892
0.0144059
0.0163504
0.0175711
0.0183475
0.0189754
0.0194454
0.0198076
0.0200667
0.0202396
0.0203316
0.0203608
0.0203416
0.0202791
0.0201715
0.0200162
0.019802
0.0194986
0.0189795
0.0172603
0.0154131
0.0146959
0.01478
0.0145485
0.0141842
0.0123043
0.0125274
0.0143876
0.01499
0.0146017
0.0151933
0.0156662
0.0168832
0.019069
0.0212116
0.0230484
0.0217332
0.0210735
0.0210346
0.0206296
0.0174102
0.0207071
0.0236444
0.0241676
0.024452
0.0252764
0.0268835
0.0278269
0.0268832
0.0263648
0.0258249
0.0226735
0.0242906
0.0278895
0.0283125
0.029007
0.0296161
0.0302042
0.0314789
0.0308376
0.0299245
0.0293163
0.0264251
0.025544
0.031677
0.020613
0.0142808
0.0101833
0.0107454
0.0109046
0.0105333
0.0112857
0.0118187
0.0120721
0.0115016
0.0125726
0.0134828
0.0128097
0.0153477
0.0146277
0.0135928
0.0131137
0.0140078
0.0148551
0.0152709
0.0162338
0.0263027
0.0270497
0.0226749
0.0291299
0.0317286
0.0290256
0.0318619
0.0294866
0.0281083
0.0308796
0.0343222
0.0356595
0.033307
0.0318697
0.0313001
0.0208245
0.0201352
0.0194252
0.0175743
0.0178316
0.0173699
0.0169248
0.0165271
0.0191088
0.0204995
0.021745
0.0214424
0.0211342
0.0207072
0.0207557
0.0246763
0.032725
0.0432457
0.0469282
0.0456995
0.0417409
0.0347519
0.0283956
0.0280357
0.0262332
0.025072
0.0248703
0.0189921
0.0148769
0.0173592
0.0173376
0.0184079
0.0190859
0.0196207
0.0200498
0.0204108
0.0207258
0.0210334
0.0213214
0.0215742
0.0217874
0.02197
0.0221209
0.0222809
0.0224722
0.0227341
0.0229421
0.0212758
0.0186271
0.0172734
0.0171256
0.0178443
0.0187487
0.0198737
0.0191097
0.0153865
0.0154758
0.0218845
0.0223572
0.0209926
0.0195678
0.0197736
0.0189302
0.0227784
0.0225894
0.0234222
0.023221
0.0229389
0.022652
0.0223635
0.0220617
0.0217553
0.0214866
0.0212421
0.0210156
0.0207947
0.0205618
0.0202749
0.0198521
0.0191508
0.0183346
0.016849
0.0179998
0.0192039
0.0209475
0.0228408
0.0237223
0.0228189
0.0215941
0.0210943
0.0213551
0.0216834
0.0220312
0.0224003
0.0228281
0.0232483
0.0236385
0.0235679
0.0222038
0.0228553
0.017477
0.0183284
0.0186293
0.0185865
0.0202471
0.0193794
0.0146482
0.0151605
0.0158892
0.0171907
0.0198008
0.0201692
0.0215394
0.0217722
0.017331
0.0170246
0.0165949
0.0175951
0.0152122
0.0158664
0.0266729
0.0272487
0.0349892
0.0383864
0.0399511
0.0331278
0.0455751
0.0524472
0.0505952
0.0408843
0.0235151
0.0346606
0.042173
0.0488466
0.0458068
0.0356594
0.0449567
0.0473784
0.0632537
0.0589396
0.0525848
0.063282
0.0447471
0.0269401
0.0158134
0.0163842
0.0151865
0.0306591
0.0347624
0.0314771
0.0323385
0.0399479
0.0409587
0.036244
0.0345229
0.0362759
0.0358227
0.0397912
0.0371136
0.033696
0.0233049
0.0190231
0.0198708
0.02129
0.0231284
0.0254752
0.0253696
0.024219
0.0228457
0.0218618
0.0208004
0.0182971
0.0176344
0.019597
0.0212291
0.02261
0.0241251
0.0249506
0.0257951
0.025959
0.0258481
0.0255206
0.0250865
0.0245255
0.023836
0.0224241
0.0236581
0.0243361
0.0245515
0.0248372
0.0251571
0.0254404
0.0255886
0.0254778
0.024517
0.0236972
0.022524
0.0214054
0.0197964
0.0176763
0.0183622
0.0201258
0.0217304
0.0228464
0.0238997
0.0235125
0.0240113
0.0246767
0.0246941
0.0245041
0.024274
0.0241175
0.0242071
0.0248408
0.0265738
0.0263554
0.0292421
0.030407
0.027823
0.0264842
0.0257844
0.0253518
0.0251004
0.0248887
0.0246846
0.0241332
0.0235931
0.0241001
0.0243579
0.024658
0.0250162
0.0255207
0.0262061
0.0272928
0.0286993
0.0286006
0.026341
0.0261541
0.0250806
0.0242904
0.0239116
0.0238634
0.0239118
0.0240206
0.023965
0.0234414
0.0231087
0.023514
0.0224976
0.0225601
0.0215859
0.0202218
0.0187774
0.0173247
0.0166619
0.0353067
0.0352887
0.0457465
0.0424583
0.0371453
0.0471936
0.0601586
0.0521564
0.0628107
0.0666104
0.0541563
0.0502448
0.0279238
0.0244414
0.0173979
0.0189255
0.0202746
0.0214844
0.0213002
0.0222256
0.0221072
0.0230823
0.0225388
0.0217593
0.0211961
0.0201763
0.0202317
0.0189566
0.0174087
0.0172753
0.0189274
0.0199926
0.0211777
0.0211759
0.0226417
0.0231376
0.0235344
0.0236829
0.0236724
0.0237648
0.0239364
0.0243918
0.0251119
0.0255899
0.0257394
0.0261299
0.0258572
0.025555
0.0251236
0.0248323
0.0245267
0.0242537
0.0239604
0.02368
0.0232435
0.0225831
0.0224621
0.0229786
0.0233199
0.0235509
0.023678
0.0236455
0.0234317
0.0230908
0.0227428
0.0223689
0.022427
0.0238002
0.024072
0.024209
0.0239882
0.0238013
0.0237713
0.0236357
0.0235302
0.0233007
0.0229337
0.0224679
0.0213984
0.0214956
0.0223766
0.0228164
0.0231436
0.0234219
0.023458
0.0233942
0.0230278
0.0227387
0.0223796
0.0217912
0.020999
0.0184612
0.0189517
0.0196003
0.0204818
0.021366
0.0221198
0.0226044
0.0228141
0.0228238
0.0226562
0.0223038
0.0215522
0.0215296
0.0220688
0.0222307
0.0221664
0.0218394
0.021186
0.0202273
0.0189886
0.0177453
0.0167691
0.0163091
0.0155524
0.0181366
0.0192297
0.0202194
0.0211135
0.0219378
0.0227915
0.0230972
0.0231359
0.0229791
0.0227146
0.0223048
0.0215346
0.0215374
0.0222396
0.0226265
0.0228402
0.0229258
0.0226752
0.0220222
0.0204749
0.0190364
0.0178268
0.016702
0.0155359
0.0153524
0.0158593
0.015389
0.0157732
0.0168806
0.0183651
0.019745
0.0207678
0.0213938
0.0217019
0.0217452
0.0214217
0.0212345
0.0213509
0.0211355
0.0206212
0.0197368
0.0184418
0.0169771
0.0157786
0.0154428
0.0160987
0.0167311
0.0161264
0.0138494
0.01499
0.016121
0.0172776
0.0189818
0.0210558
0.0220264
0.0225044
0.0226449
0.0225215
0.0221588
0.0215075
0.0214476
0.0220715
0.022428
0.0225306
0.0224275
0.0220186
0.0212231
0.0187068
0.0159112
0.0146362
0.0138959
0.0129613
0.016277
0.016978
0.0161725
0.0156375
0.0164929
0.0175092
0.0186329
0.0195039
0.0201454
0.0206577
0.0209472
0.0209886
0.0207104
0.0205819
0.0203518
0.020008
0.0196903
0.0193817
0.0186332
0.0178076
0.0168085
0.0178649
0.0184256
0.0176696
0.0144609
0.0150266
0.0159135
0.0164694
0.0191816
0.0216393
0.0222568
0.0224158
0.0225037
0.0223663
0.021971
0.0213556
0.0212285
0.0218683
0.022356
0.0226663
0.0229789
0.0232541
0.0234637
0.021588
0.0182282
0.017405
0.0155913
0.0147481
0.0182297
0.0189101
0.0184322
0.0178794
0.0195936
0.020299
0.0205267
0.0204886
0.020386
0.0202799
0.0203013
0.0204261
0.0201241
0.0199902
0.0200931
0.0203235
0.0203046
0.0201071
0.0195509
0.0187795
0.0176422
0.0194983
0.0211736
0.0208938
0.0169832
0.017522
0.0184424
0.0180778
0.0208565
0.0226926
0.0231496
0.0230514
0.0227144
0.0222288
0.0216811
0.0210378
0.0207555
0.0213263
0.0218948
0.0219276
0.0220232
0.0219758
0.021419
0.0212556
0.0206837
0.0204136
0.019652
0.0190713
0.0183239
0.0204771
0.0236678
0.0258682
0.0274492
0.0293368
0.02789
0.0243603
0.0220977
0.0152403
0.0152492
0.015475
0.0148513
0.0144793
0.0142967
0.0186799
0.0213777
0.0240052
0.0256766
0.0232625
0.0232235
0.0231391
0.0230264
0.0229164
0.0228068
0.0225925
0.0231993
0.0403741
0.282394
0.208299
0.234422
0.223585
0.315147
0.0781623
0.0385965
0.043041
0.0503062
0.0579952
0.056289
0.0522885
0.0456196
0.0409585
0.0405615
0.0398114
0.0395916
0.0382256
0.0382569
0.0375978
0.0453641
0.096139
0.124225
0.137766
0.146201
0.155112
0.150533
0.15943
0.151252
0.151649
0.153159
0.157875
0.15047
0.143111
0.139278
0.134963
0.117644
0.117991
0.0995476
0.103339
0.0862194
0.0906746
0.0945348
0.0938642
0.0926558
0.0924372
0.0927189
0.0935509
0.0973207
0.0926472
0.0990132
0.0915228
0.0734775
0.0711391
0.0733416
0.0675909
0.059021
0.0672426
0.0828702
0.0992478
0.116458
0.0987697
0.122828
0.115589
0.115384
0.109483
0.102883
0.0990727
0.0983053
0.0989087
0.100037
0.102689
0.104642
0.106267
0.109214
0.117815
0.120237
0.118908
0.101472
0.0861912
0.0946709
0.0995009
0.103178
0.103445
0.0987125
0.0966131
0.0905086
0.0889553
0.0834638
0.0808569
0.0754153
0.0720817
0.0672702
0.0838748
0.0819998
0.0890046
0.0952955
0.0995129
0.103161
0.104732
0.106003
0.104797
0.102399
0.097366
0.095218
0.0903813
0.108824
0.127192
0.129858
0.125141
0.111617
0.105957
0.338707
0.411003
0.412301
0.612264
0.654158
0.846106
0.335589
0.179371
0.191733
0.188374
0.180175
0.176982
0.176781
0.188546
0.197676
0.188717
0.200488
0.178663
0.177278
0.170548
0.198822
0.196429
0.176913
0.154806
0.122517
0.100527
0.100415
0.083668
0.0844081
0.0729932
0.0735462
0.0750328
0.0924818
0.171622
0.209806
0.236462
0.26285
0.32323
0.292893
0.442277
0.354017
0.439323
0.303155
0.32784
0.313477
0.304621
0.302566
0.318526
0.341183
0.299917
0.373088
0.298796
0.647538
0.783999
0.496009
0.458384
0.406297
0.392106
0.382181
0.376591
0.368468
0.486165
0.45083
0.554075
0.515206
0.646549
0.567584
0.575896
0.542685
0.581555
0.602139
0.615351
0.492955
0.539323
0.420711
0.455306
0.379009
0.414728
0.293098
0.29258
0.335065
0.371848
0.397802
0.454789
0.714569
0.606563
0.817911
0.58554
0.707477
0.491278
0.538503
0.514176
0.496466
0.498094
0.526131
0.630174
0.609356
0.696097
0.514707
0.52698
0.516707
0.53405
0.52349
0.558452
0.563148
0.564332
0.562314
0.523423
0.534025
0.532199
0.531979
0.531998
0.532344
0.509584
0.512766
0.505226
0.511008
0.526917
0.514591
0.514508
0.51237
0.504795
0.502741
0.502256
0.504016
0.503785
0.508919
0.508789
0.509128
0.512186
0.526892
0.514415
1.82271
0.901651
0.429627
0.339577
0.219829
0.134876
0.0557455
0.0602154
0.0631703
0.0641275
0.0621072
0.0567394
0.0485671
0.0385364
0.0307215
0.0298619
0.0266221
0.0267554
0.0345368
0.042209
0.0386052
0.0464258
0.0541396
0.0624652
0.0704574
0.0774204
0.0833069
0.0862399
0.0831957
0.0704523
0.0527771
0.0353204
0.0250082
0.0225942
0.0209451
0.0189526
0.016844
0.0151716
0.0141772
0.01302
0.0123984
0.0123182
0.0125498
0.012795
0.0132422
0.0147558
0.0160555
0.0172406
0.0182052
0.0184501
0.017923
0.0184658
0.0190593
0.0194547
0.0197999
0.0196133
0.0196041
0.019855
0.0198169
0.020031
0.0199365
0.0199612
0.0198259
0.019676
0.0194532
0.0190303
0.0187516
0.0181872
0.0178319
0.0169621
0.0169978
0.0173926
0.0177185
0.0167103
0.0166487
0.0159051
0.0272459
0.0484209
0.0612175
0.0662399
0.0715227
0.0674873
0.0572189
0.0393163
0.0192714
0.0187973
0.0192775
0.0218085
0.0213137
0.0173583
0.0181468
0.0188427
0.0176586
0.0176329
0.0176661
0.0197547
0.0203673
0.0217098
0.0222045
0.022548
0.0227613
0.0226663
0.022747
0.0224289
0.0224167
0.0220112
0.0219875
0.0216664
0.0214357
0.0217338
0.0224548
0.0225507
0.0232394
0.0229601
0.0226999
0.022145
0.0217638
0.0209116
0.0200043
0.0189674
0.0173923
0.0169239
0.0174297
0.017893
0.0174199
0.0188002
0.0199726
0.0196611
0.0243963
0.0226687
0.0202277
0.022688
0.0184224
0.0185832
0.0181606
0.0171092
0.0176593
0.0171985
0.0171393
0.0174656
0.0177749
0.0189572
0.0199429
0.0205704
0.0214344
0.0220622
0.0227682
0.0239582
0.0242329
0.0231945
0.0229861
0.0217711
0.0210811
0.0207522
0.0216883
0.0230051
0.022947
0.0238909
0.0236689
0.02243
0.0216242
0.0207804
0.0197989
0.0191419
0.0183427
0.0175795
0.0171494
0.0163088
0.0163792
0.0152794
0.0168352
0.0173337
0.0195086
0.0174045
0.0169467
0.0225631
0.028557
0.0444723
0.0324886
0.0214388
0.0231311
0.0314109
0.0392029
0.0277657
0.0272543
0.0153798
0.0180137
0.0152896
0.0155999
0.0166753
0.0169665
0.0181842
0.0192527
0.0194945
0.0202429
0.0205915
0.0213532
0.021612
0.0223451
0.0225404
0.0238156
0.0238804
0.023919
0.0238921
0.023044
0.0229668
0.0229421
0.0234204
0.0232148
0.0239629
0.023998
0.0241089
0.0240478
0.0227018
0.0223757
0.0216039
0.0210849
0.0201817
0.0196253
0.0189084
0.0185234
0.0178648
0.0181803
0.0189018
0.0190892
0.0200509
0.0200699
0.0208103
0.0210209
0.0214903
0.0216265
0.0222925
0.0224337
0.0227031
0.0227604
0.0239772
0.0240924
0.0241226
0.0240883
0.0240906
0.0243059
0.0242977
0.0242415
0.0242148
0.0240756
0.0238985
0.0237069
0.0247855
0.0254863
0.025071
0.0248358
0.0250965
0.0259489
0.0265024
0.0275915
0.0284451
0.0295124
0.0303978
0.0312122
0.0318762
0.0323443
0.0324531
0.0324808
0.032021
0.0316433
0.0333307
0.0398395
0.0430716
0.0483562
0.0507399
0.0527088
0.0534114
0.0522848
0.0530185
0.0517646
0.052035
0.0508666
0.0504535
0.049655
0.0486682
0.047962
0.0465082
0.0457808
0.0504114
0.0570151
0.0570681
0.0498399
0.0468242
0.0426515
0.0372824
0.0390315
0.0455624
0.0409975
0.0384524
0.0357053
0.0307567
0.0236521
0.017891
0.0257128
0.0334818
0.0407376
0.0475212
0.0535046
0.0573748
0.0594881
0.0610107
0.0626988
0.0606514
0.0531929
0.0415325
0.0316353
0.0277142
0.0261471
0.023723
0.0203106
0.0184416
0.0173779
0.0162346
0.0148998
0.0140547
0.0138182
0.0140799
0.0142
0.0155472
0.0168119
0.0168031
0.0179863
0.0177787
0.018292
0.0188865
0.0192947
0.0199416
0.0199172
0.0189547
0.0193108
0.0195751
0.0202586
0.0201643
0.0203442
0.0201411
0.0194314
0.0189242
0.0183295
0.017814
0.0173495
0.0167671
0.0160256
0.016017
0.0161985
0.0157471
0.0161774
0.0166314
0.0170476
0.0176751
0.0185851
0.0193383
0.0211651
0.0212854
0.0210257
0.0211063
0.0196689
0.0195976
0.0186218
0.0183797
0.0199755
0.0198089
0.0181382
0.0195279
0.0195441
0.0213364
0.0213524
0.0206791
0.0208827
0.0207916
0.0189701
0.0180829
0.0170097
0.016228
0.0156286
0.0152156
0.0147311
0.015354
0.0141131
0.0135608
0.0140406
0.0140183
0.0140889
0.0144848
0.0149186
0.0156648
0.0163733
0.0174267
0.0180693
0.018969
0.0193009
0.0212063
0.021104
0.0209523
0.0209834
0.02112
0.0215619
0.0207832
0.0207446
0.0208893
0.0209056
0.0209518
0.0209413
0.0191062
0.018904
0.0180695
0.0177503
0.0168128
0.0164518
0.0157925
0.0154735
0.0150763
0.0148764
0.0232547
0.0254528
0.0256099
0.0397635
0.0199909
0.0199475
0.0343688
0.0173275
0.0230509
0.0235947
0.0246776
0.0259128
0.0225346
0.0307522
0.0212077
0.0233482
0.0240678
0.0252239
0.0129442
0.0203664
0.0380202
0.0428297
0.0441261
0.0490308
0.0556242
0.0587821
0.0617988
0.063791
0.0660438
0.0684636
0.0708475
0.0725599
0.0726899
0.0689747
0.0658958
0.0563726
0.0525466
0.0562649
0.0606594
0.0471699
0.0423895
0.0429179
0.0433596
0.0438719
0.0440586
0.0447185
0.044508
0.0454704
0.0447324
0.0458029
0.044647
0.0456327
0.0444382
0.0417551
0.0385564
0.032432
0.0304867
0.029389
0.0266945
0.0241971
0.0219808
0.0201763
0.0197511
0.018198
0.0168103
0.0165124
0.015223
0.0155048
0.0167503
0.0199098
0.0168192
0.0176329
0.0260266
0.0191159
0.0180015
0.018541
0.0190566
0.0192985
0.0181866
0.0198056
0.0220655
0.0220862
0.0221596
0.0221801
0.0213792
0.0212138
0.0209614
0.0210255
0.0210575
0.0211921
0.0211654
0.0193406
0.0192844
0.0190119
0.0188748
0.018083
0.0179151
0.0173272
0.0169945
0.0161477
0.0158524
0.0154043
0.0154747
0.0168588
0.0209786
0.0307296
0.0175893
0.0183586
0.0158415
0.0139815
0.0266759
0.024723
0.0286253
0.0267634
0.0393664
0.0264055
0.0231587
0.0241548
0.0296793
0.0296427
0.0326398
0.0423919
0.0330267
0.028348
0.0746906
0.0550686
0.0337271
0.0470823
0.0590479
0.110082
0.128022
0.0562072
0.056672
0.0623148
0.0632713
0.0631887
0.053723
0.0494597
0.0418224
0.0324241
0.0128498
0.0249443
0.0323088
0.0433929
0.0580188
0.0921574
0.0529801
0.0597942
0.0657369
0.0647969
0.0678564
0.0660573
0.0647188
0.0656775
0.102654
0.111541
0.108464
0.0874837
0.0820919
0.0745297
0.124311
0.139063
0.120072
0.130102
0.136256
0.0831363
0.0305737
0.0249215
0.0238117
0.0263921
0.025338
0.0459035
0.0206205
0.0218244
0.0226628
0.0271321
0.0302089
0.0527676
0.0233056
0.0254728
0.0324029
0.0348629
0.0457642
0.0274871
0.0280812
0.0343589
0.0361267
0.0394758
0.0336683
0.0317798
0.0286965
0.025906
0.0244141
0.0254614
0.0318331
0.0462198
0.027876
0.0283064
0.0300622
0.134244
0.0307345
0.0266376
0.0277283
0.0267262
0.0336473
0.0350281
0.111849
0.0356203
0.0167249
0.0154511
0.0159143
0.0167273
0.0173672
0.0179913
0.0184359
0.0190818
0.0194702
0.0196281
0.0198049
0.0221717
0.0220575
0.0215892
0.0210448
0.0218258
0.0211317
0.0211729
0.0217836
0.0212458
0.0213996
0.0224395
0.0236055
0.0231022
0.023653
0.0250115
0.023864
0.0221845
0.0219763
0.0220916
0.022801
0.0239378
0.0227565
0.0234165
0.022606
0.0235174
0.0236576
0.0203717
0.0199933
0.0197862
0.0192877
0.0186092
0.0179853
0.0173145
0.0166788
0.0162097
0.0161949
0.0167904
0.0152143
0.0156861
0.0182624
0.0404194
0.0334474
0.0272768
0.0226744
0.0197879
0.0185037
0.018321
0.0187413
0.0193923
0.0199492
0.0201594
0.0207563
0.0246295
0.0245227
0.025721
0.0245973
0.0259238
0.0248594
0.0235395
0.0226702
0.0238719
0.0231853
0.0236751
0.02527
0.0260917
0.0237248
0.0239814
0.0214089
0.020014
0.0184191
0.018759
0.0201883
0.0208464
0.0232541
0.023344
0.026754
0.0267542
0.0266348
0.0254211
0.0247525
0.0261898
0.0247123
0.0258576
0.0247567
0.0261544
0.0273449
0.0276887
0.0269877
0.0261966
0.0253289
0.0210519
0.0202514
0.0199475
0.0194643
0.0192256
0.0202233
0.0246692
0.0341679
0.0465444
0.05877
0.0680683
0.0673817
0.0605771
0.0414053
0.0421578
0.0392794
0.0425743
0.0609715
0.0880833
0.0619833
0.115277
0.0892653
0.052937
0.0631099
0.0751315
0.0843074
0.0903086
0.0915594
0.0782215
0.0577254
0.0506521
0.0530683
0.0850836
0.0837673
0.0824579
0.0779326
0.0824237
0.0802683
0.0775636
0.0759663
0.0741536
0.0698602
0.0698445
0.0670976
0.0670526
0.0599765
0.0611495
0.061356
0.0587826
0.0560485
0.0537714
0.0515888
0.0492733
0.0454053
0.0441399
0.0416905
0.0399749
0.0366433
0.0361081
0.0356262
0.0334647
0.0319256
0.0306827
0.0294329
0.02775
0.0279215
0.0263748
0.0262245
0.0213889
0.0210023
0.0199722
0.0196472
0.0194146
0.0196492
0.0209716
0.0237733
0.0441357
0.0333055
0.03306
0.0335755
0.0337112
0.0396732
0.0464225
0.070441
0.0651412
0.0715752
0.0612611
0.0636609
0.0628593
0.0624856
0.0652117
0.0687809
0.074124
0.0865991
0.333207
0.513779
0.25298
0.236996
0.246661
0.251581
0.258952
0.338804
0.360007
0.355603
0.360441
0.330422
0.318508
0.196615
0.226046
0.238134
0.23704
0.223953
0.202914
0.394691
0.522642
0.518781
0.523654
0.523767
0.518768
0.522592
0.502914
0.514275
0.501758
0.515023
0.502296
0.52165
0.518908
0.504364
0.501138
0.501158
0.500917
0.501381
0.501557
0.504896
0.506057
0.506109
0.505104
0.504125
0.514517
0.439116
0.1239
0.0863627
0.143898
0.200025
0.164014
0.236243
0.271303
0.195605
0.111437
0.0912863
0.103
0.12693
0.12837
0.155482
0.203131
0.18998
0.155139
0.156028
0.157084
0.202447
0.193735
0.219909
0.262494
0.255408
0.190627
0.151986
0.151826
0.230064
0.244372
0.239499
0.125243
0.0452907
0.0220618
0.0230455
0.0328751
0.0166585
0.0168737
0.022615
0.0596675
0.0987419
0.0513775
0.138171
0.139405
0.182643
0.147871
0.178684
0.115969
0.119031
0.0677679
0.0797656
0.0896676
0.0953936
0.0997543
0.0940681
0.217587
0.321908
0.191778
0.562732
0.538646
0.196711
0.217446
0.576057
0.513006
0.50353
0.501786
0.501699
0.50186
0.501817
0.50097
0.500916
0.500729
0.500766
0.500717
0.501164
0.504767
0.520371
0.514589
0.505239
0.501385
0.500825
0.5008
0.500691
0.500731
0.500751
0.500809
0.501018
0.501051
0.501152
0.501671
0.503942
0.512021
0.435149
0.169833
0.182163
0.405849
0.361612
0.511498
0.504622
0.50137
0.500943
0.500856
0.50083
0.500796
0.50097
0.500891
0.501398
0.501232
0.501287
0.502776
0.508253
0.506386
0.442165
0.36854
0.415985
0.32926
0.506661
0.507772
0.503277
0.502901
0.503248
0.503416
0.501515
0.501529
0.500993
0.501061
0.500894
0.501341
0.504755
0.511006
0.345759
0.170652
0.177603
0.257786
0.087818
0.0907926
0.0927564
0.0948712
0.24746
0.442655
0.556673
0.471988
0.475787
0.542982
0.386061
0.364833
0.294473
0.317859
0.402317
0.347416
0.312862
0.250444
0.288763
0.247742
0.303475
0.217898
0.234101
0.221652
0.283008
0.286875
0.287205
0.226646
0.216474
0.271548
0.285703
0.316631
0.218705
0.25882
0.20323
0.19233
0.0871262
0.0893409
0.0812665
0.0713493
0.0710657
0.0791683
0.0775834
0.0837252
0.080689
0.0843498
0.0814346
0.0794564
0.0727241
0.0747792
0.0686023
0.0712721
0.130302
0.166515
0.15036
0.15179
0.179602
0.131132
0.157454
0.153652
0.197695
0.24808
0.227961
0.294346
0.226055
0.275944
0.405995
0.754342
0.442515
0.245656
0.318393
0.339779
0.288665
0.189571
0.449424
0.538112
0.297887
0.359853
1.19479
1.04261
1.78034
0.99259
1.11999
0.671752
0.597858
1.02925
0.654499
0.667138
0.560452
0.574012
0.500377
0.324945
0.324617
0.306337
0.242358
0.281477
0.272139
0.266977
0.296689
0.26194
0.317183
0.35291
0.397661
0.322909
0.285925
0.367691
0.215889
0.291828
0.347286
0.316449
0.260438
0.339127
0.451466
0.423953
0.365057
0.400345
0.511006
0.564925
0.535564
0.454677
0.51717
1.00974
0.967012
0.932704
0.592157
1.93377
1.72163
0.356998
0.140401
0.0980162
0.03707
0.0225635
0.0182762
0.0178908
0.0490798
0.0195423
0.0235638
0.0212624
0.0304631
0.0275174
0.0318304
0.0562052
0.0379332
0.0535383
0.0396148
0.053087
0.0422434
0.0581469
0.0624465
0.0658563
0.0532405
0.0419699
0.0634168
0.0846495
0.0396124
0.101912
0.107718
0.0696712
0.084648
0.104567
0.0541051
0.167381
0.0579757
0.0578577
0.0691678
0.129737
0.256091
0.0874261
0.114036
0.590964
1.53352
0.515063
0.204495
0.167136
0.0414726
0.035938
0.0294849
0.0355706
0.0313134
0.0637489