/*--------------------------------*- C++ -*----------------------------------*\
| =========                 |                                                 |
| \\      /  F ield         | OpenFOAM: The Open Source CFD Toolbox           |
|  \\    /   O peration     | Version:  v2012                                 |
|   \\  /    A nd           | Website:  www.openfoam.com                      |
|    \\/     M anipulation  |                                                 |
\*---------------------------------------------------------------------------*/
FoamFile
{
    version     2.0;
    format      ascii;
    class       surfaceScalarField;
    location    "890";
    object      phi;
}
// * * * * * * * * * * * * * * * * * * * * * * * * * * * * * * * * * * * * * //

dimensions      [1 0 -1 0 0 0 0];
oriented        oriented;


internalField   nonuniform List<scalar> 
50655
(
0.00257487
-0.00361124
-0.00137839
-0.00511665
0.00127503
0.00366683
-0.00342524
0.00386722
0.00454598
-0.00249954
-0.00278879
0.00297528
-0.00369057
-0.00376252
0.0027189
-0.00180796
-0.00480831
0.000869657
0.000129043
-0.00466339
0.00166131
-0.00187682
-0.00721522
0.0024643
-0.0105107
0.00288796
0.000308753
-0.0113326
-0.00349598
0.00420784
-0.0120804
-0.00486418
0.00550959
-0.0129373
-0.00565198
0.00640471
-0.0262299
-0.00933924
0.0224379
-0.0487594
-0.0283171
0.0502863
-0.0483332
-0.0527838
0.0516604
-0.0310801
-0.071176
0.0531451
-0.00451677
-0.0780388
0.0506925
0.00791148
-0.0546795
0.0414399
-0.00167823
-0.0314298
0.0402466
-0.0209611
-0.0217311
0.0402472
-0.016849
-0.0513055
0.046471
-0.00701317
-0.0552035
0.04481
-0.0387521
0.0314098
-0.0412016
0.018825
-0.0166767
-0.0159109
-0.0755292
0.0497437
0.0201922
-0.0797995
0.0431999
0.0305983
-0.0292669
0.0185537
0.0341057
-0.00384469
0.0365288
0.0179254
-0.020671
0.0253937
-0.0180001
0.0288593
0.0164549
-0.00949624
0.0182658
0.00337311
-0.00131146
0.0142663
-0.00651419
0.00686005
0.00293194
-0.00543212
0.000122524
-0.00124529
-0.0053986
-0.0012316
0.00117969
-0.00632145
0.000226828
0.00067873
-0.00758918
0.000215106
0.00103603
-0.00872994
9.37378e-05
0.00102988
-0.00912591
-0.000248679
0.000628279
-0.00939137
-0.000667142
0.000916017
-0.00895405
-0.00109402
0.000640403
-0.00832608
-0.00156118
0.000916542
-0.00710039
-0.00200905
0.000766927
-0.00567158
-0.00247151
0.00102582
-0.00379829
-0.00276958
0.000880121
-0.00196669
-0.00295735
0.00110878
0.000954172
-0.00293846
0.000717057
-0.00251095
0.00272242
-0.00549668
0.00499304
0.00117893
-0.0110434
0.00473866
0.00075152
-0.0131542
0.00515335
-0.00310947
-0.0129925
0.0053712
-0.00559992
-0.00543383
0.0046461
-0.0122612
0.000507242
0.00560468
-0.0115875
0.000601401
0.003572
-0.00369179
-0.0015022
0.00208601
-0.00294667
0.00214121
-0.000713865
-0.00450366
0.00218899
-0.000648156
-0.00581519
0.00234823
-0.00105308
-0.00708118
0.00230601
-0.00105497
-0.00858198
0.00249791
-0.00101113
-0.0101476
0.00258415
-0.00103191
-0.0114431
0.00237712
-0.00109483
-0.0123463
0.00201671
-0.00112649
-0.0128151
0.00160469
-0.00114888
-0.0131347
0.00143958
-0.0011333
-0.0137398
0.00156719
-0.000976318
-0.0139481
0.00112323
-0.000929989
-0.0136545
0.000897103
-0.00120609
-0.0136456
0.000782948
-0.000807601
-0.0133715
0.000827299
-0.00111742
-0.0131245
0.000901939
-0.00116489
-0.0129799
0.000845007
-0.00100536
-0.0127042
0.000575433
-0.000866748
-0.012165
0.000126775
-0.000681403
-0.0112646
-0.000447887
-0.000467768
-0.0101447
-0.000906964
-0.000228229
-0.00882793
-0.00100267
-0.000328891
-0.00738026
-0.000753228
-0.000708289
-0.00757848
-0.000686648
0.000872859
-0.0163817
0.000829773
0.00794685
-0.0211476
0.00041677
0.00428855
-0.0225873
0.00116121
0.000213306
-0.0425494
0.0163556
0.00348902
-0.054521
0.00564629
0.00602708
-0.0294406
-0.016237
-0.00915095
-0.0131031
-0.0149191
-0.00155058
-0.0112433
-0.0039749
0.0020371
-0.00998612
-0.00305972
0.00171248
-0.00806819
-0.00340803
0.00138859
-0.00471177
-0.00327445
-0.00017724
-0.00316221
-0.00163487
-0.00442098
0.0045751
-0.00341122
-0.00263586
0.00672389
-0.00862264
0.000960389
0.00619917
-0.00992761
0.00626339
0.00588755
-0.0113354
0.0150611
0.00875958
-0.0177384
0.0285844
0.0137181
-0.027524
0.0248391
0.0196351
-0.0161712
0.01635
0.0063295
0.00197491
0.00740965
9.24698e-05
0.00870051
-0.00141908
-0.0041681
0.0128619
-0.00456825
-0.00690506
0.00993786
-0.00758678
0.00538538
0.00448539
0.000964921
-0.0102466
0.00229964
-0.00836755
0.00353456
-0.00485243
-0.00447422
0.0073324
-0.0123632
0.00206928
0.0054011
-0.0143013
0.00567384
0.00245695
-0.0385618
0.0268234
0.0232208
-0.00673015
-0.0133586
0.0369962
-0.00984529
-0.0392134
-0.00486478
0.00925587
-0.00912461
-0.000600401
0.00895038
-0.00745727
0.00262317
0.0095704
-0.00671723
0.00455292
0.00959016
-0.00490595
0.00710502
-0.00134526
0.0112476
-0.00494009
-0.00272773
0.0124242
-0.0018775
-0.00246124
0.00881773
-0.000399047
-0.00411675
-0.00203503
-0.0210572
-0.00210259
0.0295376
-0.0106691
-0.0143072
-0.00164633
-0.00712696
-0.00246436
-0.00733932
0.015862
0.00135782
-0.0102778
0.021907
0.00115942
-0.00900696
0.032441
0.000388029
-0.0132015
0.0831713
-0.00210033
-0.036005
0.0467699
-0.00197118
0.0455064
-0.00215689
0.00741203
-0.00309374
0.038433
0.00384843
0.0217709
0.00195003
0.0232262
-0.000321151
0.0113104
0.0139351
0.00622046
-0.00792188
0.000105411
0.00680653
0.00521322
-0.0014772
0.00731765
0.0081828
-0.00152189
0.00711853
-0.0150671
0.0079751
-0.00209302
0.0073661
-0.0153141
0.00849928
-0.00126089
0.0074328
-0.0166974
0.00841196
-0.00129801
0.00741664
-0.0160113
0.00861096
-0.000628564
0.00727901
-0.0165735
0.00860442
-0.000254407
0.00702731
-0.015978
0.00855658
0.000707042
0.00623024
-0.0154363
0.00822605
0.00575808
0.00441853
-0.0169335
0.00744946
0.00149151
-0.0041528
0.00567011
0.00273494
0.000805829
0.00537663
-0.000279409
0.000624694
0.00713435
-0.000733732
0.000777593
0.00801117
-0.00114905
0.000932024
0.00831462
-0.00120302
0.00126856
0.00838343
-0.00131658
0.00149191
0.00855828
-0.00136211
0.00149418
0.00870284
-0.00135198
0.00125741
0.008714
-0.00137102
0.000930878
0.00882884
-0.00119654
0.0073047
-0.000264333
0.00935169
-0.00199484
-0.000819363
0.0110287
-0.00184012
-0.000855022
0.0123115
-0.00153724
-0.000668365
0.0130968
-0.000303236
-0.000945659
0.0135267
0.000860249
-0.00117907
0.0137044
0.00171631
-0.00133442
0.0137036
0.00224427
-0.00141467
0.0137627
0.00225737
-0.00143115
0.0137176
0.00183404
-0.000978155
0.013724
0.0013575
-0.000596979
0.0139056
0.00123772
-0.000537794
0.0132924
0.00115739
0.000563797
0.0124383
0.00243874
0.000239283
-0.000270921
0.0126771
-0.000415086
0.00244316
-0.000840546
0.0123372
-0.000239225
0.00280432
-0.000633749
0.0114628
-7.51945e-05
0.0031153
-0.000162159
0.0102001
4.8038e-05
0.0003004
0.00327816
0.00860163
0.000724913
0.00331517
0.000129014
0.00685729
0.0010429
0.0030488
0.000136716
0.00585246
0.000966003
0.00224219
8.76816e-05
0.00441016
0.00462428
-0.000850134
0.00285956
0.00427952
-0.000556151
0.00141744
-0.000507804
0.00407472
0.00389482
-0.0004083
0.00560373
-0.000516851
-0.0012082
0.00682717
-0.000411057
-0.000829226
0.00780013
-0.000609616
-0.000379837
0.0081664
-0.000474911
9.19253e-05
0.00822657
-0.000608925
0.00053229
0.0075414
-0.000261291
0.00092987
0.00657056
-0.000298786
0.00125306
0.00476285
0.000285119
0.00150551
0.00209428
0.00111547
0.00153598
-0.00167193
0.00205649
0.00169178
-0.00444217
0.000590889
0.00216136
-0.00597178
-0.000857213
0.00236755
-0.00725764
0.00062827
0.000635651
-0.0137052
0.000513337
0.00588931
-0.0247568
-0.0065377
0.0174735
-0.0309137
-0.0160961
0.0220877
-0.0391006
-0.0259861
0.0339065
-0.0315642
0.0235631
0.0161904
-0.0383703
0.00920479
0.025854
-0.0166772
0.00694508
-0.00457297
0.0043868
-0.0322079
0.0260553
0.00153087
-0.0146701
-0.0233559
0.00578289
-0.037524
0.0061304
0.0411565
-0.0573179
-0.000850407
0.0289464
-0.0499136
0.0151418
0.0125752
-0.0100039
0.0169502
-0.0102938
0.0109125
-0.00248472
0.0188718
0.00792246
0.0112365
-0.0125567
0.0135384
0.00523654
-0.00617343
0.00132346
0.0112385
0.00483101
0.00102235
0.00267942
0.00128415
-0.00104091
0.00156884
0.00272081
-0.00488842
0.00382233
0.00206014
-0.00545171
-0.00052434
0.00218214
-0.00958218
0.001969
0.0024261
-0.00822875
-0.00369864
0.00202633
-0.0118778
0.0019467
0.00142118
-0.00891452
-0.00419088
0.000598868
-0.0112477
0.00214228
-0.00030373
-0.0073254
-0.00321313
-0.0013385
-0.00816311
0.00227993
-0.00187344
-0.00441015
-0.00172598
-0.00256307
0.00129005
-0.00255558
0.00395268
0.0117612
-0.0106045
0.0114105
0.00656121
-0.00942543
0.0128807
0.00891798
-0.00508669
0.00987038
0.0105382
-0.0024443
0.00399359
0.00952098
0.00104196
0.0127483
-0.00247906
-0.00217236
0.000830432
0.0151555
-0.00578603
0.00449185
-0.00329159
0.0021031
0.0150847
-0.00741347
-0.00309338
0.00323785
0.00726657
0.0104784
-0.00785363
-0.00270581
0.00327121
0.0118204
0.00181487
-0.00669966
-0.00201544
0.00114055
0.016153
-0.000849218
-0.0043601
0.0074706
-0.000435757
-0.00517043
0.0110545
1.8586e-05
-0.0103543
0.0127006
-0.00893969
-0.0142617
-0.014136
0.00843712
0.00572173
-0.0241415
0.00410959
-0.0185636
0.00623051
-0.0164792
-0.0114159
0.00926241
0.00798703
0.00960377
-0.0341166
-0.0237382
0.0075485
0.011224
0.00754981
-0.0100176
-0.032583
-0.00915319
0.00780599
-0.00162247
4.72669e-05
0.00778101
-0.0065672
-0.0104775
0.0114718
-0.00763362
-0.0141479
0.0105543
0.010514
-0.000841619
-0.00884029
0.0103204
-0.00147948
0.00791561
-0.00784005
0.00400004
0.0010341
0.00451262
-0.00369837
0.00599589
-0.00631674
0.0139789
-0.0121558
-0.00360684
0.0108131
-0.0170466
-0.00263224
0.00569777
-0.0169776
-0.00102653
-0.00116454
0.00199275
-0.00821779
0.00831838
0.00970024
-0.00953353
0.0107716
0.0113628
-0.00497829
0.0113618
0.0120114
-0.00214358
0.0107771
0.00425071
-0.010818
0.0111457
0.00296553
-0.00906479
0.0122905
-0.00211586
-0.00489033
0.0118557
-0.00475092
0.00981447
-0.0061019
0.00217728
0.00392226
0.00100999
0.0078732
0.00776461
-0.00169213
0.0108979
0.00893115
0.000247622
0.00770982
0.00640851
-0.00920185
0.0102368
-9.62696e-05
-0.0071913
0.00368288
0.00314927
0.000162051
0.00158329
-0.00126152
0.0049151
-0.00667681
-0.00158498
-0.00231555
0.0187511
-0.00342451
-0.0195104
0.0169121
-0.00143336
-0.00179525
-0.0163
-0.0119055
-0.000835402
0.00327211
-0.00869709
-0.0106791
-0.0130703
0.00648378
-0.00594623
-0.00496634
0.00084526
0.00135684
0.000384926
-0.0020938
-0.00423981
-0.000992249
0.00396139
-0.00258581
-0.000418609
0.0017929
-0.00236793
0.00128303
-0.00379762
0.00673411
0.000687589
-0.011117
0.000657331
-0.00347183
0.0103793
-0.00346071
-0.0044607
-0.0188483
0.0138519
-0.0118143
-0.0193372
-0.0117994
0.00788691
0.0043092
-0.0265466
-0.0154254
0.00260761
0.00934323
0.0105729
-0.0355239
-0.0165072
0.0130957
0.00186109
0.0104255
-0.0422342
-0.0146721
0.00986462
0.000112034
0.0113024
-0.0436121
-0.010838
0.00326964
-0.00150018
0.0103421
-0.0431173
-0.00622551
-0.00146722
-0.00180953
0.00889758
-0.0394396
-0.00340273
-0.00447519
0.00410622
-0.034706
-0.00124517
-0.0070788
0.00650486
-0.00302264
-0.0321464
0.00127228
-0.00608447
0.00562889
-0.00347819
-0.0291003
0.00257526
0.00450342
-0.00395853
-0.00626907
-0.028907
0.00196458
0.00399677
-0.00352161
-0.00274508
-0.0298097
9.74339e-05
0.00189162
-0.00119346
-0.0277519
-0.00170893
0.00144689
-0.00190936
-0.0229273
-0.0027476
0.00159429
-0.00376755
-0.0300933
0.00175397
0.0226085
-0.0172721
-0.059195
0.0293129
-0.0130409
0.0124528
0.00590721
-0.0198614
-0.00147731
-0.0132953
-0.0251657
-0.00905309
-0.0122426
-0.000532949
-0.0087184
-0.0111388
0.000556907
0.000307308
-0.00941109
-0.00066728
0.000555505
-0.00578816
-0.00383047
0.00148584
-0.00308503
-0.00403458
0.00105581
-0.00454132
-0.00024825
-0.00446139
0.000791564
-0.000918739
-0.00685218
0.00204302
0.000284573
-0.0107918
0.00219539
0.00166459
-0.013102
0.00080611
0.00142549
-0.0133672
-0.000362961
0.000558369
-0.0130752
-0.00175641
0.00141041
-0.023646
0.00141576
0.00908032
-0.0568461
0.0174871
0.0155063
-0.101253
0.00876683
0.0350675
-0.117879
-0.00597132
0.0219037
-0.1272
-0.0116998
0.0202456
-0.133593
-0.0165997
0.0221576
-0.137214
-0.0222881
0.0250253
-0.138522
-0.0273449
0.0277416
-0.138435
-0.0308187
0.0298077
-0.137621
-0.0329642
0.0312257
-0.136165
-0.0342106
0.031838
-0.134017
-0.0348619
0.0318126
-0.130174
-0.0353743
0.0306597
-0.122205
0.0278829
-0.0366854
-0.10308
0.0208654
-0.0407499
-0.0533449
0.00341907
-0.0537732
-0.0225741
-0.00117906
-0.0298107
-0.0123618
-0.00426326
-0.00602629
-0.0120836
0.00199862
-0.00233193
-0.0111843
0.00434032
-0.00531034
-0.00875156
0.00385706
-0.00637031
-0.00423665
0.00402564
-0.0086249
-0.00478003
0.00349445
-0.0030223
-0.00804841
-4.75915e-05
0.00326516
-0.00780917
0.00237537
-0.00268579
-0.00894342
0.00104645
-0.0138142
0.006972
-0.00219977
-0.0166423
0.00713997
-0.00442186
-0.0189146
0.00764019
-0.00547045
-0.0237676
0.00700127
-0.00225308
-0.053297
0.018731
0.010602
-0.0978785
-0.00810018
0.052108
-0.11086
-0.0316791
0.0439399
-0.112325
-0.0418256
0.0424803
-0.107646
-0.047666
0.0421641
-0.098887
-0.052133
0.0425174
-0.0862275
-0.0543503
0.0408662
-0.0692986
-0.0558491
0.0381003
-0.049605
-0.05683
0.0363704
-0.0239419
-0.048102
0.0218022
-0.0375489
0.0131683
-0.0534165
0.0235701
-0.00816969
-0.0592958
0.0258777
-0.0205011
-0.0594058
0.0272029
-0.0276191
-0.0504341
0.026966
-0.036464
-0.0403905
0.0247898
-0.0353362
-0.0231971
0.0167631
-0.0344235
0.00925161
-0.0328874
0.027038
0.0382731
-0.0566962
0.0507706
0.0496661
-0.0741646
0.0746002
0.0497474
-0.0743968
0.0947649
0.0499443
-0.0709334
0.110487
0.0471179
-0.0636965
0.118697
0.0397672
-0.0487999
0.116655
0.0329693
-0.0317378
0.100999
0.0300632
-0.0151269
0.0543697
0.0398099
0.00624589
0.025411
0.0249998
0.00376252
0.021313
0.0041745
-0.00018113
0.0194071
0.00059332
0.00120999
0.0158347
0.000299097
0.00316343
0.00910865
-0.000249316
0.00687678
-0.000929723
0.0099506
-0.00097416
-0.0096975
0.00964619
0.000709505
-0.0130803
0.0112877
0.00254476
-0.0142069
0.0122485
0.0040423
-0.0135385
0.0119054
0.00427906
-0.0191216
0.0187069
0.0077786
-0.0285614
0.0247767
0.00376426
0.023562
-0.0198313
-0.000240992
0.0168498
-0.0130237
-0.000432238
0.00841514
-0.00835955
-0.000593736
0.0077306
-0.00769231
-0.00112434
0.00736032
-0.0069387
0.00630829
-0.00648196
0.00346445
0.00545184
-0.000295164
0.00324783
0.00618481
0.00132007
0.00334074
0.0059083
0.00165166
0.00399459
0.00477915
0.00290391
0.0103365
0.0115675
-0.00116523
0.0193632
-0.00895947
-0.000112724
0.00911563
-0.00418614
0.014393
-0.0229696
-0.0113895
0.043405
-0.0155222
-0.00574793
-0.00177799
-0.00097633
0.00356747
0.0048672
-0.00942673
0.00604348
-0.00259949
0.0036277
-0.00178529
-0.0082399
0.000449503
-0.00914522
-0.0102468
-0.0126347
0.0183849
-0.00477419
-0.030683
0.00322075
0.00365392
0.00405459
-0.017519
-0.049564
0.00586671
0.0101079
0.000844483
-0.0580363
-0.0156412
0.0261594
-0.00421306
-0.020361
0.00615943
-0.0032379
-0.0202478
0.0056016
-0.00226191
-0.0206073
0.00529973
-0.000893756
-0.0189926
0.00443167
-0.0149644
0.00402713
-0.0210866
0.0022619
0.00403455
-0.0218975
-0.00133679
0.00262684
-0.0178469
8.59436e-05
0.00544295
0.00164508
-0.0464789
0.0353749
0.00830424
0.00802655
-0.114784
0.0350455
0.0513703
0.0208075
-0.124843
0.0473057
-0.00803746
-0.125682
0.0548068
-0.021866
-0.117862
0.0645896
-0.0335186
-0.10295
0.073267
-0.0419433
-0.0838823
0.0770202
-0.0470111
-0.0614308
0.0748095
-0.0483528
-0.0367634
0.0744685
-0.0502836
0.0505984
-0.0328931
0.0589945
0.0460326
-0.0302464
0.0685549
0.0520084
-0.0352277
0.0688648
0.0531812
-0.0269131
0.0634138
0.0509158
-0.0201946
0.0441508
-0.00583641
-0.0882986
0.0719457
0.00285974
-0.0980983
0.0755784
-0.0157715
-0.0995789
0.0800206
-0.0263012
-0.0882896
0.0792113
-0.0394345
0.0718518
-0.040549
0.0880988
0.0942698
-0.0365982
0.0976757
0.101529
-0.0328239
0.0945415
0.101011
-0.0187861
0.0819652
0.0959924
-0.00872861
0.0903129
0.00690959
-0.0812908
0.103344
0.0130418
-0.0945075
0.110389
-0.00210174
-0.0984105
0.115822
-0.0118684
-0.090555
0.116653
-0.0239403
0.11116
-0.0313458
0.0870754
0.123962
-0.0275468
0.0947087
0.128017
-0.0199738
0.0912757
0.12621
-0.00793238
0.0783432
0.120163
0.00222225
0.111975
0.0166969
-0.0724639
0.116524
0.0193722
-0.0844108
0.125228
0.00594462
-0.0867572
0.131767
-0.00418954
-0.0788556
0.134128
-0.0149921
0.13105
-0.0222909
0.06823
0.131737
-0.0150476
0.0761169
0.134485
-0.00922093
0.0750226
0.130924
0.000960445
0.0640842
0.124563
0.0106665
0.115328
0.0225876
-0.0525912
0.105623
0.0297622
-0.0646192
0.116125
0.0195237
-0.0641791
0.119673
0.00984761
-0.0562414
0.125068
0.000515745
0.125942
-0.00408339
0.0351691
0.0190861
0.0612403
0.0445532
0.051434
0.0945136
0.0134144
0.0547262
0.0922928
0.0232124
0.0357402
0.0482173
0.0451321
0.0408221
0.0444617
0.0364624
0.0514474
-0.0122966
0.0268101
0.0153646
0.0143674
-0.018723
0.0276228
0.0150645
-0.0152817
0.0310791
0.0134935
-0.0135404
0.028996
0.0141858
-0.0399411
0.0275125
0.0407045
-0.000814477
0.0248071
-0.0283685
-0.00826996
0.0384268
0.00578957
-0.0369609
-0.00679256
0.029906
0.00546782
-0.0370277
-0.00458869
0.0290267
-0.0364806
0.00508012
0.0258276
0.00345986
0.00380345
0.00513939
0.0049125
0.00713967
0.00679522
0.00759629
0.00902971
0.00889262
0.00837078
-0.00412389
-0.0198964
0.0156486
0.00265989
-0.000614018
0.000583249
0.00623332
0.00289283
0.000295478
-0.000532455
0.000350852
0.00408173
-0.00154462
-0.00243365
-0.00131889
0.00409922
-0.00165447
-0.000487352
0.00117819
0.0105754
0.0120577
0.0315359
-0.053073
0.00539337
0.0177241
-0.00422032
-0.00726703
0.056702
0.00122941
-0.0150535
0.00282675
0.00354103
-0.00653682
0.00503872
0.00396534
-0.00619203
-0.0221649
0.00966349
0.0174999
-0.00939731
-0.0124939
-0.000317365
0.0178874
-0.00256181
0.0239033
-0.00787034
0.0461754
-0.0126782
0.0216049
0.0764531
-0.0249501
-0.032533
0.00464486
0.00709283
0.0297112
0.00215967
-0.0175183
0.00804204
0.0136351
-0.00404354
-0.0106331
0.00847743
0.0149291
-0.00403851
-0.0114325
0.00757941
0.0144002
-0.00235454
-0.0112541
0.00612924
0.0127548
-0.0104035
-0.000999718
0.00366973
0.0104974
-0.00877058
0.000645351
0.00869856
-0.00787722
0.00276796
0.00840128
-0.00315492
0.00338149
0.00799916
-0.00279723
0.00314428
0.0151242
-0.00806788
0.00086557
0.0391072
-0.015939
-0.00826282
0.0725391
-0.0388857
0.0048352
0.0825714
-0.0276574
0.0168656
0.084102
-0.0235154
0.0211509
0.0815095
-0.0202429
0.0219629
0.0762947
-0.0157855
0.0200974
0.0692018
-0.00866077
0.0148352
0.0595994
0.00187137
0.00680306
0.0409545
0.0179372
-0.000220172
0.0132868
0.0419078
-0.0151581
-0.00634679
0.0554292
-0.036698
-0.00214714
0.0502355
-0.055307
0.0121053
0.0392681
-0.0543535
0.015627
0.0262323
-0.0305124
0.00979051
0.0290018
-0.0237826
0.00224696
0.0114086
-0.00408336
0.000519163
0.00390934
-0.00225851
-0.000282108
0.00182036
-0.00107369
-0.00200773
0.00330722
-0.00165112
0.00318214
-0.00229236
0.00312658
0.00529302
-0.00145532
3.01922e-05
0.00670063
-0.000372454
0.00202233
-0.00019335
0.00653935
-0.000636326
0.00156211
0.00603294
-0.00367739
0.0025089
0.00540013
0.00630544
0.00109392
0.0116655
0.0171967
-0.0105322
0.0150919
-0.0100601
0.0232345
0.023818
-0.0293205
0.0432667
0.0143428
-0.043431
0.050672
0.0127388
-0.0617736
0.0466831
0.0261365
-0.0779441
0.0297959
0.0273173
-0.0890653
0.00797034
0.0201157
-0.0947405
-0.00846104
0.0150346
-0.0982408
-0.0207938
0.0146671
-0.100457
-0.0294052
0.0148817
-0.100668
-0.0351994
0.0142307
-0.0973093
-0.0395813
0.0117858
-0.088457
-0.0439889
0.00657098
-0.0318034
-0.0405005
-0.0448156
-0.0112065
-0.0183755
-0.0104275
-0.0191111
0.00263014
-0.0153343
-0.00711254
0.00132792
-0.00573198
0.000265361
-0.00940814
0.000857195
-0.00381195
0.00166983
-0.00750079
0.00100495
-0.00882772
0.0157934
-0.000172405
-0.00797476
0.0158091
-0.00183331
-0.00617086
0.0139088
-0.00215906
-0.00212768
0.0197786
0.00574827
0.020537
0.106839
-0.0447444
-0.00943251
0.0040254
0.0306757
0.00550919
0.00763239
0.010496
-0.000246289
0.00844043
0.0142534
0.000668954
0.0151053
0.00192596
-0.0162672
-0.0197001
-0.0126765
0.0307375
-0.0202068
0.0462117
-0.0178206
-0.0512271
0.106721
-0.0244677
-0.0523003
0.121667
-0.0149203
-0.104258
-0.0445688
0.125502
-0.0301404
-0.0751203
-0.0286729
-0.0175247
-0.0288113
-0.0143924
-0.00299491
-0.0402344
0.0169935
-0.00217774
-0.0241171
-0.0052776
0.0279063
-0.00549312
-0.00857407
0.0163227
-0.00789133
-0.00933915
0.0143891
-0.00620915
-0.00948737
-0.0118155
-0.00277083
0.0500859
-0.0212146
-0.0125557
-0.0061366
0.000615525
-0.0118994
-0.00852586
-0.0001032
-0.00873103
-0.00719491
-0.00155899
-0.00495717
-0.00447589
-0.0015754
1.54614e-05
-0.000776411
-0.0038167
-0.0004458
-0.00983791
2.20475e-05
0.000443487
0.00126956
-0.00171945
0.00136734
-0.00209804
0.00336095
0.00174695
-0.00266675
0.00436363
0.00205654
-0.00199034
0.00370453
0.0017507
0.00266186
0.000705896
0.00453134
0.00262374
-0.00106768
0.00473995
0.00382613
-0.000405975
0.00459942
0.00490747
-0.00048436
0.00482414
-0.000753915
-0.00641883
0.0108581
-0.0042015
-0.00623623
0.0108813
-0.00626813
-0.0053584
0.0100371
-0.00719427
0.0089986
-0.00779884
0.00658812
0.0118541
-0.00567394
0.00802442
0.0135777
-0.0050756
0.00822228
0.0150971
-0.00452015
0.0149044
-0.00312546
-0.00922794
0.0168422
-0.00133609
-0.00933983
0.0178473
-0.00274448
-0.00966978
0.0177444
-0.00394119
0.0104639
-0.00401571
0.0128595
-0.000418742
0.0102425
-0.00167515
0.00751558
0.0232616
-0.00290357
0.00737919
0.0182827
-0.000389108
0.0172775
0.000728587
-0.00888593
0.0484302
-0.0251697
-0.00522163
0.0420878
-0.027614
0.0449505
-0.0282615
0.0294899
0.11753
-0.0575464
0.127354
-0.0450237
0.0508913
0.134782
-0.0387594
-0.020606
0.0555344
0.134673
-0.0149292
0.0521305
0.1299
-0.00594467
0.115083
-0.00126594
-0.0503019
0.119534
0.00524943
-0.0560416
0.134873
-0.000315834
-0.0535694
0.1406
-0.00948263
-0.0448992
-0.0146406
0.139732
-0.128075
-0.023343
0.13348
-0.0293465
-0.0128564
-0.0511998
-0.114243
0.0286571
0.119232
-0.105951
-0.0668542
0.118283
-0.0383424
-0.049504
-0.0681404
-0.00472449
0.0138837
-0.0135385
-0.0193161
-0.0195256
-0.00996143
-0.0060179
-0.0131118
-0.00289924
-0.0139974
-0.00407905
0.00257812
-0.014371
-0.00819706
0.00317996
-0.0127338
-0.0106313
0.00253715
-0.00979296
-0.0145225
0.00286638
-0.0107603
0.00114779
-0.0137573
0.0160398
-0.0137553
0.000616277
-0.00950604
-6.51208e-05
-0.0153664
0.0144628
-0.00157667
-0.0167628
0.0116443
-0.00271204
-0.0180422
0.0096553
-0.00145873
0.0149447
-0.0254677
0.0110879
0.0251965
0.0187256
0.0207322
-0.0498459
0.018843
0.0161763
0.0178353
-0.0277897
0.0305476
0.0160597
0.0191801
-0.0470802
0.021352
0.0134366
-0.0227755
0.0184061
0.0392678
-0.0422365
0.00894024
0.0152797
0.0201083
0.0463012
-0.0100987
-0.0171445
0.0254034
0.0300574
-0.0202186
-0.0152621
-0.0172055
-0.0205703
0.00992814
-0.0182358
0.00381366
-0.0127939
-0.0179194
0.00437067
-0.0172117
-0.0123105
0.00330826
-0.0161033
-0.0141245
0.00228633
-0.0167955
0.00210267
-0.0176449
-0.0170736
0.0174323
0.000374034
-0.0162842
-0.000771224
-0.0183861
0.0156246
-0.00199049
0.0129977
-0.0030928
0.0175639
0.0143157
-0.00279263
0.0174145
-0.00140835
0.0164976
0.0182226
-0.0170434
-0.00036738
0.0183658
0.00133248
-0.0151374
0.00285648
-0.0154975
0.00100555
0.0174808
-0.0153964
-0.00120619
0.0144655
-0.00214957
-0.00752277
-0.0160074
0.0235683
0.0168724
-0.00150216
-0.0143622
-0.0171183
-0.0261765
-0.0242428
-0.0025441
-0.105237
0.103696
0.00754304
0.00121492
0.0182394
0.0127145
0.0239109
0.0146961
-0.0202449
0.0176584
-0.00845653
0.0179692
-0.012238
-0.00477056
0.00236103
-0.000510844
-0.00555063
0.00484804
-0.00582191
-0.00170674
-0.00210755
-0.00217567
-0.00379011
0.0131621
-0.000990227
-0.00316262
-0.00140219
-0.00338213
0.0163724
-0.0200656
-0.0115602
0.015469
0.00687897
-0.0116005
0.0175837
0.00910468
-0.0132601
0.0201888
0.0089237
-0.0141932
0.0229305
0.00890507
0.0301352
0.0119799
0.00987312
0.0134587
0.0124798
0.00947113
0.0132523
0.00990096
0.00784189
0.011907
0.00974019
0.00607129
0.0107981
0.00840215
0.0100027
0.0069908
-0.00219384
0.00341807
-0.00260416
0.00415715
-0.003267
0.00475292
-0.00390171
0.00539479
0.0065034
0.0016623
0.00289881
0.00142098
0.000511482
0.000410256
0.00139199
-0.000142406
0.00198274
-0.0015487
-2.67365e-05
-0.000929177
0.00194325
0.000965225
-0.000332996
0.00079301
-0.000435891
0.00182528
-0.00111369
0.00121339
-0.000538699
0.000311441
-6.62093e-06
0.00202071
-0.0017392
2.66305e-05
0.0037927
-0.000563013
-0.00358699
0.0111344
-0.00637485
0.00356777
-0.0179956
0.00336051
0.0170341
0.00387745
-0.0181095
0.0204055
0.00713701
0.00292974
0.00676365
-0.0170572
0.0208238
0.000284826
0.00596419
0.0197735
-0.0148372
-0.0136307
0.0141756
0.00504087
0.0109714
-0.00738611
0.0172057
-0.00765395
0.0172607
0.0109158
-0.000399973
0.0199628
0.00717518
0.00334352
-0.00114762
0.00152922
-0.00351127
0.000377456
-0.00229121
0.0125865
0.00135505
-0.00233556
0.000800525
0.000617704
-0.000777224
0.00151273
-0.00056796
0.00156142
-0.000391309
-0.00124562
0.00106769
-0.0020695
0.000899485
-0.000211308
-0.000226769
-0.00163291
-0.000457365
-0.00209149
0.000247189
-0.00185416
0.00139874
-0.00137972
0.000392734
0.000112263
-0.00188597
0.000170232
-0.00141183
-0.000662163
-0.00126104
-0.00240592
0.0011489
0.00124423
0.000231946
0.000479629
-0.00129285
0.00044815
-0.00168422
-0.000480221
0.000534564
0.000392292
0.000108697
7.09867e-05
-0.000661257
0.00104468
0.000306511
0.000316175
-0.000887734
-0.00161275
0.00281326
-0.000775557
0.000277463
0.000178046
-0.000885024
-0.00113115
0.00380128
0.00137841
-0.000358711
-0.00302028
0.0122608
-0.00264136
-0.00129162
-0.00174702
1.42934e-05
-0.000829458
0.000262984
-0.000728081
0.000328472
-3.92393e-05
-0.00112106
-4.32474e-05
0.00188033
-0.000306631
-0.00162027
-0.00132032
0.00321063
-0.000893262
-0.000167217
-0.00124167
0.0011184
0.00204018
0.00034243
0.000323657
0.000919928
-0.00012776
0.00191276
-0.00142249
-0.000169968
-0.00136897
0.00318933
8.80456e-05
-0.000654786
0.000202563
0.0028573
-0.00405036
0.013291
-0.00114208
-0.0180372
0.000760396
0.00704677
0.0245208
-0.0164846
0.0218788
0.00640867
-0.0177671
0.0225651
-0.00209315
-0.0148788
-0.00438938
-0.0206795
-0.0218502
-0.00631438
-0.0218826
-0.0057344
0.0151499
-0.00261797
0.0197776
0.0317686
0.0374335
-0.0235866
-0.101041
0.0665347
-0.0967284
0.0700376
-0.107795
0.0712638
-0.0171019
-0.110039
0.0687001
-0.0248507
-0.106594
0.067476
-0.0296477
-0.0981395
0.0663397
-0.0331785
-0.0860824
0.0637039
-0.035789
-0.0687192
0.0577935
-0.03794
-0.0490198
0.0534535
-0.0376827
-0.0389571
0.0427928
-0.0318007
0.00367211
-0.0298722
0.0159583
0.0325438
-0.0454975
0.0140048
0.0444312
-0.0431451
-0.00726152
0.0474591
-0.0266042
-0.0343539
0.0266537
-0.051096
-0.012855
0.0291299
-0.0597115
-0.0245292
0.0326419
-0.061985
-0.0311069
0.0328541
-0.0555365
-0.0383756
0.0314008
-0.0474769
-0.0354779
0.0269154
-0.0300811
-0.0337259
0.0158629
0.00341242
-0.0339323
0.0203513
0.0443413
-0.0619169
0.0430409
0.0554407
-0.0788965
0.068268
0.0547287
-0.0807758
0.0883079
0.0522754
-0.0731398
0.0995574
0.0476747
-0.0597809
0.100688
0.0399441
-0.0418974
0.0955526
0.033985
-0.0296596
0.0838974
0.0305746
-0.0196397
0.0472883
0.0376735
-0.00163799
0.0227348
0.0229722
0.00138487
0.0195061
0.00390508
-0.000781134
0.0181146
0.000483356
0.00080529
0.0149798
0.000138431
0.00288604
0.00870041
1.59662e-05
0.0061645
0.00914482
-0.000532025
0.00725186
0.00339577
-0.00157344
0.00463944
0.00389013
-0.00132483
0.004847
0.00166542
-0.00193579
0.00584321
0.0018567
-0.00293176
0.00559266
0.0030396
-0.00286686
0.00449333
0.00333094
-0.00230117
0.0035497
0.00271301
-0.00182399
0.0058336
0.00167282
-0.00403373
0.0128776
0.00152403
-0.0087866
-0.0122469
0.0304168
-0.00591024
-0.0434024
0.0259622
0.00443425
-0.0587018
0.0116788
0.00278669
-0.0649458
-0.000556263
0.00592719
-0.0698908
-0.0154681
0.0195086
-0.0751278
-0.0306882
0.035003
-0.0762849
-0.0454426
0.0456626
-0.073408
-0.0588863
0.0550643
-0.0631196
-0.0710836
0.0598432
-0.0451769
-0.0809637
0.0620638
-0.017444
-0.0875795
0.0588834
0.0167054
-0.0837939
0.0486836
0.0321782
-0.0583202
0.041886
0.0311362
-0.0448296
0.0449493
0.0234681
-0.0352275
0.0419922
0.00943813
-0.0261689
0.0393717
-0.000864615
-0.023187
0.0326879
-0.0348046
0.0331907
-0.0502697
-0.0193615
0.0340286
-0.0574332
-0.0341404
0.0404931
-0.0578387
-0.0489969
0.0485278
-0.0493321
-0.0640682
0.0546863
-0.0253912
-0.0817154
0.0568758
0.0047482
-0.0832434
0.0522279
0.0100349
-0.0472254
0.0410733
-0.00765019
-0.0264122
0.0432874
-0.021038
-0.0281519
0.0407538
-0.00478338
-0.0603286
0.0433358
-0.0522032
0.0430058
-0.0149321
-0.0688987
0.00165856
0.018569
-0.0546515
-0.0400629
0.0285428
-0.0390672
6.60284e-05
0.0320862
-0.0476695
0.0168196
0.0303799
-0.0776246
0.0311814
0.0410256
-0.126572
0.0317442
0.0543966
-0.123355
0.0273235
0.0570246
-0.0960718
0.0284444
0.0520457
-0.0725447
0.027621
0.0414775
-0.0515463
0.027114
-0.0299337
0.02804
-0.0366849
-0.0472841
0.0269953
-0.0387478
-0.0569534
0.0228593
-0.033261
-0.068112
0.0168253
-0.00500892
-0.0841257
-0.00344463
0.0354829
-0.119393
-0.00589821
0.0613084
-0.125193
0.0107821
0.0764486
-0.11855
0.0214447
0.0837092
-0.104304
0.024964
0.0830082
-0.0861072
0.0269321
0.0788836
-0.0657651
0.0234647
0.0709546
-0.0444493
0.0207184
0.063689
-0.0228599
0.0136992
0.0558401
-0.00128524
0.00763635
0.0415458
0.0162107
0.0088357
0.0157304
0.0363581
0.0145033
-0.0100731
-0.00127851
0.0475708
0.00894222
0.00818907
-0.00374909
-0.00878005
-0.00588694
0.0146466
-0.00334401
-0.00452855
0.0103724
-0.0029054
0.00901355
-0.00196216
0.0130929
-0.00128766
-0.00218712
0.000652917
-0.00672533
0.0270497
0.0016848
-0.0090169
-0.00776685
-0.00173459
0.00143881
-0.00799417
-0.00405578
0.00130253
-0.00671007
-0.00519214
0.000481695
-0.00498042
-0.00580909
0.000248925
0.00237541
-0.00412692
-0.000570153
0.00513306
-0.00110812
-0.00217519
-0.000309201
-0.000499126
-0.0013708
-0.000759011
-0.00066035
-0.000563168
-0.000598194
0.000399785
-0.00115765
-0.00346792
0.013207
-0.00548268
-0.0119677
0.0029728
0.0223029
-0.0079475
-0.0101065
0.0599651
-0.0310548
-0.0296286
0.0161285
0.0558084
-0.0215434
0.0292266
0.0364682
-0.0147384
0.035944
-0.00317947
-0.00531581
0.0499535
-0.0360396