/*--------------------------------*- C++ -*----------------------------------*\
| =========                 |                                                 |
| \\      /  F ield         | OpenFOAM: The Open Source CFD Toolbox           |
|  \\    /   O peration     | Version:  v2012                                 |
|   \\  /    A nd           | Website:  www.openfoam.com                      |
|    \\/     M anipulation  |                                                 |
\*---------------------------------------------------------------------------*/
FoamFile
{
    version     2.0;
    format      ascii;
    class       volScalarField;
    location    "970";
    object      nut;
}
// * * * * * * * * * * * * * * * * * * * * * * * * * * * * * * * * * * * * * //

dimensions      [0 2 -1 0 0 0 0];


internalField   nonuniform List<scalar> 
18258
(
0.00418011
0.00182264
0.00149397
0.0012947
0.00085745
0.00140271
0.00194815
0.0023188
0.00243263
0.00241185
0.00249726
0.0042144
0.00591467
0.0073098
0.00767906
0.00766743
0.00696114
0.00664823
0.0072276
0.00887892
0.00745394
0.00477798
0.00571672
0.00661664
0.00721741
0.00639777
0.00517429
0.00478875
0.00433579
0.00361499
0.00303505
0.00208524
0.00151511
0.00140347
0.00127352
0.00145254
0.0015828
0.00168877
0.00172635
0.00175361
0.0017417
0.00173171
0.00168469
0.00165444
0.00160312
0.00132218
0.00158138
0.00166439
0.00181944
0.00250303
0.00268395
0.0022555
0.0024944
0.00222446
0.00146583
0.00167855
0.00182226
0.00186135
0.00183716
0.00176067
0.00173479
0.00171288
0.00168518
0.00165236
0.00163236
0.00164871
0.00166582
0.00164777
0.00156686
0.00150129
0.00139518
0.00128879
0.00120992
0.00114881
0.00110273
0.00105157
0.000994078
0.000873175
0.000809246
0.00107147
0.00134512
0.00143722
0.00203709
0.00248371
0.00250072
0.00187208
0.00133421
0.00138476
0.00153945
0.00155485
0.00131758
0.00156614
0.00177396
0.00183858
0.0019159
0.0021415
0.00243781
0.0023762
0.00211618
0.00194997
0.00191117
0.00219155
0.00208337
0.00270149
0.00272116
0.00237169
0.00218906
0.00246335
0.0031771
0.00341818
0.00265686
0.00249564
0.00244648
0.00241493
0.00218436
0.00226116
0.00205371
0.00185048
0.00201613
0.00243617
0.0023107
0.00252365
0.00261529
0.0024536
0.00284301
0.00327801
0.00323052
0.00258505
0.00210799
0.00196496
0.00197978
0.00121082
0.00130752
0.0014087
0.00144321
0.0014674
0.00148795
0.00158632
0.00158274
0.00155941
0.00155598
0.00158323
0.000872568
0.000945343
0.000968886
0.000975678
0.00092689
0.000917344
0.00090022
0.000886305
0.000835858
0.000799795
0.00095697
0.00107456
0.00117042
0.00128252
0.00144964
0.00165407
0.00186887
0.0020859
0.00222945
0.0022704
0.00231168
0.00222832
0.00214404
0.00222065
0.00223363
0.00221932
0.00218966
0.00215216
0.00210151
0.00200861
0.00211685
0.00211118
0.00198335
0.00169965
0.00173791
0.00173505
0.00178021
0.00177084
0.00178843
0.00176265
0.00173224
0.00164835
0.00153096
0.00127372
0.00125192
0.00126611
0.001624
0.00197022
0.00304176
0.00370721
0.0042998
0.00459748
0.00491488
0.0039814
0.0044338
0.00342098
0.00307014
0.0039006
0.00510047
0.00291063
0.00159168
0.0030193
0.00268135
0.00194882
0.00173523
0.00178898
0.00178583
0.00204052
0.00235416
0.00261755
0.00274548
0.0028574
0.00294715
0.00304555
0.00316991
0.00320396
0.00309493
0.00261881
0.00315783
0.00256739
0.00300047
0.00271588
0.00184084
0.00188723
0.00201957
0.00185545
0.00180725
0.00172612
0.00156105
0.00194328
0.00250804
0.00290997
0.00332768
0.00443819
0.00410606
0.00393818
0.00304856
0.00294832
0.00152949
0.00218097
0.00226316
0.00255086
0.00169487
0.00154812
0.00147091
0.00193938
0.00224763
0.00265289
0.0029446
0.00349756
0.00271556
0.00310272
0.00280982
0.00196227
0.00188382
0.002694
0.00290021
0.00238415
0.0021266
0.00267021
0.0025294
0.00179591
0.00142474
0.00219118
0.00226504
0.00163087
0.00406948
0.00436008
0.0041647
0.00507235
0.00634581
0.00722868
0.0067448
0.00597813
0.00666241
0.00528847
0.00513604
0.00548663
0.00460283
0.00320492
0.0032844
0.00339456
0.00348475
0.00374027
0.00397275
0.0042572
0.00452883
0.00411782
0.00342069
0.00258969
0.0017817
0.0017573
0.00174834
0.00156995
0.00232667
0.00352068
0.00349747
0.00198782
0.00115854
0.00130999
0.00147908
0.00146453
0.00106301
0.000799989
0.00137801
0.00157558
0.00160101
0.00156125
0.00147404
0.00154035
0.00247373
0.00381102
0.00418749
0.0043371
0.00447867
0.00457869
0.00463436
0.00465205
0.00466195
0.00467412
0.00468489
0.00470125
0.00468697
0.00458745
0.00403531
0.00253735
0.00148321
0.00137773
0.00152056
0.00163417
0.00173335
0.00147498
0.000901933
0.00144042
0.00184454
0.00212004
0.00213816
0.00199543
0.00193567
0.00305232
0.00405846
0.00478392
0.004931
0.00499664
0.00494206
0.00493532
0.00482807
0.00479517
0.00420546
0.00300692
0.00328706
0.00352926
0.0035694
0.00365167
0.00377543
0.00368818
0.00348536
0.00509036
0.00587572
0.0059514
0.00607813
0.00600638
0.00590308
0.00563555
0.00532965
0.004487
0.00336497
0.0021233
0.00216771
0.00230774
0.00228564
0.00198972
0.00209608
0.00227494
0.00229773
0.00237291
0.00266117
0.00302245
0.00288313
0.00248121
0.00210737
0.00196209
0.00192054
0.00184231
0.00137956
0.00140052
0.00136174
0.00138441
0.00185984
0.00221362
0.00255287
0.00362081
0.00322975
0.00262655
0.0041655
0.00426899
0.00458749
0.00506822
0.00519373
0.00575537
0.00400312
0.00360717
0.00370558
0.00302722
0.00280202
0.00283189
0.00284257
0.0026493
0.0028998
0.00287421
0.00277022
0.00305839
0.00337009
0.00444375
0.00538435
0.00568081
0.0058521
0.00592243
0.00590084
0.00578699
0.00582418
0.00511648
0.00511393
0.00489734
0.00475688
0.00470736
0.00447482
0.00511954
0.00531451
0.00537928
0.00551317
0.00572199
0.00556587
0.00539342
0.00526212
0.00516702
0.00506744
0.00512063
0.00521564
0.00531695
0.00545914
0.00564899
0.00567993
0.0054832
0.00533445
0.00523266
0.00513695
0.00514049
0.00522583
0.00532524
0.00546624
0.00564627
0.00554613
0.00540613
0.00528141
0.00517908
0.00508892
0.00491073
0.00502927
0.00515958
0.00526692
0.00533648
0.00461097
0.00492867
0.00484384
0.00438541
0.0041044
0.00311692
0.00337327
0.00355729
0.00387457
0.00430089
0.00438466
0.00367959
0.00315331
0.00307273
0.00304794
0.00311991
0.00314573
0.00316101
0.00357175
0.00538321
0.00542037
0.00543628
0.00543905
0.0046505
0.00451818
0.00420829
0.00769891
0.00716839
0.00621027
0.00511837
0.00274188
0.00235027
0.00278384
0.00338546
0.00378533
0.00417737
0.00277331
0.00171811
0.00200264
0.00207654
0.0020258
0.00187241
0.00155974
0.00143984
0.0013068
0.00140634
0.00249061
0.00397392
0.00447577
0.00452287
0.00447763
0.00439019
0.00428406
0.00413643
0.00407787
0.00513642
0.00694717
0.0078547
0.00782447
0.00672197
0.00547914
0.00308964
0.00159142
0.00117112
0.0012602
0.00138544
0.0016268
0.00144812
0.00122206
0.00133877
0.00126771
0.0025672
0.00442991
0.00564519
0.00669743
0.00658614
0.00571981
0.00468041
0.00443893
0.00454351
0.0046133
0.00467332
0.00473497
0.00477745
0.00475138
0.00432528
0.00267274
0.00159548
0.00141756
0.00152426
0.00178644
0.0018983
0.00191761
0.00189082
0.00163896
0.00271023
0.00430351
0.00273691
0.00149351
0.00161386
0.0016022
0.00282623
0.00282165
0.00276042
0.00429448
0.00454047
0.00452935
0.00425613
0.00406314
0.00240576
0.00273048
0.00273965
0.00275411
0.00279925
0.00141414
0.00154156
0.00158972
0.00171165
0.00149762
0.00190033
0.000491745
0.000681869
0.000791981
0.000860996
0.000927523
0.000909789
0.00174053
0.00176611
0.00168583
0.00164223
0.00208384
0.00223582
0.00228498
0.00210442
0.00194176
0.00206719
0.00207186
0.00195273
0.00184958
0.00191758
0.00191879
0.00183858
0.00156377
0.00146531
0.00160881
0.00159163
0.00157905
0.00283551
0.00283029
0.00267839
0.00440032
0.00433004
0.00484925
0.00481771
0.00481192
0.00479258
0.00484356
0.00487031
0.00489072
0.00491455
0.0049047
0.00485786
0.00677106
0.00477694
0.00416884
0.0024112
0.00232273
0.00164045
0.00143763
0.00169287
0.0018106
0.00196297
0.00191862
0.00202256
0.00202023
0.0021436
0.0019896
0.00176662
0.00270588
0.00289068
0.00282319
0.002879
0.00281114
0.00279456
0.00277395
0.00273455
0.0026871
0.00159998
0.00156952
0.00183795
0.00192936
0.00207316
0.00209191
0.00213736
0.00202705
0.00178274
0.00172561
0.00198735
0.00196048
0.00199864
0.0018843
0.00187647
0.00167168
0.00171409
0.00345876
0.00639373
0.00328578
0.0036504
0.00330636
0.00376121
0.00329388
0.00284018
0.00290683
0.00256013
0.00267059
0.00280141
0.00285213
0.00299768
0.00353351
0.00340208
0.00298635
0.0028996
0.00284241
0.00267992
0.00241213
0.00252702
0.00254991
0.00260471
0.00289479
0.00332138
0.00372335
0.00452579
0.0043918
0.00384676
0.00351703
0.00368876
0.00375213
0.00472443
0.00441389
0.00438758
0.0046282
0.0045821
0.00434927
0.00412114
0.00397788
0.00341422
0.00347026
0.00397264
0.00384408
0.00396159
0.00389207
0.00404596
0.00411907
0.00395366
0.00367432
0.00386197
0.00385375
0.00428023
0.00416311
0.00386141
0.00353321
0.00377601
0.00372982
0.00430928
0.00405685
0.00379422
0.00349202
0.00334459
0.00379616
0.00372681
0.0042267
0.00434878
0.00435082
0.00379247
0.00370436
0.00440653
0.00423998
0.00409492
0.00426551
0.0035319
0.00363265
0.00447614
0.00457
0.0043354
0.00361884
0.00367415
0.00314991
0.00370529
0.00461279
0.00435655
0.00357044
0.00296219
0.00414541
0.00436176
0.0046151
0.00436091
0.00475093
0.00511851
0.00417068
0.00453789
0.00593254
0.00452267
0.00524868
0.00536541
0.00539754
0.00540096
0.0054226
0.00545054
0.00574343
0.00558895
0.00355061
0.00424748
0.00412312
0.00344729
0.00293087
0.0032283
0.00347682
0.0035269
0.00361631
0.00375431
0.00369055
0.00357099
0.00522359
0.00595684
0.00609102
0.00621198
0.00610776
0.0059525
0.00560078
0.00517102
0.00428845
0.00319856
0.00199541
0.00203496
0.00216997
0.00215049
0.00186734
0.00140955
0.000925467
0.0013723
0.00141538
0.00133018
0.00120971
0.00106351
0.00109184
0.00201065
0.00411246
0.00549892
0.0060588
0.0065223
0.00701099
0.00745014
0.00778088
0.00802634
0.00819921
0.00831003
0.00833388
0.00817847
0.00747987
0.00715728
0.00675459
0.00642326
0.005953
0.00556333
0.00628782
0.00689879
0.00727169
0.00769243
0.00788456
0.00779922
0.00676956
0.00658368
0.00759264
0.00934733
0.00795364
0.00998912
0.0117271
0.00914183
0.00820615
0.00818634
0.00914929
0.00932595
0.00900132
0.00849434
0.00791345
0.0071762
0.007553
0.00789023
0.00821053
0.0085063
0.00927493
0.00941315
0.0093411
0.00918519
0.00898671
0.00872637
0.00832902
0.00777184
0.00709943
0.00642789
0.00566064
0.00411222
0.00185651
0.00218017
0.00212798
0.00237684
0.00226897
0.00100966
0.00110584
0.00111772
0.00112246
0.00106015
0.00120187
0.00174492
0.00281491
0.00203414
0.00166755
0.00116451
0.00138032
0.00230533
0.00392418
0.0044215
0.00449469
0.0047289
0.00632862
0.00690934
0.00729225
0.0076077
0.00778782
0.00769266
0.00745945
0.00704277
0.00654266
0.00633023
0.00598881
0.00566645
0.00548311
0.00529233
0.0049707
0.00392857
0.00373354
0.00388525
0.00384164
0.00367924
0.00392857
0.00406867
0.00406365
0.00410736
0.00414562
0.00426692
0.00440997
0.00453451
0.00459969
0.00462375
0.00463133
0.00464095
0.00464881
0.00466352
0.0046483
0.00454712
0.0039933
0.00249777
0.00145836
0.00134853
0.00147862
0.00156367
0.00160011
0.001421
0.000914572
0.00142132
0.00183959
0.00188647
0.00206929
0.00213436
0.00226243
0.00252051
0.00291272
0.00300536
0.00266738
0.00252713
0.00247308
0.00240999
0.00205949
0.0025652
0.002833
0.00282797
0.00280136
0.00302728
0.00372499
0.00357818
0.00315533
0.00311984
0.00308802
0.00278853
0.00274425
0.00300327
0.00303674
0.00315107
0.00369554
0.00443207
0.00411092
0.00374351
0.00358703
0.00331155
0.00290988
0.00263058
0.0032537
0.00267473
0.00138606
0.00117458
0.00118292
0.00118399
0.0011376
0.0013445
0.00141135
0.00142796
0.00133036
0.00147969
0.00164932
0.00159924
0.00182125
0.00179222
0.00159682
0.00158046
0.00171998
0.00182459
0.0018763
0.00192287
0.00313733
0.00322791
0.00250548
0.00362599
0.00418616
0.00418426
0.00443453
0.00364244
0.00325379
0.00386204
0.00448025
0.00516566
0.004075
0.00384322
0.00394519
0.00180607
0.000950082
0.00134102
0.00166441
0.00185119
0.00179386
0.00169456
0.00143268
0.0025436
0.00261198
0.00414126
0.00464432
0.00469827
0.00466225
0.00481086
0.00534092
0.00625859
0.00684322
0.00701336
0.0069069
0.00662249
0.00609607
0.0055831
0.00552945
0.00533258
0.00517552
0.00512218
0.00446421
0.00392142
0.00417473
0.00411291
0.00424965
0.00431246
0.00435743
0.00440338
0.00448122
0.00457532
0.00466053
0.00471862
0.00475728
0.00479016
0.00482419
0.00485873
0.00489627
0.00491677
0.00487079
0.00440304
0.00264292
0.00157637
0.00143832
0.00153474
0.00180378
0.00189914
0.00204125
0.00181321
0.000954936
0.00112316
0.00195154
0.00216275
0.00200065
0.00187242
0.00183918
0.00154064
0.00278923
0.00275254
0.00431687
0.00485328
0.00491965
0.00490468
0.00486551
0.0048218
0.00478156
0.00474887
0.00472334
0.00469639
0.00465748
0.00461081
0.00456514
0.00451832
0.00443979
0.00432413
0.00422087
0.00440559
0.0045136
0.00469354
0.00492011
0.00504718
0.00495905
0.00480676
0.00472196
0.00473789
0.00477811
0.00482152
0.00486114
0.00488122
0.00482936
0.00455383
0.00427558
0.00270935
0.00274462
0.00135173
0.0015017
0.00173275
0.00178947
0.0019441
0.00193564
0.00152239
0.00118559
0.00133704
0.00124968
0.00223238
0.00245419
0.00272082
0.00269366
0.00146382
0.00150107
0.00156008
0.00176032
0.00163658
0.00158163
0.00389608
0.00373256
0.0039086
0.00479823
0.00413372
0.00285564
0.00313232
0.0043568
0.00459399
0.00277917
0.00208299
0.0023127
0.00293005
0.00431079
0.00436406
0.00414536
0.00412344
0.00301414
0.00370397
0.00445263
0.00433087
0.00338151
0.00233072
0.00173325
0.000842896
0.00160352
0.00137159
0.00335796
0.00371568
0.00367155
0.00401487
0.00426573
0.00430958
0.00418751
0.00371453
0.00378828
0.00382553
0.00435804
0.0043773
0.0037065
0.0031281
0.00254119
0.00256373
0.00261325
0.00289604
0.00362598
0.00341633
0.00299441
0.00290391
0.00284144
0.00267314
0.00241237
0.00211669
0.00213112
0.00198343
0.00191943
0.00302569
0.00402759
0.00474936
0.00488606
0.00493575
0.00486025
0.00482608
0.00468822
0.00461696
0.00401122
0.00511934
0.00540951
0.00521986
0.00525852
0.00529142
0.00533185
0.00533285
0.005233
0.0044975
0.00268617
0.00175473
0.00198081
0.00213822
0.002008
0.00199663
0.00212791
0.00201892
0.00177319
0.00287262
0.00280749
0.00448836
0.00508192
0.00518989
0.00519557
0.0051743
0.00515674
0.00516332
0.00543581
0.00531451
0.00539419
0.00569168
0.00570045
0.00576843
0.00541509
0.00534533
0.00530042
0.00527016
0.00522149
0.00509273
0.0045063
0.0043685
0.00496144
0.00511496
0.00518352
0.00523129
0.0052882
0.00536251
0.00557558
0.00573419
0.00579444
0.00554853
0.00545589
0.0053268
0.00514545
0.00510283
0.00509449
0.0050911
0.00506729
0.00493718
0.00434723
0.00279574
0.00286495
0.00170456
0.00171578
0.00197646
0.00207617
0.00203931
0.00188867
0.0018415
0.00316603
0.00360353
0.00383357
0.00412933
0.00394397
0.00392178
0.00448315
0.00433836
0.003871
0.00402725
0.00360977
0.00343999
0.00332563
0.00334321
0.00176046
0.00189949
0.00198108
0.00194796
0.0018626
0.00166108
0.00152319
0.00277921
0.00275904
0.00272327
0.00161983
0.00158452
0.00186688
0.00181322
0.0016589
0.00141401
0.00154996
0.00239231
0.00267547
0.00414754
0.00429537
0.00459762
0.00491498
0.00503416
0.00506598
0.00508515
0.00510758
0.00515625
0.00521488
0.00523342
0.00523599
0.00528974
0.00528133
0.00528241
0.00525458
0.00522237
0.00518458
0.00514406
0.00507772
0.00494183
0.00461736
0.0042995
0.00484713
0.0048921
0.00498378
0.0050786
0.00511935
0.00512615
0.00510796
0.00507108
0.00502712
0.00497632
0.00497387
0.00510687
0.00513823
0.00516053
0.00514254
0.00512357
0.00511719
0.00509538
0.00506019
0.00496847
0.00487633
0.00483713
0.0047571
0.00488351
0.00493884
0.004946
0.00499199
0.00506687
0.00508739
0.00508598
0.00504923
0.00501936
0.00498122
0.00491684
0.00483163
0.00454948
0.00461166
0.00468971
0.00479212
0.00489109
0.00497102
0.00501586
0.00501871
0.0049724
0.00494112
0.00494202
0.00490023
0.00492178
0.00494424
0.00491943
0.00491685
0.00492077
0.0048647
0.00476281
0.0046211
0.00447153
0.00434886
0.00428795
0.00418543
0.00450514
0.00463243
0.00474462
0.00484315
0.00493249
0.00502311
0.00505207
0.00504363
0.00498874
0.00495833
0.00495837
0.00491178
0.00490902
0.00495394
0.0049545
0.00497987
0.00502773
0.00501256
0.00494544
0.00477469
0.00460923
0.00446532
0.00432753
0.00417883
0.00415592
0.00422396
0.00416326
0.00421734
0.00436223
0.00454556
0.00470432
0.0048061
0.00483812
0.00486791
0.00491189
0.00490689
0.00488033
0.00486612
0.00480668
0.00475501
0.00469144
0.00455205
0.00437459
0.00421909
0.00417228
0.0042594
0.00434413
0.00426458
0.00394949
0.00410603
0.00425163
0.00439641
0.00460228
0.00484042
0.00494572
0.00498332
0.00496053
0.00494331
0.00494223
0.00489976
0.00488447
0.00492344
0.00492509
0.00494237
0.00497214
0.00493892
0.00485156
0.00455804
0.00421248
0.00404665
0.00394997
0.00381449
0.00428502
0.00437555
0.00426702
0.00419367
0.0043058
0.00443578
0.00457144
0.00466143
0.00469655
0.00474683
0.00481337
0.00484517
0.0047975
0.00474249
0.00467467
0.00464036
0.0046414
0.00461913
0.0045316
0.00442909
0.00430945
0.00445499
0.00454143
0.00445879
0.00402129
0.00408635
0.00417854
0.00422775
0.00455119
0.00484186
0.00491392
0.00492078
0.00489383
0.00487701
0.00487992
0.00485604
0.0048088
0.00479808
0.00479033
0.00484213
0.00491005
0.00494328
0.00495817
0.00473948
0.00435843
0.00430778
0.0041353
0.00405381
0.00451876
0.00457161
0.00446437
0.00436629
0.00457541
0.00466422
0.00468939
0.00467062
0.00462059
0.00458696
0.00464495
0.00473695
0.00466661
0.00436456
0.00409597
0.00423512
0.00426957
0.00425886
0.00420098
0.00410487
0.00389629
0.0043522
0.00479855
0.00483348
0.00434421
0.00434991
0.00420794
0.00390293
0.00427053
0.00447367
0.00452138
0.00451014
0.00444762
0.004284
0.00452961
0.00474475
0.00470519
0.00425692
0.00276142
0.00280012
0.00282132
0.00282506
0.00278891
0.00277921
0.00273965
0.00271954
0.00265767
0.00259515
0.00253453
0.00270285
0.00284539
0.00303858
0.00305483
0.00313503
0.00300564
0.0028488
0.00266307
0.00207457
0.00263214
0.00314
0.00333456
0.00358559
0.00363775
0.00418751
0.00440224
0.00451934
0.0044342
0.00355737
0.00301811
0.00241231
0.00156891
0.000977734
0.00114817
0.00119479
0.00126168
0.00155099
0.0028262
0.0014481
0.00199939
0.00156303
0.00268075
0.00143833
0.000897834
0.000595618
0.00076254
0.000909269
0.000919551
0.000879435
0.000732147
0.000574087
0.000586672
0.000546245
0.000580118
0.000520689
0.000596115
0.000554755
0.000761752
0.00110753
0.0012955
0.00132868
0.00107595
0.00121745
0.00101747
0.0011757
0.00105122
0.00114641
0.00110023
0.00134554
0.00147461
0.00141114
0.00141425
0.00123747
0.000865442
0.00100342
0.000788423
0.000947029
0.000724723
0.000935352
0.00080214
0.00104234
0.00107441
0.00107119
0.00103122
0.000787669
0.000933467
0.000735252
0.000907106
0.000747032
0.000802025
0.000668751
0.000973788
0.000992947
0.000914636
0.00097716
0.00109818
0.00117559
0.00128744
0.00121239
0.00137446
0.00132237
0.00133364
0.00126366
0.00122964
0.00120195
0.00120488
0.0011852
0.00119159
0.00122975
0.00123115
0.00123559
0.00127387
0.00125517
0.001224
0.00120482
0.00107075
0.000864934
0.00150688
0.00155389
0.00157825
0.00157876
0.00154487
0.00152622
0.0014704
0.00145604
0.00140853
0.00138244
0.0013195
0.00126987
0.00121176
0.0013627
0.000763252
0.000866763
0.000914928
0.000942744
0.000961217
0.000970009
0.000976316
0.000970545
0.000958015
0.000935026
0.00092795
0.000902619
0.00115388
0.00131245
0.00137326
0.00139015
0.00130301
0.00124147
0.00272754
0.00330427
0.00500848
0.00511918
0.00385062
0.00383646
0.00132319
0.00140043
0.000956376
0.00134397
0.00138603
0.00137183
0.00129556
0.000934206
0.00140222
0.000978098
0.00131539
0.000991507
0.00122043
0.00102222
0.00146535
0.00187329
0.00181326
0.00164521
0.00113741
0.000947684
0.000954946
0.000813626
0.000891665
0.000724255
0.000881089
0.000736398
0.0010705
0.00148785
0.00167707
0.0017131
0.0013521
0.00186716
0.00140453
0.00203624
0.00162098
0.00200288
0.00160932
0.00186001
0.00230189
0.00231266
0.00225774
0.00181959
0.00145617
0.00163543
0.00144805
0.0016691
0.00241411
0.00158174
0.00240753
0.000993586
0.00135486
0.00139698
0.00137813
0.00129957
0.000875209
0.0022267
0.00117849
0.00209146
0.00135421
0.00216551
0.00158183
0.00210897
0.00252409
0.00264738
0.00264371
0.0021591
0.00195232
0.00203046
0.0016211
0.00194715
0.00144173
0.00208776
0.00117517
0.00151984
0.00166906
0.00176041
0.00176516
0.00144706
0.00286332
0.00179996
0.0027173
0.00189264
0.00242607
0.00194534
0.00212505
0.0025105
0.0024943
0.00247258
0.00209639
0.00169789
0.00224232
0.0015974
0.0481351
0.110775
0.0442532
0.111995
0.050637
0.0719
0.0708188
0.0709346
0.0711943
0.0534686
0.116654
0.137792
0.143686
0.14546
0.14441
0.233343
0.190338
0.285886
0.185304
0.109228
0.0475085
0.0653951
0.168405
0.277829
0.41692
0.528964
0.36051
0.373139
0.238105
0.234737
0.221025
0.17885
0.109725
0.0550728
0.00940899
0.0102719
0.0147102
0.0196058
0.01538
0.00937785
0.00185614
0.00191444
0.00195644
0.00198192
0.00197322
0.00192889
0.00195662
0.00184419
0.00172915
0.00192853
0.00210313
0.00234537
0.00273741
0.00301709
0.00271661
0.00297561
0.00315293
0.00329708
0.00341597
0.00359357
0.00379383
0.00397042
0.00398017
0.0036475
0.00310915
0.00252944
0.00212624
0.00201451
0.00189182
0.00166838
0.00152633
0.00142925
0.00138236
0.00136296
0.00140066
0.00153069
0.0016434
0.00168291
0.00164976
0.00161945
0.00159302
0.00141848
0.00165848
0.00227495
0.00229289
0.00392841
0.00452662
0.00462072
0.00462714
0.00410236
0.00262089
0.00262672
0.00264026
0.00269092
0.00270155
0.00270882
0.00270605
0.00269672
0.00268104
0.00265188
0.00263735
0.00259493
0.00255909
0.00246958
0.00247366
0.00250667
0.00253211
0.0024909
0.00250178
0.00244811
0.00316347
0.00423539
0.00479093
0.00500772
0.00519426
0.00504208
0.00698072
0.00596352
0.00419812
0.00414432
0.0040911
0.00485574
0.00488789
0.0043994
0.004414
0.00402512
0.00250868
0.00249445
0.00249572
0.00266381
0.00271441
0.00280769
0.00283294
0.00285704
0.0028707
0.00286823
0.00286705
0.0028452
0.00282708
0.00276577
0.00274513
0.00273679
0.00150906
0.00164632
0.00170632
0.0017168
0.00173962
0.00172886
0.00171799
0.00169734
0.00168305
0.00165517
0.00162228
0.00157542
0.00148305
0.0013521
0.00148925
0.00253108
0.00253221
0.00414028
0.0046634
0.0046992
0.00524791
0.00498234
0.00471951
0.00506936
0.00456151
0.00452188
0.00409006
0.0025377
0.00257144
0.00152447
0.00150874
0.00176254
0.00171192
0.00182811
0.00187657
0.00188206
0.0019075
0.00193309
0.00196387
0.00201232
0.0020273
0.0019981
0.00199339
0.00187967
0.00162523
0.00164518
0.00193824
0.00203074
0.00188451
0.00184943
0.00183487
0.00179124
0.00175725
0.00172419
0.00174738
0.00188211
0.00188214
0.00185076
0.00176323
0.00171963
0.00149345
0.00144595
0.00252185
0.00254098
0.00416589
0.00430917
0.00429648
0.00494465
0.00550565
0.00626272
0.0053413
0.00433134
0.00444231
0.00507071
0.00375298
0.00310017
0.00184182
0.0014209
0.00170891
0.00166577
0.00173217
0.00179452
0.00159274
0.00170806
0.00157793
0.00143342
0.00142511
0.00142301
0.00145847
0.00147313
0.00149975
0.00150319
0.0015384
0.00153487
0.00153967
0.00155856
0.00156843
0.00173304
0.00188503
0.00158565
0.00134419
0.00130832
0.00123536
0.00117582
0.0012045
0.00117653
0.00116954
0.00114824
0.00112898
0.00107733
0.00112309
0.00119198
0.00139476
0.00133666
0.00108022
0.000964916
0.000659797
0.00067187
0.000676521
0.000697425
0.000704944
0.000714222
0.000717617
0.000729243
0.000731449
0.00073506
0.000734734
0.000752058
0.000749428
0.000740809
0.000735196
0.000739065
0.000742646
0.000742122
0.00108644
0.00120986
0.00132259
0.00157125
0.00185055
0.00159213
0.00134883
0.00116222
0.000747262
0.000758709
0.000772593
0.000779794
0.00079639
0.00081157
0.00082852
0.000839335
0.000847502
0.000856148
0.00086517
0.000869092
0.000867163
0.000850858
0.000841162
0.000862998
0.000948614
0.000998344
0.00106188
0.00108599
0.00110719
0.00111819
0.0011124
0.00112368
0.00111
0.00110799
0.00108839
0.00107991
0.00107157
0.00106137
0.00104887
0.00101864
0.00100844
0.00106128
0.00179458
0.0023464
0.00270526
0.00298167
0.00273997
0.00220679
0.00233901
0.00409831
0.0038677
0.00229855
0.00213819
0.00196366
0.0017021
0.00152881
0.00184922
0.00210691
0.00230309
0.00247679
0.00263552
0.00274314
0.00288129
0.00306149
0.00338067
0.00342088
0.00312056
0.00252897
0.00214095
0.00199956
0.0019318
0.00181392
0.00168523
0.00172755
0.00174011
0.0016884
0.00162419
0.001606
0.00163255
0.00166638
0.00164642
0.00164576
0.0014703
0.00146979
0.00251149
0.00255889
0.00393624
0.00414738
0.00418764
0.00269218
0.00265545
0.0015511
0.00144063
0.00157164
0.00163161
0.00163506
0.0016418
0.00163359
0.00160502
0.00158422
0.00155979
0.00154016
0.00152282
0.00149287
0.00143569
0.00132629
0.00144552
0.00162055
0.00169199
0.0017103
0.00171906
0.00174599
0.00179068
0.00182623
0.00190876
0.00191697
0.0019161
0.00192278
0.00179713
0.00185323
0.00156844
0.00156608
0.00271426
0.00270673
0.00155508
0.00183617
0.00184881
0.00182766
0.00196782
0.00180074
0.00174375
0.00173472
0.00166146
0.00162246
0.00157022
0.00153932
0.0015697
0.00167021
0.00161755
0.00143387
0.001383
0.0015506
0.00149098
0.00123686
0.00105658
0.00102739
0.000983365
0.000956648
0.00100263
0.0010386
0.00105908
0.00108507
0.00109274
0.00114039
0.00110944
0.00116406
0.00123445
0.00129046
0.00153062
0.00165887
0.00149863
0.00146996
0.00145175
0.00145039
0.00145505
0.00139525
0.00139133
0.00136037
0.00134511
0.00130448
0.00128626
0.00126311
0.00126736
0.00128085
0.00140828
0.00362496
0.00462055
0.00481215
0.00821958
0.00332304
0.00339369
0.00666391
0.0027516
0.00413981
0.00443618
0.0046356
0.00484068
0.00443245
0.0056298
0.00393045
0.00437512
0.00456456
0.00401373
0.00149331
0.00168193
0.00195155
0.00175101
0.00154698
0.00105452
0.00113735
0.00117476
0.0012051
0.00122489
0.00124674
0.00127015
0.00129208
0.00130744
0.00130762
0.00126782
0.00122493
0.00112643
0.00109361
0.00113589
0.00117958
0.001036
0.000975461
0.000986953
0.00100315
0.00101223
0.00101413
0.00102403
0.00102667
0.00104232
0.0010339
0.00104176
0.00102391
0.0010329
0.00101945
0.000984745
0.000935932
0.00085306
0.000832803
0.00119953
0.00127741
0.00134196
0.0015231
0.001759
0.00187716
0.00168269
0.00155201
0.00148978
0.00165263
0.00165333
0.0030056
0.00577298
0.00258284
0.00289298
0.00843365
0.00335266
0.00260686
0.00264606
0.00267377
0.00267759
0.00155605
0.00184277
0.00178652
0.00179408
0.00152173
0.00127772
0.00114608
0.00102473
0.000694989
0.000692719
0.000697945
0.000708705
0.000712063
0.000681645
0.000681569
0.000677697
0.000676192
0.000661842
0.000657849
0.00064618
0.000639106
0.00062227
0.000613177
0.000597188
0.000594295
0.000618798
0.000687312
0.00083055
0.000925711
0.00105157
0.00107105
0.00120792
0.00300312
0.00347678
0.00479381
0.00474742
0.0074843
0.00467747
0.00353314
0.00319497
0.00467464
0.00483166
0.0044934
0.00608245
0.00420909
0.00278667
0.0041718
0.00346377
0.00414079
0.00405119
0.00429256
0.0068086
0.00716364
0.00201865
0.00179956
0.0018932
0.00214796
0.0025504
0.00234786
0.00267488
0.00267066
0.00205933
0.00131651
0.00419453
0.00507105
0.00406035
0.00486487
0.00750897
0.00302084
0.00294636
0.00260696
0.00217588
0.00197758
0.00195105
0.00217552
0.00260344
0.00652396
0.00697783
0.00641494
0.00639011
0.00580814
0.00640109
0.0079793
0.00794315
0.00701639
0.00656292
0.00679311
0.00420766
0.00262695
0.003054
0.00338269
0.0045132
0.00465506
0.00981617
0.00333846
0.00368448
0.00374066
0.00500198
0.00484941
0.00855753
0.00363444
0.00391566
0.00515978
0.00688946
0.0126811
0.00464196
0.00488301
0.00701791
0.00712416
0.00651502
0.00471593
0.00427147
0.00464836
0.00350258
0.00342487
0.00292481
0.0043169
0.00580157
0.00459417
0.00446091
0.00379279
0.00338541
0.00345892
0.00358948
0.00298252
0.00294151
0.00339379
0.00252747
0.00243619
0.00258452
0.00071625
0.000367185
0.000375407
0.000385194
0.000393115
0.000401281
0.000407237
0.000414317
0.00041748
0.000417842
0.00041894
0.000442955
0.000438803
0.000424916
0.000385843
0.000440256
0.00069864
0.000699071
0.000439715
0.000387639
0.00069556
0.00110819
0.00130638
0.00154534
0.00156433
0.00134981
0.00117043
0.000720541
0.000709214
0.000429882
0.000502063
0.000545227
0.000483621
0.000539759
0.000500298
0.000529908
0.000535513
0.000495573
0.000492772
0.000494658
0.000490921
0.000482189
0.000471525
0.000458482
0.000448187
0.000442451
0.000437923
0.000428187
0.000356242
0.000331902
0.00039866
0.000635261
0.000634285
0.000594683
0.000560995
0.000532322
0.000519387
0.000515893
0.000513157
0.000522149
0.000538995
0.000543771
0.000548603
0.000591048
0.00057243
0.000611405
0.000573807
0.000613012
0.000575343
0.000529266
0.000444401
0.000458483
0.000739634
0.000747494
0.00120754
0.00138123
0.00156624
0.00157415
0.00175741
0.00185106
0.0015678
0.00162765
0.00186507
0.00173684
0.00154791
0.00155404
0.00139777
0.00139922
0.00123961
0.000774808
0.00076431
0.000480016
0.000466205
0.000555908
0.000546208
0.000607473
0.000650159
0.000650387
0.000648296
0.000632205
0.000626388
0.000550868
0.000540002
0.000540715
0.000524353
0.000520719
0.000542648
0.000591676
0.000694091
0.000839547
0.000914351
0.00094652
0.000908038
0.000813196
0.000599789
0.000542283
0.000939544
0.00097565
0.00174449
0.0041443
0.00191987
0.00368476
0.00265851
0.000661742
0.000738431
0.00094168
0.0010552
0.00113921
0.00118724
0.00108469
0.000904645
0.000681104
0.000562697
0.000841208
0.000727456
0.000821906
0.000717868
0.000928917
0.00107404
0.001039
0.00104678
0.000884613
0.000720613
0.000763169
0.000685147
0.000755222
0.000632295
0.000760772
0.00068678
0.000863015
0.000871113
0.000852978
0.000808499
0.00061559
0.000645898
0.000541819
0.000587785
0.00052778
0.000545524
0.000516961
0.000602813
0.000694645
0.000666694
0.000664099
0.000545668
0.000427616
0.000472328
0.00040853
0.000462403
0.000359455
0.000435428
0.000365091
0.000472641
0.000487176
0.000489568
0.000486165
0.000395364
0.000465026
0.000570116
0.000598913
0.000603955
0.00057516
0.000443548
0.000686256
0.000618972
0.000755728
0.00065351
0.000715504
0.000651499
0.000759368
0.00097254
0.00101538
0.00102211
0.000829272
0.000824184
0.00150384
0.0834519
0.00135279
0.00159903
0.00164895
0.00164304
0.00135843
0.00132513
0.00164141
0.00121405
0.00171953
0.00108269
0.00183426
0.000699265
0.00106311
0.0011414
0.00113896