/*--------------------------------*- C++ -*----------------------------------*\
| =========                 |                                                 |
| \\      /  F ield         | OpenFOAM: The Open Source CFD Toolbox           |
|  \\    /   O peration     | Version:  v2012                                 |
|   \\  /    A nd           | Website:  www.openfoam.com                      |
|    \\/     M anipulation  |                                                 |
\*---------------------------------------------------------------------------*/
FoamFile
{
    version     2.0;
    format      ascii;
    class       volScalarField;
    location    "1215";
    object      epsilon;
}
// * * * * * * * * * * * * * * * * * * * * * * * * * * * * * * * * * * * * * //

dimensions      [0 2 -3 0 0 0 0];


internalField   nonuniform List<scalar> 
18258
(
0.0241784
0.0123149
0.00919991
0.00724688
0.0127002
0.0125994
0.0130532
0.0173988
0.0242214
0.037062
0.0536234
0.0481776
0.0435414
0.0452712
0.0474323
0.0450055
0.035062
0.0303348
0.0400569
0.0667296
0.0607679
0.0496964
0.0607283
0.0514598
0.0659707
0.0834886
0.0640429
0.0575086
0.0515976
0.0485601
0.0420902
0.0243317
0.0343499
0.0528719
0.07246
0.0793296
0.0851258
0.0900315
0.0951572
0.0972735
0.097513
0.092271
0.0830531
0.0678136
0.0496992
0.0380068
0.0291362
0.0320212
0.0448772
0.0452277
0.0557822
0.0855934
0.107925
0.0809406
0.0518173
0.0825827
0.112541
0.144272
0.170766
0.193193
0.20089
0.19745
0.185908
0.169169
0.147717
0.122729
0.101738
0.0848183
0.0670366
0.0572439
0.046299
0.0383917
0.0328285
0.0291707
0.0269709
0.0252492
0.0240873
0.0250148
0.0249
0.0177584
0.0139691
0.0131224
0.00938801
0.00780333
0.00812055
0.00772565
0.00802404
0.00708425
0.00606859
0.00526951
0.00446838
0.00650913
0.00700493
0.00724604
0.0072648
0.00778589
0.00802997
0.00776001
0.00785228
0.00717917
0.00750318
0.0119897
0.0137348
0.0174214
0.0155961
0.0108551
0.00902831
0.0100731
0.0106897
0.0133104
0.0125567
0.013334
0.0118266
0.0108022
0.00911851
0.00885031
0.00908094
0.00965184
0.0100523
0.0116615
0.0114955
0.0106662
0.0117947
0.01301
0.0127344
0.0121853
0.0115973
0.0142316
0.0114324
0.0121142
0.0136071
0.0219241
0.0214529
0.025943
0.0254656
0.0259019
0.0260829
0.031454
0.0315751
0.0319513
0.0322702
0.0340118
0.0569541
0.0507375
0.0496289
0.0494349
0.0427741
0.0423135
0.0416297
0.0424446
0.0359643
0.0346167
0.0313939
0.0310358
0.0346355
0.0437528
0.0612232
0.0884643
0.122395
0.158723
0.18899
0.20998
0.231732
0.237111
0.251013
0.255757
0.256716
0.251106
0.242728
0.233304
0.220486
0.201943
0.189051
0.148627
0.105243
0.0592032
0.0785927
0.090684
0.100464
0.10237
0.103526
0.0994231
0.0931277
0.0818852
0.0662422
0.0430048
0.0490084
0.0663119
0.06855
0.0692372
0.0548969
0.0527939
0.048974
0.0489084
0.064167
0.0737673
0.0620623
0.0859127
0.100884
0.0881725
0.063868
0.0978674
0.144156
0.0811079
0.0690575
0.0535931
0.0526112
0.0444904
0.0373219
0.0628275
0.0940034
0.129408
0.150667
0.172457
0.190024
0.20325
0.217258
0.188863
0.171534
0.115462
0.202262
0.153828
0.0779868
0.0578653
0.0567653
0.0432253
0.0497279
0.0552649
0.0512805
0.0392843
0.027485
0.0252252
0.0466658
0.0650761
0.0787213
0.0626455
0.0797271
0.08999
0.0972595
0.102659
0.130027
0.0957456
0.106714
0.0767253
0.103994
0.0739679
0.0477475
0.0528455
0.10106
0.161173
0.220809
0.257623
0.146921
0.0746233
0.0555301
0.0558402
0.0535957
0.0483685
0.0600478
0.10668
0.0720259
0.0467611
0.0406116
0.0480126
0.0408229
0.0303986
0.0318404
0.039581
0.0551576
0.0697467
0.082612
0.125873
0.121704
0.146892
0.154469
0.130065
0.12562
0.0811128
0.0833985
0.123101
0.0916969
0.0741043
0.10397
0.14698
0.201189
0.247575
0.288063
0.313975
0.303384
0.274462
0.173615
0.0760004
0.0228728
0.0177852
0.0168335
0.0173074
0.0105167
0.00629362
0.00584597
0.00665862
0.00700691
0.00591001
0.00544111
0.0054325
0.0057767
0.0101762
0.00874516
0.0108191
0.013107
0.0156519
0.018692
0.0194175
0.0128832
0.00872011
0.00818298
0.00811832
0.00804883
0.00801859
0.0080291
0.00806814
0.00808278
0.00804955
0.00797051
0.00783371
0.00769894
0.00764258
0.00827895
0.0111685
0.0153293
0.0148243
0.0135361
0.0121827
0.0110237
0.0086978
0.0151308
0.0128293
0.0109224
0.0133768
0.0164776
0.0208235
0.0244653
0.0176461
0.0141272
0.0127859
0.0126603
0.0125461
0.0125915
0.0124696
0.0125349
0.0123374
0.0129348
0.0135646
0.016964
0.018992
0.0211739
0.0226749
0.0232594
0.0239765
0.0211361
0.0229613
0.0227216
0.0235021
0.0233152
0.0226233
0.0207028
0.0189108
0.017689
0.0191014
0.0236616
0.0323019
0.0267004
0.0207197
0.0167629
0.0137075
0.0149769
0.016653
0.016828
0.015841
0.0156134
0.0154049
0.0138826
0.0130917
0.0110919
0.0104813
0.0100205
0.0101708
0.0143539
0.0135016
0.0137011
0.0144318
0.0155185
0.0146772
0.0151115
0.0142729
0.0145189
0.0149375
0.0170057
0.0185619
0.0178044
0.0164916
0.0159927
0.0137226
0.0158278
0.015689
0.0170102
0.0185945
0.0190839
0.0190187
0.0183818
0.0167831
0.0186748
0.0220414
0.0256909
0.0246923
0.0243743
0.0204352
0.0192377
0.020211
0.021485
0.0223938
0.0224678
0.0222962
0.0223797
0.026378
0.0260215
0.0248232
0.022745
0.0202879
0.0176346
0.0151892
0.0166674
0.0181506
0.0195429
0.0208116
0.0205773
0.0190492
0.0176887
0.0164556
0.0149594
0.0146707
0.0161267
0.0173511
0.0187842
0.0204997
0.0205742
0.0188602
0.0173635
0.0160792
0.0146031
0.0145538
0.0160561
0.017356
0.0187743
0.0202586
0.0196249
0.0184705
0.0172191
0.0159753
0.0145213
0.0145878
0.015911
0.016981
0.0180649
0.0190144
0.0198657
0.0179056
0.016995
0.0170856
0.016096
0.0192758
0.0185201
0.0194639
0.0180132
0.016791
0.0177973
0.0209868
0.024018
0.0245678
0.0242877
0.0201561
0.020612
0.0205899
0.0191736
0.0159522
0.0153541
0.0181225
0.0208577
0.0213185
0.0200117
0.0169126
0.0132761
0.0142949
0.0174534
0.0197636
0.0185099
0.0183485
0.0169347
0.0158568
0.0161557
0.0138743
0.0166125
0.0266772
0.0241459
0.0221245
0.0196478
0.0156415
0.0105871
0.0114854
0.0126403
0.0130572
0.0105581
0.00790413
0.00709556
0.00690072
0.006741
0.00652095
0.00615118
0.00559248
0.00536524
0.0106429
0.0259814
0.0365112
0.035849
0.0241351
0.0208454
0.020251
0.0190602
0.00952241
0.00821959
0.00846225
0.0103944
0.00815966
0.00869976
0.0150543
0.0102667
0.0140207
0.0108342
0.0146597
0.0230076
0.0218352
0.0145111
0.00802026
0.00686992
0.00735823
0.00764563
0.00785055
0.00804844
0.00828345
0.00867127
0.00999427
0.0157185
0.0202844
0.0177422
0.0167498
0.0152796
0.0188211
0.0213063
0.0232451
0.0260028
0.0160771
0.0117672
0.0166121
0.02723
0.0247206
0.0232634
0.017137
0.0176752
0.0171028
0.010994
0.0106483
0.0105689
0.0113822
0.012766
0.0146911
0.0158573
0.0166085
0.0169378
0.017848
0.0231237
0.0216425
0.0211348
0.0173633
0.0133972
0.015374
0.0515073
0.019556
0.0206701
0.0188925
0.0191616
0.0204442
0.0151539
0.0135162
0.0129413
0.014649
0.0215246
0.021524
0.0213799
0.0182369
0.0174501
0.020881
0.0219766
0.0223862
0.0217614
0.0213103
0.0194434
0.0166635
0.018092
0.0196079
0.0208022
0.0228124
0.0231605
0.017939
0.0172124
0.0158196
0.0105278
0.0112734
0.00970957
0.00967848
0.00964228
0.00936864
0.00891838
0.0092068
0.00932535
0.00932385
0.00897749
0.00927519
0.00832275
0.00865943
0.00974961
0.015191
0.0147605
0.0175557
0.0194642
0.0167138
0.0155567
0.0141968
0.0131762
0.0154238
0.0142625
0.0168356
0.0211796
0.026459
0.0190984
0.0181023
0.017876
0.0174692
0.0173095
0.0173598
0.0166688
0.0156709
0.0151068
0.023548
0.0212548
0.0181368
0.0171898
0.0157595
0.018007
0.0174517
0.0213422
0.026814
0.027015
0.0215074
0.0215829
0.018934
0.0200363
0.0222188
0.0270455
0.026972
0.0144099
0.00957706
0.0154116
0.0157529
0.0183606
0.0169804
0.0185059
0.0196828
0.0204126
0.0202733
0.0176768
0.0188529
0.0196414
0.0206289
0.0185776
0.0165729
0.0173609
0.0161384
0.0152388
0.0147383
0.0126667
0.0129124
0.0138828
0.0153332
0.0162742
0.0177667
0.0194201
0.0194505
0.0201185
0.0197126
0.0191185
0.0252173
0.0239737
0.025514
0.0282285
0.0224337
0.0177986
0.0146761
0.0149869
0.0147515
0.0146582
0.0153998
0.0167567
0.0151332
0.0145168
0.0170286
0.0193888
0.0246585
0.033021
0.0287534
0.0261869
0.0332041
0.0313719
0.0382172
0.0286531
0.0281297
0.0208361
0.0262753
0.0304973
0.0391892
0.025497
0.0209397
0.022402
0.0255272
0.0347726
0.0327782
0.0331381
0.0411808
0.0399527
0.0361959
0.0311712
0.0353437
0.0212333
0.0301856
0.0322169
0.026812
0.0256965
0.0307306
0.0310647
0.0330076
0.0283706
0.0267655
0.0179034
0.0274345
0.0313702
0.0330734
0.0278159
0.0205241
0.0280085
0.0205368
0.0191741
0.0202857
0.0137579
0.0127051
0.0147791
0.0138509
0.0111792
0.0121274
0.0111486
0.0111358
0.0112173
0.0113329
0.0114662
0.0117231
0.0116898
0.0127035
0.0133184
0.0126041
0.0115356
0.0121977
0.0125714
0.0160815
0.0181696
0.0204362
0.0220299
0.0228744
0.0240219
0.0227286
0.0248106
0.0236708
0.0251896
0.0248849
0.0237879
0.0212274
0.0185645
0.0161583
0.0167013
0.0203622
0.0268466
0.0220374
0.0171024
0.0138691
0.0115239
0.0128196
0.016031
0.0086447
0.00783476
0.00750276
0.00729047
0.00709574
0.00618714
0.00558189
0.00837783
0.013037
0.0165825
0.0209523
0.0267189
0.0325151
0.037494
0.0413603
0.0442648
0.0461743
0.0467461
0.0441074
0.0340797
0.0293275
0.0251866
0.0208133
0.0168822
0.0169248
0.0246666
0.0322901
0.0397556
0.0463073
0.0511881
0.0492483
0.0329385
0.0300585
0.0466719
0.0784012
0.0745121
0.0976719
0.110982
0.0628426
0.0463703
0.0451831
0.0620458
0.064673
0.0567514
0.0468876
0.0367267
0.0265708
0.0311613
0.0356643
0.0399603
0.0445255
0.0577183
0.060385
0.0589874
0.0560533
0.0523987
0.0478314
0.0414134
0.0335398
0.0254594
0.0191227
0.0142269
0.00894962
0.00703848
0.00791062
0.00721839
0.00998037
0.00904066
0.00838454
0.00801858
0.00818617
0.00796458
0.00805026
0.00707095
0.0063653
0.0102709
0.009466
0.0093518
0.00988013
0.0131767
0.0100821
0.0074316
0.00693908
0.00686437
0.00858588
0.0197795
0.0258879
0.0306885
0.0350576
0.0377555
0.0365335
0.0334218
0.0281707
0.0225775
0.0203562
0.017293
0.0146652
0.0133553
0.0145897
0.0120386
0.00606647
0.00520592
0.00572439
0.00558488
0.00511378
0.00615314
0.00684754
0.00746232
0.00788431
0.0081914
0.00824582
0.00817745
0.00808067
0.00803043
0.00800465
0.00797087
0.00790124
0.00780182
0.00765675
0.00751845
0.00745334
0.00804439
0.0106564
0.0145825
0.0143608
0.0132494
0.0121427
0.0112847
0.00956797
0.0154073
0.0130809
0.0109654
0.0101382
0.00998799
0.0102785
0.0112269
0.0128525
0.0137654
0.0157526
0.0157981
0.0157034
0.015998
0.0157832
0.0132255
0.0149682
0.0176393
0.0184548
0.0190547
0.0188189
0.0172864
0.0192908
0.0204318
0.0198893
0.0192872
0.0164643
0.0191446
0.0230907
0.0235288
0.0237978
0.0211481
0.0183305
0.0214671
0.0226228
0.0222191
0.0230952
0.0212776
0.02202
0.0278518
0.0142179
0.0128552
0.00773433
0.00875162
0.00898144
0.00865564
0.00830299
0.00858269
0.00876006
0.00850341
0.00920587
0.00953801
0.00889335
0.0115422
0.0105749
0.0101101
0.00951852
0.0100778
0.0107699
0.0111129
0.0123005
0.0196669
0.0201277
0.0182607
0.0207142
0.0213576
0.0179969
0.0204082
0.0213128
0.021564
0.0219075
0.0234069
0.0219876
0.0243432
0.0235589
0.0221944
0.0214356
0.0380605
0.0251256
0.0165361
0.0151759
0.0147721
0.0148135
0.0166613
0.0124746
0.0139919
0.0098204
0.00850181
0.00812162
0.00783898
0.00871222
0.012041
0.0195124
0.0255765
0.0276315
0.0264895
0.023427
0.0183056
0.0140239
0.0135735
0.0121931
0.0112903
0.0110837
0.0074653
0.00518212
0.00650018
0.00659855
0.0071815
0.0075907
0.00792145
0.0081673
0.00829719
0.00835692
0.00842392
0.00852911
0.00864545
0.00874546
0.00882317
0.00887805
0.00893693
0.00905235
0.00935264
0.010543
0.0151907
0.0195997
0.0185179
0.0170619
0.0157545
0.0165119
0.0172673
0.0180194
0.022207
0.0190761
0.0219697
0.0205978
0.0196051
0.018205
0.0189304
0.020714
0.0164654
0.0163806
0.0111462
0.00972768
0.00935497
0.00914531
0.00898288
0.00882494
0.00868046
0.00855144
0.00842979
0.00832502
0.0082447
0.00817177
0.0080381
0.00780085
0.00741504
0.00698795
0.00620829
0.00687793
0.00736925
0.00829511
0.00951998
0.0102091
0.00965731
0.00881396
0.0083604
0.00840733
0.0085663
0.00875259
0.0089682
0.00926692
0.00973394
0.0106996
0.0113819
0.0160303
0.0167531
0.0200898
0.0199096
0.0178231
0.0171756
0.0187956
0.0173479
0.0126605
0.0173536
0.0168512
0.0210549
0.0155929
0.0146877
0.0150634
0.0155304
0.0182349
0.0171379
0.0156768
0.0156601
0.0126078
0.0141574
0.0161588
0.0176632
0.0278804
0.0272995
0.0344027
0.0343567
0.0593597
0.0564417
0.0497243
0.0538613
0.0237174
0.0463945
0.0542832
0.0494467
0.0428837
0.0272909
0.0436682
0.0665669
0.0963749
0.0694199
0.056746
0.105584
0.0766659
0.0373348
0.0265669
0.0150023
0.015101
0.0250521
0.0290998
0.024102
0.0232411
0.033432
0.0348016
0.028002
0.0286985
0.0310803
0.0300211
0.0324694
0.0280828
0.0274164
0.01551
0.0127234
0.0137425
0.0154585
0.0164567
0.0159448
0.0167836
0.0174572
0.0160326
0.0150185
0.0144723
0.0124201
0.0131714
0.0161431
0.0203447
0.0238399
0.0172102
0.0138244
0.0125277
0.0123349
0.0121108
0.0119945
0.0116775
0.0114946
0.0110294
0.0112396
0.00977836
0.00978625
0.0103183
0.0104788
0.01068
0.0108353
0.0109564
0.0110683
0.011939
0.0186936
0.0258726
0.0207051
0.0164151
0.013948
0.0151296
0.0170396
0.0209206
0.0263186
0.0177704
0.0175884
0.0114614
0.0106784
0.0104694
0.0102986
0.0101475
0.0100516
0.0101141
0.0101222
0.0118587
0.0115294
0.013534
0.0146153
0.0120735
0.0116414
0.0111692
0.0108818
0.0107234
0.0106381
0.0107267
0.0115861
0.0114176
0.0104909
0.0103983
0.0105203
0.0107367
0.0110639
0.0115169
0.0120289
0.0129514
0.0127223
0.0111763
0.0111672
0.0105056
0.0101935
0.0099626
0.00993969
0.00999214
0.0101345
0.0103588
0.0112694
0.0170467
0.0172287
0.0265254
0.0265128
0.021081
0.017627
0.015485
0.0142393
0.0135123
0.035043
0.030787
0.0487808
0.0388866
0.0311248
0.0505086
0.0718717
0.0558248
0.0909533
0.0982749
0.0724205
0.0656457
0.0208529
0.0158925
0.0154019
0.0168823
0.0185628
0.0211811
0.0217712
0.0265608
0.0286534
0.0171009
0.0164252
0.0154988
0.0247865
0.0229738
0.0196104
0.0177381
0.0163616
0.0189003
0.0206819
0.0148974
0.0149411
0.00962137
0.0106156
0.0103676
0.0100246
0.00990135
0.00982226
0.00985228
0.00994933
0.0102324
0.0107331
0.0111225
0.0112881
0.0116376
0.0114257
0.0111463
0.0108153
0.0106173
0.0104206
0.0102602
0.0101366
0.0101676
0.0104823
0.0106276
0.00932513
0.00967043
0.00978129
0.00979772
0.00983572
0.00980844
0.0096812
0.00948601
0.00930039
0.00910161
0.00914383
0.00989523
0.0100175
0.010061
0.0098972
0.00977953
0.00977161
0.00971721
0.00971343
0.00971338
0.0095971
0.00928439
0.00856519
0.00841885
0.00901839
0.00936022
0.00953278
0.00960816
0.00957895
0.00951205
0.00928203
0.00911383
0.00891971
0.00859845
0.0081754
0.00683029
0.00710071
0.00744929
0.00793432
0.00843514
0.0088738
0.00916621
0.00931659
0.00939959
0.00931269
0.0090195
0.00849335
0.00843994
0.00883146
0.00901529
0.00898114
0.00872849
0.0083307
0.00777778
0.00708714
0.00641598
0.00590112
0.00565584
0.00526038
0.00656662
0.00713343
0.00765872
0.00814538
0.00861334
0.00912288
0.00933862
0.00941552
0.00940116
0.00925167
0.00892483
0.00840075
0.00840895
0.00888245
0.00918947
0.00930998
0.0092916
0.00908703
0.00867006
0.00777874
0.00698968
0.00635402
0.00578697
0.00521355
0.00511205
0.0053655
0.00514103
0.00535226
0.00593432
0.00673583
0.0075091
0.00810459
0.00852074
0.0086957
0.00863887
0.00838447
0.00828882
0.00841688
0.00836718
0.00807111
0.00751251
0.0067735
0.00597353
0.00533909
0.00515233
0.00547803
0.00581493
0.0055039
0.00438308
0.00492304
0.00546135
0.00603863
0.00693321
0.00809031
0.00868989
0.009014
0.00918199
0.0091253
0.0088414
0.0084043
0.0083878
0.00880807
0.00908243
0.00911881
0.00897173
0.00866108
0.00815144
0.00674328
0.00532364
0.00471678
0.00438317
0.00394313
0.00557843
0.00594363
0.00551688
0.00524204
0.00568111
0.00623069
0.00686544
0.00738295
0.00780642
0.0081047
0.00820025
0.00816306
0.00803331
0.00804289
0.00799353
0.00779221
0.0075437
0.0073252
0.00687851
0.00642396
0.00589998
0.00645712
0.00675593
0.00632575
0.00464869
0.00493157
0.00533696
0.00557782
0.00696965
0.00838898
0.0088232
0.00900369
0.00916521
0.00911415
0.00880718
0.00836953
0.00835677
0.0088731
0.00925699
0.00936547
0.00942421
0.00946183
0.00951077
0.00836139
0.00656719
0.00617946
0.00524796
0.00480547
0.00664436
0.00707716
0.00686983
0.00659872
0.00752845
0.00792161
0.00807535
0.0080998
0.00811748
0.00808976
0.00799455
0.00791938
0.00780672
0.00825287
0.00889284
0.00879568
0.00869415
0.00852677
0.00815924
0.00770929
0.0072062
0.00788377
0.00845633
0.00817799
0.00594538
0.00631065
0.00713634
0.0072443
0.0086671
0.00984624
0.0102068
0.0102598
0.0102074
0.0102231
0.00924032
0.00832484
0.00818077
0.00952478
0.0154474
0.0152993
0.0153515
0.0152996
0.0147329
0.0145711
0.0140104
0.013763
0.0130683
0.0126321
0.0119449
0.0139896
0.0177156
0.0197924
0.0221705
0.0246727
0.0234034
0.018929
0.0167153
0.0101885
0.00803732
0.00693769
0.00599902
0.0052947
0.00508987
0.00752442
0.00937461
0.0115548
0.0135433
0.0138547
0.0162955
0.020257
0.0308448
0.0490398
0.041446
0.0391631
0.0400813
0.100837
2.55725
2.77864
2.51505
2.92002
3.34035
0.405154
0.155397
0.288418
0.307623
0.345087
0.325285
0.296445
0.270626
0.283682
0.272215
0.284947
0.265437
0.271635
0.236483
0.237231
0.233497
0.62372
1.0006
1.21597
1.70419
1.71908
1.93966
1.89985
1.92358
1.78098
1.89903
1.65122
1.36996
1.29389
1.22116
1.31115
1.42533
1.23756
1.12246
1.0087
0.917971
0.785497
0.996962
0.756798
0.715164
0.713548
0.745113
0.991872
0.901046
1.0387
0.973424
1.03189
0.634344
0.712786
0.523865
0.436578
0.362652
0.435364
0.58429
0.77221
0.950315
0.727558
0.981256
0.902464
0.885202
0.844557
0.771842
0.733511
0.721854
0.743269
0.755952
0.771152
0.798468
0.819307
0.837027
0.987583
1.05006
1.03836
0.850558
0.761603
0.527208
0.564479
0.599114
0.603058
0.562941
0.54353
0.490092
0.477359
0.431592
0.413376
0.374551
0.356204
0.324258
0.448497
0.76871
0.798397
0.867211
0.921392
0.970266
0.992571
1.00821
0.991056
0.957551
0.890469
0.862726
0.801452
0.907721
1.09209
1.09378
1.00747
0.855504
0.810869
3.74923
4.55328
3.02012
6.49144
9.81975
16.4373
7.58433
2.07938
3.47206
2.38619
2.11909
2.06572
2.1796
3.43217
2.50894
3.29131
2.70815
2.88482
2.2045
2.56007
2.45179
1.88786
1.59247
1.35043
1.258
1.02703
1.03293
0.846493
0.794264
0.721582
0.59159
0.708798
0.681347
1.55665
2.22757
2.78676
4.38291
4.8216
5.27274
8.34747
6.7933
8.54154
5.09646
5.13897
3.80229
3.57918
3.61905
4.97807
7.0924
4.89255
8.5262
4.76219
15.488
34.6129
9.22384
19.0417
10.9935
9.94849
9.59455
9.88993
14.0507
9.55283
15.5626
12.9644
17.2288
16.5277
17.8389
14.0028
10.361
11.4051
12.2536
15.7327
11.291
13.2036
10.0756
9.87382
9.1803
7.55482
6.65696
5.05686
5.86812
6.91237
7.84609
12.3766
15.5907
17.957
21.6606
16.0469
18.3304
11.048
12.0987
9.3572
8.77792
8.90714
11.7203
20.8379
14.7755
26.9298
0.496249
0.225849
0.543872
0.229407
0.487704
0.390783
0.403385
0.404346
0.399894
0.461585
0.220053
0.185064
0.17735
0.175211
0.176723
0.100213
0.124405
0.0804091
0.126911
0.229028
0.502645
0.36485
0.140422
0.0826019
0.0545965
0.0429438
0.0634556
0.0612494
0.0979494
0.0993002
0.105592
0.132022
0.227438
0.432084
31.6276
7.10867
1.12005
0.522807
0.282042
0.172677
0.146456
0.165284
0.177454
0.179752
0.168302
0.142416
0.101758
0.0671723
0.044882
0.0375581
0.0274079
0.0289681
0.0397955
0.0533252
0.0492765
0.0648746
0.0832046
0.105908
0.13012
0.149468
0.164066
0.168063
0.156081
0.122167
0.0803708
0.0442989
0.0264946
0.0228576
0.0209342
0.0194431
0.0168021
0.0146011
0.0131756
0.0112595
0.00992432
0.00895201
0.00863608
0.00875795
0.00955705
0.0120887
0.014548
0.0188358
0.0179548
0.0134437
0.0126111
0.00781273
0.00722418
0.00737258
0.00762407
0.00845461
0.0132323
0.013541
0.0134191
0.013448
0.0132647
0.0132454
0.0130737
0.012898
0.0126771
0.0122503
0.0119609
0.0114422
0.0111639
0.0105137
0.0105414
0.0109261
0.0112342
0.0101727
0.0100735
0.009365
0.0201815
0.0483484
0.0698515
0.0782746
0.0880523
0.0808205
0.0417202
0.0228355
0.00787895
0.00773668
0.00822755
0.00888692
0.00843584
0.00615839
0.00668685
0.00784196
0.0109559
0.0108073
0.0108348
0.0125475
0.0130439
0.0143941
0.0149238
0.0153426
0.0155726
0.0155872
0.0157345
0.0155408
0.0156578
0.0155154
0.0156191
0.0152339
0.0270542
0.0254402
0.0260708
0.026041
0.0270781
0.0265401
0.0259882
0.0250172
0.0242615
0.0227819
0.0212074
0.0197262
0.0177462
0.0185182
0.0179151
0.0112111
0.0106618
0.00771169
0.00770907
0.00742033
0.0103241
0.00938915
0.00789177
0.00929737
0.00678057
0.00695262
0.00728312
0.01036
0.0108798
0.0172741
0.0171975
0.0151993
0.0161107
0.0170878
0.018344
0.0194818
0.0208634
0.0218897
0.0229681
0.0247898
0.0252377
0.0236631
0.0233962
0.0223844
0.0243431
0.0233545
0.021583
0.023044
0.0245936
0.0269395
0.0265787
0.0244941
0.0231951
0.0217817
0.0195258
0.0169521
0.0156534
0.0147071
0.0147753
0.013805
0.0161944
0.0147036
0.0101662
0.0103767
0.00779044
0.00628927
0.00606086
0.00922922
0.0130833
0.0279652
0.017421
0.00929057
0.0100227
0.0160629
0.0330041
0.0188897
0.0305687
0.0139809
0.01371
0.0126035
0.0124749
0.0137483
0.0159965
0.0169765
0.0205344
0.0231407
0.025091
0.0259688
0.0272955
0.0276734
0.029064
0.0294929
0.0320901
0.0323447
0.0324451
0.0320003
0.029803
0.0268064
0.0247458
0.0305353
0.0353429
0.0384058
0.0407624
0.0431015
0.0418399
0.0382841
0.0374427
0.0355647
0.0344835
0.0330927
0.0300646
0.0263032
0.0215848
0.0210704
0.0269956
0.0326482
0.0488119
0.0524839
0.0522258
0.05453
0.0550015
0.0567087
0.0571183
0.0597175
0.0602681
0.061392
0.0617141
0.0667355
0.067596
0.0685919
0.068899
0.0686964
0.0697105
0.0697456
0.0473665
0.0424847
0.0386482
0.0321182
0.0269724
0.0341601
0.0424887
0.0475356
0.0726018
0.0731232
0.0767994
0.0793927
0.0842761
0.0879361
0.0927913
0.0972825
0.101697
0.105176
0.10729
0.107753
0.108293
0.107503
0.106282
0.11516
0.14961
0.166116
0.19656
0.211577
0.224477
0.228901
0.219932
0.223516
0.215199
0.217648
0.211069
0.208863
0.203288
0.196696
0.192912
0.186337
0.18216
0.210066
0.158287
0.121367
0.0810861
0.0653157
0.0573153
0.0524959
0.0565828
0.0435148
0.0367726
0.0561629
0.051169
0.0403966
0.0265763
0.018779
0.0321115
0.0475294
0.0642815
0.0814637
0.0971609
0.107427
0.11001
0.108941
0.104236
0.0964594
0.0813646
0.0613201
0.042178
0.0347916
0.0321048
0.0281423
0.0222003
0.0178455
0.0157283
0.0141424
0.0123761
0.011126
0.0105702
0.0107216
0.0110307
0.0132278
0.0173082
0.0173008
0.0115973
0.0111555
0.00767459
0.00776196
0.00801906
0.0133386
0.013485
0.0209133
0.0233615
0.0220017
0.022689
0.0224215
0.0227125
0.0223535
0.0211597
0.0203233
0.0193521
0.0185152
0.0177789
0.016965
0.0161756
0.0174984
0.0164577
0.0138701
0.0139784
0.0145827
0.0152213
0.0161006
0.0173607
0.0184352
0.0211285
0.0213005
0.0208026
0.0208971
0.0194319
0.0187153
0.0199721
0.0194963
0.013281
0.0131047
0.0191315
0.0187777
0.0186666
0.0224772
0.0208981
0.0214201
0.0225504
0.0224429
0.0195075
0.018151
0.0166
0.0154278
0.0140598
0.0125556
0.0121874
0.0149473
0.0131941
0.0108175
0.0119963
0.0144059
0.0170169
0.0184728
0.0204541
0.0231658
0.024127
0.0263653
0.0277834
0.0298761
0.0307115
0.0355166
0.0361756
0.0340252
0.0321793
0.0311794
0.0274086
0.0234889
0.0259048
0.0267755
0.0271519
0.0272649
0.0271426
0.0235669
0.0231363
0.0216223
0.0211064
0.0195337
0.0189788
0.0178231
0.0170672
0.0160509
0.0142247
0.013465
0.012655
0.0123052
0.0173639
0.0108534
0.0106106
0.0160133
0.00987425
0.0116199
0.0113612
0.0118737
0.0125185
0.0103708
0.0151721
0.010359
0.0112427
0.0114496
0.0143254
0.00989091
0.0197658
0.0623137
0.0919809
0.110784
0.201419
0.241754
0.262142
0.28284
0.297166
0.313123
0.33071
0.348352
0.361413
0.362875
0.337341
0.318916
0.254227
0.227638
0.25137
0.281457
0.19416
0.166607
0.168894
0.16974
0.17233
0.173588
0.17724
0.175216
0.180294
0.175959
0.183244
0.177253
0.183734
0.176338
0.161023
0.144441
0.111976
0.101247
0.0653006
0.0505785
0.0395786
0.0287411
0.0209525
0.0188066
0.0178033
0.0164559
0.0165399
0.0126749
0.0131
0.00839349
0.00616209
0.00985812
0.00970213
0.00721607
0.00983153
0.0112297
0.0117421
0.0122779
0.01257
0.0192222
0.0192533
0.0246523
0.0245584
0.029127
0.0347332
0.0359815
0.0396311
0.0570006
0.057516
0.0572604
0.0570851
0.0566606
0.0494427
0.0491618
0.0480588
0.0474748
0.0445346
0.0439828
0.0419055
0.040772
0.0378247
0.0370048
0.0358749
0.036299
0.0401075
0.0546732
0.0966271
0.0290923
0.0275779
0.0203016
0.0145049
0.0212406
0.0159054
0.0154081
0.0136012
0.0187052
0.0134489
0.0137063
0.0165156
0.0170268
0.0164041
0.0213056
0.0266016
0.023361
0.0257142
0.114965
0.072608
0.023815
0.047135
0.0709796
0.15664
0.203151
0.138803
0.158581
0.182664
0.165811
0.139203
0.108452
0.080949
0.0570987
0.0436981
0.0114226
0.0133496
0.0184384
0.0401761
0.0597563
0.1012
0.0829993
0.108507
0.148237
0.172596
0.208501
0.199934
0.17192
0.14799
0.145081
0.160609
0.161953
0.104197
0.101206
0.0773172
0.173542
0.218828
0.183946
0.230744
0.243104
0.141682
0.0315559
0.0183754
0.0151246
0.0139207
0.0124449
0.0193985
0.0114625
0.0116511
0.0123627
0.0132809
0.0169581
0.0293539
0.0134476
0.0149251
0.0183414
0.0158948
0.0149224
0.0146421
0.0145532
0.0151759
0.0165379
0.0215691
0.0216504
0.0213059
0.0159861
0.0172767
0.0156937
0.0199981
0.0212062
0.0333305
0.0152551
0.0161972
0.0214922
0.478313
0.0246246
0.017819
0.0232
0.0218739
0.0301113
0.0437984
0.456834
0.0439441
0.035069
0.0585885
0.060886
0.0655641
0.0692337
0.0727479
0.0752616
0.0792105
0.0818541
0.0830937
0.0843383
0.0999947
0.0999643
0.0988899
0.103489
0.0976045
0.0576592
0.057868
0.0974007
0.105126
0.0594082
0.0410089
0.0384912
0.0311928
0.0323161
0.0418481
0.0439293
0.0616312
0.0614586
0.102504
0.0934755
0.0948771
0.0966343
0.0916388
0.0921149
0.0941763
0.0942001
0.0754445
0.0731208
0.0713524
0.0683149
0.0647731
0.0618712
0.0589453
0.0558327
0.0531471
0.0531409
0.0577221
0.0582952
0.0658382
0.0723597
0.218401
0.148218
0.106026
0.0789385
0.06457
0.0587086
0.0584251
0.0616684
0.0649211
0.0665669
0.0673751
0.0707544
0.0924933
0.0948366
0.097694
0.0951378
0.0989495
0.0969964
0.094532
0.104431
0.112243
0.0656017
0.0676767
0.0477533
0.0445429
0.0325051
0.0330623
0.0236062
0.0195794
0.0195665
0.0195462
0.0197694
0.0226502
0.0316405
0.0317439
0.0463652
0.0462749
0.0517068
0.0753113
0.0723741
0.129074
0.118313
0.10864
0.101327
0.101705
0.10384
0.106445
0.101445
0.0978185
0.0922786
0.0724918
0.0684704
0.0663297
0.0650672
0.0637098
0.0669557
0.0897596
0.144866
0.221623
0.326063
0.426379
0.437919
0.396995
0.24678
0.287394
0.142594
0.16337
0.185049
0.160214
0.168905
0.317825
0.264157
0.373481
0.478703
0.532327
0.598442
0.634949
0.622507
0.49333
0.319961
0.327248
0.436221
0.764491
0.857729
0.741553
0.759588
0.656331
0.538829
0.520574
0.496079
0.559858
0.610864
0.576493
0.593606
0.537973
0.513938
0.444133
0.495527
0.362052
0.326133
0.306594
0.297786
0.356846
0.288801
0.325306
0.26741
0.27369
0.222457
0.227993
0.190331
0.145722
0.138163
0.128094
0.143424
0.162614
0.148989
0.153487
0.134026
0.114608
0.0912535
0.0984824
0.0735574
0.0695167
0.0704378
0.0799704
0.124925
0.366221
0.172698
0.163326
0.16766
0.177876
0.319454
0.282865
0.723727
0.507162
0.709107
0.474007
0.562492
0.470666
0.363065
0.378579
0.418354
0.59861
0.821926
6.65158
0.28471
4.26252
3.16466
3.32351
3.46938
4.4473
7.80734
7.11039
9.38994
6.80547
9.08076
4.97623
4.97518
4.32579
4.47107
4.43832
4.2606
5.18524
6.61555
0.238198
0.0909304
0.0854195
0.0856082
0.0873844
0.197753
0.0525608
0.201978
0.0539542
0.213415
0.0495068
0.246606
0.19686
0.0382333
0.0192574
0.0200893
0.016807
0.0203749
0.0169228
0.025047
0.0235418
0.0236976
0.0265763
0.0761242
0.291448
13.7501
1.64309
0.683784
0.783501
1.17407
0.797144
1.19567
1.66217
1.11669
0.556144
0.363842
0.429321
0.519103
0.495768
0.633511
0.912991
0.893402
0.702157
0.706309
0.621911
0.879214
0.887952
1.05388
1.23187
1.12824
0.882298
0.694435
0.586525
1.01379
1.02052
0.954
0.402305
0.112862
0.0465119
0.0485827
0.0355592
0.0374887
0.0347333
0.0542271
0.158246
0.218586
0.131058
0.426441
0.412059
0.562556
0.401538
0.411738
0.324533
0.348908
0.531587
0.580823
0.640339
0.671759
0.722009
0.665509
1.27935
2.1895
2.47544
12.8102
17.3859
3.18609
3.08603
13.9292
0.314639
0.083801
0.0233047
0.0174284
0.0162163
0.0161297
0.0150007
0.0155382
0.0159996
0.0169634
0.0188284
0.0231947
0.045829
0.201447
0.20341
0.0643355
0.0324261
0.0229692
0.0196157
0.0170462
0.0163868
0.0155315
0.0154591
0.0150078
0.0156571
0.0174623
0.0237741
0.0773843
0.270912
11.3225
2.4308
2.24918
8.3729
5.78713
0.206627
0.0437761
0.020092
0.0169261
0.0158836
0.0167535
0.0162655
0.0182107
0.0184019
0.0230154
0.0250204
0.0317631
0.0570693
0.110167
0.315464
9.58013
8.65139
8.37379
7.81004
0.310093
0.11518
0.0543866
0.0382284
0.0346223
0.0338163
0.0226483
0.0236723
0.0189817
0.0216397
0.0182947
0.0226807
0.0482924
0.211786
5.34509
1.56623
1.69669
1.20722
0.61068
0.653008
0.666706
0.686301
1.76865
4.04436
4.9765
3.41803
3.35358
4.697
3.16347
2.47571
1.82405
1.74293
2.5401
1.959
1.82153
1.35279
1.4624
1.06515
1.46439
0.80916
0.974666
1.0703
1.52789
1.39473
1.40773
0.906352
1.04789
1.47191
1.72187
1.64688
0.841915
1.22478
1.01141
0.653113
0.604698
0.630948
0.600901
0.575683
0.572835
0.577138
0.556259
0.573463
0.553882
0.585903
0.545811
0.530937
0.505308
0.52482
0.542324
0.574675
0.358778
0.421154
0.425451
0.439785
0.452388
0.373346
0.449343
0.440066
0.656828
0.992129
0.830015
1.14481
0.676076
1.00059
2.00382
5.20481
2.33361
0.816036
1.3444
1.58104
1.13679
0.626345
2.54942
3.55691
1.22826
1.78229
10.3829
8.43039
16.5205
10.9553
18.6034
6.01984
4.62631
17.7925
6.66028
6.89166
4.50176
4.51099
2.95193
1.57974
1.6225
1.73385
1.22189
1.29463
1.20531
1.13057
1.46938
1.43355
1.87791
2.0274
2.56809
1.80598
1.76836
2.58672
1.05931
1.39412
1.83041
1.82149
1.35418
2.33147
3.14559
2.95334
2.12745
2.32783
3.49425
4.80498
4.55891
3.15486
3.94905
10.1124
13.4958
13.6711
4.21318
19.3262
18.2938
2.06658
0.561147
0.320117
0.0882972
0.0443094
0.0366529
0.0387254
0.143518
0.0458112
0.0569973
0.0454322
0.0723793
0.069517
0.0868278
0.216438
0.125804
0.214203
0.154281
0.187582
0.119679
0.191482
0.224505
0.234154
0.186214
0.114258
0.210777
0.30384
0.104654
0.351034
0.386001
0.25709
0.328914
0.39203
0.194033
0.990039
0.1843
0.125945
0.145033
0.389326
1.25007
0.216103
0.458027
4.46088
14.7042
3.66425
0.931241
0.675085
0.055399
0.0300898
0.0316002
0.0278444
0.0194291
0.0833183
0.0978899
0.402598
0.20713
0.277338
0.660463
2.92834
2.39658
1.12044
5.47507
10.2716
15.1492
9.12863