/*--------------------------------*- C++ -*----------------------------------*\
| =========                 |                                                 |
| \\      /  F ield         | OpenFOAM: The Open Source CFD Toolbox           |
|  \\    /   O peration     | Version:  v2012                                 |
|   \\  /    A nd           | Website:  www.openfoam.com                      |
|    \\/     M anipulation  |                                                 |
\*---------------------------------------------------------------------------*/
FoamFile
{
    version     2.0;
    format      ascii;
    class       volScalarField;
    location    "1215";
    object      nut;
}
// * * * * * * * * * * * * * * * * * * * * * * * * * * * * * * * * * * * * * //

dimensions      [0 2 -1 0 0 0 0];


internalField   nonuniform List<scalar> 
18258
(
0.00418134
0.00182364
0.00149502
0.00129559
0.000857735
0.00140326
0.00194882
0.00231951
0.00243328
0.00241232
0.00249759
0.00421479
0.00591501
0.00730989
0.00767888
0.0076671
0.00696052
0.00664793
0.00722792
0.00887924
0.00745521
0.00477847
0.00571769
0.00661755
0.00721645
0.00639631
0.00517356
0.00478833
0.00433533
0.00361455
0.00303457
0.00208442
0.00151573
0.00140406
0.00127392
0.00145279
0.00158279
0.00168848
0.00172578
0.00175284
0.00174085
0.00173088
0.00168401
0.00165401
0.00160302
0.00132255
0.00158276
0.00166305
0.00181831
0.0025022
0.00268326
0.00225466
0.00249302
0.00222378
0.00146571
0.00167817
0.00182169
0.00186073
0.00183668
0.00176035
0.00173457
0.00171275
0.00168513
0.00165235
0.00163236
0.00164868
0.00166574
0.00164761
0.0015666
0.00150099
0.00139483
0.0012884
0.00120949
0.00114836
0.00110227
0.00105112
0.000993654
0.000872799
0.000808888
0.00107099
0.00134451
0.00143655
0.00203614
0.00248257
0.00249961
0.00187126
0.00133361
0.00138415
0.00153885
0.00155436
0.00131725
0.0015659
0.00177377
0.00183839
0.0019157
0.00214122
0.00243718
0.00237543
0.00211548
0.00194925
0.00191231
0.00219262
0.00208403
0.00270226
0.00272224
0.00237299
0.00218798
0.0024622
0.00317551
0.00341693
0.00265648
0.00249522
0.00244607
0.00241467
0.00218405
0.00226063
0.00205308
0.00184988
0.00201538
0.00243537
0.00231006
0.00252314
0.00261462
0.00245284
0.002842
0.00327675
0.00322913
0.00258392
0.00210696
0.00196399
0.00197881
0.00121023
0.00130688
0.00140809
0.00144258
0.00146673
0.00148727
0.00158563
0.00158205
0.00155877
0.00155534
0.00158277
0.00087225
0.000944973
0.000968479
0.000975265
0.00092648
0.000916943
0.00089984
0.000885935
0.000835469
0.000799418
0.000956532
0.00107408
0.00116993
0.00128204
0.00144923
0.00165373
0.00186859
0.00208565
0.00222919
0.00227012
0.00231144
0.00222782
0.00214354
0.00222007
0.00223308
0.00221883
0.00218918
0.00215168
0.00210098
0.00200791
0.00211567
0.00210984
0.00198227
0.0016993
0.00173736
0.0017346
0.00177995
0.00177095
0.00178887
0.00176341
0.00173324
0.00164935
0.00153186
0.00127432
0.00125155
0.00126586
0.00162382
0.00197013
0.00304179
0.00370745
0.00430021
0.00459787
0.00491542
0.00398202
0.00443456
0.00342149
0.00307054
0.00390107
0.0051008
0.00291098
0.00159191
0.00301962
0.00268144
0.00194861
0.00173492
0.00178855
0.00178601
0.00204217
0.00235613
0.00261884
0.0027458
0.00285686
0.00294561
0.00304314
0.0031666
0.00320074
0.00309177
0.00261688
0.0031539
0.00256479
0.00299934
0.00271535
0.00184002
0.00188745
0.00201944
0.00185523
0.00180709
0.00172646
0.00156156
0.00194267
0.00250812
0.00291001
0.00332771
0.00443814
0.00410614
0.00393842
0.00304869
0.0029485
0.00152961
0.00218139
0.00226355
0.00255134
0.0016951
0.00154836
0.00147105
0.00194006
0.00224803
0.00265223
0.00294194
0.0034925
0.00271207
0.00310158
0.00280952
0.00196164
0.00188331
0.00269396
0.00290015
0.00238321
0.00212722
0.00267062
0.0025292
0.00179535
0.00142472
0.00219123
0.00226563
0.00163159
0.00407532
0.00436299
0.00414177
0.00502901
0.00630018
0.00717807
0.00670228
0.00594414
0.00661644
0.00525478
0.0051071
0.00545543
0.00458237
0.00320321
0.00328198
0.00339221
0.00348349
0.00374002
0.00397328
0.00425818
0.00452907
0.00411769
0.00342064
0.00258953
0.00178136
0.00175705
0.00174815
0.00156978
0.00232641
0.00351999
0.00349669
0.00198728
0.00115831
0.00130988
0.00147905
0.00146454
0.00106293
0.000799968
0.00137799
0.00157552
0.00160094
0.00156116
0.00147396
0.00154025
0.00247357
0.00381077
0.00418723
0.00433683
0.00447838
0.00457836
0.00463398
0.00465159
0.00466139
0.00467346
0.00468414
0.00470042
0.00468609
0.00458656
0.00403455
0.00253697
0.00148304
0.00137759
0.0015204
0.001634
0.00173317
0.00147486
0.000901845
0.00144026
0.00184431
0.00211973
0.00213779
0.00199505
0.00193526
0.00305161
0.00405747
0.00478269
0.00492964
0.00499518
0.00494054
0.00493373
0.00482648
0.0047936
0.00420419
0.00300638
0.00328658
0.00352889
0.00356923
0.00365166
0.00377555
0.00368834
0.0034854
0.00509041
0.00587569
0.00595142
0.00607812
0.00600627
0.00590282
0.00563515
0.00532916
0.00448654
0.0033646
0.00212305
0.00216744
0.00230741
0.00228529
0.00198935
0.00209572
0.0022746
0.00229739
0.00237254
0.00266079
0.003022
0.00288261
0.00248069
0.002107
0.00196175
0.00192026
0.00184208
0.00137945
0.00140038
0.00136155
0.0013842
0.00185946
0.00221317
0.00255236
0.00362019
0.00322918
0.00262607
0.00416499
0.00426851
0.00458699
0.00506756
0.00519303
0.00575454
0.00400253
0.0036066
0.00370507
0.00302684
0.00280166
0.00283153
0.00284221
0.00264891
0.00289942
0.00287386
0.00276989
0.00305804
0.00336976
0.00444336
0.00538397
0.00568054
0.00585196
0.0059224
0.00590084
0.00578692
0.00582398
0.00511626
0.00511357
0.00489696
0.0047563
0.00470646
0.00447362
0.00511815
0.00531341
0.00537852
0.00551267
0.00572164
0.00556561
0.00539293
0.00526136
0.00516592
0.00506606
0.00511926
0.00521457
0.00531619
0.00545869
0.0056488
0.00567974
0.00548275
0.00533371
0.00523162
0.00513563
0.00513924
0.00522483
0.0053245
0.00546576
0.00564601
0.00554579
0.00540561
0.00528068
0.00517812
0.00508774
0.00490965
0.00502836
0.00515885
0.00526636
0.00533606
0.00461054
0.0049281
0.00484314
0.00438464
0.00410355
0.00311629
0.00337261
0.00355666
0.00387391
0.00430025
0.00438411
0.00367919
0.00315297
0.00307241
0.00304762
0.00311955
0.00314537
0.00316064
0.00357133
0.00538343
0.00542055
0.00543648
0.00543933
0.00465047
0.00451798
0.00420789
0.00769877
0.00716845
0.00621079
0.00511848
0.00274149
0.00234992
0.00278341
0.00338494
0.00378477
0.00417657
0.00277283
0.00171785
0.00200236
0.00207622
0.00202541
0.00187197
0.00155929
0.00143941
0.00130639
0.0014059
0.00248991
0.00397263
0.00447417
0.00452116
0.00447588
0.00438843
0.00428228
0.0041346
0.00407743
0.00513951
0.00695434
0.00785643
0.00782537
0.00672335
0.00548169
0.0030922
0.00159416
0.00117569
0.00126103
0.00138647
0.00162746
0.00144826
0.00122576
0.00134202
0.00127001
0.00257058
0.00443419
0.00564646
0.00669963
0.00659029
0.00572556
0.00468128
0.00443739
0.00454179
0.00461171
0.00467174
0.0047334
0.00477592
0.00474995
0.00432413
0.00267219
0.00159512
0.00141719
0.00152386
0.001786
0.0018979
0.00191727
0.00189052
0.00163869
0.00270975
0.00430256
0.00273636
0.00149324
0.00161358
0.00160189
0.0028257
0.00282112
0.00275988
0.00429344
0.00453938
0.00452833
0.00425528
0.0040623
0.0024054
0.00273016
0.00273937
0.0027538
0.00279891
0.00141405
0.00154149
0.00158968
0.0017117
0.00149754
0.00189993
0.000491646
0.000681824
0.000791905
0.000860924
0.000927461
0.000909734
0.00174052
0.00176617
0.00168586
0.00164229
0.00208375
0.00223566
0.00228478
0.00210419
0.00194152
0.00206695
0.00207163
0.00195258
0.00184941
0.00191735
0.00191855
0.00183834
0.00156358
0.00146513
0.0016086
0.00159144
0.00157889
0.00283509
0.0028298
0.00267796
0.00439924
0.00432915
0.00484812
0.00481655
0.0048107
0.00479129
0.0048422
0.00486904
0.00488949
0.00491335
0.00490347
0.00485662
0.00676535
0.00477577
0.0041678
0.00241071
0.00232233
0.00164023
0.00143743
0.00169262
0.00181034
0.00196269
0.00191836
0.00202224
0.00201992
0.00214322
0.0019892
0.00176622
0.00270519
0.00288989
0.00282237
0.0028781
0.00281025
0.00279365
0.0027731
0.0027338
0.00268645
0.00159966
0.00156926
0.00183764
0.00192903
0.00207281
0.00209151
0.00213696
0.00202661
0.0017823
0.00172518
0.00198691
0.00196003
0.00199824
0.00188393
0.00187603
0.00167122
0.00171363
0.00345719
0.00638814
0.00328455
0.00364893
0.00330529
0.00375981
0.00329288
0.00283946
0.00290618
0.00255961
0.00267008
0.00280087
0.0028516
0.00299717
0.00353293
0.00340151
0.00298584
0.00289908
0.0028419
0.00267945
0.00241175
0.00252659
0.00254946
0.00260425
0.00289429
0.00332085
0.00372276
0.00452506
0.00439118
0.00384622
0.00351656
0.00368831
0.00375165
0.00472374
0.00441335
0.00438695
0.00462737
0.0045811
0.00434818
0.00411996
0.00397669
0.00341333
0.00346922
0.00397103
0.00384273
0.00396032
0.00389097
0.00404498
0.00411833
0.0039529
0.00367359
0.00386147
0.00385327
0.00427957
0.00416229
0.0038608
0.00353234
0.00377544
0.00372939
0.00430865
0.00405603
0.00379338
0.00349149
0.0033442
0.0037957
0.00372625
0.0042259
0.00434816
0.00435019
0.00379201
0.0037038
0.00440569
0.00423895
0.00409422
0.00426489
0.00353146
0.0036321
0.0044753
0.00456916
0.00433478
0.00361845
0.00367365
0.00314941
0.00370478
0.00461202
0.00435601
0.00357006
0.00296187
0.00414476
0.00436077
0.00461384
0.00435967
0.00474905
0.00511585
0.00416906
0.00453573
0.00592872
0.00452135
0.00524691
0.00536341
0.00539538
0.00539866
0.00542019
0.00544808
0.00574089
0.00558658
0.00354948
0.00424568
0.00412212
0.00344699
0.00293114
0.00322856
0.00347718
0.0035273
0.00361669
0.00375459
0.00369065
0.00357083
0.00522357
0.00595638
0.00609062
0.00621158
0.00610761
0.00595228
0.00560046
0.00517088
0.0042905
0.00320069
0.00199748
0.00203746
0.00217302
0.00215398
0.00187071
0.00141194
0.000926975
0.00137408
0.00141715
0.00133207
0.00121185
0.0010662
0.00109608
0.00201369
0.00404862
0.00547948
0.006056
0.00653181
0.00702114
0.00745634
0.00778467
0.00802929
0.00820251
0.00831409
0.00833865
0.00818455
0.00748532
0.0071614
0.00675696
0.00642403
0.00595248
0.00556333
0.00628848
0.00689998
0.00727309
0.00769383
0.00788581
0.00780012
0.00676968
0.0065825
0.00758978
0.00934314
0.0079519
0.00998454
0.0117221
0.00913263
0.00820245
0.00818621
0.00915095
0.0093279
0.00900362
0.00849686
0.00791575
0.00717764
0.00755567
0.0078944
0.00821646
0.00851384
0.00928166
0.00941807
0.00934486
0.00918707
0.00898677
0.00872659
0.00833251
0.00778186
0.00710672
0.0064193
0.00563404
0.00404912
0.00186333
0.00216466
0.00211127
0.00233749
0.00224774
0.00101145
0.00111217
0.00112352
0.00112777
0.00106401
0.00120664
0.00175074
0.00281913
0.00203454
0.00166889
0.00116672
0.00138095
0.00230513
0.00391844
0.00441053
0.004486
0.00483532
0.0063546
0.0069191
0.00729661
0.00760994
0.00778793
0.00769445
0.00746261
0.0070477
0.00654568
0.00633227
0.00598867
0.00566567
0.00548203
0.00529182
0.00496934
0.00392598
0.0037349
0.00388697
0.00384205
0.00367919
0.00392904
0.00406953
0.00406479
0.00410874
0.00414715
0.00426859
0.00441175
0.00453635
0.00460153
0.00462552
0.00463298
0.00464243
0.00465009
0.00466458
0.00464917
0.0045478
0.00399378
0.00249803
0.00145857
0.00134879
0.00147892
0.001564
0.00160046
0.00142135
0.000914815
0.00142172
0.00184011
0.00188698
0.00206981
0.00213483
0.00226275
0.00252078
0.0029131
0.00300585
0.00266782
0.00252759
0.00247374
0.00241079
0.00206176
0.00256782
0.00283406
0.00282874
0.00280193
0.00302783
0.00372566
0.00357883
0.00315599
0.00312069
0.00308911
0.00279118
0.00274673
0.00300433
0.00303764
0.00315179
0.00369622
0.00443285
0.00411164
0.00374432
0.00358806
0.00331276
0.00291201
0.00263277
0.0032488
0.0026676
0.00139011
0.00117911
0.00118597
0.00118828
0.00114329
0.00135096
0.00141762
0.00143343
0.00133398
0.0014832
0.0016528
0.00160209
0.00182475
0.00179622
0.00160136
0.00158592
0.00172349
0.00182646
0.00187792
0.00192608
0.00313943
0.00323095
0.0025069
0.00362452
0.00418669
0.00418093
0.00442962
0.00364049
0.00325228
0.00385917
0.00447505
0.00515726
0.00407062
0.00383944
0.00394013
0.00180647
0.000950291
0.00134121
0.00166459
0.00185137
0.00179408
0.00169473
0.00143274
0.00254233
0.00261104
0.00413758
0.00463987
0.00469368
0.0046608
0.00481923
0.00535272
0.00626991
0.00684615
0.00701344
0.00690734
0.0066236
0.00609786
0.00558345
0.00552911
0.00533077
0.00517372
0.0051205
0.00446112
0.00392132
0.00417725
0.00411376
0.00425081
0.00431388
0.00435906
0.00440515
0.00448309
0.00457726
0.00466251
0.00472055
0.00475912
0.00479186
0.00482568
0.00485991
0.00489707
0.00491709
0.0048706
0.00440246
0.00264259
0.00157632
0.00143839
0.00153482
0.00180384
0.00189918
0.00204128
0.00181329
0.000955037
0.00112319
0.00195158
0.00216264
0.00200052
0.00187233
0.00183908
0.00154058
0.0027887
0.0027519
0.00431558
0.00485219
0.00491901
0.00490457
0.0048659
0.00482263
0.00478282
0.00475045
0.00472515
0.00469835
0.00465951
0.00461265
0.00456703
0.00452043
0.00444193
0.0043266
0.00421965
0.00440405
0.00451531
0.00469391
0.00491842
0.00504542
0.00495851
0.00480769
0.00472359
0.00473918
0.00477874
0.00482145
0.00486032
0.00487967
0.00482749
0.00455188
0.00427397
0.00270858
0.00274375
0.00135168
0.00150166
0.00173268
0.0017894
0.00194402
0.00193568
0.00152265
0.0011858
0.00133723
0.00124977
0.00223231
0.00245392
0.00272026
0.00269302
0.00146376
0.001501
0.00156005
0.00176033
0.00163676
0.00158169
0.00389201
0.00372939
0.00390579
0.00479503
0.0041308
0.00285389
0.00313065
0.0043545
0.0045915
0.00277786
0.00208216
0.0023117
0.00292863
0.00430877
0.00436199
0.00414338
0.0041214
0.003013
0.00370259
0.00445056
0.00432887
0.00338048
0.00233008
0.0017327
0.000843033
0.00160383
0.0013719
0.00335723
0.00371462
0.00367042
0.00401372
0.00426437
0.00430825
0.00418636
0.00371387
0.00378728
0.00382448
0.00435662
0.00437603
0.00370586
0.00312799
0.00254171
0.00256418
0.00261365
0.00289646
0.00362658
0.00341689
0.00299491
0.00290442
0.00284198
0.00267371
0.00241291
0.00211723
0.00213163
0.00198389
0.00191988
0.00302638
0.00402846
0.00475035
0.00488704
0.0049367
0.00486115
0.00482696
0.00468907
0.00461778
0.00401185
0.00511986
0.00541062
0.00522113
0.00525989
0.00529284
0.00533329
0.00533423
0.00523423
0.00449856
0.0026868
0.00175514
0.00198125
0.00213869
0.00200846
0.00199705
0.00212833
0.00201932
0.00177358
0.00287329
0.00280815
0.00448944
0.00508322
0.00519143
0.00519718
0.00517581
0.00515809
0.00516444
0.00543659
0.0053145
0.00539299
0.00568905
0.00569797
0.00576564
0.00541234
0.00534259
0.00529779
0.00526768
0.00521922
0.00509075
0.0045048
0.00436696
0.0049594
0.00511262
0.00518099
0.00522867
0.00528556
0.00535999
0.00557319
0.00573204
0.00579219
0.00554733
0.0054557
0.00532722
0.00514627
0.00510401
0.00509593
0.00509275
0.00506897
0.00493863
0.00434835
0.00279641
0.00286562
0.00170491
0.00171615
0.00197684
0.00207657
0.00203972
0.00188904
0.00184187
0.00316475
0.00360199
0.00383212
0.00412737
0.00394204
0.00391984
0.00448105
0.00433637
0.00386966
0.0040256
0.0036081
0.0034387
0.00332373
0.00334084
0.00176079
0.00189984
0.00198144
0.00194833
0.00186296
0.00166144
0.00152352
0.0027799
0.00275965
0.00272367
0.00162014
0.0015848
0.00186722
0.00181355
0.00165919
0.00141426
0.00155022
0.00239248
0.00267574
0.00414799
0.00429616
0.00459883
0.00491658
0.00503593
0.00506756
0.00508637
0.00510843
0.00515666
0.00521488
0.00523305
0.00523509
0.00528857
0.00528019
0.00528096
0.00525278
0.0052203
0.00518235
0.00514178
0.00507552
0.00493985
0.00461574
0.00429818
0.00484571
0.0048905
0.00498201
0.00507677
0.00511761
0.00512463
0.00510676
0.00507031
0.00502686
0.00497648
0.00497413
0.00510682
0.00513812
0.00516032
0.00514251
0.00512398
0.00511814
0.00509692
0.00506215
0.0049704
0.00487794
0.00483832
0.0047579
0.00488463
0.00494044
0.00494804
0.00499428
0.00506918
0.00508905
0.00508685
0.00504954
0.00501943
0.00498141
0.0049175
0.00483294
0.00455184
0.00461354
0.00469111
0.00479283
0.00489114
0.00497051
0.00501493
0.00501749
0.00497105
0.00493975
0.00494073
0.0048991
0.00492077
0.0049432
0.00491846
0.00491607
0.00492034
0.00486481
0.00476349
0.00462235
0.00447319
0.00435047
0.00428889
0.00418608
0.00450728
0.00463391
0.00474541
0.00484351
0.00493273
0.00502362
0.00505352
0.00504605
0.00499133
0.00496077
0.00496037
0.00491324
0.0049108
0.00495632
0.00495729
0.0049827
0.00503031
0.005014
0.00494589
0.00477519
0.00461006
0.00446659
0.00432942
0.00418118
0.00415391
0.00422168
0.00416207
0.00421761
0.00436326
0.00454671
0.0047052
0.00480642
0.00483797
0.00486741
0.00491116
0.00490606
0.00487972
0.00486574
0.00480663
0.00475533
0.00469212
0.00455293
0.0043752
0.00421885
0.00417073
0.0042572
0.00434228
0.00426302
0.00395142
0.00410785
0.00425287
0.00439732
0.00460272
0.0048406
0.00494697
0.00498551
0.00496333
0.00494629
0.00494489
0.00490181
0.0048867
0.00492624
0.0049281
0.00494505
0.00497404
0.00493932
0.00485056
0.00455715
0.00421291
0.00404763
0.00395136
0.00381561
0.00428347
0.00437366
0.00426471
0.00419136
0.00430411
0.00443508
0.00457154
0.00466193
0.00469702
0.00474707
0.00481329
0.00484478
0.00479729
0.0047426
0.00467501
0.00464069
0.00464139
0.00461841
0.00453009
0.00442703
0.00430742
0.00445315
0.00453984
0.00445744
0.00402232
0.00408746
0.00417896
0.00422736
0.00454892
0.00483978
0.00491343
0.00492229
0.00489631
0.00487995
0.00488274
0.00485836
0.00481113
0.00480081
0.00479309
0.00484431
0.00491089
0.00494189
0.00495541
0.0047364
0.00435752
0.00430779
0.00413629
0.00405475
0.00451736
0.00457007
0.00446289
0.00436478
0.00457367
0.00466267
0.00468831
0.00467017
0.00462068
0.00458725
0.00464514
0.00473686
0.00466659
0.00436477
0.00409616
0.00423506
0.00426904
0.00425787
0.00419971
0.00410358
0.00389522
0.00435074
0.00479709
0.00483254
0.0043451
0.0043508
0.00420777
0.00390211
0.00426799
0.00447169
0.00452026
0.00451063
0.00444947
0.00428636
0.0045321
0.00474701
0.00470734
0.00425913
0.00276296
0.00280169
0.00282295
0.00282677
0.00279042
0.00278063
0.00274088
0.00272065
0.00265854
0.00259584
0.00253499
0.00270349
0.00284635
0.00303979
0.00305618
0.00313656
0.00300696
0.00284986
0.0026639
0.00207378
0.00263136
0.00313952
0.00333412
0.00358516
0.00363739
0.00418807
0.00440361
0.00452203
0.00443785
0.00356037
0.00302083
0.00241451
0.00157032
0.000978582
0.00114914
0.00119575
0.00126238
0.00155094
0.00282592
0.00144765
0.00199887
0.00156243
0.00267851
0.00143777
0.000897106
0.000593888
0.000757742
0.00090093
0.000911941
0.000876162
0.000730715
0.000577284
0.000590098
0.000551881
0.00058648
0.000526389
0.00060246
0.000558626
0.000765929
0.00110924
0.0012956
0.00132865
0.00107592
0.00121749
0.00101752
0.00117601
0.00105163
0.00114719
0.00110124
0.00134693
0.00147637
0.00141309
0.00141647
0.0012396
0.000867054
0.00100526
0.000789863
0.000948757
0.000725883
0.000936898
0.000803524
0.00104416
0.00107622
0.00107294
0.00103284
0.00078882
0.000934371
0.000736002
0.000907145
0.000747421
0.000801334
0.000667084
0.000969326
0.000987441
0.000910288
0.000967036
0.0010851
0.00116149
0.0012738
0.00120471
0.0013692
0.00132051
0.0013345
0.001265
0.00123153
0.00120401
0.00120712
0.00118749
0.00119394
0.00123224
0.00123368
0.00123819
0.00127664
0.00125789
0.00122648
0.00120705
0.00107239
0.000865973
0.00150851
0.00155547
0.00157955
0.00157985
0.00154546
0.00152661
0.00147035
0.00145586
0.00140803
0.00138185
0.00131879
0.00126918
0.00121112
0.00136192
0.000762875
0.000866381
0.000914624
0.000942586
0.000961222
0.000970205
0.000976693
0.000971102
0.000958727
0.000935859
0.000928929
0.000903661
0.00115565
0.00131487
0.00137606
0.00139315
0.00130579
0.00124395
0.0027355
0.00331363
0.00502138
0.00513228
0.00386085
0.00384577
0.00132484
0.00140236
0.000958031
0.00134635
0.00138847
0.00137424
0.00129781
0.000935751
0.00140417
0.00097936
0.00131448
0.000989637
0.00121166
0.00101312
0.00144634
0.00184694
0.00178466
0.00161732
0.00111482
0.000931471
0.000936995
0.000802555
0.000881386
0.000721575
0.000880464
0.000736465
0.0010705
0.00148822
0.00167719
0.00171328
0.00135236
0.00186781
0.00140503
0.00203722
0.00162171
0.00200385
0.00161056
0.00186207
0.0023047
0.00231572
0.00226097
0.00182234
0.00145833
0.00163793
0.00145008
0.00167152
0.00241649
0.00158313
0.00240932
0.000994675
0.00135634
0.00139845
0.00137957
0.00130092
0.000876104
0.00222796
0.00117899
0.00208907
0.00135142
0.00215551
0.00157341
0.00209322
0.00250201
0.00261977
0.00260991
0.0021313
0.00192895
0.00200262
0.001601
0.0019236
0.00143066
0.00207377
0.00117342
0.00151925
0.00166898
0.00176051
0.00176538
0.00144747
0.0028644
0.00180058
0.00271855
0.00189338
0.00242722
0.00194655
0.00212695
0.00251299
0.00249702
0.00247553
0.00209907
0.00169987
0.0022447
0.00159925
0.0480387
0.110663
0.0441731
0.111876
0.05056
0.0718079
0.0707329
0.0708537
0.0711202
0.0534127
0.116599
0.137717
0.143601
0.145368
0.14431
0.233192
0.190191
0.285679
0.185169
0.109104
0.0474096
0.0652963
0.168248
0.277625
0.416626
0.528661
0.360278
0.372917
0.237962
0.234606
0.220917
0.178812
0.109839
0.0551211
0.00940688
0.0102791
0.014744
0.0196624
0.0154198
0.00939714
0.00185853
0.00191712
0.00195941
0.00198512
0.00197646
0.00193178
0.00195883
0.00184575
0.00173054
0.00193044
0.00210514
0.00234336
0.00273647
0.00301614
0.00271563
0.00297416
0.00315099
0.00329511
0.00341464
0.00359307
0.00379415
0.00397061
0.00398033
0.00364761
0.0031091
0.00252927
0.00212609
0.00201447
0.00189187
0.00166849
0.00152652
0.00142959
0.00138268
0.00136325
0.00140091
0.0015309
0.00164351
0.00168296
0.00164974
0.00161941
0.00159298
0.00141842
0.00165839
0.00227483
0.0022929
0.00392841
0.00452664
0.00462074
0.00462714
0.00410257
0.00262102
0.00262684
0.00264034
0.00269089
0.00270146
0.00270851
0.00270568
0.00269613
0.00268042
0.00265114
0.00263662
0.0025942
0.00255841
0.00246899
0.00247306
0.00250608
0.00253153
0.00249046
0.00250142
0.0024478
0.00316079
0.00423311
0.00478972
0.0050055
0.00519168
0.00503973
0.00697799
0.00596057
0.00419613
0.00414341
0.00409001
0.00485444
0.00488701
0.00440026
0.0044149
0.00402493
0.00250853
0.00249401
0.00249527
0.0026626
0.00271302
0.00280662
0.00283192
0.00285646
0.00287021
0.00286851
0.0028675
0.00284629
0.00282832
0.00276723
0.00274663
0.00273828
0.00150985
0.00164715
0.00170706
0.00171739
0.00173986
0.00172893
0.00171773
0.00169703
0.00168255
0.00165462
0.00162159
0.00157485
0.0014828
0.00135193
0.00148906
0.00253099
0.00253218
0.00414027
0.00466433
0.0047001
0.00524725
0.00498158
0.00471837
0.0050684
0.00456205
0.00452314
0.00409049
0.00253771
0.00257143
0.00152431
0.00150859
0.00176227
0.00171162
0.00182755
0.00187588
0.00188149
0.00190702
0.00193272
0.00196359
0.00201223
0.00202747
0.00199875
0.00199425
0.00188062
0.00162607
0.00164604
0.00193926
0.00203169
0.00188516
0.00184965
0.00183484
0.00179106
0.001757
0.00172386
0.00174696
0.00188158
0.00188168
0.00185041
0.00176295
0.00171939
0.00149328
0.00144573
0.00252188
0.0025414
0.00416809
0.00431074
0.00429582
0.00494217
0.00550258
0.00626027
0.00533863
0.00432971
0.00444743
0.00507823
0.00376008
0.00310456
0.00184487
0.0014212
0.0017104
0.00166551
0.00173197
0.00179424
0.0015925
0.00170771
0.00157761
0.00143313
0.00142487
0.00142277
0.00145828
0.00147294
0.0014996
0.00150305
0.00153833
0.00153484
0.00153984
0.00155877
0.00156896
0.00173366
0.00188598
0.00158629
0.00134466
0.00130851
0.00123551
0.00117582
0.00120445
0.00117644
0.00116944
0.00114812
0.00112886
0.00107719
0.00112293
0.00119177
0.0013945
0.00133646
0.00108006
0.0009648
0.000659729
0.000671792
0.000676445
0.000697359
0.000704879
0.000714161
0.000717555
0.000729191
0.0007314
0.000735015
0.00073469
0.000752035
0.000749411
0.000740819
0.000735207
0.000739096
0.000742709
0.000742212
0.00108658
0.00121007
0.00132305
0.00157191
0.00185154
0.00159286
0.00134929
0.00116245
0.000747395
0.000758851
0.000772741
0.000779938
0.000796551
0.000811738
0.000828711
0.00083954
0.000847728
0.000856391
0.00086543
0.000869367
0.000867447
0.000851145
0.000841452
0.000863268
0.000948838
0.000998546
0.00106205
0.00108615
0.00110735
0.00111834
0.00111257
0.00112385
0.00111019
0.00110819
0.00108863
0.00108017
0.00107188
0.00106172
0.00104927
0.00101908
0.00100894
0.00106178
0.00179598
0.0023489
0.00270922
0.0029866
0.00274472
0.00221059
0.00234285
0.00410679
0.00387496
0.00230222
0.00214137
0.00196632
0.00170455
0.00152782
0.00184814
0.00210601
0.00230215
0.00247565
0.00263425
0.00274197
0.00288043
0.00306105
0.00338013
0.00342046
0.00312025
0.00252877
0.00214089
0.00199967
0.00193202
0.00181419
0.00168555
0.00172791
0.00174048
0.00168876
0.00162452
0.00160628
0.0016328
0.00166647
0.00164648
0.0016458
0.00147031
0.00146982
0.00251151
0.00255916
0.00393662
0.0041477
0.0041879
0.00269239
0.00265562
0.00155119
0.00144071
0.00157169
0.0016316
0.00163501
0.00164166
0.0016334
0.00160475
0.00158393
0.00155946
0.00153984
0.00152252
0.0014926
0.00143546
0.00132605
0.00144532
0.00162041
0.00169183
0.0017101
0.00171882
0.00174573
0.00179044
0.001826
0.00190859
0.00191686
0.00191606
0.00192278
0.0017972
0.00185333
0.00156856
0.00156622
0.00271451
0.00270702
0.00155525
0.00183636
0.00184895
0.0018277
0.00196784
0.00180074
0.0017437
0.0017346
0.00166128
0.00162229
0.00157006
0.00153919
0.00156963
0.00167018
0.00161753
0.00143378
0.00138311
0.00155077
0.00149108
0.00123695
0.00105664
0.00102741
0.000983369
0.000956636
0.00100259
0.00103854
0.00105901
0.00108499
0.00109266
0.00114034
0.00110941
0.00116407
0.00123446
0.00129047
0.00153065
0.00165888
0.00149864
0.00146995
0.00145173
0.00145031
0.00145496
0.00139512
0.0013912
0.00136024
0.001345
0.00130438
0.00128618
0.00126305
0.00126733
0.00128084
0.0014083
0.00362476
0.00461961
0.00481074
0.0082147
0.00332223
0.00339232
0.00665937
0.00275073
0.00413783
0.00443391
0.00463412
0.0048395
0.00443064
0.00562651
0.00392891
0.00437312
0.00456359
0.0040175
0.00149277
0.00167828
0.00194888
0.00175004
0.00154609
0.00105393
0.00113678
0.00117416
0.00120448
0.00122427
0.00124611
0.00126955
0.00129147
0.00130686
0.00130706
0.00126733
0.00122449
0.0011261
0.00109332
0.00113562
0.00117932
0.00103587
0.000975374
0.00098689
0.00100311
0.00101223
0.00101415
0.00102408
0.00102673
0.00104241
0.00103401
0.0010419
0.00102406
0.00103308
0.00101961
0.000984894
0.000936077
0.000853184
0.000832909
0.00119968
0.00127757
0.00134217
0.00152334
0.00175928
0.00187745
0.00168295
0.00155221
0.00148997
0.00165287
0.00165339
0.00300492
0.00577174
0.00258268
0.00289292
0.00843179
0.00335204
0.00260715
0.00264639
0.0026741
0.00267788
0.00155624
0.00184299
0.0017867
0.00179418
0.00152177
0.00127774
0.0011461
0.00102475
0.000694983
0.000692702
0.000697929
0.000708678
0.000712031
0.000681596
0.00068152
0.000677648
0.000676143
0.000661798
0.000657809
0.000646149
0.000639082
0.000622256
0.000613169
0.000597181
0.000594262
0.00061836
0.000686512
0.000829497
0.000924993
0.00105047
0.00107011
0.00120777
0.003005
0.00347747
0.00479454
0.00474708
0.00748375
0.00467705
0.00353292
0.00319559
0.00467559
0.00483271
0.0044974
0.00608966
0.00421255
0.00278836
0.00416887
0.00346159
0.00414729
0.00405575
0.00429482
0.00681077
0.00715899
0.00201777
0.00179867
0.00189213
0.00214685
0.00254925
0.00234676
0.00267379
0.00266908
0.00205749
0.00131663
0.00419545
0.00507423
0.00406409
0.00486782
0.00750683
0.00301991
0.00294523
0.00260549
0.00217463
0.00197653
0.00194998
0.00217432
0.00260217
0.00651753
0.00697503
0.00641123
0.00639148
0.00581084
0.00641067
0.00798414
0.00794347
0.00701055
0.00655529
0.00678726
0.00420318
0.00262813
0.00305481
0.00338287
0.00451314
0.00465462
0.00981146
0.00333795
0.0036835
0.00374019
0.0050016
0.00484926
0.00855538
0.00363408
0.00391524
0.00515914
0.00688769
0.0126758
0.00464072
0.00488215
0.00701646
0.00712256
0.00651375
0.00471539
0.0042717
0.00464853
0.00350286
0.00342508
0.00292546
0.00431807
0.00580227
0.00459435
0.0044612
0.00379332
0.00338423
0.00345936
0.00358975
0.00298283
0.00294195
0.00339448
0.00252748
0.00243509
0.00258546
0.000716177
0.000367169
0.000375402
0.000385187
0.000393104
0.000401264
0.000407217
0.000414292
0.000417457
0.000417818
0.000418912
0.000442944
0.000438799
0.000424912
0.000385839
0.000440261
0.000698648
0.000699087
0.000439729
0.000387655
0.000695579
0.00110822
0.00130642
0.00154541
0.00156442
0.00134986
0.00117047
0.000720564
0.000709238
0.000429902
0.000502084
0.000545252
0.000483637
0.000539772
0.000500302
0.00052992
0.00053551
0.000495546
0.00049275
0.000494635
0.000490897
0.000482171
0.000471509
0.000458465
0.000448153
0.000442373
0.00043777
0.00042793
0.000356194
0.000331787
0.000398306
0.000634431
0.000633434
0.000593973
0.000560493
0.000532037
0.000519251
0.000515837
0.000513131
0.000522126
0.000538973
0.00054375
0.000548577
0.000591045
0.000572452
0.000611434
0.000573827
0.000613041
0.000575376
0.000529294
0.000444425
0.000458509
0.000739663
0.000747523
0.00120759
0.00138131
0.00156637
0.00157431
0.00175764
0.00185132
0.00156801
0.00162786
0.00186533
0.0017371
0.00154811
0.00155422
0.00139791
0.00139933
0.00123968
0.000774846
0.000764345
0.000480046
0.000466234
0.000555943
0.000546239
0.000607512
0.000650197
0.000650424
0.00064833
0.000632205
0.000626382
0.000550846
0.000539984
0.000540692
0.000524322
0.000520655
0.000542471
0.000591262
0.000693395
0.000838622
0.000913397
0.000945659
0.000907366
0.000812669
0.000599201
0.000541922
0.000938755
0.000975066
0.00174171
0.00413967
0.00191424
0.00368053
0.00265547
0.000661347
0.000738044
0.000941189
0.00105466
0.00113858
0.00118646
0.00108384
0.000903845
0.000680522
0.000562248
0.000840788
0.000727105
0.000821591
0.000717612
0.000928547
0.00107364
0.00103866
0.00104649
0.000884407
0.000720506
0.000763058
0.000685093
0.000755174
0.00063228
0.000760773
0.000686785
0.000863031
0.000871141
0.000853016
0.000808545
0.000615632
0.000645951
0.000541863
0.000587833
0.000527821
0.00054557
0.000517009
0.000602867
0.000694707
0.00066675
0.000664154
0.000545709
0.000427643
0.000472353
0.000408536
0.000462404
0.00035944
0.000435411
0.00036508
0.000472616
0.000487128
0.000489462
0.000485958
0.000395099
0.000464716
0.000569919
0.000598808
0.000603895
0.000575131
0.00044353
0.00068625
0.000619015
0.000755788
0.000653588
0.000715568
0.000651568
0.000759448
0.000972632
0.00101546
0.00102218
0.000829323
0.000824234
0.00150386
0.0834485
0.00135282
0.00159906
0.00164898
0.00164307
0.00135846
0.00132519
0.00164144
0.00121411
0.00171957
0.00108271
0.00183425