/*--------------------------------*- C++ -*----------------------------------*\
| =========                 |                                                 |
| \\      /  F ield         | OpenFOAM: The Open Source CFD Toolbox           |
|  \\    /   O peration     | Version:  v2012                                 |
|   \\  /    A nd           | Website:  www.openfoam.com                      |
|    \\/     M anipulation  |                                                 |
\*---------------------------------------------------------------------------*/
FoamFile
{
    version     2.0;
    format      ascii;
    class       volScalarField;
    location    "10";
    object      epsilon;
}
// * * * * * * * * * * * * * * * * * * * * * * * * * * * * * * * * * * * * * //

dimensions      [0 2 -3 0 0 0 0];


internalField   nonuniform List<scalar> 
18258
(
0.0578634
0.0370269
0.0338591
0.0268184
0.0403623
0.0338242
0.0267864
0.0344979
0.0450423
0.0606386
0.0777821
0.0623265
0.0525665
0.0510878
0.0524588
0.051451
0.0412602
0.0384282
0.0464596
0.0819443
0.0788339
0.0657715
0.0838193
0.0678724
0.0705868
0.087478
0.068758
0.0661755
0.0664568
0.0730582
0.0767987
0.0827633
0.104301
0.112834
0.119288
0.100374
0.0859244
0.0730536
0.0604956
0.0443438
0.0444621
0.0519537
0.0541527
0.0499599
0.0390811
0.0297414
0.0271247
0.0253923
0.0178659
0.00828159
0.00949804
0.018357
0.0312126
0.0245698
0.0199778
0.0317056
0.0436388
0.0564406
0.0665408
0.0821154
0.0973533
0.108983
0.116092
0.119637
0.119579
0.114617
0.108571
0.10021
0.0916161
0.0855593
0.0827654
0.0818772
0.0814427
0.0817892
0.0775419
0.0680624
0.0552814
0.0488892
0.0470752
0.0356037
0.029446
0.0265119
0.0192329
0.0172682
0.0151693
0.0127616
0.012937
0.0127973
0.0117709
0.0114459
0.012985
0.0168672
0.0190126
0.0216078
0.0235053
0.0239066
0.0233232
0.0252761
0.0267124
0.0271271
0.0273504
0.0271746
0.0279353
0.0346165
0.0335409
0.0334765
0.0334696
0.0313777
0.0276359
0.0250556
0.0269129
0.0252267
0.0214015
0.017687
0.0144687
0.0143934
0.0155672
0.0152692
0.0185769
0.0198887
0.019973
0.0176307
0.0211929
0.0247789
0.0239939
0.020888
0.023515
0.0293306
0.0297664
0.0298793
0.0311982
0.0467913
0.0490525
0.0545125
0.0574011
0.0608516
0.0618585
0.0641663
0.0642434
0.0676873
0.0678825
0.0716751
0.119017
0.107983
0.103135
0.102028
0.100202
0.0994887
0.0949813
0.0889016
0.0779304
0.0682607
0.0695981
0.0966938
0.133644
0.168741
0.199203
0.223809
0.235943
0.236199
0.238127
0.246383
0.253689
0.261038
0.264068
0.253315
0.237401
0.212034
0.181542
0.15015
0.118762
0.0894401
0.0821831
0.0624729
0.0420143
0.0244378
0.0313376
0.033777
0.0331218
0.030504
0.0458043
0.0593169
0.0700364
0.0797078
0.0888293
0.0998697
0.112418
0.128568
0.11544
0.107884
0.0802673
0.0724683
0.0643708
0.0639081
0.0887725
0.102889
0.0854824
0.121166
0.14353
0.125347
0.094137
0.142167
0.214943
0.118746
0.11314
0.112281
0.115114
0.103814
0.0909314
0.0871564
0.0762913
0.0665781
0.057831
0.0421207
0.0413701
0.0465454
0.0560233
0.055596
0.0518351
0.0364046
0.0538096
0.0326967
0.013897
0.0126612
0.0342926
0.0551033
0.0703648
0.056278
0.0437839
0.0740837
0.0980174
0.101623
0.111481
0.117535
0.122854
0.0882063
0.105566
0.12839
0.145746
0.146259
0.219477
0.162307
0.160417
0.127527
0.172936
0.137031
0.106907
0.0934827
0.0719666
0.0435469
0.0532003
0.0708348
0.043
0.018003
0.0157176
0.044693
0.042027
0.0160837
0.0184305
0.0392743
0.0370207
0.0227939
0.0210293
0.0360709
0.0741908
0.0504552
0.0509285
0.0691595
0.0706948
0.0326065
0.0292255
0.0298138
0.0227349
0.0378552
0.0383421
0.033096
0.0310455
0.0152916
0.0129581
0.0264301
0.0151707
0.0137611
0.0334154
0.077635
0.14489
0.221818
0.305209
0.386121
0.458438
0.519422
0.482624
0.311169
0.0927706
0.0382397
0.0296832
0.029168
0.0188968
0.0129381
0.0133488
0.0146755
0.0171991
0.0159408
0.0144224
0.0136511
0.0152484
0.0154253
0.0106831
0.0100096
0.0101944
0.0102699
0.0105578
0.00935585
0.00526075
0.00335854
0.00533632
0.00615953
0.00652123
0.00636543
0.00592038
0.00541487
0.00496331
0.0046097
0.00437252
0.0042228
0.00417581
0.00414413
0.00430163
0.00378395
0.00319264
0.00213888
0.00196989
0.00174467
0.00148326
0.000861562
0.00102977
0.000930227
0.00100562
0.00211133
0.0041097
0.00788512
0.0127162
0.0115337
0.010849
0.0118745
0.013319
0.0144385
0.0154079
0.0159387
0.0163958
0.0162116
0.0167075
0.0185999
0.0242121
0.0266016
0.0284459
0.0295754
0.0299458
0.0307474
0.0269746
0.0265288
0.0261522
0.0260705
0.02454
0.0224152
0.0195703
0.0170429
0.0150687
0.0155416
0.0184561
0.0233577
0.0179168
0.0126168
0.00877609
0.00530461
0.00566655
0.00727599
0.00811898
0.00656
0.00665204
0.00729947
0.00489267
0.00324402
0.00216944
0.0016178
0.00140726
0.00114398
0.00208917
0.00234174
0.00259146
0.00300084
0.00350293
0.00367027
0.00436085
0.0051332
0.00505401
0.00481744
0.00790268
0.0067105
0.00594058
0.00601751
0.00699843
0.00707439
0.00837561
0.00917893
0.0114608
0.0112304
0.0113069
0.0117477
0.0108093
0.0089399
0.011707
0.015206
0.0189627
0.0188573
0.0197613
0.0176578
0.0180104
0.0199254
0.0219207
0.0237209
0.0250065
0.025637
0.0256591
0.0289787
0.0289567
0.0292481
0.0281111
0.0262996
0.022752
0.0206113
0.0225882
0.0234837
0.0240195
0.0244371
0.0245451
0.0237759
0.0231408
0.0223074
0.0203899
0.0196555
0.0214421
0.0223938
0.0231766
0.0240341
0.0233109
0.0226496
0.0217809
0.0207319
0.0189316
0.0179886
0.0198675
0.0209593
0.0217947
0.0221861
0.0207245
0.0205424
0.0198071
0.0187051
0.0167738
0.0152106
0.0171925
0.0182844
0.0189131
0.0189865
0.0183192
0.0173207
0.0166621
0.0162359
0.0139154
0.0138092
0.0138863
0.0163844
0.015041
0.0137387
0.0150867
0.0170522
0.0191343
0.0190964
0.0185305
0.0138031
0.0145605
0.0146104
0.0140105
0.0110478
0.00952894
0.00982068
0.00968273
0.00963368
0.0104178
0.0105738
0.00949091
0.00805465
0.00782719
0.00779155
0.00657927
0.00660277
0.00755184
0.00672713
0.00658279
0.00710995
0.00713451
0.00926804
0.00778896
0.00625452
0.0047427
0.00321687
0.00130342
0.00131118
0.00136024
0.00138114
0.0014228
0.0014447
0.00769484
0.0138963
0.0206867
0.0274667
0.0338914
0.0395051
0.0438817
0.0470869
0.049338
0.0511231
0.0524096
0.0463768
0.0462618
0.0566
0.0733544
0.0639946
0.0511041
0.0412116
0.0426416
0.0504706
0.0615337
0.0755331
0.0646614
0.0499284
0.0343989
0.0333186
0.0380583
0.0427369
0.0462981
0.0484554
0.0451888
0.039649
0.0320603
0.0248759
0.0182534
0.0116401
0.00449745
0.0028871
0.00382492
0.00423827
0.00275139
0.0029825
0.00289255
0.00454548
0.00603743
0.0072471
0.00880421
0.0066095
0.00661567
0.00743599
0.00886366
0.00737954
0.00615789
0.00561276
0.00690485
0.00722001
0.00484005
0.00636426
0.00794135
0.00747826
0.00739386
0.00652777
0.00888225
0.00951484
0.0103411
0.0120442
0.0121102
0.0121876
0.0124104
0.00953198
0.00622666
0.00450014
0.0116778
0.00812003
0.00741811
0.00595976
0.00573856
0.00412355
0.00309996
0.00411739
0.00479074
0.00619758
0.0107959
0.00849466
0.00698171
0.00458427
0.0050734
0.00785971
0.00980461
0.011942
0.0114761
0.00979815
0.0075096
0.00502372
0.0054569
0.00584126
0.00803534
0.0101587
0.0115636
0.0117575
0.0107486
0.0082277
0.00811457
0.00933558
0.00815558
0.00709142
0.00561577
0.00422068
0.00687618
0.00574258
0.00658845
0.00754814
0.0072228
0.00755878
0.00530489
0.00613454
0.00634724
0.00679981
0.00541963
0.00464221
0.00437858
0.00381165
0.00334625
0.00279006
0.00230417
0.00294381
0.00221563
0.00411001
0.00759965
0.0130459
0.0118045
0.0117484
0.0110729
0.0112086
0.0105746
0.0111514
0.00988332
0.00839555
0.00753304
0.0076059
0.00591773
0.00487841
0.004246
0.00348196
0.00514938
0.00471692
0.00817467
0.0138913
0.0134738
0.00818518
0.00846914
0.00580435
0.0063731
0.00868716
0.0132077
0.0136593
0.00791738
0.00675619
0.00796685
0.0086291
0.00937036
0.00947862
0.00887698
0.00941782
0.00994494
0.0106618
0.00716067
0.010381
0.0117529
0.014346
0.0136246
0.00946272
0.00890226
0.00674116
0.00561355
0.003942
0.00224343
0.00299921
0.00363555
0.00504411
0.00676429
0.00643482
0.00682072
0.00702952
0.00648047
0.00618155
0.00548446
0.0063523
0.00695359
0.00814434
0.00754722
0.0066419
0.00728781
0.00759469
0.00718592
0.00575357
0.00500989
0.0039841
0.00611586
0.00624393
0.00431782
0.00433554
0.00408989
0.00468795
0.0060899
0.00536825
0.00449983
0.00525441
0.00485205
0.00627466
0.00563635
0.00447195
0.00372615
0.00427734
0.00479297
0.00670624
0.00534072
0.00465545
0.0034816
0.00393301
0.00565779
0.00539936
0.00646794
0.00727855
0.00736549
0.00594928
0.00586876
0.00741374
0.00572511
0.00594275
0.00642255
0.00494693
0.00504731
0.00683559
0.00744122
0.00680793
0.0053094
0.00556294
0.00424393
0.00605651
0.00780706
0.00757266
0.00606914
0.0043598
0.00625846
0.00624027
0.00514216
0.00481242
0.00494018
0.00672902
0.00747047
0.00949351
0.00999093
0.00899602
0.0108605
0.0127598
0.0142568
0.0154109
0.0162947
0.0169721
0.0166451
0.0166215
0.0190732
0.0194032
0.0204536
0.0196045
0.0192303
0.0246844
0.027031
0.0287884
0.0298596
0.0301352
0.0308206
0.0266124
0.0267324
0.0264875
0.0264807
0.0248645
0.02271
0.0199399
0.0175885
0.0157943
0.0163712
0.0195148
0.0249523
0.0192213
0.0135935
0.00955584
0.00595696
0.00466514
0.00409607
0.00158224
0.00164765
0.00171775
0.00166679
0.00164783
0.00149888
0.00147583
0.00146538
0.00861727
0.0148654
0.0219615
0.0292093
0.0361562
0.0423047
0.0471773
0.0508276
0.0533707
0.0553294
0.0558795
0.0454007
0.0395827
0.0350379
0.0303923
0.0257528
0.0233307
0.0315648
0.0383044
0.044334
0.0495129
0.0544189
0.0565228
0.0420179
0.0373906
0.0474499
0.0851632
0.0823948
0.105478
0.122113
0.0693484
0.055397
0.0548803
0.068922
0.0654316
0.0580318
0.0507551
0.0431401
0.0346368
0.0401529
0.0454932
0.0509576
0.0579434
0.0715057
0.0696399
0.0663294
0.0629168
0.0578838
0.0508624
0.0417857
0.0318682
0.0216962
0.00986254
0.00340683
0.00263834
0.00302535
0.0035436
0.00417523
0.00543412
0.00563131
0.00524609
0.00434516
0.00350188
0.0029813
0.00269849
0.002617
0.0023301
0.00246754
0.00250234
0.00264984
0.00291592
0.00427487
0.00377877
0.00275916
0.00546786
0.0128242
0.0197037
0.0268062
0.034488
0.0426225
0.0487471
0.0525431
0.0501389
0.0459606
0.040152
0.0329163
0.0294447
0.0266831
0.0240011
0.0214154
0.021169
0.0197383
0.0183639
0.0166634
0.0146697
0.0123855
0.00964175
0.00915733
0.00854302
0.00679936
0.00463338
0.00567399
0.0070474
0.0075368
0.00715519
0.00643149
0.00569337
0.00508713
0.00463999
0.00436198
0.0042042
0.00416849
0.00419342
0.00443454
0.0042379
0.00410871
0.00318413
0.00287093
0.00283761
0.00262704
0.00205335
0.00171541
0.00115574
0.00108501
0.00116454
0.00155475
0.00186337
0.0027698
0.00397683
0.00564244
0.00798409
0.00709939
0.00714239
0.00831421
0.00750277
0.0058056
0.00952769
0.0114526
0.0125127
0.0122128
0.0120247
0.0120914
0.0147651
0.0154503
0.0153816
0.0145813
0.0124437
0.0161671
0.019539
0.0200962
0.020089
0.0178601
0.0157281
0.0194661
0.0203448
0.0201304
0.020806
0.0199199
0.0201089
0.0224384
0.0141299
0.0146524
0.0112242
0.00760678
0.00634868
0.00543291
0.0045178
0.00343343
0.00298249
0.00286804
0.00313072
0.00310959
0.00290431
0.00414449
0.0033406
0.00322925
0.00382666
0.00426551
0.00532787
0.00724455
0.00533049
0.00737441
0.00705327
0.00597033
0.00735566
0.008437
0.00817217
0.00920456
0.0101841
0.00780082
0.00816705
0.00942509
0.0107601
0.0119542
0.00928408
0.00933681
0.00760482
0.0120313
0.00835026
0.00448907
0.00467226
0.00500642
0.00529996
0.00577016
0.00532107
0.00644477
0.00455849
0.00428969
0.00799691
0.015784
0.0223845
0.0290928
0.0358458
0.0414723
0.0445639
0.042333
0.0385862
0.0321079
0.0260623
0.0231674
0.0212218
0.0197498
0.0188183
0.0168317
0.0151695
0.013562
0.0116712
0.0108638
0.00878816
0.00587
0.00612486
0.00943076
0.0117545
0.0121204
0.0112632
0.00979586
0.00836379
0.00732755
0.00686365
0.00685324
0.00712557
0.00758103
0.00825509
0.00884669
0.00908134
0.00708297
0.00682619
0.0063487
0.0066391
0.00658887
0.00624802
0.00780845
0.00618301
0.00639762
0.00825331
0.00916326
0.00867145
0.00989591
0.0104784
0.0110442
0.0117059
0.00932275
0.00803204
0.00740805
0.00720739
0.00791043
0.00979824
0.0126619
0.0156594
0.0177614
0.0180812
0.0166638
0.0126493
0.00917618
0.00897959
0.0110108
0.0127323
0.0145833
0.0136692
0.0132653
0.0141306
0.0179007
0.0229498
0.024963
0.0255237
0.0237008
0.019744
0.0148653
0.0103458
0.00736336
0.0064591
0.00685926
0.0076902
0.00728862
0.0100046
0.0117788
0.0113537
0.0111903
0.0105484
0.0101358
0.0094895
0.00768445
0.00419874
0.00417464
0.00466568
0.00622038
0.00553821
0.00635016
0.0083148
0.00903186
0.0108368
0.0102587
0.00808481
0.0082721
0.00459056
0.00522228
0.00571657
0.00550042
0.00654561
0.00687393
0.00749561
0.00775703
0.0101291
0.0106555
0.00980049
0.00958463
0.00611673
0.00902305
0.00996845
0.0103101
0.00938033
0.00718772
0.00936936
0.010523
0.0144812
0.0130056
0.0109799
0.0133067
0.0103902
0.00722187
0.00675843
0.00324101
0.0029606
0.0043277
0.0050911
0.00429481
0.00512841
0.00619362
0.0066954
0.00599431
0.00507081
0.0056071
0.00538339
0.00657798
0.00646343
0.005231
0.00363653
0.00313397
0.00389999
0.00571786
0.00752229
0.00980847
0.0099329
0.0093537
0.00698154
0.0057387
0.00401573
0.00226247
0.00222504
0.0042666
0.00812231
0.0130692
0.0118558
0.0111647
0.0122485
0.0137701
0.0149633
0.0160152
0.0166354
0.0172108
0.0171498
0.0178091
0.0184038
0.0179835
0.0180966
0.0172221
0.0161751
0.014878
0.0132492
0.0112233
0.00924169
0.012107
0.0133715
0.00776626
0.00418928
0.00230522
0.00297408
0.00473455
0.00828181
0.0141847
0.012035
0.0112867
0.00869165
0.0105995
0.0128401
0.0147718
0.0164472
0.0180891
0.0198372
0.0211147
0.0257204
0.0241497
0.0224146
0.0233235
0.0194965
0.0185431
0.0170633
0.0156378
0.0141457
0.0123794
0.0102876
0.00849922
0.00834029
0.00974219
0.0116252
0.013569
0.0153963
0.0173073
0.0195756
0.0217633
0.0250435
0.0245837
0.0266863
0.027854
0.0236071
0.0209216
0.0183183
0.0161663
0.0141324
0.0120101
0.00999164
0.0084824
0.0107022
0.0114086
0.0138016
0.0136731
0.00823243
0.00510988
0.00347562
0.00352764
0.00328876
0.00951718
0.00762888
0.00977437
0.0092354
0.00840521
0.012152
0.0140784
0.0119458
0.0150405
0.0160946
0.0141216
0.0136771
0.00549203
0.00455401
0.00401679
0.00420877
0.0057265
0.00847858
0.0086566
0.0132677
0.0143138
0.0112747
0.00998598
0.00845645
0.00988404
0.00746165
0.00626072
0.00482448
0.00445255
0.00510894
0.00582801
0.00675951
0.00749627
0.00636674
0.00758811
0.00811542
0.00960247
0.0113893
0.0134065
0.0156949
0.0182336
0.0214511
0.025232
0.029604
0.0297198
0.0278538
0.0273423
0.0235742
0.0202431
0.017343
0.0150308
0.012932
0.0110766
0.00941309
0.00801264
0.00752337
0.0071709
0.00795101
0.00932022
0.0108098
0.0125905
0.0146872
0.0172813
0.0205432
0.0240011
0.0272528
0.0277247
0.0282749
0.0279546
0.0250187
0.0214961
0.0180293
0.0152496
0.0129838
0.0110581
0.00946462
0.00803212
0.00723132
0.00615818
0.00646007
0.00762189
0.00842198
0.0096389
0.0110829
0.0129374
0.0151883
0.0178296
0.0209413
0.0237417
0.0254124
0.0254812
0.0259141
0.0258813
0.0234989
0.0203819
0.0172764
0.0147307
0.0126128
0.010882
0.00952111
0.00834869
0.00755966
0.00643533
0.00681579
0.00803843
0.00882385
0.00983841
0.0110694
0.0127777
0.0148803
0.0172942
0.0198836
0.0223397
0.023608
0.023353
0.0215316
0.0217793
0.0217869
0.0199898
0.0176298
0.0152306
0.0130439
0.0112362
0.00994298
0.00889584
0.00809266
0.00681819
0.00715557
0.00846172
0.009365
0.0103123
0.0114499
0.01319
0.0152603
0.0172293
0.0187085
0.0191655
0.0183759
0.0175675
0.0198295
0.0206092
0.02025
0.0190095
0.0171188
0.0150118
0.0129717
0.0113068
0.0102114
0.00930222
0.00844364
0.00717433
0.00740494
0.00871125
0.0096261
0.0105302
0.011496
0.0131179
0.0150299
0.0167676
0.0178976
0.0180654
0.0171695
0.0158695
0.0135987
0.0148715
0.0166966
0.0172952
0.0166852
0.0151855
0.0132984
0.0116251
0.0106327
0.00966318
0.00869459
0.00735856
0.0074288
0.00877188
0.00983412
0.010862
0.0117799
0.0133837
0.015111
0.016082
0.0158889
0.0144636
0.0126764
0.0111044
0.0129293
0.0145266
0.0157794
0.0166226
0.016282
0.0150106
0.0132262
0.011659
0.0107772
0.00981778
0.00883022
0.00747641
0.00743348
0.00875006
0.00988393
0.0109232
0.0118244
0.0133516
0.0149928
0.0158391
0.0154692
0.0140854
0.0125066
0.0108775
0.0100437
0.0113707
0.0131619
0.0147662
0.0155774
0.0150546
0.0134964
0.0119406
0.0109875
0.00987208
0.00867133
0.00742926
0.00742535
0.00852073
0.00981574
0.0110326
0.0120297
0.0136126
0.0151333
0.0153416
0.0142072
0.0125662
0.0109755
0.0097538
0.00999477
0.0115415
0.0130069
0.0147627
0.0155864
0.0150732
0.0134698
0.0119286
0.0109849
0.00985322
0.00858577
0.00732857
0.0071533
0.00860205
0.0104354
0.0115858
0.0126574
0.0144246
0.0161349
0.0164128
0.0154696
0.0131146
0.0120784
0.0109439
0.0110817
0.0120103
0.0131128
0.0150487
0.016184
0.0161985
0.0145886
0.0127608
0.0116281
0.0103982
0.00859026
0.00741365
0.00725691
0.0085811
0.0132201
0.0124078
0.0119532
0.0111714
0.0107092
0.00954282
0.00893365
0.00901152
0.00973512
0.0124801
0.0127433
0.0141424
0.0147789
0.01479
0.0160378
0.0166753
0.0180295
0.0184685
0.0184038
0.0204379
0.017842
0.0145129
0.0116452
0.0100447
0.00948111
0.0130675
0.0143829
0.0166063
0.0202383
0.0241004
0.0332204
0.0408852
0.0601834
0.0916664
0.0806617
0.0809552
0.0996036
0.176847
2.61758
2.76843
2.65745
3.12582
3.55613
0.377437
0.356886
0.682956
0.79168
1.05038
0.999245
0.85809
0.80229
0.756745
0.724413
0.703865
0.649502
0.631848
0.543484
0.537585
0.421469
0.404028
0.403885
0.426663
0.514932
0.418694
0.45554
0.360795
0.385184
0.325961
0.331158
0.249592
0.262338
0.397107
0.515779
0.686899
1.05243
0.94843
1.09855
0.978647
1.01487
0.786518
1.0838
0.865605
0.830447
0.838095
0.881595
1.17573
1.02002
1.13164
1.22038
1.31659
1.22472
1.63275
1.29041
1.15003
1.00871
1.27922
1.5959
1.90813
2.03238
1.4681
1.594
1.26446
1.05905
1
1.0135
0.991418
1.00117
1.02555
1.01951
1.00308
0.96211
0.931821
0.892649
0.948109
0.836102
0.726302
0.516031
0.438953
0.318569
0.307638
0.288343
0.250233
0.195404
0.128362
0.113068
0.130768
0.143226
0.159126
0.16754
0.182695
0.189892
0.214928
0.347774
0.307942
0.281845
0.269198
0.240587
0.202697
0.169525
0.226588
0.309906
0.359174
0.392651
0.405394
0.492585
0.714585
0.828071
0.946864
0.89539
0.899645
2.51522
2.63762
2.31471
3.68009
4.18848
6.75115
5.67566
2.33088
3.96458
2.93275
2.71058
2.66722
2.76225
4.16111
2.65149
3.47905
3.07757
3.5978
3.60541
4.78796
5.05206
4.13335
3.79882
3.52094
3.87707
2.88613
2.94663
2.30699
2.17599
1.81686
1.45817
1.55875
1.0878
1.00405
1.00814
1.14088
1.47318
0.91489
1.09922
0.817688
0.908402
0.948142
0.96549
0.955045
0.846726
1.12451
1.45591
2.43451
3.94491
3.23613
5.35077
3.56052
13.98
28.5991
10.1754
21.6339
13.154
12.3081
12.1954
12.8485
19.1151
11.0082
18.2529
14.536
20.0447
19.7647
23.378
19.507
14.8694
16.6624
18.9366
24.7327
17.0253
20.3998
15.1445
15.0245
12.9074
10.5063
8.76235
5.99733
5.67621
5.5018
5.32535
6.99143
7.95916
10.1296
8.95006
9.18828
9.17835
6.89824
6.12229
4.60161
5.06954
5.988
9.51033
17.8751
13.339
22.1498
0.466828
0.227777
0.509935
0.228078
0.525042
0.416001
0.431914
0.435038
0.429754
0.512341
0.230561
0.191615
0.183598
0.181002
0.182267
0.1034
0.127827
0.0833071
0.131664
0.228055
0.470563
0.329044
0.140445
0.0857682
0.0565745
0.0441168
0.0654713
0.0630548
0.100943
0.102528
0.109078
0.136935
0.238768
0.466251
34.6136
8.56073
1.50884
0.707559
0.447527
0.334771
0.350785
0.350626
0.330735
0.290544
0.232392
0.167366
0.103454
0.0681629
0.0423025
0.0331379
0.0196024
0.00868151
0.00675846
0.00887385
0.012338
0.0132584
0.0266454
0.0527643
0.0882734
0.12966
0.174733
0.227884
0.276983
0.285583
0.243263
0.144942
0.0531071
0.0296035
0.0256846
0.0256322
0.0251601
0.0239282
0.0228831
0.020448
0.0191033
0.017919
0.0167467
0.0144122
0.0105096
0.0117496
0.0120214
0.012736
0.0109976
0.00830318
0.00952843
0.00446779
0.00549767
0.00621924
0.00679828
0.00844828
0.0137956
0.0157553
0.0156324
0.0172242
0.0174396
0.0189506
0.0191491
0.0216738
0.0219334
0.0242786
0.0242486
0.0245579
0.0242173
0.0230729
0.0230645
0.0208926
0.0205714
0.0207579
0.0220099
0.0208339
0.0210199
0.0198593
0.0216226
0.028168
0.0472324
0.0392267
0.019149
0.0146811
0.0151695
0.0159323
0.0138794
0.0124968
0.0112029
0.0113963
0.0126265
0.0137639
0.0203739
0.0223543
0.0223737
0.0237707
0.0241965
0.0242813
0.0243854
0.0221859
0.0219293
0.0193441
0.0191303
0.0175489
0.0173084
0.0156241
0.015756
0.0139112
0.0259873
0.0245266
0.0263806
0.0274141
0.0296025
0.0305604
0.0342605
0.0353089
0.0382361
0.0379174
0.0373358
0.0359407
0.0343361
0.0363318
0.0323183
0.0201494
0.0207
0.0165907
0.0149542
0.0140304
0.0135437
0.0145953
0.0142487
0.0130192
0.0134541
0.0149783
0.0155635
0.0210854
0.0223766
0.0316867
0.0308904
0.0264115
0.0288201
0.02948
0.030822
0.0318093
0.03218
0.0300059
0.0286121
0.0256192
0.0244054
0.0225618
0.0212914
0.0203205
0.0223371
0.0204925
0.018414
0.0194922
0.0223447
0.0251399
0.0268033
0.0298388
0.0316959
0.0338327
0.0322134
0.0287096
0.0266832
0.025453
0.0256911
0.0247983
0.0304652
0.0293702
0.0213671
0.0201993
0.014932
0.0132014
0.0125793
0.0122229
0.0128153
0.0139263
0.0118912
0.0129613
0.0133099
0.016081
0.0225999
0.0208607
0.0247448
0.0269693
0.0221289
0.0236896
0.0230353
0.0244183
0.0285677
0.0292705
0.0345903
0.0382249
0.0397318
0.0400577
0.037686
0.0371795
0.0352272
0.0345592
0.0316644
0.0311804
0.0295501
0.0285111
0.0262662
0.0232753
0.0195261
0.0243102
0.0296312
0.0326768
0.0358499
0.0398475
0.0401892
0.0434997
0.045005
0.0473842
0.0483266
0.0515965
0.0486847
0.0441265
0.0369792
0.0370904
0.0464686
0.0546446
0.0810188
0.0821483
0.0813423
0.0779065
0.077324
0.0762456
0.0755713
0.0723838
0.0718886
0.0697799
0.0688717
0.064356
0.0642828
0.0631904
0.0635479
0.0604098
0.0593265
0.0587346
0.0399335
0.0342513
0.0296395
0.023933
0.0188684
0.0230575
0.0288832
0.0351003
0.0551105
0.0542472
0.0535171
0.0535354
0.0529339
0.0527314
0.0520913
0.05207
0.0516936
0.0512068
0.0503936
0.0490759
0.0484874
0.0461985
0.0452335
0.0462885
0.047319
0.048796
0.0493953
0.0520174
0.0524948
0.0552698
0.0544283
0.0562339
0.0554768
0.0570336
0.0567751
0.0576916
0.0572386
0.0568923
0.0564833
0.055914
0.0551984
0.0555183
0.0363656
0.0284527
0.0234998
0.0204181
0.02084
0.0238622
0.0236425
0.0250786
0.0240717
0.0302517
0.0328865
0.0291794
0.0223163
0.0200237
0.0197918
0.0201124
0.0203351
0.0272936
0.0425257
0.0615363
0.0780132
0.0883276
0.111473
0.135211
0.150643
0.12874
0.077697
0.0385457
0.0270449
0.0241853
0.0223287
0.0198005
0.0184332
0.0180402
0.0176783
0.0177515
0.0172657
0.0167336
0.0147102
0.0135623
0.0132105
0.0143913
0.0096626
0.00913954
0.00524633
0.00665287
0.00751659
0.0121127
0.0130051
0.022015
0.0258425
0.0243715
0.0261301
0.0270992
0.0292054
0.030085
0.0337622
0.0348303
0.0380726
0.0380067
0.0379645
0.0368039
0.0355454
0.0376449
0.0332653
0.0297283
0.0301655
0.0313651
0.031976
0.0320501
0.0295023
0.0280763
0.0250628
0.0239386
0.0221757
0.0209656
0.020036
0.0180184
0.020017
0.0187441
0.0115228
0.0106626
0.0174066
0.0157596
0.0168682
0.0189063
0.0190815
0.0218333
0.0245171
0.0260897
0.0291409
0.0310546
0.0336775
0.0334327
0.0313504
0.028051
0.0272483
0.0315454
0.0316776
0.0264299
0.0285017
0.0350231
0.0414759
0.0445058
0.0477386
0.0511497
0.0499171
0.0470502
0.0461718
0.0436594
0.0420302
0.0386869
0.0383135
0.0345325
0.031464
0.0285809
0.0234708
0.0225936
0.0255186
0.0276445
0.0286783
0.0301927
0.0306853
0.0335953
0.0342908
0.0363027
0.0367878
0.0394925
0.0397572
0.0393543
0.0385927
0.0367846
0.0332327
0.0222728
0.0203811
0.0202936
0.0208151
0.0214744
0.0211274
0.0263232
0.0206548
0.0207617
0.0209098
0.0202778
0.0199701
0.0194333
0.0269302
0.019491
0.020386
0.0193938
0.0182257
0.0253083
0.0276406
0.0330553
0.0395145
0.0465564
0.071312
0.0680822
0.0649198
0.0614725
0.0579361
0.0530026
0.0493085
0.0480596
0.0581575
0.0753165
0.0916589
0.094349
0.0893945
0.09026
0.0913599
0.0941551
0.0851934
0.0870527
0.0816043
0.0749133
0.0713857
0.0669132
0.064406
0.0608807
0.0587206
0.0560244
0.0543227
0.0519927
0.0497995
0.0474798
0.0452414
0.0438979
0.0421131
0.0403835
0.0269227
0.0224226
0.0190518
0.0154797
0.0128583
0.01166
0.0125182
0.0135301
0.0144879
0.0155559
0.015231
0.0112416
0.0111541
0.0102091
0.00974715
0.0109663
0.00926135
0.00773956
0.00730262
0.00836147
0.010099
0.0163262
0.014766
0.0167572
0.0180012
0.0228939
0.0283357
0.0326895
0.0381343
0.0575163
0.0609276
0.0605483
0.0615892
0.0617453
0.0662885
0.0672773
0.0695693
0.0700744
0.0734562
0.0742103
0.0753345
0.0756251
0.0792183
0.0799226
0.0805687
0.0812338
0.0791673
0.0774923
0.0767392
0.0528673
0.0463785
0.0411938
0.0345849
0.0225865
0.0221701
0.0203118
0.020015
0.0243526
0.0202974
0.0230427
0.0234084
0.0205948
0.0198398
0.0198787
0.029745
0.0208515
0.023407
0.023612
0.0225383
0.020789
0.0203542
0.0218003
0.0238227
0.0245208
0.0370151
0.0424173
0.0385472
0.0340525
0.0295307
0.0315174
0.0254798
0.0238209
0.0285718
0.0302029
0.0191756
0.0242829
0.0196652
0.0187909
0.0243797
0.0219617
0.0229509
0.026459
0.0302302
0.0370785
0.0342573
0.0306918
0.02756
0.02987
0.0251969
0.0234266
0.0229463
0.0217516
0.0360319
0.0254847
0.0294547
0.027325
0.0332061
0.0287661
0.027138
0.0264932
0.0252346
0.0243081
0.0210422
0.0199737
0.0192441
0.021502
0.0218011
0.021345
0.0197612
0.018728
0.0195577
0.0194145
0.0187383
0.0175347
0.0144162
0.0103795
0.0165124
0.0161711
0.0138521
0.0135921
0.0151224
0.018747
0.020796
0.021478
0.0249677
0.0246585
0.0270508
0.0259873
0.0794884
0.0220572
0.0226535
0.0272542
0.50579
0.0313147
0.0251806
0.0302073
0.0294841
0.0640636
0.0821519
0.543035
0.0384587
0.0688526
0.131138
0.13006
0.126258
0.1252
0.124659
0.121543
0.117878
0.114808
0.111722
0.108476
0.102604
0.10083
0.100205
0.107451
0.0938538
0.0563517
0.0558166
0.0898309
0.0988225
0.0530076
0.0331452
0.0273679
0.0219162
0.0210317
0.0262001
0.0311195
0.0503221
0.0516964
0.0894699
0.080207
0.0785354
0.086456
0.081224
0.0865432
0.0862486
0.0886701
0.0931884
0.0960799
0.0984186
0.101557
0.104101
0.107185
0.108284
0.109853
0.111724
0.112126
0.113821
0.132277
0.144034
0.126078
0.114938
0.106342
0.106218
0.104238
0.10106
0.0986213
0.0986595
0.0979604
0.0953538
0.0901048
0.0866669
0.0852174
0.0826282
0.0815792
0.0788139
0.078641
0.076136
0.0758525
0.0768568
0.0864798
0.08537
0.0492729
0.0486684
0.0300599
0.0252335
0.0202794
0.0192991
0.0152219
0.013146
0.0140494
0.0112598
0.0108276
0.0129152
0.0168693
0.0185634
0.0234048
0.0242505
0.0291515
0.0473388
0.0479327
0.0845097
0.0847119
0.0766492
0.0764214
0.0739943
0.0744743
0.078307
0.0771211
0.0811033
0.0798376
0.0855325
0.0866614
0.0886405
0.093496
0.0961371
0.0968843
0.0988829
0.101849
0.101216
0.102518
0.101806
0.102601
0.104807
0.120338
0.134214
0.076925
0.074294
0.0677144
0.0292837
0.0646618
0.0524751
0.0549845
0.118998
0.111687
0.0974967
0.0966326
0.0969436
0.0998753
0.104157
0.104562
0.123313
0.151902
0.14165
0.157255
0.133959
0.144134
0.103387
0.0851267
0.088938
0.124698
0.152998
0.181116
0.170785
0.190011
0.174241
0.190224
0.161744
0.174813
0.129701
0.122298
0.11899
0.119142
0.147037
0.128392
0.148617
0.127657
0.139135
0.121535
0.12991
0.107627
0.0853102
0.084933
0.081864
0.0954357
0.116739
0.108857
0.122212
0.111642
0.125352
0.105786
0.118392
0.0979194
0.0964565
0.0990781
0.105511
0.141564
0.342699
0.200611
0.182622
0.175886
0.17389
0.331558
0.241367
0.395907
0.268256
0.326548
0.236071
0.257591
0.182521
0.14162
0.148523
0.160864
0.241707
0.378392
4.99868
0.249059
3.23998
2.48989
2.69365
2.80427
3.58844
5.89563
5.9572
7.13971
5.7651
7.37465
4.68693
4.47875
4.34152
4.47286
4.48814
4.32334
4.89236
4.60785
0.195486
0.087278
0.0860151
0.0860866
0.0874704
0.193751
0.0473545
0.185019
0.0469824
0.19178
0.0405881
0.224514
0.18196
0.0354185
0.0186721
0.0190577
0.0165078
0.0196721
0.0167344
0.0246893
0.0234218
0.023373
0.0245791
0.0498629
0.188641
8.27513
0.748095
0.298171
0.722733
0.677226
0.334983
0.389549
0.788793
1.05872
0.447994
0.249233
0.377131
0.188046
0.117798
0.135354
0.23058
0.448857
0.359949
0.141008
0.0929041
0.150134
0.185376
0.185576
0.113103
0.0886145
0.105778
0.0912056
0.0757515
0.10774
0.0844473
0.0696003
0.059242
0.0556357
0.0578209
0.0547912
0.0302498
0.0720646
0.0681553
0.0583752
0.0544202
0.0335569
0.0514158
0.0490652
0.0492721
0.0490232
0.0495887
0.0332574
0.0530063
0.0491724
0.105675
0.0928219
0.0907108
0.0924802
0.100266
0.106504
0.227971
0.47592
0.390127
5.60598
7.554
0.505181
0.302268
5.94302
0.193732
0.0500226
0.0197387
0.0166724
0.0159679
0.0159919
0.0148338
0.0153559
0.0157302
0.016639
0.0182608
0.0220953
0.0423138
0.184671
0.184152
0.0580302
0.0296492
0.0217872
0.0189239
0.0166587
0.0160563
0.0152843
0.0152116
0.0147999
0.0152859
0.0164648
0.0196944
0.0477243
0.21781
6.41585
0.354633
0.266695
4.25226
3.48862
0.176549
0.037099
0.0187597
0.0164594
0.0155876
0.0164108
0.015951
0.0176977
0.0178621
0.0219424
0.0236037
0.0289028
0.049836
0.0949023
0.256603
6.05556
5.46287
5.00301
5.03761
0.252297
0.0955533
0.0469354
0.0346888
0.0319733
0.0312476
0.0216198
0.0225147
0.0184116
0.0208057
0.0178266
0.0216431
0.0437914
0.18945
3.87077
0.386466
0.247123
0.246298
0.0819826
0.0881257
0.0924792
0.099996
0.144162
0.262171
0.329328
0.187406
0.197472
0.320005
0.265562
0.114004
0.0938813
0.0945016
0.115219
0.0873944
0.0884514
0.0806634
0.0743964
0.0651188
0.0818187
0.0654527
0.0677411
0.0766272
0.0848115
0.0815378
0.0950082
0.0763577
0.0815986
0.0939292
0.195872
0.234428
0.0858312
0.141906
0.0992018
0.0631991
0.0800567
0.0856213
0.0879564
0.0992002
0.092221
0.0817851
0.0742013
0.0742732
0.0751195
0.0876171
0.13652
0.108323
0.0941768
0.0731857
0.0786613
0.0836104
0.0530953
0.117288
0.0615343
0.0525924
0.048099
0.0496418
0.0484756
0.0468817
0.0508457
0.0608425
0.0522863
0.0513907
0.0381293
0.0479816
0.111738
0.819847
0.094982
0.0420908
0.0676041
0.218487
0.0763699
0.0554385
0.261706
1.0797
0.172974
0.720276
12.6696
4.70052
25.7078
4.13669
6.18659
0.754476
0.575765
6.18343
0.841474
0.968648
0.673038
0.503792
0.531854
0.0994672
0.0976635
0.100525
0.0906591
0.0799476
0.0733361
0.0772823
0.080346
0.0927674
0.105315
0.0981946
0.109486
0.0864191
0.107483
0.121116
0.0883789
0.101092
0.127455
0.146761
0.119644
0.442048
0.414872
0.428153
0.235629
0.233335
0.629281
1.00468
1.04735
0.751757
0.7628
4.20045
5.98097
7.15756
0.794377
28.1939
17.6804
0.552221
0.151268
0.0736191
0.0630074
0.0611656
0.0691275
0.0702699
0.114514
0.0692296
0.0746027
0.072864
0.0744837
0.0811245
0.102006
0.199493
0.158023
0.245126