/*--------------------------------*- C++ -*----------------------------------*\
| =========                 |                                                 |
| \\      /  F ield         | OpenFOAM: The Open Source CFD Toolbox           |
|  \\    /   O peration     | Version:  v2012                                 |
|   \\  /    A nd           | Website:  www.openfoam.com                      |
|    \\/     M anipulation  |                                                 |
\*---------------------------------------------------------------------------*/
FoamFile
{
    version     2.0;
    format      ascii;
    class       surfaceScalarField;
    location    "10";
    object      phi;
}
// * * * * * * * * * * * * * * * * * * * * * * * * * * * * * * * * * * * * * //

dimensions      [1 0 -1 0 0 0 0];
oriented        oriented;


internalField   nonuniform List<scalar> 
50655
(
0.00396628
-0.00808295
0.00180337
-0.00733664
-0.00603705
0.0131128
-0.00905491
-0.00512244
0.0163277
0.00172958
0.00248035
-0.00557476
-0.00603926
-0.000764239
0.0068082
-0.00362633
-0.00143578
0.00523102
-0.00460651
-0.000494718
0.00668861
-0.00770015
-0.00964352
0.00906141
-0.0147682
0.00892424
-0.0038982
-0.0170351
-0.00739354
0.00955062
-0.0177732
-0.0077104
0.00834633
-0.0187749
-0.0079542
0.00885192
-0.0372579
-0.0117054
0.0299949
-0.0660979
-0.0339658
0.0622466
-0.0622756
-0.0611389
0.056621
-0.03861
-0.0792917
0.05485
-0.00512214
-0.0867694
0.0525003
0.0121345
-0.0637236
0.0456562
0.00874385
-0.0426205
0.0452385
-0.00919292
-0.0332902
0.0504607
-0.0031836
-0.0577579
0.0510259
0.00265739
-0.0543213
0.0479221
-0.0325352
0.0348631
-0.0286888
0.0205761
-0.0247241
-0.000543388
-0.0787876
0.0501468
0.0281842
-0.0797821
0.0505567
0.0328642
-0.025801
0.020813
0.0357986
-0.00327268
0.0430171
0.0180874
-0.0256293
0.0371915
-0.0244792
0.0300281
0.0316957
-0.01517
0.0204961
0.0271194
-0.00987793
0.0143268
0.0195371
-0.00726198
0.0147487
0.00999569
0.00168397
0.00781654
0.00879576
0.000890439
0.000291032
0.00811842
0.00276096
-0.00210098
0.00740258
0.00279286
-0.00209369
0.00670637
0.00242514
-0.00174613
0.00536787
0.00214942
-0.000827351
0.00326565
0.00170481
0.000380758
-3.92412e-05
0.000717088
0.00257143
-0.00218351
-0.00116547
0.00329298
-0.0025981
-0.00161938
0.00201746
-0.00248931
-0.0018914
0.00176566
-0.00167682
-0.00212658
0.00129784
-0.000778658
-0.00226395
0.00134876
0.00145456
-0.00225089
0.00308352
-0.00286767
0.00121295
0.00637081
0.00161131
-0.00494053
0.0034592
0.0029349
-8.00045e-05
-0.0021564
0.00343825
0.00211014
-0.00463777
0.0037225
-0.0013085
-0.00396594
0.00341419
-0.00414283
-0.00136572
0.00241015
-0.00505261
-0.000628601
0.00141821
-0.0021812
-0.00138147
0.00073523
-0.00181101
0.000979704
-0.000567359
-0.00222451
0.00108962
-0.000692285
-0.00266133
0.0012661
-0.0008456
-0.00352795
0.00121265
-0.000360882
-0.00478457
0.00131853
-7.58786e-05
-0.0062426
0.00137638
6.82281e-05
-0.00756948
0.00118506
0.000128646
-0.00859612
0.000797366
0.000216241
-0.00919071
0.000290241
0.00029128
-0.00952598
-5.84974e-05
0.000380446
-0.00994446
-0.000122693
0.000526928
-0.0100296
-0.000456132
0.000526213
-0.00975121
-0.000527789
0.000233932
-0.00975335
-0.000415718
0.000402196
-0.00966346
-0.000183136
7.71732e-05
-0.009612
3.94894e-05
-0.000106858
-0.00966408
0.000108745
-7.2407e-05
-0.00964497
-5.65454e-05
2.18694e-05
-0.00929832
-0.000610986
0.000248897
-0.00845046
-0.00142693
0.000563843
-0.00716285
-0.00225085
0.000947924
-0.0057661
-0.00246294
0.00105146
-0.00434575
-0.00225686
0.000822686
-0.0039966
-0.00177195
0.00141082
-0.00789529
-0.00225045
0.00612263
-0.0101568
-0.00674764
0.00894871
-0.0111543
-0.00495512
0.00588745
-0.019902
-0.00284604
0.0114764
-0.0224829
-0.0230242
0.0253074
-0.014293
-0.0255053
0.0170084
-0.00876306
-0.0115698
0.00590791
-0.00902741
-0.00353775
0.0037242
-0.00907848
-0.00403312
0.00399424
-0.00811971
-0.00532046
0.00426034
-0.0053798
-0.00571234
0.00287729
-0.00815182
0.00268685
-0.0141253
0.00215666
0.00372216
-0.0190707
-0.000515853
0.00534786
-0.023623
-0.00266464
0.00708504
-0.0278581
-0.00395899
0.00804962
-0.037603
-0.00325433
0.0128185
-0.0503288
-0.00386629
0.0163101
-0.0392986
-0.0246588
0.0133478
-0.0310588
-0.01629
0.00786582
-0.027208
-0.0117898
0.00779198
-0.0226381
-0.0108284
0.00612379
-0.0170811
-0.0102236
0.00455049
-0.00957127
0.00145427
0.0155232
-0.00229877
-0.0139688
0.0205135
-0.0154653
0.000137845
0.0240198
-0.0161382
0.00167801
0.0261232
-0.0165934
0.00256764
0.0244956
-0.0162347
0.00143572
0.0686455
-0.0311458
-0.0436462
0.00540332
0.0279823
-0.0194057
0.0338109
0.0218155
0.022835
-0.00311982
0.00487864
0.0191284
-0.0033867
0.00300455
0.0148302
-0.001253
0.00276439
0.010013
0.00168932
0.00250237
0.00392875
0.00243494
0.00566608
-0.0121338
0.00495911
0.00654545
-0.0092693
0.00425459
0.00176052
0.00121659
-0.0115838
0.00172424
-0.004693
-0.0157227
0.00309655
0.00556128
-0.00293445
-0.0170125
0.00583922
-0.0188062
0.00528099
-0.000505652
-0.0246379
0.0049208
0.000468823
-0.0230817
0.00493883
0.00846351
-0.0292198
0.00532603
0.0174186
-0.0479924
0.0159545
0.0197041
0.0244621
0.003464
-0.0539035
0.0200879
-0.0220567
0.0118417
0.00966135
0.0138586
0.00333671
0.00776184
0.00111456
0.00593643
0.00358976
0.0093745
-0.0179852
-0.00248832
0.0032293
0.00293
-0.00622216
0.00311607
0.00419035
-0.00578953
0.00265377
-0.00677819
0.00367372
-0.00948443
0.00229546
-0.00205764
0.00343729
-0.00735707
0.00193827
-0.00692118
0.00283511
-0.0109868
0.00140399
-8.9332e-05
0.00229429
-0.00790074
0.00115096
-0.00603894
0.00178138
-0.011313
0.000855961
0.00121361
0.00132273
-0.00712486
0.000862668
-0.00602814
0.000958761
-0.00763671
0.000628631
-0.000777575
0.000646307
0.00427793
-0.0170889
-0.00156294
0.00672292
0.00562359
-9.51591e-05
-0.000628839
0.00631291
0.000614977
-0.000452374
0.00650221
0.00101283
-0.000358444
0.00651703
0.00137839
-0.000255188
0.00625537
0.00191724
-0.000264822
0.00584577
0.00259955
-0.000264929
0.00509487
0.00326311
-0.000229702
0.00405676
0.00381517
-0.000135583
0.00271775
0.00447605
-3.28277e-05
0.00387646
0.000288267
0.00555237
-0.00439898
0.00045225
0.00729478
-0.00439724
0.000176508
0.00872124
-0.00384385
0.000150699
0.00932986
-0.00193094
-0.00012028
0.00950204
-0.000551952
-0.000246892
0.00928801
0.00042061
-0.000278989
0.0091174
0.000398623
-0.000135466
0.00889798
0.000179604
6.27695e-05
0.008608
-0.000483608
0.00057399
0.00850631
-0.00129211
0.000962061
0.0087417
-0.00180612
0.00102732
0.0085699
-0.0019726
0.00167303
0.00823117
0.000462948
-0.00126327
0.0010022
0.00835272
0.000798982
0.000674944
-0.00166726
0.0079111
0.000820651
0.00118191
-0.00128396
0.00693541
0.00083065
0.00157776
-0.000648536
0.00564562
0.000762762
-7.34896e-05
0.00177227
0.0041853
0.000408254
0.00178377
0.000631113
0.00287003
0.000699919
0.00154886
0.000371178
0.00219992
0.000686641
0.00114827
3.29028e-05
0.00188496
0.00246721
-0.000902537
0.00168414
0.00205549
-0.000781299
0.00135941
-0.000485892
0.00177384
0.00144306
0.000634595
0.00205611
0.000632119
-0.00126137
0.00198816
0.0011949
-0.00114386
0.00144353
0.0016557
-0.00112762
-0.000917111
0.00269376
-0.000349824
-0.00391801
0.00189544
0.00108895
-0.00557786
1.23381e-05
0.00163088
-0.00676319
-0.000782703
0.00195143
-0.00754721
-0.00135825
0.00212514
-0.00840852
-0.00131901
0.00216315
-0.0088205
-0.00187605
0.00227003
-0.00946708
-0.00211867
0.00274723
-0.0102576
-0.00226117
0.00303237
-0.0116696
0.00110783
0.000282252
-0.0208455
0.00127195
0.00785892
-0.0315769
-0.00746115
0.0180766
-0.0354037
-0.0174736
0.0211349
-0.0424764
-0.0230849
0.0298907
-0.0259992
0.0180751
0.0165858
-0.0352068
0.0129617
0.0247394
-0.0162825
0.00806021
-0.00346945
0.0050699
-0.0339554
0.0298111
0.000625976
-0.015477
-0.023119
0.00460522
-0.0370931
0.00528723
0.0419874
-0.0570782
-0.000391228
0.0305788
-0.0526456
0.0161246
0.0122231
-0.00956688
0.018251
-0.0096688
0.0127236
-0.00523894
0.025424
0.00504907
0.0242171
-0.014778
0.00840775
0.0129587
-0.00981741
0.016128
0.00609463
0.0129659
0.00108913
0.00916609
0.00152843
0.00648263
-0.00295574
0.0034989
0.0080178
-0.00619345
0.00276064
0.00522465
-0.00134553
0.00279866
0.00576248
-0.00474324
0.00282663
0.00231347
8.9121e-05
0.00255705
-0.000223476
0.000917534
0.00161184
-0.00184596
0.00372633
-0.000228263
-0.00338637
0.00536486
-0.00115051
-0.00253496
0.00228724
-0.00150274
-0.00347964
0.00373896
-0.0016197
-0.00186169
0.000828945
-0.00183417
0.00198412
-0.00181222
0.00437741
0.00546421
-0.00467838
0.00540154
0.00588123
-0.003544
0.0023381
0.00633104
0.000384688
-0.00401795
0.00627508
0.0034492
-0.0064416
0.00649067
-0.00118479
0.00500398
-0.00467706
-0.00313978
-0.00207702
0.00626119
0.00958629
-0.0028707
-0.0049101
-0.00313845
0.00566871
0.0105379
-0.00648835
-0.0049823
0.00145161
-0.00126402
0.0015843
-0.0015211
-0.000209182
0.00700443
-0.0126757
-0.00870244
0.0056238
0.00328085
0.0111241
-0.0217593
0.0110641
0.00841802
-0.00882685
-0.0268342
0.00759172
-0.00988741
-0.0253154
0.00426422
-0.0157728
-0.026456
-0.0182967
0.00415692
0.00494278
-0.0323707
0.000923339
-0.0245653
0.004974
-0.0166715
-0.015838
0.00787484
0.0141604
0.00571596
-0.0365946
-0.022973
0.00472739
0.0162586
0.0122002
-0.00945077
-0.0420698
-0.00969823
0.0128101
-0.00520788
-0.000124887
0.0146556
-0.00871834
-0.015574
0.0147135
-0.00903579
-0.0155347
0.0101306
0.0161017
8.39092e-05
-0.0116884
0.0137813
-0.00577445
0.0121809
-0.00850256
0.000214063
0.0109534
0.010804
-0.00742757
-0.00222046
0.00881784
0.00902754
0.000493473
-0.00727898
0.00943694
-0.0062487
0.00192928
0.00574571
-0.00677719
0.00869128
0.000854518
0.00786374
-0.00322658
0.00637164
0.00640348
0.000900484
0.00237404
0.00686194
0.00338586
-0.00402733
0.00650327
0.00609257
0.00613338
0.0058471
0.00312343
0.00174137
0.0117357
-0.00244443
0.00406681
0.00792032
-0.00574555
0.00383043
0.00624836
0.00233708
0.00694089
-0.000298913
-0.00554525
0.0100375
0.000586391
-0.00469751
0.0075548
0.00144698
-0.00428393
0.00740263
-0.00548372
0.0101845
-0.0046774
0.000175551
-0.00975603
0.00093676
0.00108311
-0.0110699
0.00532582
0.00240492
-0.0115812
0.00323039
-0.00427015
0.00575974
-0.00213547
0.0109374
-0.00722753
-0.0143741
0.00996471
0.01058
-0.000564137
-0.010516
-3.83085e-05
0.000896722
0.00206724
-0.00594568
-0.00299286
-0.00169738
0.000890648
-0.00225454
-0.00239131
-0.0011367
-0.000176573
-7.4508e-06
-0.00130268
-0.000946882
-0.00065366
0.00146916
-0.000824551
4.24431e-05
-5.19082e-05
-0.000645595
-0.000579874
-0.000682557
0.00116106
-0.000199583
-0.00394472
0.000429103
-0.00136723
0.000947838
-0.00183323
-0.00346066
-0.00359555
0.00109307
-0.00519037
-0.00609787
-0.00918979
0.00680998
0.00478895
-0.0140535
-0.0159182
0.00375388
0.00811783
0.0118894
-0.0221846
-0.0167947
0.0148155
0.00234799
0.00765818
-0.0288317
-0.0142678
0.0126003
0.000266354
0.00794303
-0.0311722
-0.00974436
0.00662835
-0.00166359
0.00701416
-0.0311442
-0.00431096
0.00144109
-0.0027587
0.00548958
-0.0285103
-0.000222509
-0.00292513
0.000418898
-0.0246588
0.0033852
-0.00650469
0.00283674
-0.0036774
-0.0228299
0.00757323
-0.00738254
0.00224782
-0.00436985
-0.0207335
0.0112647
0.000963841
-0.00569843
-0.00872958
-0.019816
0.0139657
-0.000827727
-0.00749279
-0.0066748
-0.0207025
0.0142284
-0.00936694
-0.00408193
-0.0192096
0.0130477
-0.0105231
-0.00413093
-0.0195557
0.0117316
-0.0069492
-0.00453246
-0.0260139
-0.00698407
0.0175477
-0.00418091
-0.0433656
0.0136614
0.0109823
-0.00298822
0.0205075
-0.0176485
0.0194507
0.00651633
-0.0153001
-0.0198818
-0.00984312
0.00644279
-0.00842203
-0.0105038
0.00590533
-0.00158941
-0.0105663
0.00780335
-0.00384307
-0.00868452
0.00770165
-0.00543323
-0.00712946
0.00733855
-0.00611455
0.00222565
-0.00673781
0.00208863
0.00382184
-0.00373199
0.00530216
0.00237911
-0.00565574
0.00722825
0.0035346
-0.0055402
0.00875904
0.00370083
-0.00531009
0.00850747
0.00381919
-0.0036373
0.00778935
0.003098
-0.00243381
0.0125783
0.00090557
-0.00576913
0.0230452
-0.00599315
-0.00468051
-0.00506436
0.0114959
0.0160398
-0.0346526
0.0190177
0.00987787
-0.0499388
0.021227
-0.00671445
-0.0602014
0.0229287
-0.0134995
-0.0669286
0.022386
-0.016542
-0.0708113
0.0199651
-0.0169916
-0.0722749
0.01663
-0.0160888
-0.0717613
0.0127467
-0.0141838
-0.0701967
0.00850995
-0.0109892
-0.068238
0.00436016
-0.00721869
-0.0659932
0.000526156
-0.00364118
-0.06218
-0.00130408
-0.00334129
-0.0529902
-0.00157352
-0.00837446
-0.0274525
-0.00817923
-0.0179762
-0.0110401
-0.00433644
-0.0122945
-0.00588926
-0.00338137
-0.00184663
-0.00583642
-8.59703e-05
-2.1883e-05
-0.00547499
0.000677943
-0.00111002
-0.00433499
0.000534395
-0.00175477
-0.00235489
0.000941944
-0.00300629
-0.00186131
0.000506752
-0.00107148
-0.00304787
9.05524e-05
0.00104526
-0.00302264
0.000650155
-0.000746473
-0.0043192
0.00120881
-0.00785863
0.00281039
0.000630366
-0.0107925
0.00321255
-0.000389123
-0.013327
0.00434207
-0.00191124
-0.0175564
0.0046719
-0.000548785
-0.0408686
0.0141658
0.00894659
-0.0779942
-0.00612038
0.0426625
-0.0915786
-0.0283247
0.0411772
-0.0961623
-0.039808
0.0435698
-0.0953613
-0.0473603
0.0457271
-0.0907192
-0.0533995
0.0478915
-0.082003
-0.0569499
0.0474014
-0.068653
-0.0593997
0.0452228
-0.0520343
-0.0607959
0.0434053
-0.0273968
-0.0509863
0.0257074
-0.0379109
0.0100723
-0.0560558
0.0307515
-0.0130754
-0.0642118
0.0355176
-0.0278655
-0.0649303
0.0371073
-0.0369157
-0.0556469
0.0371173
-0.0469274
-0.0451609
0.0341893
-0.0451784
-0.026332
0.024027
-0.0433232
0.013412
-0.0401829
0.0301701
0.0422933
-0.0596878
0.0524047
0.0550575
-0.0780575
0.0721222
0.0528952
-0.0734313
0.0858617
0.0506798
-0.0652427
0.0925769
0.0456044
-0.0531752
0.0918458
0.0379808
-0.038071
0.0849028
0.0315015
-0.0253681
0.0707908
0.0276312
-0.0142384
0.0374984
0.0326268
9.2952e-05
0.0173916
0.0184678
0.00144296
0.0143718
0.00334184
-0.000426616
0.0126258
0.000787077
0.000856485
0.00961754
0.000425673
0.00247261
0.00519361
-0.00011688
0.004442
-0.000796173
0.00590163
-0.00119151
-0.00546533
0.00576441
-0.000208095
-0.00811136
0.00701831
0.00126526
-0.00963638
0.00803913
0.0018426
-0.00842979
0.00771588
0.00151363
-0.0122737
0.0124234
0.00299789
-0.0179764
0.0162046
3.99736e-05
0.0136473
-0.0109749
-0.00211334
0.00920884
-0.00723523
-0.00200697
0.00427306
-0.00451521
-0.00208274
0.00363248
-0.00367988
-0.00185919
0.00325389
-0.00358636
0.00267115
-0.0034172
0.00153237
0.00227084
-0.00054437
0.00176902
0.00269346
0.000251823
0.00207479
0.00272979
0.000519267
0.00270961
0.00213487
0.00142518
0.00642849
0.0061028
-0.000718621
0.0105672
-0.00428648
0.000102232
0.00572071
-0.00246583
0.00727147
-0.0120251
-0.00675514
0.0244309
-0.00946486
-0.00326414
0.000624908
-0.000160956
0.00199568
0.00387701
-0.00604951
0.00406081
-0.00197373
0.00295528
-0.00137532
-0.00510464
0.00127601
-0.00451656
-0.00862398
-0.00762493
0.0125699
-0.000964207
-0.0238723
0.00188372
0.00235841
0.00487571
-0.0107038
-0.0318001
0.00274173
0.00431523
0.000757002
-0.0399107
-0.0110633
0.0209393
-0.00265221
-0.0138028
0.00479982
-0.00209871
-0.0135633
0.00444673
-0.00152103
-0.0143591
0.00401994
-0.000574014
-0.0125513
0.00338002
-0.00931784
0.00306455
-0.0140468
0.00194364
0.00308603
-0.0151952
-0.000136834
0.00195828
-0.0119895
9.8299e-05
0.00555728
0.000856204
-0.0329971
0.0253549
0.00778588
0.00519763
-0.0847123
0.0324045
0.0378772
0.0131701
-0.0960918
0.0452495
-0.00709237
-0.102268
0.0533403
-0.0165278
-0.102766
0.0628962
-0.0252935
-0.0963748
0.0724443
-0.0341121
-0.0831912
0.07891
-0.0422804
-0.0639391
0.0796937
-0.0468888
-0.0424297
0.0817304
-0.0489957
0.0557378
-0.0324146
0.0647695
0.0539797
-0.0294297
0.0753724
0.0607792
-0.0348902
0.0762113
0.0612366
-0.0255939
0.0693145
0.0584612
-0.0166556
0.0491593
-0.000649162
-0.0971799
0.0726012
0.012125
-0.108379
0.0779758
-0.00922583
-0.108752
0.0836235
-0.0229576
-0.0966849
0.0835599
-0.0357902
0.0755381
-0.0374213
0.0948751
0.0936609
-0.0341945
0.105436
0.101085
-0.0290155
0.103184
0.100053
-0.015107
0.0893468
0.0938922
-0.00297221
0.0866397
0.0150659
-0.0868546
0.0947837
0.0208889
-0.101308
0.102788
0.00463376
-0.104437
0.109166
-0.00694601
-0.0949303
0.110187
-0.01957
0.104508
-0.0277878
0.0889905
0.109688
-0.0226615
0.098619
0.114332
-0.0147499
0.0958223
0.112983
-0.00199774
0.0816725
0.106628
0.0093716
0.0981959
0.0239737
-0.0734914
0.0977061
0.0257391
-0.0866379
0.105893
0.0129414
-0.0888124
0.111964
0.00221313
-0.0793703
0.113456
-0.00954511
0.109147
-0.0168701
0.0682982
0.104201
-0.0109481
0.0767307
0.108141
-0.00409515
0.0748696
0.105461
0.0073852
0.0627668
0.0999835
0.0170718
0.092115
0.0276763
-0.0488605
0.079749
0.0320384
-0.0616266
0.0882281
0.0235736
-0.062917
0.091579
0.0142068
-0.0555395
0.0962964
0.00350359
0.0958221
-0.00285314
0.034849
0.0143501
0.0460516
0.0320371
0.0478755
0.0691807
0.0132132
0.047574
0.0667536
0.0242486
0.0296815
0.0350586
0.0315921
0.0385233
0.0309607
0.0257356
0.0457101
-0.00805926
0.0179663
0.0126504
0.00818365
-0.0133798
0.0183143
0.0125373
-0.0114924
0.0211158
0.0118498
-0.011274
0.0192624
0.0119003
-0.0328968
0.0193573
0.0362997
-0.00244777
0.0217913
-0.0238859
-0.00749545
0.0269799
0.00493995
-0.0270725
-0.00631441
0.021036
0.00437539
-0.0267691
-0.00456004
0.0206252
-0.0263601
0.00381071
0.0179973
0.00249892
0.0032842
0.00395118
0.00402215
0.00535723
0.00535533
0.00595988
0.00727838
0.00571232
0.0048853
-0.00258755
-0.0121094
0.011239
0.00151492
-0.000906169
0.000623503
0.00444969
0.00189469
-3.51723e-05
-0.000348656
-0.000103961
0.00294457
-0.000950823
-0.00162984
-0.00081435
0.00233602
-0.00136934
-0.000299347
0.00256484
0.00712192
0.00889685
0.0202133
-0.0298428
0.00359128
0.00904414
-0.00246429
-0.00444911
0.0391484
-0.000775043
-0.011393
0.00101893
0.0032453
-0.00381463
0.00286956
0.0023561
-0.00422157
-0.0135647
0.00518046
0.0112133
-0.00657499
-0.00700928
-2.44334e-05
0.0107671
-0.00119164
0.015353
-0.00403799
0.027405
-0.0069417
0.0128071
0.0381593
-0.0142486
-0.0157928
0.00552238
0.00437142
0.0141479
0.00286021
-0.00873197
0.00448251
0.00606819
-0.00139807
-0.00487359
0.00406302
0.00620891
-0.00099426
-0.0049017
0.00312049
0.00606495
-0.000250628
-0.00497823
0.00204187
0.00527915
-0.00455924
0.000260134
0.00098399
0.00432962
-0.00386697
0.000507984
0.00363513
-0.00349473
0.00076321
0.00330124
-0.000636333
0.000899574
0.00277006
-0.000591353
0.00106752
0.0042439
-0.0018855
0.000334519
0.00904445
-0.00330188
-0.00171724
-0.000234555
-0.00375394
0.0124151
-0.0221742
0.0111358
0.0100453
-0.0399549
0.0231079
-0.00616001
-0.0551654
0.0345154
-0.0201764
-0.0671438
0.0429171
-0.0318406
-0.0758388
0.0501917
-0.0424141
-0.0787037
0.055198
-0.0532604
-0.0762397
0.0596917
-0.0630827
-0.0655719
0.0613299
-0.072915
-0.0471581
0.0615863
-0.0809017
-0.0190567
0.0571801
-0.0861526
0.0170777
0.0500022
-0.0869688
0.037591
0.0479416
-0.0692126
0.0299107
0.0607896
-0.0537262
0.0104331
0.0274443
-0.00818468
0.00578222
0.0107495
-0.00617552
0.00719048
0.00469154
-0.00615433
0.00728448
0.00733818
-0.00750166
0.0083014
-0.0066694
-0.00736339
0.015157
-0.00469963
-0.00753594
0.0133522
-0.00591682
-0.000823533
-0.00204242
0.0122857
-0.00238832
-0.00980707
0.0169164
0.00839994
-0.00333632
-0.00915044
0.020238
0.00637855
-0.0135423
0.0683214
0.0184846
-0.0226036
-0.00960175
0.0589171
-0.0158207
0.00347897
0.0616735
-0.0256702
0.0232858
0.0686832
-0.0322442
0.0400416
0.0747561
-0.030877
0.0521902
0.0754836
-0.0272665
0.0569165
0.0737995
-0.0198055
0.0570807
0.0689598
-0.0148977
0.0511774
0.0619118
-0.00678188
0.0413689
0.0528569
-0.0010841
0.0262026
0.0414982
0.00724766
0.00764983
0.0264344
0.0143062
-0.0128859
0.00885333
0.0219111
-0.0113054
-0.0137365
-0.00488651
0.0123066
-0.00644046
-0.0025808
-0.0057576
-0.000489737
-0.0058025
-0.00158958
0.00132825
-0.00253713
0.000133041
-0.0035135
0.000363305
-0.000691129
0.000794507
-0.00234322
0.00102447
-0.00339843
0.00627619
0.000737967
-0.00370266
0.00638753
2.538e-05
-0.0031284
0.00585225
-0.000439796
-0.00137928
0.00864412
0.00361348
0.00795547
0.0459959
-0.0156912
-0.00260651
0.00161711
0.0121557
0.00272153
0.00288263
0.0041792
0.000355525
0.0025835
0.00565251
0.000955547
0.00561466
0.00156545
-0.00455837
-0.00628866
-0.00455032
0.0130373
-0.00752478
0.018385
-0.00670443
-0.00734337
0.0319163
0.000857448
-0.00897176
0.0470825
-0.00062158
-0.0501837
-0.00615218
0.0559901
-0.00978915
-0.0386158
-0.0118402
-0.00481682
-0.0117284
-0.00651124
-0.000358122
-0.0225216
0.0083191
-0.000103897
-0.0110677
-0.00384522
0.014254
-0.00158432
-0.00486802
0.00874915
-0.0023349
-0.00414145
0.00938635
-0.00175542
-0.00380386
-0.00598958
0.000752288
0.0258344
-0.0113149
-0.00688673
-0.000932112
2.18476e-05
-0.00663348
-0.00195621
-0.000713366
-0.00471624
-0.00177581
-0.00181804
-0.00254464
-0.000702052
-0.00167306
-0.00181158
0.000426429
-0.000266799
-0.000958914
-0.00508677
-0.000628326
1.0299e-05
0.00098921
-0.000299395
0.000716961
-0.0004513
0.00108223
0.00115475
-0.000941292
0.00217816
0.000984858
-0.000774615
0.00191603
0.000557643
0.00142847
0.000112224
0.000656227
0.00187632
-0.000666156
0.000627808
0.00247511
-0.000606347
0.000837179
0.00267261
-0.000784787
0.00229093
-0.000711687
-0.00161331
0.00590237
-0.00281053
-0.0015018
0.00591957
-0.00347002
-0.00118549
0.00546355
-0.00341011
0.00474917
-0.00320749
0.00115577
0.00620198
-0.00216142
0.00162861
0.00730178
-0.00240962
0.00185212
0.00816032
-0.00257065
0.00809406
-0.00222189
-0.00193029
0.00890855
-0.000940603
-0.001919
0.00936822
-0.00132516
-0.00251125
0.00929881
-0.00150906
0.00555577
-0.0012635
0.00543578
1.23089e-05
0.00259602
-0.000570464
0.00111797
0.0116801
-0.00101631
0.00111692
0.00932724
-4.79547e-05
0.00871171
0.00030306
-0.000621868
0.0229337
-0.0129798
0.000243293
0.0224996
-0.0141819
0.0215406
-0.0141253
0.000873002
0.0595115
-0.0255055
0.0623427
-0.0199594
0.0010746
0.0637836
-0.000222941
-0.00333719
-0.000362883
0.0552334
0.00107986
-0.00524223
0.0405757
0.0102717
0.0181568
0.0163262
0.0229691
-0.0011919
0.021795
0.0142385
0.0284656
0.0197593
0.0078579
0.051649
0.0088837
0.00303312
0.00367733
0.0639124
-0.0649065
-0.0018892
0.0676051
-0.00809839
-0.00148128
-0.0147694
-0.0684343
0.00380621
0.0717185
-0.0613738
-0.0173866
0.0679897
-0.0216775
-0.0273299
-0.0242604
-0.00706759
0.00366607
-0.00494591
-0.00992061
-0.0106309
-0.00563108
-0.00304962
-0.00604586
-0.00145518
-0.00668981
-0.000386818
0.000954411
-0.00683864
-0.00222487
0.00118348
-0.00592954
-0.00388244
0.00113204
-0.0043836
-0.00619697
0.00155448
-0.00504384
0.000571664
-0.00639795
0.00775388
-0.00722585
0.000729953
-0.00506563
0.000631547
-0.00972287
0.0072366
0.000518745
-0.011584
0.00668108
-0.000583067
-0.0129448
0.00647513
-0.000527585
0.0110924
-0.0185121
0.00851499
0.0187605
0.0133487
0.0153746
-0.0365297
0.0138476
0.0103741
0.0119512
-0.0175456
0.02216
0.00978464
0.0123877
-0.0306219
0.0146619
0.00714514
-0.0103632
0.0105868
0.0242681
-0.0225201
0.00446256
0.00834999
0.0105078
0.0318063
-0.00691731
-0.0112304
0.0108962
0.0215056
-0.0123831
-0.0096393
-0.00974249
-0.0117736
0.00339653
-0.0100965
0.00230968
-0.00543463
-0.00919732
0.00220485
-0.00860102
-0.00471927
0.00180074
-0.00788529
-0.0062211
0.0015245
-0.00814495
0.00170971
-0.0092249
-0.00953394
0.00924278
0.00125441
-0.0100173
0.0006848
-0.0125275
0.00925701
-0.000178625
0.00878098
-0.00157551
0.0107863
0.00960463
-0.00132363
0.0103974
2.67143e-06
0.00841367
0.0110138
-0.00971636
0.000580719
0.00996644
0.00136174
-0.00689382
0.00194411
-0.00793401
0.00130212
0.0106554
-0.0103064
-8.51707e-05
0.00952598
-0.000719127
-0.00348451
-0.0110757
0.0161781
0.00992974
-0.00250999
-0.0114512
-0.0135617
-0.0202865
-0.0192392
0.00464004
-0.0631273
0.0787029
0.00330866
-0.000771295
0.0103302
0.00679941
0.0138349
0.00818955
-0.0142087
0.0111299
-0.0060517
0.0124647
-0.0069438
-0.00308494
0.00163722
-0.000523319
-0.00409534
0.00314654
-0.00264992
-0.00172099
-0.00187843
-0.00173107
-0.00279213
0.00929405
-0.000577735
-0.00221194
-0.00111476
-0.00225914
0.0116939
-0.0133959
-0.00496704
0.00993753
0.00469658
-0.00559568
0.0109277
0.00750295
-0.00753344
0.0124135
0.00766608
-0.00925949
0.0145866
0.00807634
0.0188073
0.0103505
0.00412111
0.00763796
0.0095975
0.00292098
0.00770385
0.00790148
0.0013947
0.00648368
0.00728355
0.000200233
0.00615575
0.00581102
0.00583182
0.00379131
0.0012818
0.00166636
0.00132289
0.00241547
0.000933175
0.0030684
0.000202801
0.0037855
0.0047817
0.00149559
0.00188876
0.000795558
0.00059187
0.000374832
0.000932909
0.00018537
0.00133051
-0.00121587
0.000257211
-0.000639836
0.00104389
0.000922992
-0.000478992
0.000769249
-0.00054581
0.0012257
-0.000738547
0.00075116
-0.00056155
0.00032322
-0.000268689
0.00134085
-0.000719863
-0.000301087
0.00280007
-0.000712493
-0.00236625
0.00742197
-0.00372166
0.000132114
-0.0105931
0.00364683
0.0125503
-0.000128123
-0.0113274
0.0148265
0.00450293
-0.000653478
0.00405187
-0.0105663
0.0141645
-0.00191126
0.0036671
0.0126854
-0.00943112
-0.00891638
0.00799697
0.00320462
0.00713966
-0.00276256
0.0111161
-0.00285618
0.0110271
0.00636412
0.00200735
0.0112946
0.00395951
0.00222299
-0.000532759
0.00069889
-0.00158439
0.000340086
-0.00131193
0.00650205
0.000758205
-0.00130885
0.00117702
0.00022487
-0.000371023
0.000902519
-0.000295076
0.000858336
-0.000146161
-0.00075122
0.00060103
-0.00110663
0.00058797
-0.00012069
-0.00017032
-0.00081711
-0.000359622
-0.00107191
9.79907e-05
-0.00099236
0.000641701
-0.000715431
0.000256632
9.59262e-05
-0.00106925
8.47241e-05
-0.00064662
-0.000470147
-0.000518979
-0.00136844
0.000525249
0.000969516
0.000331531
0.000480821
-0.000404303
0.000284875
-0.00100374
-0.000300788
0.000250028
0.00033412
3.86053e-05
0.000237406
-0.000578151
0.000625529
0.000380858
0.000354545
-0.000397348
-0.000948343
0.00169684
-0.000461835
0.000395956
4.23253e-05
-0.000269163
-0.000528113
0.00226187
0.00108238
-0.00021735
-0.00142652
0.00660938
-0.00123955
-0.000632236
-0.0010442
0.000245839
-0.000502685
0.000279258
-0.000411745
0.000192185
0.000207736
-0.000904979
0.000227238
0.00112832
-0.000204182
-0.00070023
-0.000682533
0.00205236
-0.000542886
0.00013647
-0.000541877
0.000981492
0.00122085
0.000313913
0.000225864
0.000591911
0.000161138
0.00121238
-0.00116398
0.000174095
-0.000728556
0.00162922
0.000307339
-0.000395165
0.000255338
0.00146888
-0.00248855
0.00762235
-0.00202219
-0.0110446
0.00209631
0.00438394
0.0140663
-0.00996735
0.0119115
0.00370358
-0.0110943
0.014208
0.00142695
-0.0112326
-0.00082595
-0.0135092
-0.0141029
-0.00198929
-0.0136829
-0.00281297
0.0122316
-0.00465785
0.0125092
0.0215803
0.0255403
-0.0151994
-0.0706486
0.06159
-0.0735002
0.0555824
-0.0853118
0.0652939
-0.0131635
-0.0908035
0.0699583
-0.0217859
-0.0914471
0.07344
-0.0279723
-0.0873978
0.0757291
-0.0327996
-0.0798063
0.07542
-0.0365144
-0.0669225
0.0709712
-0.0395249
-0.0528454
0.0688312
-0.0404118
-0.046442
0.0529115
-0.0343615
-0.00774652
-0.0290376
-0.00710683
0.0459873
-0.0472992
9.50544e-05
0.0400251
-0.0478994
-0.0131804
0.0434016
-0.0305406
-0.0398401
0.0262178
-0.0577515
-0.0106901
0.0281327
-0.0646039
-0.0257109
0.0320593
-0.0643108
-0.0348185
0.0339982
-0.0541886
-0.0450827
0.0344335
-0.0433777
-0.0437163
0.0324019
-0.0247108
-0.0425461
0.0234116
0.0139392
-0.0390891
0.0317558
0.040511
-0.0589648
0.0551218
0.0530282
-0.0771603
0.0763416
0.0504017
-0.0724409
0.0911631
0.0475904
-0.0632358
0.0983343
0.0425529
-0.0505802
0.0978374
0.0354157
-0.0357405
0.0907135
0.0295643
-0.0232503
0.0756631
0.0266297
-0.0122987
0.0398902
0.0327454
0.00245472
0.0185315
0.0190883
0.00207428
0.0153726
0.00335451
-0.000300261
0.0136911
0.000704108
0.000874617
0.010785
0.000478278
0.00231748
0.00615253
0.000237395
0.00429572
0.0060162
4.81442e-05
0.00442919
0.00233708
-0.000821157
0.00276547
0.00255621
-0.00093983
0.00296501
0.000907952
-0.00117041
0.00404253
0.000638978
-0.00179534
0.0043197
0.00116786
-0.00152279
0.00386592
0.00131594
-0.000931677
0.00326512
0.00128258
-0.000736342
0.00490052
0.000332748
-0.00204508
0.0107285
-0.00194763
-0.00409861
0.00103872
0.0135941
-0.00452164
-0.0230221
0.0107652
0.0125372
-0.0415017
-0.00659098
0.0242376
-0.0567778
-0.0212404
0.0356444
-0.0692077
-0.0328716
0.044398
-0.0782967
-0.043909
0.0520768
-0.0814389
-0.0555441
0.0577502
-0.0790163
-0.0666642
0.0632975
-0.0678439
-0.0786012
0.0664777
-0.0484888
-0.0893544
0.0690431
-0.0194134
-0.0973573
0.0673197
0.0186746
-0.0990477
0.06
0.0395962
-0.0758913
0.0540094
0.0443603
-0.0623636
0.0566782
0.0415081
-0.0532281
0.055178
0.0308353
-0.0431852
0.0530319
0.0138197
-0.0359886
0.0522035
-0.0416085
0.0546802
-0.0642276
-0.0297388
0.0515615
-0.0737957
-0.0435999
0.0523589
-0.0740447
-0.0563556
0.0557317
-0.0636913
-0.0697078
0.0584812
-0.0371389
-0.0875243
0.0600753
0.000894103
-0.0975968
0.0586898
0.0187864
-0.0665538
0.0477959
0.00913981
-0.0382623
0.0470978
-0.0117959
-0.0304344
0.0505836
-0.00324886
-0.0596552
0.0503682
-0.0555808
0.0484884
-0.0131974
-0.0769606
0.00807219
0.00913923
-0.0799756
-0.00290298
0.0164095
-0.0561131
0.017532
0.0230852
-0.0701766
0.0243426
0.0236556
-0.105647
0.0375983
0.0436346
-0.144979
0.0264664
0.0647723
-0.129642
0.0200369
0.0734515
-0.102665
0.0233491
0.0714613
-0.0824905
0.0272213
0.0602881
-0.0652299
0.0319447
-0.045787
0.0395264
-0.0524514
-0.0699355
0.0325449
-0.050828
-0.0819209
0.0261413
-0.0400212
-0.0925313
0.0183916
-0.0089884
-0.111234
0.00331347
0.0314979
-0.144217
0.00367811
0.057391
-0.142123
0.0178678
0.0734955
-0.131346
0.0248872
0.081049
-0.114454
0.027304
0.0796236
-0.0962161
0.0299885
0.0726195
-0.0791786
0.0296573
0.0587638
-0.0615508
0.0305267
0.0406544
-0.0441424
0.0284231
0.0160275
-0.024864
0.02731
-0.0106238
0.000703208
0.0184317
-0.0272581
0.0238404
0.00264385
-0.0142813
-0.0123725
0.0229635
-0.0109587
0.00336258
-0.00602437
-0.0042665
-0.00750683
0.00547967
-0.00616413
-0.00846193
0.00321981
-0.0059737
0.0161892
-0.00808388
-0.000425437
-0.00383071
0.0137355
-0.00636086
-0.00334883
0.0120725
-0.00384288
-0.00540687
-0.0032078
-0.00434762
0.000326249
-0.00317778
-0.00651188
0.000432978
-0.00284007
-0.00711663
0.000532429
-0.00256565
-0.00698298
0.00060278
0.00324209
-0.00450218
-7.72021e-05
0.00449964
-0.000948067
-0.00176668
-0.000202899
-0.000697198
-0.000870509