/*--------------------------------*- C++ -*----------------------------------*\
| =========                 |                                                 |
| \\      /  F ield         | OpenFOAM: The Open Source CFD Toolbox           |
|  \\    /   O peration     | Version:  v2012                                 |
|   \\  /    A nd           | Website:  www.openfoam.com                      |
|    \\/     M anipulation  |                                                 |
\*---------------------------------------------------------------------------*/
FoamFile
{
    version     2.0;
    format      ascii;
    class       volScalarField;
    location    "485";
    object      epsilon;
}
// * * * * * * * * * * * * * * * * * * * * * * * * * * * * * * * * * * * * * //

dimensions      [0 2 -3 0 0 0 0];


internalField   nonuniform List<scalar> 
18258
(
0.0240266
0.0122522
0.00912759
0.00718012
0.0126521
0.0125322
0.0129909
0.0173241
0.0241299
0.0369592
0.0535231
0.0481232
0.0435138
0.0452677
0.0474476
0.0450322
0.0351035
0.0303676
0.0400777
0.0667153
0.0607141
0.0496531
0.0606541
0.0514152
0.0659449
0.0834661
0.0640532
0.057487
0.0515559
0.0485145
0.0420694
0.0244245
0.034205
0.0526447
0.0721847
0.0790335
0.0848177
0.0896851
0.0947908
0.0969211
0.0971861
0.0919831
0.0828028
0.0675801
0.0494807
0.0377571
0.0287539
0.0323693
0.0453046
0.0455337
0.0560719
0.0859471
0.108245
0.0811034
0.0518882
0.082689
0.11269
0.144468
0.170992
0.19344
0.20114
0.197692
0.186135
0.169379
0.147908
0.1229
0.101894
0.0849633
0.0671678
0.0573692
0.0464173
0.0385042
0.0329369
0.0292765
0.0270753
0.0253474
0.0241811
0.0251122
0.0249982
0.0178276
0.0140241
0.0131748
0.00942578
0.00783463
0.00815258
0.00775643
0.00805763
0.00711428
0.00609182
0.00528673
0.00448032
0.00651994
0.00701251
0.00725303
0.00727175
0.0077959
0.00805498
0.00779116
0.00788698
0.00721915
0.00740662
0.0118945
0.0136761
0.0173539
0.0154933
0.010722
0.00909097
0.0101328
0.0107555
0.0133635
0.012569
0.0133516
0.0118429
0.0108122
0.00913202
0.00887034
0.00910738
0.00968081
0.0100865
0.0116927
0.011522
0.0106848
0.0118196
0.0130421
0.0127693
0.012222
0.0116374
0.0142816
0.0114825
0.0121676
0.013667
0.0220207
0.0215468
0.0260352
0.0255571
0.0260019
0.0261864
0.0315776
0.0316989
0.0320722
0.0323917
0.0341037
0.057147
0.0509238
0.0498178
0.0496242
0.0429404
0.0424717
0.0417764
0.0425913
0.0361151
0.0347656
0.0315238
0.0311606
0.0347689
0.0439151
0.061416
0.0886973
0.122674
0.159048
0.189349
0.210362
0.232133
0.237537
0.251441
0.256177
0.257126
0.251499
0.243103
0.233665
0.220838
0.202281
0.189354
0.148811
0.105328
0.0592668
0.0786489
0.0907314
0.100498
0.102398
0.103551
0.0994468
0.0931432
0.0819061
0.0662433
0.0429569
0.049139
0.0664205
0.0686114
0.0692711
0.0549085
0.0527839
0.0489395
0.0488594
0.0640802
0.0736998
0.0620208
0.0858974
0.100849
0.088125
0.0638203
0.0977997
0.144127
0.0811265
0.0691057
0.0536761
0.0527119
0.0445968
0.0373794
0.0628202
0.0939885
0.129464
0.150759
0.17254
0.190144
0.203408
0.21748
0.189106
0.171808
0.115677
0.202737
0.154321
0.0783321
0.0582338
0.0572935
0.0428925
0.0494933
0.0550815
0.0511394
0.0391059
0.0273797
0.025272
0.0465566
0.0648818
0.0784572
0.0624842
0.079508
0.0896316
0.0968986
0.102267
0.129557
0.0953394
0.106692
0.0767435
0.10403
0.074012
0.0478099
0.0530096
0.101292
0.161355
0.221077
0.258075
0.147308
0.0749319
0.0558625
0.0562892
0.0539514
0.0486236
0.060274
0.106868
0.072162
0.0469272
0.0407996
0.0482633
0.0408224
0.0304239
0.0318218
0.0395665
0.0552528
0.0701182
0.082893
0.1262
0.122043
0.147243
0.154882
0.130429
0.125948
0.0814124
0.0837198
0.123489
0.0920209
0.0744135
0.104369
0.147544
0.201965
0.248468
0.288987
0.314816
0.304076
0.275001
0.173937
0.0761575
0.0229208
0.0178069
0.0168469
0.0173213
0.0105257
0.00630379
0.00585828
0.00667654
0.00702134
0.00591517
0.0054434
0.00543385
0.00578328
0.0101823
0.00874995
0.0108278
0.0131199
0.0156697
0.0187158
0.0194451
0.0129027
0.008734
0.00819678
0.00813294
0.00806447
0.00803544
0.00804739
0.00808799
0.008104
0.00807165
0.00799284
0.00785554
0.00771977
0.00766224
0.00829864
0.0111903
0.0153547
0.0148462
0.0135559
0.0121997
0.0110376
0.00870742
0.0151516
0.0128458
0.0109375
0.0133979
0.0165051
0.0208601
0.024511
0.0176808
0.0141553
0.0128114
0.0126861
0.0125726
0.0126192
0.0124982
0.0125654
0.0123698
0.0129721
0.0135803
0.0169749
0.0189988
0.0211738
0.0226687
0.0232472
0.0239628
0.0211331
0.0229545
0.0227233
0.0235039
0.0233185
0.0226312
0.0207165
0.0189294
0.0177107
0.0191269
0.023695
0.0323512
0.026744
0.0207558
0.0167942
0.0137355
0.0150032
0.0166794
0.0168547
0.0158673
0.0156368
0.0154286
0.0139086
0.0131234
0.0111133
0.010502
0.0100366
0.0101851
0.0143631
0.0135153
0.0137214
0.0144562
0.0155551
0.0147125
0.0151456
0.0142975
0.0145448
0.0149657
0.0170294
0.0185894
0.0178302
0.0165112
0.0160137
0.013744
0.0158519
0.0157131
0.0170338
0.0186196
0.0191113
0.0190461
0.0184084
0.0168113
0.0187043
0.022075
0.025729
0.0247279
0.0244051
0.0204592
0.0192571
0.0202278
0.0214981
0.0224033
0.0224766
0.0223097
0.0224011
0.0264207
0.0260799
0.0248713
0.0227925
0.0203357
0.0176893
0.0152236
0.0166984
0.0181804
0.0195718
0.0208405
0.0205987
0.0190737
0.0177153
0.0164839
0.0149899
0.0146988
0.016153
0.0173752
0.0188053
0.020516
0.0205891
0.0188796
0.0173862
0.0161042
0.0146298
0.0145793
0.0160801
0.0173778
0.0187934
0.0202744
0.0196424
0.01849
0.0172406
0.0159986
0.0145459
0.0146121
0.015934
0.0170023
0.0180849
0.0190335
0.0198879
0.0179267
0.0170169
0.0171103
0.0161228
0.0193081
0.0185503
0.0194928
0.0180396
0.016814
0.0178196
0.0210124
0.024048
0.0245995
0.0243195
0.0201838
0.0206398
0.0206171
0.0191981
0.0159719
0.0153747
0.0181497
0.0208917
0.0213548
0.0200435
0.0169359
0.0132942
0.0143166
0.0174828
0.0197977
0.0185383
0.018377
0.0169611
0.0158817
0.0161811
0.0139006
0.0166388
0.0267225
0.0241851
0.0221673
0.0196973
0.0156855
0.0106176
0.0115177
0.0126771
0.0130937
0.0105828
0.00792332
0.00711463
0.00692132
0.00676338
0.00654522
0.00617742
0.00562044
0.00538006
0.0105928
0.0256817
0.0364173
0.0357965
0.0240979
0.0207407
0.0200452
0.0186036
0.00901238
0.00817751
0.00839861
0.0103768
0.0081937
0.00838847
0.0145471
0.0100488
0.0137934
0.0107199
0.0146371
0.0229395
0.0217033
0.0143689
0.00801477
0.00689852
0.00738882
0.00767252
0.00787616
0.00807274
0.00830639
0.00869302
0.0100165
0.0157496
0.0203302
0.0177854
0.0167951
0.0153196
0.0188646
0.0213476
0.0232852
0.0260472
0.0161021
0.0117924
0.0166422
0.0272769
0.0247644
0.0233083
0.0171685
0.0177089
0.0171359
0.0110186
0.0106734
0.0105925
0.0114037
0.0127911
0.0147152
0.0158742
0.016624
0.0169556
0.017869
0.0231385
0.0216509
0.0211358
0.0173516
0.0134228
0.0154131
0.0516371
0.0195805
0.0206943
0.0189105
0.0191782
0.0204629
0.0151573
0.0135109
0.0129395
0.0146418
0.0215312
0.0215411
0.0214034
0.0182645
0.0174799
0.0209133
0.0220044
0.0224042
0.021784
0.021342
0.0194764
0.0166924
0.0181237
0.0196418
0.0208384
0.0228479
0.0231894
0.0179703
0.017246
0.0158497
0.0105548
0.0112981
0.00973483
0.0097032
0.00966723
0.00939235
0.00894295
0.00923267
0.00935187
0.00935111
0.0090049
0.00930165
0.00834882
0.00868486
0.00977604
0.0152231
0.014789
0.0175868
0.0194979
0.0167424
0.0155828
0.0142198
0.0131963
0.0154501
0.0142873
0.0168644
0.0212179
0.0265106
0.0191385
0.0181422
0.0179187
0.0175132
0.0173557
0.0174085
0.016714
0.0157105
0.0151422
0.0235973
0.0212955
0.0181706
0.0172207
0.0157869
0.0180402
0.0174826
0.0213828
0.026869
0.0270737
0.0215505
0.0216285
0.0189707
0.0200769
0.0222678
0.0271107
0.027034
0.0144455
0.00960343
0.0154475
0.0157877
0.0183979
0.0170133
0.0185418
0.0197223
0.0204506
0.0203094
0.0177074
0.0188845
0.0196734
0.0206604
0.0186049
0.0165986
0.0173889
0.0161657
0.015265
0.0147636
0.012688
0.0129352
0.0139081
0.0153604
0.0163023
0.017798
0.0194557
0.0194844
0.0201542
0.0197487
0.0191486
0.0252536
0.0240099
0.0255515
0.0282684
0.0224678
0.0178274
0.0147003
0.0150141
0.0147802
0.0146883
0.0154289
0.0167888
0.0151657
0.0145467
0.0170637
0.0194285
0.0247035
0.0330867
0.0288223
0.0262404
0.033249
0.0314056
0.0382719
0.028698
0.0281664
0.0208739
0.0263094
0.0305251
0.0392419
0.0255389
0.0209764
0.0224317
0.0255513
0.0348062
0.0328218
0.0331955
0.0412308
0.0399963
0.0362235
0.0311961
0.0353956
0.0212714
0.0302181
0.0322508
0.026833
0.0257304
0.0307775
0.0311043
0.0330403
0.0283893
0.0267955
0.0179328
0.027479
0.0314219
0.0331202
0.0278532
0.0205415
0.0280443
0.0205717
0.0192075
0.0203199
0.0137886
0.0127343
0.0148095
0.0138796
0.0112044
0.0121547
0.0111745
0.0111623
0.0112448
0.0113616
0.0114963
0.0117556
0.0117261
0.012757
0.0133522
0.0126459
0.0115702
0.0122184
0.0125633
0.0160795
0.0181675
0.0204329
0.0220255
0.022871
0.0240261
0.0227609
0.0248363
0.0237211
0.0252385
0.0249544
0.0238799
0.0213381
0.0186813
0.0162614
0.0167126
0.0203342
0.0266944
0.0218672
0.0169384
0.0137035
0.0113598
0.0126519
0.0158243
0.00857578
0.00779929
0.0074798
0.00727244
0.00706781
0.00617023
0.00561138
0.0090657
0.0132675
0.0165124
0.0205392
0.0261664
0.0321823
0.0373956
0.0413678
0.0442539
0.0460875
0.0465938
0.0438255
0.0337583
0.0290795
0.0250185
0.0207202
0.0168637
0.0169335
0.024657
0.0322666
0.0397275
0.0462739
0.0511449
0.049222
0.032991
0.030176
0.0467724
0.0784877
0.0744933
0.0976386
0.111216
0.0631277
0.0465604
0.0453308
0.0619981
0.0646058
0.0566766
0.0468054
0.0366434
0.0265101
0.0310194
0.0354332
0.0396259
0.0440578
0.057432
0.0603115
0.0590381
0.0563356
0.0528648
0.048206
0.0413736
0.0330276
0.0251292
0.0192282
0.0146482
0.00979688
0.00697748
0.0083137
0.00764659
0.0112725
0.00970217
0.00842854
0.00773632
0.00796103
0.00780848
0.00798328
0.00703188
0.00635188
0.010303
0.00943899
0.00935715
0.00992928
0.0132612
0.0102047
0.00756494
0.00713484
0.00704923
0.00731343
0.0171223
0.0252745
0.0304951
0.0350437
0.0381525
0.036775
0.0334816
0.0279954
0.0223902
0.0201926
0.0172179
0.0146335
0.0133731
0.0146224
0.0120945
0.00614903
0.00517566
0.0056867
0.00558196
0.00511578
0.00614181
0.00682574
0.00743166
0.00784694
0.0081504
0.0082046
0.00813823
0.00804465
0.00799813
0.00797657
0.00794747
0.00788274
0.007788
0.00764708
0.00751212
0.00744959
0.00804223
0.0106504
0.0145639
0.0143348
0.0132252
0.0121197
0.0112621
0.00954517
0.0153675
0.0130482
0.0109389
0.0101163
0.00997173
0.0102684
0.0112324
0.0128731
0.0137954
0.0157989
0.0158445
0.0157446
0.0160297
0.0158126
0.0131374
0.0148896
0.0176644
0.0184979
0.019115
0.0188853
0.0173499
0.0193696
0.0205037
0.0199417
0.0193221
0.0163931
0.0190685
0.0231379
0.0235924
0.023887
0.021242
0.0184151
0.0215735
0.0227203
0.0222874
0.0231435
0.021234
0.0219491
0.0278431
0.0141001
0.0126211
0.00758332
0.00863454
0.00876992
0.00836415
0.00805741
0.00837184
0.00861069
0.00845025
0.00913482
0.00945816
0.0088278
0.0113753
0.0104189
0.00995478
0.00932075
0.00996506
0.0107368
0.0111057
0.0121433
0.0194851
0.0199068
0.0181629
0.0205508
0.0211588
0.0179701
0.0203663
0.021239
0.0214545
0.0217887
0.0233559
0.0220286
0.0243726
0.0235251
0.0222585
0.021485
0.038141
0.0251875
0.016585
0.0152488
0.0148616
0.0149169
0.0167945
0.0126528
0.014168
0.00999278
0.00865277
0.00827763
0.00796735
0.00826083
0.0112021
0.0180158
0.0253531
0.0278443
0.0266965
0.0235133
0.018235
0.0138972
0.0134813
0.0121699
0.0112977
0.0111213
0.00752782
0.00517703
0.00643237
0.00658344
0.00715853
0.00756128
0.00788646
0.00812913
0.00825886
0.00832102
0.00839267
0.00850472
0.00862872
0.00873651
0.0088216
0.00888334
0.00894873
0.0090713
0.00937924
0.0105798
0.0152248
0.019615
0.0185151
0.0170579
0.0157543
0.0165146
0.017268
0.0180015
0.0221744
0.0190635
0.0219531
0.0206163
0.0196289
0.0182228
0.0189522
0.0207328
0.0165177
0.0164497
0.0112198
0.00978837
0.00940787
0.00918971
0.00901885
0.00885063
0.00868943
0.00854616
0.00841269
0.00829908
0.00821315
0.00814292
0.008006
0.00775856
0.00736206
0.0069186
0.00618326
0.00685992
0.00731071
0.00829505
0.00957665
0.0102388
0.00963259
0.00876207
0.00833348
0.00842398
0.00860416
0.00880736
0.00903862
0.00935514
0.0098291
0.0108058
0.0114854
0.016128
0.0168607
0.0201264
0.0199348
0.0178516
0.0172075
0.0188162
0.0173533
0.0126392
0.0173337
0.0168486
0.0210817
0.0156447
0.0147475
0.0151439
0.0156165
0.0182734
0.0171834
0.0157144
0.0156825
0.0126096
0.0141798
0.0161761
0.0176619
0.0278729
0.027312
0.0343774
0.0343076
0.0592353
0.0563514
0.0496677
0.0537467
0.0237015
0.0463389
0.054201
0.0493964
0.042858
0.0272869
0.0436358
0.0664651
0.0962267
0.0693515
0.0566969
0.105412
0.0765706
0.0373023
0.0265344
0.0149817
0.0150708
0.0250101
0.0290465
0.0240675
0.0232162
0.033374
0.0347377
0.0279678
0.028645
0.0310205
0.0299563
0.0324085
0.0280422
0.0273541
0.0154967
0.0127177
0.0137474
0.0154787
0.0164934
0.0159923
0.0168262
0.0174898
0.0160489
0.0150224
0.0144648
0.0124057
0.0131472
0.0161208
0.0203239
0.0238222
0.017205
0.0138264
0.0125347
0.0123432
0.0121185
0.0119998
0.0116789
0.0114913
0.0110213
0.0112265
0.00976726
0.00977935
0.0103171
0.0104828
0.0106889
0.0108484
0.0109728
0.0110851
0.0119446
0.0186898
0.0258554
0.0206884
0.0163962
0.013925
0.0151095
0.0170251
0.0209123
0.026314
0.0177718
0.0175898
0.0114685
0.0106949
0.0104852
0.0103113
0.0101582
0.0100589
0.0101188
0.0101238
0.0118627
0.0115624
0.0135851
0.0146565
0.0121069
0.0116742
0.0112008
0.0109126
0.0107534
0.0106674
0.0107555
0.0116159
0.0114506
0.0105224
0.0104298
0.0105518
0.0107675
0.0110931
0.0115433
0.0120508
0.012971
0.0127482
0.0112002
0.0111731
0.0105126
0.0102042
0.00997326
0.00995281
0.0100037
0.0101457
0.0103696
0.0112736
0.0170475
0.0172327
0.0265229
0.0265071
0.0210725
0.0176123
0.0154663
0.0142188
0.0134914
0.0350215
0.0307578
0.0486791
0.0388504
0.0311106
0.0504781
0.0717899
0.0557698
0.0908001
0.0981144
0.072326
0.0654926
0.0208388
0.0158787
0.0153805
0.0168633
0.0185485
0.0211734
0.0217601
0.0265544
0.0286437
0.0171023
0.0164256
0.0155054
0.0247718
0.022955
0.0195948
0.0177189
0.0163395
0.0188748
0.02066
0.0149025
0.0149489
0.00962703
0.0106243
0.0103735
0.0100328
0.00991253
0.00983659
0.00987129
0.00996624
0.0102498
0.0107455
0.0111315
0.0112976
0.0116323
0.0114183
0.0111474
0.0108271
0.010637
0.010446
0.0102892
0.0101676
0.0101997
0.0105149
0.0106596
0.00935457
0.00970112
0.00981112
0.00982431
0.00985736
0.00982303
0.00968625
0.00947937
0.00927918
0.00906927
0.00910682
0.00988547
0.0100244
0.0100786
0.00992232
0.00980413
0.00979624
0.00973329
0.00972109
0.00971628
0.00959736
0.00928504
0.00856541
0.00841447
0.0090134
0.00935563
0.00953094
0.00960948
0.00959215
0.00953627
0.00930476
0.00913286
0.00892685
0.00859015
0.00814033
0.00676191
0.00704427
0.0074029
0.00790351
0.00841953
0.00887167
0.00917515
0.00933421
0.009424
0.00934052
0.00904785
0.00851922
0.00846556
0.00885739
0.00903795
0.00899696
0.00873371
0.00832129
0.00775557
0.00705304
0.00637378
0.00585959
0.00562687
0.00523977
0.00652742
0.00711411
0.00765662
0.00815845
0.00863734
0.00915599
0.00935639
0.00941311
0.00939509
0.0092417
0.00891415
0.00839148
0.0083942
0.00886546
0.00917322
0.00929815
0.00927995
0.00910099
0.00870065
0.00779043
0.00698694
0.00634058
0.00576077
0.0051776
0.00514374
0.0054002
0.00515062
0.00533777
0.00590935
0.00670879
0.00748709
0.00809766
0.00852657
0.00871136
0.00866078
0.00840871
0.00831057
0.00843373
0.00837577
0.00806952
0.00750101
0.00675555
0.00595861
0.00533605
0.00516987
0.00550825
0.00584325
0.00552932
0.00435839
0.00489913
0.00545103
0.00603418
0.00694523
0.00812782
0.00870954
0.00902022
0.00917461
0.00910674
0.00881923
0.00838402
0.00836237
0.00878197
0.00906349
0.00911649
0.00898528
0.00871452
0.00823708
0.00680129
0.0053347
0.00471463
0.00436886
0.00393427
0.00560523
0.00597417
0.00554808
0.00527201
0.00570797
0.00624446
0.00686561
0.00737699
0.00780326
0.00810872
0.00821236
0.0081817
0.00804884
0.00805148
0.00799586
0.00779209
0.00754928
0.00734382
0.00691208
0.00646297
0.00592783
0.00648329
0.00678234
0.00634948
0.00464002
0.00492526
0.00536786
0.00563687
0.00710177
0.00854133
0.00892966
0.00905386
0.00917882
0.00909968
0.00877926
0.0083398
0.00832364
0.00884481
0.00924937
0.00939881
0.00951599
0.00964223
0.00975062
0.00858667
0.00667759
0.00623968
0.00524474
0.00479583
0.00666967
0.00710053
0.00688563
0.00661777
0.00756666
0.00796141
0.00810413
0.00811563
0.0081238
0.00809293
0.00800104
0.00793224
0.0078174
0.00825791
0.00889649
0.00880383
0.00871116
0.00855473
0.00819409
0.00774033
0.00722098
0.00790622
0.00848886
0.00820004
0.00593625
0.00630881
0.00721064
0.00736997
0.00890687
0.0100914
0.0104177
0.0103924
0.01026
0.0102205
0.00921061
0.00828893
0.00814269
0.00948967
0.0154032
0.0152439
0.0152684
0.0151977
0.0146417
0.0144827
0.0139314
0.0136895
0.0130103
0.0125844
0.0119149
0.0139467
0.0176546
0.0197215
0.0221017
0.0245983
0.0233682
0.0189102
0.0167021
0.010263
0.00808644
0.00696475
0.00601765
0.00530804
0.00509941
0.00752059
0.00935547
0.0114981
0.0134461
0.0137579
0.0161758
0.0201088
0.0306239
0.0486996
0.0411505
0.0388805
0.0396876
0.099694
2.55418
2.77509
2.51173
2.91343
3.33558
0.39975
0.153891
0.284511
0.300763
0.333854
0.311753
0.283135
0.25813
0.267235
0.256247
0.267913
0.249493
0.26034
0.22741
0.232688
0.229974
0.618812
0.99672
1.21237
1.70009
1.71628
1.93679
1.89766
1.92154
1.77872
1.89582
1.64827
1.36698
1.29027
1.21698
1.30592
1.4184
1.23172
1.1165
1.00337
0.913047
0.780729
0.990479
0.751693
0.710294
0.70862
0.739896
0.984893
0.895374
1.03182
0.956193
1.01055
0.60763
0.681081
0.499229
0.416233
0.34626
0.416741
0.557173
0.734349
0.907437
0.697618
0.952932
0.884487
0.878849
0.838364
0.765666
0.727542
0.715921
0.737225
0.749906
0.765107
0.792358
0.813125
0.830936
0.980931
1.04377
1.03279
0.846478
0.758524
0.525224
0.562468
0.597261
0.601414
0.561601
0.542198
0.488445
0.475755
0.429734
0.411612
0.372559
0.354283
0.322262
0.446597
0.765918
0.795905
0.864776
0.919223
0.967953
0.990246
1.00558
0.98826
0.954504
0.887438
0.859631
0.798355
0.903574
1.08657
1.08759
1.00111
0.849683
0.805301
3.72837
4.53118
3.00393
6.45902
9.77448
16.3634
7.54815
2.06957
3.44979
2.37021
2.10447
2.05097
2.16359
3.40662
2.49176
3.268
2.68671
2.84737
2.16722
2.46936
2.34324
1.80218
1.51875
1.2866
1.17225
0.939979
0.926944
0.751017
0.702537
0.653309
0.5473
0.674898
0.663938
1.54628
2.22096
2.78061
4.37516
4.81303
5.26458
8.3343
6.78536
8.5328
5.09312
5.13343
3.79708
3.57288
3.61072
4.9631
7.06287
4.87244
8.48641
4.74044
15.4421
34.4919
9.19933
18.9565
10.9411
9.89974
9.54551
9.83695
13.9689
9.51487
15.4972
12.9361
17.1789
16.5136
17.7126
13.7702
10.1742
11.1773
11.996
15.4008
10.9634
12.6904
9.59173
9.37676
8.77436
7.27007
6.5616
5.02498
5.85524
6.90655
7.83962
12.364
15.5739
17.9424
21.6397
16.0364
18.3191
11.0417
12.0876
9.34763
8.76561
8.8908
11.6941
20.7824
14.7376
26.8372
0.49535
0.22561
0.542718
0.229052
0.486733
0.390055
0.402616
0.403563
0.399106
0.460391
0.219687
0.184813
0.177129
0.175
0.176512
0.100104
0.124268
0.0803341
0.126822
0.228824
0.501947
0.36457
0.140336
0.0825502
0.0545518
0.0429073
0.0633914
0.0611837
0.0978384
0.0991827
0.105456
0.131839
0.227161
0.431363
31.5735
7.07459
1.11299
0.520173
0.280528
0.171563
0.145256
0.163921
0.176
0.178292
0.166928
0.141205
0.1008
0.0664008
0.044266
0.0370426
0.0270738
0.0292836
0.0400865
0.0536087
0.0495642
0.0651724
0.0835446
0.106334
0.130655
0.150071
0.164678
0.168573
0.156494
0.122466
0.0805829
0.0443969
0.0265226
0.0228659
0.0209327
0.0194365
0.0167876
0.0145692
0.0131479
0.0112383
0.00990886
0.00894249
0.00863414
0.0087592
0.00956328
0.0120981
0.0145613
0.018856
0.0179784
0.0134619
0.0126194
0.0078187
0.00723023
0.00737991
0.00763303
0.00845826
0.0132347
0.0135455
0.0134246
0.0134586
0.0132775
0.0132683
0.0130995
0.0129363
0.012717
0.0122979
0.0120065
0.0114838
0.0112
0.0105322
0.0105597
0.0109457
0.0112527
0.0101859
0.0100828
0.0093726
0.0205283
0.0489475
0.0701887
0.0786298
0.0884254
0.0811373
0.0419611
0.0230521
0.00793179
0.00775079
0.00824253
0.00891049
0.00845493
0.0061477
0.00668529
0.00793043
0.0110846
0.0109808
0.0110105
0.0128465
0.0133778
0.0147299
0.0152701
0.0156473
0.0158728
0.015797
0.0159245
0.0156365
0.0157285
0.0155248
0.0156124
0.0152169
0.0270276
0.0254494
0.0261633
0.0262057
0.027406
0.0269231
0.0264632
0.0254952
0.0247831
0.0232759
0.0216999
0.0201377
0.018022
0.0187722
0.0181622
0.0113339
0.0107669
0.00778075
0.00769885
0.00739945
0.010351
0.00940566
0.00790805
0.00931695
0.006767
0.00693898
0.00733084
0.0104522
0.0109794
0.0174926
0.0174185
0.0154309
0.0163689
0.0174261
0.0187465
0.019891
0.0212927
0.0223043
0.0233785
0.0251956
0.0255678
0.0238119
0.0234629
0.022377
0.0243003
0.0232899
0.0215544
0.0230835
0.0247291
0.0272669
0.0269934
0.0249096
0.0236097
0.0221963
0.019903
0.017286
0.0159349
0.0149463
0.0149947
0.0139917
0.0163817
0.0148644
0.0102493
0.0104791
0.00783266
0.00628462
0.00606968
0.00928577
0.0131984
0.0281689
0.0175632
0.00934155
0.0099589
0.0159715
0.0328185
0.0189696
0.0305501
0.0141397
0.0139253
0.0127686
0.0126562
0.0139534
0.0162451
0.0172731
0.020909
0.0235684
0.0255485
0.0264459
0.0277756
0.0281582
0.0295574
0.0299926
0.0326075
0.0328455
0.0328417
0.0323704
0.0299678
0.02694
0.0247531
0.0306294
0.0355071
0.0388169
0.0412352
0.0437278
0.0424986
0.0389108
0.0380558
0.0361582
0.0350584
0.0336557
0.0305744
0.0267563
0.0219581
0.0214089
0.0274221
0.0331557
0.0495308
0.0533364
0.0530689
0.0553865
0.0558703
0.0576023
0.0580242
0.0606484
0.0612054
0.0623434
0.0626701
0.067745
0.068603
0.0695372
0.0698533
0.0695659
0.0704926
0.0704765
0.0478794
0.0428922
0.0388059
0.0321893
0.0269392
0.0341757
0.0426249
0.0479156
0.073198
0.073671
0.0773291
0.0799341
0.0847684
0.0884056
0.0931655
0.0975822
0.101874
0.105236
0.107232
0.107572
0.108027
0.107151
0.105885
0.114684
0.148976
0.165436
0.195824
0.210815
0.22357
0.227885
0.219094
0.222733
0.214529
0.217014
0.210547
0.208428
0.202945
0.196455
0.192729
0.186238
0.18208
0.209977
0.158011
0.12095
0.0804991
0.0646932
0.056809
0.0520952
0.0560692
0.043038
0.0363882
0.0556397
0.0506945
0.0399931
0.0262383
0.0189036
0.0324073
0.0478713
0.0646486
0.0818487
0.0975653
0.107859
0.110458
0.109387
0.104621
0.0967801
0.0816111
0.0614559
0.0422075
0.0347621
0.0320557
0.028097
0.022161
0.0178136
0.0157
0.014117
0.0123546
0.0111093
0.0105574
0.0107203
0.0110319
0.013231
0.0173162
0.0173073
0.0116042
0.0111491
0.0076717
0.00776101
0.00802049
0.0133355
0.0134846
0.0209088
0.0233628
0.0220061
0.0227025
0.0224401
0.0227415
0.022394
0.021208
0.0203762
0.0194091
0.0185685
0.0178237
0.016998
0.0161889
0.0175172
0.0164683
0.0138706
0.0139886
0.0146032
0.015251
0.0161357
0.0173981
0.0184711
0.0211649
0.0213237
0.0208197
0.02091
0.0194324
0.0187114
0.0199619
0.0194814
0.0132744
0.0130941
0.0191141
0.0187636
0.0186589
0.0224841
0.0209106
0.0214312
0.0225667
0.0224752
0.01954
0.0181837
0.0166275
0.015448
0.0140694
0.012556
0.0121805
0.0149434
0.0131573
0.0107972
0.0119913
0.0144008
0.0170141
0.0184772
0.0204647
0.0231822
0.0241513
0.0263995
0.027824
0.0299206
0.0307561
0.0355642
0.0362109
0.0340368
0.0321915
0.0311942
0.0274163
0.0234995
0.0259157
0.0267899
0.0271674
0.0272988
0.0271816
0.0236041
0.0231735
0.0216581
0.02114
0.0195613
0.0190023
0.0178402
0.0170788
0.016056
0.0142262
0.0134977
0.0126824
0.0123257
0.0173817
0.0108754
0.0106228
0.0160374
0.00988579
0.011635
0.0113725
0.0118912
0.0125507
0.0103851
0.0151817
0.0103727
0.0112598
0.0114798
0.0143912
0.00997504
0.0206448
0.0640474
0.0929872
0.111894
0.203148
0.243285
0.263527
0.284196
0.298367
0.314342
0.331872
0.349517
0.362511
0.363906
0.338165
0.319607
0.254612
0.227936
0.251657
0.281733
0.194192
0.166597
0.168838
0.169627
0.172157
0.173361
0.176934
0.17487
0.179849
0.1755
0.182678
0.176657
0.183011
0.175719
0.160508
0.143986
0.11169
0.101039
0.0651796
0.0504919
0.0395031
0.0286997
0.0209278
0.0187877
0.0177854
0.0164409
0.0165241
0.0126605
0.0131015
0.00839711
0.00617475
0.00986135
0.00969499
0.00722689
0.00982445
0.0112224
0.0117329
0.012268
0.0125615
0.0192072
0.0192375
0.0246301
0.0245535
0.0291299
0.0347475
0.0359937
0.0396388
0.0570355
0.0575654
0.0573084
0.0571523
0.0567362
0.0495082
0.0492269
0.0481235
0.0475399
0.0445929
0.0440386
0.0419519
0.0408118
0.0378534
0.0370284
0.0358996
0.0363536
0.0406342
0.0558639
0.0989089
0.0295175
0.0281196
0.0206565
0.0145636
0.0214085
0.0159453
0.0154727
0.0136435
0.0187425
0.0134841
0.0137357
0.0165558
0.0170762
0.0164665
0.0214586
0.0267641
0.0234979
0.0259726
0.116846
0.0749723
0.0243546
0.0482164
0.071979
0.158066
0.204021
0.139767
0.159594
0.183687
0.166782
0.140059
0.10943
0.0815762
0.0578362
0.0445358
0.0114057
0.0134014
0.0185615
0.0408271
0.0606554
0.101476
0.083373
0.108961
0.148854
0.173306
0.209293
0.200795
0.172715
0.148663
0.14545
0.16071
0.162789
0.105348
0.102365
0.0778612
0.174174
0.219296
0.184559
0.231597
0.244241
0.143788
0.0319323
0.0184267
0.015161
0.0139554
0.0124718
0.019405
0.0114976
0.0116785
0.0123967
0.0133067
0.0169976
0.0293583
0.0134873
0.0149553
0.0183652
0.0159004
0.0148992
0.0146622
0.0145637
0.0151743
0.0165261
0.0215673
0.0216819
0.0213601
0.016022
0.0173199
0.015734
0.0200577
0.0212671
0.0333782
0.0152976
0.0162437
0.0215605
0.479844
0.0247036
0.0178637
0.0232734
0.0219428
0.0302034
0.0437623
0.458792
0.0442568
0.0351657
0.0586534
0.060921
0.0656039
0.0692838
0.0728172
0.0753339
0.0793001
0.0819332
0.0831855
0.084457
0.100098
0.100028
0.0989492
0.103547
0.0976287
0.0576771
0.0578771
0.0974002
0.10511
0.0594209
0.0410146
0.0384991
0.031186
0.0323017
0.0418428
0.0439278
0.0616442
0.0614653
0.102481
0.0934641
0.094855
0.0966308
0.0916571
0.0921519
0.0941921
0.0942828
0.0755395
0.0731881
0.0714119
0.0683809
0.0648257
0.0619211
0.0589989
0.0559222
0.0533252
0.0534828
0.0583525
0.0584536
0.0662709
0.0735358
0.223497
0.151782
0.108279
0.0801843
0.0651795
0.0589841
0.0585461
0.0617331
0.0649813
0.066618
0.0674279
0.0708345
0.0925811
0.0948264
0.0976726
0.0951416
0.0989325
0.0969567
0.0945049
0.104398
0.112206
0.0656045
0.0676824
0.0477466
0.0445187
0.0324761
0.0330254
0.0235791
0.0195616
0.0195537
0.0195334
0.0197532
0.0226242
0.0315967
0.0317056
0.0463028
0.0462301
0.0516857
0.0752996
0.0723675
0.129013
0.118262
0.108586
0.101293
0.101654
0.103802
0.106403
0.101409
0.0979002
0.0923735
0.0725634
0.0685165
0.0663821
0.0651427
0.0638495
0.0673309
0.0908359
0.147361
0.22582
0.331857
0.432823
0.44305
0.400966
0.251042
0.290631
0.144769
0.165054
0.187119
0.163222
0.171856
0.32011
0.266096
0.376882
0.481896
0.535718
0.602103
0.639257
0.628148
0.499264
0.32453
0.331751
0.441795
0.769073
0.862598
0.74354
0.761173
0.657905
0.539992
0.521542
0.496848
0.560529
0.611209
0.576826
0.593495
0.537772
0.513696
0.443856
0.495139
0.361721
0.325803
0.306257
0.297429
0.356382
0.288416
0.32489
0.267105
0.273424
0.222251
0.227753
0.190142
0.145583
0.138042
0.12799
0.143323
0.162537
0.148945
0.153564
0.134113
0.114736
0.0913411
0.0985394
0.0736272
0.0696366
0.0706911
0.080537
0.126334
0.370539
0.173758
0.163875
0.168017
0.178047
0.319932
0.283061
0.722797
0.506595
0.707663
0.473475
0.56168
0.469928
0.362565
0.378155
0.417903
0.598087
0.820976
6.64939
0.284622
4.2612
3.16368
3.32272
3.46875
4.44581
7.80298
7.10953
9.38335
6.80377
9.07986
4.97799
4.97587
4.32609
4.47154
4.43923
4.26234
5.20107
6.64295
0.238743
0.0909905
0.0854262
0.0856098
0.0873872
0.197787
0.0525664
0.201957
0.0539495
0.213368
0.0494999
0.246522
0.196804
0.0382308
0.0192578
0.0200899
0.0168072
0.0203756
0.0169231
0.0250485
0.0235428
0.0237001
0.0265901
0.0763031
0.2922
13.8192
1.66368
0.693786
0.794239
1.18969
0.808838
1.20923
1.67944
1.12961
0.563717
0.369543
0.436119
0.527534
0.503498
0.642093
0.924185
0.904025
0.710569
0.714532
0.630343
0.889429
0.898048
1.06437
1.24299
1.13728
0.891336
0.702242
0.594546
1.02388
1.0287
0.961639
0.407959
0.11517
0.0470491
0.0493224
0.0358852
0.0377966
0.0348887
0.0552889
0.161479
0.22246
0.133832
0.431335
0.415813
0.565285
0.403398
0.413303
0.326283
0.350326
0.534268
0.583503
0.642932
0.674205
0.724971
0.66979
1.2874
2.20632
2.49505
12.8536
17.4196
3.20117
3.09584
13.9449
0.314941
0.0838979
0.0233186
0.0174316
0.0162172
0.0161301
0.0150008
0.0155383
0.0159994
0.0169633
0.0188277
0.023193
0.0458226
0.201392
0.203353
0.0643213
0.0324203
0.0229673
0.019615
0.0170459
0.0163866
0.0155314
0.0154591
0.0150081
0.0156578
0.0174644
0.0237806
0.0774188
0.270948
11.3226
2.4343
2.25353
8.37931
5.79217
0.206688
0.0437852
0.0200931
0.0169264
0.0158836
0.0167535
0.0162654
0.0182106
0.0184016
0.0230148
0.025019
0.0317586
0.0570536
0.110137
0.315312
9.57193
8.64361
8.36483
7.80481
0.309946
0.115139
0.0543756
0.0382251
0.0346207
0.0338159
0.0226481
0.0236724
0.0189816
0.0216394
0.0182945
0.0226807
0.0482996
0.211848
5.34987
1.56932
1.70017
1.20872
0.61224
0.654881
0.668772
0.688474
1.77578
4.06398
4.99536
3.43036
3.3625
4.71111
3.17229
2.48303
1.8304
1.74796
2.54631
1.96325
1.82525
1.35652
1.46643
1.06748
1.46672
0.810932
0.97649
1.07234
1.53072
1.39708
1.40992
0.908059
1.04985
1.47465
1.72394
1.64839
0.843555
1.22639
1.01328
0.654522
0.60656
0.633059
0.60315
0.578092
0.574937
0.579066
0.558011
0.57511
0.555342
0.587223
0.54682
0.532159
0.506717
0.526395
0.54408
0.576642
0.359779
0.422319
0.426549
0.440957
0.453653
0.374597
0.450654
0.441586
0.658688
0.994557
0.83512
1.15451
0.679842
1.00343
2.0077
5.20748
2.35037
0.820733
1.34742
1.58222
1.13862
0.627857
2.55205
3.55803
1.22973
1.78328
10.3767
8.4268
16.5109
10.9691
18.6342
6.03603
4.634
17.8124
6.67645
6.91154
4.51513
4.5213
2.95937
1.58536
1.62909
1.74231
1.22698
1.30025
1.21042
1.13359
1.47479
1.44016
1.88691
2.03582
2.57854
1.81202
1.77673
2.60055
1.06326
1.40083
1.83817
1.83043
1.36063
2.34346
3.15867
2.97257
2.14256
2.33734
3.50528
4.81988
4.58212
3.17266
3.9727
10.1347
13.5272
13.6946
4.22486
19.3161
18.3012
2.08148
0.5685
0.325238
0.0898191
0.0446435
0.0367348
0.0387981
0.144179
0.0458789
0.0571616
0.0456624
0.0733076
0.0700084
0.0874783
0.218765
0.126886
0.216728
0.155883
0.190461
0.121576
0.194498
0.228037
0.23802
0.189355
0.116284
0.214179
0.308455
0.106537
0.356305
0.391906
0.26137
0.334076
0.398242
0.197313
0.997553
0.186106
0.127864
0.147633
0.395469
1.26346
0.219766
0.46322
4.48147
14.7139
3.68447
0.940405
0.683142
0.0557456
0.0302592
0.0319561
0.0280129
0.019484
0.0843972
0.0992862
0.406561
0.209162
0.278097
0.661714
2.92788