/*--------------------------------*- C++ -*----------------------------------*\
| =========                 |                                                 |
| \\      /  F ield         | OpenFOAM: The Open Source CFD Toolbox           |
|  \\    /   O peration     | Version:  v2012                                 |
|   \\  /    A nd           | Website:  www.openfoam.com                      |
|    \\/     M anipulation  |                                                 |
\*---------------------------------------------------------------------------*/
FoamFile
{
    version     2.0;
    format      ascii;
    class       surfaceScalarField;
    location    "485";
    object      phi;
}
// * * * * * * * * * * * * * * * * * * * * * * * * * * * * * * * * * * * * * //

dimensions      [1 0 -1 0 0 0 0];
oriented        oriented;


internalField   nonuniform List<scalar> 
50655
(
0.00257008
-0.00359642
-0.00141308
-0.00511764
0.00138763
0.00357983
-0.00338998
0.00392345
0.00444308
-0.00249292
-0.00283392
0.00305261
-0.0036875
-0.00378735
0.00265459
-0.00176396
-0.00484999
0.000799696
0.000215846
-0.00471715
0.00157944
-0.00178285
-0.00717018
0.00236549
-0.0104493
0.00280228
0.00037813
-0.0112723
-0.00343376
0.0041467
-0.0120294
-0.00482442
0.00547915
-0.0128923
-0.00562205
0.00638081
-0.0261577
-0.00930078
0.0223722
-0.0486783
-0.0282232
0.0501836
-0.0482914
-0.0526798
0.0515956
-0.0311241
-0.0711012
0.0531561
-0.00461732
-0.0780627
0.0507729
0.00777451
-0.0548082
0.0416051
-0.00188019
-0.0314164
0.0402982
-0.0213747
-0.0216505
0.0403783
-0.0174603
-0.0512901
0.0466534
-0.00749688
-0.055653
0.0451319
-0.0392328
0.0314069
-0.0420727
0.0187774
-0.0162388
-0.0167212
-0.0757207
0.0498745
0.0198027
-0.0798271
0.0428068
0.0305197
-0.029573
0.018549
0.0342809
-0.00409851
0.0367461
0.0176959
-0.0204836
0.0257062
-0.0179904
0.0287545
0.0168197
-0.00949411
0.0182114
0.00402318
-0.00143069
0.0141003
-0.00622017
0.0069988
0.00314927
-0.00536217
0.00047368
-0.00137239
-0.00535064
-0.00108577
0.00105585
-0.00627542
0.000110427
0.000797059
-0.00753423
9.96122e-05
0.0011426
-0.00864168
-1.24527e-05
0.00110277
-0.00902414
-0.000341388
0.000707486
-0.0092813
-0.000763034
0.0010036
-0.00884964
-0.00119288
0.000744934
-0.0082205
-0.00167046
0.00102465
-0.00699891
-0.00212505
0.000887035
-0.00556394
-0.00259602
0.00114419
-0.00370378
-0.00289157
0.00101523
-0.00189667
-0.00307375
0.00124968
0.00111901
-0.00303328
0.000856143
-0.0023139
0.00255112
-0.00607385
0.00488418
0.00200404
-0.0116898
0.00459771
0.000961719
-0.0135708
0.00503413
-0.0032201
-0.0132629
0.00530282
-0.00567765
-0.0055824
0.00461059
-0.0123476
0.000463694
0.00557983
-0.0116677
0.000591189
0.00356552
-0.00371866
-0.00151011
0.00208371
-0.00296489
0.00214017
-0.000702526
-0.00452879
0.0021879
-0.000640148
-0.00584306
0.00234709
-0.0010492
-0.00710963
0.00230444
-0.00105282
-0.00861137
0.00249711
-0.00100939
-0.0101778
0.00258338
-0.00103038
-0.0114732
0.00237533
-0.00109305
-0.0123753
0.00201323
-0.00112414
-0.0128419
0.00159935
-0.00114575
-0.0131589
0.00143321
-0.00112946
-0.0137617
0.0015603
-0.00097171
-0.0139681
0.00111646
-0.000925223
-0.0136727
0.000890922
-0.00120173
-0.0136621
0.00077708
-0.000803307
-0.013387
0.000821724
-0.0011129
-0.0131391
0.000896642
-0.00116048
-0.012994
0.000839908
-0.00100077
-0.0127178
0.000570089
-0.00086193
-0.0121781
0.000121087
-0.000676229
-0.0112761
-0.00045517
-0.00046209
-0.0101543
-0.000915532
-0.000221594
-0.00883586
-0.00101142
-0.000321758
-0.00738679
-0.000761806
-0.000701117
-0.00758343
-0.000693586
0.000878221
-0.0163887
0.000817739
0.00796097
-0.0211631
0.00038372
0.00433007
-0.0226114
0.00113465
0.000248491
-0.0426104
0.0163314
0.00355011
-0.0546036
0.00552936
0.00616553
-0.0294755
-0.0163954
-0.00904026
-0.0131222
-0.014993
-0.00149245
-0.0112679
-0.00400872
0.00207639
-0.0100184
-0.00310434
0.00176485
-0.00810142
-0.00345639
0.00143786
-0.0047321
-0.00331603
-0.000148571
-0.0031964
-0.001621
-0.00447008
0.00460725
-0.00342846
-0.00269892
0.00673862
-0.0086234
0.000880966
0.00621805
-0.00993013
0.00616979
0.0059088
-0.0113424
0.0149255
0.00881673
-0.0177535
0.0284937
0.0138068
-0.0276576
0.0249377
0.0196813
-0.0164068
0.0166184
0.00641062
0.00172399
0.00802925
6.09357e-05
0.00838091
-0.000944931
-0.0038768
0.0127161
-0.00440064
-0.00674285
0.0100822
-0.00755755
0.00542496
0.00433994
0.00100268
-0.0101954
0.00199131
-0.00814357
0.00363568
-0.0052165
-0.0041895
0.00739471
-0.0125625
0.00199361
0.00528053
-0.01437
0.00570845
0.00237272
-0.0384467
0.0270484
0.0232971
-0.00716881
-0.0132855
0.0371812
-0.00970968
-0.0394034
-0.00478516
0.00930538
-0.00912354
-0.00052318
0.0089778
-0.00746104
0.0026864
0.00960062
-0.00671456
0.00460141
0.00961961
-0.00490594
0.00714247
-0.00134365
0.0112886
-0.00501151
-0.00270816
0.0124668
-0.00194007
-0.00244489
0.00881955
-0.000392145
-0.00420124
-0.00202262
-0.0211013
-0.00218718
0.0295719
-0.0106591
-0.0143413
-0.00172984
-0.00711604
-0.00255249
-0.00732729
0.0158958
0.00125644
-0.0102681
0.0219486
0.00106412
-0.00900299
0.0325216
0.000266552
-0.0132035
0.0832752
-0.002262
-0.0359908
0.0468341
-0.00192842
0.045539
-0.00230943
0.0074997
-0.00316666
0.0384646
0.00386623
0.0218163
0.00196807
0.0232379
-0.000314038
0.0113237
0.0139375
0.00624687
-0.00798527
9.52653e-05
0.0068124
0.00521872
-0.00149717
0.00732286
0.00818985
-0.00153766
0.00712406
-0.0150837
0.00798203
-0.00211726
0.0073713
-0.0153179
0.00850637
-0.00127806
0.00743741
-0.0167144
0.00841731
-0.00132062
0.00742099
-0.0160158
0.00861653
-0.00064109
0.007286
-0.0165971
0.00861098
-0.000268669
0.00703479
-0.0159918
0.00856454
0.000701145
0.0062375
-0.0154578
0.00823186
0.00576206
0.00442236
-0.0169507
0.00745287
0.00149427
-0.00416229
0.00568076
0.00273499
0.000810205
0.00538201
-0.000282557
0.000632715
0.00714135
-0.000737118
0.000787771
0.00801889
-0.00115145
0.000944497
0.00832136
-0.00120507
0.00128155
0.00838804
-0.00131736
0.0015053
0.00856269
-0.00136231
0.00150678
0.00870907
-0.00135222
0.0012689
0.00872059
-0.00137096
0.000939666
0.00883625
-0.00119604
0.00731104
-0.000262953
0.00935947
-0.00200772
-0.000816508
0.0110384
-0.00185317
-0.00085256
0.012323
-0.00155006
-0.000665927
0.0131091
-0.000313546
-0.000943445
0.01354
0.000851249
-0.00117676
0.0137177
0.0017086
-0.00133213
0.0137168
0.00223692
-0.00141236
0.0137765
0.00224904
-0.00142862
0.0137324
0.00182423
-0.000974871
0.0137403
0.00134629
-0.000593162
0.0139234
0.00122557
-0.000533428
0.013312
0.00114281
0.000569856
0.012461
0.00243482
0.000229547
-0.000267263
0.0127032
-0.000412384
0.00244017
-0.000850048
0.012366
-0.000237227
0.00280339
-0.000642869
0.0114929
-7.40288e-05
0.00311674
-0.000169463
0.0102299
4.89205e-05
0.000294813
0.00328128
0.00863028
0.000720702
0.00331919
0.000129607
0.00688364
0.00103946
0.00305279
0.000137675
0.00587881
0.000962231
0.00224336
8.87139e-05
0.0044348
0.00462445
-0.000849748
0.00287818
0.00427936
-0.000551053
0.00142663
-0.000499575
0.00407488
0.00389472
-0.000401301
0.00560463
-0.000508403
-0.00121766
0.00682934
-0.000404123
-0.000837431
0.00779947
-0.000600927
-0.000385693
0.008162
-0.000467798
8.85566e-05
0.00821384
-0.000599473
0.000531172
0.0075194
-0.00025253
0.000930382
0.00653317
-0.000283986
0.00125365
0.00469793
0.000311799
0.00150636
0.00195578
0.0011976
0.00152743
-0.00183442
0.00206972
0.00170252
-0.00455019
0.000499099
0.00219869
-0.00606639
-0.000908249
0.00240518
-0.00735049
0.000609455
0.000652703
-0.0138513
0.000483516
0.00597242
-0.0250178
-0.00658232
0.017633
-0.0311729
-0.0162407
0.0222306
-0.0392069
-0.0263095
0.0340771
-0.0319091
0.0237986
0.0162173
-0.0386288
0.00904393
0.0260464
-0.0166872
0.00678958
-0.00458417
0.00426703
-0.0323451
0.0263058
0.00140634
-0.0147898
-0.0232302
0.00563967
-0.0374273
0.00590396
0.0412564
-0.0574988
-0.000630271
0.0291192
-0.0501287
0.0152255
0.012616
-0.00990279
0.0169631
-0.0102074
0.0109872
-0.00257503
0.0190901
0.00782305
0.011479
-0.0125558
0.0134688
0.00542712
-0.00626675
0.00139521
0.0112821
0.00499391
0.0010312
0.00277557
0.00129988
-0.000983004
0.00146213
0.00277397
-0.00485163
0.00387347
0.00204335
-0.00541935
-0.000405037
0.0021494
-0.00955884
0.00201813
0.00241268
-0.00821529
-0.00366692
0.00201929
-0.0118675
0.00196442
0.00141544
-0.00891198
-0.00416455
0.000589705
-0.0112485
0.00216399
-0.000315053
-0.00732792
-0.00318654
-0.0013546
-0.0081629
0.00230401
-0.00189331
-0.00440954
-0.00169594
-0.00258506
0.00131152
-0.0025759
0.00407259
0.0117412
-0.0106778
0.0116573
0.00647306
-0.00949964
0.0132939
0.00876707
-0.0051706
0.0104815
0.0103534
-0.00257661
0.00438844
0.00936068
0.00127755
0.0125187
-0.00169934
-0.00225135
0.000645222
0.0146837
-0.00616752
0.00536683
-0.00336244
0.00192283
0.0145723
-0.00766788
-0.00316187
0.00305569
0.00781208
0.00998654
-0.00796046
-0.00275998
0.0031196
0.0121125
0.0016975
-0.00674026
-0.00206072
0.000959964
0.016045
-0.000538375
-0.00468476
0.00743328
-0.000150892
-0.00527231
0.011436
0.000188584
-0.0103885
0.0125757
-0.00900162
-0.0142427
-0.014171
0.00842099
0.00571968
-0.0241325
0.00412156
-0.0185732
0.00624774
-0.0165878
-0.0113493
0.00929483
0.00789304
0.00964006
-0.0341675
-0.0238466
0.00757194
0.0111645
0.00744533
-0.0100823
-0.0324627
-0.00921614
0.00782857
-0.00167653
-4.94129e-05
0.00786617
-0.00663731
-0.0104588
0.0116009
-0.00768329
-0.0142377
0.0104478
0.010642
-0.000694571
-0.00887978
0.0103889
-0.00157897
0.00803402
-0.00762386
0.00364062
0.00104329
0.0048669
-0.0034934
0.00554586
-0.00630189
0.0139894
-0.0121319
-0.00344886
0.0108145
-0.0170315
-0.00260676
0.0057304
-0.0169743
-0.000951053
-0.00118015
0.00210076
-0.00829174
0.00855192
0.00957825
-0.0096252
0.0110929
0.0111566
-0.00501064
0.0118538
0.011749
-0.00223673
0.0105181
0.00446001
-0.0111601
0.0108485
0.00309134
-0.00929643
0.0119783
-0.0021765
-0.00505185
0.0115991
-0.00477074
0.00964493
-0.00614039
0.00227078
0.00354561
0.00114909
0.00812434
0.00713793
-0.00147964
0.011123
0.00845328
0.000439366
0.00726133
0.00667813
-0.00914848
0.0101631
-0.000565024
-0.00694917
0.00401744
0.0021481
0.000241763
0.00176777
-0.00191025
0.00513043
-0.00629483
-0.00141295
-0.00226912
0.0187539
-0.00381244
-0.0191744
0.0170228
-0.00144366
-0.00171057
-0.0160839
-0.0118481
-0.000964203
0.00342501
-0.00856941
-0.0106958
-0.0132779
0.00670486
-0.0059734
-0.00494782
0.000932031
0.00140639
0.000391339
-0.00208946
-0.00427773
-0.000991354
0.00399556
-0.00261445
-0.00042504
0.00182533
-0.00239303
0.00131546
-0.00383214
0.00681995
0.000714966
-0.0111793
0.00064319
-0.00348945
0.0105837
-0.00346534
-0.00442315
-0.0190743
0.014114
-0.0118992
-0.0194981
-0.0117949
0.00783812
0.00428847
-0.0266583
-0.0153995
0.00258108
0.00933703
0.0105305
-0.0356269
-0.01648
0.0130768
0.00183858
0.0104309
-0.0423286
-0.0146389
0.00984213
8.93029e-05
0.0113057
-0.043693
-0.0107981
0.00324539
-0.00152642
0.0103391
-0.0431856
-0.00617962
-0.00148906
-0.00183762
0.00888906
-0.0394997
-0.00335329
-0.00450047
0.00407373
-0.0347485
-0.0011877
-0.00711199
0.00648885
-0.00304839
-0.0321841
0.00134247
-0.00611474
0.00561234
-0.00350636
-0.0291364
0.00266003
0.00448308
-0.00399182
-0.00630184
-0.0289383
0.00206497
0.00396999
-0.00356341
-0.00278172
-0.0298443
0.000201658
0.00182188
-0.0012246
-0.0277877
-0.00159775
0.00137181
-0.00194432
-0.0229906
-0.00263551
0.00154234
-0.00380021
-0.0301795
0.00170328
0.0226462
-0.0172362
-0.0593183
0.0293308
-0.0129142
0.0123492
0.00604178
-0.0199215
-0.0013255
-0.013201
-0.0252031
-0.00921438
-0.0122577
-0.000475795
-0.00876246
-0.0111615
0.000626638
0.00028448
-0.00943385
-0.000573103
0.000513755
-0.00580814
-0.00375508
0.00145695
-0.00310731
-0.00399302
0.00104522
-0.00453606
-0.000261923
-0.00445746
0.000804931
-0.000930773
-0.00684335
0.00205035
0.00027234
-0.0107848
0.00220766
0.00165413
-0.0130976
0.000817493
0.00141673
-0.0133658
-0.000352594
0.00055107
-0.0130761
-0.00174923
0.00140554
-0.0236489
0.00142355
0.00907446
-0.0568531
0.0175092
0.0154883
-0.101297
0.00884613
0.0350249
-0.117957
-0.00588576
0.0218516
-0.127312
-0.011607
0.020188
-0.133743
-0.0165058
0.0221014
-0.1374
-0.0221995
0.0249718
-0.138729
-0.0272736
0.0276923
-0.138652
-0.0307643
0.0297633
-0.13784
-0.0329217
0.0311846
-0.136384
-0.0341697
0.0317971
-0.134241
-0.0348127
0.0317683
-0.130407
-0.0353156
0.03061
-0.122443
0.0278236
-0.0366213
-0.103301
0.0207898
-0.0406914
-0.0534741
0.00329983
-0.0537451
-0.0226212
-0.00123648
-0.0298353
-0.0123851
-0.00428828
-0.0060251
-0.0121072
0.00198906
-0.00232207
-0.0112073
0.00432767
-0.00529829
-0.0087711
0.00384181
-0.00635848
-0.00425556
0.00400789
-0.00860779
-0.00479043
0.00347373
-0.00301008
-0.00805851
-6.38992e-05
0.00328115
-0.00782061
0.00235552
-0.00266459
-0.00893148
0.00102306
-0.0138027
0.00698425
-0.0022116
-0.016638
0.00715092
-0.00442558
-0.0189163
0.00764703
-0.0054713
-0.0237751
0.00700557
-0.00225156
-0.0533282
0.0187395
0.0106172
-0.0979652
-0.00807236
0.0521357
-0.11097
-0.0316677
0.043952
-0.112435
-0.0418213
0.0424752
-0.107733
-0.0476653
0.0421406
-0.0989292
-0.0521342
0.042474
-0.0862045
-0.0543508
0.0408015
-0.0691853
-0.0558487
0.0380097
-0.0493834
-0.0568186
0.0362507
-0.0236698
-0.0481319
0.0217816
-0.0376904
0.0135819
-0.0535246
0.0231046
-0.00773744
-0.0592868
0.0252772
-0.0200178
-0.0593213
0.0265968
-0.0270884
-0.0502774
0.0263795
-0.0359497
-0.040186
0.0243181
-0.0349123
-0.0230189
0.0165326
-0.0341668
0.00943925
-0.0328968
0.0272838
0.0380484
-0.0565296
0.0510568
0.0494374
-0.0739764
0.0749423
0.049539
-0.0742443
0.0951258
0.0497698
-0.0707777
0.11087
0.0469837
-0.0635841
0.119083
0.0396785
-0.0487141
0.117039
0.0329223
-0.0316884
0.101326
0.0300575
-0.0150646
0.0545363
0.0398634
0.00635231
0.0254873
0.0250555
0.00379717
0.0213754
0.0041794
-0.000172119
0.0194615
0.000589159
0.00122208
0.0158818
0.000297842
0.00317206
0.00913975
-0.000249643
0.00689309
-0.000925085
0.00997706
-0.000969534
-0.00971714
0.00966584
0.00072064
-0.0131108
0.0113116
0.00256551
-0.0142416
0.0122736
0.0040731
-0.0135744
0.0119313
0.00432312
-0.0191733
0.0187454
0.00785113
-0.0286511
0.024838
0.00383357
0.0236384
-0.0199045
-0.000186225
0.0169131
-0.0130725
-0.000383335
0.00844411
-0.00838265
-0.000542728
0.00775183
-0.00771564
-0.00108628
0.00737814
-0.00694357
0.00631972
-0.00647872
0.00343193
0.00546167
-0.000280898
0.00320634
0.0061986
0.00133307
0.00330082
0.00592295
0.00165667
0.00396715
0.00478996
0.0029096
0.0103263
0.0116185
-0.00117017
0.0194232
-0.00902146
-0.000120906
0.00909392
-0.00421495
0.0145035
-0.0230768
-0.0114297
0.0435306
-0.015544
-0.00576197
-0.00184939
-0.000983638
0.00358602
0.00487209
-0.00945747
0.00605793
-0.00260357
0.00361518
-0.00178713
-0.00827359
0.000430488
-0.00918806
-0.0102633
-0.0126566
0.0184522
-0.00484603
-0.0307628
0.00323469
0.00366844
0.00405875
-0.0175811
-0.0497157
0.00588143
0.0101539
0.000838535
-0.0582035
-0.015685
0.0262246
-0.00423172
-0.0204145
0.00617394
-0.0032531
-0.0202993
0.00561378
-0.00227148
-0.0206575
0.00530973
-0.000898586
-0.0190369
0.00444066
-0.0149957
0.00403359
-0.0211379
0.00226624
0.00404899
-0.0219549
-0.00134781
0.00263978
-0.0179001
8.67383e-05
0.00543544
0.00165502
-0.0466189
0.0354689
0.00830526
0.00806405
-0.115147
0.0350618
0.0515111
0.0209276
-0.125254
0.0473037
-0.00799434
-0.126111
0.054765
-0.0218525
-0.118294
0.0645089
-0.0335236
-0.103365
0.0731485
-0.0419761
-0.0842477
0.07687
-0.0470849
-0.0616112
0.0746403
-0.048577
-0.0366835
0.0742867
-0.0505908
0.0503786
-0.0330486
0.0588314
0.0457931
-0.0305353
0.0684263
0.0516809
-0.0355212
0.0687296
0.0528331
-0.0271646
0.0633336
0.050565
-0.0204993
0.0438799
-0.00614112
-0.0881841
0.0718607
0.0025707
-0.0979751
0.0754936
-0.0160463
-0.0994853
0.0799528
-0.0265519
-0.0881592
0.0791919
-0.0397793
0.0719235
-0.0409116
0.0879863
0.0945521
-0.0368655
0.0976178
0.101728
-0.0330965
0.0944819
0.10113
-0.0189707
0.0819148
0.0960619
-0.00889224
0.0903441
0.00674336
-0.0812589
0.103455
0.0129296
-0.0944645
0.11056
-0.00221362
-0.0983522
0.11606
-0.0120029
-0.0904483
0.116969
-0.0241065
0.111535
-0.0314829
0.0869836
0.124384
-0.0276198
0.0946549
0.128401
-0.02008
0.091244
0.126522
-0.00802864
0.0783264
0.120405
0.00213585
0.112142
0.0166229
-0.0724516
0.11672
0.0193314
-0.0843854
0.125504
0.00589765
-0.0867137
0.132113
-0.0042418
-0.0787898
0.134534
-0.0150358
0.131479
-0.0223135
0.0681926
0.132157
-0.0150414
0.0760904
0.134886
-0.00922749
0.0750066
0.131275
0.000944298
0.0640734
0.124848
0.0106526
0.115529
0.0225761
-0.0525793
0.105806
0.0297804
-0.064616
0.116395
0.0195461
-0.0641689
0.119998
0.00986718
-0.0562274
0.125433
0.000548639
0.12633
-0.00404023
0.0351526
0.0191994
0.0614081
0.0446929
0.0514409
0.0947878
0.013482
0.0547521
0.092542
0.0232694
0.0357345
0.0483206
0.0452536
0.0408997
0.044528
0.0365358
0.0515124
-0.012298
0.0268543
0.0153854
0.0143701
-0.0187295
0.0276773
0.0150883
-0.0152898
0.0311559
0.0135217
-0.0135355
0.0290747
0.0142156
-0.0399796
0.0275623
0.0407955
-0.000792122
0.024892
-0.0284074
-0.00827447
0.0385336
0.00581113
-0.0370624
-0.00679726
0.0299853
0.00549095
-0.03713
-0.00458797
0.0291017
-0.0365792
0.00509828
0.0258926
0.00347858
0.00381075
0.00515721
0.00492447
0.00715973
0.00681041
0.00762084
0.00905438
0.00893685
0.00840209
-0.00415418
-0.0199673
0.0156989
0.00266859
-0.000608935
0.000593799
0.00625322
0.00290198
0.000298904
-0.000536323
0.000356069
0.00409361
-0.00155257
-0.00244089
-0.00132519
0.00411798
-0.00165495
-0.000490681
0.0011757
0.0106067
0.0120988
0.031645
-0.0532651
0.00539415
0.0178143
-0.00424973
-0.0073065
0.0568911
0.00124463
-0.0150798
0.00284741
0.00352339
-0.00655737
0.00505333
0.00398933
-0.00620997
-0.0222252
0.00971559
0.0175227
-0.00940283
-0.0125475
-0.000318564
0.0179547
-0.00257332
0.02394
-0.0079111
0.046315
-0.0127291
0.0215509
0.0766909
-0.0246877
-0.0327544
0.00455972
0.00706858
0.0297986
0.00209671
-0.0175725
0.0080198
0.013677
-0.0040559
-0.0106646
0.00845473
0.0149831
-0.00405183
-0.0114728
0.00756003
0.0144619
-0.00237428
-0.0112994
0.00612384
0.0128164
-0.0104506
-0.00102822
0.00367302
0.0105519
-0.00881334
0.000624905
0.00875048
-0.00791934
0.00276145
0.0084545
-0.00315445
0.00337972
0.00805307
-0.00280225
0.00314862
0.0152218
-0.00809828
0.000852331
0.0393451
-0.0159761
-0.00836608
0.072952
-0.0389337
0.00470826
0.0830431
-0.0276503
0.0167997
0.084603
-0.0235059
0.0211121
0.0820419
-0.0202562
0.0219447
0.0768454
-0.0158456
0.0201393
0.0699086
-0.00876641
0.0147848
0.0605562
0.00163741
0.006787
0.0420748
0.0173943
0.000159233
0.0148755
0.0413145
-0.0150332
-0.00527503
0.0551936
-0.0359454
-0.0017264
0.0503058
-0.0547263
0.0122197
0.0392605
-0.0540396
0.0154259
0.0263556
-0.0303202
0.00953781
0.028722
-0.0234512
0.00209108
0.0112529
-0.0040244
0.000379955
0.00379006
-0.0021559
-0.000453059
0.00176098
-0.000982547
-0.00211582
0.00324709
-0.00165385
0.0031359
-0.00227688
0.00324505
0.00520374
-0.00147453
0.000249731
0.006578
-0.00041102
0.00216407
-0.000174933
0.00652224
-0.000596751
0.00175222
0.00592074
-0.00382992
0.00256642
0.00566986
0.00617101
0.000992961
0.0117147
0.0170215
-0.0109151
0.0155908
-0.0106474
0.0236209
0.0241914
-0.0302875
0.0434123
0.0145692
-0.0447215
0.0505232
0.0132814
-0.063052
0.0462177
0.0263542
-0.0788617
0.0292426
0.0269165
-0.0898362
0.00752942
0.0198668
-0.0953251
-0.00868776
0.0148411
-0.0987218
-0.0209006
0.0145646
-0.10092
-0.0294484
0.0148472
-0.101111
-0.0351854
0.014183
-0.0977335
-0.0395321
0.0117274
-0.0888541
-0.0439257
0.00648769
-0.0319694
-0.0406545
-0.0447583
-0.0113888
-0.0184677
-0.0104241
-0.0192255
0.00261129
-0.0154094
-0.00710243
0.0013196
-0.0057765
0.000260622
-0.00945776
0.000857277
-0.00379513
0.00165837
-0.00748089
0.000988368
-0.00880762
0.0158627
-0.000180147
-0.00795176
0.0158681
-0.0018412
-0.00614437
0.0139528
-0.00216476
-0.00201251
0.0198321
0.00569353
0.0204499
0.107166
-0.0444784
-0.00958591
0.00400448
0.0307125
0.00545966
0.00761908
0.010534
-0.000247861
0.00843018
0.0143106
0.000667795
0.0151726
0.00192774
-0.0162495
-0.0198011
-0.0126651
0.0308885
-0.0202944
0.0463656
-0.0178882
-0.051071
0.107099
-0.024639
-0.0520892
0.12205
-0.0150301
-0.104569
-0.0443513
0.125854
-0.0301876
-0.0753485
-0.0285798
-0.0173743
-0.0288713
-0.0142759
-0.00281868
-0.0403675
0.0170336
-0.00206987
-0.0241654
-0.0052608
0.0279993
-0.00540839
-0.00853538
0.0163895
-0.00782224
-0.00928888
0.0145182
-0.00616472
-0.00944368
-0.0118381
-0.00270469
0.0502174
-0.0212606
-0.0125912
-0.00608031
0.000616603
-0.0119338
-0.00845391
-0.000107254
-0.0087508
-0.00711473
-0.00156901
-0.0049845
-0.00435899
-0.00157686
-0.000111038
-0.000742514
-0.00374005
-0.000457171
-0.0098824
2.30333e-06
0.000442992
0.0012766
-0.00169507
0.00137636
-0.0020621
0.00335438
0.00175276
-0.00263679
0.00437925
0.00206156
-0.00196955
0.0037231
0.00175509
0.00267584
0.000706224
0.00449479
0.002642
-0.00105614
0.00468811
0.00385371
-0.0003997
0.00454124
0.00492998
-0.000484914
0.00482946
-0.000747347
-0.00634193
0.0108851
-0.00418312
-0.00618001
0.01091
-0.0062536
-0.00532005
0.0100641
-0.00717584
0.00902023
-0.00778161
0.0065583
0.0118814
-0.00566497
0.00797915
0.0136118
-0.0050672
0.00815961
0.0151345
-0.00451149
0.0149399
-0.00311662
-0.00917336
0.0168821
-0.00132304
-0.0093011
0.0178883
-0.00273218
-0.00964971
0.0177853
-0.0039294
0.0104891
-0.00400629
0.012872
-0.00041562
0.010229
-0.00167415
0.00748432
0.0233114
-0.00289467
0.00733508
0.0183235
-0.000376118
0.0173162
0.000741976
-0.00881132
0.0485117
-0.0252209
-0.00517723
0.0422092
-0.0276644
0.0450383
-0.0283124
0.0293235
0.117787
-0.0575466
0.127652
-0.0450582
0.0507174
0.135098
-0.038624
-0.0205848
0.0553622
0.135036
-0.0149428
0.0519951
0.130296
-0.00599541
0.115479
-0.00135716
-0.0502003
0.119947
0.00517992
-0.0559086
0.135274
-0.000352735
-0.05344
0.140964
-0.00947963
-0.0447975
-0.014613
0.140048
-0.128347
-0.0232984
0.133751
-0.0293031
-0.012837
-0.0511369
-0.11451
0.0286273
0.11949
-0.106165
-0.0667682
0.118489
-0.0384402
-0.0495811
-0.0680675
-0.00480807
0.0138606
-0.0135208
-0.0193544
-0.0195797
-0.00999432
-0.00603274
-0.0131357
-0.00290708
-0.014027
-0.00406055
0.00257518
-0.0144011
-0.00817449
0.00316998
-0.0127596
-0.0106127
0.0025261
-0.00981188
-0.014503
0.00285706
-0.0107437
0.00114044
-0.0137846
0.016069
-0.0137346
0.000610424
-0.0094852
-7.98207e-05
-0.0153535
0.0144849
-0.00157979
-0.0167571
0.0116596
-0.0027133
-0.0180406
0.00966371
-0.0014587
0.0149534
-0.0254677
0.0110893
0.0252164
0.0187222
0.0207328
-0.0498544
0.0188604
0.016168
0.0178269
-0.0277705
0.0305775
0.0160497
0.019169
-0.0470715
0.0213698
0.0134236
-0.0227362
0.0183918
0.0392805
-0.0422065
0.00893036
0.0152648
0.0200993
0.0463677
-0.0101157
-0.0171722
0.0253805
0.0301387
-0.0202571
-0.0152911
-0.0172398
-0.0206182
0.00991057
-0.0182713
0.00381753
-0.012779
-0.0179587
0.00437261
-0.0172475
-0.0122878
0.00330469
-0.0161366
-0.0141021
0.00227999
-0.0167745
0.00209694
-0.0176728
-0.0170548
0.0174637
0.000372941
-0.0162682
-0.000772492
-0.018376
0.0156461
-0.00199075
0.0130115
-0.00309158
0.0175506
0.0143325
-0.0027906
0.0174405
-0.00140748
0.0164774
0.0182517
-0.0170282
-0.000365594
0.0184001
0.0013318
-0.0151174
0.00285799
-0.0154815
0.00100895
0.0175105
-0.015416
-0.00120278
0.0144845
-0.00214695
-0.00752921
-0.0160275
0.0235998
0.0168589
-0.00150836
-0.0143921
-0.0171549
-0.0262163
-0.0242792
-0.00257985
-0.105264
0.1039
0.00754759
0.00121059
0.0182422
0.0127086
0.0239159
0.014695
-0.0202667
0.0176474
-0.00846383
0.0179651
-0.0122464
-0.00477404
0.00235954
-0.000511809
-0.00555199
0.00484988
-0.00582503
-0.00170877
-0.00210772
-0.00217541
-0.00379255
0.0131646
-0.000990969
-0.00316256
-0.00140361
-0.00338388
0.0163864
-0.0200795
-0.0115677
0.0154795
0.00688914
-0.0116081
0.0176119
0.00912072
-0.0132733
0.0202316
0.00894093
-0.0142093
0.0229907
0.00892469
0.0302214
0.0120061
0.00989656
0.0135053
0.0125106
0.00949292
0.0132906
0.00992445
0.00785608
0.0119365
0.00976114
0.00608042
0.010811
0.00842253
0.010004
0.00700546
-0.00221074
0.00342766
-0.00262469
0.0041688
-0.00329354
0.00476509
-0.00392861
0.00541039
0.00652035
0.00166343
0.00290748
0.00142764
0.000511971
0.000410807
0.00139621
-0.000146056
0.00198896
-0.00155088
-3.02264e-05
-0.000931489
0.00195354
0.000963466
-0.000329149
0.000791076
-0.000432439
0.00182941
-0.00111727
0.00121604
-0.000534324
0.000311975
-4.06417e-06
0.00202695
-0.00174814
2.98643e-05
0.00379681
-0.000558235
-0.00359804
0.011164
-0.00639652
0.00358575
-0.0180473
0.0033587
0.0170787
0.00389525
-0.0181526
0.020453
0.00715637
0.00294145
0.00677535
-0.017085
0.020867
0.000292067
0.00596468
0.0198127
-0.0148521
-0.0136302
0.0142007
0.00503406
0.01099
-0.00739283
0.0171996
-0.00766198
0.017289
0.0109114
-0.000412363
0.0199973
0.00718123
0.00333842
-0.00115326
0.00152959
-0.00352211
0.000373004
-0.00229348
0.0126101
0.0013551
-0.00233857
0.000787547
0.000619919
-0.000777741
0.00151108
-0.000568349
0.00155958
-0.000393132
-0.0012427
0.0010662
-0.00207073
0.000898375
-0.000210941
-0.00022474
-0.00163654
-0.000454668
-0.00209683
0.000247709
-0.00185763
0.00140356
-0.00138199
0.000391157
0.000112204
-0.00188661
0.000171133
-0.00141793
-0.00066011
-0.00126753
-0.00240739
0.00114969
0.00124041
0.000226704
0.00047199
-0.00129977
0.000447994
-0.00168354
-0.000479954
0.000537419
0.000389014
0.000109874
6.81852e-05
-0.000659365
0.00104446
0.000304094
0.000312313
-0.000893059
-0.00161343
0.0028154
-0.000776052
0.000269356
0.000180229
-0.000890503
-0.00113205
0.00380588
0.00137635
-0.000361664
-0.00303339
0.0122906
-0.00265126
-0.00129612
-0.00174962
8.28224e-06
-0.000830898
0.00025795
-0.000726106
0.000330315
-4.23403e-05
-0.00112124
-4.60728e-05
0.00188402
-0.000307876
-0.00162554
-0.0013244
0.00321237
-0.000895395
-0.000174189
-0.00124815
0.00111812
0.00204492
0.000343648
0.000324747
0.000922146
-0.000131345
0.00191696
-0.00142197
-0.000173596
-0.00137227
0.00320325
8.16125e-05
-0.000650174
0.00019687
0.0028647
-0.00405853
0.0133222
-0.00112043
-0.0180643
0.000733963
0.0070554
0.0245753
-0.0164929
0.0219273
0.0064069
-0.0177795
0.0226109
-0.00210798
-0.0149052
-0.00439729
-0.0206954
-0.0218739
-0.00632252
-0.0219052
-0.00573838
0.0151703
-0.00262254
0.0198037
0.0318043
0.037469
-0.0236115
-0.101155
0.0666243
-0.0967673
0.0700913
-0.10785
0.0713027
-0.0171123
-0.110091
0.0687134
-0.0248728
-0.106621
0.0674578
-0.0296782
-0.0981176
0.0662827
-0.0332132
-0.0859891
0.0635987
-0.0358199
-0.0685243
0.0576147
-0.0379534
-0.0486762
0.0531708
-0.0376683
-0.0385262
0.0425708
-0.0316865
0.00466634
-0.030022
0.0174559
0.0320673
-0.0455242
0.0149808
0.0448503
-0.0430427
-0.00697551
0.0479825
-0.0264375
-0.0341318
0.0267176
-0.0508936
-0.0130032
0.0292979
-0.0596647
-0.0245519
0.0328202
-0.0620904
-0.0310296
0.0329291
-0.055794
-0.0381953
0.0313727
-0.0478321
-0.0352694
0.0268047
-0.0304407
-0.0335715
0.0157129
0.00324942
-0.0341289
0.0201172
0.0446591
-0.0621637
0.0427905
0.0556624
-0.0791018
0.0680866
0.0549427
-0.0810587
0.0881302
0.0524181
-0.0732861
0.0991188
0.0477627
-0.059608
0.0996958
0.0400605
-0.0414597
0.0934209
0.0342178
-0.0287534
0.0812613
0.0311359
-0.0196966
0.0460366
0.0378387
-0.00318754
0.0222379
0.0227918
0.000810535
0.0191668
0.00393975
-0.000973434
0.0178304
0.000535964
0.000697626
0.0146691
0.000157116
0.00289384
0.00843842
2.08246e-05
0.00611094
0.00900897
-0.000658163
0.0070667
0.00354314
-0.0016715
0.00447016
0.00386509
-0.00131566
0.00466254
0.00174888
-0.00200407
0.00555845
0.00195626
-0.00293102
0.0051983
0.00312915
-0.00284681
0.00402529
0.00337901
-0.00227556
0.00299725
0.00269504
-0.00172162
0.00485006
0.00167122
-0.00360104
0.00890932
0.00288536
-0.00716313
-0.0265696
0.0334309
0.00143006
-0.052567
0.0228465
0.00239172
-0.0645638
0.0110108
0.00015218
-0.0673248
7.52765e-05
0.00181275
-0.0696563
-0.014121
0.0155481
-0.0740346
-0.0294485
0.0329047
-0.0751322
-0.0446422
0.0448028
-0.0724095
-0.0584396
0.0547718
-0.0623179
-0.070918
0.0598743
-0.0445197
-0.0809383
0.062183
-0.016837
-0.087564
0.058918
0.017273
-0.0836614
0.0485907
0.0327642
-0.0585343
0.0420818
0.0320076
-0.0451133
0.0449475
0.0244507
-0.0355917
0.0422452
0.0105942
-0.0265803
0.0396096
-0.000174038
-0.0234947
0.0334612
-0.0350439
0.0341206
-0.0507051
-0.019895
0.0347584
-0.0579189
-0.0346609
0.041064
-0.0583775
-0.049455
0.049039
-0.0498527
-0.0644439
0.0550439
-0.0259584
-0.0819061
0.0571131
0.00420639
-0.083249
0.0522082
0.00966158
-0.0473594
0.0410389
-0.00777585
-0.0267934
0.043421
-0.0208587
-0.0289011
0.0411982
-0.00452408
-0.0607155
0.0436427
-0.0525271
0.0433352
-0.0152926
-0.069317
0.0018074
0.018373
-0.0553752
-0.0398907
0.0286183
-0.0402592
0.000237377
0.0324135
-0.0483342
0.0168514
0.03101
-0.0780529
0.0311728
0.0417285
-0.12674
0.0318333
0.0550606
-0.123793
0.0276099
0.0576817
-0.096715
0.0287189
0.0526497
-0.0732899
0.0279612
0.0420351
-0.0523771
0.0274708
-0.0307763
0.0285989
-0.0375911
-0.0477663
0.0271298
-0.0396289
-0.0573862
0.022903
-0.0339149
-0.0683934
0.0165957
-0.00557831
-0.0841493
-0.00371954
0.0350037
-0.119101
-0.00614867
0.0607274
-0.125142
0.0108487
0.0756221
-0.118547
0.0217129
0.0825448
-0.104049
0.0252123
0.0815965
-0.0854247
0.0269436
0.0775162
-0.0645989
0.0230547
0.0704667
-0.0427834
0.0194126
0.0660975
-0.0210459
0.010336
0.0614754
-0.000435494
0.00419145
0.0503094
0.0150593
0.00619082
0.0277727
0.0315766
0.0128905
-0.00697375
0.00472855
0.045513
0.01695
0.00850811
-0.0026525
-0.00894885
-0.00403438
0.0155495
-0.00144894
-0.00100041
0.0109182
-0.00104978
0.00396605
0.00158684
0.0159593
0.000321296
-0.00954137
0.0040776
-0.00655638
0.0268772
0.00415265
-0.00861481
-0.00769066
-0.000153808
0.00155975
-0.00789391
-0.00241885
0.00149716
-0.00642976
-0.00372041
0.000724989
-0.0048336
-0.0047886
0.000458511
0.00178947
-0.00350548
-0.000476798
0.00437297
-0.000935566
-0.00174275
-0.00033015
-0.000265766
-0.00115077
-0.000691259
-0.000576498
-0.00057683
-0.000531537
0.000414543
-0.000992064
-0.00321448
0.0128641
-0.00538036
-0.011618
0.00302931
0.0225472
-0.00750803
-0.00950968
0.0642517
-0.0310034
-0.0285408
0.0182873
0.0619766
-0.0246583
0.0284174
0.0467686
-0.0195475
0.0339862
0.00862205
-0.0106972
0.0497189