/*--------------------------------*- C++ -*----------------------------------*\
| =========                 |                                                 |
| \\      /  F ield         | OpenFOAM: The Open Source CFD Toolbox           |
|  \\    /   O peration     | Version:  v2012                                 |
|   \\  /    A nd           | Website:  www.openfoam.com                      |
|    \\/     M anipulation  |                                                 |
\*---------------------------------------------------------------------------*/
FoamFile
{
    version     2.0;
    format      ascii;
    class       volScalarField;
    location    "690";
    object      nut;
}
// * * * * * * * * * * * * * * * * * * * * * * * * * * * * * * * * * * * * * //

dimensions      [0 2 -1 0 0 0 0];


internalField   nonuniform List<scalar> 
18258
(
0.00419133
0.00182228
0.00149216
0.00129248
0.000857195
0.00140211
0.00194761
0.00231861
0.0024328
0.00241242
0.0024981
0.004216
0.00591707
0.00731292
0.00768157
0.00766805
0.00695967
0.00664561
0.00721119
0.00886982
0.00746141
0.0047797
0.00572757
0.00661638
0.00719276
0.00636755
0.005148
0.00476845
0.00431726
0.00359789
0.00301508
0.00205224
0.00151669
0.0014071
0.00127447
0.00145235
0.00158139
0.00168554
0.00172395
0.00175129
0.0017393
0.00172935
0.00168256
0.00165433
0.00160612
0.00133025
0.00161814
0.0016412
0.00179608
0.00248679
0.00267421
0.00225047
0.00249108
0.00222277
0.00146564
0.00167738
0.00182081
0.00186
0.00183608
0.00175989
0.00173423
0.00171252
0.00168501
0.00165235
0.0016325
0.00164899
0.00166624
0.00164832
0.00156756
0.0015021
0.00139614
0.00128987
0.00121109
0.00115005
0.001104
0.00105282
0.000995287
0.000874257
0.000810281
0.00107284
0.00134681
0.00143896
0.00203942
0.00248635
0.00250293
0.00187401
0.00133582
0.00138638
0.001541
0.00155616
0.00131862
0.00156679
0.00177423
0.00183883
0.00191614
0.00214186
0.00244
0.00237944
0.00211922
0.00195308
0.00190871
0.00218943
0.00208291
0.00270143
0.00271988
0.00237001
0.00219273
0.00246708
0.00318209
0.00342103
0.00265631
0.00249537
0.0024465
0.00241494
0.00218483
0.00226203
0.0020549
0.0018517
0.00201742
0.00243693
0.00231129
0.002524
0.00261565
0.00245411
0.00284367
0.00327918
0.00323247
0.00258685
0.00211032
0.00196723
0.00198208
0.00121227
0.00130903
0.00140984
0.00144439
0.00146874
0.00148935
0.00158779
0.0015842
0.00156091
0.00155747
0.00158483
0.000873401
0.000946244
0.000969781
0.000976578
0.000927759
0.000918164
0.00090096
0.000887006
0.000836775
0.000800749
0.000958041
0.00107568
0.00117152
0.00128358
0.00145058
0.00165487
0.00186956
0.00208649
0.00222994
0.0022708
0.00231197
0.00222845
0.00214406
0.00222048
0.00223329
0.00221881
0.00218905
0.00215142
0.00210058
0.00200739
0.00211503
0.00210916
0.00198152
0.00169851
0.00173643
0.00173332
0.00177842
0.0017693
0.00178716
0.0017619
0.00173235
0.00164915
0.0015332
0.0012765
0.00124233
0.00125818
0.00161613
0.00196233
0.00303159
0.0036989
0.00429608
0.0045985
0.00492222
0.00398061
0.00442958
0.00341308
0.00306446
0.00389542
0.00509725
0.00290769
0.00158665
0.00300901
0.00266809
0.00193436
0.00172159
0.00177372
0.00177825
0.00204445
0.00235662
0.00261471
0.00274011
0.00285121
0.00293983
0.0030376
0.00316135
0.00319524
0.00308692
0.00261314
0.00314858
0.0025564
0.00298397
0.00269349
0.00181552
0.00193699
0.00205037
0.00187454
0.00182234
0.00174564
0.00156899
0.00192754
0.00249945
0.00290137
0.00331686
0.004422
0.00409108
0.00392374
0.00303851
0.00293821
0.0015257
0.00217689
0.00225438
0.00253332
0.00168482
0.00153618
0.00145726
0.00193473
0.00224142
0.0026458
0.00293476
0.00348653
0.00270219
0.00308343
0.00278818
0.00194138
0.00187043
0.00268003
0.00288777
0.00237606
0.00212548
0.00266599
0.00252266
0.00178935
0.00143626
0.0022053
0.00228419
0.00163619
0.00406352
0.00432894
0.00414886
0.00506055
0.00633924
0.00721912
0.00671859
0.00595804
0.00665889
0.00529415
0.00512514
0.00546154
0.0045821
0.00320208
0.00328306
0.00339468
0.00348534
0.00374102
0.00397366
0.00425843
0.00452996
0.00411888
0.00342168
0.0025905
0.00178197
0.00175718
0.0017481
0.00156977
0.00232654
0.00352124
0.00349804
0.00198884
0.00115922
0.00131042
0.00147932
0.00146465
0.00106338
0.000800161
0.00137836
0.00157602
0.0016015
0.00156176
0.00147457
0.00154095
0.00247474
0.00381261
0.00418927
0.00433906
0.0044809
0.00458121
0.00463722
0.00465525
0.00466543
0.00467778
0.00468859
0.00470483
0.00469029
0.00459035
0.00403744
0.00253816
0.00148368
0.00137832
0.00152124
0.00163492
0.00173418
0.00147567
0.000902252
0.0014411
0.00184536
0.00212085
0.0021389
0.00199607
0.00193626
0.00305317
0.00405941
0.00478462
0.00493127
0.00499638
0.00494118
0.00493364
0.00482546
0.00479121
0.00420057
0.00300657
0.00328679
0.0035288
0.00356923
0.00365169
0.00377569
0.00368811
0.00348414
0.00509284
0.00587664
0.00595203
0.0060793
0.00600806
0.00590482
0.00563686
0.00533052
0.00448769
0.00336545
0.00212345
0.00216785
0.00230796
0.00228598
0.00199023
0.00209674
0.00227533
0.00229809
0.00237328
0.00266128
0.00302259
0.00288341
0.00248144
0.00210727
0.00196214
0.00192088
0.00184298
0.00138024
0.00140088
0.0013618
0.00138427
0.00185977
0.00221364
0.00255268
0.00362046
0.00322971
0.00262674
0.00416365
0.00426594
0.00458254
0.00506229
0.00518791
0.00574749
0.00400213
0.00360737
0.00370565
0.00302721
0.00280217
0.00283214
0.00284286
0.00264987
0.00290022
0.00287453
0.00277056
0.00305883
0.00337025
0.00444401
0.00538464
0.00568123
0.00585247
0.00592212
0.00589912
0.00578341
0.00581921
0.00511023
0.00510407
0.00488838
0.00474822
0.00469888
0.00446643
0.00511377
0.00530807
0.00537254
0.00550619
0.00571498
0.00556082
0.00538812
0.00525703
0.00516234
0.00506343
0.00511775
0.00521219
0.00531312
0.00545531
0.00564573
0.00567818
0.00548072
0.0053318
0.00523021
0.00513497
0.00513927
0.00522422
0.00532354
0.00546477
0.00564548
0.0055458
0.00540529
0.0052804
0.00517815
0.00508832
0.00491064
0.00502885
0.00515905
0.00526647
0.00533633
0.00461091
0.00492844
0.00484362
0.00438535
0.00410467
0.00311724
0.00337355
0.00355732
0.00387461
0.00430091
0.00438459
0.00367954
0.0031533
0.00307286
0.0030481
0.00312011
0.00314591
0.00316106
0.00357171
0.00537921
0.00541582
0.00543085
0.00543262
0.0046462
0.00451518
0.00420711
0.00768699
0.00715643
0.00620048
0.0051119
0.0027415
0.00235016
0.00278392
0.00338528
0.00378476
0.00417682
0.002773
0.00171746
0.00200145
0.0020752
0.00202451
0.00187156
0.00155967
0.00143972
0.00130665
0.00140604
0.00248969
0.00397361
0.00447646
0.00452453
0.00448016
0.00439356
0.00428838
0.00414191
0.00408204
0.0051364
0.00693818
0.00785309
0.0078246
0.00672239
0.00547364
0.00308
0.00157673
0.00114516
0.00126119
0.00138396
0.00162869
0.00145553
0.00120555
0.00132125
0.00125782
0.00255226
0.00441472
0.00563959
0.00669321
0.00657936
0.00571185
0.00468248
0.00444396
0.00454812
0.00461697
0.00467627
0.00473718
0.00477881
0.0047517
0.00432435
0.00267104
0.00159472
0.00141702
0.00152367
0.00178572
0.00189728
0.00191653
0.00188987
0.00163845
0.00271003
0.00430344
0.00273686
0.00149314
0.0016132
0.00160142
0.00282461
0.00282039
0.0027599
0.00429436
0.00454091
0.00452952
0.00425575
0.00406262
0.00240514
0.0027296
0.00273874
0.00275327
0.0027984
0.0014137
0.00154095
0.00158891
0.00171046
0.00149528
0.00190008
0.000491668
0.00068151
0.000791629
0.00086086
0.000927495
0.000909849
0.00174077
0.00176619
0.00168538
0.00164091
0.00208277
0.00223515
0.00228451
0.00210426
0.00194173
0.0020668
0.00207131
0.00195196
0.00184902
0.0019172
0.00191859
0.0018387
0.00156392
0.00146545
0.00160876
0.00159143
0.00157867
0.00283467
0.00282979
0.00267824
0.00440067
0.00432979
0.00484986
0.00481853
0.00481299
0.00479339
0.00484518
0.004872
0.00489221
0.00491596
0.00490659
0.00485905
0.00675675
0.00478021
0.00417123
0.00241218
0.00232354
0.00164104
0.00143824
0.00169359
0.00181136
0.00196376
0.00191933
0.00202334
0.00202092
0.00214441
0.0019903
0.00176723
0.00270673
0.00289158
0.00282425
0.00288014
0.00281245
0.00279594
0.00277538
0.00273591
0.00268835
0.00160078
0.00157027
0.00183881
0.00193022
0.00207403
0.00209281
0.00213821
0.0020278
0.00178335
0.00172629
0.00198816
0.00196135
0.00199955
0.00188521
0.00187737
0.00167247
0.00171481
0.00345722
0.00637883
0.00328468
0.00364825
0.00330564
0.00375926
0.00329307
0.00284034
0.00290701
0.00256072
0.00267117
0.00280174
0.00285238
0.00299776
0.0035336
0.0034022
0.00298646
0.00289987
0.0028428
0.00268055
0.00241276
0.00252737
0.00255009
0.00260476
0.00289495
0.00332013
0.00372136
0.00452052
0.00438658
0.00384373
0.003514
0.00368437
0.0037491
0.0047182
0.00440738
0.0043818
0.00462284
0.00457761
0.00434427
0.0041166
0.00397358
0.0034122
0.00346833
0.00396886
0.00384044
0.00395762
0.00388817
0.00404209
0.0041148
0.00394939
0.00367086
0.00385916
0.00385151
0.00427682
0.0041595
0.00385873
0.00353022
0.00377362
0.00372815
0.004306
0.00405341
0.00379133
0.00349029
0.00334359
0.00379431
0.00372503
0.00422321
0.00434561
0.0043475
0.00379067
0.00370269
0.00440251
0.00423538
0.00409146
0.00426137
0.00352964
0.00363034
0.00447128
0.00456471
0.00433072
0.00361618
0.00367158
0.00314837
0.00370186
0.00460677
0.00435049
0.00356612
0.00295972
0.00414041
0.00435657
0.00460797
0.00435544
0.00474313
0.00510973
0.00416606
0.00453232
0.00592038
0.00452384
0.00524912
0.00536492
0.00539598
0.00539814
0.00541827
0.0054444
0.00573449
0.0055756
0.00354783
0.00424209
0.0041223
0.00344909
0.00293459
0.00323151
0.00348001
0.00352997
0.00361931
0.00375695
0.00369214
0.00356835
0.00522462
0.00596422
0.00609254
0.00621404
0.00611339
0.00596462
0.00561871
0.00519544
0.00431593
0.00321905
0.00200954
0.00204825
0.00218244
0.00216118
0.00187442
0.00141407
0.000929486
0.00137975
0.00142745
0.00134526
0.00122722
0.00108488
0.00112488
0.0020469
0.00393095
0.00543287
0.00599807
0.00645774
0.00694801
0.00742563
0.00779108
0.00805556
0.00823222
0.00833814
0.00835722
0.00818942
0.00743149
0.00709904
0.00668852
0.006353
0.00589258
0.00554018
0.00626155
0.00687965
0.00726198
0.00769141
0.00789032
0.0078068
0.00678276
0.00657417
0.0075625
0.00931831
0.00791708
0.00995065
0.0117032
0.00911453
0.00819609
0.00819204
0.00915738
0.00933616
0.00900293
0.00848256
0.00788517
0.0071315
0.00750326
0.00784244
0.00817104
0.00847317
0.00931357
0.00946438
0.00939707
0.00925647
0.00906439
0.00878199
0.00833675
0.00772598
0.00704641
0.00638132
0.00560806
0.00398947
0.00190644
0.00213973
0.00210788
0.00223256
0.00219054
0.00102277
0.00112947
0.00114437
0.00115248
0.00108824
0.00123871
0.00179184
0.00291542
0.00209693
0.001726
0.00118889
0.00139527
0.00233061
0.00395885
0.00447426
0.00456277
0.00462333
0.00586935
0.00682768
0.00727273
0.00760879
0.00785983
0.00775935
0.0075008
0.00704426
0.00647118
0.00625739
0.0059081
0.00560237
0.00543756
0.00526892
0.00494345
0.00387548
0.00372788
0.00388559
0.0038379
0.00367371
0.00392611
0.00406857
0.00406564
0.00411129
0.00415124
0.00427433
0.00441913
0.00454524
0.00461165
0.0046366
0.00464478
0.00465475
0.00466267
0.00467724
0.00466164
0.00455974
0.00400391
0.00250353
0.0014612
0.00135057
0.00148078
0.00156584
0.00160215
0.00142274
0.000915843
0.00142307
0.00184213
0.00188945
0.00207363
0.00213973
0.00226934
0.00252753
0.00292043
0.00301339
0.00267393
0.00253233
0.00247827
0.00241551
0.00206481
0.00257417
0.00284015
0.00283479
0.00280813
0.00303533
0.00373526
0.00358807
0.00316386
0.00312842
0.00309674
0.00280024
0.00275828
0.00301337
0.00304669
0.00316056
0.0037062
0.00444465
0.00412319
0.00375534
0.00360029
0.00332468
0.00292739
0.00264613
0.00325478
0.002671
0.00140801
0.00119549
0.00119005
0.00119478
0.00115321
0.00136789
0.00143979
0.0014595
0.00135786
0.00150678
0.00167732
0.0016243
0.00183475
0.00181061
0.00162117
0.00160596
0.00173737
0.00183368
0.00188194
0.00193196
0.00316754
0.00327156
0.00253324
0.00366762
0.00422375
0.00419016
0.00444605
0.00365743
0.00328009
0.00389414
0.00449981
0.00516089
0.00407802
0.00385798
0.00394714
0.00181094
0.000952967
0.00134437
0.00166946
0.00186179
0.00180711
0.00170773
0.00144456
0.00256479
0.00263395
0.00418302
0.00469301
0.00475482
0.0047254
0.00473299
0.0051426
0.00589986
0.006773
0.00705357
0.00695687
0.00664346
0.00605776
0.00547176
0.00544266
0.00525905
0.00512466
0.0050864
0.0044171
0.00390247
0.00418239
0.00411317
0.00425263
0.00431805
0.0043657
0.00441425
0.00449493
0.00459227
0.00468113
0.00474186
0.0047824
0.0048164
0.00485095
0.00488551
0.00492282
0.00494299
0.00489619
0.00442504
0.00265322
0.00158134
0.00144209
0.0015387
0.00180856
0.00190438
0.00204677
0.00181713
0.00095678
0.00112551
0.00195556
0.00216914
0.00200716
0.00187842
0.00184486
0.00154541
0.00280108
0.00276519
0.00434301
0.00488499
0.00495361
0.00494
0.00490185
0.00485838
0.00481526
0.00477966
0.00475092
0.00472053
0.00467808
0.00462678
0.00457946
0.00453123
0.00444913
0.00433297
0.00419767
0.00436332
0.00451981
0.00471545
0.00492107
0.00501966
0.00492801
0.00479603
0.0047432
0.00477686
0.0048199
0.00486364
0.00490291
0.00492283
0.00486747
0.00458657
0.00430185
0.00272338
0.00275915
0.00135645
0.00150657
0.00173843
0.00179551
0.00194962
0.00193977
0.0015242
0.00118823
0.00134103
0.0012537
0.00224045
0.00246423
0.00273356
0.00270681
0.00146915
0.00150713
0.00156624
0.00176622
0.00164198
0.00158731
0.00392851
0.00376245
0.00393639
0.00482823
0.00415978
0.00287106
0.00314386
0.00437497
0.0046148
0.00278866
0.00209246
0.00231926
0.00293788
0.00432595
0.00438031
0.00416236
0.00413858
0.00301965
0.00371269
0.00447024
0.00434848
0.00338713
0.00233358
0.00173891
0.000844622
0.00160647
0.00137323
0.00336905
0.0037291
0.00368625
0.00403076
0.00428268
0.00432632
0.00420369
0.00372714
0.00380199
0.00383978
0.00437587
0.00439535
0.00371961
0.00313785
0.00254739
0.00257056
0.00262063
0.00290398
0.00363586
0.00342575
0.00300264
0.00291145
0.00284842
0.00267894
0.00241733
0.00212021
0.00213496
0.00198712
0.00192303
0.00303143
0.00403522
0.00475833
0.00489497
0.00494438
0.00486843
0.00483399
0.00469581
0.00462446
0.00401767
0.00513144
0.0054235
0.00523317
0.0052716
0.00530432
0.0053447
0.00534556
0.0052452
0.00450724
0.0026916
0.00175808
0.00198452
0.00214202
0.00201129
0.002
0.00213179
0.00202288
0.00177681
0.0028787
0.00281377
0.00449924
0.00509541
0.00520446
0.0052108
0.00519011
0.0051731
0.00518006
0.00545249
0.00532745
0.0053957
0.00567755
0.00568797
0.00575896
0.00540822
0.00534043
0.00529734
0.00526861
0.00522125
0.00509355
0.00450784
0.00437046
0.00496275
0.00511509
0.00518225
0.0052285
0.00528379
0.00535659
0.00556804
0.00572433
0.00578352
0.00555535
0.00547246
0.00534636
0.00516573
0.00512256
0.0051135
0.00510888
0.00508382
0.00495188
0.00435884
0.00280255
0.00287165
0.00170834
0.00171941
0.00198044
0.00208006
0.00204286
0.0018918
0.00184444
0.00318056
0.00362
0.00384947
0.00414834
0.00396274
0.00394019
0.00450273
0.00435747
0.00388216
0.00404074
0.00362544
0.00345283
0.00334249
0.00336228
0.00176347
0.00190291
0.00198492
0.00195203
0.00186658
0.00166487
0.00152674
0.00278632
0.00276602
0.00273039
0.00162336
0.00158778
0.00187061
0.00181662
0.00166182
0.00141655
0.00155296
0.00239857
0.00268254
0.00416007
0.00430882
0.00461142
0.00493156
0.00505323
0.00508681
0.00510757
0.00513069
0.00517951
0.0052366
0.00525186
0.00524788
0.00528526
0.00527622
0.00527781
0.00525046
0.00521909
0.00518245
0.00514323
0.00507824
0.00494353
0.00461982
0.00430208
0.00485043
0.00489494
0.00498574
0.00507947
0.00511902
0.00512483
0.00510588
0.00506855
0.00502443
0.00497357
0.00497303
0.00512173
0.00515727
0.00518326
0.00516794
0.00514969
0.005143
0.00511928
0.00508165
0.00498714
0.00489261
0.00485276
0.00477197
0.00489934
0.00495565
0.004964
0.00501225
0.00508978
0.00511282
0.00511303
0.00507571
0.0050438
0.0050022
0.00493432
0.00484536
0.00454793
0.00460729
0.00468621
0.00478946
0.00488917
0.00496995
0.00501574
0.00501972
0.00497438
0.004944
0.00494555
0.00490391
0.00492558
0.00494764
0.00492195
0.00491826
0.00492105
0.00486396
0.0047608
0.00461765
0.00446648
0.00434173
0.00427862
0.00417588
0.0045143
0.00464572
0.00476307
0.00486679
0.00495966
0.0050519
0.00507898
0.00506727
0.00500998
0.00497735
0.00497595
0.00492821
0.00492571
0.0049718
0.0049737
0.00500079
0.00504959
0.00503733
0.00497097
0.00479685
0.00462672
0.00447816
0.00433536
0.00418337
0.0041445
0.00421258
0.00415464
0.00421139
0.00435753
0.00454192
0.00470195
0.00480504
0.00483847
0.00486965
0.00491481
0.00491055
0.00488359
0.00486825
0.00480731
0.00475399
0.00468888
0.00454828
0.00437005
0.00421377
0.00416523
0.0042505
0.00433402
0.00425533
0.00395187
0.00411039
0.00426214
0.00441208
0.00462335
0.00486567
0.00496979
0.00500661
0.00498187
0.00496259
0.00496002
0.0049164
0.00490074
0.00494093
0.00494437
0.00496401
0.00499547
0.00496648
0.00488192
0.00458565
0.00422991
0.00405847
0.00395608
0.00382135
0.00427666
0.00436603
0.00425915
0.00418693
0.00429962
0.00443023
0.00456608
0.00465709
0.00469421
0.00474631
0.00481456
0.00484785
0.0047995
0.00474277
0.00467323
0.00463718
0.00463616
0.00461386
0.00452701
0.00442378
0.00430334
0.00444781
0.0045315
0.00444998
0.00403006
0.00409708
0.00420128
0.00426328
0.00459755
0.00488494
0.0049497
0.00494968
0.00491767
0.00489689
0.00489709
0.00487167
0.0048236
0.00481499
0.0048114
0.00486947
0.00494599
0.00499244
0.00501688
0.00480295
0.0044032
0.0043315
0.00414554
0.00406048
0.00450988
0.00456088
0.00445717
0.00436074
0.00457223
0.00466177
0.00468571
0.00466595
0.00461676
0.00458493
0.00464449
0.00473829
0.00466743
0.00436372
0.00409416
0.00423258
0.00426714
0.00425744
0.00420028
0.00410342
0.00389226
0.00434623
0.00478746
0.00482285
0.00435194
0.00435939
0.00422592
0.00393812
0.00432641
0.00452848
0.00457108
0.0045494
0.0044759
0.00430379
0.0045453
0.00475843
0.00471733
0.00427019
0.0027716
0.00280962
0.00282957
0.0028319
0.0027949
0.00278456
0.0027441
0.00272316
0.00266022
0.002596
0.00253505
0.00270397
0.0028496
0.00304475
0.00306118
0.00314195
0.00300703
0.00284655
0.00265822
0.00206966
0.00262618
0.00313284
0.00332932
0.00358104
0.00363263
0.00419036
0.00440901
0.00452634
0.00443806
0.00356023
0.00301977
0.00241288
0.00156911
0.000977605
0.00114732
0.00119313
0.00125241
0.00153058
0.0028217
0.00143744
0.00199127
0.00155767
0.00267835
0.00142116
0.000889609
0.000590875
0.000755218
0.000898201
0.0009072
0.000868673
0.000724423
0.000569169
0.000581824
0.000541862
0.000575687
0.000517244
0.000592505
0.000553432
0.000773864
0.00116505
0.0013201
0.00134893
0.00109004
0.00122876
0.00102658
0.00118354
0.00105669
0.00115132
0.00110427
0.00135034
0.00147979
0.00141678
0.00142077
0.00124329
0.000869628
0.00100802
0.00079193
0.000950821
0.000727536
0.000939618
0.000805631
0.00104682
0.00107916
0.0010761
0.00103618
0.000791693
0.000939162
0.000739424
0.000910276
0.000746021
0.000796853
0.000663764
0.000963405
0.000981253
0.000903244
0.000963654
0.00108436
0.00116559
0.00128471
0.00121261
0.00137964
0.00132872
0.00134224
0.0012708
0.0012348
0.00120655
0.00120893
0.001189
0.00119548
0.00123399
0.00123586
0.00124072
0.00128001
0.00126131
0.00123109
0.00121302
0.00107776
0.000869665
0.00151481
0.0015622
0.00158533
0.00158485
0.00154913
0.00153202
0.00147994
0.00146598
0.00142062
0.00139364
0.00133244
0.00128171
0.00122413
0.00137585
0.000769678
0.000873757
0.000922296
0.000949375
0.000968341
0.000976909
0.000983964
0.000978368
0.000966202
0.000942183
0.000933867
0.000907792
0.00116139
0.00132082
0.00138045
0.0013963
0.00130882
0.0012463
0.00272548
0.00329809
0.00501793
0.00512865
0.00384911
0.00383865
0.00132907
0.00140109
0.000957896
0.00134609
0.00138793
0.00137385
0.00129797
0.000936357
0.00140581
0.000979543
0.00132254
0.000993508
0.00123334
0.00102045
0.00145576
0.00185555
0.00179086
0.0016218
0.00111357
0.00092944
0.000933675
0.000798595
0.000874434
0.000714593
0.000872501
0.000734233
0.00108833
0.00154265
0.00170412
0.0017379
0.00137003
0.00188976
0.0014208
0.00205637
0.00163207
0.00201192
0.00161398
0.00186774
0.00231086
0.00232107
0.00226598
0.00182641
0.00146431
0.00164352
0.00145634
0.00167707
0.00242318
0.00158819
0.00240818
0.000995076
0.00135626
0.00139776
0.00137843
0.00129954
0.000875412
0.00222965
0.00117912
0.00210176
0.00136169
0.00218851
0.00158894
0.00210822
0.00252328
0.0026402
0.00263209
0.0021478
0.00193901
0.00200766
0.00160563
0.00192701
0.00143278
0.0020768
0.00117209
0.00152136
0.00168306
0.00177117
0.00177867
0.00146247
0.00288676
0.00181225
0.00273501
0.00190137
0.00243547
0.00195196
0.00213534
0.00252143
0.00250568
0.00248467
0.00210696
0.00170475
0.00225027
0.00160561
0.0477974
0.11045
0.0439499
0.111614
0.0505743
0.0717635
0.0707019
0.0708327
0.0710784
0.0533657
0.116353
0.137515
0.143448
0.145227
0.144171
0.232992
0.189998
0.28549
0.185081
0.108877
0.0471952
0.0650874
0.168032
0.277517
0.416382
0.528273
0.359984
0.372563
0.237732
0.234343
0.22056
0.178348
0.109201
0.0547702
0.00940744
0.0102975
0.0147069
0.0195735
0.0154683
0.00949967
0.00187593
0.00193612
0.00198025
0.00200837
0.00200293
0.00196264
0.00199675
0.0018889
0.00177941
0.00199242
0.00217218
0.00230636
0.00272306
0.00301125
0.00271513
0.00297633
0.00315407
0.00329841
0.00341742
0.0035951
0.00379549
0.00397209
0.00398172
0.00364883
0.00311045
0.00252987
0.00212564
0.00201356
0.00189076
0.00166734
0.00152525
0.00142798
0.00138122
0.00136197
0.00139984
0.00153011
0.00164326
0.00168297
0.00165007
0.00161977
0.00159337
0.00141884
0.00165904
0.00227572
0.00229294
0.00392849
0.00452667
0.00462095
0.00462763
0.00410142
0.00261981
0.00262558
0.00263906
0.00268946
0.00270013
0.00270751
0.00270487
0.00269603
0.00268043
0.0026516
0.00263693
0.00259408
0.00255786
0.00246696
0.00247096
0.00250191
0.00252672
0.00248486
0.00249452
0.00244289
0.0031905
0.00425972
0.00479825
0.0050144
0.00519971
0.00504648
0.00699602
0.00598787
0.00420381
0.00413324
0.0040824
0.00484172
0.00487432
0.00440229
0.00442092
0.00403534
0.00252029
0.00251568
0.00251744
0.00269451
0.00274812
0.00284037
0.00286614
0.00288755
0.00290098
0.00289351
0.00289124
0.00286395
0.00284428
0.00277896
0.00275733
0.00274799
0.00151499
0.00165369
0.00171608
0.001728
0.00175409
0.00174386
0.00173425
0.00171351
0.00170055
0.00167205
0.00163957
0.00159025
0.00149443
0.00136092
0.00149735
0.00253939
0.0025381
0.00413426
0.00466483
0.00469908
0.00523007
0.00496518
0.00470265
0.00504426
0.00454753
0.00451093
0.00408473
0.00253731
0.002572
0.00152742
0.00151477
0.00177193
0.00172367
0.00184246
0.0018934
0.00189883
0.00192499
0.00194939
0.00198026
0.00203044
0.00204472
0.00201142
0.00200472
0.0018876
0.00163078
0.00164991
0.00194563
0.00204164
0.00189638
0.00186446
0.00185061
0.00180519
0.00177089
0.00173827
0.00176098
0.0018962
0.00189338
0.00185912
0.00176859
0.00172143
0.00149126
0.00143981
0.00251649
0.00255751
0.00423113
0.00431902
0.00428617
0.00494437
0.00552468
0.00628278
0.00536427
0.00436213
0.00455271
0.00521094
0.00388315
0.00325584
0.00193739
0.00144885
0.00181825
0.0016647
0.0017365
0.00179919
0.001598
0.00171782
0.00158846
0.00144359
0.0014355
0.00143389
0.00146913
0.00148408
0.00151098
0.00151468
0.00155159
0.00154804
0.00155204
0.00157088
0.00157827
0.00174372
0.00189429
0.0015948
0.00135223
0.00131818
0.00124484
0.00118546
0.00121444
0.00118505
0.00117773
0.00115606
0.00113637
0.00108438
0.00112992
0.00119899
0.00140266
0.00134224
0.00108487
0.000969326
0.00066244
0.000675928
0.0006806
0.000701479
0.000709203
0.000718664
0.000722217
0.000733994
0.000736309
0.000740061
0.000739787
0.00075792
0.000755341
0.000746605
0.000741007
0.000744525
0.000747864
0.000747297
0.00109437
0.00121849
0.0013305
0.00158006
0.00185887
0.00160048
0.00135685
0.00116981
0.000751945
0.000763178
0.000777118
0.000784302
0.00080103
0.000816223
0.000833183
0.00084384
0.000851836
0.000860163
0.000868974
0.000872427
0.000870251
0.00085337
0.000843455
0.0008648
0.000950543
0.00100037
0.00106438
0.00108854
0.00110897
0.00111898
0.00111399
0.00112581
0.00111286
0.00111114
0.00109252
0.00108465
0.00107724
0.00106775
0.00105589
0.00102619
0.00101639
0.00106927
0.0018114
0.00236951
0.00272759
0.0030034
0.0027819
0.00226226
0.00237116
0.00417022
0.0039514
0.00232743
0.00217508
0.00201017
0.00176036
0.00152994
0.00184738
0.00210858
0.00230615
0.00247921
0.00263742
0.00274473
0.00288285
0.00306337
0.00338262
0.00342266
0.00312206
0.00252949
0.00214039
0.00199833
0.00193047
0.00181269
0.00168393
0.00172624
0.00173875
0.00168712
0.00162302
0.00160503
0.00163181
0.00166624
0.00164642
0.00164577
0.00147033
0.00146974
0.00251144
0.00255778
0.00393462
0.004146
0.0041865
0.00269131
0.00265456
0.00155057
0.00144008
0.00157101
0.0016309
0.00163437
0.00164117
0.00163292
0.00160459
0.00158375
0.00155952
0.00153969
0.00152205
0.00149168
0.00143381
0.00132431
0.00144281
0.00161789
0.00168994
0.00170892
0.00171814
0.00174542
0.00178988
0.0018255
0.00190802
0.00191632
0.00191543
0.00192211
0.0017965
0.00185263
0.00156794
0.00156558
0.00271344
0.00270586
0.00155452
0.00183556
0.00184822
0.00182717
0.00196721
0.00180023
0.00174323
0.00173407
0.00166075
0.00162166
0.00156948
0.00153816
0.0015679
0.00166748
0.00161411
0.00143044
0.00137773
0.00154603
0.00148808
0.00123466
0.00105497
0.00102609
0.000982332
0.000955805
0.00100194
0.00103793
0.00105847
0.00108452
0.00109224
0.00113995
0.0011091
0.00116377
0.00123415
0.00129018
0.00153033
0.00165847
0.00149827
0.00146957
0.00145135
0.0014499
0.0014545
0.00139464
0.00139067
0.00135966
0.00134435
0.00130378
0.00128539
0.00126199
0.00126601
0.00127918
0.00140616
0.00362218
0.00461946
0.00481054
0.00821886
0.00331874
0.00338972
0.00664759
0.00274996
0.00413456
0.00442994
0.0046309
0.00483616
0.00442586
0.00562547
0.00392703
0.00437544
0.00455618
0.00397823
0.00149883
0.00172227
0.00197798
0.00175938
0.00155369
0.00105847
0.00114047
0.00117737
0.00120747
0.00122678
0.00124854
0.00127175
0.00129359
0.00130885
0.00130895
0.00126896
0.00122592
0.00112709
0.00109415
0.00113652
0.0011803
0.0010363
0.000975615
0.00098711
0.00100331
0.00101239
0.0010143
0.00102421
0.00102685
0.0010425
0.00103409
0.00104196
0.0010241
0.00103311
0.0010197
0.000984989
0.000936144
0.000853179
0.000832906
0.00119967
0.00127743
0.00134178
0.00152269
0.00175818
0.00187619
0.00168178
0.00155126
0.0014891
0.00165184
0.00165324
0.00300548
0.00576823
0.00258281
0.00289247
0.00842858
0.00335248
0.00260569
0.0026449
0.00267268
0.00267662
0.00155541
0.00184211
0.00178619
0.00179375
0.00152153
0.00127753
0.00114585
0.0010245
0.000694794
0.000692512
0.000697737
0.00070844
0.000711767
0.000681336
0.000681254
0.000677359
0.000675831
0.000661461
0.000657445
0.000645751
0.000638644
0.000621828
0.000612705
0.000596734
0.000594096
0.000622274
0.000693944
0.000839279
0.000931336
0.00106014
0.00107852
0.00120919
0.00298745
0.00346725
0.00477888
0.00474402
0.00748367
0.0046754
0.00353111
0.00318737
0.00466465
0.00481964
0.00446383
0.0060464
0.0041834
0.00277308
0.00421753
0.00351632
0.00410911
0.00404591
0.00430013
0.00683781
0.00720334
0.00202468
0.00180451
0.00189766
0.00215308
0.00255653
0.00235717
0.00268356
0.00268718
0.00207931
0.00131292
0.00418074
0.00503977
0.00406423
0.00489823
0.00753791
0.00302522
0.00295008
0.00261038
0.00217887
0.00198015
0.00195417
0.00217914
0.00260739
0.00652758
0.00698249
0.00647084
0.00645445
0.00584947
0.00639389
0.00797985
0.00794107
0.00702781
0.00657704
0.00682303
0.00425247
0.00261531
0.00304605
0.00337939
0.00451
0.0046501
0.00983088
0.00333368
0.00368276
0.00373948
0.00500087
0.0048408
0.00856098
0.00362801
0.00391228
0.0051541
0.00689217
0.0127147
0.00463848
0.0048847
0.00702617
0.00713271
0.00651798
0.00470814
0.00426294
0.00464625
0.00350023
0.00342205
0.00291865
0.00430802
0.00580229
0.00459098
0.00445733
0.00378967
0.00337898
0.00345544
0.00358795
0.00298012
0.00293783
0.00338863
0.00251951
0.00244178
0.00257409
0.000716348
0.000367092
0.000375199
0.00038493
0.000392858
0.000401034
0.000407012
0.000414102
0.000417301
0.00041765
0.000418719
0.000442768
0.00043866
0.000424796
0.000385737
0.000440148
0.000698466
0.000698911
0.000439625
0.000387564
0.000695406
0.00110803
0.00130629
0.00154522
0.00156428
0.00134982
0.00117034
0.000720406
0.000709086
0.000429807
0.000501974
0.000545126
0.000483517
0.000539628
0.000500165
0.000529753
0.000535268
0.000495311
0.000492546
0.000494447
0.000490662
0.000481921
0.00047126
0.000458303
0.00044822
0.000442951
0.000439137
0.000430343
0.000356455
0.000332728
0.000401655
0.000642209
0.000642333
0.00060142
0.000565699
0.0005349
0.000520465
0.000516094
0.000512993
0.000521895
0.00053877
0.000543535
0.00054832
0.000590751
0.000572272
0.000611239
0.00057368
0.000612897
0.000575251
0.000529186
0.000444333
0.000458427
0.00073954
0.00074741
0.00120755
0.00138131
0.00156618
0.00157413
0.00175696
0.00185031
0.00156708
0.00162686
0.00186424
0.00173624
0.00154775
0.00155393
0.00139789
0.00139935
0.00123972
0.000774794
0.000764277
0.000479993
0.000466161
0.000555858
0.000546141
0.000607393
0.000650058
0.000650245
0.000648135
0.000631904
0.000626054
0.0005506
0.000539788
0.000540521
0.00052423
0.000521019
0.000544136
0.000595412
0.000700165
0.000847232
0.000921829
0.000952734
0.00091298
0.000816927
0.000604498
0.000545047
0.000945929
0.000980082
0.00176571
0.00418513
0.00196534
0.00371095
0.00267785
0.000664476
0.000740677
0.000944488
0.00105834
0.00114302
0.00119241
0.00109104
0.000911184
0.000686162
0.000566402
0.000843696
0.000729451
0.000822979
0.000718657
0.000930056
0.00107524
0.00104005
0.00104775
0.000885352
0.000721103
0.000763692
0.000685498
0.000755577
0.000632551
0.000761059
0.000687042
0.00086333
0.000871403
0.000853241
0.000808731
0.000615755
0.000646044
0.000541932
0.000587892
0.000527849
0.000545549
0.000516955
0.000602808
0.000694625
0.000666653
0.000664042
0.000545607
0.000427542
0.000472233
0.000408385
0.000462242
0.000359299
0.000435265
0.000364997
0.000472567
0.000487352
0.000490423
0.000488063
0.000397783
0.000467626
0.000571689
0.000599486
0.00060404
0.000575237
0.000443366
0.000686081
0.00061911
0.000755853
0.000653697
0.000715575
0.000651604
0.000759471
0.000972693
0.00101559
0.00102237
0.000829504
0.000824379
0.00150421
0.0834304
0.00135308
0.00159929
0.00164915
0.00164319
0.00135847
0.00132526
0.00164145
0.00121419
0.00171958
0.00108271
0.00183415
0.000699325
0.00106311
0.00114141
0.00113904