/*--------------------------------*- C++ -*----------------------------------*\
| =========                 |                                                 |
| \\      /  F ield         | OpenFOAM: The Open Source CFD Toolbox           |
|  \\    /   O peration     | Version:  v2012                                 |
|   \\  /    A nd           | Website:  www.openfoam.com                      |
|    \\/     M anipulation  |                                                 |
\*---------------------------------------------------------------------------*/
FoamFile
{
    version     2.0;
    format      ascii;
    class       volScalarField;
    location    "935";
    object      epsilon;
}
// * * * * * * * * * * * * * * * * * * * * * * * * * * * * * * * * * * * * * //

dimensions      [0 2 -3 0 0 0 0];


internalField   nonuniform List<scalar> 
18258
(
0.0240443
0.0122868
0.00914647
0.00719406
0.0126766
0.0125681
0.0130286
0.0173781
0.0242065
0.0370666
0.0536562
0.0482188
0.0435864
0.0453266
0.0474796
0.0450156
0.0350427
0.0303048
0.0397985
0.0665418
0.0609334
0.0497357
0.0610643
0.0514405
0.06532
0.0823458
0.0630931
0.0567965
0.0509534
0.0478873
0.0412805
0.0232354
0.0344242
0.0532419
0.0725957
0.0792952
0.0849128
0.0895369
0.0947767
0.0968943
0.0971071
0.0918798
0.0827149
0.0677642
0.0499373
0.0386498
0.0310915
0.0307932
0.0432932
0.044444
0.0552737
0.0851663
0.107654
0.0808125
0.0517946
0.0824284
0.112315
0.144014
0.170513
0.192968
0.200719
0.197339
0.185855
0.169169
0.147761
0.122806
0.101838
0.0849338
0.0671621
0.0573728
0.0464308
0.0385241
0.03296
0.0293011
0.0271002
0.0253737
0.0242085
0.0251429
0.0250315
0.0178522
0.0140427
0.0131903
0.00943512
0.00784058
0.0081547
0.00776167
0.00806589
0.00712051
0.00609558
0.00528892
0.00448306
0.00652069
0.00701057
0.00725131
0.00726981
0.00779312
0.00805833
0.00779954
0.00789409
0.00722169
0.00745941
0.0119365
0.0137125
0.0174051
0.0155547
0.0108132
0.00908763
0.0101336
0.0107573
0.0133599
0.0125543
0.0133367
0.0118333
0.0108059
0.00912892
0.00886782
0.0091067
0.00968197
0.0100851
0.0116854
0.0115149
0.0106777
0.0118095
0.0130314
0.012758
0.0122139
0.011635
0.014282
0.0114898
0.0121766
0.0136773
0.0220395
0.021563
0.0260432
0.0255653
0.026012
0.0261964
0.0315858
0.0317071
0.0320857
0.0324059
0.0341466
0.057184
0.0509467
0.0498338
0.0496396
0.0429578
0.0424886
0.0417905
0.0426038
0.0361393
0.0347959
0.0315475
0.0311793
0.0347822
0.0439183
0.0614058
0.0886644
0.122607
0.158938
0.189195
0.210173
0.231889
0.237264
0.251127
0.25581
0.256702
0.251018
0.242607
0.233136
0.22026
0.201658
0.188664
0.148283
0.104993
0.0590948
0.0784167
0.0904398
0.100182
0.102108
0.103296
0.0992711
0.0931061
0.0819594
0.0664845
0.0432585
0.0479247
0.0651049
0.0675755
0.0684162
0.0543472
0.052432
0.0488333
0.0489232
0.0644288
0.0736936
0.0618634
0.0852906
0.10029
0.0877925
0.0637253
0.0975326
0.14275
0.0802688
0.0680392
0.0524209
0.0513994
0.0433831
0.0368448
0.063124
0.0942094
0.128949
0.149816
0.171436
0.188788
0.2019
0.21581
0.187591
0.17046
0.114852
0.200909
0.152242
0.0768772
0.0565679
0.054599
0.0465802
0.0519387
0.0569253
0.05254
0.0405925
0.027889
0.0246457
0.0461782
0.0644986
0.0779561
0.0619685
0.0788574
0.0889807
0.0962912
0.101589
0.129028
0.0951463
0.105436
0.0751198
0.102129
0.0722315
0.0464123
0.0523957
0.100197
0.159992
0.218923
0.255689
0.145137
0.0733921
0.0543565
0.0541893
0.0525444
0.0476803
0.0593551
0.105761
0.0719349
0.0465668
0.0403237
0.047544
0.0418093
0.0309865
0.0326351
0.0399451
0.0549375
0.068434
0.0813115
0.124825
0.121952
0.147093
0.154167
0.129997
0.125891
0.0815084
0.0834636
0.122701
0.0916093
0.0740397
0.104013
0.147183
0.201475
0.247892
0.288412
0.314368
0.303752
0.274835
0.173867
0.0761241
0.0228989
0.0177886
0.0168307
0.0173064
0.0105183
0.00630062
0.00585341
0.00667554
0.0070241
0.00591719
0.00544384
0.00543347
0.00578418
0.0101833
0.00875184
0.010829
0.0131205
0.0156696
0.018715
0.0194438
0.0129014
0.0087327
0.00819494
0.00813087
0.00806243
0.00803366
0.00804614
0.00808745
0.00810416
0.00807235
0.00799381
0.00785646
0.00772036
0.0076622
0.00829748
0.0111851
0.0153501
0.0148487
0.0135593
0.0122039
0.0110433
0.00871248
0.015152
0.012852
0.0109413
0.0133986
0.0165038
0.0208564
0.0245048
0.0176744
0.0141486
0.0128025
0.0126741
0.0125567
0.0125981
0.0124707
0.0125288
0.0123209
0.0129038
0.0135685
0.0169688
0.0189919
0.0211747
0.0226757
0.0232611
0.0239702
0.0211122
0.0229959
0.0227337
0.0235105
0.0233302
0.0226451
0.0207252
0.0189293
0.0177037
0.0191172
0.023681
0.0323222
0.0267176
0.0207358
0.0167796
0.0137271
0.0149998
0.0166702
0.0168446
0.0158571
0.0156233
0.0154153
0.0138955
0.0131053
0.0110972
0.0104884
0.0100307
0.0101862
0.0143785
0.0135165
0.0137093
0.0144353
0.0155282
0.0146886
0.0151191
0.0142775
0.0145275
0.0149504
0.0170202
0.0185745
0.0178173
0.0165041
0.0160075
0.0137387
0.015843
0.0157002
0.0170195
0.0186027
0.0190958
0.0190323
0.0183956
0.0168027
0.0186916
0.0220582
0.0257112
0.024713
0.0243865
0.0204455
0.0192463
0.0202202
0.0214928
0.022393
0.0224504
0.0222577
0.0223269
0.0262904
0.0258826
0.0246977
0.0226339
0.0201945
0.0175539
0.015153
0.0166202
0.0180932
0.0194771
0.0207419
0.020527
0.0190012
0.0176481
0.0164242
0.0149387
0.01466
0.0161073
0.0173239
0.0187523
0.0204691
0.0205601
0.018842
0.0173475
0.0160686
0.0145996
0.0145559
0.0160526
0.017349
0.0187665
0.0202554
0.019627
0.0184693
0.0172185
0.0159774
0.0145279
0.0145981
0.0159173
0.0169846
0.0180677
0.0190189
0.0198719
0.0179108
0.0170015
0.0170952
0.0161105
0.0192947
0.0185369
0.0194762
0.0180243
0.0168001
0.0178045
0.0209942
0.0240271
0.0245802
0.0243006
0.0201685
0.0206239
0.0205995
0.019181
0.0159616
0.0153656
0.0181313
0.0208624
0.0213244
0.0200211
0.0169261
0.0132865
0.014307
0.017464
0.0197742
0.0185119
0.0183557
0.0169454
0.015863
0.0161572
0.0138787
0.0166174
0.0266629
0.0241163
0.0220949
0.0196246
0.0156333
0.0105962
0.0114943
0.0126494
0.0130631
0.010557
0.0079113
0.00710767
0.0069173
0.00676141
0.00654474
0.00617829
0.00562295
0.00538364
0.0106206
0.0257846
0.0364591
0.0358348
0.0241227
0.0207497
0.0200047
0.0184249
0.00878449
0.00822267
0.00841592
0.0104185
0.00828518
0.00827024
0.0143491
0.00996844
0.0137161
0.0106891
0.0146065
0.0229394
0.0217212
0.0144004
0.00802563
0.00690113
0.00738989
0.00767267
0.0078744
0.00806891
0.00829984
0.00868232
0.00999747
0.0157005
0.020272
0.017738
0.016746
0.0152744
0.0188052
0.0212846
0.0232242
0.0259949
0.016084
0.0117762
0.0166232
0.0272279
0.0247066
0.0232462
0.0171195
0.0176641
0.0171057
0.0110029
0.0106608
0.0105789
0.0113875
0.0127706
0.0146879
0.0158487
0.0165982
0.0169295
0.0178398
0.023108
0.0216207
0.0211045
0.0173256
0.0133395
0.0153798
0.0515215
0.0195304
0.02065
0.0188891
0.0191644
0.0204526
0.0151605
0.0135163
0.01293
0.0146119
0.0214949
0.0215104
0.0213738
0.0182401
0.0174573
0.0208783
0.0219678
0.0223662
0.021749
0.0213069
0.0194464
0.0166745
0.0181053
0.0196223
0.0208103
0.0228139
0.0231526
0.017933
0.0172143
0.0158263
0.0105397
0.0112801
0.00972164
0.00969209
0.00965774
0.00938256
0.0089363
0.00922516
0.00934246
0.00934031
0.00899605
0.0092906
0.00834922
0.00868443
0.00977455
0.0152198
0.0147846
0.0175828
0.0194984
0.0167433
0.0155837
0.0142206
0.0131968
0.0154498
0.0142844
0.0168644
0.0212157
0.0265057
0.0191322
0.0181354
0.0179132
0.0175076
0.0173515
0.0174039
0.0167112
0.0157083
0.01514
0.0235988
0.0212971
0.0181724
0.0172225
0.015788
0.0180411
0.0174831
0.0213805
0.0268628
0.0270689
0.021549
0.0216276
0.0189719
0.0200783
0.0222677
0.0271077
0.0270295
0.0144457
0.00960393
0.0154469
0.0157858
0.0183966
0.017012
0.0185393
0.019721
0.0204426
0.0203008
0.0176994
0.0188716
0.0196587
0.0206427
0.0185897
0.0165842
0.017373
0.0161526
0.0152544
0.0147573
0.0126833
0.0129254
0.0138941
0.0153436
0.0162866
0.0177787
0.0194316
0.0194625
0.0201283
0.0197231
0.0191234
0.0252069
0.0239706
0.0255133
0.0282139
0.0224346
0.0178131
0.0146933
0.0150051
0.0147719
0.0146799
0.0154245
0.0167851
0.0151641
0.0145445
0.01705
0.0194036
0.0246656
0.0330034
0.028736
0.0261849
0.0332042
0.031383
0.0382118
0.0286622
0.0281414
0.020851
0.0262882
0.0305142
0.0391851
0.0255088
0.0209576
0.0224187
0.0255473
0.0347787
0.0327825
0.0331403
0.0411784
0.0399468
0.0362001
0.0311787
0.0353399
0.0212476
0.0301913
0.0322177
0.02682
0.0257012
0.0307357
0.0310647
0.0330023
0.0283736
0.0267665
0.0179132
0.0274272
0.0313683
0.0330571
0.0278027
0.0205355
0.0280084
0.0205522
0.0191867
0.0202988
0.0137815
0.0127307
0.0148029
0.0138748
0.0112024
0.0121485
0.0111638
0.0111465
0.0112227
0.0113315
0.011456
0.0117016
0.0116532
0.0126323
0.013302
0.0125745
0.0115386
0.0122207
0.0126152
0.0161248
0.018213
0.0204817
0.0220772
0.0229177
0.0240516
0.0226833
0.0248271
0.0237662
0.0252157
0.0249164
0.0238567
0.0213604
0.0187468
0.0163886
0.0169953
0.020708
0.027324
0.0223795
0.0173182
0.0140024
0.0115872
0.0128719
0.0161535
0.00874894
0.00800386
0.00772437
0.00756695
0.00746851
0.00667859
0.00585693
0.00771085
0.0127232
0.0161213
0.0202502
0.0258864
0.0321063
0.037579
0.0417607
0.0447413
0.0465703
0.0470529
0.044178
0.0333444
0.0285655
0.0244288
0.0201319
0.0163804
0.0167172
0.0243537
0.032007
0.0395737
0.046262
0.0512733
0.0493745
0.0331333
0.0299433
0.0461508
0.0777219
0.0735206
0.0966041
0.110343
0.0623633
0.0462458
0.045294
0.062188
0.064844
0.0567348
0.0466491
0.0363022
0.0260631
0.0305166
0.0349615
0.0392946
0.0438794
0.0583035
0.0612715
0.0599738
0.0573255
0.0537601
0.048739
0.0414667
0.0328147
0.0248206
0.018799
0.0140503
0.00859462
0.00752663
0.00764397
0.00718002
0.0087503
0.0083931
0.00865613
0.00838448
0.00863613
0.00848647
0.00860196
0.007639
0.00681501
0.0103693
0.00968127
0.00970832
0.0104459
0.0135868
0.0104182
0.00766462
0.00724479
0.00722206
0.0074969
0.0155325
0.0248625
0.030379
0.0350314
0.0388067
0.0374634
0.0339356
0.0281258
0.0218148
0.0196428
0.0166063
0.0141814
0.013036
0.0144045
0.0118553
0.00583988
0.00517655
0.00571817
0.00556678
0.00509106
0.00613943
0.0068427
0.00746691
0.00789884
0.0082154
0.00827873
0.00821803
0.00812771
0.00808287
0.00806157
0.00803119
0.00796351
0.0078646
0.00771857
0.00757854
0.00751172
0.00810525
0.0107263
0.0146605
0.0144168
0.0132987
0.0121849
0.0113197
0.00959534
0.015458
0.0131172
0.0110007
0.0101772
0.0100426
0.0103486
0.0113247
0.0129557
0.013869
0.0158708
0.0159061
0.015791
0.0160848
0.0158751
0.0132808
0.0150757
0.0177512
0.0185716
0.0191799
0.0189578
0.0174193
0.019439
0.020583
0.0200353
0.0194278
0.016621
0.0193813
0.0232963
0.0237365
0.0239944
0.0213182
0.0184762
0.0216468
0.022821
0.0224438
0.0233415
0.0216097
0.0223493
0.0277135
0.014387
0.0133438
0.00804825
0.00883592
0.00912131
0.00887192
0.00860758
0.00897946
0.0092352
0.0089602
0.00964454
0.00996156
0.00926294
0.0117242
0.0108229
0.0104808
0.00987291
0.010316
0.0108943
0.0111828
0.0124067
0.0198431
0.0203751
0.018416
0.021043
0.0216332
0.0181211
0.0206291
0.0214997
0.021838
0.0222108
0.0236806
0.0222075
0.0245131
0.0237813
0.0223484
0.0215919
0.0383761
0.0252999
0.0166796
0.0154306
0.0150934
0.0151545
0.0170745
0.0128086
0.0143632
0.0101484
0.00879774
0.00844329
0.00816923
0.00824529
0.0106676
0.0162464
0.0247518
0.028107
0.0270643
0.0236402
0.0179472
0.0131998
0.012948
0.0117096
0.0109745
0.0108669
0.00724992
0.00510802
0.00652374
0.00659557
0.00719056
0.00761246
0.00795732
0.00821753
0.0083625
0.0084387
0.0085244
0.00864416
0.00877185
0.0088794
0.00896135
0.00901797
0.0090776
0.00919512
0.00949989
0.0107052
0.0153742
0.0197865
0.0186602
0.0171906
0.0158778
0.0166473
0.0174059
0.0181329
0.0223268
0.0191927
0.022102
0.0207829
0.0197999
0.0183823
0.0191082
0.0209076
0.0166848
0.0166183
0.0113593
0.00992548
0.00955287
0.00934397
0.00918243
0.00902159
0.00885714
0.00870901
0.0085673
0.0084424
0.00834274
0.00824642
0.00810329
0.00785621
0.00745062
0.00701842
0.00611078
0.00668881
0.00739023
0.00840919
0.00953651
0.0100554
0.00948102
0.0087493
0.00846356
0.00860813
0.00878838
0.0089834
0.00920526
0.00951446
0.00997724
0.0109456
0.0116058
0.0162937
0.0170359
0.0203012
0.0201038
0.0179996
0.0173508
0.0189572
0.0174568
0.0126978
0.0174587
0.0169938
0.021253
0.0157638
0.0148731
0.0152848
0.0157695
0.0184353
0.0173473
0.0158633
0.0158164
0.0127276
0.0143083
0.0163062
0.0177928
0.0280548
0.0274977
0.0346119
0.0345092
0.0596311
0.0567296
0.0500338
0.0541012
0.0238362
0.0467209
0.0546113
0.0497344
0.0431767
0.0275279
0.0440458
0.0670797
0.0973506
0.0701836
0.057423
0.106843
0.077443
0.0376506
0.0267149
0.0150751
0.0151435
0.0251706
0.0292419
0.0242484
0.0233973
0.03363
0.034996
0.0281824
0.0288567
0.0312396
0.0301676
0.0326572
0.0282688
0.0275548
0.0156056
0.0128081
0.0138446
0.0155819
0.0165845
0.0160669
0.0169138
0.0175918
0.0161485
0.0151199
0.0145566
0.0124876
0.0132261
0.0162179
0.0204432
0.0239564
0.0172959
0.0138937
0.0125906
0.0123948
0.0121671
0.0120481
0.0117282
0.0115437
0.0110766
0.0112877
0.00984384
0.00985553
0.0103893
0.0105484
0.0107492
0.0109047
0.0110262
0.0111379
0.012008
0.0187934
0.0260019
0.0208068
0.016491
0.0140062
0.015196
0.017122
0.0210307
0.0264618
0.0178703
0.0176937
0.0115363
0.0107552
0.0105482
0.0103794
0.0102315
0.0101393
0.0102059
0.010211
0.0119453
0.0115478
0.013455
0.014541
0.0120336
0.0116168
0.0111575
0.0108808
0.0107306
0.0106518
0.0107455
0.0116105
0.0114461
0.0105132
0.0104146
0.0105294
0.0107371
0.0110541
0.0114961
0.0119965
0.0129003
0.0126663
0.0112254
0.0112705
0.0106192
0.0103094
0.0100713
0.0100424
0.0100868
0.0102232
0.010442
0.0113507
0.0171587
0.0173371
0.0266846
0.0266631
0.0211956
0.0177149
0.0155559
0.014301
0.0135681
0.035367
0.0310397
0.0491041
0.0392155
0.0314069
0.0510204
0.072591
0.0563656
0.0918295
0.0992085
0.0730506
0.0660628
0.0210326
0.016011
0.0154715
0.0169633
0.0186598
0.021301
0.0218972
0.0267244
0.0288341
0.0172189
0.0165385
0.0156131
0.0249334
0.0231023
0.0197165
0.0178273
0.0164385
0.0189914
0.0207906
0.0150109
0.0150547
0.00970525
0.0107093
0.0104525
0.0101158
0.0100029
0.00993379
0.0099753
0.0100794
0.0103688
0.0108677
0.0112429
0.0113709
0.0116153
0.0113996
0.011126
0.010801
0.0106104
0.010422
0.01027
0.010154
0.0101914
0.010511
0.0106575
0.00935323
0.00969763
0.00980413
0.0098141
0.00984436
0.0098097
0.00967578
0.00947533
0.0092857
0.00908441
0.00913626
0.00998143
0.0101299
0.0101959
0.0100446
0.00992695
0.00991389
0.0098446
0.00982498
0.00981088
0.00968323
0.00936713
0.00864087
0.00849449
0.00910114
0.00945012
0.0096348
0.00972428
0.00971258
0.00965879
0.00942665
0.00924702
0.00903164
0.00868648
0.00823713
0.00681018
0.00706983
0.00742391
0.00791586
0.00842373
0.00887011
0.00917048
0.00932926
0.00941904
0.00933744
0.00904664
0.00851915
0.00846539
0.00885589
0.00903494
0.00899329
0.00873194
0.00832539
0.00776321
0.00706372
0.00638519
0.00586403
0.0056144
0.0052214
0.00659611
0.00718758
0.00774423
0.00826309
0.00875472
0.00927709
0.00947919
0.00953316
0.00950554
0.00934357
0.00900822
0.00847702
0.00848496
0.00896484
0.0092797
0.00941019
0.00939691
0.00921297
0.00880173
0.00788454
0.00706538
0.00640313
0.00581027
0.00522087
0.00507837
0.00533205
0.00511378
0.00532781
0.00590967
0.00671309
0.00749221
0.00809684
0.00852311
0.00870787
0.00865854
0.00840805
0.008309
0.00843014
0.00837065
0.00806386
0.00749614
0.00675171
0.00595156
0.00531943
0.00513228
0.00545307
0.00578238
0.00547461
0.00438415
0.00493177
0.00549695
0.00609948
0.0070265
0.00821593
0.00880931
0.00912738
0.00928372
0.00921447
0.00892174
0.0084787
0.0084594
0.00888601
0.00917134
0.00922257
0.00908647
0.00880359
0.00831026
0.00687073
0.00538855
0.00475479
0.00439868
0.00396079
0.00555217
0.00591306
0.00549604
0.00522613
0.00566411
0.00621061
0.00684071
0.00735954
0.00779197
0.0081006
0.0082068
0.00817884
0.00804452
0.00804367
0.00798415
0.00777425
0.00751829
0.00730419
0.00686546
0.00641085
0.00588362
0.00643419
0.006719
0.00629411
0.00467508
0.00496597
0.00542304
0.00572175
0.00719641
0.00862616
0.00901927
0.00915356
0.00928434
0.00920812
0.00888401
0.00843767
0.0084212
0.00895102
0.00936231
0.00951086
0.00962648
0.00975482
0.00986965
0.0087201
0.00677671
0.00628234
0.00528269
0.00482531
0.00661152
0.00703474
0.00684343
0.00658053
0.00752222
0.00791815
0.00806282
0.00807824
0.0080967
0.00807722
0.00799103
0.00792654
0.00781087
0.00824668
0.00887952
0.00878019
0.00868291
0.0085251
0.00816353
0.0077088
0.00718958
0.00785915
0.00840652
0.00812964
0.00597298
0.0063475
0.00722868
0.0074477
0.00902944
0.0102267
0.0105548
0.0105256
0.0103892
0.0103472
0.00932043
0.0083844
0.00823246
0.00959855
0.0155912
0.015428
0.015458
0.0153814
0.0148029
0.0146321
0.0140596
0.0138011
0.0130937
0.0126354
0.0119469
0.013999
0.0177796
0.0198935
0.0222852
0.0248073
0.023413
0.0188688
0.0166136
0.010129
0.00799094
0.00689467
0.00597391
0.00527696
0.00507022
0.00753686
0.00940972
0.011589
0.0135466
0.0138535
0.0162785
0.0202159
0.0307734
0.048893
0.0412496
0.0389059
0.0391278
0.0968364
2.54508
2.71951
2.48515
2.89043
3.33344
0.390547
0.151207
0.282181
0.300661
0.337799
0.318143
0.290133
0.266031
0.280189
0.269128
0.280786
0.261699
0.266449
0.232037
0.234601
0.243437
0.722045
1.05662
1.27028
1.76916
1.7648
1.98934
1.9352
1.95093
1.80091
1.91632
1.66546
1.38126
1.30612
1.23465
1.32579
1.44179
1.25102
1.13448
1.01819
0.92682
0.794712
1.00807
0.765171
0.723424
0.722228
0.754803
1.0059
0.917228
1.05583
0.987019
1.03084
0.628777
0.706268
0.514981
0.428112
0.354798
0.425958
0.574471
0.768463
0.961911
0.739879
1.00085
0.92018
0.902989
0.85869
0.780838
0.740944
0.727965
0.749092
0.761921
0.77753
0.805811
0.827405
0.846687
0.998871
1.06479
1.05603
0.864533
0.771938
0.534078
0.571997
0.60564
0.608622
0.566467
0.548727
0.498758
0.486354
0.442053
0.422865
0.38511
0.365789
0.333866
0.461001
0.787322
0.816777
0.886965
0.939432
0.990133
1.01183
1.02971
1.0127
0.97968
0.908593
0.87686
0.812981
0.922542
1.10934
1.10733
1.01764
0.864494
0.818301
3.81372
4.63637
3.07065
6.61831
10.0579
16.8695
7.66901
2.0797
3.48281
2.3936
2.12453
2.07157
2.18824
3.45036
2.52572
3.30388
2.76275
2.91647
2.31704
2.59361
2.45922
1.88068
1.57848
1.33573
1.22844
1.01042
1.01195
0.837395
0.78305
0.71445
0.585847
0.708769
0.717089
1.73075
2.33342
2.90482
4.55141
4.98889
5.44752
8.58114
6.92297
8.64614
5.1331
5.19186
3.83792
3.60962
3.6495
5.021
7.19215
4.95219
8.6507
4.81884
15.6369
34.983
9.22418
19.105
11.0155
9.95512
9.59125
9.87987
14.0494
9.59205
15.5938
13.2053
17.5983
17.2478
18.2756
14.188
10.5288
11.5339
12.3732
15.8778
11.3194
13.0952
10.033
9.81807
9.19826
7.56892
6.63813
5.07897
6.01504
7.03553
8.02051
12.7577
15.9533
18.3037
22.0546
16.2512
18.522
11.1463
12.2521
9.46151
8.88029
9.01847
11.8712
21.0498
14.9069
27.2898
0.499304
0.226411
0.547202
0.230093
0.488154
0.391367
0.403928
0.404867
0.400587
0.462485
0.220679
0.185428
0.177609
0.175448
0.176972
0.100345
0.124601
0.0805033
0.127039
0.229629
0.505466
0.366293
0.140681
0.0826769
0.0546544
0.0429913
0.0635345
0.0613309
0.0980829
0.0994494
0.105807
0.132428
0.228858
0.435104
31.909
7.14353
1.13633
0.532857
0.283401
0.174074
0.150751
0.170428
0.18338
0.186331
0.175279
0.14936
0.107675
0.0718579
0.0486825
0.0412046
0.0300541
0.027658
0.0392699
0.0531197
0.0492924
0.0650248
0.0834044
0.106147
0.130392
0.149758
0.164363
0.168379
0.156366
0.122387
0.0805372
0.044349
0.0264775
0.0228242
0.0208947
0.0194006
0.0167579
0.0145485
0.0131309
0.0112257
0.00989995
0.00893695
0.00863139
0.00875743
0.00956261
0.0120964
0.0145585
0.0188522
0.0179756
0.0134594
0.0126115
0.00781301
0.00722413
0.00737346
0.00762636
0.00844722
0.0132135
0.0135211
0.0133992
0.0134264
0.0132452
0.0132313
0.0130626
0.0128978
0.0126785
0.0122582
0.0119665
0.0114414
0.0111574
0.0104876
0.0105143
0.0108721
0.0111705
0.0101048
0.00999063
0.00930782
0.0207714
0.0493057
0.0702471
0.0786745
0.088415
0.0810949
0.0420471
0.0231622
0.00792361
0.00768005
0.00818149
0.0088178
0.00837097
0.00616642
0.00671354
0.00790295
0.0111114
0.0110929
0.0111276
0.0130062
0.0135588
0.0149205
0.0154721
0.0158487
0.0160785
0.015997
0.016127
0.0158301
0.0159227
0.015712
0.0158009
0.0153951
0.027329
0.0257418
0.0264832
0.026524
0.0277458
0.0272322
0.0267442
0.0257527
0.025049
0.0235103
0.0219232
0.020313
0.0181694
0.0188924
0.0182175
0.0113236
0.0107374
0.00767844
0.00771103
0.00741508
0.0102265
0.00929791
0.00781343
0.00916655
0.00671579
0.00689627
0.00725288
0.010356
0.0108877
0.0173814
0.0174111
0.0154518
0.0164549
0.0175111
0.0188643
0.020026
0.0214589
0.02246
0.0235569
0.0254678
0.0258854
0.0241132
0.0237635
0.0226321
0.0245534
0.0235179
0.0217941
0.0233809
0.025032
0.0275895
0.0272686
0.025077
0.0237486
0.0223325
0.0200001
0.0173513
0.0159482
0.0149164
0.0149184
0.0138548
0.0161301
0.0145253
0.0101018
0.0105779
0.00814983
0.00632552
0.00602008
0.00924252
0.0132459
0.0282792
0.01768
0.00950153
0.0107488
0.0173556
0.0363618
0.0217916
0.0354056
0.0148142
0.0164728
0.0125858
0.0125735
0.0138627
0.0161629
0.0172802
0.0209612
0.0236516
0.0256563
0.026582
0.0279088
0.0283048
0.0297299
0.0301813
0.0329253
0.0331847
0.0332191
0.032749
0.0303329
0.0272725
0.0250703
0.0310246
0.0359385
0.0392595
0.0416892
0.0441681
0.0428878
0.0391297
0.0382431
0.0363063
0.035175
0.0337593
0.0306288
0.0267841
0.0219661
0.0213451
0.0273571
0.0331085
0.0494138
0.0534577
0.0531922
0.0555002
0.0560179
0.0577864
0.0582369
0.0609033
0.0614875
0.0626627
0.0630052
0.0683111
0.0692097
0.0702072
0.0705379
0.0702163
0.0711659
0.0711821
0.0483882
0.0433726
0.0392988
0.0326151
0.0272896
0.0346465
0.0431997
0.0484387
0.0739276
0.0743727
0.0781019
0.0807228
0.0856931
0.0893887
0.0942858
0.0987676
0.103163
0.106552
0.108592
0.108874
0.109327
0.108332
0.107027
0.115758
0.150394
0.166997
0.197811
0.212932
0.225426
0.22926
0.22075
0.224655
0.216742
0.219379
0.213347
0.211489
0.206391
0.200116
0.196647
0.190337
0.186306
0.214645
0.162506
0.124683
0.0827998
0.0664591
0.0597019
0.056278
0.0586788
0.045591
0.0390049
0.0580564
0.0536313
0.0431442
0.0292466
0.0188709
0.0321103
0.0477422
0.0646388
0.081797
0.0974537
0.107684
0.110252
0.109203
0.104493
0.096684
0.0815463
0.0613892
0.0421444
0.0347093
0.0320149
0.0280631
0.0221298
0.0177896
0.0156781
0.0140981
0.0123394
0.0110982
0.0105495
0.0107162
0.0110288
0.0132262
0.0173079
0.0172973
0.011596
0.0111365
0.00766238
0.00775193
0.00801068
0.0133215
0.013468
0.0208872
0.0233303
0.0219722
0.0226594
0.0223945
0.0226922
0.0223347
0.0211548
0.0203185
0.019356
0.0185114
0.0177636
0.0169342
0.0161195
0.0174296
0.0163717
0.0138048
0.0139314
0.0145529
0.0152042
0.0160932
0.0173466
0.0184217
0.0211099
0.0212821
0.0207818
0.0208745
0.0194078
0.0186924
0.0199469
0.0194703
0.0132639
0.0130861
0.0191017
0.0187504
0.0186425
0.0224555
0.0208766
0.021401
0.0225313
0.0224228
0.01949
0.0181316
0.0165825
0.0153976
0.0140139
0.012495
0.0121099
0.0148422
0.0130379
0.0107178
0.0119242
0.0143263
0.0169367
0.0184024
0.0203904
0.0231064
0.0240811
0.02632
0.0277434
0.029839
0.0306779
0.0354802
0.0361452
0.0339973
0.0321535
0.031156
0.0273891
0.0234699
0.0258838
0.0267534
0.0271294
0.0272416
0.0271168
0.0235436
0.0231111
0.0215961
0.0210775
0.0195075
0.0189448
0.0177794
0.0170148
0.0159889
0.0141602
0.0134589
0.0126433
0.0122889
0.0173382
0.010833
0.0105776
0.0159774
0.00983898
0.011575
0.0113238
0.0118471
0.0125092
0.0103382
0.0151184
0.0103116
0.0112112
0.0114548
0.0144006
0.0100136
0.0213756
0.0651881
0.093488
0.112439
0.204026
0.244079
0.264221
0.284844
0.298864
0.314815
0.332294
0.349935
0.36295
0.364343
0.338559
0.319951
0.254813
0.228076
0.251898
0.282108
0.19434
0.166664
0.168942
0.169775
0.172356
0.173609
0.177255
0.175227
0.1803
0.175959
0.183239
0.17722
0.183684
0.176321
0.161017
0.144415
0.111935
0.101214
0.0652795
0.050546
0.0395303
0.0286972
0.020909
0.0187651
0.0177634
0.0164239
0.0165091
0.0126495
0.0130955
0.00839371
0.00617336
0.0098563
0.00968449
0.00722345
0.0098138
0.0112098
0.0117208
0.0122568
0.0125507
0.0191884
0.0192223
0.0246259
0.024537
0.0291095
0.0347122
0.0359547
0.0395993
0.0569528
0.0574679
0.0572122
0.0570275
0.056598
0.049388
0.0491063
0.0479996
0.0474115
0.0444692
0.0439124
0.0418302
0.04069
0.0377477
0.0369218
0.0357956
0.0362695
0.0408624
0.0564498
0.100056
0.0296895
0.0283475
0.0207908
0.0145581
0.0214303
0.0158908
0.0154433
0.0136106
0.0186732
0.0134436
0.0136914
0.0165002
0.0170227
0.0164303
0.0214839
0.0267483
0.0234683
0.0260125
0.117785
0.0765214
0.0247544
0.0488713
0.0723672
0.158536
0.204437
0.140228
0.16011
0.184199
0.16721
0.14039
0.109921
0.0818577
0.0582989
0.0451382
0.011325
0.0133862
0.0185787
0.0413321
0.0612808
0.101346
0.0834426
0.109028
0.148996
0.173508
0.20954
0.201127
0.172984
0.148838
0.145362
0.16041
0.163071
0.105989
0.102948
0.0777878
0.174013
0.219178
0.184655
0.231929
0.244819
0.144787
0.0320124
0.0183612
0.0151087
0.0139069
0.0124261
0.019351
0.0114557
0.0116409
0.0123584
0.0132638
0.016936
0.0293687
0.0134334
0.0149173
0.0183311
0.0158751
0.014902
0.0146252
0.0145345
0.015152
0.0165067
0.0215424
0.0216365
0.0212858
0.0159686
0.0172649
0.0156814
0.0199936
0.0211874
0.0332296
0.0152435
0.0161857
0.0214723
0.478009
0.0246063
0.0178078
0.0232109
0.0218776
0.0300834
0.0439389
0.459549
0.0442299
0.0351177
0.0585528
0.0607891
0.065435
0.0691067
0.0726264
0.075151
0.0791048
0.0817646
0.082996
0.0842258
0.0998764
0.0998682
0.098806
0.103404
0.0975247
0.0576116
0.057821
0.0973241
0.105043
0.0593605
0.0409828
0.0384748
0.0311763
0.0323014
0.0418368
0.0439084
0.0615863
0.0614139
0.102427
0.0934064
0.0948064
0.096558
0.0915629
0.0920361
0.094088
0.0940767
0.0753406
0.0730327
0.0712735
0.0682196
0.0646756
0.0617763
0.0588853
0.0558579
0.0533524
0.053631
0.0586839
0.0584217
0.0663906
0.0741623
0.226399
0.154398
0.109921
0.0810722
0.0655772
0.059106
0.0585094
0.0616203
0.0648381
0.0664945
0.0672984
0.0706595
0.0923634
0.0947504
0.0976074
0.0950627
0.0988776
0.0969283
0.0944663
0.104357
0.112172
0.0655624
0.0676393
0.0477414
0.0445341
0.0324858
0.0330429
0.0235739
0.0195438
0.0195286
0.0195074
0.0197311
0.0226119
0.0316102
0.0317182
0.0463502
0.0462656
0.0517021
0.0752864
0.0723459
0.129016
0.118245
0.10858
0.101264
0.10164
0.103771
0.106366
0.101362
0.0976926
0.0921456
0.0724
0.0683991
0.0662696
0.0650346
0.0638392
0.0675527
0.0915976
0.149008
0.228308
0.334941
0.435808
0.445974
0.403197
0.25331
0.292366
0.145893
0.165909
0.188231
0.164552
0.173404
0.32119
0.267116
0.378763
0.483753
0.537808
0.604503
0.642117
0.631594
0.502909
0.327562
0.335145
0.445555
0.771999
0.865581
0.744914
0.762507
0.659227
0.541046
0.522547
0.497814
0.561643
0.612439
0.57798
0.594715
0.538876
0.514679
0.444716
0.49617
0.362485
0.326466
0.306861
0.297999
0.357047
0.288892
0.325389
0.267433
0.273685
0.222395
0.227893
0.19025
0.145654
0.138092
0.128024
0.143342
0.162512
0.14889
0.15334
0.133905
0.114485
0.0911698
0.0984191
0.0735368
0.0696103
0.0708389
0.0809752
0.127387
0.372819
0.174235
0.163845
0.167768
0.177966
0.319097
0.282624
0.723739
0.507141
0.709168
0.473906
0.562393
0.470524
0.362968
0.378522
0.418341
0.598634
0.821917
6.65208
0.284687
4.26211
3.16405
3.32271
3.46841
4.44576
7.8058
7.10878
9.38823
6.80404
9.07825
4.97497
4.97612
4.32581
4.47122
4.43932
4.26336
5.20644
6.65738
0.239039
0.0910248
0.085429
0.0856063
0.0873814
0.197725
0.0525517
0.201953
0.0539461
0.213392
0.0494976
0.246581
0.196837
0.0382292
0.0192572
0.0200884
0.0168069
0.0203741
0.0169227
0.0250465
0.0235423
0.0237008
0.0265965
0.0763858
0.292553
13.8507
1.67471
0.70008
0.799849
1.19712
0.814488
1.2155
1.68703
1.13596
0.567803
0.372921
0.439865
0.531789
0.507497
0.646385
0.929617
0.909266
0.714916
0.718763
0.634627
0.894441
0.903032
1.06924
1.24799
1.14138
0.895743
0.706333
0.598676
1.02864
1.03249
0.96542
0.410826
0.116471
0.0472676
0.0496687
0.035912
0.0378858
0.0348885
0.0558259
0.163232
0.224133
0.135399
0.433668
0.417639
0.566682
0.404328
0.413958
0.327221
0.351114
0.53584
0.58523
0.644827
0.675953
0.726882
0.672472
1.29151
2.21361
2.5045
12.8739
17.4351
3.20973
3.10078
13.9545
0.315109
0.0839447
0.023325
0.0174332
0.0162176
0.01613
0.015001
0.0155383
0.0159998
0.0169635
0.0188286
0.0231944
0.0458249
0.201422
0.203387
0.0643304
0.0324254
0.0229695
0.0196162
0.0170465
0.0163872
0.0155318
0.0154596
0.0150085
0.0156584
0.0174657
0.0237844
0.0774435
0.271027
11.3264
2.4387
2.25744
8.38473
5.79628
0.206758
0.0437966
0.020095
0.0169273
0.0158843
0.0167543
0.016266
0.0182116
0.0184026
0.0230167
0.0250216
0.0317643
0.0570684
0.110165
0.315458
9.58031
8.6529
8.37491
7.81395
0.310109
0.115185
0.0543909
0.0382317
0.0346256
0.0338207
0.02265
0.0236749
0.0189829
0.0216419
0.0182958
0.0226838
0.0483134
0.211926
5.35401
1.57226
1.70322
1.21006
0.613541
0.656327
0.670345
0.690024
1.77864
4.07136
5.00333
3.43597
3.36729
4.71728
3.17705
2.48657
1.83298
1.75041
2.55024
1.96597
1.82764
1.35859
1.46846
1.06868
1.46829
0.811892
0.977527
1.07374
1.5327
1.39857
1.4114
0.909102
1.05125
1.47659
1.72613
1.6499
0.844581
1.22772
1.01472
0.655355
0.607985
0.634666
0.604626
0.579463
0.576052
0.580306
0.559101
0.576387
0.556503
0.588452
0.547967
0.533229
0.507579
0.527347
0.544951
0.577658
0.360239
0.422743
0.427079
0.441568
0.454218
0.375267
0.451341
0.442372
0.65971
0.995742
0.837572
1.15889
0.681546
1.00504
2.00972
5.21097
2.35944
0.822742
1.34935
1.58348
1.13986
0.628715
2.55369
3.55951
1.23068
1.78439
10.3776
8.42857
16.5087
10.9765
18.6502
6.04377
4.63782
17.8159
6.68269
6.92066
4.52158
4.52644
2.96284
1.58761
1.63183
1.74536
1.22911
1.30252
1.21243
1.13478
1.47674
1.44281
1.89038
2.03917
2.58305
1.81452
1.7799
2.60565
1.06509
1.4036
1.84165
1.834
1.36319
2.34892
3.16462
2.98012
2.14846
2.34173
3.51076
4.82651
4.59109
3.17953
3.98271
10.1458
13.5421
13.7008
4.23019
19.311
18.3135
2.0887
0.571773
0.328026
0.090634
0.0447201
0.036667
0.0387029
0.143956
0.0458224
0.0571227
0.0456534
0.0737571
0.0701513
0.0876684
0.219806
0.127273
0.217927
0.156709
0.192161
0.122701
0.196156
0.229922
0.240134
0.191316
0.117495
0.21605
0.310776
0.107692
0.358984
0.394917
0.264033
0.336987
0.401371
0.199445
1.00078
0.186552
0.128622
0.148852
0.39804
1.27039
0.221367
0.4655
4.49489
14.7277
3.69806
0.945318
0.68657
0.0556673
0.0302055
0.0320348
0.0279574
0.0194071
0.0847223
0.0996609
0.407569
0.209753
0.278439
0.662276
2.92798
2.40119
1.13472
5.50764
10.2786
15.1571
9.14364
2.24643
9.77811