/*--------------------------------*- C++ -*----------------------------------*\
| =========                 |                                                 |
| \\      /  F ield         | OpenFOAM: The Open Source CFD Toolbox           |
|  \\    /   O peration     | Version:  v2012                                 |
|   \\  /    A nd           | Website:  www.openfoam.com                      |
|    \\/     M anipulation  |                                                 |
\*---------------------------------------------------------------------------*/
FoamFile
{
    version     2.0;
    format      ascii;
    class       volScalarField;
    location    "935";
    object      k;
}
// * * * * * * * * * * * * * * * * * * * * * * * * * * * * * * * * * * * * * //

dimensions      [0 2 -2 0 0 0 0];


internalField   nonuniform List<scalar> 
18258
(
0.0334609
0.0157726
0.0123143
0.0101642
0.0109881
0.0139928
0.016791
0.0211589
0.0255798
0.0315208
0.0385917
0.0475266
0.0535312
0.0606876
0.063658
0.0619287
0.0520545
0.0473049
0.0564742
0.080986
0.0710777
0.0513943
0.0623422
0.0614969
0.0722514
0.0763249
0.0600735
0.0548567
0.0494387
0.0437529
0.0371872
0.0230201
0.0240868
0.0288539
0.0320658
0.0357744
0.0386275
0.0409477
0.0426023
0.0434127
0.0433095
0.0420063
0.039314
0.0352855
0.0298475
0.0238988
0.0236381
0.0236988
0.0293981
0.0350493
0.0405327
0.046152
0.0545852
0.0446734
0.0290411
0.0391921
0.0476639
0.0545498
0.0589748
0.0614237
0.0621881
0.0612762
0.0589878
0.05573
0.0517712
0.0474353
0.0434217
0.0394407
0.0342023
0.0309445
0.0268378
0.0234973
0.0210602
0.01935
0.0182329
0.0172287
0.0163622
0.0156283
0.0150123
0.0145881
0.0144966
0.0145225
0.0146224
0.0147179
0.0150599
0.0127133
0.0109419
0.0104735
0.0102165
0.00956319
0.00810469
0.0106546
0.0117561
0.0121719
0.012441
0.0136186
0.0147809
0.0143599
0.0136338
0.0125187
0.0125773
0.0170403
0.0178144
0.0228567
0.0216811
0.0168743
0.0148798
0.0166669
0.0195026
0.0225355
0.0192492
0.0192297
0.0179352
0.0170279
0.0148868
0.0149295
0.01442
0.0141142
0.015036
0.0177881
0.0171966
0.0173047
0.0185263
0.0188507
0.0200778
0.0210958
0.0204428
0.0202613
0.0164144
0.0163148
0.0173561
0.0172303
0.0177101
0.0201985
0.0202561
0.0206038
0.0208213
0.0236062
0.0236248
0.0235901
0.0236813
0.0245215
0.0235574
0.0231443
0.023173
0.0232088
0.0210439
0.0208202
0.020454
0.0204915
0.0183309
0.0175955
0.0183258
0.0193047
0.0212786
0.0250279
0.0314606
0.0403784
0.0504683
0.0607032
0.0684677
0.0728212
0.0771806
0.0766444
0.0773433
0.0794392
0.0798069
0.0786626
0.076813
0.0746483
0.0716941
0.0670588
0.0665732
0.0589361
0.0480694
0.033393
0.0388925
0.0417314
0.0444912
0.044805
0.045295
0.0440916
0.0423429
0.0387615
0.0336598
0.024773
0.0257195
0.0301682
0.0348342
0.0386227
0.0427862
0.0464213
0.0482807
0.0499962
0.0593601
0.0570918
0.0551809
0.0568737
0.058437
0.0616435
0.0600749
0.0561339
0.0501668
0.0518055
0.0449125
0.0335655
0.0313552
0.0292391
0.0269822
0.0378759
0.0496804
0.0612189
0.0675433
0.0736963
0.0785203
0.0825325
0.0870416
0.0815868
0.0764432
0.0577373
0.083814
0.0657538
0.0504956
0.0411562
0.0331944
0.0316467
0.0343866
0.034425
0.0326115
0.0280577
0.0220511
0.0229756
0.0358106
0.0455991
0.0536007
0.0551796
0.0598719
0.0622833
0.0570171
0.0575895
0.0467686
0.0479721
0.0513921
0.0459843
0.0437262
0.0351123
0.027413
0.0335594
0.049956
0.0685807
0.0844734
0.0994848
0.0659983
0.0501523
0.0410463
0.0341957
0.0330497
0.0376882
0.0436494
0.052844
0.0412253
0.0371468
0.0336228
0.0307461
0.025829
0.0275546
0.0287806
0.0269513
0.0498206
0.057385
0.0611217
0.083526
0.0924571
0.108341
0.10704
0.0925811
0.0962636
0.0690974
0.068829
0.086135
0.0682028
0.0513263
0.0615912
0.0744983
0.0883279
0.101517
0.112862
0.121983
0.12366
0.11216
0.0813103
0.0468131
0.0212934
0.0186361
0.0180803
0.0173739
0.0164895
0.0157008
0.0150835
0.012146
0.0095118
0.00928196
0.0094593
0.00940333
0.00826694
0.00951503
0.0115773
0.0137706
0.0152797
0.0164897
0.0175108
0.0182458
0.0188348
0.0192337
0.0195308
0.0197991
0.0200352
0.0202221
0.0203612
0.020453
0.0204966
0.0204834
0.0204071
0.0202661
0.0200587
0.019769
0.0192935
0.0177609
0.0159077
0.01508
0.0151391
0.0148895
0.0145874
0.0119522
0.0123248
0.0143454
0.0149781
0.0177691
0.0198047
0.0215075
0.0229609
0.0244867
0.0252623
0.0260889
0.0263527
0.0264029
0.0263
0.0261467
0.0259187
0.0256114
0.0245417
0.0212906
0.0248941
0.0272886
0.0289786
0.0303324
0.0312384
0.0313408
0.0285884
0.0360736
0.0385285
0.0394317
0.039698
0.0388811
0.0368754
0.0344325
0.0323817
0.030875
0.0297581
0.0276156
0.0253686
0.0230599
0.0206448
0.0174231
0.0186939
0.0205294
0.0207395
0.0204489
0.0214939
0.0227535
0.0210996
0.0190091
0.0161195
0.0151218
0.0146318
0.0144427
0.0148495
0.0145048
0.0144028
0.0149007
0.0179134
0.0190078
0.0207085
0.0239659
0.022833
0.0208892
0.0280611
0.0296724
0.0301203
0.0304688
0.030377
0.0296209
0.026543
0.025086
0.0264722
0.0250145
0.0243837
0.024473
0.0241056
0.0222426
0.0245427
0.0265431
0.0281338
0.0289817
0.0302196
0.0317738
0.0339341
0.0357272
0.0373854
0.0383867
0.0383611
0.0378196
0.0379955
0.0386378
0.038314
0.0366272
0.0345571
0.0324719
0.0295163
0.0293434
0.0313096
0.0328653
0.0345205
0.0362927
0.035614
0.0337286
0.0321077
0.0306941
0.0289913
0.0288733
0.030543
0.0319807
0.0337153
0.0358343
0.0360169
0.0338744
0.0320586
0.0305589
0.0288621
0.0288309
0.0305261
0.032035
0.0337572
0.0356458
0.0347772
0.0333059
0.0317847
0.0303199
0.0286599
0.028223
0.0298232
0.0312031
0.0325159
0.0335814
0.0319078
0.0313181
0.0302491
0.0288618
0.0271068
0.0258516
0.02636
0.0277458
0.0278565
0.0283348
0.0294519
0.0292974
0.0290146
0.0289699
0.0286883
0.0264426
0.0268498
0.0268985
0.0275904
0.0308874
0.0304082
0.0330778
0.0354875
0.0331801
0.0316936
0.0281291
0.0336874
0.0337295
0.0346875
0.0335144
0.0237468
0.0218937
0.0228949
0.0244273
0.0260668
0.0253796
0.0226278
0.0225572
0.0231588
0.0225717
0.0210111
0.0180308
0.0135512
0.0135602
0.013552
0.014286
0.0170896
0.0186899
0.0188027
0.0186485
0.0183466
0.0178748
0.017158
0.0160868
0.0156264
0.0246186
0.04458
0.0564017
0.0558156
0.042447
0.035523
0.0261635
0.0179638
0.0105695
0.0107344
0.011376
0.0137311
0.011576
0.0105241
0.0145112
0.0118023
0.0197207
0.0228972
0.0302536
0.041303
0.0398471
0.030229
0.0204338
0.0184599
0.0193251
0.0198398
0.0202277
0.020609
0.0209935
0.0214108
0.0219177
0.0215866
0.018953
0.0167119
0.0168379
0.0174091
0.0199109
0.0212901
0.0220838
0.0217545
0.0220075
0.0237301
0.0224839
0.0212542
0.0210445
0.0203384
0.02318
0.0235282
0.0229037
0.0229136
0.023193
0.0230747
0.0232054
0.0240102
0.0198123
0.0219245
0.0224744
0.0227578
0.0235524
0.0190521
0.0192402
0.0193027
0.0181459
0.0148876
0.0180198
0.0167772
0.0121612
0.0134773
0.0134417
0.0140535
0.0143794
0.0171241
0.0162864
0.0155606
0.016322
0.0223033
0.0231131
0.0232927
0.0206513
0.0194074
0.0218968
0.0224853
0.0220249
0.0211385
0.0213048
0.0203608
0.0184572
0.0177376
0.0178749
0.0192872
0.0200853
0.0201525
0.0237664
0.0232653
0.021702
0.0227019
0.0232959
0.0228889
0.0227802
0.0227267
0.0223549
0.0219343
0.0223476
0.0225358
0.0225879
0.0221465
0.0223969
0.0250384
0.0214773
0.0212846
0.0201973
0.0195373
0.0179055
0.0176522
0.0177504
0.0177101
0.0176151
0.0167761
0.0186371
0.0179097
0.0200457
0.0216605
0.0228138
0.0239876
0.0241387
0.0237094
0.0236703
0.023286
0.0232526
0.0227012
0.0218524
0.0212662
0.0204877
0.0192766
0.0192689
0.0192191
0.0190745
0.0204823
0.0203806
0.0219484
0.0230715
0.0227863
0.0218183
0.0217102
0.0205307
0.0205081
0.0215524
0.0224444
0.022694
0.0235571
0.0260907
0.023744
0.0252967
0.0259946
0.0266573
0.0260455
0.024948
0.0256967
0.0240337
0.0229199
0.0242383
0.0249611
0.0262219
0.0270165
0.0250387
0.0240104
0.0228136
0.021951
0.0209652
0.0184398
0.019052
0.0198416
0.0210733
0.0228887
0.0256103
0.0283464
0.0312668
0.0313224
0.0290239
0.0273257
0.0321241
0.0316002
0.0365728
0.0371714
0.0330501
0.030249
0.0273379
0.0269131
0.025994
0.0254587
0.0241828
0.0254335
0.0258599
0.0249129
0.0273818
0.0289531
0.0332835
0.0388453
0.035511
0.0326811
0.0377333
0.0366472
0.0426127
0.0363962
0.0347356
0.0285989
0.0332001
0.0355528
0.0432989
0.0338951
0.0297131
0.029486
0.0308075
0.0382914
0.0368357
0.0394352
0.0445901
0.0439277
0.0390473
0.0358151
0.041578
0.0316217
0.0370475
0.0390572
0.0324321
0.0321984
0.0390769
0.0396937
0.0398504
0.0337645
0.0330448
0.0250331
0.0335883
0.0400709
0.0399746
0.0331915
0.0259869
0.0358962
0.0315417
0.0313427
0.0313424
0.0269504
0.0268852
0.0261772
0.026434
0.0271472
0.0247115
0.0255172
0.0257773
0.0259401
0.0260709
0.0262626
0.0266065
0.0272497
0.0279758
0.0228996
0.0243459
0.0229896
0.0216412
0.0202813
0.0240616
0.0265373
0.0283429
0.0297963
0.0309302
0.0314117
0.0299897
0.0379642
0.0396864
0.0413162
0.0414776
0.0402559
0.037625
0.0342106
0.0307578
0.0285471
0.0272139
0.0246985
0.0225666
0.0204915
0.0183356
0.0155336
0.0142203
0.0129152
0.0115806
0.0112664
0.0107445
0.0101569
0.00948699
0.0091345
0.0115397
0.0183671
0.0277188
0.0327814
0.0381193
0.0447022
0.0514663
0.0570344
0.0611364
0.063971
0.0656841
0.066099
0.0634011
0.0524709
0.0474672
0.0426083
0.0376977
0.0327495
0.03208
0.0411633
0.0494638
0.056508
0.062877
0.0670453
0.0654435
0.0499715
0.0467676
0.0622687
0.0896946
0.0804172
0.103334
0.119766
0.0794484
0.0648921
0.0642123
0.0795484
0.0820157
0.075334
0.0663072
0.0563963
0.045445
0.0504394
0.0551942
0.0597274
0.0642711
0.0776732
0.0802685
0.0791311
0.0767832
0.0735814
0.0689605
0.0619742
0.0530731
0.044084
0.0365133
0.0295948
0.0195303
0.0126237
0.0134816
0.0129663
0.0147472
0.0142992
0.00991586
0.0102552
0.0104764
0.0104222
0.0101967
0.0102515
0.0116459
0.018326
0.0150184
0.0136427
0.0117455
0.0145126
0.0164247
0.0183617
0.0189782
0.0191344
0.019622
0.0318097
0.0434263
0.0495444
0.0544183
0.0582145
0.0568318
0.0531811
0.0469181
0.0396046
0.0369554
0.0330177
0.0297122
0.0280652
0.0290405
0.0255195
0.0158597
0.014643
0.0157121
0.0154073
0.0144157
0.0163653
0.0175879
0.018366
0.0189954
0.0194662
0.0198286
0.0200876
0.0202599
0.0203509
0.020379
0.0203585
0.0202942
0.020185
0.0200279
0.0198123
0.0195081
0.0189889
0.0172733
0.0154278
0.0147085
0.014792
0.01456
0.0141953
0.0123159
0.0125418
0.0144015
0.0150053
0.0146169
0.0152112
0.0156853
0.0168981
0.0190746
0.021214
0.0230517
0.0217386
0.0210785
0.0210453
0.0206413
0.0174548
0.0207644
0.0236676
0.0241857
0.0244628
0.0252855
0.0268875
0.0278381
0.0268989
0.0263895
0.0258544
0.0227399
0.0243708
0.0279279
0.0283461
0.0290274
0.0296287
0.0302064
0.0314911
0.0308578
0.0299631
0.0293635
0.0265108
0.0256327
0.0316571
0.0206628
0.0144462
0.0103371
0.0108079
0.0110025
0.0106601
0.0114356
0.011983
0.0122355
0.0116254
0.0127056
0.013624
0.0129285
0.0154582
0.0147542
0.0137383
0.0132707
0.0141103
0.0148977
0.0152914
0.0163182
0.0264218
0.0272074
0.0227638
0.0292776
0.0318566
0.0290445
0.0319208
0.0295553
0.0282074
0.0309962
0.0344053
0.0356834
0.033326
0.0319259
0.0313059
0.0208433
0.0201574
0.0194396
0.0175894
0.0178658
0.0174081
0.016957
0.0165543
0.0191054
0.0205025
0.0217184
0.0214187
0.0211204
0.0207103
0.0208203
0.0246852
0.0326311
0.0431553
0.0469339
0.045739
0.0417742
0.0347565
0.0283289
0.0279828
0.0261587
0.0249987
0.0247831
0.0188645
0.0148826
0.0174115
0.0173617
0.0184327
0.019111
0.0196465
0.0200759
0.0204364
0.0207503
0.0210562
0.0213406
0.0215893
0.0217983
0.0219771
0.0221248
0.0222824
0.0224721
0.0227332
0.0229419
0.0212891
0.0186455
0.0172914
0.0171434
0.0178623
0.0187683
0.0198956
0.0191337
0.0154061
0.0154923
0.0219141
0.0223806
0.0210135
0.0195872
0.0197909
0.0189473
0.0227876
0.022596
0.0234124
0.0232103
0.0229298
0.0226465
0.022363
0.0220677
0.0217684
0.0215057
0.0212657
0.0210426
0.0208238
0.0205895
0.0203054
0.0198879
0.0191915
0.0183818
0.0168818
0.0180078
0.0192645
0.02099
0.0228355
0.0236825
0.0227849
0.0215924
0.0211193
0.0213744
0.0216942
0.0220329
0.0223933
0.0228125
0.023229
0.0236178
0.0235527
0.0222044
0.0228531
0.0174918
0.0183445
0.0186459
0.0186049
0.0202645
0.0193968
0.0146642
0.015182
0.0159124
0.0172061
0.0198095
0.0201798
0.0215462
0.0217778
0.0173472
0.0170437
0.016615
0.0176177
0.0152381
0.0158854
0.0266793
0.027273
0.0350289
0.0384079
0.0399965
0.0331788
0.0456388
0.0525121
0.0506496
0.0409415
0.0235408
0.0346972
0.0422209
0.0488922
0.0458404
0.0356805
0.0450041
0.0474407
0.0633697
0.05904
0.0526708
0.0634087
0.04481
0.0269703
0.0158336
0.0164036
0.0152005
0.0306952
0.0348075
0.0315141
0.0323707
0.040003
0.0410147
0.0362809
0.0345685
0.0363268
0.0358751
0.0398468
0.0371555
0.0337455
0.0233255
0.0190399
0.0198852
0.0213004
0.0231326
0.0254768
0.0253731
0.024226
0.0228557
0.0218752
0.0208155
0.018314
0.0176514
0.019614
0.0212453
0.0226245
0.0241363
0.0249586
0.0258005
0.0259641
0.025854
0.0255289
0.0250983
0.0245417
0.0238566
0.0224472
0.0236905
0.0243699
0.0245782
0.0248565
0.0251698
0.0254475
0.025591
0.0254777
0.0245227
0.0237074
0.0225371
0.0214193
0.0198112
0.0176918
0.0183762
0.0201384
0.0217415
0.0228563
0.0239078
0.0235196
0.0240148
0.0246761
0.0246976
0.0245141
0.0242904
0.0241411
0.0242365
0.0248719
0.026591
0.0263123
0.029135
0.0303156
0.0277497
0.0264217
0.0257312
0.0253074
0.0250638
0.0248591
0.0246609
0.0241153
0.0235763
0.0240777
0.0243296
0.0246234
0.0249757
0.0254753
0.026158
0.0272434
0.0286447
0.0285302
0.0263232
0.0261783
0.0251162
0.0243254
0.0239421
0.0238865
0.0239285
0.0240306
0.0239692
0.0234462
0.0231151
0.0235197
0.0225058
0.0225695
0.0215963
0.0202341
0.0187907
0.0173378
0.0166751
0.0353524
0.035333
0.0458263
0.0425143
0.0371864
0.0472606
0.0602619
0.0522381
0.0629341
0.0667373
0.054245
0.0503411
0.0279484
0.0244572
0.0174111
0.0189382
0.0202862
0.0214941
0.0213104
0.0222341
0.0221163
0.0230885
0.0225451
0.0217637
0.0212067
0.0201882
0.0202433
0.0189692
0.017422
0.017289
0.0189404
0.0200012
0.0211829
0.0211802
0.0226431
0.0231421
0.0235433
0.0236985
0.0236948
0.0237928
0.0239708
0.0244279
0.0251462
0.0256138
0.0257494
0.026117
0.0258513
0.025543
0.025102
0.0248053
0.0244978
0.0242263
0.0239365
0.0236603
0.0232284
0.022571
0.022452
0.0229663
0.0233052
0.0235352
0.023663
0.0236345
0.023429
0.0231
0.0227678
0.0224054
0.0224679
0.023833
0.024093
0.0242323
0.0240162
0.0238327
0.0238015
0.0236633
0.0235526
0.0233159
0.0229432
0.0224736
0.0214043
0.0215036
0.0223857
0.02283
0.0231637
0.0234502
0.0234892
0.0234247
0.023057
0.0227645
0.0224048
0.0218228
0.021058
0.0185499
0.0190233
0.0196602
0.0205237
0.0213914
0.0221317
0.0226069
0.022811
0.0228168
0.0226484
0.0222964
0.0215454
0.0215247
0.0220647
0.0222287
0.0221689
0.0218505
0.0212114
0.0202641
0.0190366
0.0178003
0.0168186
0.016337
0.0155646
0.0181889
0.0192616
0.0202446
0.0211383
0.0219646
0.0228195
0.0231283
0.0231672
0.0230025
0.0227314
0.0223167
0.0215446
0.0215492
0.0222535
0.0226452
0.0228658
0.0229607
0.0227074
0.0220484
0.0204994
0.0190581
0.0178493
0.0167295
0.0155777
0.0152929
0.0157984
0.0153645
0.015789
0.0169147
0.0184054
0.0197838
0.0207912
0.0214057
0.0217062
0.0217449
0.0214189
0.0212337
0.0213543
0.021145
0.0206384
0.0197617
0.0184714
0.0169991
0.0157812
0.0154119
0.0160483
0.0166872
0.0160889
0.0138745
0.0150078
0.0161343
0.017292
0.0189987
0.0210752
0.022055
0.0225326
0.0226686
0.0225403
0.0221737
0.0215209
0.0214621
0.0220866
0.0224461
0.0225533
0.022457
0.0220406
0.0212314
0.0187104
0.0159141
0.0146429
0.0139049
0.0129681
0.016243
0.0169369
0.0161277
0.0155928
0.0164501
0.0174849
0.0186294
0.0195145
0.0201595
0.0206687
0.0209529
0.0209895
0.0207123
0.0205883
0.020361
0.0200139
0.0196797
0.019351
0.0185835
0.0177519
0.0167729
0.017832
0.0183931
0.0176411
0.0144684
0.0150353
0.0159108
0.0164635
0.0191738
0.021638
0.0222714
0.0224364
0.0225229
0.0223829
0.0219859
0.0213709
0.0212445
0.021883
0.0223716
0.022684
0.0230001
0.0232617
0.0234558
0.0215726
0.0182088
0.0173885
0.0155987
0.0147544
0.0182017
0.0188811
0.0184096
0.0178562
0.0195489
0.0202523
0.0204888
0.0204649
0.0203798
0.0202849
0.0203071
0.0204283
0.0201264
0.0199961
0.020098
0.0203204
0.02029
0.0200821
0.0195193
0.0187477
0.0176331
0.0194815
0.0211469
0.0208724
0.0169946
0.0175342
0.0184232
0.0180527
0.0208346
0.0226843
0.0231532
0.0230661
0.0227302
0.0222437
0.0216956
0.0210543
0.0207725
0.0213403
0.0219117
0.0219458
0.0220449
0.0219993
0.0214403
0.0212768
0.0207044
0.0204349
0.0196731
0.0190911
0.0183445
0.0205087
0.0237271
0.0259434
0.0275329
0.02943
0.0279706
0.0244305
0.0221528
0.0152622
0.0152703
0.0154923
0.014866
0.0144905
0.0143056
0.0187328
0.0214706
0.0241426
0.0258464
0.0234101
0.023371
0.0232807
0.0231631
0.0230455
0.0229316
0.0227108
0.0233333
0.0405759
0.282464
0.2084
0.234467
0.223626
0.314863
0.0785062
0.0386464
0.0429943
0.0501208
0.0579435
0.0565677
0.0529569
0.0463442
0.0423096
0.0419307
0.0413973
0.041203
0.0393535
0.0392902
0.0380904
0.045835
0.0966664
0.124456
0.137942
0.146339
0.155188
0.150604
0.159507
0.151339
0.151791
0.153359
0.158103
0.150733
0.143429
0.139653
0.135383
0.118083
0.118422
0.0999601
0.103766
0.0865979
0.0911333
0.095045
0.0943931
0.0931882
0.0929785
0.0932717
0.0941162
0.097874
0.0931753
0.0999739
0.0925095
0.0747145
0.0722432
0.0742637
0.0683125
0.0596871
0.0674063
0.0829881
0.0995036
0.116914
0.0997963
0.123801
0.116571
0.116096
0.110165
0.103568
0.0997286
0.0989514
0.0995474
0.10067
0.10332
0.10526
0.106868
0.109802
0.118381
0.120741
0.119344
0.101772
0.086377
0.0948183
0.0996468
0.103285
0.10352
0.0987292
0.0966294
0.0905319
0.0889744
0.0834938
0.0808821
0.0754695
0.0721403
0.0673555
0.0839065
0.0820187
0.0890085
0.0952977
0.0995118
0.103182
0.104774
0.106082
0.104909
0.102547
0.0975274
0.0953918
0.090564
0.109133
0.12764
0.130386
0.12572
0.112191
0.106512
0.340102
0.412503
0.414061
0.61451
0.656278
0.848671
0.336618
0.180021
0.192646
0.189326
0.18112
0.177938
0.177754
0.189573
0.19873
0.189731
0.201543
0.179403
0.178087
0.171237
0.198894
0.196326
0.176656
0.154645
0.122867
0.101989
0.102299
0.0862674
0.0873744
0.075569
0.0755914
0.0761622
0.0931496
0.172191
0.21015
0.236786
0.263164
0.323604
0.293211
0.442759
0.354306
0.439646
0.303442
0.328306
0.313984
0.305186
0.303214
0.319309
0.342176
0.300819
0.374242
0.299754
0.648994
0.785847
0.496929
0.459764
0.407579
0.393347
0.383411
0.377839
0.369811
0.487624
0.452119
0.555338
0.51587
0.647291
0.567516
0.575691
0.54246
0.580498
0.599964
0.614118
0.492754
0.539061
0.422173
0.457669
0.382524
0.417761
0.294057
0.293023
0.335363
0.372071
0.398098
0.455264
0.715294
0.607067
0.818653
0.585942
0.707995
0.491721
0.53923
0.51494
0.497328
0.499091
0.527312
0.631604
0.610653
0.69791
0.514722
0.526981
0.51672
0.53405
0.523493
0.558409
0.5631
0.564287
0.562276
0.523426
0.534024
0.532198
0.531975
0.531994
0.532342
0.509588
0.512771
0.50523
0.511013
0.526916
0.514605
0.514519
0.512375
0.504799
0.502743
0.502258
0.504018
0.503786
0.508921
0.508791
0.509131
0.512192
0.526902
0.514436
1.82751
0.904798
0.431511
0.340991
0.220906
0.135607
0.0560648
0.0605615
0.063533
0.0644944
0.0624645
0.0570719
0.0488682
0.0388226
0.031013
0.0301919
0.0269245
0.0266291
0.0344778
0.042165
0.038568
0.0463732
0.0540592
0.0623636
0.07036
0.0773473
0.0832662
0.0862159
0.0831841
0.0704499
0.0527647
0.0353102
0.025007
0.022597
0.0209511
0.0189579
0.0168519
0.0151926
0.0141952
0.0130333
0.0124086
0.0123261
0.0125535
0.0127968
0.0132409
0.0147547
0.0160544
0.0172395
0.0182032
0.0184481
0.0179249
0.0184671
0.0190616
0.0194571
0.0198023
0.0196201
0.0196119
0.0198608
0.0198217
0.0200304
0.0199343
0.0199511
0.0198138
0.0196565
0.0194321
0.0190044
0.0187248
0.0181599
0.0178075
0.016955
0.0169903
0.0173849
0.017709
0.0167031
0.0166407
0.0158945
0.0271389
0.0483142
0.0612008
0.0662046
0.0714649
0.0674255
0.0571711
0.039259
0.0192386
0.0187805
0.0192642
0.0217802
0.0212926
0.0173672
0.0181595
0.0188241
0.0176397
0.0176091
0.0176428
0.0197335
0.0203478
0.0217001
0.0221975
0.0225496
0.0227652
0.0226781
0.022761
0.0224438
0.0224319
0.0220257
0.0220018
0.0216806
0.0214482
0.021748
0.0224712
0.0225665
0.023254
0.0229706
0.0227011
0.0221428
0.0217555
0.0208995
0.0199849
0.0189455
0.0173698
0.0169023
0.0174097
0.0178747
0.0174015
0.0187809
0.0199917
0.0196761
0.0243792
0.0226489
0.0202057
0.0226668
0.018421
0.0185916
0.0181435
0.0170871
0.0176395
0.0171754
0.0171187
0.017442
0.0177525
0.0189339
0.0199217
0.0205551
0.0214238
0.0220562
0.0227664
0.0239699
0.0242504
0.023214
0.0230066
0.0217866
0.0210925
0.0207636
0.0217056
0.0230298
0.0229658
0.0239068
0.023679
0.0224272
0.0216168
0.0207685
0.0197821
0.0191201
0.0183171
0.0175536
0.0171221
0.0162789
0.0163485
0.015244
0.0168066
0.0173382
0.0195744
0.0174229
0.0169322
0.0225339
0.0285164
0.0444341
0.032464
0.02146
0.0233174
0.0317001
0.0396111
0.0280783
0.027608
0.0154433
0.0182433
0.0152578
0.0155756
0.0166473
0.0169405
0.0181612
0.0192342
0.0194774
0.0202291
0.0205793
0.0213441
0.021604
0.022341
0.0225374
0.0238248
0.023891
0.0239342
0.023908
0.0230631
0.0229865
0.0229706
0.0234463
0.0232367
0.0239791
0.0240127
0.0241197
0.0240564
0.0226985
0.0223705
0.0215952
0.0210743
0.0201681
0.0196095
0.0188897
0.0185026
0.0178419
0.0181594
0.0188834
0.019071
0.020037
0.0200561
0.0207984
0.0210099
0.0214809
0.0216177
0.0222866
0.0224285
0.0226994
0.0227571
0.0239846
0.0241007
0.024133
0.0240989
0.0241009
0.0243176
0.0243111
0.0242563
0.024232
0.0241027
0.0239284
0.0237406
0.0248211
0.0255196
0.0250914
0.0248524
0.0251125
0.0259684
0.0265222
0.0276164
0.0284718
0.0295434
0.0304302
0.0312469
0.0319107
0.0323793
0.0324858
0.0325126
0.032049
0.0316699
0.0333505
0.0398537
0.0430825
0.0483658
0.0507466
0.0527023
0.053388
0.052271
0.0530102
0.0517687
0.0520424
0.050891
0.0504865
0.0497044
0.0487275
0.0480347
0.046589
0.0458729
0.0505032
0.0571965
0.0573018
0.0500994
0.0470981
0.0429613
0.0376133
0.0393213
0.0459671
0.0413849
0.0387508
0.0360031
0.0310408
0.0239142
0.0179128
0.0256782
0.0334489
0.0406998
0.0474665
0.0534347
0.0573004
0.0594237
0.0609683
0.062671
0.060641
0.0531908
0.0415395
0.0316584
0.0277594
0.0262035
0.0237731
0.0203474
0.0184713
0.0174032
0.0162561
0.0149167
0.0140681
0.0138299
0.0140852
0.0142039
0.0155516
0.0168153
0.0168068
0.0179884
0.0177902
0.0183024
0.0188971
0.0193035
0.0199587
0.0199306
0.0189697
0.019321
0.019584
0.0202635
0.0201662
0.020342
0.0201305
0.0194209
0.0189093
0.0183142
0.0177959
0.0173325
0.0167533
0.016025
0.0160146
0.0162005
0.015753
0.0161737
0.0166232
0.017037
0.0176667
0.018574
0.0193304
0.0211551
0.0212872
0.0210306
0.0211142
0.0196823
0.0196155
0.0186413
0.0184033
0.0199971
0.0198348
0.0181637
0.019555
0.0195659
0.0213513
0.0213614
0.0206898
0.0208904
0.0207854
0.0189645
0.0180752
0.0170053
0.0162222
0.015625
0.0152152
0.0147371
0.0153589
0.014127
0.0135687
0.0140413
0.0140191
0.0140901
0.0144848
0.0149185
0.0156651
0.0163735
0.0174224
0.0180636
0.0189624
0.0192954
0.021199
0.0211052
0.0209668
0.0209978
0.0211334
0.0215801
0.0207962
0.0207579
0.0209007
0.0209162
0.020949
0.0209341
0.0191007
0.0188975
0.0180628
0.0177439
0.0168106
0.0164492
0.0157895
0.0154709
0.015075
0.0148741
0.0232729
0.0254729
0.0256273
0.0397926
0.0199847
0.0199578
0.0343527
0.0173361
0.0230564
0.0236066
0.0246876
0.0259249
0.0225458
0.0307408
0.021209
0.0233431
0.0240796
0.0252314
0.012914
0.0202271
0.0378545
0.0427519
0.0440583
0.0489844
0.0556128
0.0587892
0.0618148
0.0638214
0.0660809
0.0685189
0.0709157
0.072648
0.0727906
0.069088
0.0660135
0.0564865
0.052654
0.0563975
0.0608232
0.047302
0.0425022
0.0430432
0.0435019
0.0440294
0.044231
0.0449109
0.044711
0.0456983
0.0449622
0.0460574
0.0449041
0.0459159
0.0446934
0.0419766
0.0387552
0.032573
0.0306039
0.029497
0.0267836
0.0242751
0.0220337
0.0202099
0.0197779
0.0182186
0.0168249
0.016527
0.0152367
0.0155097
0.0167426
0.0198916
0.0168184
0.0176416
0.0260096
0.0191196
0.0180149
0.018559
0.0190779
0.0193196
0.01821
0.0198348
0.0221067
0.0221136
0.0221834
0.0221972
0.0213951
0.0212312
0.0209683
0.0210283
0.0210605
0.0211871
0.0211567
0.0193363
0.0192799
0.0190069
0.0188687
0.0180786
0.0179104
0.0173245
0.0169924
0.0161496
0.0158543
0.0154059
0.0154732
0.0168078
0.0208616
0.0305442
0.0175275
0.0182733
0.0157852
0.0139858
0.0266754
0.0247426
0.0286362
0.0267843
0.0394055
0.026426
0.023176
0.0241735
0.029704
0.0296636
0.0326473
0.042399
0.0330329
0.0283162
0.0743358
0.0547183
0.0336258
0.0468974
0.0588361
0.109807
0.127918
0.0561655
0.0566574
0.0623165
0.063244
0.0631492
0.053657
0.049406
0.0417247
0.0322971
0.0128531
0.0249366
0.0322555
0.0432233
0.057787
0.0921464
0.0529609
0.0597797
0.0657326
0.0648055
0.0678928
0.0660785
0.0647129
0.0656625
0.102656
0.111551
0.108299
0.0872336
0.0818519
0.0743833
0.124248
0.139071
0.120061
0.130161
0.136231
0.0827406
0.0305038
0.0249287
0.0238177
0.026398
0.0253375
0.0459761
0.0205988
0.0218239
0.0226602
0.0271474
0.0301828
0.0528529
0.0232716
0.0254655
0.0324009
0.0348659
0.0458815
0.0274545
0.0280856
0.0343916
0.036167
0.039497
0.0336437
0.0317539
0.0287111
0.0259115
0.0244176
0.0254632
0.0318463
0.0462866
0.0278846
0.0283123
0.0300701
0.133956
0.0307374
0.0266435
0.0277222
0.0267227
0.0336564
0.0350716
0.111651
0.0355658
0.016719
0.015454
0.0159193
0.0167293
0.0173684
0.0179895
0.0184354
0.0190782
0.019471
0.0196253
0.0197955
0.0221666
0.0220625
0.0215953
0.0210519
0.021839
0.0211448
0.0211899
0.0218034
0.0212681
0.0214162
0.0224619
0.0236307
0.0231353
0.0236938
0.0250486
0.0238946
0.0222026
0.0219966
0.0221166
0.0228246
0.0239631
0.0227759
0.0234306
0.0226158
0.0235333
0.0236542
0.0203627
0.0199923
0.0197881
0.0192853
0.0186097
0.0179855
0.0173165
0.0166789
0.0162042
0.0161761
0.0167502
0.0152113
0.0156663
0.018191
0.0401893
0.0331898
0.0270964
0.0225699
0.0197399
0.0184872
0.0183169
0.0187412
0.0193905
0.0199515
0.0201603
0.0207484
0.0246228
0.0245456
0.0257472
0.024616
0.025949
0.0248903
0.0235676
0.0226979
0.0239029
0.0232103
0.0237002
0.0253087
0.0261431
0.0237756
0.0240393
0.0214517
0.0200444
0.0184395
0.0187778
0.0202159
0.0208852
0.0233145
0.0234009
0.0268301
0.0268198
0.0266859
0.0254578
0.0247858
0.0262307
0.0247475
0.0258958
0.0247887
0.0261904
0.0273773
0.0277221
0.0270182
0.0261906
0.0253181
0.0210461
0.0202544
0.0199501
0.0194632
0.019224
0.0202083
0.0246137
0.0340419
0.0463525
0.0585648
0.0679166
0.067258
0.0604945
0.0412458
0.0420777
0.0391585
0.0425055
0.060772
0.0874982
0.0615451
0.115078
0.0891493
0.0528802
0.0630944
0.0751228
0.0843068
0.0902983
0.0914689
0.0780725
0.0575798
0.0505407
0.052945
0.0850624
0.0837511
0.0825254
0.0780232
0.0825311
0.0803939
0.0777056
0.0761259
0.0743303
0.0700513
0.0700328
0.0673045
0.0672618
0.060146
0.0613257
0.0615459
0.058969
0.0562233
0.0539376
0.0517477
0.0494246
0.0455376
0.0442634
0.0417946
0.0400633
0.0367153
0.0361794
0.0356962
0.0335279
0.0319821
0.030734
0.0294785
0.0277854
0.027951
0.0263786
0.0262254
0.021379
0.0209984
0.0199786
0.0196501
0.0194149
0.0196465
0.0209535
0.023725
0.0440061
0.0332655
0.0330346
0.0335553
0.0337261
0.0396479
0.0464154
0.070554
0.0652589
0.0717648
0.0613812
0.0638067
0.0630083
0.0626279
0.0653501
0.0689297
0.0742719
0.0867596
0.333402
0.513792
0.253107
0.237093
0.246726
0.251624
0.259031
0.33901
0.360058
0.355866
0.360543
0.330458
0.318409
0.196634
0.226049
0.238129
0.237031
0.223939
0.202719
0.394286
0.522647
0.518784
0.523655
0.523768
0.518766
0.522598
0.502913
0.514275
0.501758
0.515027
0.502297
0.521663
0.518922
0.504363
0.501138
0.501157
0.500917
0.50138
0.501556
0.504895
0.506056
0.506108
0.505103
0.504123
0.514518
0.438561
0.123555
0.0860871
0.143273
0.199115
0.163185
0.235419
0.270431
0.194987
0.111033
0.0908164
0.102446
0.126211
0.127688
0.154812
0.20239
0.189375
0.154627
0.155558
0.156426
0.20176
0.193167
0.219377
0.261899
0.254916
0.190181
0.151576
0.151171
0.2294
0.243877
0.239059
0.124616
0.0449393
0.0219968
0.0229632
0.032814
0.0166274
0.016869
0.0224837
0.0591789
0.0981008
0.0509533
0.137629
0.139063
0.182612
0.147872
0.178719
0.115952
0.119099
0.0677832
0.0797987
0.0897271
0.0954658
0.0998112
0.0940492
0.217428
0.321455
0.191557
0.56241
0.538588
0.196655
0.217515
0.576209
0.513007
0.503529
0.501786
0.501698
0.501859
0.501816
0.50097
0.500916
0.500728
0.500765
0.500716
0.501163
0.504767
0.520385
0.514599
0.505239
0.501385
0.500824
0.5008
0.500691
0.500731
0.500751
0.500808
0.501018
0.50105
0.501151
0.501671
0.503943
0.512023
0.435419
0.170001
0.182398
0.406092
0.36186
0.5115
0.504622
0.50137
0.500943
0.500856
0.50083
0.500795
0.50097
0.50089
0.501398
0.501232
0.501287
0.502776
0.508255
0.50639
0.442689
0.36905
0.416642
0.329748
0.506666
0.507775
0.503277
0.5029
0.503247
0.503415
0.501514
0.501528
0.500993
0.501061
0.500893
0.501341
0.504755
0.511009
0.346023
0.170939
0.177863
0.258168
0.0879575
0.0909082
0.0928536
0.0949568
0.247569
0.44264
0.55672
0.472089
0.475956
0.54309
0.386193
0.364969
0.294583
0.318049
0.402515
0.347649
0.313113
0.250642
0.288971
0.247975
0.303752
0.218117
0.234368
0.221916
0.2833
0.287174
0.287518
0.226918
0.216746
0.271854
0.286056
0.317019
0.21897
0.259175
0.203486
0.192561
0.0872241
0.0894241
0.0813219
0.0713817
0.0711069
0.0792344
0.0776595
0.0838396
0.080821
0.0845097
0.0816147
0.0796088
0.0728236
0.0748654
0.0686564
0.0713209
0.130427
0.166656
0.150528
0.151951
0.179748
0.131236
0.157593
0.153748
0.197837
0.248247
0.227761
0.293769
0.225948
0.27606
0.406139
0.754616
0.441612
0.245458
0.318542
0.340131
0.288912
0.189764
0.449752
0.538566
0.298183
0.36025
1.19563
1.04328
1.7808
0.992944
1.12011
0.671842
0.598152
1.02942
0.654639
0.667246
0.560576
0.574193
0.500282
0.324977
0.324594
0.306368
0.242402
0.281405
0.272075
0.267112
0.296817
0.262024
0.317245
0.353004
0.397765
0.323066
0.286012
0.367716
0.215976
0.291667
0.3472
0.316418
0.260401
0.338998
0.451252
0.423394
0.36451
0.400194
0.510786
0.564676
0.534909
0.454037
0.516144
1.00909
0.966179
0.932401
0.591923
1.93386
1.72113
0.356005
0.139622
0.0974691
0.0368483
0.0225318
0.0182773
0.0178856
0.0489695
0.0195468
0.0235555
0.021239
0.030338
0.0274612
0.0317578
0.0559987
0.0378356
0.0533444
0.0395098
0.0528329
0.0420534
0.0578602
0.0621275
0.065497
0.0529714
0.0417561
0.063086
0.0841802
0.0394153
0.101345
0.107113
0.0692999
0.0841923
0.103963
0.0538374
0.166711
0.0577404
0.0575707
0.0687448
0.128938
0.254933
0.0868972
0.113506
0.589746
1.53296
0.513865
0.203648
0.166282
0.0414412
0.035935
0.0294162
0.0355628
0.0313292
0.0635044
0.0641054