/*--------------------------------*- C++ -*----------------------------------*\
| =========                 |                                                 |
| \\      /  F ield         | OpenFOAM: The Open Source CFD Toolbox           |
|  \\    /   O peration     | Version:  v2012                                 |
|   \\  /    A nd           | Website:  www.openfoam.com                      |
|    \\/     M anipulation  |                                                 |
\*---------------------------------------------------------------------------*/
FoamFile
{
    version     2.0;
    format      ascii;
    class       volScalarField;
    location    "580";
    object      k;
}
// * * * * * * * * * * * * * * * * * * * * * * * * * * * * * * * * * * * * * //

dimensions      [0 2 -2 0 0 0 0];


internalField   nonuniform List<scalar> 
18258
(
0.0336584
0.0158575
0.0124124
0.0102575
0.0110257
0.014062
0.0168648
0.0212422
0.0256692
0.0316016
0.0386587
0.0475784
0.0535666
0.0606991
0.0636537
0.0619272
0.0520334
0.0472831
0.0564813
0.0809925
0.0711399
0.0514431
0.0623802
0.0615659
0.0723641
0.0765096
0.0602148
0.0550014
0.0495928
0.043905
0.0373258
0.0230881
0.0241791
0.0289326
0.032148
0.0358574
0.0387131
0.0410443
0.0426863
0.0434943
0.0433965
0.0420948
0.0394005
0.0353573
0.0299007
0.023929
0.0235989
0.0236515
0.0293853
0.0349868
0.0404265
0.046012
0.0544321
0.0445819
0.0290116
0.0391537
0.0476207
0.0545139
0.0589522
0.0614133
0.0621866
0.0612814
0.0589975
0.0557416
0.0517817
0.047442
0.0434212
0.0394317
0.0341853
0.030921
0.0268049
0.0234566
0.0210129
0.0192978
0.0181776
0.0171755
0.0163109
0.0155785
0.0149628
0.0145408
0.0144488
0.0144735
0.0145723
0.0146674
0.0150087
0.0126596
0.0108903
0.0104226
0.0101717
0.00952781
0.00808059
0.0106375
0.0117477
0.0121654
0.0124372
0.0136096
0.0147434
0.0143138
0.0135869
0.0124634
0.0127433
0.0171684
0.0178843
0.022938
0.0218131
0.0170716
0.0147986
0.0165902
0.0194042
0.0224656
0.0192521
0.0192201
0.0179183
0.0170221
0.0148698
0.014898
0.0143779
0.0140713
0.014986
0.0177548
0.0171675
0.0172844
0.0184987
0.0188201
0.0200459
0.0210656
0.0204039
0.0202225
0.0163556
0.0162556
0.0172965
0.0171699
0.0176502
0.0201592
0.0202158
0.0205569
0.0207718
0.0235626
0.0235815
0.0235488
0.02364
0.0244859
0.023519
0.0231044
0.0231317
0.0231669
0.0209963
0.020776
0.0204151
0.0204544
0.0182742
0.0175357
0.0182693
0.0192502
0.0212244
0.0249684
0.0314048
0.040328
0.0504232
0.0606623
0.0684306
0.0727819
0.0771466
0.0765921
0.0772929
0.0793861
0.0797575
0.0786213
0.0767713
0.0746103
0.0716592
0.0670211
0.0665429
0.058901
0.048034
0.0333582
0.0388485
0.0416796
0.0444329
0.0447496
0.0452435
0.0440492
0.0423107
0.0387427
0.0336536
0.0247817
0.0257506
0.0302152
0.0348923
0.0386915
0.0428659
0.0465047
0.048356
0.0500608
0.0594388
0.0571905
0.0552813
0.0569942
0.0585591
0.0617638
0.0601949
0.0562543
0.0503084
0.051928
0.0450316
0.0336542
0.0314286
0.0293003
0.0270055
0.037864
0.0496394
0.0611327
0.0674247
0.0735471
0.0783521
0.082351
0.0868558
0.0814186
0.0762891
0.0576223
0.083602
0.0655663
0.0503721
0.041105
0.0331955
0.0313942
0.0342263
0.0343151
0.032528
0.0279977
0.0220518
0.0229589
0.0359666
0.0458049
0.053846
0.0554059
0.0601156
0.0625889
0.0572848
0.057863
0.0469962
0.0482184
0.0515599
0.0461923
0.0438916
0.0352665
0.027525
0.0335613
0.0499052
0.0684588
0.0842941
0.099275
0.0658257
0.0500573
0.0410056
0.0341805
0.033022
0.0376497
0.0435842
0.0527307
0.0411578
0.0371044
0.0335854
0.0307061
0.0257596
0.0274904
0.0287219
0.0269378
0.0499335
0.0573887
0.0609837
0.0832784
0.092033
0.107984
0.106718
0.0923012
0.0959215
0.0687124
0.068474
0.0858278
0.0679444
0.0511389
0.0613947
0.0743184
0.0881532
0.101328
0.112638
0.121706
0.123428
0.11196
0.0811934
0.046759
0.0212977
0.0186604
0.0181123
0.0174014
0.0165106
0.0157018
0.0150711
0.0121151
0.00949303
0.00927813
0.00946102
0.00940713
0.00825965
0.00951447
0.0115781
0.0137677
0.0152736
0.0164803
0.0174982
0.0182297
0.0188163
0.0192131
0.0195076
0.0197726
0.0200046
0.0201868
0.0203207
0.0204072
0.0204456
0.0204285
0.0203497
0.0202081
0.0200017
0.0197145
0.0192435
0.0177228
0.0158795
0.0150563
0.0151154
0.0148669
0.014567
0.0119378
0.012307
0.0143249
0.0149549
0.0177376
0.0197672
0.0214644
0.0229121
0.0244319
0.025205
0.0260296
0.0262918
0.0263406
0.0262364
0.026082
0.0258529
0.0255449
0.0244775
0.0212609
0.0248687
0.0272683
0.0289664
0.0303268
0.0312393
0.0313447
0.0285856
0.0360707
0.0385167
0.0394211
0.0396847
0.0388608
0.0368472
0.0343977
0.0323421
0.0308336
0.0297155
0.0275731
0.0253262
0.0230179
0.0206037
0.0173846
0.0186571
0.020493
0.0207025
0.0204106
0.0214569
0.0227133
0.0210551
0.0189594
0.0160843
0.0150887
0.0146053
0.0144198
0.014836
0.0144866
0.0143779
0.0148715
0.0178673
0.0189581
0.0206568
0.023916
0.022785
0.0208446
0.0280163
0.0296231
0.0300714
0.0304224
0.0303282
0.02957
0.0264972
0.0250413
0.02643
0.0249758
0.0243443
0.0244338
0.0240669
0.0222017
0.024501
0.0265007
0.028091
0.0289389
0.0301806
0.0317364
0.0339008
0.0356984
0.0373618
0.0383683
0.0383451
0.0377988
0.0379661
0.0385998
0.0382636
0.0365833
0.0345087
0.0324149
0.0294446
0.0292812
0.0312576
0.0328207
0.0344805
0.0362546
0.0355835
0.0336921
0.032065
0.0306438
0.028932
0.0288157
0.0304938
0.0319396
0.033682
0.0358093
0.0359927
0.0338425
0.0320186
0.0305107
0.0288058
0.0287755
0.0304783
0.031995
0.0337245
0.0356194
0.0347474
0.0332713
0.0317436
0.030272
0.0286053
0.028169
0.029775
0.0311607
0.0324787
0.0335479
0.0318708
0.0312784
0.0302054
0.0288137
0.0270544
0.0258011
0.0263099
0.0276977
0.0278089
0.02829
0.0294102
0.0292581
0.0289754
0.0289306
0.0286487
0.0264032
0.0268104
0.026859
0.0275507
0.0308504
0.0303673
0.0330296
0.0354331
0.0331238
0.0316411
0.0280861
0.0336438
0.0336807
0.0346349
0.0334567
0.0237041
0.0218543
0.0228536
0.0243815
0.0260177
0.0253188
0.0225808
0.022509
0.0231105
0.0225185
0.0209509
0.0179736
0.0135067
0.0135153
0.0135053
0.0142376
0.0170375
0.0186301
0.0187384
0.0185808
0.0182759
0.017801
0.0170795
0.016003
0.0156347
0.0248138
0.045244
0.0565861
0.0559216
0.0425303
0.0357264
0.0264635
0.0184642
0.0112395
0.0107875
0.0114628
0.013755
0.0115174
0.010941
0.0150758
0.012083
0.0200808
0.0231633
0.030293
0.0414433
0.0401443
0.0306117
0.020477
0.0183832
0.0192373
0.0197627
0.0201522
0.020535
0.0209215
0.0213416
0.0218527
0.0215298
0.0188997
0.0166614
0.0167838
0.0173551
0.0198553
0.0212381
0.0220345
0.0217068
0.0219616
0.0236654
0.0224302
0.0212066
0.0209961
0.0202881
0.0231226
0.023469
0.0228463
0.0228468
0.0231236
0.0230074
0.0231469
0.0239497
0.0197719
0.0218894
0.0224403
0.0227196
0.0235093
0.0190293
0.0192211
0.0192889
0.0181444
0.0148688
0.0179689
0.0167328
0.0121451
0.0134565
0.0134262
0.0140394
0.0143648
0.0171188
0.0162901
0.0155597
0.0163185
0.0222831
0.0230869
0.023261
0.0206171
0.0193709
0.021857
0.0224487
0.0219957
0.0211061
0.0212653
0.0203207
0.0184218
0.0177035
0.0178406
0.019248
0.0200465
0.0201183
0.0237122
0.0232082
0.0216518
0.0226304
0.0232295
0.0228146
0.0227069
0.0226534
0.0222835
0.0218605
0.0222715
0.022458
0.0225086
0.0220685
0.0223206
0.0249357
0.0214096
0.0212209
0.0201485
0.0194944
0.017871
0.017619
0.0177171
0.0176774
0.0175836
0.0167479
0.0186016
0.0178753
0.0200067
0.0216156
0.0227629
0.0239296
0.0240771
0.0236442
0.0236017
0.0232153
0.0231787
0.0226316
0.0217897
0.0212092
0.0204399
0.0192358
0.0192289
0.0191804
0.0190373
0.0204392
0.0203394
0.0219002
0.0230169
0.0227293
0.0217681
0.0216579
0.0204856
0.0204614
0.0214985
0.0223829
0.0226341
0.0234892
0.0260041
0.0236813
0.0252327
0.0259347
0.0265975
0.0259885
0.0248925
0.0256433
0.0239845
0.0228743
0.0241909
0.0249137
0.0261752
0.0269701
0.0249932
0.0239654
0.022769
0.0219074
0.020924
0.0184047
0.0190138
0.0198006
0.0210306
0.0228434
0.0255603
0.0282888
0.0312074
0.0312629
0.028966
0.0272772
0.0320729
0.0315476
0.0365138
0.0371144
0.0329945
0.0301948
0.0272871
0.0268591
0.0259382
0.0254023
0.0241331
0.0253793
0.0257976
0.0248564
0.0273212
0.0288904
0.0332199
0.0387703
0.0354306
0.0326138
0.0376816
0.0366051
0.0425518
0.0363364
0.0346867
0.0285414
0.0331542
0.035517
0.0432403
0.0338368
0.0296582
0.0294446
0.0307751
0.0382511
0.0367854
0.0393677
0.0445346
0.0438769
0.0390124
0.0357782
0.0415149
0.0315615
0.0370028
0.0390124
0.0324022
0.0321522
0.0390151
0.0396367
0.0398056
0.0337371
0.0330025
0.0249884
0.033533
0.0400042
0.039918
0.0331469
0.0259617
0.0358467
0.0314834
0.0312818
0.0312832
0.026885
0.0268159
0.0261165
0.0263705
0.027077
0.0246468
0.0254473
0.0257048
0.0258656
0.0259947
0.0261848
0.0265265
0.0271651
0.0278773
0.0228423
0.0242699
0.0229281
0.021607
0.0202807
0.0240542
0.026532
0.0283426
0.0298003
0.0309353
0.0314108
0.0299665
0.0379416
0.0396328
0.0412728
0.0414216
0.040184
0.0375262
0.0340994
0.0306749
0.028583
0.0272791
0.0248196
0.0227014
0.0206347
0.0184896
0.0156858
0.0143477
0.0130335
0.0116588
0.011333
0.0108105
0.0102322
0.00959163
0.00928875
0.0116327
0.0160759
0.026999
0.0325984
0.0383748
0.0453085
0.0518737
0.0571499
0.0611102
0.063962
0.0657838
0.066302
0.0638203
0.0531732
0.0480822
0.0430994
0.0380456
0.0329117
0.032113
0.0412637
0.0495854
0.0566107
0.0629427
0.0670671
0.0654279
0.049852
0.0466872
0.0623231
0.0898312
0.0806244
0.103595
0.120005
0.0794508
0.0647564
0.0640409
0.0795308
0.0820423
0.075457
0.0665159
0.0566594
0.0456953
0.0508531
0.0557543
0.0604213
0.0651162
0.0780049
0.0803018
0.0790059
0.0763744
0.072984
0.0685179
0.0620063
0.0535114
0.0441623
0.0360301
0.0285891
0.0172653
0.0128849
0.0138416
0.0133662
0.013537
0.0138671
0.0102128
0.0105563
0.010753
0.0106557
0.0103624
0.0104278
0.0118288
0.0182429
0.0150427
0.0137069
0.0118284
0.0145059
0.016347
0.0180979
0.0186534
0.018857
0.0200228
0.0364114
0.0443221
0.0498681
0.0545768
0.0576798
0.0564473
0.0530873
0.0472172
0.0401849
0.0374652
0.0333662
0.0299127
0.0281217
0.0290156
0.0254227
0.0156725
0.0147305
0.0157821
0.0154458
0.0144484
0.0164075
0.0176315
0.0184082
0.0190347
0.019501
0.0198575
0.0201097
0.0202748
0.0203585
0.0203791
0.0203513
0.0202804
0.0201656
0.0200042
0.0197856
0.0194797
0.0189612
0.0172563
0.0154224
0.0147103
0.0147943
0.0145635
0.0142006
0.0123244
0.0125522
0.0144141
0.0150177
0.0146256
0.0152141
0.0156814
0.0168732
0.019035
0.0211696
0.0230049
0.0217005
0.0210493
0.0210281
0.0206254
0.0175369
0.0208489
0.0236643
0.0241688
0.0244298
0.025243
0.0268338
0.0277914
0.0268641
0.026373
0.0258507
0.0228235
0.0244604
0.027926
0.0283327
0.0289911
0.0295779
0.0301405
0.0314328
0.0308137
0.0299475
0.0293651
0.0265828
0.0257196
0.031684
0.0207457
0.0146625
0.0106305
0.0109687
0.0112063
0.010911
0.0116848
0.0122227
0.0124505
0.0117644
0.0128428
0.0137503
0.0129956
0.0156303
0.0149346
0.0139333
0.013485
0.0142322
0.0149354
0.0153172
0.016468
0.0265807
0.0274113
0.0228594
0.0294097
0.0319785
0.0290125
0.0319131
0.0295978
0.0282768
0.0310679
0.0344098
0.0355872
0.0332623
0.0319135
0.031212
0.0208296
0.0201437
0.0194208
0.0175672
0.0178427
0.0173753
0.0169119
0.0164942
0.0189396
0.0203381
0.0214088
0.0211042
0.020795
0.0203844
0.0215247
0.0261321
0.0352897
0.0439006
0.0466848
0.0454411
0.0416881
0.0350529
0.02889
0.028374
0.0263693
0.0250791
0.0247542
0.018758
0.0149888
0.0174987
0.0174051
0.0184732
0.0191457
0.019674
0.0200943
0.0204433
0.020743
0.0210314
0.0212993
0.021533
0.0217296
0.0218987
0.0220393
0.0221911
0.0223741
0.0226282
0.0228322
0.0212169
0.0186068
0.0172691
0.0171225
0.0178373
0.0187392
0.0198662
0.0191183
0.0154025
0.0154781
0.0218993
0.0223367
0.0209649
0.0195442
0.0197478
0.0189079
0.022694
0.0224912
0.0232576
0.0230515
0.0227715
0.0224917
0.0222129
0.0219274
0.0216564
0.0214193
0.0212036
0.0210026
0.0208032
0.0205849
0.0203138
0.0199147
0.0192387
0.0184523
0.0170339
0.0181421
0.0193521
0.0209746
0.0228074
0.0237552
0.0229016
0.0216621
0.0210698
0.0212448
0.0215333
0.0218527
0.0221974
0.0225982
0.0230204
0.0234189
0.0233839
0.0220823
0.0227189
0.0174499
0.0183049
0.0186041
0.0185634
0.020225
0.0193761
0.0146719
0.0151816
0.0159005
0.0171738
0.0197471
0.0201065
0.0214471
0.0216711
0.0173044
0.0169974
0.0165738
0.0175872
0.0152245
0.0158537
0.0265546
0.027186
0.0349352
0.0382793
0.0399023
0.0331393
0.0456055
0.0524517
0.0505601
0.0409178
0.0235078
0.0346439
0.0421744
0.0488218
0.0457473
0.035583
0.0449108
0.0473882
0.0632934
0.0589241
0.0525525
0.0633288
0.044743
0.0269181
0.0158322
0.016406
0.0152097
0.030675
0.0347835
0.031475
0.0323233
0.0399656
0.040981
0.0362305
0.0345479
0.0363048
0.0358585
0.039812
0.0371067
0.033738
0.0233028
0.019028
0.0198624
0.0212649
0.0230852
0.0254227
0.025322
0.0241828
0.0228234
0.0218535
0.0208049
0.0183113
0.0176589
0.019617
0.0212448
0.0226213
0.0241268
0.0249429
0.02578
0.0259441
0.0258363
0.0255156
0.0250907
0.0245405
0.0238614
0.0224563
0.0236943
0.024371
0.0245728
0.0248444
0.0251511
0.0254218
0.0255579
0.0254406
0.0244996
0.023695
0.0225312
0.0214144
0.0198098
0.017696
0.0183758
0.020132
0.0217293
0.022842
0.0238902
0.0234986
0.0239845
0.0246336
0.0246602
0.0244845
0.0242647
0.0241188
0.0242154
0.0248507
0.0265575
0.0262365
0.029036
0.0302331
0.0276677
0.0263384
0.025647
0.0252233
0.0249805
0.0247777
0.0245827
0.0240433
0.0234988
0.023994
0.0242433
0.0245372
0.024892
0.0253969
0.0260883
0.0271852
0.028596
0.0284648
0.0262523
0.0261317
0.0250769
0.0242875
0.0239084
0.0238522
0.023896
0.0239956
0.0239301
0.0234144
0.0230897
0.0234946
0.0224856
0.0225533
0.0215824
0.0202262
0.0187877
0.0173367
0.0166757
0.0352714
0.0352626
0.0457897
0.0424279
0.0370926
0.0471418
0.0601477
0.0521356
0.0628707
0.0666525
0.0541449
0.0503183
0.0278729
0.0243877
0.0174085
0.0189328
0.0202758
0.0214777
0.0212943
0.0222137
0.0220959
0.0230608
0.0225175
0.0217284
0.0211903
0.0201753
0.0202316
0.0189618
0.0174181
0.0172846
0.0189313
0.0199679
0.0211459
0.0211349
0.022593
0.0231013
0.0235032
0.0236592
0.0236525
0.0237422
0.0239168
0.0243653
0.0250797
0.0255441
0.0256847
0.0261045
0.025853
0.0255286
0.0250652
0.0247501
0.0244286
0.0241479
0.0238531
0.0235762
0.0231481
0.0224957
0.0223759
0.0228876
0.0232275
0.0234643
0.0236042
0.023593
0.0234103
0.0231079
0.0228071
0.0224665
0.0225271
0.0237948
0.0240178
0.0241406
0.0239229
0.0237513
0.0237323
0.0236121
0.0235146
0.0232806
0.0229077
0.0224323
0.0213632
0.0214671
0.0223514
0.0228001
0.0231343
0.0234185
0.0234361
0.0233472
0.0229679
0.022674
0.0223306
0.0217812
0.0210803
0.0186996
0.0191558
0.0197688
0.0205943
0.0214251
0.0221325
0.0225809
0.0227639
0.0227541
0.0225775
0.0222233
0.0214767
0.0214581
0.0219992
0.0221725
0.0221297
0.0218366
0.0212324
0.020318
0.0191236
0.0179128
0.0169359
0.0164293
0.0156359
0.01824
0.0192553
0.0201941
0.0210562
0.0218684
0.0227253
0.0230654
0.023138
0.0229778
0.022708
0.0222894
0.0215135
0.0215246
0.0222345
0.022631
0.0228527
0.0229542
0.0226629
0.021973
0.020433
0.0190115
0.0178316
0.0167515
0.0156363
0.0152223
0.0157236
0.0153534
0.0158382
0.0169881
0.0184789
0.0198416
0.0208114
0.0213943
0.0216701
0.0216917
0.0213576
0.0211808
0.0213162
0.0211295
0.0206494
0.0197986
0.018526
0.0170486
0.0158023
0.0153817
0.0159863
0.016632
0.0160363
0.0139187
0.0150387
0.0161196
0.0172471
0.0189279
0.0209925
0.0220101
0.0225053
0.0226538
0.0225315
0.0221622
0.0215035
0.0214522
0.022082
0.0224413
0.0225401
0.0224387
0.0219692
0.0211066
0.0185891
0.0158493
0.0146199
0.0139231
0.0129773
0.016187
0.0168777
0.0160638
0.0155306
0.0163981
0.0174658
0.0186441
0.0195435
0.0201792
0.0206682
0.0209295
0.0209465
0.0206794
0.0205766
0.0203683
0.0200301
0.0196847
0.0193229
0.0185172
0.0176718
0.0167191
0.017784
0.0183498
0.0175986
0.0144728
0.0150396
0.0158293
0.0163021
0.0189408
0.0214317
0.0221435
0.0223768
0.0224952
0.0223758
0.0219857
0.0213681
0.021248
0.0218847
0.0223576
0.0226362
0.0229021
0.0230447
0.023146
0.0212233
0.0179653
0.0172676
0.0156005
0.0147619
0.0181542
0.0188463
0.0183841
0.0178244
0.0194765
0.0201773
0.0204406
0.0204496
0.0203866
0.0202943
0.0203036
0.0204043
0.0201098
0.0199992
0.0201096
0.0203252
0.0202736
0.0200384
0.0194582
0.0186923
0.0176176
0.0194528
0.0211093
0.0208465
0.0170037
0.0175405
0.018306
0.017822
0.0204951
0.0223722
0.0229006
0.0229151
0.0226605
0.0222236
0.0216991
0.0210638
0.0207881
0.0213493
0.0219208
0.021965
0.022083
0.0220534
0.0214877
0.0213246
0.0207472
0.020477
0.0197082
0.019126
0.0183689
0.0205373
0.0237495
0.0259597
0.0275392
0.0294292
0.0279743
0.0244399
0.0221592
0.0152545
0.0152648
0.0154897
0.0148658
0.0144958
0.0143221
0.0187689
0.0215141
0.0242214
0.0259701
0.0235189
0.023488
0.0234016
0.0232825
0.023169
0.0230719
0.0228657
0.0236358
0.0413049
0.282996
0.209853
0.235431
0.224473
0.31482
0.079612
0.0389905
0.0431299
0.0498756
0.0569746
0.05518
0.0515415
0.0449668
0.0405975
0.0402037
0.0397197
0.0395212
0.0383401
0.0383629
0.037591
0.0450408
0.0947049
0.123787
0.137385
0.145867
0.154922
0.150352
0.159418
0.151331
0.15188
0.153523
0.158288
0.150925
0.143586
0.139769
0.135485
0.118149
0.118491
0.100026
0.103853
0.0866891
0.091232
0.0951517
0.0945005
0.093288
0.0930668
0.0933433
0.0941604
0.0977584
0.0930597
0.0987154
0.0913047
0.0728087
0.0702768
0.0721865
0.0664292
0.0581161
0.0657182
0.0805877
0.0961288
0.112863
0.096649
0.120845
0.114767
0.115832
0.110044
0.103693
0.0998705
0.0991109
0.0997098
0.100826
0.103463
0.105389
0.106988
0.109887
0.118475
0.120801
0.119366
0.101835
0.0864728
0.0949772
0.0998018
0.103472
0.103729
0.0989513
0.0967895
0.0905608
0.0889799
0.0834179
0.0808122
0.0753336
0.072017
0.0672058
0.0837074
0.0818874
0.0888881
0.0951867
0.0994632
0.103138
0.104765
0.106057
0.104886
0.102512
0.0975385
0.0954652
0.0906597
0.109207
0.127686
0.130474
0.125835
0.11229
0.106637
0.340006
0.412365
0.41369
0.613892
0.655644
0.847516
0.336488
0.180242
0.192816
0.189506
0.181314
0.17812
0.177892
0.189617
0.198601
0.189504
0.200032
0.177311
0.173968
0.166155
0.191682
0.189235
0.170287
0.149056
0.116497
0.0951438
0.0940743
0.0785955
0.0796652
0.0702009
0.0714827
0.073375
0.0906415
0.169614
0.209165
0.235832
0.26225
0.322801
0.292444
0.441992
0.353984
0.439561
0.303535
0.328375
0.314107
0.305343
0.303375
0.319441
0.342053
0.30073
0.373996
0.299646
0.648445
0.785162
0.497069
0.459792
0.407752
0.393623
0.383756
0.378225
0.370145
0.487608
0.451981
0.553443
0.512961
0.641104
0.560952
0.56555
0.531702
0.568142
0.586937
0.60069
0.479157
0.520923
0.405011
0.438537
0.368397
0.404672
0.290968
0.291466
0.333946
0.371361
0.397166
0.453793
0.713871
0.606024
0.817509
0.585415
0.707538
0.491473
0.538757
0.514585
0.496935
0.498638
0.526756
0.631062
0.610181
0.697077
0.514712
0.526978
0.516709
0.534042
0.523478
0.55839
0.563073
0.564253
0.562236
0.523418
0.534011
0.532186
0.531966
0.531986
0.532334
0.509581
0.512763
0.505225
0.511007
0.526911
0.514594
0.514508
0.512368
0.504795
0.50274
0.502255
0.504014
0.503782
0.508915
0.508784
0.509125
0.512183
0.526901
0.514435
1.82638
0.904045
0.431272
0.340865
0.220879
0.135367
0.0558421
0.0603166
0.0632689
0.0642155
0.0621816
0.0567998
0.0486238
0.0386411
0.0308544
0.0299795
0.0267039
0.0266459
0.034372
0.0420055
0.0383922
0.0461929
0.0538973
0.0622284
0.07024
0.0772302
0.083143
0.0860792
0.0830631
0.0703621
0.0526953
0.0353174
0.0250703
0.0226697
0.0210248
0.0190251
0.0169164
0.0152704
0.0142612
0.0130841
0.0124477
0.0123553
0.0125687
0.0128058
0.0132412
0.0147533
0.0160504
0.017232
0.0181898
0.0184337
0.0179274
0.0184675
0.01906
0.0194513
0.0197913
0.0196284
0.0196281
0.0198737
0.0198339
0.0200375
0.0199375
0.0199387
0.0197963
0.0196186
0.0193911
0.0189509
0.0186729
0.0181126
0.0177679
0.0169457
0.016981
0.0173873
0.0177149
0.0167211
0.0166702
0.0159105
0.0265738
0.0476726
0.0610325
0.0660574
0.0713605
0.0673512
0.0569261
0.0388994
0.0191117
0.0187893
0.0192619
0.0217609
0.0212805
0.0173901
0.0181764
0.0187268
0.0175094
0.0173973
0.0174277
0.0194486
0.0200372
0.0214149
0.0219096
0.0223078
0.0225307
0.0225185
0.0226187
0.022364
0.0223692
0.0219992
0.0219841
0.0216713
0.0214389
0.0217278
0.0224205
0.0224874
0.0231105
0.0228044
0.0224899
0.0219259
0.021504
0.0206533
0.019718
0.0187122
0.0171762
0.0167374
0.0172575
0.0177686
0.0173151
0.0187588
0.0200406
0.0197199
0.0243787
0.0226629
0.0202213
0.0227037
0.0184901
0.0186762
0.0181316
0.0170392
0.0175869
0.0170787
0.0169935
0.0172827
0.0175651
0.0187251
0.019687
0.0203349
0.0212017
0.0218591
0.0225776
0.0237832
0.0240946
0.023136
0.0229651
0.0217768
0.021094
0.0207784
0.02171
0.0230044
0.0228972
0.023763
0.0235024
0.0222518
0.021436
0.0205728
0.0195896
0.0189232
0.0181452
0.0174117
0.0169962
0.0161874
0.0162988
0.0152187
0.0167879
0.0171894
0.019355
0.0174299
0.0169356
0.0224271
0.0282697
0.0441474
0.0321973
0.0212866
0.0230873
0.0312837
0.0388998
0.0271777
0.0267894
0.0151557
0.0174123
0.0151853
0.0154728
0.0165382
0.0168279
0.0180043
0.0190658
0.0193013
0.0200526
0.0203956
0.0211711
0.0214294
0.0221686
0.0223627
0.0236421
0.0237129
0.0237897
0.0237709
0.0229949
0.0229239
0.0229649
0.0234087
0.0231819
0.0238522
0.0238758
0.0239506
0.0238776
0.0225305
0.0222065
0.0214329
0.0209173
0.0200094
0.019459
0.0187394
0.0183525
0.0177211
0.0180403
0.0187633
0.0189639
0.0198901
0.0199097
0.0206577
0.0208647
0.0213323
0.021465
0.0221336
0.0222733
0.022542
0.0225985
0.0238156
0.0239315
0.0239731
0.0239379
0.0239541
0.0241858
0.0241872
0.0241277
0.0241181
0.024056
0.0239033
0.0237565
0.024819
0.0254834
0.024999
0.0247565
0.0250253
0.0258879
0.0264408
0.0275437
0.0284027
0.0294887
0.0303867
0.0312214
0.0319021
0.032387
0.0325117
0.0325499
0.0320992
0.0317254
0.0334205
0.0399313
0.0431603
0.0484327
0.0508097
0.0527876
0.0535013
0.052342
0.0530595
0.0517811
0.0520375
0.0508427
0.0504069
0.0495872
0.0485771
0.0478589
0.0463866
0.0456574
0.0502767
0.056918
0.0570452
0.0499933
0.0470733
0.04275
0.0372099
0.0391639
0.0456923
0.0410502
0.0386355
0.0358158
0.0308037
0.0236717
0.0178171
0.0255067
0.0332552
0.04051
0.0473159
0.0533309
0.0572352
0.0593745
0.0609147
0.0626137
0.0605947
0.0531562
0.0415708
0.0317587
0.0279061
0.0263586
0.0239089
0.0204606
0.0185668
0.0174887
0.0163301
0.014976
0.0141128
0.0138663
0.0141008
0.014215
0.0155614
0.0168214
0.0168152
0.0179927
0.0178242
0.0183333
0.0189215
0.0193194
0.0199894
0.0199547
0.0189942
0.0193391
0.0196015
0.0202768
0.0201742
0.0203405
0.0201179
0.0193979
0.0188807
0.0182805
0.0177638
0.0173081
0.0167396
0.0160343
0.016022
0.0162218
0.0157805
0.0161862
0.0166224
0.0170249
0.0176502
0.0185572
0.0193171
0.0211483
0.0212945
0.0210442
0.0211326
0.0197065
0.0196474
0.0186729
0.0184424
0.0200363
0.0198826
0.0182093
0.0196066
0.019606
0.0213838
0.0213843
0.020711
0.0209061
0.0207852
0.0189574
0.0180663
0.0170001
0.0162235
0.0156391
0.0152429
0.0147816
0.0153986
0.0142128
0.0136324
0.0140768
0.014053
0.0141196
0.014507
0.0149357
0.0156793
0.0163822
0.0174254
0.0180626
0.0189601
0.0192936
0.0212025
0.0211161
0.0209928
0.0210239
0.0211603
0.0216133
0.0208207
0.0207828
0.0209218
0.0209364
0.020954
0.0209352
0.0190962
0.0188927
0.0180576
0.0177403
0.016811
0.0164532
0.0157985
0.0154853
0.0150964
0.0148995
0.0232697
0.0254668
0.0256322
0.0397851
0.0199825
0.0199722
0.0343285
0.0173507
0.0230673
0.0236223
0.0246974
0.0259085
0.0225545
0.0307241
0.0212168
0.0233251
0.0240615
0.0252413
0.0127843
0.0191781
0.036645
0.0422537
0.0436001
0.0485737
0.0553197
0.058562
0.0616213
0.0636816
0.0659551
0.0684213
0.0708378
0.0725963
0.072763
0.0691008
0.0660563
0.056579
0.0527615
0.0565127
0.0609503
0.0474592
0.0426606
0.0432118
0.0436869
0.0442269
0.0444413
0.0451378
0.0449473
0.0459556
0.045222
0.0463381
0.0451934
0.0462321
0.0449787
0.0422258
0.0389869
0.0327484
0.0307547
0.0296389
0.026911
0.0243985
0.0221324
0.0202929
0.0198532
0.01828
0.0168664
0.0165661
0.0152761
0.0155223
0.0167334
0.0198501
0.0168201
0.0176732
0.0259849
0.0191458
0.0180532
0.0186053
0.0191267
0.019364
0.0182587
0.0198945
0.0221773
0.0221631
0.0222243
0.0222299
0.0214249
0.0212618
0.020986
0.0210411
0.0210736
0.0211935
0.0211599
0.0193363
0.0192799
0.0190067
0.0188683
0.0180799
0.0179127
0.0173303
0.017001
0.0161619
0.0158686
0.0154186
0.0154689
0.0165443
0.0203063
0.0296703
0.0172228
0.0178438
0.0154615
0.0139456
0.0265687
0.0247593
0.0285953
0.0267584
0.0394056
0.0264119
0.0231774
0.0241897
0.0297019
0.0296342
0.0325585
0.0423286
0.0329842
0.0281195
0.0724849
0.0524389
0.0329975
0.0458026
0.0578167
0.108461
0.127182
0.0558247
0.0563639
0.06207
0.0629666
0.0628436
0.0531866
0.0490558
0.0411403
0.0315762
0.0129023
0.0248925
0.0321198
0.0424278
0.0566268
0.0919506
0.0528256
0.0596602
0.0656156
0.0646934
0.0677986
0.0659329
0.0645455
0.0654964
0.102655
0.111692
0.107315
0.0857757
0.0805093
0.0738693
0.123972
0.13913
0.119876
0.129934
0.135565
0.0808395
0.030211
0.0249352
0.0238125
0.026388
0.025337
0.0460249
0.0205709
0.0218126
0.0226418
0.0271561
0.0301724
0.0529348
0.0232384
0.0254547
0.0324093
0.0348838
0.0459925
0.0274315
0.0280976
0.0344382
0.036233
0.0395472
0.0336433
0.0317461
0.0287156
0.0259046
0.0244067
0.0254552
0.0318502
0.0463613
0.0278683
0.0282964
0.0300622
0.133457
0.0307277
0.0266373
0.0276907
0.0266984
0.033654
0.035111
0.111009
0.0354213
0.0166874
0.0154543
0.0159319
0.0167427
0.0173801
0.0179967
0.018442
0.0190812
0.0194767
0.0196284
0.0197964
0.0221746
0.0220802
0.0216133
0.0210697
0.0218651
0.0211703
0.0212201
0.0218377
0.0213046
0.0214472
0.0225008
0.0236738
0.0231888
0.023757
0.0251057
0.0239436
0.022237
0.0220328
0.0221569
0.022864
0.0240047
0.0228099
0.0234601
0.0226397
0.0235636
0.0236668
0.0203649
0.0199982
0.0197957
0.0192909
0.0186184
0.0179939
0.017321
0.0166661
0.0161522
0.0160564
0.0165277
0.0151785
0.015553
0.0178273
0.0390342
0.0321244
0.0263287
0.022099
0.0195016
0.0183883
0.018289
0.0187417
0.0193956
0.0199597
0.0201681
0.0207518
0.0246329
0.0245844
0.0257917
0.0246513
0.0259916
0.0249386
0.0236125
0.022742
0.0239513
0.023253
0.0237434
0.0253664
0.0262171
0.0238532
0.0241261
0.02153
0.0201122
0.0184911
0.0188321
0.0202862
0.020966
0.0234113
0.0234902
0.0269356
0.0269108
0.0267575
0.0255144
0.0248383
0.0262909
0.0248011
0.0259527
0.0248384
0.0262449
0.027428
0.0277741
0.027068
0.026201
0.0253238
0.0210505
0.0202634
0.0199566
0.0194601
0.0191908
0.0200762
0.0242434
0.0333092
0.0452787
0.0573358
0.0667784
0.0663738
0.0598442
0.0404006
0.0415562
0.0384736
0.0420436
0.0596711
0.0850899
0.0594851
0.113851
0.0882378
0.0523838
0.0627124
0.0746901
0.0838392
0.0897115
0.0905781
0.0769942
0.0565941
0.0496885
0.052129
0.0845732
0.0833075
0.082428
0.0779895
0.0824779
0.0803719
0.0777106
0.0761567
0.0743875
0.0701463
0.0701251
0.0674498
0.0674209
0.0602734
0.0614611
0.0616975
0.0591245
0.0563763
0.0540896
0.0518995
0.0495759
0.0456793
0.0443978
0.0419166
0.0401705
0.0368089
0.0362746
0.0357902
0.0336143
0.0320605
0.030806
0.0295432
0.0278378
0.0279968
0.0263968
0.0262388
0.0213777
0.0210001
0.0199868
0.0196496
0.0193921
0.0195689
0.0207694
0.023386
0.0433699
0.0330316
0.0329312
0.0335098
0.0337241
0.0396356
0.0464262
0.0706957
0.0654127
0.0720065
0.0615456
0.0640017
0.0632075
0.0628201
0.0655389
0.0691292
0.0744701
0.0869673
0.333729
0.513811
0.253369
0.237317
0.246918
0.251791
0.259217
0.339381
0.360242
0.356304
0.360762
0.33062
0.318365
0.196641
0.226046
0.238115
0.236984
0.223833
0.201975
0.392256
0.522663
0.518791
0.523658
0.52377
0.518765
0.522605
0.502912
0.514274
0.501758
0.51503
0.502299
0.521677
0.518937
0.504364
0.501137
0.501156
0.500916
0.501378
0.501555
0.504893
0.506055
0.506107
0.505102
0.504111
0.514526
0.435909
0.121703
0.0845254
0.140303
0.194947
0.159462
0.231405
0.266191
0.191789
0.108876
0.0886205
0.0999672
0.123089
0.124658
0.151654
0.198726
0.186188
0.15193
0.152951
0.15323
0.198285
0.190066
0.216383
0.258658
0.252156
0.187527
0.149161
0.147997
0.226007
0.241144
0.236417
0.121785
0.0435308
0.0217246
0.0225982
0.0326262
0.0164769
0.0168166
0.0219145
0.05703
0.0956344
0.0491948
0.135037
0.137172
0.181668
0.147164
0.178147
0.115242
0.11871
0.0675223
0.0795331
0.0894897
0.0952638
0.0995393
0.0934795
0.215865
0.318423
0.189954
0.560327
0.537663
0.195762
0.217032
0.575859
0.513013
0.503521
0.501784
0.501698
0.501858
0.501816
0.500969
0.500915
0.500728
0.500765
0.500716
0.501163
0.504767
0.520402
0.514613
0.50524
0.501385
0.500824
0.500799
0.50069
0.50073
0.50075
0.500807
0.501017
0.501049
0.50115
0.50167
0.503941
0.512032
0.435799
0.169956
0.18237
0.406166
0.361918
0.511505
0.504622
0.501369
0.500941
0.500855
0.500829
0.500794
0.500969
0.50089
0.501397
0.501231
0.501287
0.502777
0.50826
0.506399
0.443498
0.3697
0.417481
0.330249
0.506674
0.507779
0.503277
0.502899
0.503246
0.503413
0.501513
0.501527
0.500992
0.50106
0.500892
0.50134
0.504756
0.511017
0.346075
0.170933
0.177835
0.258143
0.0879175
0.0908254
0.0927346
0.0948139
0.24693
0.440967
0.555038
0.470788
0.474988
0.541806
0.385388
0.364161
0.293868
0.317526
0.401813
0.347198
0.312778
0.250271
0.288555
0.247771
0.303571
0.21794
0.234241
0.221804
0.283126
0.287012
0.28738
0.226795
0.216647
0.271724
0.286041
0.317054
0.218836
0.259129
0.203357
0.192407
0.0871238
0.0892816
0.0811535
0.0711929
0.0709694
0.0791188
0.0775725
0.0837728
0.0807822
0.0845017
0.081642
0.0796017
0.0727773
0.0747977
0.0685671
0.071211
0.130274
0.166464
0.150371
0.151792
0.179542
0.130978
0.157364
0.153367
0.197477
0.247881
0.226069
0.290566
0.224678
0.275405
0.405428
0.754162
0.436806
0.243932
0.317973
0.340249
0.288691
0.189568
0.449589
0.538724
0.298104
0.360466
1.19694
1.04418
1.78196
0.992343
1.11839
0.670278
0.597504
1.0284
0.653342
0.66564
0.559234
0.573141
0.498625
0.32395
0.323346
0.305266
0.241586
0.280141
0.270868
0.266635
0.29615
0.26122
0.316171
0.351977
0.396618
0.322427
0.285173
0.366315
0.215381
0.290073
0.34567
0.315094
0.25926
0.337246
0.449058
0.419827
0.36115
0.398335
0.508601
0.562325
0.530879
0.450246
0.510897
1.00506
0.961373
0.929945
0.589637
1.93387
1.71721
0.351323
0.136521
0.0950176
0.0359772
0.0223939
0.0182638
0.0178709
0.0487652
0.0195411
0.0235099
0.0211458
0.0298384
0.0272351
0.0314743
0.0551029
0.0374438
0.0524856
0.0389729
0.0516642
0.0411463
0.0565409
0.0607091
0.0638948
0.0516707
0.0407518
0.0615764
0.0821764
0.0384609
0.0989476
0.104555
0.0675201
0.0821517
0.101415
0.0524821
0.16407
0.0569498
0.0565181
0.0671053
0.125838
0.25007
0.084874
0.111479
0.583944
1.52898
0.50864
0.200351
0.163243
0.0413439
0.0358987
0.0291524