/*--------------------------------*- C++ -*----------------------------------*\
| =========                 |                                                 |
| \\      /  F ield         | OpenFOAM: The Open Source CFD Toolbox           |
|  \\    /   O peration     | Version:  v2012                                 |
|   \\  /    A nd           | Website:  www.openfoam.com                      |
|    \\/     M anipulation  |                                                 |
\*---------------------------------------------------------------------------*/
FoamFile
{
    version     2.0;
    format      ascii;
    class       volScalarField;
    location    "1130";
    object      alphat;
}
// * * * * * * * * * * * * * * * * * * * * * * * * * * * * * * * * * * * * * //

dimensions      [1 -1 -1 0 0 0 0];


internalField   nonuniform List<scalar> 
18258
(
0.00485812
0.00211165
0.00173047
0.00149935
0.000992506
0.00162445
0.00225598
0.00268573
0.00281778
0.00279355
0.00289216
0.00487983
0.00684766
0.00846213
0.00888828
0.00887298
0.00805249
0.00768894
0.00834516
0.0102691
0.00864396
0.00553579
0.00663578
0.00766442
0.00833059
0.00737499
0.00596051
0.00552249
0.00500098
0.00416824
0.00349244
0.00237179
0.00175685
0.00163012
0.00147611
0.00168203
0.00183136
0.00195181
0.00199614
0.0020276
0.00201355
0.00200193
0.00194777
0.00191532
0.00186006
0.00154148
0.0018786
0.00189313
0.00207372
0.00287318
0.00309101
0.00260216
0.00288192
0.00257152
0.00169518
0.00194052
0.00210656
0.00215207
0.00212443
0.00203627
0.00200656
0.0019814
0.0019495
0.00191164
0.00188857
0.0019075
0.00192727
0.00190634
0.00181265
0.00173674
0.00161389
0.00149072
0.0013994
0.00132865
0.00127532
0.00121619
0.00114973
0.00100992
0.00093599
0.00123933
0.00155582
0.00166232
0.00235607
0.00287253
0.00289204
0.00216436
0.00154227
0.00160052
0.00177937
0.00179736
0.00152328
0.00181138
0.00205209
0.00212706
0.00221684
0.00247766
0.00282054
0.00274965
0.00244866
0.00225587
0.00221806
0.00253917
0.00241264
0.0031291
0.00315319
0.00275316
0.0025318
0.00284949
0.00367507
0.00395462
0.00307429
0.00288739
0.00283011
0.00279399
0.00252674
0.00261509
0.00237483
0.00213984
0.0023313
0.00281818
0.00267291
0.00291942
0.00302538
0.00283848
0.0032893
0.00379331
0.00373805
0.00299124
0.00243805
0.00227262
0.00228995
0.00140049
0.0015124
0.00163007
0.00167
0.00169796
0.00172172
0.001836
0.00183187
0.00180497
0.00180099
0.00183259
0.00100993
0.00109417
0.00112138
0.00112923
0.00107253
0.0010615
0.00104169
0.00102559
0.000966882
0.000925104
0.00110695
0.001243
0.00135388
0.00148347
0.00167693
0.00191363
0.00216238
0.00241378
0.00258012
0.00262757
0.00267545
0.00257854
0.00248095
0.00256944
0.00258427
0.00256746
0.0025329
0.00248928
0.0024304
0.00232252
0.00244738
0.0024407
0.00229296
0.00196471
0.00200875
0.00200514
0.00205732
0.00204674
0.00206743
0.00203824
0.00200415
0.00190793
0.00177393
0.00147773
0.00143728
0.00145633
0.00187115
0.0022724
0.00351106
0.00428448
0.00497637
0.00532674
0.00570371
0.0046125
0.00513229
0.00395451
0.00355086
0.00451389
0.00590693
0.00336962
0.00183859
0.00348617
0.00309088
0.0022402
0.00199335
0.00205325
0.00205801
0.00236625
0.00272758
0.00302596
0.00317101
0.00329964
0.00340228
0.00351537
0.00365877
0.00369769
0.00357229
0.00302346
0.00364376
0.00295695
0.00344987
0.00311267
0.00209665
0.00224426
0.00237482
0.00217088
0.0021104
0.00202249
0.00181708
0.00222894
0.00289809
0.00336465
0.00384639
0.00512607
0.0047425
0.00455036
0.00352387
0.00340742
0.00176972
0.00252564
0.00261248
0.00293612
0.00195236
0.00178007
0.00168801
0.00223745
0.00259317
0.00306193
0.00339666
0.00403568
0.00312591
0.00356528
0.00322256
0.00224264
0.00216152
0.00309835
0.00333972
0.00274921
0.00245957
0.00308382
0.00291706
0.00206858
0.00166183
0.00255225
0.00264478
0.00189509
0.00470891
0.00500791
0.0047988
0.00585034
0.00732909
0.00834742
0.00776944
0.00688869
0.00769874
0.00611882
0.00592468
0.0063158
0.00529708
0.00370224
0.00379715
0.00392749
0.00403346
0.00433034
0.0046004
0.00493058
0.0052454
0.00476846
0.00395965
0.00299673
0.00206205
0.00203433
0.00202425
0.00181769
0.00269372
0.00407483
0.0040469
0.0022988
0.0013399
0.00151558
0.00171143
0.00169466
0.0012295
0.000925525
0.00159447
0.00182325
0.00185277
0.00180682
0.00170597
0.0017827
0.00286287
0.00441042
0.00484607
0.00501909
0.00518273
0.0052982
0.00536228
0.00538231
0.00539324
0.00540672
0.00541852
0.00543676
0.00541958
0.00530389
0.00466501
0.00293302
0.00171463
0.0015929
0.001758
0.00188938
0.0020041
0.00170532
0.00104263
0.00166539
0.00213241
0.00245082
0.00247163
0.00230663
0.00223752
0.00352807
0.00469084
0.00552906
0.00569861
0.00577388
0.0057101
0.00570138
0.00557636
0.0055368
0.00485438
0.00347584
0.00380092
0.00408143
0.00412885
0.00422466
0.00436832
0.00426693
0.00403016
0.00589238
0.00679788
0.00688478
0.00703112
0.00694749
0.00682682
0.00651593
0.00616099
0.00518639
0.00388923
0.00245381
0.00250486
0.00266641
0.00264074
0.00229864
0.00242226
0.0026289
0.00265523
0.00274211
0.0030752
0.0034929
0.0033317
0.00286676
0.00243475
0.00226704
0.0022197
0.0021299
0.0015955
0.00161912
0.00157366
0.0015995
0.00214856
0.00255724
0.00294914
0.00418331
0.00373186
0.00303504
0.0048128
0.00493097
0.00529693
0.00585095
0.00599611
0.00664311
0.00462573
0.00416905
0.0042828
0.0034984
0.0032382
0.00327275
0.00328508
0.00306163
0.003351
0.00332155
0.00320159
0.0035348
0.00389528
0.0051367
0.00622478
0.00656845
0.00676735
0.00684886
0.00682298
0.00668921
0.00673029
0.00591021
0.00590234
0.00565343
0.00549092
0.00543302
0.00516269
0.00591125
0.00613716
0.00621253
0.00636755
0.00660911
0.0064311
0.00623092
0.00607873
0.00596842
0.00585297
0.00591569
0.0060259
0.00614343
0.00630856
0.00652939
0.00656656
0.00633771
0.00616483
0.00604657
0.00593551
0.00594037
0.00603945
0.00615499
0.00631884
0.00652813
0.00641219
0.00624957
0.00610475
0.00598594
0.00588135
0.00567579
0.00581306
0.00596404
0.00608853
0.00616933
0.00533011
0.00569723
0.00559899
0.00506893
0.00474404
0.00360267
0.00389892
0.00411157
0.00447828
0.00497112
0.00506802
0.00425282
0.00364451
0.00355137
0.00352268
0.00360558
0.00363547
0.00365312
0.00412787
0.00622036
0.00626227
0.00627955
0.00628167
0.00537125
0.00521947
0.00486319
0.00888926
0.00827541
0.00717068
0.00591011
0.00316795
0.00271559
0.00321701
0.00391195
0.00437344
0.00482565
0.00320402
0.00198431
0.00231237
0.00239717
0.00233803
0.00216096
0.00180034
0.00166185
0.00150824
0.00162318
0.0028749
0.00458841
0.0051688
0.00522408
0.00517266
0.00507239
0.00495033
0.00478027
0.00472124
0.00595645
0.0080669
0.00909262
0.00905486
0.00777962
0.00634282
0.00357633
0.00184121
0.00135299
0.00146115
0.00160484
0.00188506
0.00168068
0.00141296
0.00154843
0.00146672
0.00297055
0.00512627
0.00652395
0.00774982
0.00762973
0.00663641
0.00541986
0.00513238
0.00525187
0.00533243
0.00540092
0.00547122
0.00551931
0.00548812
0.0049948
0.00308535
0.00184172
0.00163623
0.00175921
0.00206184
0.0021911
0.00221383
0.00218335
0.001893
0.0031313
0.00497148
0.00316202
0.00172508
0.00186369
0.00184985
0.00326318
0.00325839
0.00318855
0.00496076
0.00524558
0.00523262
0.00491675
0.00469346
0.00277901
0.00315439
0.0031651
0.00318174
0.00323377
0.00163388
0.00178104
0.00183659
0.00197745
0.00172755
0.00219483
0.00056802
0.000787502
0.000914813
0.000994919
0.00107202
0.00105171
0.00201236
0.00204202
0.0019483
0.00189692
0.0024073
0.00258318
0.00264014
0.00243169
0.00224371
0.00238821
0.0023935
0.00225582
0.00213675
0.00221528
0.00221685
0.00212463
0.00180716
0.00169341
0.00185889
0.00183887
0.00182426
0.00327518
0.00326933
0.00309449
0.00508307
0.00500191
0.00560232
0.0055663
0.00555977
0.00553694
0.00559673
0.00562796
0.00565134
0.00567859
0.00566758
0.00561241
0.00778098
0.00552279
0.00481911
0.00278726
0.002685
0.00189645
0.00166214
0.00195716
0.00209325
0.00226938
0.0022181
0.00233822
0.00233537
0.00247807
0.00229999
0.00204217
0.00312758
0.00334106
0.00326304
0.00332746
0.00324915
0.00322993
0.00320634
0.00316095
0.00310617
0.00184977
0.00181459
0.00212488
0.00223053
0.00239675
0.00241834
0.00247085
0.0023432
0.00206068
0.00199466
0.00229734
0.00226631
0.00231054
0.00217842
0.00216925
0.00193235
0.00198132
0.00399245
0.00735642
0.00379446
0.00421433
0.00381938
0.00434306
0.00380503
0.0032823
0.00335949
0.00295925
0.00308687
0.00323786
0.00329642
0.00346458
0.00408395
0.00393176
0.00345119
0.00335102
0.00328506
0.00309761
0.0027883
0.00292062
0.00294675
0.00300998
0.00334539
0.00383698
0.00430056
0.0052244
0.00506975
0.00444219
0.00406123
0.00425826
0.00433314
0.00545321
0.00509405
0.00506422
0.00534271
0.00529004
0.00501986
0.00475611
0.00459064
0.0039425
0.00400733
0.00458433
0.0044361
0.00457167
0.00449157
0.00466997
0.00475467
0.00456312
0.0042413
0.00446036
0.00445182
0.00494293
0.00480675
0.00445961
0.00407832
0.00436144
0.0043095
0.00497682
0.0046841
0.00438102
0.00403405
0.00386497
0.00438582
0.00430537
0.00488054
0.00502274
0.00502488
0.00438168
0.00427952
0.00508771
0.00489391
0.00472856
0.0049254
0.00408001
0.00419583
0.0051673
0.0052753
0.00500553
0.00418029
0.00424367
0.00363857
0.00427859
0.00532418
0.00502853
0.00412211
0.00342131
0.00478521
0.00503421
0.00532302
0.00503118
0.00547801
0.00590057
0.00481248
0.00523496
0.00683668
0.00522687
0.00606475
0.00619852
0.00623441
0.00623695
0.00626029
0.00629061
0.00662586
0.0064417
0.00410061
0.00490186
0.00476491
0.00398873
0.00339523
0.00373883
0.00402661
0.00408473
0.00418828
0.00434741
0.00427191
0.00412691
0.0060448
0.00689879
0.00704655
0.00718516
0.00706728
0.00689369
0.00649295
0.00600533
0.00499599
0.00372771
0.00232921
0.00237478
0.002531
0.0025074
0.00217538
0.00164058
0.00107852
0.00159969
0.00165502
0.00156028
0.00142443
0.00126152
0.00131207
0.00237762
0.00430742
0.00621276
0.00691488
0.00748078
0.00807126
0.00861505
0.00902385
0.0093236
0.00952924
0.00965702
0.00968396
0.00950005
0.00863236
0.00824243
0.0077593
0.00736211
0.0068185
0.00640677
0.00724627
0.00796405
0.00840726
0.00890444
0.00913489
0.00903839
0.00784885
0.00760232
0.00874996
0.0107874
0.00917027
0.0115283
0.013552
0.0105468
0.00948126
0.00947726
0.0106026
0.0108092
0.0104252
0.00982473
0.00913423
0.00825986
0.00869854
0.00909926
0.00948794
0.00984641
0.0107997
0.0109607
0.0108752
0.0106995
0.0104678
0.0101468
0.00965254
0.0089632
0.0081496
0.0073379
0.00639576
0.00439344
0.00222605
0.00250443
0.00246966
0.00249062
0.002499
0.00119728
0.00132231
0.00133855
0.00134627
0.00126844
0.00144489
0.0020886
0.00337545
0.00242613
0.00200324
0.00138065
0.00161455
0.002693
0.00455627
0.00514456
0.00525142
0.0053712
0.00708779
0.00795312
0.00843541
0.00881644
0.00907517
0.00896611
0.00867983
0.00817054
0.00751411
0.00726268
0.0068467
0.00648507
0.00628614
0.00608869
0.00570531
0.00445572
0.00432234
0.00450399
0.00444364
0.00425238
0.00454616
0.00471165
0.00470851
0.00476146
0.0048076
0.00494983
0.00511704
0.00526246
0.00533861
0.00536662
0.00537512
0.00538565
0.00539384
0.0054098
0.00539101
0.00527258
0.00462949
0.00289485
0.00168983
0.00156202
0.00171257
0.00181096
0.00185296
0.00164552
0.00105939
0.0016462
0.00213087
0.0021857
0.00239856
0.00247473
0.00262367
0.00292149
0.00337555
0.00348313
0.0030908
0.00292738
0.00286544
0.00279292
0.00239207
0.00298186
0.00328485
0.00327802
0.0032465
0.00350891
0.00431804
0.00414809
0.00365802
0.00361779
0.00358173
0.00324341
0.00319514
0.00348581
0.00352387
0.00365466
0.00428496
0.00513829
0.00476728
0.00434253
0.00416447
0.0038465
0.00339024
0.00306516
0.00375833
0.00307938
0.00163917
0.00139911
0.00138432
0.00139188
0.00134633
0.00159627
0.0016793
0.00170108
0.00157947
0.00175156
0.00194825
0.00188316
0.00213114
0.00210442
0.00188632
0.00186975
0.00201633
0.00212253
0.00217764
0.00224199
0.00366924
0.00379318
0.00293439
0.00424071
0.00488259
0.0048315
0.00512593
0.0042228
0.00378924
0.00449655
0.00518995
0.00594301
0.00470201
0.00445022
0.00454933
0.00209395
0.00110194
0.00155425
0.00192989
0.0021527
0.00208934
0.00197393
0.00166924
0.00295856
0.00303897
0.00481524
0.00540177
0.00547264
0.00543963
0.0055262
0.00605276
0.00697843
0.00788587
0.00815329
0.00803798
0.00768239
0.00702286
0.00635547
0.00631202
0.00608739
0.00592499
0.00587414
0.00509063
0.00452525
0.0048504
0.00476333
0.00492488
0.00500046
0.00505537
0.00511109
0.00520373
0.00531536
0.00541682
0.00548556
0.00553093
0.0055688
0.0056074
0.00564612
0.00568807
0.00571014
0.00565491
0.00510992
0.00306514
0.00182756
0.00166713
0.00177883
0.00209063
0.00220129
0.00236587
0.00210058
0.0011064
0.0013004
0.00226035
0.00250669
0.00231936
0.00217071
0.00213175
0.00178586
0.00323494
0.00319271
0.0050116
0.00563727
0.00571712
0.0057024
0.00565949
0.00561083
0.00556383
0.00552522
0.0054943
0.00546116
0.0054137
0.00535525
0.00530167
0.00524772
0.00515469
0.0050229
0.00486501
0.00505359
0.00523772
0.00545588
0.00568851
0.00580725
0.00570577
0.0055525
0.00548432
0.00551818
0.00556466
0.00561273
0.00565603
0.00567696
0.00561309
0.0052896
0.00496313
0.00314339
0.00318428
0.00156721
0.00174085
0.00200863
0.00207458
0.00225288
0.00224202
0.00176267
0.00137421
0.00155061
0.00144914
0.0025885
0.00284642
0.00315627
0.00312498
0.00169738
0.00174118
0.00180969
0.00204114
0.00189832
0.00183446
0.00452206
0.00433434
0.00453701
0.00556509
0.00479402
0.00331024
0.00362524
0.00504523
0.00532129
0.00321642
0.00241434
0.00267529
0.00338801
0.00498944
0.00505176
0.00479978
0.0047721
0.00348256
0.00428245
0.00515534
0.00501454
0.00390734
0.00269168
0.00200669
0.000976827
0.00185801
0.00158844
0.0038916
0.00430659
0.00425634
0.00465416
0.00494504
0.00499559
0.00485384
0.00430541
0.00439091
0.00443419
0.005052
0.00507419
0.00429651
0.00362566
0.00294595
0.00297219
0.00302958
0.00335678
0.00420294
0.00396002
0.00347111
0.00336605
0.00329366
0.00309818
0.00279599
0.00245253
0.0024695
0.00229857
0.00222451
0.00350647
0.00466734
0.00550377
0.00566214
0.00571971
0.00563238
0.00559314
0.0054339
0.00535186
0.0046499
0.00593929
0.00627751
0.00605665
0.00610035
0.00613739
0.00618322
0.00618324
0.00606632
0.00521317
0.00311342
0.00203372
0.0022955
0.00247761
0.00232655
0.00231336
0.00246562
0.00233966
0.00205517
0.00332973
0.00325457
0.0052037
0.00589293
0.00602004
0.00602843
0.00600512
0.00598596
0.00599425
0.00630937
0.00616334
0.00623737
0.00656015
0.00657356
0.00665434
0.00624826
0.00616941
0.00611933
0.00608602
0.00603134
0.005884
0.00520771
0.00504857
0.00573231
0.00590809
0.00598581
0.0060397
0.00610436
0.00618969
0.00643561
0.00661787
0.00668497
0.0064223
0.00632982
0.00618493
0.00597631
0.00592671
0.00591606
0.0059106
0.00588103
0.00572752
0.00504152
0.00324158
0.00332145
0.00197589
0.00198876
0.00229056
0.00240577
0.00236282
0.00218804
0.00213332
0.00366946
0.00417686
0.00444298
0.0047854
0.00457093
0.00454412
0.00519344
0.00502636
0.00447941
0.0046611
0.0041816
0.00398507
0.00385298
0.00387429
0.00203958
0.00220089
0.00229572
0.00225767
0.0021589
0.00192565
0.00176592
0.00322281
0.0031992
0.00315734
0.00187765
0.00183644
0.00216353
0.00210105
0.00192199
0.00163837
0.00179612
0.00277316
0.00310168
0.00480966
0.00498217
0.0053334
0.00570444
0.0058458
0.00588469
0.00590819
0.00593462
0.00599027
0.00605571
0.00607281
0.00606754
0.00611348
0.00610418
0.00610414
0.00607015
0.00603191
0.00598802
0.00594162
0.00586593
0.00571018
0.00533652
0.0049697
0.00560346
0.00565477
0.00575983
0.00586886
0.00591586
0.00592438
0.00590481
0.00586442
0.0058167
0.00576042
0.00575964
0.0059247
0.00596345
0.00599223
0.00597457
0.00595459
0.00594804
0.00592207
0.00587943
0.0057698
0.00565971
0.0056124
0.00551804
0.00566634
0.00573264
0.0057435
0.00580005
0.00589006
0.00591499
0.00591307
0.00586866
0.00583142
0.00578455
0.00570894
0.00561123
0.00527812
0.00534486
0.00543323
0.0055484
0.0056598
0.00574982
0.00580003
0.0058025
0.00574852
0.00571258
0.00571405
0.00566609
0.00569182
0.00571766
0.00568895
0.00568636
0.00569208
0.0056295
0.00551363
0.00535169
0.00517983
0.00503644
0.00496093
0.00484002
0.00523202
0.00537899
0.00551049
0.00562779
0.00573416
0.00584125
0.00587546
0.00586481
0.00579851
0.00576023
0.0057574
0.00570081
0.00569909
0.00575395
0.00575744
0.00578945
0.00584669
0.005829
0.00574909
0.00554828
0.00535317
0.00518395
0.00502291
0.00485064
0.00478904
0.00486722
0.00480652
0.00487864
0.00505013
0.00526308
0.00544628
0.00556172
0.00559724
0.00563086
0.00568136
0.00567547
0.00564558
0.00562945
0.00556121
0.00550217
0.00542948
0.00526876
0.0050622
0.00487842
0.00481667
0.00491254
0.00501055
0.00492004
0.00458215
0.004764
0.00493432
0.00510504
0.00534705
0.00562642
0.00575079
0.0057954
0.00576781
0.00574555
0.00574151
0.00568948
0.00567244
0.00572037
0.00572508
0.0057474
0.00578317
0.00574438
0.00564096
0.005298
0.00489175
0.00469761
0.00458419
0.00442759
0.00494468
0.00504747
0.00492262
0.00483856
0.00497013
0.00512484
0.00528555
0.00539227
0.00543423
0.00549252
0.00556919
0.00560564
0.00555105
0.00548761
0.00540901
0.0053681
0.00536582
0.00533666
0.00523225
0.00511132
0.00497447
0.00514291
0.00524074
0.00514683
0.0046694
0.00474671
0.00485785
0.0049219
0.00530204
0.00563753
0.00571999
0.00572563
0.00569225
0.00566991
0.00567013
0.00563969
0.00558471
0.00557522
0.00557024
0.00563465
0.00571844
0.00576253
0.00578307
0.00553174
0.00507736
0.0050046
0.00480259
0.00470487
0.00521598
0.00527549
0.00515587
0.00504328
0.00528424
0.0053876
0.00541792
0.00539838
0.00534383
0.00530725
0.00537496
0.00548141
0.00540036
0.00505081
0.00473949
0.00489897
0.00493671
0.00492293
0.00485525
0.00474399
0.00450305
0.00502739
0.00553761
0.00558036
0.00504286
0.00505087
0.00488298
0.00454127
0.00498247
0.00521955
0.00527374
0.00525628
0.00517754
0.00498194
0.00526291
0.00550973
0.00546251
0.00494447
0.00320926
0.00325355
0.00327732
0.00328061
0.00323721
0.00322499
0.0031777
0.00315313
0.00307976
0.00300505
0.00293394
0.00312864
0.00329602
0.0035211
0.00353924
0.00363212
0.00347568
0.00329062
0.00307268
0.0023932
0.00303666
0.00362222
0.00385036
0.00414249
0.00420333
0.00485055
0.0051035
0.00524131
0.00514167
0.00412615
0.0035006
0.00279761
0.00181943
0.00113365
0.00133076
0.00138415
0.00145468
0.00177918
0.00328838
0.00167457
0.00232496
0.0018173
0.00313408
0.00165406
0.00103229
0.000685484
0.000876313
0.00104221
0.00105277
0.0010079
0.0008403
0.000660053
0.000674721
0.000628256
0.000667431
0.000599173
0.000686215
0.000640437
0.000895094
0.0013472
0.00152769
0.00156096
0.00126135
0.00142181
0.00118777
0.00136945
0.00122256
0.00133228
0.00127778
0.00156279
0.00171267
0.00163983
0.00164453
0.0014392
0.0010068
0.00116693
0.000916947
0.00110089
0.000842679
0.00108861
0.000933556
0.00121313
0.00125073
0.00124731
0.00120114
0.000917816
0.00108877
0.00085724
0.0010557
0.000865491
0.000924802
0.000770251
0.00111828
0.00113887
0.00104817
0.00111852
0.00125882
0.00135313
0.00149114
0.00140703
0.00160047
0.00154112
0.00155637
0.00147354
0.00143189
0.00139899
0.00140157
0.0013783
0.00138564
0.00143007
0.00143205
0.00143748
0.00148263
0.00146069
0.00142545
0.00140433
0.00124767
0.00100667
0.00175356
0.00180845
0.0018353
0.00183477
0.00179346
0.0017736
0.0017133
0.00169715
0.00164471
0.00161356
0.00154282
0.0014842
0.00141764
0.0015927
0.000890993
0.00101141
0.00106754
0.00109888
0.00112082
0.00113074
0.00113888
0.00113238
0.00111827
0.00109052
0.00108097
0.00105082
0.00134449
0.00152912
0.00159835
0.00161697
0.00151595
0.0014438
0.0031553
0.00381757
0.00580931
0.00593668
0.00445472
0.0044423
0.00153904
0.00162314
0.00111022
0.00156026
0.00160901
0.00159294
0.00150517
0.00108599
0.00163022
0.00113593
0.00153286
0.00115153
0.00142824
0.00118326
0.0016886
0.00215265
0.00207781
0.00188205
0.00129364
0.00107985
0.00108559
0.000928282
0.00101661
0.000829566
0.00101184
0.000850319
0.00125846
0.00178465
0.00197206
0.002011
0.00158528
0.00218695
0.00164399
0.00237994
0.0018886
0.00232878
0.0018677
0.00216175
0.00267471
0.00268673
0.00262321
0.00211463
0.00169565
0.00190282
0.00168639
0.0019417
0.00280652
0.00183989
0.00279004
0.00115326
0.0015721
0.00162056
0.00159852
0.00150745
0.00101598
0.00258726
0.00136849
0.00243824
0.00157933
0.00253658
0.00184248
0.00244636
0.00292711
0.00306239
0.00305288
0.00249089
0.00224861
0.00232972
0.00186281
0.00223604
0.00166136
0.00240724
0.00135754
0.00176157
0.00194861
0.00205069
0.00205907
0.00169268
0.00334194
0.00209787
0.00316648
0.00220118
0.00282004
0.00225969
0.00247224
0.00291927
0.0029012
0.00287703
0.0024398
0.00197454
0.00260625
0.00185984
0.0553531
0.127949
0.0508872
0.129272
0.0585441
0.0830811
0.0818591
0.0820275
0.0823281
0.0618033
0.134867
0.159381
0.166228
0.168251
0.167001
0.26989
0.220069
0.330696
0.214408
0.126136
0.0546682
0.0754054
0.194666
0.321502
0.482351
0.611988
0.417003
0.431621
0.275421
0.271546
0.25561
0.206715
0.126604
0.0634703
0.0109245
0.011971
0.0170935
0.0227364
0.0179349
0.0109991
0.00217093
0.00224068
0.00229178
0.00232433
0.00231809
0.00227174
0.00231194
0.0021892
0.00206442
0.00231164
0.0025193
0.00266217
0.0031452
0.00347997
0.00313687
0.00344039
0.00364722
0.00381526
0.0039537
0.00415993
0.00439241
0.00459746
0.00460875
0.00422301
0.00359908
0.00292845
0.00246267
0.00233352
0.00219151
0.00193259
0.001768
0.00165599
0.00160142
0.00157856
0.00162191
0.00177223
0.00190237
0.00194793
0.00190927
0.00187427
0.00184372
0.00164172
0.00191941
0.00263289
0.00265405
0.00454692
0.00523922
0.00534788
0.005355
0.00474782
0.00303306
0.00303956
0.0030551
0.00311308
0.00312516
0.00313262
0.00312925
0.00311778
0.00309955
0.00306549
0.00304864
0.00299946
0.00295801
0.00285445
0.00285907
0.00289534
0.00292435
0.00287655
0.00288836
0.00282813
0.00366697
0.00490774
0.00554782
0.00579924
0.00601559
0.00583877
0.00808554
0.00690855
0.00485428
0.00478381
0.00472429
0.00560169
0.00564082
0.00510181
0.00512283
0.00466401
0.00291103
0.00290168
0.00290359
0.0031051
0.00316603
0.00327457
0.00330452
0.00333171
0.0033477
0.00334266
0.0033409
0.00331238
0.00329047
0.00321654
0.00319192
0.00318134
0.00175385
0.00191412
0.00198548
0.00199844
0.00202678
0.00201419
0.00200172
0.00197744
0.00196138
0.00192829
0.00188987
0.00183363
0.00172407
0.0015707
0.00172861
0.00293437
0.00293359
0.00478296
0.00540754
0.00544711
0.0060533
0.00574731
0.00544305
0.00584019
0.00527132
0.0052303
0.00472703
0.00293406
0.00297418
0.00176452
0.00174934
0.00204505
0.00198871
0.00212506
0.00218325
0.00219029
0.00222084
0.00224992
0.00228606
0.00234444
0.00236215
0.0023261
0.00231953
0.00218502
0.00188805
0.00191045
0.0022525
0.00236261
0.00219322
0.0021541
0.00213695
0.00208419
0.0020442
0.00200592
0.00203181
0.00218738
0.00218468
0.00214586
0.00204182
0.00198809
0.00172346
0.00166426
0.00291072
0.00295444
0.00489077
0.00500392
0.00496075
0.00571296
0.00637578
0.00725607
0.00619251
0.00503907
0.00527148
0.00602504
0.00448383
0.00375121
0.00223414
0.00167159
0.00209032
0.00192273
0.00200496
0.00207737
0.00184499
0.00198246
0.00183316
0.00166588
0.00165676
0.00165487
0.00169592
0.00171321
0.00174447
0.00174874
0.00179143
0.00178751
0.00179305
0.00181502
0.00182524
0.00201675
0.00219254
0.00184503
0.00156403
0.0015232
0.00143824
0.001369
0.00140221
0.00136826
0.00135982
0.00133471
0.00131198
0.00125181
0.00130438
0.00138396
0.00161896
0.00154967
0.00125261
0.00111931
0.000765084
0.000780401
0.000785807
0.000810032
0.00081893
0.000829868
0.000833946
0.000847598
0.000850268
0.000854604
0.000854285
0.000875204
0.000872248
0.000862304
0.000855826
0.000860041
0.000864086
0.000863528
0.00126451
0.00140819
0.00153897
0.00182818
0.00215194
0.00185223
0.00156957
0.00135226
0.000869189
0.000882274
0.000898442
0.00090674
0.000926152
0.000943752
0.000963484
0.000975903
0.000985292
0.000995048
0.00100535
0.00100947
0.00100701
0.000987538
0.00097607
0.00100085
0.00110003
0.00115765
0.00123158
0.00125948
0.00128316
0.00129487
0.00128875
0.00130229
0.00128702
0.00128492
0.00126306
0.00125377
0.00124492
0.00123374
0.00121981
0.00118534
0.00117389
0.001235
0.00209224
0.00273749
0.00315355
0.00347453
0.00321744
0.00261525
0.00274298
0.00482303
0.00457062
0.00269348
0.00251744
0.00232743
0.00204012
0.0017674
0.00213168
0.00243503
0.00266475
0.0028662
0.00305033
0.00317523
0.00333542
0.00354449
0.00391438
0.00396111
0.00361335
0.00292878
0.00248044
0.00231773
0.00223964
0.0021029
0.00195341
0.00200216
0.00201645
0.00195624
0.00188138
0.00185984
0.00189038
0.00192909
0.00190586
0.00190512
0.00170196
0.00170139
0.0029071
0.00296272
0.00455712
0.00480119
0.00484716
0.00311686
0.00307384
0.00179538
0.00166725
0.00181883
0.00188802
0.0018918
0.00189923
0.00188932
0.00185607
0.00183179
0.00180354
0.00178068
0.00176059
0.00172583
0.00165958
0.00153273
0.00167031
0.00187331
0.0019562
0.00197764
0.00198783
0.00201919
0.00207066
0.002112
0.00220792
0.00221803
0.00221743
0.00222541
0.00208016
0.00214547
0.00181575
0.00181333
0.00314306
0.00313484
0.00180082
0.00212659
0.00214074
0.00211604
0.00227783
0.00208432
0.00201798
0.00200685
0.00192161
0.00187632
0.00181605
0.00178008
0.00181501
0.00193083
0.00186961
0.00165668
0.00159743
0.00179177
0.00172349
0.00142992
0.00122167
0.00118802
0.00113721
0.00110641
0.00115966
0.00120117
0.00122486
0.00125497
0.00126392
0.00131934
0.00128378
0.0013474
0.00142891
0.00149392
0.0017722
0.00192031
0.0017348
0.00170133
0.00168021
0.00167811
0.00168333
0.00161377
0.00160916
0.00157327
0.00155561
0.00150876
0.0014876
0.0014607
0.00146553
0.00148101
0.00162818
0.0041936
0.00534469
0.00556589
0.009494
0.00384216
0.00392335
0.00767808
0.00318477
0.0047835
0.00512439
0.00535886
0.00559582
0.00512173
0.00649546
0.00454324
0.00505947
0.00527643
0.00462778
0.00172858
0.00195901
0.00226418
0.00202732
0.00179108
0.00122116
0.00131726
0.00136059
0.00139574
0.00141852
0.00144384
0.00147093
0.00149638
0.00151426
0.00151458
0.00146863
0.00141907
0.00130514
0.00126722
0.0013163
0.00136707
0.00120082
0.00113069
0.00114409
0.00116302
0.00117365
0.00117598
0.00118759
0.00119076
0.00120905
0.00119936
0.00120862
0.00118803
0.00119863
0.00118287
0.00114242
0.00108578
0.00098937
0.000965742
0.00139099
0.00148118
0.00155603
0.00176553
0.00203841
0.00217507
0.00194927
0.0017972
0.00172507
0.00191368
0.00191394
0.00347603
0.00667358
0.00298859
0.0033504
0.0097685
0.0038816
0.00301853
0.00306446
0.00309673
0.00310091
0.00180208
0.00213461
0.00206987
0.0020779
0.0017622
0.00147941
0.00132676
0.00118623
0.000804291
0.000801597
0.000807651
0.000819957
0.000823775
0.000788453
0.000788358
0.000783845
0.000782077
0.000765473
0.000760842
0.000747362
0.00073918
0.000719772
0.000709245
0.000690734
0.000687398
0.000716002
0.000795232
0.000961033
0.00107098
0.00121648
0.001239
0.00139796
0.00346656
0.00401982
0.00553674
0.00549029
0.00865832
0.00541076
0.00408809
0.00369566
0.00540577
0.00558401
0.00518394
0.00702263
0.00486109
0.00321697
0.00481533
0.00400109
0.00476403
0.00466553
0.00494808
0.00786709
0.00830137
0.00233774
0.00208425
0.0021929
0.00248766
0.00295328
0.00271916
0.00309764
0.00309463
0.00238815
0.00152118
0.00484535
0.00583717
0.00468237
0.00561956
0.00870587
0.00349764
0.00341152
0.00301898
0.00251992
0.00229034
0.00225961
0.00251943
0.00301462
0.0075611
0.00808306
0.00743382
0.00739767
0.00671209
0.00738792
0.00923722
0.00920483
0.00813274
0.00761123
0.007874
0.004857
0.00303149
0.00353218
0.00391313
0.00522065
0.00538341
0.0113688
0.00385792
0.0042618
0.00432834
0.00579024
0.00560559
0.00991765
0.00419815
0.00452875
0.00596738
0.00797755
0.0147213
0.00536529
0.00565516
0.00813707
0.00826052
0.00754877
0.00545029
0.0049377
0.00538043
0.00405339
0.0039622
0.00338287
0.00499439
0.00672508
0.00531487
0.00516116
0.0043925
0.00390644
0.00400447
0.00415485
0.00345062
0.00340307
0.00392881
0.00291148
0.00281709
0.00298606
0.000828593
0.000424777
0.000434283
0.000445558
0.000454716
0.000464137
0.000471047
0.000479221
0.00048294
0.000483328
0.000484545
0.000512485
0.000507786
0.000491741
0.000446516
0.000509559
0.000808646
0.000809232
0.000509031
0.000448766
0.000805192
0.00128316
0.00151293
0.00178999
0.0018123
0.00156362
0.00135551
0.000834202
0.000821112
0.000497704
0.000581256
0.000631213
0.000559827
0.000624752
0.000579029
0.000613334
0.000619587
0.000573183
0.000570017
0.000572226
0.000567834
0.00055775
0.000545409
0.000530364
0.000518491
0.000511925
0.000506735
0.000495516
0.000412139
0.000384
0.000461354
0.000735211
0.000734135
0.00068833
0.000649319
0.000616055
0.000600983
0.000596819
0.000593594
0.000603961
0.000623513
0.000629028
0.000634525
0.000683775
0.000662619
0.000707764
0.000664212
0.000709659
0.000666139
0.000612799
0.000514546
0.000530897
0.000856469
0.000865589
0.00139877
0.00160042
0.00181492
0.00182436
0.00203642
0.00214454
0.00181581
0.00188525
0.00216089
0.00201269
0.00179424
0.00180115
0.00162029
0.00162165
0.00143626
0.000897455
0.000885233
0.000555947
0.000539887
0.000643757
0.000632461
0.000703393
0.000752733
0.000752957
0.000750507
0.000731387
0.000724583
0.000637173
0.000624697
0.000625509
0.00060655
0.000602461
0.000628038
0.000685028
0.000803613
0.000971854
0.00105838
0.0010957
0.00105134
0.000941603
0.000694199
0.000627807
0.00108759
0.0011296
0.00201788
0.00477773
0.00221699
0.00426406
0.00307832
0.000766288
0.000855225
0.00109064
0.00122212
0.00131937
0.00137467
0.00125587
0.00104753
0.000788805
0.000651499
0.000973945
0.000842191
0.000951589
0.000831141
0.00107568
0.00124379
0.00120329
0.00121241
0.00102469
0.000834787
0.000884033
0.00079377
0.000874922
0.000732425
0.000881205
0.000795691
0.000999922
0.0010093
0.000988301
0.000936786
0.000713291
0.000748375
0.000627721
0.000680928
0.000611291
0.000631786
0.000598651
0.000698154
0.000804476
0.000772052
0.000769009
0.000631832
0.000495057
0.000546746
0.000472697
0.000534979
0.00041574
0.000503638
0.000422387
0.00054677
0.000563625
0.000566565
0.000562804
0.000457769
0.000538149
0.000659728
0.00069285
0.000698602
0.000665584
0.00051302
0.000793928
0.000716811
0.000875274
0.000757253
0.000828781
0.000754806
0.000879814
0.00112678
0.0011764
0.00118425
0.000960774
0.000954609
0.00174154
0.0964884
0.00156655
0.00185147
0.00190912
0.00190219
0.00157273
0.00153462
0.00190049
0.00140616
0.00199098
0.00125362
0.00212301
0.000809351
0.00123022
0.00132077
0.00131793
0.00122479
0.000821011
0.00242776
0.119349
0.308185
0.334302
0.333727
0.320737