/*--------------------------------*- C++ -*----------------------------------*\
| =========                 |                                                 |
| \\      /  F ield         | OpenFOAM: The Open Source CFD Toolbox           |
|  \\    /   O peration     | Version:  v2012                                 |
|   \\  /    A nd           | Website:  www.openfoam.com                      |
|    \\/     M anipulation  |                                                 |
\*---------------------------------------------------------------------------*/
FoamFile
{
    version     2.0;
    format      ascii;
    class       volScalarField;
    location    "1130";
    object      nut;
}
// * * * * * * * * * * * * * * * * * * * * * * * * * * * * * * * * * * * * * //

dimensions      [0 2 -1 0 0 0 0];


internalField   nonuniform List<scalar> 
18258
(
0.00420048
0.00182622
0.00149668
0.00129678
0.000858326
0.00140471
0.00195083
0.00232213
0.00243613
0.00241491
0.00249989
0.00421793
0.00591876
0.00731358
0.00768122
0.00766723
0.00695743
0.00664344
0.00720995
0.00887047
0.00746493
0.0047816
0.00573081
0.00661904
0.00719374
0.00636864
0.00514819
0.00476974
0.0043193
0.00359996
0.00301645
0.00204983
0.00151881
0.00140929
0.00127621
0.0014542
0.00158322
0.00168727
0.00172553
0.00175267
0.0017405
0.00173044
0.00168363
0.00165561
0.0016079
0.00133262
0.00162381
0.00163563
0.00179143
0.00248195
0.00266981
0.00224723
0.00248816
0.00222073
0.00146475
0.00167644
0.00181988
0.00185919
0.00183543
0.00175938
0.00173383
0.0017122
0.00168475
0.00165213
0.00163229
0.00164875
0.00166592
0.00164789
0.001567
0.0015014
0.00139524
0.00128879
0.00120985
0.00114868
0.00110256
0.00105142
0.000993954
0.000873074
0.000809153
0.00107137
0.00134496
0.00143697
0.00203664
0.00248303
0.00249978
0.00187093
0.00133331
0.00138373
0.00153835
0.00155391
0.00131707
0.00156582
0.00177382
0.00183855
0.0019161
0.00214155
0.00243801
0.00237688
0.00211673
0.0019501
0.00191747
0.00219531
0.00208599
0.00270515
0.00272596
0.00238001
0.00218849
0.00246307
0.00317655
0.00341791
0.00265701
0.00249542
0.00244595
0.00241483
0.00218399
0.00226032
0.00205267
0.00184957
0.00201497
0.00243557
0.0023101
0.00252317
0.00261465
0.00245308
0.0028426
0.00327809
0.00323046
0.0025851
0.00210736
0.00196439
0.00197934
0.00121054
0.00130724
0.00140878
0.00144329
0.00146745
0.00148799
0.00158676
0.00158319
0.00155997
0.00155653
0.00158392
0.000872887
0.000945671
0.000969168
0.00097595
0.000926942
0.000917401
0.000900283
0.000886372
0.000835718
0.00079963
0.000956817
0.00107441
0.00117025
0.00128225
0.0014494
0.00165386
0.00186867
0.00208568
0.00222919
0.00227006
0.00231128
0.00222759
0.00214328
0.00221966
0.00223248
0.00221801
0.00218821
0.00215056
0.00209969
0.00200646
0.0021141
0.00210826
0.00198067
0.00169751
0.00173546
0.00173232
0.00177737
0.00176826
0.00178613
0.00176097
0.00173156
0.00164852
0.00153286
0.00127688
0.00124159
0.00125788
0.00161612
0.00196265
0.00303246
0.00370035
0.00429809
0.00460075
0.00492564
0.00398311
0.00443207
0.00341468
0.00306606
0.00389765
0.00510079
0.00290965
0.0015876
0.0030103
0.00266912
0.00193453
0.0017214
0.00177316
0.00177756
0.00204387
0.00235543
0.00261261
0.00273763
0.00284867
0.00293715
0.00303486
0.00315854
0.00319239
0.00308415
0.0026107
0.00314514
0.00255296
0.00297925
0.00268844
0.00181098
0.00193894
0.00205175
0.00187551
0.00182322
0.00174729
0.00157015
0.00192581
0.00250261
0.00290526
0.00332115
0.00442644
0.00409506
0.00392892
0.00304256
0.00294212
0.00152811
0.00218087
0.00225587
0.00253534
0.00168589
0.00153725
0.00145792
0.00193224
0.00223879
0.0026431
0.00293174
0.00348307
0.0026987
0.00307876
0.00278325
0.00193707
0.00186698
0.00267596
0.00288404
0.00237365
0.00212375
0.0026632
0.00251943
0.00178672
0.00143545
0.00220447
0.00228428
0.00163665
0.00406624
0.00432388
0.00414319
0.00505035
0.00632762
0.00720551
0.00670679
0.00594705
0.00664618
0.00528384
0.00511612
0.00545297
0.00457419
0.0031975
0.00327894
0.00339099
0.00348179
0.00373738
0.00396991
0.00425449
0.00452645
0.00411605
0.00341977
0.0025894
0.00178224
0.00175828
0.00174955
0.001571
0.0023281
0.00352184
0.00349764
0.00198705
0.00115833
0.0013102
0.00147946
0.00146495
0.00106303
0.000800191
0.00137851
0.00157608
0.00160149
0.00156169
0.00147445
0.00154076
0.00247438
0.00381197
0.00418842
0.00433794
0.0044794
0.00457926
0.00463474
0.00465218
0.00466177
0.00467358
0.00468394
0.00469987
0.00468518
0.00458533
0.00403317
0.00253596
0.00148267
0.00137751
0.00152033
0.00163396
0.00173323
0.00147502
0.000901776
0.00144031
0.00184425
0.00211934
0.00213724
0.00199441
0.00193454
0.00305028
0.00405551
0.00477998
0.00492638
0.00499127
0.00493598
0.00492829
0.00482008
0.00478576
0.00419579
0.00300469
0.00328532
0.0035277
0.00356864
0.00365143
0.00377566
0.00368811
0.00348376
0.00509306
0.00587627
0.00595179
0.00607894
0.00600726
0.00590347
0.00563502
0.00532836
0.00448567
0.00336384
0.00212235
0.00216664
0.00230654
0.00228444
0.00198873
0.00209532
0.00227394
0.00229667
0.00237171
0.00265964
0.00302063
0.00288115
0.00247903
0.00210551
0.0019605
0.00191953
0.00184185
0.0013797
0.00140016
0.00136087
0.00138322
0.00185798
0.00221149
0.00255027
0.00361753
0.00322712
0.00262465
0.00416146
0.00426364
0.00457998
0.00505895
0.00518448
0.00574372
0.00399973
0.00360493
0.00370348
0.00302555
0.00280059
0.00283059
0.0028413
0.00264822
0.00289856
0.00287299
0.00276915
0.00305732
0.00336877
0.00444222
0.00538286
0.00567972
0.00585132
0.00592132
0.00589842
0.0057823
0.00581746
0.00510818
0.00510116
0.00488586
0.00474537
0.00469532
0.00446176
0.00510904
0.00530425
0.00536945
0.00550354
0.0057125
0.00555894
0.00538572
0.00525408
0.00515867
0.0050589
0.00511331
0.0052086
0.00531026
0.00545315
0.00564428
0.00567683
0.00547868
0.00532905
0.00522671
0.00513064
0.00513504
0.0052208
0.00532082
0.00546271
0.005644
0.0055441
0.00540313
0.00527767
0.00517478
0.00508422
0.00490672
0.00502555
0.00515629
0.00526419
0.00533443
0.00460901
0.0049261
0.00484091
0.00438242
0.00410139
0.00311472
0.00337092
0.00355486
0.00387198
0.00429831
0.0043823
0.00367779
0.00315181
0.00307144
0.00304667
0.00311853
0.00314433
0.00315944
0.00356989
0.00537899
0.00541516
0.00543015
0.00543202
0.00464483
0.00451352
0.00420527
0.00768564
0.00715511
0.00620047
0.00511061
0.00273972
0.00234863
0.00278208
0.00338291
0.0037821
0.00417284
0.00277073
0.00171608
0.00199989
0.0020734
0.00202241
0.0018694
0.00155776
0.00143792
0.00130494
0.00140423
0.00248676
0.00396858
0.00447037
0.00451803
0.00447343
0.00438661
0.00428103
0.00413404
0.00408308
0.00515119
0.00697565
0.0078621
0.00782948
0.00672732
0.0054851
0.00309254
0.00159202
0.00117001
0.00126383
0.00138808
0.00163035
0.00145369
0.00122189
0.00133892
0.00126843
0.00256868
0.00443325
0.00564182
0.00670136
0.00659746
0.0057386
0.00468653
0.00443764
0.00454076
0.00461044
0.00466977
0.0047307
0.00477245
0.00474567
0.0043193
0.00266836
0.00159302
0.00141539
0.00152184
0.00178366
0.00189531
0.00191478
0.00188826
0.00163707
0.00270779
0.00429872
0.00273424
0.00149184
0.00161178
0.00159992
0.00282191
0.00281763
0.00275719
0.0042894
0.00453545
0.00452395
0.00425118
0.00405836
0.00240318
0.00272763
0.0027368
0.0027511
0.00279597
0.00141294
0.00154022
0.00158832
0.0017103
0.0014944
0.00189808
0.000491183
0.000681229
0.000791166
0.000860435
0.000927097
0.000909485
0.00174051
0.00176619
0.00168515
0.00164072
0.00208184
0.00223387
0.00228305
0.00210279
0.0019402
0.00206511
0.00206972
0.00195073
0.00184772
0.00191559
0.00191694
0.00183722
0.00156269
0.00146429
0.00160736
0.00159008
0.00157749
0.00283168
0.00282653
0.0026754
0.00439426
0.00432429
0.00484313
0.00481219
0.00480687
0.00478742
0.00483894
0.00486563
0.00488552
0.00490888
0.00489924
0.00485169
0.00672506
0.00477385
0.0041658
0.00240961
0.00232133
0.00163976
0.00143716
0.00169231
0.00181
0.00196233
0.00191803
0.00202175
0.00201936
0.00214268
0.00198855
0.00176554
0.00270388
0.00288833
0.00282078
0.00287636
0.00280859
0.0027919
0.00277154
0.00273238
0.00268513
0.00159919
0.00156889
0.00183721
0.00192859
0.00207234
0.00209093
0.00213638
0.00202587
0.00178151
0.00172439
0.00198616
0.00195928
0.00199766
0.00188337
0.00187532
0.00167043
0.0017128
0.0034512
0.00635871
0.00328019
0.00364322
0.00330192
0.00375462
0.00328957
0.00283768
0.00290451
0.00255855
0.00266898
0.0027995
0.00285018
0.00299564
0.00353124
0.0033998
0.00298425
0.00289759
0.00284051
0.00267841
0.00241092
0.00252536
0.00254801
0.00260272
0.00289277
0.00331779
0.0037186
0.00451724
0.00438357
0.00384106
0.00351169
0.00368205
0.00374678
0.00471505
0.0044046
0.00437877
0.00461945
0.00457383
0.00434015
0.00411206
0.00396895
0.00340864
0.00346454
0.00396315
0.00383517
0.00395243
0.00388323
0.00403753
0.00411089
0.00394525
0.00366707
0.00385657
0.00384918
0.00427369
0.00415588
0.00385585
0.0035261
0.003771
0.00372616
0.00430302
0.00404984
0.0037878
0.00348796
0.00334186
0.00379216
0.00372258
0.00421972
0.00434274
0.0043446
0.0037886
0.00370024
0.00439884
0.00423122
0.00408842
0.00425864
0.00352784
0.00362791
0.00446768
0.00456109
0.00432795
0.00361456
0.00366932
0.00314615
0.00369954
0.00460339
0.00434788
0.0035643
0.00295839
0.00413746
0.00435258
0.00460214
0.00434978
0.00473584
0.00510084
0.00416048
0.00452552
0.00590973
0.00451859
0.00524255
0.00535794
0.00538874
0.00539073
0.00541071
0.00543674
0.0057263
0.00556693
0.00354393
0.00423623
0.00411783
0.00344707
0.00293482
0.0032314
0.00348005
0.00353023
0.00361971
0.0037573
0.00369212
0.00356706
0.00522378
0.00596235
0.0060905
0.00621122
0.00611018
0.00596079
0.00561485
0.00519367
0.00432102
0.00322417
0.00201463
0.00205417
0.00218947
0.00216916
0.00188215
0.00141942
0.000933157
0.00138425
0.00143211
0.0013501
0.00123255
0.00109153
0.00113513
0.00205671
0.00372642
0.0053745
0.00598127
0.00647011
0.00698009
0.00744971
0.00780264
0.00806135
0.00823876
0.00834894
0.00837204
0.00821304
0.0074632
0.00712608
0.00670831
0.00636488
0.00589471
0.00553878
0.00626347
0.00688331
0.00726574
0.00769474
0.00789306
0.00780863
0.00678012
0.00656746
0.00755868
0.00931772
0.00791893
0.00995405
0.0117038
0.00910927
0.00818909
0.00818575
0.00915944
0.00933966
0.00900887
0.0084908
0.00789473
0.0071396
0.00751909
0.00786574
0.00820197
0.00851206
0.00933582
0.00947499
0.00940124
0.00924967
0.00904983
0.00877278
0.00834596
0.00775052
0.00704761
0.00634636
0.00553228
0.00380077
0.00192568
0.00216647
0.00213644
0.00215467
0.00216197
0.00103594
0.0011441
0.00115813
0.00116481
0.00109745
0.00125008
0.00180683
0.00291969
0.00209869
0.00173291
0.00119437
0.00139662
0.00232923
0.00394047
0.00444913
0.00454141
0.00464497
0.00612966
0.00687751
0.00729409
0.00762312
0.00784643
0.00775192
0.00750434
0.00706416
0.00649683
0.00627938
0.00591964
0.00560683
0.00543454
0.00526368
0.0049323
0.00385181
0.00373606
0.0038928
0.00384052
0.00367551
0.00392913
0.00407209
0.00406933
0.00411506
0.00415492
0.00427785
0.0044224
0.00454813
0.00461403
0.00463835
0.00464583
0.00465507
0.0046623
0.00467625
0.00466016
0.00455795
0.0040022
0.00250279
0.00146113
0.00135072
0.00148095
0.00156605
0.00160243
0.00142317
0.000916188
0.0014236
0.0018428
0.00189
0.00207401
0.00213986
0.00226867
0.00252624
0.00291896
0.00301211
0.0026731
0.00253187
0.00247841
0.00241577
0.00206923
0.00257928
0.00284117
0.00283521
0.00280782
0.00303462
0.00373391
0.00358739
0.00316371
0.00312909
0.00309795
0.00280556
0.0027637
0.00301481
0.00304769
0.00316059
0.00370557
0.00444296
0.00412241
0.00375524
0.00360156
0.0033266
0.00293232
0.00265119
0.00325103
0.00266386
0.00141802
0.0012105
0.00119776
0.0012043
0.0011649
0.00138113
0.00145295
0.00147178
0.0013666
0.00151549
0.00168568
0.00162937
0.00184367
0.00182064
0.001632
0.00161769
0.0017445
0.00183635
0.00188398
0.00193956
0.00317392
0.00328111
0.00253823
0.00366811
0.00422339
0.00417922
0.00443378
0.00365259
0.00327761
0.00388939
0.00448903
0.00514034
0.00406695
0.00384923
0.00393485
0.00181119
0.000953096
0.00134436
0.00166934
0.00186206
0.00180725
0.0017074
0.00144382
0.0025587
0.0026281
0.0041638
0.00467077
0.00473186
0.00470317
0.00477806
0.0052336
0.00603425
0.00681881
0.00704972
0.00694985
0.00664238
0.0060723
0.00549544
0.00545772
0.00526332
0.00512266
0.00507841
0.004401
0.00391155
0.00419211
0.00411655
0.00425614
0.00432146
0.00436893
0.00441712
0.00449723
0.00459375
0.0046815
0.00474097
0.00478027
0.00481311
0.00484658
0.00488018
0.00491656
0.00493577
0.00488817
0.00441724
0.00264986
0.00158017
0.00144148
0.0015381
0.00180772
0.00190341
0.00204578
0.00181668
0.000956748
0.001125
0.00195493
0.00216754
0.00200546
0.00187693
0.00184326
0.00154416
0.00279664
0.00276025
0.00433252
0.00487317
0.00494202
0.00492914
0.00489191
0.00484973
0.004809
0.00477553
0.00474871
0.00471998
0.0046789
0.00462832
0.00458199
0.0045354
0.00445516
0.00434129
0.0042063
0.00436949
0.00452838
0.00471666
0.00491756
0.00501997
0.00493204
0.00479941
0.00474046
0.00476981
0.0048101
0.00485178
0.00488936
0.00490762
0.0048526
0.00457316
0.00429123
0.00271783
0.00275308
0.00135523
0.0015053
0.00173687
0.00179393
0.00194803
0.00193873
0.00152433
0.00118829
0.00134085
0.00125312
0.00223841
0.00246134
0.00272912
0.00270198
0.00146781
0.00150572
0.00156502
0.00176508
0.00164165
0.00158647
0.00390987
0.00374752
0.00392269
0.00481128
0.00414482
0.00286225
0.00313452
0.00436197
0.00460056
0.00278103
0.00208762
0.00231317
0.00292946
0.00431368
0.0043675
0.00414958
0.00412576
0.0030115
0.00370304
0.00445719
0.0043354
0.00337897
0.00232812
0.00173509
0.000844626
0.0016066
0.00137352
0.0033647
0.00372344
0.00367993
0.00402372
0.00427528
0.004319
0.00419638
0.0037224
0.00379635
0.00383377
0.00436776
0.00438688
0.00371474
0.00313477
0.00254715
0.00256992
0.0026196
0.00290255
0.00363414
0.00342413
0.00300137
0.00291048
0.00284782
0.00267877
0.00241745
0.0021207
0.00213527
0.00198732
0.00192316
0.00303141
0.00403491
0.00475777
0.00489447
0.00494406
0.00486841
0.00483436
0.00469661
0.00462562
0.00401886
0.00513255
0.00542496
0.00523421
0.00527212
0.00530431
0.00534412
0.00534435
0.00524354
0.00450644
0.00269146
0.00175812
0.00198455
0.00214215
0.00201161
0.00200012
0.00213172
0.00202268
0.00177663
0.00287835
0.00281326
0.00449793
0.00509334
0.00520294
0.00520996
0.00518963
0.00517289
0.00517989
0.00545206
0.00532566
0.00538969
0.00566867
0.00568031
0.00575048
0.00539974
0.00533178
0.00528869
0.0052601
0.00521306
0.00508596
0.0045017
0.00436386
0.00495458
0.00510627
0.00517323
0.00521962
0.00527532
0.00534891
0.00556125
0.00571847
0.00577646
0.00554938
0.00546939
0.00534435
0.00516419
0.00512146
0.00511242
0.00510788
0.00508254
0.00495011
0.00435748
0.00280186
0.00287097
0.00170799
0.00171917
0.00198017
0.00207993
0.00204288
0.00189185
0.00184457
0.00317267
0.00361118
0.00384139
0.00413726
0.00395179
0.00392876
0.00449012
0.00434563
0.00387318
0.00403022
0.00361562
0.00344573
0.00333103
0.00334935
0.00176348
0.00190284
0.00198471
0.00195168
0.00186625
0.00166452
0.00152643
0.00278557
0.00276519
0.00272909
0.00162308
0.00158756
0.00187037
0.00181648
0.00166178
0.00141651
0.00155281
0.00239726
0.00268106
0.00415737
0.00430614
0.00460952
0.00492993
0.00505186
0.00508528
0.00510541
0.00512809
0.00517606
0.00523249
0.00524717
0.00524271
0.00528247
0.00527441
0.00527458
0.00524537
0.00521248
0.00517473
0.00513481
0.00506959
0.00493521
0.00461252
0.00429563
0.00484323
0.00488735
0.0049779
0.00507191
0.00511234
0.00511954
0.00510245
0.00506738
0.00502597
0.00497716
0.0049765
0.00511907
0.00515248
0.00517744
0.00516231
0.00514517
0.00513967
0.00511738
0.00508073
0.00498621
0.00489132
0.00485065
0.00476944
0.00489742
0.00495439
0.00496353
0.00501217
0.00508975
0.0051111
0.00510929
0.00507077
0.00503848
0.00499785
0.00493244
0.00484807
0.00456031
0.00461796
0.00469447
0.00479415
0.00489057
0.00496852
0.00501207
0.00501438
0.00496794
0.00493711
0.00493862
0.00489752
0.00491958
0.00494156
0.00491651
0.00491405
0.0049188
0.00486455
0.00476426
0.00462417
0.0044755
0.00435142
0.00428599
0.00418149
0.00452016
0.00464714
0.0047609
0.00486239
0.00495442
0.00504709
0.0050768
0.00506778
0.00501068
0.00497783
0.00497562
0.00492704
0.00492539
0.00497249
0.00497527
0.00500272
0.005052
0.00503655
0.00496736
0.0047937
0.004625
0.00447864
0.00433934
0.00419046
0.00413718
0.00420479
0.00415255
0.00421507
0.00436343
0.00454761
0.00470609
0.00480602
0.00483689
0.00486615
0.00491003
0.00490527
0.00487927
0.00486501
0.00480581
0.00475459
0.0046916
0.00455255
0.00437388
0.0042149
0.00416135
0.00424396
0.0043284
0.00425013
0.00395817
0.00411536
0.00426274
0.00441045
0.0046197
0.00486125
0.00496887
0.00500757
0.0049839
0.00496487
0.0049616
0.00491694
0.00490206
0.0049432
0.00494707
0.00496617
0.00499693
0.00496326
0.00487375
0.00457721
0.004226
0.00405803
0.00395979
0.0038244
0.00427124
0.00436015
0.00425256
0.00418017
0.00429409
0.00442797
0.004567
0.00465938
0.00469578
0.00474633
0.00481279
0.0048446
0.00479728
0.00474218
0.00467407
0.00463858
0.00463648
0.00461116
0.00452081
0.00441613
0.00429765
0.00444291
0.00452694
0.00444568
0.00403302
0.00409989
0.00419629
0.00425192
0.00458061
0.00487071
0.00494213
0.00494716
0.00491845
0.00489931
0.00489968
0.00487364
0.00482602
0.00481758
0.00481312
0.00486864
0.00494093
0.0049789
0.00499652
0.00477912
0.0043862
0.00432304
0.00414804
0.00406355
0.00450526
0.00455691
0.00445416
0.00435721
0.00456573
0.00465519
0.00468148
0.00466466
0.0046176
0.00458609
0.00464475
0.00473698
0.00466685
0.00436458
0.00409544
0.0042332
0.00426576
0.00425379
0.00419523
0.00409894
0.00389047
0.00434316
0.00478324
0.00481981
0.00435532
0.00436234
0.0042179
0.00392304
0.00430454
0.00450961
0.00455657
0.00454159
0.00447365
0.00430473
0.00454765
0.00476114
0.00472027
0.00427244
0.002773
0.00281125
0.00283179
0.00283461
0.00279711
0.00278653
0.00274568
0.00272443
0.00266107
0.00259653
0.00253516
0.0027034
0.00284802
0.00304251
0.00305822
0.00313847
0.00300336
0.00284354
0.00265525
0.00206842
0.00262451
0.00313047
0.0033276
0.00358009
0.00363278
0.0041918
0.00441021
0.00452922
0.00444312
0.00356573
0.0030252
0.00241772
0.00157236
0.000979728
0.00115009
0.00119628
0.00125726
0.00153733
0.00282288
0.0014392
0.00199283
0.00155904
0.00267889
0.00142719
0.000892027
0.000592344
0.00075723
0.000900594
0.000909746
0.000871024
0.000726182
0.000570455
0.000583128
0.00054298
0.000576835
0.000517838
0.000593065
0.000553472
0.000773582
0.00116429
0.00132019
0.00134887
0.0010899
0.00122854
0.00102637
0.00118333
0.00105653
0.00115123
0.00110427
0.00135033
0.00147983
0.00141688
0.00142092
0.00124349
0.000869887
0.00100831
0.000792288
0.00095127
0.000728067
0.00094052
0.000806445
0.00104794
0.00108036
0.00107733
0.00103739
0.000792615
0.000940096
0.000740187
0.000911609
0.000747427
0.000799107
0.000665644
0.000966321
0.000984134
0.000905802
0.000966497
0.0010876
0.00116888
0.00128782
0.0012154
0.00138192
0.00133058
0.00134359
0.00127219
0.00123648
0.00120819
0.00121053
0.00119051
0.00119691
0.00123534
0.0012371
0.00124184
0.00128093
0.00126201
0.00123158
0.00121333
0.00107804
0.000869865
0.00151514
0.00156251
0.00158564
0.00158515
0.00154946
0.00153229
0.00148022
0.00146626
0.00142099
0.00139408
0.00133301
0.00128238
0.00122492
0.0013761
0.000769835
0.000873837
0.000922309
0.000949373
0.000968318
0.000976898
0.000983939
0.000978349
0.00096619
0.000942243
0.000934009
0.00090799
0.00116167
0.00132113
0.00138094
0.00139701
0.00130969
0.00124731
0.00272557
0.00329747
0.00501699
0.00512693
0.00384762
0.00383704
0.00132951
0.00140193
0.000958655
0.00134725
0.00138925
0.00137524
0.00129933
0.000937311
0.00140708
0.000980398
0.00132314
0.000994131
0.00123367
0.00102202
0.00145822
0.00185901
0.00179468
0.00162581
0.00111765
0.000933134
0.000938107
0.000802213
0.000878538
0.000716913
0.000874437
0.000734815
0.00108756
0.00154224
0.00170406
0.00173758
0.00136963
0.00188944
0.00142046
0.00205618
0.00163191
0.00201189
0.00161367
0.00186726
0.00231034
0.00232071
0.00226582
0.0018265
0.00146462
0.00164379
0.00145672
0.00167748
0.00242326
0.00158847
0.0024087
0.000995474
0.00135697
0.00139862
0.00137939
0.00130053
0.000876146
0.00223086
0.00117979
0.00210195
0.00136164
0.0021876
0.00158896
0.00210898
0.00252413
0.00264162
0.00263429
0.00214993
0.00194158
0.00201161
0.00160867
0.00193091
0.00143476
0.002079
0.00117257
0.00152145
0.00168292
0.00177105
0.00177837
0.00146201
0.00288624
0.00181187
0.00273455
0.00190107
0.00243509
0.00195152
0.00213468
0.00252067
0.00250498
0.00248403
0.00210647
0.00170462
0.00225016
0.00160564
0.0478012
0.110449
0.0439428
0.111576
0.0505511
0.0717193
0.0706503
0.0707751
0.0710161
0.0533055
0.116274
0.137437
0.143377
0.145165
0.144118
0.232915
0.189953
0.285441
0.185087
0.108887
0.0472103
0.065111
0.168059
0.277535
0.416333
0.528146
0.359877
0.37242
0.237637
0.234232
0.220437
0.178238
0.109145
0.054731
0.00941268
0.0103083
0.0147222
0.0195897
0.0154732
0.00949755
0.0018759
0.00193609
0.00198018
0.00200827
0.0020029
0.00196293
0.00199781
0.0018918
0.00178399
0.00199751
0.00217696
0.00229998
0.00271717
0.00300605
0.00271014
0.0029721
0.00315047
0.00329525
0.0034144
0.00359212
0.00379258
0.00396954
0.00397962
0.0036474
0.0031094
0.00253061
0.00212833
0.00201672
0.00189398
0.0016702
0.00152798
0.00143116
0.00138398
0.00136423
0.00140169
0.00153166
0.00164419
0.0016836
0.00165028
0.00161994
0.00159348
0.00141887
0.00165892
0.00227554
0.00229351
0.00392933
0.00452749
0.0046214
0.00462759
0.00410272
0.00262089
0.00262648
0.00263989
0.00268996
0.00270039
0.00270681
0.00270389
0.00269395
0.00267819
0.00264872
0.00263414
0.00259157
0.00255573
0.00246612
0.00247012
0.00250141
0.00252637
0.00248509
0.00249525
0.0024433
0.00316874
0.00424123
0.00479404
0.00501088
0.00519709
0.0050442
0.00698639
0.00596976
0.00419392
0.00413264
0.00408126
0.00483864
0.00487195
0.00440615
0.00442442
0.00402866
0.00251463
0.00250664
0.00250829
0.00268252
0.0027352
0.00282909
0.002855
0.00287856
0.0028924
0.00288809
0.00288659
0.00286199
0.00284308
0.00277924
0.00275799
0.00274887
0.00151546
0.00165391
0.00171554
0.00172673
0.0017512
0.00174031
0.00172951
0.0017085
0.00169459
0.00166598
0.00163273
0.00158411
0.00148939
0.00135689
0.0014933
0.0025347
0.00253401
0.00413131
0.00467022
0.00470429
0.00522807
0.0049644
0.00470185
0.00504415
0.00455255
0.00451725
0.004083
0.00253435
0.00256901
0.00152431
0.0015112
0.00176674
0.00171805
0.00183591
0.00188623
0.00189236
0.00191879
0.00194395
0.0019752
0.00202568
0.002041
0.00200987
0.00200421
0.00188801
0.00163144
0.00165081
0.00194633
0.00204146
0.00189508
0.00186126
0.00184642
0.0018008
0.00176623
0.00173312
0.00175546
0.00188982
0.00188744
0.00185392
0.00176396
0.00171757
0.00148885
0.00143775
0.00251419
0.0025521
0.00422484
0.00432205
0.00428477
0.00493514
0.00550871
0.00626972
0.00535039
0.00435339
0.00455419
0.00520591
0.00387474
0.00324117
0.00193079
0.00144424
0.00180623
0.00166115
0.00173227
0.00179477
0.00159405
0.0017128
0.00158385
0.00143933
0.00143147
0.00142983
0.00146533
0.00148027
0.0015073
0.00151098
0.00154791
0.00154451
0.00154932
0.0015683
0.00157715
0.00174263
0.00189454
0.00159428
0.00135148
0.00131618
0.00124276
0.00118292
0.00121162
0.00118226
0.00117497
0.00115326
0.00113361
0.00108161
0.00112703
0.00119577
0.00139879
0.00133895
0.0010823
0.000967136
0.000661079
0.000674298
0.000678967
0.000699904
0.000707593
0.000717046
0.000720571
0.000732373
0.000734682
0.00073843
0.000738155
0.000756242
0.000753689
0.000745098
0.000739502
0.000743157
0.000746659
0.000746178
0.00109266
0.00121682
0.00132984
0.00157975
0.00185948
0.00160054
0.0013563
0.00116851
0.000751084
0.000762392
0.000776366
0.000783537
0.000800319
0.000815531
0.00083259
0.000843327
0.000851446
0.000859881
0.00086879
0.000872348
0.00087023
0.000853405
0.000843498
0.000864918
0.000950612
0.0010004
0.00106428
0.0010884
0.00110887
0.00111899
0.00111371
0.00112542
0.00111224
0.00111043
0.00109156
0.00108354
0.0010759
0.00106625
0.00105422
0.00102445
0.00101456
0.00106738
0.00180823
0.00236589
0.00272542
0.00300287
0.00278076
0.00226032
0.00237068
0.00416796
0.00394967
0.00232778
0.00217555
0.00201124
0.00176286
0.00152731
0.00184193
0.00210396
0.00230237
0.00247632
0.00263527
0.00274307
0.00288137
0.00306193
0.00338143
0.0034219
0.00312182
0.00253077
0.0021436
0.00200303
0.00193554
0.00181735
0.00168815
0.00173027
0.0017426
0.00169054
0.00162584
0.00160722
0.00163365
0.00166715
0.00164712
0.00164641
0.00147078
0.00147027
0.00251216
0.00256011
0.00393792
0.00414882
0.00418854
0.0026933
0.00265613
0.00155145
0.00144071
0.00157166
0.00163143
0.0016347
0.0016411
0.00163254
0.00160378
0.00158279
0.00155837
0.0015386
0.00152121
0.00149115
0.00143386
0.00132427
0.00144314
0.00161857
0.00169023
0.00170879
0.00171762
0.00174474
0.00178923
0.00182497
0.00190787
0.00191662
0.00191611
0.00192301
0.00179751
0.00185397
0.00156908
0.001567
0.00271594
0.00270883
0.00155621
0.0018377
0.0018499
0.00182857
0.00196834
0.00180112
0.00174378
0.00173415
0.00166047
0.00162133
0.00156923
0.00153813
0.0015683
0.00166835
0.00161541
0.00143137
0.00138021
0.00154819
0.00148924
0.00123563
0.00105569
0.00102662
0.000982709
0.000956091
0.00100211
0.00103798
0.00105844
0.00108447
0.0010922
0.00114011
0.00110938
0.00116437
0.0012348
0.001291
0.00153147
0.00165942
0.00149913
0.00147019
0.00145194
0.00145011
0.00145462
0.00139449
0.00139051
0.00135948
0.00134423
0.00130373
0.00128546
0.0012622
0.00126638
0.00127974
0.00140691
0.00362351
0.00461809
0.00480927
0.00820447
0.00331968
0.00338975
0.00663489
0.00275151
0.00413297
0.00442761
0.00463029
0.004835
0.00442525
0.00561282
0.0039253
0.0043714
0.00455895
0.00399864
0.00149369
0.00169303
0.00195728
0.00175253
0.0015483
0.00105558
0.00113861
0.00117602
0.00120639
0.00122605
0.00124793
0.00127133
0.00129333
0.00130878
0.00130906
0.00126936
0.00122652
0.00112807
0.00109528
0.0011377
0.00118156
0.00103789
0.000977279
0.00098886
0.00100522
0.0010144
0.00101641
0.00102643
0.00102916
0.00104496
0.00103658
0.00104456
0.00102676
0.00103591
0.00102229
0.000987329
0.000938384
0.000855071
0.000834647
0.00120216
0.00128009
0.00134476
0.00152578
0.00176154
0.0018796
0.00168445
0.00155301
0.00149067
0.00165371
0.00165399
0.00300372
0.00576663
0.00258257
0.00289509
0.00844059
0.00335404
0.00260831
0.00264799
0.00267587
0.00267951
0.00155731
0.00184463
0.00178871
0.00179563
0.00152286
0.00127847
0.00114655
0.00102511
0.000695046
0.000692704
0.000697933
0.000708568
0.000711866
0.000681333
0.000681251
0.000677351
0.000675822
0.000661471
0.00065747
0.000645822
0.000638753
0.000621982
0.000612888
0.000596895
0.000594019
0.000618815
0.00068733
0.000830737
0.000925597
0.00105135
0.00107078
0.0012081
0.00299548
0.00347338
0.00478396
0.00474387
0.00748171
0.00467517
0.00353235
0.00319331
0.00467088
0.00482486
0.0044793
0.00606825
0.00420036
0.00277986
0.00416164
0.00345803
0.0041166
0.00403175
0.00427592
0.0067984
0.00717398
0.00202074
0.00180163
0.00189545
0.00215019
0.00255262
0.00235047
0.0026774
0.0026748
0.00206409
0.00131439
0.00418643
0.00504384
0.00404619
0.00485625
0.00752268
0.00302286
0.00294839
0.0026092
0.00217796
0.00197956
0.00195304
0.00217758
0.00260553
0.00653373
0.00698499
0.00642445
0.0063927
0.00580038
0.00638395
0.0079821
0.00795407
0.00702792
0.00657732
0.0068047
0.00419769
0.00261964
0.00305208
0.00338119
0.00451093
0.00465158
0.00982448
0.00333341
0.00368237
0.00373994
0.00500317
0.00484365
0.00857045
0.00362747
0.00391317
0.00515632
0.00689338
0.0127215
0.00463607
0.00488657
0.00703125
0.00713789
0.00652285
0.00470948
0.00426652
0.00464904
0.00350241
0.00342359
0.00292307
0.00431544
0.00581114
0.00459232
0.00445951
0.00379537
0.00337561
0.0034601
0.00359007
0.00298161
0.00294053
0.00339472
0.00251569
0.00243418
0.00258024
0.000716032
0.00036709
0.000375298
0.000385037
0.000392949
0.000401089
0.000407058
0.000414123
0.000417337
0.000417673
0.000418723
0.000442873
0.000438813
0.000424949
0.000385873
0.000440363
0.000698814
0.000699319
0.000439906
0.000387829
0.000695843
0.00110889
0.00130746
0.00154688
0.00156618
0.00135127
0.00117143
0.000720914
0.0007096
0.000430126
0.00050233
0.000545504
0.000483806
0.000539912
0.00050039
0.000530033
0.000535437
0.000495334
0.000492599
0.000494508
0.000490712
0.000481998
0.000471337
0.000458342
0.000448091
0.00044243
0.000437961
0.000428282
0.000356177
0.000331871
0.000398769
0.000635613
0.000634664
0.000595027
0.000561262
0.000532468
0.000519411
0.000515793
0.000512992
0.000521946
0.000538845
0.000543611
0.000548362
0.000590923
0.000572637
0.000611666
0.000574023
0.000613312
0.000575696
0.000529598
0.000444685
0.000458816
0.000740159
0.000748042
0.00120883
0.00138309
0.00156844
0.00157662
0.00175982
0.00185322
0.00156917
0.00162916
0.00186736
0.00173931
0.0015506
0.00155655
0.00140028
0.00140145
0.00124124
0.000775589
0.000765023
0.000480465
0.000466586
0.000556363
0.000546596
0.000607902
0.000650547
0.000650739
0.000648618
0.000632088
0.000626203
0.000550654
0.000539875
0.000540581
0.000524197
0.000520674
0.000542801
0.000592097
0.000694661
0.000840169
0.000915004
0.000947244
0.000908854
0.00081397
0.000600159
0.000542747
0.000940201
0.0009765
0.00174426
0.00412897
0.00191631
0.00368545
0.00266073
0.000662408
0.000739256
0.000942764
0.00105646
0.00114058
0.00118843
0.00108573
0.000905567
0.000681942
0.000563249
0.000842048
0.00072815
0.000822728
0.000718632
0.000929979
0.00107532
0.00104028
0.00104814
0.00088582
0.000721651
0.00076426
0.000686216
0.000756419
0.000633195
0.00076186
0.000687836
0.00086438
0.000872477
0.00085431
0.000809764
0.000616558
0.000646877
0.000542612
0.000588589
0.000528426
0.000546107
0.000517492
0.000603438
0.000695334
0.0006673
0.000664658
0.000546083
0.000427867
0.000472555
0.000408539
0.000462382
0.000359311
0.000435291
0.000365046
0.000472559
0.000487134
0.000489688
0.000486455
0.000395676
0.00046511
0.00057018
0.000598791
0.000603748
0.000575203
0.000443341
0.000686141
0.000619465
0.000756441
0.000654412
0.000716254
0.000652299
0.000760322
0.000973763
0.00101665
0.00102344
0.000830308
0.000825079
0.0015046
0.0833977
0.00135344
0.00159965
0.00164944
0.00164343
0.00135873
0.00132569
0.0016417
0.00121462
0.00171988
0.00108285
0.00183406
0.00069932
0.00106311
0.00114139