/*--------------------------------*- C++ -*----------------------------------*\
| =========                 |                                                 |
| \\      /  F ield         | OpenFOAM: The Open Source CFD Toolbox           |
|  \\    /   O peration     | Version:  v2012                                 |
|   \\  /    A nd           | Website:  www.openfoam.com                      |
|    \\/     M anipulation  |                                                 |
\*---------------------------------------------------------------------------*/
FoamFile
{
    version     2.0;
    format      ascii;
    class       volScalarField;
    location    "615";
    object      epsilon;
}
// * * * * * * * * * * * * * * * * * * * * * * * * * * * * * * * * * * * * * //

dimensions      [0 2 -3 0 0 0 0];


internalField   nonuniform List<scalar> 
18258
(
0.0239784
0.0122333
0.00910292
0.00715409
0.0126379
0.0125103
0.0129712
0.0173034
0.0241082
0.0369418
0.0535157
0.0481274
0.0435232
0.0452816
0.0474584
0.0450287
0.0351003
0.0303594
0.0399755
0.0666667
0.0608018
0.0496718
0.0608046
0.0513813
0.0655589
0.0827846
0.0635399
0.0570911
0.0511959
0.0481567
0.0416909
0.0240215
0.0341323
0.0526172
0.0720215
0.0787942
0.084504
0.0892903
0.0944723
0.0966218
0.0968971
0.091709
0.0825519
0.0674707
0.0495058
0.0379635
0.0295199
0.0318049
0.0444482
0.0450484
0.0557104
0.0855879
0.107978
0.0809753
0.0518555
0.082562
0.112508
0.144263
0.170793
0.193261
0.201
0.197595
0.186078
0.169356
0.147912
0.122923
0.101929
0.085006
0.0672152
0.0574182
0.0464671
0.0385539
0.0329864
0.0293263
0.0271257
0.0253957
0.024228
0.0251618
0.025049
0.017864
0.0140537
0.0132039
0.00944747
0.00785309
0.00817237
0.0077754
0.00807745
0.00713223
0.00610609
0.0052976
0.00448754
0.00652735
0.00701873
0.00725891
0.00727741
0.00780319
0.00806667
0.00780421
0.00790128
0.00723558
0.0073673
0.0118566
0.0136579
0.0173357
0.0154567
0.010673
0.00911652
0.0101562
0.0107814
0.0133851
0.0125767
0.0133625
0.0118546
0.0108208
0.00914298
0.00888491
0.0091256
0.00970041
0.0101095
0.011714
0.0115406
0.0106984
0.0118358
0.0130628
0.0127917
0.012245
0.0116621
0.0143117
0.0115117
0.0121984
0.0137005
0.022074
0.021599
0.0260885
0.0256097
0.0260575
0.0262428
0.0316388
0.0317602
0.0321314
0.032451
0.0341415
0.0572378
0.051015
0.0499116
0.049718
0.0430289
0.0425585
0.041859
0.0426745
0.0361974
0.0348459
0.0315924
0.0312254
0.0348376
0.043998
0.0615172
0.0888214
0.12282
0.159211
0.189515
0.210524
0.232276
0.237653
0.251525
0.256209
0.257104
0.251425
0.242999
0.233524
0.220654
0.202051
0.189072
0.148565
0.105148
0.0591805
0.0785146
0.0905462
0.100276
0.102189
0.103362
0.0993092
0.0930807
0.0818994
0.0663288
0.0430614
0.0486753
0.0659013
0.0681945
0.0689258
0.0546821
0.0526367
0.0488869
0.0488728
0.0641991
0.0736762
0.0619415
0.0856332
0.100593
0.0879648
0.0637658
0.0976647
0.143466
0.0807621
0.0686645
0.0531879
0.0522099
0.0441428
0.0371856
0.0628946
0.0939668
0.129042
0.150085
0.171765
0.189216
0.202423
0.216436
0.188214
0.171048
0.115236
0.201723
0.153186
0.0775934
0.0574534
0.0561185
0.0444611
0.0504571
0.0557531
0.0516145
0.0395634
0.027532
0.0250616
0.0462795
0.0644496
0.0778583
0.0620089
0.0788829
0.0888339
0.0961202
0.10142
0.128646
0.0946704
0.106074
0.0759633
0.103155
0.0732279
0.0472275
0.0527374
0.100666
0.160382
0.219631
0.256641
0.146034
0.0741113
0.055139
0.0553751
0.0533365
0.0481586
0.0597631
0.106143
0.0719775
0.0466982
0.0405516
0.0479374
0.0411199
0.0305763
0.0320414
0.0397177
0.0550297
0.0692012
0.081995
0.125433
0.121999
0.147167
0.154509
0.13023
0.125931
0.0814773
0.0835966
0.123076
0.0918335
0.0742665
0.104276
0.147551
0.202028
0.248556
0.289089
0.314938
0.30423
0.275176
0.174073
0.0762386
0.0229499
0.0178227
0.0168573
0.0173322
0.0105329
0.00631139
0.00586753
0.00668958
0.00703156
0.00591972
0.0054464
0.0054363
0.00578817
0.0101875
0.00875359
0.0108332
0.0131267
0.0156777
0.0187249
0.0194542
0.0129084
0.00873746
0.00819932
0.00813481
0.00806581
0.00803639
0.00804818
0.00808887
0.00810516
0.00807323
0.00799491
0.00785807
0.00772276
0.00766571
0.00830299
0.0111975
0.0153642
0.0148541
0.0135628
0.0122058
0.0110426
0.00871116
0.0151599
0.0128521
0.0109431
0.0134058
0.0165155
0.0208737
0.0245275
0.0176931
0.0141653
0.0128205
0.0126954
0.0125821
0.0126291
0.0125085
0.0125761
0.0123804
0.0129824
0.0135876
0.0169855
0.0190111
0.0211875
0.0226833
0.0232609
0.023975
0.0211421
0.0229561
0.0227289
0.0235111
0.0233274
0.0226416
0.020728
0.0189415
0.0177233
0.0191416
0.0237144
0.0323799
0.02677
0.0207778
0.0168134
0.0137528
0.0150198
0.0166956
0.0168711
0.0158831
0.0156502
0.0154413
0.0139219
0.013139
0.011123
0.010511
0.0100432
0.0101906
0.0143678
0.0135213
0.0137304
0.0144674
0.0155733
0.0147303
0.0151632
0.0143107
0.0145585
0.01498
0.0170419
0.0186047
0.0178443
0.0165216
0.0160246
0.0137543
0.0158642
0.0157251
0.0170462
0.0186339
0.0191274
0.0190628
0.0184247
0.016829
0.0187225
0.0220952
0.0257515
0.024749
0.0244221
0.0204721
0.0192672
0.0202373
0.0215073
0.022412
0.0224845
0.022317
0.0224078
0.0264166
0.0260799
0.0248771
0.022801
0.0203459
0.0177016
0.0152352
0.0167094
0.0181909
0.0195816
0.0208487
0.0206071
0.0190832
0.0177252
0.0164945
0.015001
0.0147091
0.0161625
0.0173839
0.0188134
0.0205236
0.0205965
0.018887
0.017394
0.016113
0.0146394
0.0145885
0.0160885
0.0173854
0.0188005
0.0202819
0.0196502
0.0184974
0.0172483
0.016007
0.014555
0.0146214
0.0159428
0.0170107
0.0180931
0.0190422
0.0198987
0.017936
0.0170262
0.0171205
0.0161333
0.019321
0.0185627
0.0195051
0.0180511
0.0168247
0.0178305
0.0210261
0.0240643
0.0246175
0.0243379
0.0202003
0.0206564
0.0206326
0.0192117
0.0159833
0.0153864
0.0181654
0.0209114
0.0213758
0.0200618
0.0169488
0.0133033
0.014328
0.0174995
0.0198174
0.0185551
0.0183934
0.0169755
0.0158957
0.0161958
0.0139146
0.0166534
0.026751
0.0242118
0.0221963
0.019729
0.0157132
0.0106354
0.0115364
0.0126981
0.0131146
0.010598
0.00793317
0.00712295
0.00692904
0.00677073
0.00655248
0.00618507
0.00562894
0.00538343
0.0105709
0.0255507
0.0363863
0.0357913
0.0241036
0.0207135
0.0199665
0.0183892
0.00877256
0.0081723
0.00837879
0.0103795
0.00822626
0.0082631
0.014312
0.00995714
0.0136988
0.0106802
0.0146421
0.0229219
0.021651
0.0143061
0.00800869
0.0069055
0.00739658
0.007679
0.00788298
0.00808016
0.00831466
0.00870248
0.0100284
0.0157712
0.020359
0.0178121
0.0168232
0.0153446
0.0188926
0.0213748
0.0233116
0.0260742
0.0161156
0.0118037
0.0166566
0.0273039
0.0247917
0.023337
0.0171901
0.0177302
0.017154
0.0110295
0.010682
0.0105979
0.0114113
0.0128028
0.0147289
0.015882
0.0166298
0.0169604
0.0178739
0.023141
0.021651
0.0211334
0.0173445
0.0134358
0.0154351
0.0517019
0.0195921
0.0207056
0.0189179
0.0191852
0.0204726
0.0151605
0.0135079
0.0129374
0.0146367
0.0215318
0.0215475
0.0214134
0.0182773
0.0174928
0.0209264
0.0220148
0.0224095
0.0217909
0.0213536
0.0194894
0.0167043
0.0181366
0.0196557
0.0208523
0.0228606
0.0231987
0.0179798
0.0172558
0.0158594
0.0105584
0.0113018
0.00973702
0.00970691
0.00967374
0.0094008
0.00895004
0.0092378
0.0093544
0.00935218
0.0090054
0.00930336
0.00835156
0.00868818
0.00978088
0.0152325
0.0147981
0.0175976
0.0195093
0.0167522
0.0155919
0.014228
0.013204
0.0154598
0.0142968
0.0168749
0.0212317
0.0265284
0.019152
0.0181552
0.0179313
0.0175254
0.017367
0.0174194
0.0167244
0.0157201
0.0151514
0.0236116
0.0213082
0.0181814
0.017231
0.0157965
0.0180514
0.0174936
0.0213969
0.0268874
0.0270921
0.0215646
0.0216424
0.0189824
0.0200892
0.0222819
0.0271282
0.0270521
0.0144551
0.00961101
0.0154582
0.0157992
0.0184111
0.0170252
0.018555
0.0197362
0.0204652
0.0203232
0.0177194
0.0188975
0.019687
0.0206744
0.0186174
0.0166107
0.0174016
0.0161776
0.0152759
0.0147736
0.0126965
0.0129446
0.0139193
0.015373
0.016316
0.0178138
0.0194745
0.019502
0.0201734
0.0197684
0.019165
0.0252736
0.02403
0.0255724
0.0282912
0.0224869
0.0178416
0.0147111
0.0150258
0.0147919
0.0147
0.01544
0.0168008
0.0151768
0.0145575
0.0170776
0.0194459
0.0247255
0.0331217
0.0288567
0.0262669
0.0332751
0.0314261
0.0383028
0.0287202
0.0281861
0.0208913
0.0263272
0.0305428
0.0392725
0.0255585
0.0209923
0.0224462
0.0255656
0.0348285
0.0328462
0.0332245
0.0412614
0.0400233
0.0362436
0.031212
0.0354229
0.0212886
0.0302366
0.0322709
0.0268462
0.0257485
0.0308022
0.0311265
0.0330603
0.0284024
0.0268128
0.0179468
0.0275019
0.0314488
0.0331457
0.0278729
0.0205504
0.0280634
0.0205879
0.0192225
0.0203355
0.0138001
0.0127447
0.014821
0.0138902
0.0112131
0.0121637
0.0111831
0.0111713
0.0112544
0.011372
0.0115077
0.0117682
0.0117393
0.0127711
0.0133649
0.012663
0.0115912
0.0122395
0.012582
0.0161029
0.0181907
0.0204526
0.0220395
0.022878
0.0240292
0.0227624
0.0248565
0.023757
0.0252571
0.0249752
0.0239112
0.0213874
0.0187424
0.0163349
0.0168213
0.0204688
0.0268932
0.0220181
0.017042
0.0137756
0.0114051
0.0126956
0.0158935
0.00862712
0.00787654
0.00758053
0.00739906
0.00723702
0.0063917
0.00572959
0.00863635
0.0130737
0.016347
0.0203775
0.0259575
0.0320849
0.0374438
0.0415055
0.0443944
0.0461668
0.0466041
0.0436952
0.0332126
0.0285605
0.0245516
0.0203453
0.0166283
0.0168675
0.0245233
0.0321309
0.0396378
0.0462592
0.0512098
0.0493057
0.0331465
0.0301887
0.0465343
0.0780986
0.0739113
0.096933
0.110821
0.0629147
0.0465523
0.0454522
0.0620941
0.0647186
0.0566475
0.0466385
0.0363849
0.0262376
0.0306167
0.034939
0.0390913
0.0434913
0.0575043
0.0605625
0.0593584
0.0567907
0.0533672
0.0485554
0.0414524
0.0328959
0.0249696
0.0190672
0.0144544
0.00942115
0.00721304
0.00804739
0.0073685
0.0105138
0.0092645
0.00826738
0.00795238
0.00820089
0.00806769
0.00823874
0.00729012
0.0065574
0.0103724
0.00956027
0.00952707
0.0101744
0.0134412
0.01035
0.00766028
0.00722492
0.00715149
0.00736471
0.0158469
0.0249917
0.0304233
0.0350503
0.0385564
0.0370972
0.0335877
0.0278661
0.0218912
0.0197476
0.0168289
0.0143906
0.0132438
0.014581
0.012067
0.00612012
0.00514849
0.00567336
0.00554942
0.00508353
0.00611229
0.00680577
0.00742308
0.00785008
0.00816359
0.00822603
0.00816581
0.00807682
0.00803377
0.00801481
0.00798746
0.00792358
0.00782897
0.00768753
0.00755178
0.00748849
0.00808278
0.0106943
0.0146098
0.0143727
0.0132609
0.0121521
0.0112911
0.00956647
0.015401
0.013079
0.0109665
0.0101449
0.0100051
0.0103075
0.0112837
0.0129338
0.0138598
0.0158685
0.015903
0.0157902
0.0160701
0.0158554
0.0131751
0.0149445
0.0177094
0.0185445
0.019172
0.0189537
0.0174238
0.0194361
0.0205666
0.0199941
0.019373
0.0164644
0.0191688
0.0232091
0.0236638
0.0239639
0.0213132
0.01849
0.0216434
0.0227949
0.0223625
0.0232288
0.0213667
0.0220837
0.0277821
0.0141804
0.0128307
0.00770979
0.00870322
0.00888327
0.00853224
0.00824922
0.00859014
0.00884711
0.00866066
0.00933184
0.00963913
0.008973
0.0114599
0.0105405
0.0101395
0.00951287
0.010087
0.0107977
0.0111412
0.0122004
0.0195662
0.020013
0.0182341
0.0206796
0.021276
0.0180255
0.0204508
0.0213177
0.0215665
0.0219077
0.0234589
0.0221022
0.0244403
0.0236143
0.0223178
0.0215454
0.0382616
0.0252573
0.0166443
0.0153529
0.0149991
0.0150691
0.0169815
0.0128044
0.0143443
0.0101436
0.00878292
0.00840892
0.00810703
0.00819552
0.0108034
0.0167788
0.0251259
0.0280296
0.0268717
0.0234853
0.017953
0.0134059
0.0131148
0.0119058
0.0111492
0.0110502
0.0074718
0.0051281
0.00643518
0.00655408
0.00713907
0.00755484
0.00789461
0.00815131
0.0082939
0.00836834
0.00845272
0.00857434
0.00870614
0.00881977
0.00890908
0.00897368
0.00904134
0.00916651
0.00947829
0.0106885
0.0153369
0.0197211
0.0185938
0.017129
0.0158233
0.0165878
0.0173396
0.0180539
0.0222353
0.0191322
0.022021
0.0207212
0.0197394
0.0183236
0.0190653
0.0208523
0.0166592
0.0166026
0.0113549
0.00991072
0.00952686
0.00930601
0.00913232
0.00895978
0.00878717
0.00863309
0.00848805
0.00836209
0.00826306
0.00817214
0.00802707
0.00777555
0.00737369
0.00693361
0.00608793
0.00671494
0.00728288
0.00831713
0.00951393
0.010091
0.0095115
0.00872747
0.00838962
0.00852795
0.00871801
0.00892649
0.0091633
0.00948859
0.00996656
0.0109507
0.0116206
0.0162952
0.0170419
0.0202581
0.0200576
0.017966
0.0173198
0.018925
0.0174369
0.0126747
0.0173922
0.016921
0.0211836
0.015738
0.0148535
0.0152798
0.0157656
0.0183958
0.0173021
0.0158137
0.0157763
0.0126687
0.0142543
0.0162654
0.0177434
0.0279608
0.0274183
0.0344697
0.0343817
0.0592712
0.0564272
0.0497695
0.0537807
0.0237686
0.0464308
0.0542793
0.0494964
0.0429717
0.0273938
0.0437514
0.066559
0.0963391
0.0695038
0.0568457
0.105547
0.076731
0.0374076
0.0266187
0.0150284
0.0151098
0.025073
0.0291124
0.0241352
0.0232933
0.033453
0.0348167
0.0280523
0.0287129
0.0310887
0.030019
0.0324851
0.0281261
0.0274139
0.0155541
0.0127702
0.0138096
0.0155537
0.0165734
0.0160681
0.0169088
0.0175753
0.0161237
0.015088
0.0145209
0.0124501
0.013186
0.0161722
0.0203909
0.0239018
0.0172649
0.0138755
0.0125788
0.0123839
0.0121552
0.0120326
0.0117074
0.0115161
0.011042
0.0112441
0.00978676
0.009805
0.0103488
0.0105191
0.0107295
0.0108932
0.0110212
0.0111359
0.0119954
0.0187615
0.0259472
0.0207606
0.0164508
0.013967
0.0151584
0.0170857
0.0209926
0.0264182
0.0178451
0.0176688
0.0115253
0.0107519
0.0105399
0.010362
0.0102047
0.0101014
0.0101578
0.010158
0.0118971
0.0115926
0.0136054
0.0146711
0.0121193
0.0116858
0.0112115
0.0109223
0.0107624
0.0106758
0.0107635
0.0116242
0.0114579
0.0105292
0.0104365
0.0105586
0.0107744
0.0110999
0.0115496
0.0120562
0.0129761
0.0127592
0.0112311
0.0112107
0.0105528
0.0102485
0.0100202
0.0100035
0.0100577
0.0102035
0.0104293
0.0113348
0.0171323
0.0173149
0.0266417
0.0266181
0.0211568
0.0176773
0.0155189
0.0142641
0.0135321
0.0351154
0.0308374
0.0487394
0.0389488
0.0312075
0.0506086
0.0719305
0.0558916
0.0908927
0.0982267
0.0724475
0.0655237
0.0209072
0.0159358
0.0154308
0.016923
0.0186201
0.0212622
0.021853
0.0266766
0.0287777
0.0171914
0.0165111
0.0155905
0.0248789
0.023047
0.0196723
0.0177833
0.0163936
0.0189364
0.0207361
0.0149808
0.0150315
0.00968578
0.0106932
0.0104348
0.0100942
0.00997312
0.00989381
0.00992583
0.0100174
0.0102987
0.0107914
0.0111739
0.0113272
0.0116307
0.011412
0.0111422
0.0108249
0.0106369
0.0104477
0.0102921
0.0101714
0.0102043
0.0105201
0.0106644
0.00935753
0.00970367
0.00981245
0.00982375
0.00985465
0.00981785
0.00967788
0.0094675
0.00926316
0.0090514
0.00909016
0.00990797
0.0100655
0.0101284
0.00997693
0.00986089
0.00985544
0.00979382
0.0097833
0.00977854
0.00965725
0.00934467
0.00861854
0.00846724
0.00907209
0.00941651
0.00959365
0.00967262
0.00965403
0.00959634
0.00936076
0.00918306
0.00896807
0.00861927
0.00814648
0.00672778
0.00701261
0.00737387
0.00787969
0.00840095
0.00885794
0.00916549
0.00932824
0.00942132
0.00934024
0.00904906
0.00852147
0.00846664
0.00885649
0.00903421
0.00898927
0.00872098
0.00830212
0.00773174
0.0070253
0.00634415
0.00583264
0.00560808
0.00522721
0.00652798
0.00713292
0.00768934
0.00820384
0.00869141
0.00921498
0.00941772
0.00947506
0.00945763
0.00930325
0.00897302
0.00844453
0.00844735
0.00892424
0.00923422
0.00935783
0.00933452
0.00915212
0.00874573
0.00782957
0.00701793
0.0063609
0.00576986
0.00517475
0.00515439
0.00541016
0.00514833
0.00532249
0.00588705
0.00668316
0.00746144
0.00807878
0.00851378
0.00870388
0.00865749
0.00840851
0.00830901
0.00842804
0.0083649
0.00805311
0.00748001
0.00673244
0.00593913
0.00532411
0.00516914
0.00551534
0.00584953
0.0055366
0.00435965
0.0049055
0.00546782
0.00606231
0.00698079
0.00816668
0.00875251
0.00907147
0.00923161
0.00916619
0.00887702
0.00843656
0.00841342
0.0088379
0.00912065
0.00916937
0.00902793
0.00875325
0.00827304
0.00683823
0.00536532
0.00473378
0.00437901
0.00394664
0.00561232
0.00598016
0.00555449
0.00527606
0.00570948
0.0062386
0.00685115
0.00735861
0.00778635
0.00809605
0.00820486
0.00817895
0.00804527
0.00804297
0.00798282
0.00777681
0.0075366
0.00733782
0.00691503
0.00646924
0.00592887
0.00648601
0.00678199
0.00635156
0.00465883
0.00494516
0.00541302
0.00570714
0.00717162
0.00859667
0.00897612
0.00910324
0.00923232
0.00915553
0.008833
0.00838854
0.00836931
0.00889649
0.00930569
0.0094558
0.00957142
0.00971475
0.00984365
0.00869982
0.00678267
0.00629552
0.00526449
0.00481216
0.006671
0.00709527
0.00688295
0.00661436
0.00757167
0.00796596
0.00810266
0.00810822
0.00811187
0.00808083
0.00799235
0.00792831
0.00781359
0.00824919
0.00888431
0.00879229
0.00870345
0.00855207
0.00819607
0.00774487
0.00721416
0.00790133
0.00847642
0.00819075
0.00595597
0.00632816
0.00726048
0.0074742
0.00902896
0.0102043
0.0105166
0.0104713
0.0103273
0.0102812
0.00926056
0.00833035
0.00817768
0.00953408
0.015472
0.0152995
0.0153097
0.0152229
0.0146513
0.014475
0.0139094
0.013648
0.0129576
0.0125096
0.0118422
0.013824
0.0174764
0.0195188
0.02186
0.0243233
0.0230386
0.0186485
0.0164886
0.0101464
0.00799998
0.00689535
0.00597188
0.00527456
0.00506718
0.00746205
0.00927307
0.0113838
0.0132944
0.0136517
0.0160593
0.0199772
0.0304344
0.048408
0.0408737
0.0385885
0.0388179
0.09619
2.54355
2.72332
2.48546
2.88605
3.32834
0.385234
0.150502
0.279155
0.294425
0.327142
0.305007
0.277352
0.253867
0.264032
0.253357
0.26524
0.24722
0.258607
0.226146
0.232875
0.236109
0.670034
1.02462
1.23992
1.73355
1.73998
1.96269
1.91592
1.93558
1.78848
1.90383
1.65477
1.37215
1.29628
1.22399
1.31356
1.42715
1.23895
1.12289
1.00831
0.917019
0.784446
0.994694
0.754723
0.713205
0.711646
0.743303
0.989933
0.901347
1.03745
0.953815
0.996023
0.596664
0.669959
0.488301
0.406961
0.338673
0.407061
0.54448
0.721158
0.899615
0.695325
0.950284
0.884861
0.88539
0.84318
0.768352
0.729511
0.717266
0.738489
0.75141
0.767021
0.794997
0.816371
0.835413
0.986444
1.0515
1.04236
0.853905
0.763894
0.529023
0.566444
0.600314
0.603838
0.562672
0.544435
0.492851
0.480382
0.435221
0.41645
0.378031
0.359131
0.327126
0.453085
0.775335
0.805248
0.87489
0.928264
0.97808
1.00007
1.01689
0.999895
0.966651
0.897282
0.867008
0.804303
0.91138
1.09584
1.0946
1.00602
0.853889
0.808465
3.76291
4.57473
3.02995
6.52626
9.90308
16.6004
7.60003
2.06693
3.44821
2.36886
2.10193
2.04821
2.16162
3.40562
2.49272
3.26149
2.70715
2.84543
2.22846
2.46677
2.32136
1.7784
1.49514
1.26551
1.13582
0.910768
0.891196
0.727992
0.681208
0.642409
0.54208
0.675993
0.68325
1.63947
2.27492
2.84235
4.46531
4.90218
5.35756
8.45921
6.85472
8.58596
5.11085
5.15973
3.81461
3.58745
3.62512
4.98348
7.11601
4.90464
8.55778
4.77347
15.5298
34.7064
9.19326
18.9676
10.9366
9.88595
9.52451
9.80954
13.9338
9.52231
15.4837
13.0669
17.376
16.9554
17.9476
13.824
10.2358
11.2024
12.0099
15.4123
10.88
12.4609
9.43563
9.21512
8.70707
7.23314
6.54433
5.03544
5.93402
6.97118
7.93337
12.5736
15.7716
18.1324
21.8563
16.1486
18.4223
11.0943
12.1705
9.40381
8.82267
8.95423
11.7816
20.9029
14.8127
27.049
0.497083
0.225914
0.54463
0.229388
0.486723
0.390183
0.402693
0.403611
0.399251
0.46045
0.21993
0.18495
0.177215
0.175079
0.176602
0.10015
0.124347
0.0803683
0.126877
0.22914
0.503512
0.365336
0.140464
0.0825813
0.0545733
0.0429247
0.0634193
0.061212
0.0978845
0.0992335
0.105536
0.132012
0.227893
0.432809
31.7167
7.07704
1.11896
0.524824
0.280747
0.172092
0.147488
0.166669
0.179248
0.181973
0.170869
0.145091
0.103999
0.0687317
0.0460091
0.0387112
0.0282754
0.0285265
0.0397067
0.0533915
0.0494578
0.0651503
0.0835655
0.106395
0.13075
0.150186
0.164801
0.168714
0.156633
0.122582
0.0806835
0.0444448
0.0265344
0.022868
0.0209295
0.0194316
0.0167788
0.0145476
0.0131299
0.0112257
0.00990039
0.00893761
0.0086339
0.00876077
0.0095678
0.0121034
0.0145672
0.0188632
0.0179862
0.0134675
0.012619
0.00781813
0.00722836
0.00737728
0.00762975
0.00844995
0.0132169
0.0135273
0.0134066
0.013441
0.0132612
0.0132558
0.0130886
0.0129306
0.0127129
0.0122984
0.0120081
0.0114874
0.0112013
0.0105194
0.0105472
0.0109219
0.0112275
0.0101562
0.0100463
0.00935031
0.0208314
0.0494099
0.0703244
0.0787664
0.088562
0.0812375
0.0420956
0.0231963
0.00795508
0.00772948
0.00822808
0.00889071
0.00843609
0.00615846
0.00669848
0.00795591
0.0111688
0.0111312
0.0111636
0.0130135
0.0135566
0.0148948
0.0154388
0.0157983
0.0160224
0.0159225
0.0160457
0.0157408
0.0158289
0.0156152
0.015702
0.0152969
0.0271657
0.025582
0.0263123
0.0263673
0.0276029
0.0271149
0.0266743
0.0256995
0.0250185
0.0234964
0.02194
0.0203516
0.0182369
0.0189729
0.0183097
0.0113929
0.0108094
0.00774999
0.00769585
0.00740328
0.0103054
0.00936764
0.0078757
0.00925548
0.00673817
0.00691062
0.00731652
0.010451
0.0109792
0.0175213
0.0175176
0.0155408
0.0165296
0.0175704
0.0189057
0.0200418
0.0214564
0.0224402
0.0235182
0.0253542
0.0257395
0.0239463
0.0235786
0.0224766
0.0244037
0.0233684
0.0216303
0.0231763
0.0248587
0.0274411
0.0271558
0.0250453
0.0237399
0.0223441
0.0200331
0.0174053
0.016028
0.0150075
0.0150387
0.0139925
0.0163195
0.014738
0.0102231
0.0106061
0.00803162
0.00630932
0.00604715
0.00928537
0.0132674
0.0282941
0.0176589
0.00940661
0.0103392
0.0166404
0.0345632
0.020558
0.0330388
0.0145285
0.0153562
0.0127403
0.0126819
0.0139736
0.0162696
0.0173555
0.0210141
0.0236997
0.0256882
0.0266042
0.027913
0.0283011
0.0297031
0.0301465
0.0327961
0.0330442
0.0330447
0.0325704
0.0301193
0.027072
0.0248286
0.030748
0.0356632
0.0390423
0.041477
0.0439842
0.0427292
0.0390917
0.0382217
0.0363141
0.0351995
0.0338084
0.0306928
0.0268618
0.0220461
0.0214481
0.0274692
0.0332147
0.0495704
0.0535457
0.0532786
0.0555615
0.0560665
0.0578133
0.0582551
0.0608837
0.0614584
0.0626114
0.0629479
0.0680817
0.0689629
0.0699281
0.0702527
0.0699434
0.0708663
0.0708503
0.0481431
0.0431183
0.038946
0.0322915
0.0269835
0.0342468
0.0427429
0.0481089
0.0735074
0.0739617
0.0775812
0.0801779
0.0849823
0.0886012
0.0933214
0.0976981
0.101935
0.105228
0.107159
0.107399
0.107788
0.106794
0.105465
0.114161
0.148347
0.164784
0.195179
0.210152
0.222557
0.226571
0.217939
0.221746
0.213696
0.216283
0.21004
0.208118
0.202825
0.196552
0.19294
0.186668
0.182559
0.210394
0.15864
0.121457
0.0805736
0.0646688
0.0576606
0.0538427
0.0567976
0.0439089
0.0374415
0.0563296
0.0518153
0.041364
0.0276159
0.0187745
0.0322521
0.0478453
0.0647152
0.0819301
0.0976525
0.107952
0.110559
0.109498
0.104736
0.096883
0.0816972
0.0614947
0.0421957
0.034715
0.0319958
0.0280446
0.0221222
0.0177844
0.015676
0.0140969
0.012339
0.0110979
0.0105487
0.0107189
0.0110321
0.0132304
0.0173156
0.0173057
0.0116032
0.011139
0.00766486
0.00775355
0.00801274
0.0133156
0.0134655
0.0208776
0.02333
0.0219753
0.0226727
0.0224131
0.0227174
0.0223778
0.0211912
0.0203641
0.0193992
0.0185611
0.0178152
0.016984
0.0161559
0.0174802
0.0164217
0.0138306
0.0139617
0.0145834
0.0152354
0.0161195
0.0173833
0.0184539
0.0211522
0.0213015
0.0207959
0.0208844
0.0194039
0.0186821
0.0199298
0.0194477
0.0132536
0.0130717
0.0190806
0.018731
0.0186277
0.0224559
0.0208869
0.0214042
0.0225398
0.0224597
0.0195205
0.018165
0.0166056
0.015425
0.0140415
0.0125233
0.0121373
0.014888
0.0130751
0.0107462
0.0119547
0.0143583
0.0169677
0.0184342
0.020422
0.0231372
0.02411
0.0263642
0.0277921
0.0298917
0.0307268
0.0355429
0.0361787
0.0339906
0.0321485
0.0311561
0.0273786
0.0234693
0.025882
0.0267555
0.0271333
0.0272776
0.0271646
0.0235811
0.023151
0.0216347
0.0211155
0.0195325
0.0189721
0.0178085
0.0170447
0.0160187
0.014191
0.0134902
0.0126736
0.0123133
0.0173669
0.0108668
0.0106033
0.0160234
0.00986684
0.011615
0.0113534
0.0118789
0.0125481
0.0103725
0.0151607
0.0103541
0.0112505
0.011484
0.0144227
0.0100342
0.0213647
0.065366
0.0936922
0.112642
0.204194
0.24405
0.264106
0.2847
0.298703
0.31464
0.332049
0.349618
0.362538
0.363867
0.338038
0.319428
0.254372
0.227709
0.251356
0.281339
0.193852
0.166309
0.168506
0.169241
0.171714
0.172866
0.176361
0.174261
0.179143
0.174791
0.181863
0.175829
0.182064
0.174884
0.1598
0.143362
0.111276
0.100706
0.064975
0.0503443
0.039388
0.0286337
0.0208915
0.0187602
0.0177627
0.016424
0.0165072
0.0126484
0.0131
0.00839865
0.00618211
0.00986094
0.00968828
0.00723431
0.00981732
0.011211
0.0117184
0.0122505
0.0125434
0.0191768
0.0192032
0.0245792
0.0245137
0.0290866
0.034704
0.0359465
0.039583
0.0569749
0.0575114
0.0572544
0.0571138
0.0567057
0.0494599
0.0491785
0.0480747
0.0474923
0.0445396
0.0439845
0.0418924
0.0407488
0.0377844
0.0369581
0.0358334
0.0363148
0.0410255
0.0568508
0.100806
0.0298387
0.028547
0.0209251
0.0145697
0.0214875
0.0159374
0.0154917
0.0136448
0.0187347
0.0134806
0.0137261
0.0165494
0.0170783
0.0164792
0.0215344
0.0268439
0.0235654
0.0261449
0.118295
0.076773
0.0247656
0.0490099
0.0727142
0.159022
0.204402
0.140316
0.160105
0.18413
0.167262
0.140501
0.110043
0.0819614
0.058412
0.0452569
0.0113577
0.0134231
0.0186208
0.0413644
0.0613601
0.101492
0.0835269
0.109118
0.14904
0.173513
0.209463
0.201058
0.17301
0.148911
0.145482
0.160533
0.163172
0.10615
0.103192
0.0781904
0.174342
0.219261
0.184726
0.231825
0.244682
0.145405
0.0322095
0.0184286
0.0151556
0.0139511
0.0124638
0.0193814
0.0114947
0.0116706
0.0123894
0.0132954
0.0169997
0.0293436
0.013487
0.014946
0.0183537
0.0158869
0.0148763
0.0146541
0.0145498
0.0151574
0.0165025
0.0215503
0.021675
0.0213666
0.0160145
0.017317
0.015731
0.0200648
0.0212734
0.0333564
0.015298
0.0162459
0.0215788
0.481601
0.0247251
0.0178613
0.0232894
0.0219566
0.0302294
0.043645
0.460429
0.0444676
0.0351787
0.0585815
0.0608143
0.065493
0.0691742
0.0727191
0.0752329
0.0792147
0.081835
0.0831005
0.084394
0.100028
0.0999244
0.0988475
0.103436
0.0975065
0.0576043
0.0577967
0.0972609
0.104946
0.0593437
0.0409556
0.0384447
0.0311327
0.0322404
0.0417726
0.0438585
0.0615671
0.0613803
0.102321
0.0933263
0.094709
0.096494
0.0915458
0.0920492
0.0940619
0.0942074
0.0754855
0.0731107
0.0713262
0.0683046
0.0647387
0.0618385
0.0589267
0.0558929
0.0533872
0.0537022
0.0588321
0.0584691
0.0665211
0.0744819
0.227803
0.155649
0.110617
0.0814038
0.0657128
0.0591614
0.0585554
0.0616732
0.0649123
0.0665401
0.0673554
0.0707839
0.0925205
0.0946784
0.0975172
0.0950181
0.0987911
0.0967967
0.0943568
0.104231
0.112027
0.0655115
0.0675905
0.0476664
0.0444286
0.032404
0.032946
0.0235289
0.0195271
0.0195267
0.0195094
0.0197227
0.0225799
0.0315176
0.0316294
0.0461792
0.0461204
0.0515864
0.0751801
0.0722556
0.12879
0.118065
0.1084
0.101131
0.10148
0.103639
0.106228
0.101246
0.0978466
0.092333
0.0725108
0.0684413
0.0663103
0.0650932
0.0638636
0.067567
0.0916847
0.149384
0.229102
0.335987
0.4366
0.446607
0.40359
0.254393
0.292913
0.146421
0.166201
0.188557
0.16569
0.174187
0.321452
0.267188
0.379034
0.483582
0.537455
0.603944
0.64153
0.631729
0.503438
0.327977
0.335209
0.445983
0.771494
0.865054
0.743851
0.761201
0.658032
0.539946
0.521361
0.49654
0.560015
0.610339
0.576032
0.592303
0.536638
0.51271
0.442964
0.49405
0.360884
0.32504
0.305524
0.296699
0.355482
0.287685
0.324088
0.266488
0.272848
0.221812
0.227291
0.189755
0.145292
0.137774
0.127748
0.143062
0.162269
0.14873
0.153447
0.134025
0.114692
0.0912822
0.0984324
0.0735663
0.0696301
0.0708103
0.0809378
0.127443
0.373949
0.174469
0.164117
0.168075
0.177914
0.319826
0.28289
0.721376
0.505407
0.705497
0.472332
0.560161
0.468704
0.361682
0.377311
0.416977
0.596871
0.819579
6.64491
0.284506
4.25851
3.1619
3.32125
3.4675
4.44377
7.79612
7.10693
9.3733
6.80009
9.07546
4.9784
4.97504
4.32593
4.47156
4.43965
4.26349
5.21344
6.66496
0.239173
0.0910351
0.0854267
0.0856057
0.0873829
0.197792
0.052559
0.201898
0.0539324
0.213288
0.0494808
0.246421
0.19674
0.0382258
0.0192574
0.0200889
0.0168069
0.0203746
0.0169229
0.0250479
0.0235425
0.0237009
0.0265995
0.0764304
0.2927
13.8712
1.67905
0.701849
0.802792
1.20204
0.818277
1.2192
1.69179
1.13888
0.569228
0.374567
0.442087
0.534746
0.51003
0.648845
0.932601
0.911618
0.716711
0.720342
0.636943
0.897054
0.905126
1.07133
1.25054
1.14345
0.897362
0.707669
0.600918
1.03122
1.03443
0.966926
0.41249
0.117222
0.0474663
0.0499233
0.036119
0.0379977
0.0349566
0.0561751
0.164156
0.225728
0.136264
0.435007
0.418368
0.566525
0.404135
0.413758
0.327072
0.35077
0.53539
0.584527
0.643771
0.674828
0.725817
0.672007
1.2917
2.21579
2.50657
12.8808
17.4336
3.20903
3.09874
13.9479
0.315021
0.0839467
0.0233272
0.0174335
0.0162175
0.01613
0.0150006
0.015538
0.015999
0.0169627
0.0188264
0.0231906
0.0458137
0.201327
0.203285
0.0643029
0.0324123
0.0229643
0.0196135
0.0170451
0.0163861
0.0155311
0.0154588
0.015008
0.015658
0.0174653
0.0237824
0.0774154
0.270852
11.3147
2.43482
2.2531
8.377
5.79064
0.206652
0.043779
0.0200921
0.016926
0.0158833
0.0167529
0.0162649
0.0182098
0.0184007
0.0230128
0.0250158
0.0317508
0.0570319
0.110092
0.3151
9.55893
8.6317
8.35163
7.79457
0.309736
0.115076
0.0543548
0.038217
0.0346156
0.0338117
0.0226465
0.0236705
0.0189806
0.0216374
0.0182935
0.0226782
0.0482914
0.211811
5.34851
1.56872
1.69974
1.2081
0.61223
0.655078
0.669118
0.688892
1.77821
4.07358
5.00495
3.43622
3.36714
4.71821
3.17662
2.48649
1.83299
1.74966
2.54959
1.96481
1.8261
1.35741
1.46746
1.0673
1.46659
0.810771
0.976042
1.0721
1.53081
1.39678
1.40954
0.90769
1.04958
1.4746
1.72325
1.64736
0.843317
1.22585
1.01307
0.654435
0.606886
0.633542
0.603794
0.578906
0.575523
0.579503
0.55833
0.575286
0.555363
0.587044
0.546478
0.532011
0.506805
0.526605
0.54447
0.577126
0.359928
0.422474
0.426623
0.441045
0.453799
0.374878
0.450828
0.441937
0.658946
0.994709
0.838109
1.16159
0.681872
1.00424
2.0085
5.20681
2.36403
0.823479
1.34805
1.58108
1.13848
0.62787
2.55154
3.5559
1.22916
1.7818
10.367
8.42017
16.499
10.9755
18.6559
6.0445
4.63629
17.8216
6.68374
6.92181
4.52158
4.52625
2.96258
1.58704
1.63152
1.74496
1.22828
1.30245
1.21236
1.13386
1.47606
1.44219
1.88996
2.03869
2.58299
1.81403
1.77986
2.60638
1.06404
1.40399
1.84162
1.83381
1.36289
2.34905
3.16533
2.98293
2.15091
2.34199
3.5115
4.82761
4.59471
3.18241
3.98865
10.1491
13.5482
13.7039
4.23112
19.302
18.3049
2.09299
0.574684
0.329505
0.0911514
0.044874
0.0367311
0.0387809
0.144642
0.0458478
0.0572172
0.0457923
0.0740864
0.0703643
0.0879573
0.22064
0.127698
0.218726
0.157067
0.192974
0.123213
0.197018
0.231013
0.24133
0.192075
0.118031
0.217026
0.312348
0.108152
0.36076
0.396989
0.26517
0.338659
0.403621
0.200144
1.00377
0.187557
0.129483
0.14987
0.400604
1.27508
0.222926
0.467717
4.49894
14.7201
3.70408
0.948795
0.690537
0.055968
0.0303479
0.032219
0.028104
0.0194876
0.0852005
0.100383
0.409348
0.210533
0.278141
0.661467
2.92403
2.39956
1.13945
5.51293
10.2704
15.1478
9.13973
2.25326
9.77562
19.6077
13.9005
6.97848