/*--------------------------------*- C++ -*----------------------------------*\
| =========                 |                                                 |
| \\      /  F ield         | OpenFOAM: The Open Source CFD Toolbox           |
|  \\    /   O peration     | Version:  v2012                                 |
|   \\  /    A nd           | Website:  www.openfoam.com                      |
|    \\/     M anipulation  |                                                 |
\*---------------------------------------------------------------------------*/
FoamFile
{
    version     2.0;
    format      ascii;
    class       volScalarField;
    location    "1030";
    object      k;
}
// * * * * * * * * * * * * * * * * * * * * * * * * * * * * * * * * * * * * * //

dimensions      [0 2 -2 0 0 0 0];


internalField   nonuniform List<scalar> 
18258
(
0.0335214
0.0157996
0.0123652
0.0102162
0.0110026
0.0140179
0.0168142
0.0211786
0.0255942
0.0315226
0.0385804
0.047503
0.0534968
0.0606398
0.0636172
0.0619212
0.0520749
0.0473297
0.0566955
0.0811302
0.0709497
0.0513705
0.0621227
0.0615129
0.072743
0.0770453
0.0606693
0.0553095
0.049855
0.0441674
0.0376772
0.0237407
0.024044
0.0287129
0.0320202
0.0357831
0.0386981
0.0411151
0.0427435
0.0435605
0.0434678
0.042161
0.0394502
0.0353234
0.0297648
0.0236371
0.0226383
0.0243237
0.0301049
0.0354487
0.040771
0.046311
0.0547069
0.0447295
0.0290439
0.0392477
0.0477446
0.0546363
0.0590494
0.0614811
0.0622267
0.0612972
0.0589932
0.055722
0.0517519
0.0474071
0.0433865
0.0393998
0.0341566
0.030895
0.0267845
0.0234413
0.0210022
0.0192908
0.0181731
0.0171708
0.0163062
0.0155739
0.0149584
0.0145359
0.0144448
0.0144714
0.0145723
0.0146698
0.0150161
0.0126726
0.0109028
0.0104367
0.0101852
0.00953889
0.00808642
0.0106415
0.0117496
0.0121659
0.0124352
0.01361
0.0147452
0.0143103
0.0135845
0.0124681
0.0126305
0.0170934
0.0178355
0.0228736
0.021723
0.0169238
0.0148132
0.0165987
0.0194183
0.022478
0.0192526
0.0192273
0.0179284
0.0170244
0.0148755
0.0149092
0.0143918
0.014084
0.015002
0.017763
0.0171765
0.0172921
0.0185105
0.0188294
0.0200522
0.0210618
0.0203969
0.0202121
0.0163575
0.0162569
0.0172945
0.0171679
0.0176475
0.0201452
0.0202018
0.0205436
0.0207589
0.0235388
0.0235574
0.0235227
0.0236136
0.0244542
0.0234926
0.0230797
0.0231082
0.0231434
0.0209818
0.0207611
0.0204
0.020439
0.0182695
0.0175331
0.0182644
0.0192434
0.0212159
0.0249602
0.031391
0.0403078
0.0503985
0.0606372
0.0684097
0.0727722
0.0771419
0.0766218
0.0773356
0.0794494
0.0798299
0.0786967
0.0768534
0.0746983
0.0717598
0.0671474
0.0667136
0.0590809
0.048183
0.033436
0.0389625
0.0418154
0.0445759
0.0448642
0.0453284
0.0440875
0.0422887
0.0386787
0.0335267
0.0246491
0.0261121
0.0305457
0.0351722
0.0389326
0.0430725
0.0466287
0.0483684
0.049988
0.0592089
0.0571205
0.0552828
0.0571264
0.0586486
0.0618049
0.060163
0.0562548
0.0504792
0.0521469
0.0453521
0.0340691
0.0318536
0.029743
0.0272021
0.0376873
0.0495165
0.0612906
0.0677656
0.0739959
0.0789162
0.0829973
0.0875697
0.0820793
0.0768797
0.057998
0.0843423
0.0662947
0.0509806
0.0417601
0.03405
0.0301314
0.0334214
0.0337633
0.0320925
0.0274472
0.0218271
0.0233521
0.0360851
0.0458913
0.0539643
0.055587
0.0603142
0.0627601
0.05741
0.0580024
0.0470368
0.0482069
0.0517857
0.0466171
0.0442417
0.0356678
0.0279347
0.0337027
0.0502015
0.0689249
0.0850669
0.100206
0.0666539
0.0507087
0.0416052
0.0348655
0.0334691
0.0380174
0.0439586
0.0531604
0.041218
0.0372133
0.033758
0.0309344
0.025414
0.0271955
0.028298
0.0267694
0.0499196
0.0580877
0.0617983
0.0842147
0.0926056
0.108606
0.107573
0.0929378
0.0964145
0.0690135
0.0689549
0.0866049
0.0684655
0.051377
0.0616241
0.0744845
0.0882554
0.101391
0.112691
0.121784
0.123497
0.112018
0.0811973
0.046743
0.0212744
0.0186339
0.0180832
0.0173753
0.0164884
0.0156891
0.0150702
0.0121248
0.00949581
0.00927455
0.00945641
0.00940255
0.00825968
0.00951067
0.0115716
0.0137624
0.0152695
0.0164776
0.0174967
0.0182296
0.0188173
0.0192155
0.019512
0.0197789
0.0200127
0.0201967
0.0203322
0.02042
0.0204598
0.0204439
0.0203663
0.0202256
0.0200202
0.0197338
0.0192633
0.0177421
0.0158925
0.0150627
0.015121
0.0148714
0.0145694
0.0119382
0.0123126
0.0143278
0.0149602
0.0177491
0.019783
0.021484
0.0229354
0.0244595
0.0252357
0.0260652
0.0263321
0.0263867
0.0262892
0.0261434
0.0259253
0.0256324
0.0245793
0.0212856
0.0248882
0.0272872
0.0289762
0.0303297
0.0312348
0.0313439
0.0286082
0.0360381
0.0385141
0.0394218
0.0396807
0.0388557
0.0368485
0.03441
0.0323636
0.0308578
0.0297416
0.027604
0.0253574
0.0230473
0.0206302
0.0174054
0.0186736
0.0205143
0.0207249
0.0204339
0.0214839
0.0227425
0.0210853
0.0189942
0.0161134
0.0151141
0.0146212
0.0144275
0.0148324
0.0144938
0.0143964
0.0148977
0.0179044
0.0189961
0.0206998
0.0239593
0.0228226
0.0208758
0.0280527
0.0296699
0.0301228
0.030472
0.0303766
0.0296204
0.0265303
0.0250731
0.0264618
0.0250065
0.0243728
0.0244605
0.0240927
0.0222242
0.0245272
0.0265292
0.0281188
0.0289653
0.0302093
0.0317628
0.0339234
0.0357154
0.0373749
0.0383857
0.0383785
0.0378602
0.038053
0.0387232
0.0384504
0.0367497
0.0346683
0.0325701
0.0296047
0.0293879
0.0313662
0.0329318
0.034595
0.0363711
0.0356685
0.0337817
0.0321537
0.0307306
0.029016
0.0288853
0.0305651
0.0320111
0.0337501
0.0358666
0.0360307
0.0338935
0.032076
0.0305703
0.028865
0.0288266
0.0305289
0.032042
0.0337646
0.0356477
0.0347735
0.0333061
0.0317843
0.0303161
0.02865
0.0282087
0.0298146
0.0311978
0.0325118
0.0335754
0.0319007
0.0313116
0.0302408
0.0288502
0.0270896
0.0258338
0.0263433
0.0277334
0.0278443
0.028324
0.0294435
0.0292901
0.0290069
0.0289598
0.0286778
0.0264312
0.0268389
0.0268896
0.0275827
0.0308897
0.0304091
0.0330854
0.0355034
0.0331884
0.031694
0.0281194
0.0336992
0.033742
0.0347037
0.033524
0.0237439
0.0218869
0.0228843
0.0244197
0.0260637
0.0253726
0.0226224
0.0225641
0.0231767
0.0225905
0.0210261
0.0180359
0.0135427
0.0135523
0.0135444
0.0142806
0.0170897
0.0186771
0.0187797
0.018617
0.0183081
0.0178302
0.0171067
0.0160275
0.0155899
0.0246536
0.0448188
0.0564568
0.0558298
0.0424612
0.0356352
0.0263825
0.0183834
0.0111669
0.0107334
0.0114203
0.0137115
0.011458
0.0108928
0.014994
0.0120416
0.0200177
0.0231088
0.0303258
0.0413862
0.0399908
0.03039
0.0204251
0.0184032
0.0192688
0.019792
0.0201854
0.0205724
0.0209641
0.0213908
0.0219113
0.021602
0.0189596
0.0167137
0.0168395
0.0174121
0.019921
0.0213034
0.0220959
0.0217577
0.0220003
0.0237161
0.0224725
0.0212542
0.0210513
0.0203473
0.0231945
0.0235365
0.0228996
0.0228993
0.0231727
0.023058
0.0231965
0.0240027
0.0198143
0.0219317
0.0224828
0.022764
0.023558
0.01906
0.0192527
0.0193211
0.0181733
0.0149297
0.0180135
0.0167724
0.0121704
0.0134854
0.013443
0.0140517
0.0143748
0.0171188
0.0162866
0.01557
0.0163501
0.0223235
0.0231221
0.023296
0.0206475
0.0194008
0.0218973
0.0224901
0.0220371
0.0211454
0.0213058
0.0203574
0.018448
0.0177278
0.0178651
0.019281
0.0200831
0.020156
0.0237699
0.0232617
0.0216943
0.0226825
0.0232844
0.0228675
0.0227566
0.0227003
0.0223308
0.0219031
0.0223159
0.0225061
0.0225589
0.0221137
0.0223696
0.0250087
0.0214342
0.0212465
0.0201703
0.0195147
0.0178859
0.0176305
0.0177284
0.0176886
0.0175944
0.0167577
0.0186151
0.0178902
0.020022
0.0216351
0.022786
0.0239582
0.024108
0.0236752
0.0236341
0.0232467
0.0232114
0.0226611
0.0218161
0.0212335
0.020457
0.0192498
0.0192425
0.0191937
0.0190505
0.0204553
0.0203552
0.0219211
0.0230425
0.0227549
0.0217891
0.0216791
0.0205022
0.0204783
0.0215195
0.0224086
0.0226604
0.0235255
0.0260701
0.0237145
0.0252708
0.0259662
0.026633
0.0260198
0.0249185
0.0256727
0.0240111
0.0228995
0.0242213
0.0249456
0.0262095
0.027004
0.0250264
0.0239983
0.0227992
0.021935
0.0209462
0.0184228
0.0190382
0.0198297
0.0210627
0.0228758
0.0256026
0.0283408
0.0312705
0.0313289
0.0290232
0.0273306
0.0321463
0.031611
0.0365929
0.0372045
0.0330671
0.0302499
0.027331
0.0269073
0.025985
0.0254482
0.0241659
0.0254138
0.0258387
0.0248947
0.0273719
0.02895
0.0332884
0.038869
0.0355332
0.032691
0.0377433
0.0366487
0.0426281
0.0364012
0.0347367
0.0285946
0.0331992
0.0355491
0.0433135
0.0338967
0.0297071
0.0294794
0.0307983
0.0382951
0.0368385
0.0394445
0.0446041
0.0439446
0.0390527
0.0358169
0.0415943
0.0316228
0.0370566
0.0390731
0.0324363
0.0322024
0.03909
0.0397125
0.0398727
0.0337746
0.0330533
0.0250291
0.0336043
0.0400932
0.0400091
0.0332172
0.02599
0.0359147
0.0315437
0.0313506
0.0313458
0.0269419
0.0268721
0.0261638
0.0264193
0.027136
0.0246816
0.0254926
0.0257591
0.02593
0.026071
0.0262759
0.0266367
0.0273045
0.0280789
0.0229171
0.0243818
0.0229851
0.0216139
0.0202343
0.0240195
0.026497
0.0283036
0.0297565
0.0308935
0.0313874
0.0300304
0.0379467
0.0395786
0.0412856
0.0414407
0.0401767
0.0374666
0.033986
0.0304681
0.0282221
0.0269149
0.0244168
0.0223419
0.0203262
0.0182249
0.0154828
0.0141864
0.0128546
0.0114906
0.0111089
0.0105402
0.00991128
0.00917404
0.00868928
0.0111845
0.019296
0.0281365
0.0333909
0.0390211
0.0456904
0.0519254
0.0569632
0.0607549
0.0635246
0.0653208
0.0658226
0.063349
0.0532558
0.0483202
0.043493
0.0385472
0.0334142
0.0323434
0.0415141
0.0497547
0.0566812
0.06292
0.0669769
0.0653425
0.0497833
0.0468866
0.0627648
0.0902801
0.0811543
0.104171
0.120301
0.0800104
0.0650732
0.0641166
0.0794328
0.081874
0.0753498
0.066534
0.0568362
0.0460339
0.0511525
0.0559418
0.0604165
0.0649242
0.0771713
0.0795039
0.0782696
0.0756477
0.0723369
0.0681089
0.0619402
0.0538896
0.0448601
0.0369104
0.0297987
0.0199809
0.0120878
0.0137648
0.0129903
0.0159997
0.0149879
0.00971909
0.0099679
0.0101208
0.0100014
0.00976496
0.00974691
0.01114
0.0179343
0.0146293
0.0131733
0.0113249
0.0142199
0.0160688
0.0179807
0.0184268
0.0184889
0.0217678
0.0374481
0.0446458
0.0498972
0.0544596
0.0571582
0.0558894
0.052648
0.0469785
0.0405322
0.037853
0.0339258
0.0303849
0.0285192
0.0292863
0.0257782
0.0162613
0.0146996
0.0157249
0.0154409
0.0144585
0.0163898
0.0175965
0.0183589
0.0189729
0.0194293
0.0197773
0.0200229
0.0201834
0.0202647
0.0202849
0.0202583
0.02019
0.0200789
0.019922
0.0197083
0.0194073
0.0188939
0.0171982
0.0153733
0.0146709
0.0147559
0.0145268
0.0141666
0.0122931
0.0125151
0.0143757
0.014974
0.0145803
0.0151566
0.0156149
0.0168007
0.0189729
0.0211079
0.0229368
0.0216399
0.0210005
0.02097
0.0205619
0.0174101
0.0206694
0.0235692
0.0240846
0.0243561
0.0251616
0.0267502
0.0276964
0.0267672
0.0262618
0.0257306
0.0226004
0.0241755
0.0277645
0.0281812
0.0288691
0.029471
0.0300472
0.0313168
0.0306795
0.029764
0.0291585
0.026242
0.0253837
0.0316944
0.0205257
0.0141008
0.0100762
0.0107433
0.010896
0.0104957
0.011174
0.0116382
0.0118234
0.011233
0.0123216
0.0132376
0.012585
0.0153041
0.0145336
0.0134202
0.0129622
0.0138985
0.0147876
0.015229
0.0162315
0.0262111
0.0269046
0.0225638
0.0289033
0.031549
0.0289282
0.0317069
0.0293694
0.0279274
0.0306669
0.0341275
0.0355029
0.0331837
0.0317094
0.0311727
0.0207443
0.0200485
0.019351
0.0174883
0.017668
0.0171593
0.0167004
0.0162845
0.0187658
0.0201424
0.0212392
0.020928
0.0205719
0.0201444
0.021617
0.0267902
0.0369205
0.0441203
0.0464021
0.0450875
0.0415236
0.0352232
0.0295031
0.0288816
0.0268749
0.0254748
0.0251088
0.0192321
0.015026
0.0173719
0.0173673
0.0184177
0.0190752
0.0195883
0.019995
0.0203311
0.0206175
0.0208921
0.0211527
0.0213834
0.0215805
0.0217523
0.0218967
0.0220525
0.022239
0.0224969
0.0227079
0.0211178
0.0185271
0.017203
0.0170574
0.0177692
0.0186658
0.0197893
0.0190542
0.0153514
0.0154295
0.0218268
0.0222466
0.0208742
0.01946
0.0196671
0.0188295
0.0225853
0.0223776
0.023116
0.0228989
0.0226108
0.0223239
0.0220381
0.0217467
0.0214794
0.0212472
0.0210394
0.0208488
0.0206619
0.0204662
0.0201976
0.0197961
0.0191325
0.0183312
0.0170621
0.0183467
0.019231
0.0208009
0.0228085
0.0239218
0.0230665
0.0217006
0.0209498
0.0210423
0.0213281
0.0216539
0.0220058
0.0224121
0.0228464
0.0232588
0.0232451
0.0219617
0.0225963
0.0173697
0.0182256
0.018523
0.0184785
0.0201484
0.0193159
0.0146361
0.0151214
0.0158234
0.0170986
0.0196648
0.0200101
0.0213352
0.0215546
0.0172206
0.0169052
0.0164835
0.0175008
0.0151421
0.015773
0.0264307
0.0270516
0.0347813
0.0381334
0.0397341
0.0330063
0.04544
0.0522558
0.0503634
0.0407722
0.0234234
0.0345189
0.0420277
0.0486525
0.0455867
0.0354432
0.0447159
0.0472074
0.062967
0.0585882
0.052241
0.0629748
0.0445517
0.0268087
0.0157755
0.0163513
0.0151728
0.0305704
0.034657
0.0313521
0.0321942
0.039801
0.0408165
0.03609
0.0344137
0.0361657
0.0357184
0.0396457
0.0369517
0.0336003
0.0232178
0.0189561
0.0197873
0.0211876
0.0230131
0.0253472
0.0252424
0.024102
0.0227461
0.0217773
0.0207353
0.0182483
0.0176033
0.0195542
0.0211774
0.0225514
0.0240566
0.0248754
0.0257142
0.0258801
0.0257739
0.0254529
0.0250261
0.0244723
0.0237891
0.0223835
0.0235853
0.024256
0.0244668
0.0247474
0.0250618
0.0253394
0.0254826
0.025371
0.0244285
0.0236235
0.0224626
0.0213497
0.0197507
0.0176433
0.018323
0.0200739
0.0216656
0.0227738
0.0238186
0.0234262
0.0239105
0.024558
0.0245741
0.0243865
0.0241572
0.0240017
0.024091
0.0247276
0.0264622
0.0262838
0.0292462
0.0304166
0.0278087
0.0264565
0.0257468
0.0253067
0.0250504
0.0248357
0.0246302
0.0240798
0.0235353
0.0240414
0.0243017
0.0246068
0.0249727
0.025488
0.0261873
0.0272907
0.0287187
0.0286123
0.0262449
0.0260171
0.0249358
0.0241422
0.0237692
0.0237231
0.0237784
0.0238912
0.0238415
0.023334
0.0230144
0.0234214
0.0224161
0.0224846
0.0215184
0.0201672
0.0187339
0.0172884
0.0166298
0.0351023
0.0351013
0.045575
0.0422286
0.0369212
0.0469007
0.0598183
0.0518612
0.0625352
0.0663
0.0538824
0.0500825
0.0277491
0.0242868
0.0173592
0.0188782
0.020216
0.0214134
0.0212287
0.0221433
0.0220239
0.0229828
0.022442
0.021657
0.0211235
0.0201135
0.0201708
0.0189062
0.017368
0.0172341
0.0188746
0.0198998
0.0210758
0.0210576
0.0225106
0.0230166
0.0234016
0.0235381
0.0235171
0.0235963
0.0237632
0.0242121
0.0249367
0.0254294
0.0256232
0.0261501
0.0258903
0.0255736
0.0251231
0.0248144
0.0244936
0.0242087
0.0239068
0.0236211
0.0231839
0.0225267
0.022405
0.0229212
0.0232668
0.0235069
0.0236474
0.0236313
0.0234372
0.0231174
0.0227925
0.0224343
0.0224815
0.023696
0.0239141
0.0240168
0.0237791
0.0235951
0.0235728
0.0234591
0.023375
0.0231621
0.0228076
0.0223414
0.0212794
0.0213766
0.0222509
0.0226864
0.0230017
0.0232654
0.0232746
0.023187
0.0228199
0.0225446
0.0222192
0.0216761
0.0209551
0.01859
0.0190813
0.0197075
0.0205575
0.0214117
0.0221379
0.0225992
0.022789
0.0227837
0.0226064
0.0222499
0.0215001
0.0214799
0.0220225
0.022195
0.0221479
0.0218443
0.021221
0.020291
0.0190811
0.0178603
0.0168919
0.0164184
0.0156424
0.0181376
0.0191667
0.0200961
0.0209369
0.021727
0.0225659
0.0229005
0.022979
0.0228361
0.0225842
0.0221804
0.0214165
0.0214222
0.0221193
0.0225009
0.0227061
0.0227929
0.0225024
0.0218287
0.0203161
0.0189226
0.0177594
0.0166871
0.015566
0.0153569
0.0158609
0.0154177
0.0158382
0.0169636
0.0184489
0.0198151
0.0208049
0.0214014
0.0216852
0.0217108
0.0213775
0.0211984
0.0213312
0.0211389
0.020651
0.0197913
0.0185124
0.0170421
0.0158202
0.0154499
0.0160943
0.0167477
0.0161445
0.0138738
0.0149916
0.0160656
0.0171777
0.0188308
0.0208606
0.0218577
0.0223484
0.0225057
0.0223977
0.0220431
0.021397
0.0213433
0.0219603
0.0223042
0.0223871
0.0222711
0.0218035
0.0209592
0.0184769
0.0157859
0.0145647
0.0138727
0.0129294
0.0162931
0.0169936
0.0161657
0.015621
0.0164797
0.0175206
0.0186739
0.0195561
0.0201849
0.0206759
0.0209416
0.0209619
0.0206928
0.0205872
0.0203774
0.0200452
0.0197236
0.0193864
0.0186035
0.0177716
0.0168011
0.017873
0.0184602
0.0177006
0.0144137
0.0149657
0.0157401
0.0161832
0.0187645
0.0212367
0.0219472
0.0221941
0.022333
0.0222337
0.0218621
0.0212582
0.0211384
0.0217588
0.0222067
0.0224551
0.0226788
0.0227911
0.022879
0.0209704
0.0178265
0.017195
0.0155304
0.0147139
0.0182627
0.018957
0.0184561
0.0178872
0.0195558
0.0202546
0.020508
0.0205005
0.0204147
0.0203064
0.0203135
0.020416
0.0201196
0.0200067
0.0201188
0.0203446
0.020307
0.0200833
0.0195101
0.0187457
0.0176594
0.0195219
0.02123
0.0209549
0.0169433
0.0174677
0.0182629
0.0177173
0.0202663
0.022114
0.0226391
0.0226766
0.0224665
0.0220685
0.0215739
0.0209567
0.0206873
0.0212332
0.0217803
0.0218272
0.0219477
0.0219257
0.0213759
0.0212203
0.020658
0.0203987
0.0196485
0.0190882
0.0183424
0.0204997
0.0236705
0.0258557
0.0274382
0.0293232
0.0279621
0.0244826
0.022244
0.0153203
0.0153281
0.015556
0.0149071
0.0145223
0.0143421
0.0187125
0.0214182
0.0240978
0.0258463
0.0234157
0.0233914
0.0233159
0.0232022
0.0230943
0.0230065
0.0228129
0.0237188
0.0417234
0.283438
0.211443
0.23642
0.225316
0.315845
0.0805981
0.0394492
0.0439381
0.0516635
0.059984
0.0585765
0.0544072
0.047345
0.0425663
0.0421409
0.0413514
0.0410937
0.0392664
0.0391983
0.0379657
0.0442335
0.0876726
0.120076
0.134036
0.142778
0.152506
0.148089
0.157494
0.149827
0.150499
0.152202
0.15693
0.149616
0.142214
0.13829
0.134021
0.116847
0.117242
0.098979
0.102835
0.0858439
0.0902174
0.0941191
0.0934787
0.0922657
0.0920304
0.0922804
0.0930614
0.0966125
0.0920664
0.0993427
0.0928416
0.0757609
0.0734719
0.0762511
0.0703621
0.0614577
0.0700539
0.0862884
0.102736
0.119015
0.100383
0.123606
0.115713
0.114482
0.108816
0.102557
0.0988358
0.0981553
0.098776
0.0998761
0.102472
0.104324
0.105858
0.108628
0.117117
0.119266
0.117688
0.100444
0.0854533
0.0938564
0.0986266
0.102417
0.102781
0.0982615
0.0959807
0.0894996
0.0879049
0.0822393
0.0797398
0.0741697
0.0709551
0.0661334
0.0824697
0.0807946
0.0877395
0.0939381
0.0982687
0.101808
0.103419
0.104553
0.103333
0.100898
0.0961071
0.0942192
0.089553
0.107715
0.125965
0.128924
0.124483
0.111067
0.105565
0.336826
0.408624
0.409579
0.607266
0.647938
0.836849
0.333554
0.179653
0.191807
0.188494
0.180396
0.177208
0.176912
0.188549
0.197538
0.188989
0.19919
0.179008
0.174452
0.173244
0.204345
0.202995
0.183716
0.1613
0.130406
0.107497
0.108846
0.0905617
0.091628
0.0776333
0.0769636
0.0766145
0.0903528
0.160699
0.203832
0.230371
0.256618
0.316211
0.286789
0.434395
0.349635
0.435759
0.301614
0.325488
0.311423
0.302824
0.300841
0.316744
0.338261
0.297719
0.369898
0.296771
0.643971
0.779378
0.496434
0.45813
0.406499
0.392689
0.383055
0.377678
0.369445
0.485946
0.451335
0.549216
0.510161
0.632735
0.563381
0.578801
0.545354
0.587279
0.609917
0.624424
0.503609
0.557739
0.435806
0.472864
0.389833
0.42456
0.295926
0.292599
0.330088
0.367755
0.392306
0.446064
0.704093
0.599118
0.80837
0.580694
0.702606
0.488362
0.534006
0.51038
0.492687
0.494085
0.521834
0.626286
0.60612
0.690621
0.514658
0.526977
0.516656
0.534016
0.523434
0.558405
0.563075
0.564224
0.562159
0.523393
0.53394
0.532152
0.531957
0.531983
0.532325
0.509563
0.512735
0.505208
0.510988
0.526921
0.514559
0.514487
0.512352
0.50478
0.502729
0.502248
0.504003
0.503775
0.508903
0.508774
0.509109
0.512154
0.52685
0.514424
1.81804
0.901166
0.428176
0.337756
0.219535
0.13412
0.0549583
0.0592806
0.0620801
0.0628737
0.0606999
0.0552179
0.0470367
0.0371202
0.0293893
0.0283916
0.0253264
0.0274643
0.034773
0.0422684
0.0385556
0.0463153
0.0540048
0.0623052
0.0702751
0.0772263
0.0831119
0.0860623
0.0830399
0.0703283
0.0526656
0.0352729
0.0250179
0.0226208
0.0209793
0.0189871
0.0168831
0.0152316
0.0142294
0.0130611
0.0124302
0.0123409
0.0125587
0.0127978
0.013236
0.0147488
0.016047
0.0172299
0.0181894
0.0184339
0.0179252
0.0184673
0.0190623
0.0194561
0.0197988
0.0196323
0.0196313
0.0198809
0.019842
0.0200522
0.019954
0.019965
0.0198247
0.0196556
0.0194295
0.0189943
0.0187169
0.0181582
0.0178119
0.0169818
0.0170182
0.017442
0.017776
0.0167774
0.0167322
0.0159595
0.0266163
0.0476646
0.060957
0.0659907
0.071293
0.0672965
0.0568749
0.0388792
0.019165
0.0188721
0.0193369
0.0218937
0.0214019
0.0173535
0.0181134
0.0187236
0.0174723
0.0173013
0.0173279
0.0192615
0.0198237
0.021183
0.0216667
0.0220649
0.0222833
0.0222892
0.0223909
0.0221714
0.0221847
0.0218442
0.0218356
0.0215318
0.021307
0.0215806
0.0222401
0.0222938
0.0228803
0.0225796
0.0222698
0.0217174
0.0212946
0.0204627
0.0195434
0.0185752
0.017096
0.0166756
0.0172143
0.0177538
0.0173187
0.0188344
0.0199926
0.0196891
0.0245287
0.0227937
0.0203401
0.0228799
0.0185418
0.0186956
0.0181948
0.0170918
0.0176308
0.0171039
0.0169771
0.0172496
0.0175014
0.0186246
0.0195504
0.0201786
0.0210236
0.0216795
0.0223842
0.0235421
0.0238451
0.0229267
0.0227722
0.0216305
0.0209748
0.0206704
0.0215687
0.0228117
0.0226993
0.023531
0.0232778
0.0220773
0.0212783
0.0204241
0.0194664
0.0188235
0.0180886
0.0173879
0.0170111
0.0162397
0.0163919
0.0153694
0.0168788
0.0171157
0.0189931
0.017357
0.0170075
0.0225109
0.0282789
0.0440968
0.0321413
0.0211394
0.0222555
0.0301061
0.0371344
0.0255192
0.0250298
0.0148568
0.0161345
0.0152721
0.0154938
0.0165552
0.0168237
0.0179465
0.018971
0.0191945
0.0199297
0.0202603
0.0210292
0.0212804
0.0220051
0.0221924
0.0234198
0.023486
0.023562
0.0235435
0.0227962
0.0227264
0.022776
0.0232025
0.0229821
0.0236317
0.0236567
0.02373
0.0236626
0.0223693
0.0220563
0.0212992
0.0207964
0.019901
0.0193672
0.018662
0.0182869
0.0176882
0.0179987
0.0187079
0.018916
0.0197924
0.0198119
0.020555
0.0207545
0.0212124
0.0213393
0.0219957
0.0221302
0.0223908
0.0224444
0.0236142
0.0237245
0.0237617
0.0237245
0.0237525
0.023986
0.0239843
0.0239149
0.0239019
0.0238392
0.0236886
0.023561
0.0245929
0.0252427
0.0247808
0.0245564
0.0248327
0.0256812
0.0262324
0.0273137
0.0281652
0.0292338
0.030128
0.0309545
0.0316401
0.0321252
0.0322677
0.0323129
0.0318907
0.0315277
0.0332409
0.0397219
0.042938
0.0481694
0.0505388
0.0525612
0.0533385
0.0521455
0.0528335
0.0515231
0.051768
0.0505255
0.0500639
0.0491996
0.0481641
0.0474166
0.0459256
0.0451804
0.0497677
0.0561832
0.056266
0.0494034
0.046561
0.0418135
0.0359125
0.0383821
0.044558
0.039791
0.0378965
0.0348889
0.0297106
0.0224382
0.0178571
0.0256742
0.0333441
0.0405505
0.0473494
0.0533476
0.0572264
0.0593397
0.0608565
0.0625548
0.0605293
0.0530945
0.0414992
0.0316753
0.0278082
0.026258
0.0238222
0.0203941
0.0185127
0.0174429
0.0162924
0.0149482
0.0140931
0.0138492
0.0140907
0.0142062
0.0155536
0.0168162
0.0168098
0.0179904
0.0178117
0.018323
0.0189145
0.0193179
0.0199771
0.0199487
0.0189866
0.0193391
0.0196024
0.0202818
0.0201827
0.0203542
0.0201413
0.0194233
0.0189112
0.0183103
0.0177966
0.0173406
0.0167718
0.0160612
0.0160558
0.016257
0.0158025
0.0162092
0.0166448
0.0170486
0.0176712
0.0185832
0.0193393
0.0211672
0.0212998
0.0210453
0.0211302
0.0196996
0.0196329
0.0186582
0.0184212
0.020016
0.0198556
0.0181842
0.0195759
0.0195844
0.0213664
0.021377
0.020703
0.0209027
0.0207977
0.0189755
0.0180875
0.0170166
0.0162425
0.0156582
0.0152637
0.0148
0.0154313
0.0142412
0.0136531
0.0140975
0.0140708
0.0141344
0.0145214
0.0149493
0.0156917
0.0163941
0.0174422
0.0180807
0.0189779
0.0193094
0.0212134
0.0211174
0.0209792
0.0210099
0.0211452
0.0215919
0.0208085
0.0207702
0.0209129
0.0209284
0.0209611
0.0209473
0.0191131
0.018911
0.018077
0.0177596
0.0168252
0.0164683
0.0158147
0.0155019
0.0151132
0.0149187
0.0232864
0.025486
0.0256475
0.0398109
0.0200158
0.0199998
0.034421
0.0173739
0.0231148
0.0236593
0.0247264
0.025943
0.0225943
0.0307988
0.0212645
0.0233726
0.0240947
0.0252903
0.0128053
0.0191712
0.0366962
0.0422747
0.0436121
0.0485586
0.0552568
0.0584842
0.0615321
0.0635906
0.065857
0.0683162
0.0707192
0.0724612
0.072614
0.0689406
0.0658885
0.0564148
0.0525995
0.0563318
0.0607428
0.0472829
0.0425008
0.0430436
0.0435049
0.0440347
0.0442376
0.0449201
0.0447214
0.0457113
0.0449763
0.0460741
0.0449252
0.0459408
0.0447104
0.0419898
0.0387705
0.0325886
0.0306168
0.0295092
0.0268002
0.0242996
0.0220595
0.0202405
0.0198095
0.0182479
0.0168482
0.0165491
0.0152585
0.015514
0.0167409
0.0198795
0.01682
0.0176611
0.0260019
0.019137
0.0180377
0.018583
0.0191016
0.0193411
0.018233
0.0198583
0.0221256
0.0221287
0.0221943
0.0222078
0.0214069
0.0212437
0.0209807
0.0210405
0.0210727
0.0212014
0.0211722
0.0193505
0.0192944
0.0190224
0.0188854
0.0180962
0.0179294
0.0173451
0.0170151
0.0161715
0.0158781
0.0154285
0.0154812
0.0165954
0.0204106
0.0298237
0.0172859
0.017933
0.01553
0.0139506
0.026625
0.0247893
0.0286465
0.0267823
0.0394378
0.0264352
0.0231948
0.0242152
0.0297394
0.0296758
0.0326244
0.0424255
0.0330638
0.028218
0.072901
0.0527557
0.033109
0.0460459
0.0581559
0.1088
0.1271
0.0557757
0.0562932
0.0619773
0.0628942
0.0627903
0.0531607
0.0490279
0.0411306
0.0315867
0.0129271
0.0249443
0.0322469
0.0425837
0.05683
0.0918508
0.0527685
0.0595931
0.0655283
0.0645973
0.0676856
0.065831
0.0644612
0.0654232
0.102528
0.111586
0.10737
0.0859724
0.0807742
0.0741942
0.124044
0.138974
0.119717
0.129659
0.135388
0.0812797
0.0303474
0.0249726
0.0238418
0.0264198
0.0253691
0.0459881
0.0206168
0.0218371
0.0226659
0.027168
0.0302255
0.0528257
0.0232997
0.0254803
0.032425
0.0348774
0.045847
0.0274758
0.0280977
0.034398
0.0361799
0.0395123
0.0336793
0.031799
0.0287352
0.0259308
0.0244374
0.0254945
0.0318956
0.0463574
0.0279039
0.0283334
0.0300977
0.13412
0.0307661
0.0266597
0.0277286
0.0267389
0.0337007
0.0350795
0.111186
0.0355279
0.0167049
0.0154604
0.0159365
0.0167515
0.0173898
0.0180097
0.0184537
0.0190952
0.0194855
0.0196407
0.0198129
0.0221842
0.0220774
0.0216082
0.0210641
0.021852
0.0211574
0.0212025
0.0218162
0.0212807
0.0214289
0.0224732
0.0236397
0.0231461
0.0237042
0.0250562
0.0239045
0.0222149
0.0220088
0.0221292
0.0228374
0.0239769
0.0227894
0.0234449
0.0226297
0.0235496
0.0236754
0.0203812
0.0200086
0.0198032
0.0193035
0.0186288
0.0180042
0.0173287
0.016674
0.0161623
0.0160757
0.0165629
0.0151888
0.0155773
0.0178881
0.0392166
0.0322802
0.0264398
0.022165
0.0195343
0.0184035
0.0182994
0.0187514
0.0194073
0.0199666
0.0201761
0.0207669
0.0246464
0.0245627
0.0257651
0.0246307
0.0259637
0.0249043
0.0235805
0.0227106
0.0239151
0.0232215
0.0237109
0.0253158
0.0261504
0.0237887
0.0240527
0.0214741
0.020071
0.018465
0.0188044
0.0202444
0.0209114
0.0233331
0.0234172
0.0268409
0.0268279
0.0266911
0.0254661
0.0247947
0.0262414
0.0247594
0.0259081
0.0248012
0.0262042
0.0273922
0.0277389
0.0270358
0.0262138
0.0253429
0.0210639
0.0202691
0.0199629
0.0194701
0.0191984
0.0200884
0.0242793
0.0333979
0.0454267
0.0575059
0.0669167
0.0664325
0.0598626
0.040518
0.0415887
0.0385505
0.0420593
0.0598189
0.0857703
0.0598925
0.113982
0.088269
0.0523797
0.062653
0.0746111
0.0837442
0.0896267
0.0905838
0.0770668
0.0566745
0.0497347
0.0521935
0.0845129
0.0832475
0.0822924
0.0778414
0.0823111
0.0801963
0.0775305
0.0759682
0.0741905
0.0699459
0.0699271
0.0672354
0.0672015
0.0600989
0.0612824
0.0615035
0.0589325
0.0561945
0.053915
0.051731
0.0494135
0.0455344
0.0442617
0.041797
0.0400681
0.0367261
0.0361945
0.0357108
0.0335426
0.0319972
0.0307491
0.0294933
0.0278002
0.0279662
0.0263967
0.0262422
0.0213942
0.0210116
0.019988
0.0196545
0.019398
0.0195726
0.020779
0.0234151
0.0434775
0.0330683
0.0329647
0.033541
0.0337169
0.0396769
0.0464406
0.0705542
0.0652664
0.0717701
0.0613978
0.063823
0.0630299
0.0626474
0.0653641
0.0689384
0.0742768
0.0867668
0.333381
0.513795
0.253121
0.237121
0.246762
0.251667
0.259091
0.339056
0.36011
0.355912
0.360592
0.330508
0.318453
0.196608
0.226049
0.238124
0.236995
0.223842
0.202155
0.392595
0.522658
0.518787
0.523656
0.523769
0.518767
0.522599
0.502913
0.514274
0.501758
0.515026
0.502298
0.521662
0.518922
0.504364
0.501137
0.501157
0.500917
0.501379
0.501556
0.504895
0.506056
0.506107
0.505103
0.504113
0.514525
0.436386
0.121967
0.084724
0.140855
0.19578
0.160231
0.232144
0.266964
0.192313
0.109204
0.0890367
0.10047
0.123761
0.125292
0.152264
0.199388
0.186703
0.152365
0.153343
0.15383
0.198895
0.190545
0.216821
0.25916
0.252562
0.187886
0.149494
0.148601
0.226595
0.241562
0.236762
0.122373
0.0438533
0.0217977
0.0226835
0.0327437
0.0165156
0.0168299
0.0220383
0.057481
0.0963465
0.0495807
0.135554
0.137471
0.181545
0.147012
0.177923
0.115121
0.118488
0.0674301
0.079407
0.0893256
0.0950881
0.0993798
0.0934044
0.215882
0.318736
0.190062
0.560529
0.537581
0.195696
0.216854
0.575552
0.513012
0.503522
0.501785
0.501698
0.501859
0.501816
0.50097
0.500915
0.500728
0.500765
0.500716
0.501163
0.504767
0.520386
0.514601
0.505239
0.501385
0.500824
0.500799
0.500691
0.50073
0.50075
0.500808
0.501018
0.50105
0.501151
0.50167
0.50394
0.512029
0.435366
0.169672
0.182008
0.40576
0.361529
0.511502
0.504621
0.501369
0.500942
0.500856
0.500829
0.500795
0.500969
0.50089
0.501397
0.501232
0.501287
0.502776
0.508256
0.50639
0.44268
0.369008
0.416606
0.329638
0.506666
0.507775
0.503277
0.5029
0.503247
0.503414
0.501514
0.501527
0.500992
0.50106
0.500893
0.501341
0.504755
0.511012
0.345686
0.170556
0.177464
0.257583
0.0877127
0.0906299
0.0925423
0.0946374
0.246684
0.440832
0.554776
0.470463
0.474597
0.541485
0.385089
0.363859
0.293604
0.317132
0.401394
0.346739
0.31232
0.249881
0.288136
0.247313
0.303047
0.217507
0.233765
0.221348
0.282617
0.286487
0.286844
0.226318
0.216189
0.271205
0.285475
0.316415
0.21837
0.258594
0.20294
0.191988
0.0869358
0.0890969
0.0810032
0.0710816
0.0708557
0.0789651
0.0774167
0.0835834
0.0805931
0.0842923
0.0814245
0.0794046
0.0726255
0.0746465
0.0684508
0.0710904
0.129989
0.166094
0.15003
0.15145
0.179156
0.130707
0.157035
0.153096
0.197138
0.247499
0.226147
0.291075
0.224625
0.275034
0.404998
0.753478
0.437572
0.243972
0.31753
0.33953
0.28815
0.189175
0.448936
0.537904
0.297513
0.359685
1.19553
1.04297
1.78115
0.991575
1.11797
0.669871
0.596861
1.02799
0.652957
0.665276
0.558854
0.572695
0.498461
0.323706
0.323165
0.305028
0.241351
0.280037
0.270764
0.266295
0.295818
0.260945
0.315901
0.351662
0.396295
0.322071
0.284911
0.366098
0.215107
0.290072
0.345552
0.314926
0.259123
0.337188
0.449059
0.420219
0.361554
0.398276
0.508597
0.562348
0.531353
0.450724
0.511766
1.00542
0.962003
0.930031
0.589612
1.93351
1.71727
0.352208
0.137289
0.0955182
0.0361864
0.0224386
0.0182742
0.0178882
0.0489139
0.019546
0.0235305
0.0211822
0.0299606
0.0272977
0.0315528
0.0552954
0.0375416
0.0526597
0.0390601
0.0518882
0.0413188
0.0567991
0.0609955
0.0642186
0.0519016
0.0409464
0.0618752
0.0826128
0.0386396
0.0994762
0.105122
0.0678419
0.0825635
0.101979
0.0527044
0.164702
0.057206
0.0568373
0.0675607
0.12667
0.251166
0.0854411
0.111999
0.584887
1.52907
0.509504
0.201101
0.164117
0.0414494
0.0359814
0.0292762
0.0356106
0.0313835
0.0628689
0.0634688