/*--------------------------------*- C++ -*----------------------------------*\
| =========                 |                                                 |
| \\      /  F ield         | OpenFOAM: The Open Source CFD Toolbox           |
|  \\    /   O peration     | Version:  v2012                                 |
|   \\  /    A nd           | Website:  www.openfoam.com                      |
|    \\/     M anipulation  |                                                 |
\*---------------------------------------------------------------------------*/
FoamFile
{
    version     2.0;
    format      ascii;
    class       volScalarField;
    location    "320";
    object      alphat;
}
// * * * * * * * * * * * * * * * * * * * * * * * * * * * * * * * * * * * * * //

dimensions      [1 -1 -1 0 0 0 0];


internalField   nonuniform List<scalar> 
18258
(
0.00484943
0.00210738
0.00172561
0.00149464
0.000991216
0.00162154
0.0022524
0.00268188
0.0028142
0.00279094
0.00289031
0.00487786
0.00684599
0.00846155
0.00888862
0.00887352
0.00805414
0.007691
0.00834677
0.0102684
0.00864141
0.00553411
0.00663367
0.00766232
0.00832785
0.00737178
0.00595949
0.00552092
0.00499876
0.00416614
0.00349119
0.002375
0.00175462
0.00162805
0.00147447
0.00168016
0.00182926
0.00194951
0.00199374
0.00202524
0.0020114
0.00200002
0.0019461
0.00191365
0.00185805
0.00153903
0.00187267
0.00189903
0.00207895
0.00287886
0.00309593
0.00260518
0.00288375
0.0025728
0.00169583
0.00194089
0.00210683
0.0021523
0.00212472
0.00203659
0.00200693
0.00198181
0.00194996
0.00191213
0.00188909
0.00190809
0.00192793
0.00190707
0.00181346
0.00173765
0.00161493
0.00149188
0.00140068
0.00133003
0.00127675
0.00121757
0.00115105
0.00101109
0.000937111
0.00124078
0.00155763
0.00166424
0.00235873
0.00287566
0.00289492
0.00216723
0.00154464
0.00160302
0.00178185
0.00179948
0.00152484
0.00181238
0.00205251
0.00212735
0.00221687
0.00247793
0.00282264
0.00275247
0.00245145
0.00225926
0.00220825
0.00253256
0.00240919
0.003125
0.00314638
0.00274195
0.00253655
0.00285389
0.00368099
0.00395779
0.00307348
0.00288725
0.00283059
0.0027941
0.00252753
0.00261664
0.00237686
0.00214178
0.00233349
0.00281934
0.00267395
0.00292015
0.00302626
0.00283936
0.00329014
0.00379411
0.00373977
0.00299278
0.00244082
0.00227528
0.00229252
0.00140213
0.00151409
0.00163105
0.00167102
0.00169916
0.001723
0.00183703
0.00183288
0.00180594
0.00180195
0.00183347
0.00101046
0.00109476
0.001122
0.00112987
0.00107332
0.00106222
0.00104233
0.00102619
0.000967883
0.00092617
0.00110812
0.00124422
0.00135511
0.0014848
0.00167819
0.00191483
0.00216358
0.00241497
0.00258124
0.00262861
0.00267643
0.00257933
0.00248156
0.00256993
0.00258473
0.00256794
0.00253337
0.00248976
0.00243085
0.00232286
0.00244723
0.00244015
0.00229232
0.00196506
0.00200869
0.00200506
0.0020573
0.00204709
0.0020681
0.00203925
0.00200537
0.00190917
0.00177488
0.00147762
0.00143789
0.00145652
0.00187105
0.00227202
0.00351021
0.00428319
0.00497455
0.00532457
0.0057007
0.00461039
0.00513035
0.00395315
0.00354936
0.00451174
0.00590327
0.00336775
0.00183775
0.00348518
0.00309005
0.0022399
0.00199336
0.00205358
0.00205869
0.00236778
0.00272956
0.00302786
0.00317216
0.00329983
0.00340167
0.00351405
0.00365687
0.00369623
0.0035712
0.0030236
0.00364299
0.00295786
0.00345426
0.00311876
0.00210196
0.00224081
0.00237241
0.00216919
0.002109
0.00202063
0.00181601
0.00223163
0.00289527
0.00336084
0.00384182
0.00512134
0.00473807
0.00454435
0.00351945
0.0034031
0.00176731
0.00252166
0.00261112
0.00293423
0.00195143
0.00177901
0.00168728
0.00223963
0.00259532
0.00306267
0.00339559
0.0040331
0.00312548
0.00356932
0.0032286
0.00224775
0.00216562
0.0031036
0.00334384
0.00275007
0.00246174
0.00308764
0.00292116
0.00207153
0.00166257
0.0025533
0.00264511
0.00189516
0.00470926
0.00500296
0.00477282
0.00581726
0.00729383
0.00831714
0.00774327
0.00687048
0.0076714
0.00609318
0.00590043
0.00629257
0.00528467
0.00370593
0.00379962
0.0039299
0.00403711
0.00433515
0.00460588
0.00493624
0.00524991
0.00477171
0.00396199
0.00299808
0.00206175
0.00203319
0.00202279
0.00181646
0.00269215
0.00407409
0.00404705
0.00230036
0.00134077
0.00151587
0.00171139
0.00169449
0.00122992
0.000925547
0.00159441
0.00182326
0.00185284
0.00180694
0.00170613
0.00178291
0.00286327
0.00441113
0.00484701
0.00502032
0.00518438
0.00530034
0.00536499
0.00538565
0.0053972
0.00541125
0.00542349
0.00544204
0.00542498
0.00530915
0.00466944
0.00293526
0.00171564
0.00159372
0.00175892
0.00189034
0.00200506
0.00170598
0.0010431
0.00166617
0.0021335
0.00245229
0.00247323
0.00230823
0.00223918
0.00353083
0.00469454
0.0055334
0.00570316
0.00577858
0.00571486
0.00570622
0.00558116
0.00554158
0.00485855
0.00347748
0.00380211
0.00408223
0.00412918
0.00422468
0.00436811
0.0042667
0.00403035
0.005892
0.00679811
0.00688489
0.0070313
0.00694806
0.00682797
0.00651761
0.00616304
0.00518827
0.00389073
0.00245482
0.00250596
0.00266767
0.00264209
0.00229996
0.00242348
0.00263009
0.00265645
0.00274345
0.0030766
0.00349459
0.00333368
0.00286886
0.00243632
0.00226855
0.00222098
0.00213099
0.00159607
0.00161985
0.00157455
0.00160047
0.00215014
0.00255913
0.00295127
0.00418592
0.00373415
0.00303687
0.00481455
0.00493283
0.00529897
0.00585352
0.00599866
0.00664569
0.00462769
0.00417118
0.00428465
0.00349982
0.00323954
0.00327407
0.00328641
0.00306306
0.00335246
0.00332293
0.00320287
0.00353619
0.00389656
0.00513825
0.00622629
0.00656967
0.00676821
0.00684943
0.00682358
0.00669029
0.006732
0.00591236
0.00590525
0.00565573
0.00549338
0.00543599
0.0051667
0.00591524
0.00614028
0.0062151
0.00636986
0.0066114
0.00643281
0.00623299
0.00608121
0.00597148
0.00585685
0.00591954
0.00602893
0.0061458
0.00631037
0.00653063
0.00656761
0.00633933
0.00616708
0.00604953
0.0059393
0.00594409
0.00604234
0.00615718
0.00632043
0.00652923
0.00641348
0.00625125
0.00610697
0.00598881
0.00588498
0.0056793
0.0058159
0.00596633
0.00609035
0.00617085
0.00533167
0.00569915
0.00560128
0.00507149
0.00474703
0.00360498
0.00390131
0.00411376
0.00448061
0.00497337
0.00506996
0.00425429
0.00364576
0.00355259
0.00352392
0.00360694
0.00363682
0.00365449
0.00412941
0.00621948
0.00626172
0.00627924
0.0062814
0.00537203
0.00522054
0.00486447
0.00888844
0.00827497
0.00716939
0.00591053
0.00316947
0.0027169
0.00321859
0.003914
0.00437572
0.00482931
0.00320608
0.00198552
0.0023137
0.0023987
0.00233987
0.00216289
0.00180211
0.00166353
0.00150985
0.00162489
0.00287758
0.0045932
0.00517475
0.00523056
0.00517947
0.00507949
0.0049579
0.00478845
0.00471977
0.00594109
0.00802899
0.0090838
0.00905027
0.00777488
0.00633128
0.00356354
0.0018256
0.00132743
0.00145839
0.00160045
0.00188319
0.0016825
0.00139597
0.00153025
0.00145575
0.00295372
0.00510723
0.00652178
0.00774166
0.00761154
0.00660945
0.00541581
0.00513898
0.00525948
0.00533915
0.00540754
0.00547774
0.00552562
0.00549397
0.00499953
0.00308768
0.00184324
0.0016377
0.00176087
0.00206369
0.00219284
0.00221536
0.00218475
0.00189423
0.00313335
0.004976
0.00316449
0.00172626
0.00186495
0.00185118
0.00326553
0.00326085
0.00319105
0.00496553
0.00525098
0.00523825
0.00492121
0.00469747
0.00278081
0.00315629
0.003167
0.00318391
0.00323622
0.00163467
0.00178181
0.00183724
0.00197773
0.00172837
0.00219661
0.000568444
0.000787766
0.000915262
0.000995359
0.00107245
0.00105209
0.00201273
0.00204224
0.00194874
0.00189731
0.00240832
0.00258453
0.00264164
0.00243315
0.00224524
0.0023899
0.00239511
0.00225709
0.00213807
0.0022169
0.0022185
0.0021261
0.00180839
0.00169457
0.00186029
0.00184022
0.00182545
0.00327818
0.00327263
0.00309736
0.00508973
0.00500757
0.00560934
0.00557282
0.00556594
0.00554284
0.00560299
0.00563447
0.00565829
0.00568605
0.00567538
0.00562015
0.00781491
0.00552946
0.00482474
0.00278988
0.00268725
0.00189774
0.00166323
0.00195846
0.00209461
0.00227081
0.00221939
0.00233978
0.00233689
0.00247976
0.00230168
0.0020438
0.00313033
0.00334421
0.00326646
0.00333119
0.00325301
0.00323399
0.00321022
0.00316453
0.00310945
0.00185138
0.00181598
0.00212649
0.00223216
0.00239842
0.0024202
0.00247265
0.00234508
0.00206247
0.00199653
0.0022993
0.00226837
0.00231242
0.00218027
0.00217131
0.0019344
0.00198332
0.00399821
0.00737547
0.00379862
0.00421887
0.00382275
0.00434716
0.00380818
0.00328477
0.00336182
0.0029613
0.00308893
0.00323995
0.00329843
0.00346648
0.00408605
0.00393391
0.00345319
0.00335312
0.00328721
0.00309965
0.00279005
0.00292252
0.00294867
0.00301183
0.00334732
0.00383903
0.00430295
0.00522711
0.00507228
0.0044445
0.00406327
0.00426047
0.00433518
0.00545588
0.00509662
0.00506689
0.00534545
0.00529303
0.00502325
0.00476006
0.00459479
0.00394571
0.00401072
0.00458943
0.00444085
0.00457643
0.00449625
0.00467437
0.00475869
0.00456734
0.00424509
0.00446303
0.00445415
0.00494603
0.00481015
0.00446238
0.00408227
0.00436397
0.00431148
0.00497978
0.0046874
0.00438425
0.00403629
0.0038667
0.00438804
0.00430789
0.00488393
0.00502562
0.00502784
0.00438386
0.00428195
0.00509129
0.00489781
0.0047317
0.00492826
0.00408207
0.00419829
0.0051708
0.00527872
0.0050084
0.00418212
0.00424589
0.00364069
0.00428092
0.00532741
0.00503125
0.00412419
0.00342288
0.00478822
0.0050378
0.00532861
0.00503673
0.00548458
0.00590842
0.00481743
0.00524091
0.00684548
0.00523193
0.00607095
0.00620503
0.00624105
0.00624365
0.00626701
0.0062973
0.00663287
0.00644922
0.00410404
0.00490694
0.00476883
0.00399044
0.00339486
0.00373866
0.00402622
0.00408411
0.00418753
0.00434672
0.00427162
0.00412801
0.00604547
0.00690047
0.00704847
0.00718809
0.00707081
0.00689798
0.00649732
0.00600771
0.00499147
0.00372304
0.00232442
0.00236916
0.00252426
0.00249966
0.00216779
0.00163528
0.00107492
0.00159531
0.00165055
0.00155565
0.00141931
0.00125513
0.00130218
0.00236821
0.00451406
0.00627147
0.00693078
0.00746702
0.00803774
0.00859063
0.00901289
0.00931883
0.00952361
0.00964677
0.00966943
0.00947625
0.0085992
0.00821394
0.00773821
0.00734919
0.00681584
0.00640817
0.00724428
0.00796032
0.00840347
0.00890114
0.00913241
0.00903746
0.00785299
0.00760875
0.00875056
0.0107838
0.00916593
0.0115195
0.0135492
0.0105441
0.00948495
0.00948461
0.010602
0.0108062
0.0104191
0.00981621
0.00912428
0.00825128
0.00868186
0.00907489
0.00945585
0.00980623
0.0107778
0.010951
0.0108723
0.0107085
0.0104854
0.0101587
0.00964445
0.00893818
0.00814796
0.00737317
0.00647295
0.00458595
0.00220705
0.00247552
0.00243874
0.00256363
0.00252292
0.00118412
0.00130796
0.00132518
0.00133439
0.00125963
0.001434
0.00207413
0.00337385
0.0024267
0.00199774
0.00137545
0.00161344
0.00269473
0.00457543
0.0051712
0.00527498
0.00535052
0.006817
0.00790143
0.00841393
0.00880286
0.00909115
0.00897547
0.00867725
0.00815049
0.0074867
0.00723911
0.0068339
0.00647984
0.00628895
0.00609407
0.00571674
0.00448011
0.00431377
0.00449668
0.00444111
0.00425054
0.00454292
0.00470784
0.00470452
0.00475738
0.00480363
0.00494602
0.0051135
0.00525931
0.00533599
0.00536465
0.00537388
0.00538517
0.00539409
0.0054107
0.00539242
0.00527434
0.00463121
0.00289564
0.00168994
0.00156189
0.00171242
0.00181076
0.00185269
0.00164511
0.00105906
0.00164568
0.00213019
0.00218515
0.00239819
0.00247461
0.00262432
0.00292272
0.00337692
0.00348432
0.0030916
0.00292783
0.00286531
0.00279266
0.00238767
0.00297686
0.00328388
0.00327765
0.00324682
0.00350959
0.00431931
0.00414876
0.0036582
0.00361721
0.00358059
0.00323828
0.00319
0.0034845
0.003523
0.00365466
0.00428559
0.00513987
0.00476809
0.00434268
0.0041634
0.00384479
0.00338569
0.00306043
0.00376295
0.00308713
0.00162983
0.00138469
0.00137675
0.00138259
0.00133495
0.00158358
0.00166678
0.00168942
0.00157125
0.00174352
0.00194069
0.00187868
0.00212256
0.00209493
0.0018761
0.0018586
0.00200956
0.00211992
0.00217552
0.00223455
0.00366275
0.00378344
0.00292977
0.00423975
0.00488182
0.00484141
0.00513716
0.00422719
0.00379146
0.00450087
0.00519995
0.00596209
0.00471268
0.00445869
0.00456134
0.00209374
0.00110185
0.0015543
0.00193009
0.00215268
0.0020895
0.00197452
0.00167019
0.00296504
0.00304525
0.00483543
0.00542534
0.00549733
0.00546404
0.00547978
0.00595672
0.00683118
0.00783957
0.00815829
0.00804631
0.00768406
0.00700748
0.00632944
0.00629541
0.00608215
0.00592652
0.0058821
0.00510674
0.00451532
0.00484047
0.00475991
0.00492127
0.00499692
0.005052
0.00510811
0.00520136
0.00531385
0.00541648
0.00548647
0.00553308
0.00557212
0.00561181
0.00565155
0.00569448
0.00571757
0.0056632
0.00511801
0.00306871
0.00182885
0.00166782
0.00177951
0.00209157
0.00220237
0.00236697
0.00210113
0.00110646
0.00130097
0.00226112
0.00250846
0.00232122
0.00217235
0.00213353
0.00178725
0.00323963
0.00319797
0.00502257
0.0056496
0.0057292
0.00571372
0.00566988
0.00561994
0.00557049
0.00552971
0.00549682
0.00546196
0.00541308
0.00535381
0.00529922
0.0052436
0.00514867
0.00501445
0.00485569
0.00504704
0.00522934
0.00545525
0.00569203
0.00580596
0.00570064
0.00554867
0.00548748
0.00552595
0.00557523
0.00562534
0.00567031
0.00569292
0.00562865
0.00530357
0.00497414
0.00314924
0.00319066
0.00156859
0.00174228
0.00201037
0.00207634
0.00225464
0.00224321
0.00176263
0.0013742
0.00155083
0.00144973
0.00259057
0.00284942
0.00316092
0.00313007
0.00169888
0.00174274
0.00181104
0.00204245
0.00189877
0.00183536
0.00454067
0.00434916
0.00455032
0.00558156
0.00480844
0.00331855
0.00363403
0.00505755
0.0053349
0.0032236
0.00241906
0.00268111
0.00339591
0.00500108
0.00506401
0.00481203
0.00478428
0.00349016
0.00429134
0.00516752
0.0050267
0.00391463
0.00269665
0.00201038
0.00097685
0.00185791
0.00158816
0.00389563
0.00431184
0.00426244
0.00466091
0.00495192
0.00500238
0.00486079
0.00430974
0.00439609
0.00443969
0.00505955
0.00508216
0.00430088
0.00362856
0.00294617
0.0029728
0.00303056
0.00335813
0.00420455
0.00396153
0.00347229
0.00336695
0.0032942
0.00309831
0.00279585
0.00245202
0.00246915
0.00229832
0.00222431
0.00350638
0.0046675
0.00550415
0.00566246
0.00571987
0.00563225
0.00559263
0.00543298
0.00535058
0.00464859
0.00593789
0.00627597
0.00605556
0.00609975
0.0061373
0.00618366
0.00618426
0.00606774
0.00521377
0.00311345
0.00203362
0.00229542
0.00247745
0.00232623
0.00231322
0.00246565
0.0023398
0.00205528
0.00332996
0.00325494
0.00520479
0.00589476
0.00602137
0.00602914
0.00600554
0.00598615
0.00599441
0.00630973
0.00616475
0.00624252
0.0065676
0.00657983
0.00666158
0.00625573
0.00617722
0.0061273
0.006094
0.00603914
0.00589134
0.00521375
0.00505518
0.00574039
0.00591669
0.00599446
0.00604806
0.00611215
0.00619656
0.00644141
0.00662259
0.00669077
0.00642773
0.0063327
0.00618702
0.00597798
0.00592791
0.00591718
0.00591155
0.00588218
0.00572909
0.00504267
0.00324214
0.00332199
0.00197617
0.00198893
0.00229076
0.00240586
0.00236278
0.00218798
0.00213319
0.00367707
0.00418536
0.00445052
0.00479596
0.00458149
0.00455503
0.00520528
0.0050375
0.00448763
0.00467089
0.00419091
0.0039918
0.00386416
0.00388716
0.00203958
0.00220094
0.00229588
0.00225795
0.00215917
0.00192593
0.00176616
0.00322343
0.0031999
0.00315855
0.00187787
0.00183663
0.00216373
0.00210116
0.00192203
0.00163842
0.00179625
0.00277448
0.0031031
0.0048123
0.0049847
0.00533511
0.00570593
0.00584711
0.00588629
0.00591052
0.00593745
0.00599396
0.00605997
0.0060774
0.00607243
0.00611548
0.00610528
0.00610671
0.00607466
0.00603804
0.00599539
0.00594983
0.0058745
0.00571855
0.00534396
0.00497635
0.00561097
0.0056626
0.00576783
0.00587647
0.00592247
0.0059295
0.00590798
0.00586528
0.00581485
0.00575658
0.00575587
0.00592717
0.00596806
0.00599808
0.00598041
0.00595939
0.00595166
0.00592414
0.00588038
0.00577064
0.00566082
0.00561431
0.00552045
0.00566809
0.00573367
0.00574377
0.00580004
0.00589015
0.00591692
0.00591711
0.00587387
0.0058369
0.00578887
0.00571066
0.00560849
0.00526591
0.00533433
0.00542498
0.00554366
0.00565836
0.00575125
0.00580376
0.005808
0.00575522
0.0057198
0.00572135
0.00567286
0.00569825
0.00572416
0.00569478
0.0056909
0.00569459
0.00562911
0.00551033
0.0053453
0.0051709
0.00502681
0.0049536
0.00483428
0.00522599
0.00537731
0.00551254
0.00563226
0.00573963
0.00584638
0.00587788
0.00586436
0.0057977
0.00575953
0.00575745
0.00570177
0.00569915
0.00575292
0.00575557
0.00578736
0.00584428
0.00582997
0.00575293
0.0055515
0.00535481
0.0051832
0.00501851
0.00484327
0.00479601
0.0048747
0.00480828
0.00487484
0.00504429
0.00525758
0.00544243
0.00556107
0.0055992
0.00563478
0.00568659
0.00568119
0.00565033
0.00563314
0.00556313
0.00550194
0.00542706
0.0052647
0.00505843
0.00487714
0.00482016
0.0049187
0.00501606
0.00492521
0.00457543
0.0047584
0.00493323
0.00510641
0.00535063
0.00563097
0.00575184
0.00579443
0.00576556
0.00574291
0.00573952
0.00568862
0.00567073
0.00571761
0.00572194
0.00574497
0.00578163
0.00574774
0.00564932
0.00530636
0.00489524
0.0046974
0.0045797
0.00442387
0.00495009
0.00505329
0.00492894
0.00484488
0.00497525
0.00512688
0.0052846
0.00539015
0.00543296
0.00549288
0.00557137
0.00560929
0.00555362
0.00548856
0.00540848
0.0053669
0.00536548
0.00533914
0.00523807
0.00511847
0.00497981
0.0051476
0.00524523
0.00515107
0.00466592
0.00474326
0.00486239
0.00493313
0.00531932
0.00565225
0.00572792
0.00572829
0.00569127
0.00566704
0.00566701
0.0056373
0.00558185
0.00557213
0.00556813
0.00563541
0.00572386
0.00577688
0.00580448
0.0055565
0.00509446
0.00501268
0.00479948
0.00470131
0.00522053
0.00527938
0.00515862
0.00504651
0.00529036
0.00539388
0.00542191
0.00539954
0.00534305
0.0053063
0.00537499
0.00548301
0.00540118
0.00505017
0.00473835
0.00489841
0.00493802
0.00492644
0.00486011
0.00474815
0.00450474
0.00503039
0.00554192
0.00558344
0.00503925
0.00504756
0.00489063
0.00455647
0.00500519
0.00523946
0.00528923
0.0052647
0.00517989
0.00498073
0.0052601
0.00550658
0.00545914
0.0049418
0.00320766
0.00325173
0.00327491
0.00327771
0.00323483
0.00322287
0.00317597
0.00315173
0.0030788
0.00300442
0.00293381
0.00312938
0.00329815
0.00352411
0.00354311
0.00363662
0.00348034
0.00329459
0.00307652
0.00239488
0.00303885
0.00362511
0.00385248
0.00414367
0.00420325
0.00484993
0.00510391
0.0052407
0.00513919
0.00412274
0.00349701
0.00279423
0.00181711
0.00113208
0.00132859
0.00138157
0.00145004
0.00177157
0.00328669
0.00167249
0.00232284
0.00181494
0.00313007
0.00164487
0.00102796
0.00068044
0.000864656
0.0010228
0.00103174
0.000991478
0.000827997
0.000653385
0.000668002
0.000624639
0.000663962
0.000598889
0.000686225
0.000641204
0.000895749
0.00134679
0.00152715
0.0015608
0.00126146
0.00142232
0.00118824
0.00137035
0.00122347
0.00133351
0.00127909
0.00156457
0.00171474
0.0016419
0.0016467
0.00144111
0.001008
0.00116832
0.000917869
0.00110198
0.000843193
0.00108904
0.00093388
0.00121348
0.00125095
0.00124738
0.00120106
0.000917609
0.00108796
0.000856489
0.00104901
0.00085901
0.000911767
0.000758035
0.00109737
0.00111695
0.00102964
0.00109318
0.0012265
0.00131643
0.00145377
0.00137993
0.00157749
0.00152779
0.00155406
0.00147209
0.00143133
0.00139866
0.00140146
0.00137839
0.00138592
0.00143056
0.00143274
0.00143837
0.00148391
0.00146221
0.00142711
0.00140608
0.00124904
0.00100763
0.00175525
0.00181013
0.00183677
0.00183611
0.00179425
0.00177427
0.00171323
0.00169694
0.00164379
0.00161244
0.0015412
0.00148247
0.00141569
0.00159147
0.000890413
0.00101099
0.00106736
0.00109896
0.00112112
0.00113126
0.00113959
0.00113325
0.00111926
0.00109152
0.001082
0.00105181
0.00134601
0.0015311
0.00160033
0.00161878
0.00151734
0.00144477
0.00315843
0.00382204
0.00581455
0.00594312
0.00446035
0.00444714
0.00153955
0.00162374
0.00111049
0.00156058
0.00160914
0.00159285
0.00150488
0.00108558
0.00162908
0.00113468
0.00152759
0.00114368
0.00141204
0.0011602
0.00164431
0.00209361
0.0020177
0.00182574
0.00124299
0.00103568
0.00103408
0.000887208
0.000973841
0.000806222
0.00099199
0.000839981
0.00125131
0.00178297
0.00197184
0.00201149
0.00158614
0.00218816
0.00164505
0.00238121
0.00188965
0.00232986
0.00186963
0.0021648
0.00267861
0.00269054
0.00262673
0.00211708
0.00169699
0.00190449
0.00168734
0.00194301
0.00280805
0.00184032
0.00279057
0.00115342
0.00157211
0.00162034
0.0015981
0.00150689
0.00101545
0.00258597
0.00136729
0.00243422
0.00157473
0.0025261
0.00182926
0.00241654
0.00288733
0.00301369
0.00299703
0.00244572
0.00220324
0.00227168
0.00181514
0.00217885
0.00163033
0.00236942
0.00135096
0.00175835
0.00194774
0.0020508
0.00205961
0.00169365
0.00334383
0.00209907
0.00316841
0.00220242
0.00282181
0.00226165
0.0024752
0.00292297
0.00290493
0.00288077
0.00244291
0.0019763
0.00260824
0.00186107
0.0552777
0.127876
0.0508462
0.129254
0.058526
0.0830854
0.0818796
0.0820616
0.0823764
0.0618678
0.134995
0.159461
0.166283
0.168289
0.167016
0.269901
0.220038
0.33062
0.214303
0.126026
0.0545644
0.0752809
0.194496
0.321321
0.482204
0.611952
0.416996
0.431677
0.275469
0.271628
0.255736
0.206897
0.126864
0.0636139
0.0109087
0.0119452
0.0170928
0.0227471
0.0179233
0.0109889
0.00217191
0.00224201
0.00229353
0.00232645
0.00232034
0.00227346
0.00231221
0.0021866
0.00205951
0.00230645
0.00251454
0.00266965
0.00315234
0.00348561
0.00314228
0.00344406
0.00364967
0.00381754
0.00395689
0.00416419
0.00439744
0.00460157
0.00461214
0.00422543
0.00360071
0.002928
0.0024601
0.00233045
0.0021884
0.00192983
0.00176538
0.001653
0.00159883
0.00157646
0.00162021
0.00177084
0.00190158
0.00194741
0.00190915
0.00187417
0.00184367
0.00164173
0.00191956
0.00263311
0.00265355
0.00454619
0.00523854
0.0053476
0.00535524
0.00474672
0.00303208
0.00303876
0.00305435
0.00311261
0.00312493
0.00313329
0.00313018
0.00311978
0.0031017
0.00306827
0.0030513
0.0030018
0.00295999
0.00285527
0.00285988
0.00289592
0.00292475
0.00287643
0.00288768
0.00282761
0.00368943
0.00492768
0.00555251
0.00580249
0.00601803
0.00584062
0.00809532
0.00692792
0.00486432
0.00478439
0.00472538
0.00560465
0.00564316
0.00509769
0.00511897
0.00467049
0.00291657
0.00291075
0.00291279
0.00311746
0.00317943
0.00328641
0.00331628
0.00334128
0.00335688
0.0033485
0.00334594
0.00331446
0.00329173
0.00321614
0.0031911
0.00318028
0.00175329
0.00191384
0.00198606
0.00199983
0.00202996
0.00201806
0.0020068
0.00198276
0.00196766
0.00193464
0.00189695
0.00183992
0.00172914
0.00157471
0.00173268
0.00293894
0.00293751
0.00478555
0.00540175
0.00544146
0.00605569
0.00574805
0.00544377
0.00584039
0.00526564
0.00522353
0.00472838
0.00293681
0.00297697
0.00176762
0.0017529
0.00205029
0.0019944
0.00213177
0.00219067
0.00219704
0.00222738
0.00225567
0.00229146
0.00234967
0.00236631
0.00232784
0.00232011
0.00218456
0.00188728
0.00190943
0.00225174
0.00236287
0.00219471
0.00215769
0.00214157
0.00208888
0.00204914
0.00201134
0.00203755
0.00219394
0.00219071
0.0021511
0.00204646
0.00199189
0.00172578
0.00166621
0.00291275
0.00296048
0.00489852
0.00500082
0.00496163
0.0057224
0.00639256
0.00727014
0.00620741
0.00504827
0.00527218
0.00603441
0.00449628
0.00376978
0.00224293
0.00167696
0.0021048
0.00192624
0.00200928
0.00208178
0.00184896
0.00198758
0.00183792
0.00167031
0.00166098
0.00165914
0.00169994
0.00171725
0.00174841
0.0017527
0.0017955
0.00179142
0.00179611
0.00181793
0.00182653
0.00201803
0.00219238
0.0018457
0.00156494
0.00152548
0.00144058
0.00137183
0.00140534
0.00137126
0.00136278
0.00133768
0.00131489
0.00125472
0.00130739
0.00138728
0.00162293
0.00155302
0.00125524
0.00112156
0.000766483
0.000782107
0.000787516
0.000811687
0.000820625
0.000831579
0.00083569
0.00084933
0.00085201
0.000856358
0.000856042
0.000877059
0.000874077
0.000863983
0.000857503
0.000861569
0.000865443
0.000864798
0.00126645
0.0014101
0.0015398
0.00182865
0.00215145
0.00185233
0.00157032
0.00135378
0.000870187
0.000883188
0.000899328
0.000907643
0.000927008
0.000944593
0.000964226
0.000976561
0.000985821
0.000995457
0.00100566
0.00100965
0.00100713
0.000987577
0.000976095
0.00100078
0.0011
0.00115765
0.00123172
0.00125967
0.00128329
0.00129484
0.00128903
0.0013027
0.0012877
0.0012857
0.00126413
0.00125502
0.00124645
0.00123547
0.00122174
0.00118739
0.00117606
0.00123725
0.00209632
0.00274257
0.00315757
0.0034771
0.00322063
0.002619
0.0027453
0.00482969
0.00457628
0.00269528
0.00251882
0.00232767
0.00203827
0.00177062
0.00213796
0.00244018
0.00266862
0.00286875
0.00305204
0.0031768
0.00333747
0.00354714
0.00391674
0.00396299
0.00361446
0.00292806
0.00247762
0.00231343
0.00223502
0.00209863
0.00194949
0.0019984
0.00201285
0.00195302
0.00187874
0.0018578
0.0018887
0.00192829
0.00190526
0.00190457
0.00170156
0.00170091
0.00290645
0.00296053
0.00455403
0.0047986
0.00484533
0.00311504
0.0030724
0.00179458
0.00166668
0.00181823
0.00188753
0.0018915
0.0018993
0.00188969
0.00185686
0.00183272
0.00180466
0.00178171
0.00176137
0.00172631
0.00165955
0.0015328
0.00167003
0.00187268
0.00195589
0.00197773
0.00198831
0.00201987
0.00207131
0.00211255
0.00220807
0.00221779
0.00221682
0.00222459
0.00207923
0.00214424
0.00181472
0.00181204
0.00314076
0.00313211
0.00179929
0.00212464
0.00213919
0.00211476
0.00227679
0.00208351
0.0020175
0.00200678
0.0019219
0.00187666
0.0018163
0.00178009
0.00181461
0.00192999
0.00186838
0.0016558
0.00159494
0.00178967
0.00172237
0.00142898
0.00122097
0.00118751
0.00113684
0.00110614
0.00115952
0.00120113
0.00122489
0.00125502
0.00126396
0.00131918
0.00128353
0.00134687
0.00142833
0.00149318
0.00177117
0.00191944
0.00173403
0.00170079
0.00167969
0.00167792
0.00168321
0.00161392
0.00160932
0.00157345
0.00155574
0.00150882
0.00148755
0.0014605
0.00146517
0.00148046
0.00162743
0.00419379
0.0053479
0.00556844
0.00951297
0.00384091
0.00392303
0.00769118
0.00318243
0.00478423
0.00512681
0.00536022
0.00559878
0.00512339
0.00650954
0.00454461
0.00506319
0.00527542
0.00460899
0.00173374
0.00198909
0.00228561
0.00203431
0.00179651
0.00122403
0.00131907
0.00136187
0.00139676
0.00141924
0.00144446
0.00147144
0.00149677
0.00151451
0.00151468
0.00146848
0.00141872
0.00130442
0.00126635
0.00131541
0.00136613
0.00119953
0.00112931
0.00114264
0.00116143
0.00117198
0.00117422
0.00118572
0.00118881
0.00120697
0.00119724
0.0012064
0.00118573
0.00119618
0.0011806
0.00114037
0.0010838
0.000987703
0.000964209
0.0013888
0.00147882
0.00155335
0.00176272
0.00203531
0.00217189
0.00194679
0.00179557
0.0017236
0.00191195
0.00191327
0.00347758
0.00667518
0.00298884
0.00334787
0.00975651
0.00387996
0.00301607
0.00306157
0.00309378
0.00309825
0.00180036
0.00213229
0.00206756
0.00207617
0.00176099
0.00147855
0.00132613
0.00118569
0.000804059
0.000801419
0.000807468
0.000819831
0.000823673
0.000788457
0.000788363
0.000783853
0.000782083
0.000765465
0.000760817
0.000747294
0.000739073
0.000719627
0.000709068
0.000690581
0.000687479
0.000719363
0.000801725
0.000969444
0.00107662
0.00122525
0.00124693
0.00139924
0.00346038
0.00401547
0.00553433
0.00549305
0.00866632
0.00541349
0.00408832
0.00369145
0.00540287
0.0055821
0.0051713
0.00700591
0.00484746
0.00321245
0.00487611
0.00406553
0.00475854
0.00468393
0.00497718
0.00791243
0.00832848
0.00234157
0.00208704
0.00219495
0.00249028
0.00295701
0.00272596
0.00310399
0.00310758
0.00240399
0.00151968
0.00484056
0.00583322
0.00470327
0.00566725
0.00872318
0.00350004
0.00341302
0.00301983
0.00252067
0.00229097
0.00226065
0.00252072
0.00301616
0.0075502
0.00807632
0.00748109
0.00746709
0.00676824
0.00740768
0.00923775
0.00918944
0.00812786
0.007607
0.0078895
0.00491451
0.00302905
0.00352787
0.00391285
0.00522195
0.00538359
0.0113833
0.00385832
0.00426254
0.00432894
0.00579048
0.00560478
0.00991314
0.00419935
0.0045288
0.00596681
0.0079781
0.0147215
0.00536803
0.00565434
0.0081345
0.00825768
0.00754597
0.00544991
0.00493614
0.00538003
0.00405273
0.00396225
0.00337998
0.00498992
0.00672208
0.00531621
0.00516157
0.00438952
0.00391024
0.0040021
0.00415431
0.00345043
0.00340174
0.00392525
0.00291619
0.00282514
0.00298123
0.00082905
0.000424782
0.000434191
0.000445454
0.00045463
0.000464085
0.000471004
0.0004792
0.000482908
0.000483306
0.000484535
0.000512382
0.000507641
0.000491598
0.000446389
0.000509362
0.000808331
0.000808866
0.000508777
0.000448528
0.000804802
0.00128238
0.00151187
0.00178848
0.00181057
0.0015623
0.00135453
0.000833747
0.00082065
0.000497417
0.000580935
0.000630869
0.000559563
0.000624489
0.00057882
0.000613075
0.000619423
0.000573152
0.000569966
0.000572171
0.000567784
0.000557678
0.000545335
0.00053033
0.000518618
0.000512432
0.000507871
0.000497504
0.00041241
0.000384831
0.000464145
0.000741676
0.000741418
0.000694343
0.000653485
0.000618343
0.00060198
0.000597106
0.000593597
0.000603911
0.000623445
0.000628956
0.000634478
0.000683607
0.000662286
0.000707375
0.000663897
0.000709282
0.000665735
0.000612428
0.000514229
0.000530548
0.000855912
0.000865022
0.00139762
0.00159882
0.00181286
0.0018221
0.00203382
0.00214186
0.0018139
0.00188313
0.002158
0.00200987
0.00179167
0.00179877
0.00161815
0.00161976
0.00143489
0.000896744
0.000884564
0.000555525
0.000539506
0.000643306
0.000632053
0.000702934
0.000752291
0.00075251
0.000750069
0.000731207
0.000724434
0.000637115
0.000624616
0.000625456
0.000606583
0.000602801
0.000629333
0.000688238
0.000808948
0.00097873
0.00106509
0.00110118
0.0010554
0.000944517
0.000698472
0.000630089
0.00109332
0.00113319
0.00203937
0.00483635
0.00226675
0.00428872
0.00309501
0.000768334
0.000856615
0.00109231
0.0012239
0.00132171
0.00137851
0.00126103
0.00105299
0.000792893
0.000654516
0.000975476
0.0008434
0.000951812
0.000831184
0.00107582
0.00124384
0.00120324
0.00121224
0.00102443
0.000834424
0.00088366
0.000793225
0.000874265
0.000731922
0.000880575
0.000795053
0.000999066
0.00100841
0.000987408
0.000935913
0.000712606
0.000747655
0.000627132
0.000680317
0.000610786
0.000631294
0.000598175
0.000697596
0.000803848
0.000771478
0.00076846
0.000631406
0.000494765
0.000546457
0.000472554
0.000534849
0.000415724
0.000503611
0.000422343
0.000546783
0.00056384
0.00056728
0.000564357
0.00045979
0.000540584
0.000661205
0.00069353
0.000698891
0.000665648
0.000513037
0.000793846
0.000716441
0.000874698
0.000756559
0.000828139
0.000754151
0.000879034
0.00112581
0.00117544
0.00118329
0.000960059
0.000953975
0.00174114
0.0965211
0.0015662
0.00185111
0.00190882
0.00190193
0.00157247
0.00153417
0.00190021
0.0014057
0.00199065
0.00125345
0.00212305
0.000809357
0.00123023
0.0013208
0.00131801
0.00122498
0.000821938
0.00243167
0.119027
0.307943
0.334277
0.333731
0.320744