/*--------------------------------*- C++ -*----------------------------------*\
| =========                 |                                                 |
| \\      /  F ield         | OpenFOAM: The Open Source CFD Toolbox           |
|  \\    /   O peration     | Version:  v2012                                 |
|   \\  /    A nd           | Website:  www.openfoam.com                      |
|    \\/     M anipulation  |                                                 |
\*---------------------------------------------------------------------------*/
FoamFile
{
    version     2.0;
    format      ascii;
    class       volVectorField;
    location    "320";
    object      U;
}
// * * * * * * * * * * * * * * * * * * * * * * * * * * * * * * * * * * * * * //

dimensions      [0 1 -1 0 0 0 0];


internalField   nonuniform List<vector> 
18258
(
(-0.17686 0.116455 0.138063)
(-0.0519919 0.246028 0.157858)
(-0.105084 0.214114 0.0962713)
(-0.0390422 0.069924 0.0841618)
(-0.226484 0.20244 0.018106)
(-0.159395 0.361112 0.0166176)
(-0.223124 0.0446667 0.0538611)
(-0.341619 -0.052981 0.0751967)
(-0.448995 -0.105729 0.108175)
(-0.535924 -0.159611 0.145701)
(-0.621615 -0.217174 0.179912)
(-0.687836 -0.271573 0.30956)
(-0.678637 -0.334319 0.357246)
(-0.622028 -0.445571 0.385836)
(-0.487515 -0.542948 0.369354)
(-0.204481 -0.58672 0.339989)
(0.0741606 -0.373614 0.287704)
(0.0797098 -0.165419 0.298387)
(-0.125105 -0.0782573 0.235599)
(-0.392418 -0.274193 0.115146)
(-0.133496 -0.522971 0.287827)
(-0.188089 -0.36256 0.40575)
(-0.289597 -0.73305 0.298591)
(-0.346514 -0.773652 0.262285)
(-0.124857 -0.709085 0.140136)
(0.00984244 -0.644829 0.18715)
(-0.0123222 -0.336839 0.421069)
(0.177018 -0.111279 0.799974)
(0.300341 -0.0945025 0.885324)
(0.317819 0.058528 0.901163)
(0.320783 0.190039 0.797878)
(0.163351 0.302213 0.0625069)
(0.0877657 0.115853 -0.436997)
(0.0251657 0.0678541 -0.733839)
(-0.0567053 0.0703496 -0.904316)
(-0.047669 0.0683708 -1.08467)
(-0.0623661 0.0682358 -1.22838)
(-0.0898999 0.0867385 -1.32612)
(-0.128984 0.0772039 -1.37548)
(-0.174373 0.0823624 -1.36197)
(-0.222792 0.0682306 -1.27791)
(-0.268015 0.0764717 -1.12391)
(-0.305539 0.0710183 -0.912736)
(-0.335812 0.0705746 -0.656655)
(-0.346753 0.0716946 -0.360812)
(-0.332712 0.0678969 -0.160214)
(-0.16997 0.139252 -0.205238)
(0.322739 -0.0879357 -0.141813)
(0.577901 -0.130075 -0.164559)
(0.645213 -0.109477 -0.171848)
(0.766334 -0.13502 -0.179327)
(0.800562 -0.13457 -0.195636)
(0.502997 -0.0103304 -0.257685)
(0.258608 -0.138646 -0.218799)
(0.113173 -0.0433344 -0.159004)
(0.281332 -0.0102666 -0.169054)
(0.535811 -0.002905 -0.173622)
(0.789734 -0.0301343 -0.177835)
(1.08996 -0.0346792 -0.175601)
(1.42558 -0.0487413 -0.185071)
(1.76017 -0.0644447 -0.183477)
(2.04442 -0.0810178 -0.166618)
(2.24531 -0.0927345 -0.138232)
(2.34588 -0.0988918 -0.102684)
(2.35309 -0.0962514 -0.0681543)
(2.29328 -0.0885957 -0.0415174)
(2.20015 -0.0820934 -0.0248239)
(2.10795 -0.0759632 -0.0180376)
(2.03868 -0.067154 -0.0190077)
(1.99313 -0.0642821 -0.0236307)
(1.96883 -0.0591276 -0.0260253)
(1.95829 -0.0502151 -0.0204671)
(1.94401 -0.0397017 -0.00344587)
(1.90053 -0.0248721 0.0241399)
(1.81292 -0.00781865 0.0537286)
(1.69194 0.00957061 0.0770315)
(1.57106 0.0217746 0.0798768)
(1.47835 0.0307578 0.0752238)
(1.40026 0.0378284 0.0705346)
(1.33807 0.0506079 0.0631465)
(1.28723 0.0572568 0.0649351)
(1.19362 0.0443412 0.0784917)
(1.09655 0.0190079 0.110103)
(1.01365 0.000697575 0.127593)
(0.906438 -0.0209222 0.120476)
(0.762473 0.0166893 0.14571)
(0.641693 0.0816224 0.133107)
(0.518037 0.100551 0.133975)
(0.381025 0.118016 0.118358)
(0.224529 0.126978 0.0962616)
(0.120158 0.189691 0.0917763)
(0.122131 0.0103577 0.19728)
(0.164186 -0.10077 0.143526)
(0.113219 -0.129672 0.0394609)
(0.104657 -0.115004 -0.142276)
(0.216783 -0.210167 -0.370504)
(0.262863 -0.232588 -0.555681)
(0.204438 -0.139515 -0.729425)
(0.106084 -0.0814616 -0.714118)
(0.0362998 0.0571776 -0.491032)
(-0.0894588 0.231071 -0.158804)
(-0.216104 0.194661 0.18004)
(-0.234638 0.0649919 0.154516)
(-0.34054 0.0152564 0.169714)
(-0.273008 0.13846 0.178501)
(-0.247009 0.286478 -0.0463998)
(-0.106263 0.163026 -0.402795)
(0.0643617 0.00409651 -0.584542)
(0.334073 -0.0941795 -0.631943)
(0.496075 -0.230052 -0.489509)
(0.351599 -0.210709 -0.280226)
(0.271765 -0.19184 -0.10093)
(0.282972 -0.186582 0.0392167)
(0.280761 -0.140003 0.159923)
(0.22546 -0.0989575 0.191347)
(0.396657 -0.0812645 0.180456)
(0.53579 -0.0632458 0.176024)
(0.58826 -0.0520107 0.164139)
(0.700203 -0.0786885 0.160293)
(0.732474 -0.133631 0.132019)
(0.600928 -0.134176 0.134773)
(0.454447 -0.15166 0.13929)
(0.461435 -0.18577 0.0350104)
(0.610776 -0.162749 0.0509369)
(0.736191 -0.16197 0.0484453)
(0.904703 -0.141625 0.0805965)
(1.08831 -0.109777 0.110237)
(1.18958 -0.0776513 0.147849)
(1.20865 -0.0106452 0.139553)
(1.24582 -0.00902856 0.120092)
(1.33579 -0.00692397 0.139622)
(1.37778 -0.00168023 0.129575)
(1.36937 -0.012474 0.158351)
(1.32881 -0.0481178 0.193561)
(1.32314 -0.0510429 0.190495)
(1.28606 -0.0619187 0.151733)
(1.27936 -0.0601051 0.134875)
(1.25852 -0.0476224 0.108412)
(1.24999 -0.0455814 0.110452)
(1.20143 0.00462581 0.109432)
(1.19439 0.0280559 0.138023)
(1.077 0.137003 0.271672)
(1.22609 0.053027 0.254204)
(1.21796 0.0202528 0.158927)
(1.26699 -0.0206709 0.128261)
(1.27913 -0.024878 0.119054)
(1.28946 -0.0381188 0.144005)
(1.30835 -0.0414186 0.183245)
(1.35091 -0.0366478 0.217135)
(1.38672 -0.0366296 0.222028)
(1.4236 -0.0127407 0.183143)
(1.437 -0.00189223 0.137908)
(1.51319 -0.00650646 0.151046)
(1.61123 -0.016699 0.159152)
(1.75056 -0.0316144 0.143519)
(1.88273 -0.0542043 0.0488261)
(1.96415 -0.0756731 -0.0714723)
(1.98349 -0.0905386 -0.164612)
(1.96598 -0.0965683 -0.200898)
(1.94957 -0.0969201 -0.194896)
(1.95964 -0.0913169 -0.175189)
(2.00652 -0.0828331 -0.144888)
(2.08779 -0.0704433 -0.108443)
(2.19868 -0.0602728 -0.0848059)
(2.31238 -0.0599394 -0.113739)
(2.38868 -0.0609965 -0.174054)
(2.39081 -0.0585429 -0.277687)
(2.28455 -0.0502253 -0.392578)
(2.06893 -0.0425094 -0.48369)
(1.7685 -0.0366865 -0.539948)
(1.42473 -0.0315448 -0.548611)
(1.0789 -0.0193152 -0.52738)
(0.790588 -0.0243909 -0.459102)
(0.535224 -0.0159566 -0.415268)
(0.281836 -0.0216243 -0.386671)
(0.108665 -0.040822 -0.360655)
(0.101731 -0.0426246 -0.637002)
(0.0769139 -0.0376471 -0.872864)
(0.0503094 -0.039528 -1.05728)
(0.0115574 -0.0407742 -1.17602)
(-0.023467 -0.0284813 -1.21611)
(-0.0599992 -0.0160673 -1.1692)
(-0.0936894 0.0026516 -1.04112)
(-0.119069 0.0253498 -0.826889)
(-0.121704 0.0794724 -0.564808)
(-0.145358 0.133239 -0.061929)
(-0.190714 0.0286081 0.560153)
(-0.20675 -0.0322623 0.747165)
(-0.225517 -0.00100432 0.916825)
(-0.230764 -0.0432641 1.06034)
(-0.316662 -0.102178 1.1225)
(-0.370327 -0.107421 1.1369)
(-0.368417 -0.230053 1.00023)
(-0.294742 -0.248485 0.769243)
(-0.457882 -0.662919 0.686698)
(-0.485914 -0.539891 0.703979)
(-0.41407 -0.40839 0.830443)
(-0.55122 -0.762517 0.851933)
(-0.687331 -0.828951 0.600572)
(-0.477059 -0.751576 0.797853)
(-0.437685 -0.573444 0.738747)
(-0.786569 -0.523824 0.744165)
(-0.905909 -0.407254 0.852752)
(-0.532234 -0.704148 0.81585)
(-0.441651 -0.576711 0.656752)
(-0.320115 -0.315661 0.396886)
(-0.298478 -0.175844 0.390567)
(-0.28122 -0.140327 0.342777)
(-0.23164 0.120249 0.104472)
(-0.162993 0.29203 -0.421983)
(-0.153375 0.179463 -0.639912)
(-0.13234 0.0258023 -0.915685)
(-0.0870451 -0.0587061 -1.08625)
(-0.0291245 -0.0705256 -1.23389)
(0.0376141 -0.103095 -1.26834)
(0.097012 -0.0993534 -1.23324)
(0.171161 -0.110195 -1.11941)
(0.215015 -0.123989 -0.919642)
(0.259115 -0.147349 -0.705316)
(0.248182 -0.139811 -0.398636)
(0.415832 -0.0541816 -0.637685)
(0.760402 -0.118867 -0.460018)
(0.709458 -0.108346 -0.417893)
(0.602871 -0.0717313 -0.413716)
(0.514193 -0.105986 -0.426707)
(0.0890468 -0.109863 -0.543739)
(0.148504 -0.120079 -0.941453)
(0.238466 -0.225886 -1.09286)
(0.331138 -0.283969 -0.976941)
(0.390795 -0.352503 -0.544453)
(0.201275 0.00417485 0.164829)
(0.260256 0.103411 0.170764)
(0.428377 -0.324114 0.33399)
(0.515221 -0.528215 0.504453)
(0.544149 -0.52156 0.553889)
(0.411977 -0.234107 0.674861)
(0.47104 -0.336467 0.567649)
(0.486268 -0.607312 0.554433)
(0.701753 -0.670616 0.323106)
(0.744016 -0.485169 0.461478)
(0.794906 -0.344545 0.601707)
(0.230674 -0.223133 0.574207)
(-0.243257 -0.266606 0.820865)
(-0.181257 -0.191254 0.67074)
(-0.676905 -0.298387 0.813563)
(-0.476395 -0.177635 0.686165)
(-0.325583 -0.000474761 0.533282)
(-0.219222 0.17109 -0.294618)
(-0.193741 -0.0496395 -0.618437)
(-0.0571403 -0.171088 -1.10029)
(0.103184 -0.160498 -1.24914)
(0.273276 -0.0904851 -1.11772)
(0.426808 -0.107609 -0.70423)
(0.49192 -0.0739949 -0.631957)
(0.481362 -0.041637 -0.625395)
(0.517893 -0.0871483 -0.657433)
(0.57261 -0.119994 -0.750032)
(0.38727 -0.0413996 -0.696859)
(0.349805 -0.0789172 -0.675003)
(0.128032 -0.113404 -0.679132)
(-0.11151 -0.0506537 -0.590067)
(0.28561 -0.0022222 -0.602712)
(0.3409 0.0097502 -0.627396)
(0.626543 -0.101725 -0.664782)
(0.574816 -0.099236 -0.417789)
(0.268466 0.0655694 -0.394823)
(0.282461 0.0494248 -0.296487)
(-0.307066 -0.0461111 0.0782983)
(-0.307309 0.140138 -0.023277)
(-0.282196 -0.0273087 -0.456867)
(0.0825482 -0.200028 -0.58418)
(0.354218 -0.278365 -0.574378)
(0.716939 -0.343777 -0.409917)
(0.804286 -0.417072 -0.37991)
(0.76425 -0.289986 -0.296845)
(0.806212 -0.363827 -0.220647)
(0.82186 -0.485018 -0.286053)
(0.732541 -0.428392 -0.281994)
(0.707715 -0.302223 -0.33579)
(0.736588 -0.250328 -0.344813)
(0.782964 -0.309855 -0.213901)
(0.795497 -0.365468 -0.162458)
(0.886709 -0.464505 -0.157359)
(1.15444 -0.630311 -0.118107)
(1.61406 -0.725578 -0.0992352)
(1.99207 -0.671711 -0.0384477)
(2.1493 -0.490192 0.0471364)
(2.07 -0.291277 0.0953003)
(1.90506 -0.163117 0.102986)
(1.80766 -0.0946466 0.0994692)
(1.71097 0.000743607 0.0989991)
(1.5735 0.0892594 0.0911302)
(1.43614 0.107714 0.0481012)
(1.3316 0.0579918 0.0273538)
(1.24175 -0.0040808 0.0216675)
(1.13996 -0.0535738 0.0233968)
(1.05598 -0.0783738 0.0215686)
(0.998163 -0.0621008 0.0171565)
(0.821999 -0.109846 -0.0236894)
(0.716882 0.00273264 0.0100663)
(0.63354 0.069 0.00913619)
(0.497828 0.0237543 0.00679865)
(0.359559 -0.0603922 -0.0130775)
(0.139073 -0.146639 -0.0321367)
(0.225605 -0.308174 0.00121362)
(0.353345 -0.0819859 0.0119821)
(-0.00251497 -0.230284 -0.00923665)
(0.0429815 -0.546103 -0.050496)
(0.0119657 -0.712665 -0.0526293)
(-0.00808241 -0.876633 -0.0532608)
(-0.0260448 -1.0067 -0.0649846)
(-0.0360914 -1.10266 -0.0958804)
(-0.0466318 -1.15706 -0.105178)
(-0.0581835 -1.21439 -0.118324)
(-0.0884328 -1.27616 -0.13432)
(-0.113546 -1.3209 -0.149634)
(-0.13753 -1.35462 -0.162546)
(-0.15956 -1.37627 -0.173596)
(-0.178585 -1.38759 -0.183246)
(-0.193985 -1.38921 -0.189947)
(-0.206125 -1.38209 -0.193795)
(-0.216162 -1.36736 -0.193918)
(-0.224744 -1.34544 -0.192012)
(-0.233056 -1.31495 -0.186581)
(-0.240751 -1.27403 -0.178241)
(-0.246225 -1.21974 -0.165201)
(-0.244124 -1.15056 -0.147453)
(-0.191153 -1.07106 -0.12707)
(-0.141364 -0.968451 -0.112747)
(-0.165954 -0.868013 -0.079645)
(-0.189995 -0.754135 -0.0820609)
(-0.205232 -0.542724 -0.0856617)
(-0.2741 -0.449864 -0.0921508)
(0.0221184 0.0536065 -0.116393)
(-0.350889 -0.308014 0.0249843)
(-0.231851 -0.617082 -0.0548177)
(-0.270598 -0.0991416 -0.0112795)
(-0.458246 -0.182334 0.0644811)
(-0.678892 -0.198598 0.0822552)
(-0.842274 -0.209227 0.114095)
(-0.953644 -0.223124 0.144235)
(-1.03427 -0.23255 0.203827)
(-1.11749 -0.24436 0.24537)
(-1.18663 -0.24431 0.3021)
(-1.20033 -0.248599 0.336357)
(-1.17349 -0.250424 0.366252)
(-1.1068 -0.249201 0.394532)
(-0.996357 -0.2436 0.422691)
(-0.842234 -0.230688 0.454064)
(-0.669031 -0.206548 0.493418)
(-0.421944 -0.14751 0.542087)
(-0.140479 -0.117876 0.565487)
(-0.160072 0.0288211 0.821638)
(-0.163993 0.0832395 1.04251)
(-0.163778 0.115551 1.11297)
(-0.164897 0.164741 1.02215)
(-0.167579 0.153571 0.839991)
(-0.153101 0.131308 0.569696)
(-0.122114 0.143697 0.287634)
(-0.223472 0.441219 0.372389)
(-0.504982 0.468737 0.335761)
(-0.689764 0.481509 0.340037)
(-0.914736 0.466315 0.333564)
(-1.09706 0.425578 0.309483)
(-1.22446 0.354092 0.26665)
(-1.2805 0.274006 0.219381)
(-1.26346 0.20667 0.181993)
(-1.23085 0.14839 0.158674)
(-1.18816 0.115648 0.140715)
(-1.09878 0.0928969 0.090431)
(-0.957273 0.0455014 0.0700573)
(-0.766224 -0.0204409 0.0595723)
(-0.500094 -0.11373 0.0190949)
(-0.252766 -0.207685 -0.0190621)
(-0.27404 -0.197523 -0.0661825)
(-0.318063 -0.176899 0.00833383)
(-0.314248 -0.174098 0.0594691)
(-0.27242 -0.156518 0.150594)
(-0.380387 -0.233523 0.118141)
(-0.422119 -0.296668 0.118127)
(-0.326133 -0.287732 0.176557)
(-0.269083 -0.214782 0.0444662)
(-0.140469 -0.10056 -0.0268711)
(-0.140573 -0.0766576 -0.00853996)
(-0.138572 -0.0739751 -0.0366063)
(-0.169461 -0.0555371 -0.0688438)
(-0.167899 -0.501218 -0.149642)
(-0.126318 -0.479215 -0.139722)
(-0.110548 -0.446654 -0.097298)
(-0.100306 -0.423533 -0.146951)
(-0.265982 -0.537454 -0.0322297)
(-0.275607 -0.57472 -0.0265891)
(-0.282834 -0.630937 -0.0850157)
(-0.336575 -0.582277 -0.0210689)
(-0.339566 -0.529448 0.0543564)
(-0.300968 -0.358762 0.0844825)
(-0.443724 -0.31676 0.114318)
(-0.360854 -0.4314 0.0398025)
(-0.346527 -0.522142 0.0131773)
(-0.377189 -0.508047 -0.0245608)
(-0.42785 -0.394165 0.0315385)
(-0.496621 -0.346322 0.0726852)
(-0.528149 -0.254689 0.16361)
(-0.59039 -0.21531 0.241309)
(-0.679294 -0.19739 0.255976)
(-0.575883 -0.20653 0.211528)
(-0.516382 -0.187624 0.181203)
(-0.544711 -0.184782 0.117903)
(-0.539303 -0.171834 0.0919714)
(-0.496064 -0.183974 0.000838037)
(-0.761245 -0.0863865 0.0645745)
(-0.971028 -0.00510726 0.0897256)
(-1.07842 0.0524829 0.103662)
(-1.12753 0.0754126 0.138338)
(-1.16499 0.0360729 0.238134)
(-1.24936 0.0692955 0.267465)
(-1.31492 0.119734 0.349475)
(-1.32831 0.171247 0.432389)
(-1.27072 0.222351 0.525087)
(-1.14559 0.261279 0.604915)
(-0.972908 0.281374 0.649593)
(-0.773316 0.283154 0.658753)
(-0.622031 0.288096 0.645656)
(-0.342227 0.271984 0.646331)
(-0.436694 0.243733 0.876482)
(-0.469119 0.226136 1.00454)
(-0.462319 0.178328 1.08287)
(-0.443327 0.122199 1.01504)
(-0.4419 0.0575102 0.798401)
(-0.712485 -0.00577202 0.744918)
(-0.722935 0.0706327 0.945683)
(-0.741382 0.116495 1.02432)
(-0.745707 0.163477 0.980283)
(-0.694952 0.198105 0.873272)
(-0.83664 0.185881 0.863125)
(-0.879108 0.145381 0.965673)
(-0.882509 0.0878986 1.00164)
(-0.873186 0.0414804 0.926966)
(-0.867137 -0.0394501 0.70731)
(-1.00973 -0.0606037 0.676077)
(-1.02388 0.0202161 0.901599)
(-1.03642 0.0692989 0.966777)
(-1.04412 0.121772 0.944869)
(-1.01866 0.173876 0.854972)
(-1.16207 0.163038 0.805036)
(-1.163 0.110494 0.893566)
(-1.14669 0.0570104 0.915183)
(-1.12993 0.00627268 0.859858)
(-1.11028 -0.0732893 0.64032)
(-1.17013 -0.0838518 0.595717)
(-1.19526 -0.00631688 0.797277)
(-1.22129 0.0435812 0.840708)
(-1.25034 0.0918676 0.812325)
(-1.26779 0.141542 0.717824)
(-1.31751 0.111065 0.610996)
(-1.28911 0.0689414 0.709975)
(-1.25086 0.025021 0.747816)
(-1.21572 -0.0217732 0.71678)
(-1.18598 -0.0935798 0.539994)
(-1.15271 -0.104758 0.472921)
(-1.18052 -0.0413846 0.62171)
(-1.21917 0.000250305 0.641203)
(-1.27339 0.0392694 0.607045)
(-1.30642 0.0744696 0.509746)
(-1.2237 0.0359041 0.414803)
(-1.18685 0.00300535 0.500582)
(-1.12717 -0.0321098 0.531553)
(-1.08512 -0.0600617 0.520457)
(-1.03916 -0.111784 0.386954)
(-0.918391 -0.120139 0.31531)
(-0.922549 -0.109355 0.35829)
(-0.971701 -0.0803489 0.438432)
(-0.955578 -0.0869914 0.42522)
(-0.926722 -0.102533 0.394906)
(-1.00344 -0.068289 0.381673)
(-0.995318 -0.0628784 0.307681)
(-1.00012 -0.0389914 0.283042)
(-1.04332 -0.0269851 0.209383)
(-1.03839 -0.00928946 0.202663)
(-0.805822 -0.104924 0.145476)
(-0.818682 -0.124993 0.158014)
(-0.787589 -0.128201 0.216397)
(-0.823306 -0.14127 0.249533)
(-0.609323 -0.281362 0.132877)
(-0.556338 -0.291076 0.114603)
(-0.502893 -0.32645 0.132204)
(-0.419575 -0.3991 0.115735)
(-0.396309 -0.383587 0.149204)
(-0.487464 -0.283879 0.16506)
(-0.605274 -0.238808 0.183544)
(-0.614528 -0.267504 0.096581)
(-0.512799 -0.37746 0.0436323)
(-0.438974 -0.459544 0.0277524)
(-0.396749 -0.525751 0.0574075)
(-0.383445 -0.697234 0.121728)
(-0.386592 -0.662684 0.12758)
(-0.404868 -0.379954 0.106504)
(-0.407791 -0.536008 0.0809324)
(-0.398709 -0.601347 0.0431777)
(-0.215386 -0.787388 -0.15956)
(-0.193127 -0.793129 -0.260102)
(-0.115195 -0.703114 -0.369422)
(-0.0784455 -0.62318 -0.385392)
(-0.0450305 -0.587923 -0.347716)
(-0.013541 -0.554948 -0.301311)
(0.0315827 -0.500969 -0.2318)
(0.123977 -0.454503 -0.108753)
(0.124541 -0.578952 -0.121742)
(0.116657 -0.635186 -0.120001)
(0.0847568 -0.69301 -0.157452)
(0.0921784 -0.747544 -0.155667)
(0.100325 -0.804118 -0.174853)
(0.118062 -0.83243 -0.166922)
(0.126057 -0.839216 -0.152704)
(0.126222 -0.825452 -0.13011)
(0.117491 -0.78955 -0.0956918)
(0.103901 -0.733071 -0.0423821)
(0.0367583 -0.653051 0.0336488)
(0.00159947 -0.544473 0.153835)
(0.0157298 -0.298005 0.360822)
(-0.148667 0.0154402 0.448792)
(-0.367082 0.0960184 0.350029)
(-0.392355 -0.0390652 0.256605)
(-0.219559 -0.172686 0.252378)
(-0.17997 -0.1892 0.268898)
(-0.157111 -0.178431 0.214797)
(-0.0896742 -0.143151 0.206173)
(0.000590498 -0.0315009 0.0706989)
(-0.0373105 0.109972 0.0810846)
(-0.0812759 0.148305 0.0806177)
(-0.0498804 0.212952 0.170922)
(-0.00768076 0.180859 0.191871)
(0.0142841 0.0394408 0.142783)
(-0.0437814 -0.0282007 0.227374)
(0.0247397 0.0929009 0.323823)
(-0.00207969 -0.064168 0.28701)
(0.0777091 0.143232 0.248164)
(0.0913531 -0.024468 0.227079)
(-0.0206284 -0.254822 0.455738)
(0.0504304 -0.358064 0.544762)
(0.17242 -0.502174 0.514914)
(0.167243 -0.692421 0.352093)
(0.0755861 -0.816462 0.144254)
(0.0588204 -0.888314 -0.00758512)
(0.0653306 -0.922703 -0.119379)
(0.0632705 -0.948879 -0.19754)
(0.0602104 -0.963388 -0.248599)
(0.0521107 -0.961514 -0.279315)
(0.0419723 -0.941569 -0.292687)
(0.0293883 -0.903987 -0.28952)
(0.02377 -0.829149 -0.249675)
(0.00742249 -0.783524 -0.328756)
(0.0435717 -0.702692 -0.225218)
(0.0476287 -0.652562 -0.21121)
(0.0448391 -0.635212 -0.231936)
(0.00471989 -0.701144 -0.32525)
(-0.0224777 -0.740802 -0.383116)
(-0.0572224 -0.776214 -0.410853)
(-0.0731079 -0.843 -0.401768)
(-0.131732 -0.90342 -0.346253)
(-0.0937387 -0.967818 -0.3324)
(-0.0887227 -0.978461 -0.373461)
(-0.0536535 -0.917082 -0.418199)
(-0.043463 -0.86706 -0.431984)
(-0.0176591 -0.824812 -0.404316)
(-0.00947181 -0.868166 -0.341309)
(-0.0391636 -0.900533 -0.374336)
(-0.055853 -0.947277 -0.396845)
(-0.0235867 -0.990289 -0.406038)
(-0.0484895 -1.05871 -0.420919)
(-0.0664569 -1.0415 -0.424665)
(-0.0931616 -0.919385 -0.345505)
(-0.186115 -0.760971 -0.224894)
(-0.197437 -0.613889 -0.0416383)
(-0.0994582 -0.732597 -0.197948)
(-0.0792899 -0.838536 -0.260587)
(-0.059203 -0.927728 -0.324447)
(-0.0608157 -0.94526 -0.335155)
(-0.0278134 -0.828525 -0.382391)
(-0.0240068 -0.723608 -0.338789)
(-0.0321353 -0.541126 -0.255725)
(-0.0163598 -0.352905 -0.165616)
(0.0354687 -0.0891473 -0.211411)
(-0.246417 -0.432965 0.0726535)
(-0.327552 -0.460539 0.0260195)
(0.218522 -0.119219 -0.243551)
(-0.172657 -0.2471 0.0422992)
(-0.217824 -0.266201 -0.118172)
(-0.258145 -0.268473 -0.104296)
(-0.208253 -0.281353 -0.022052)
(0.0809605 0.141126 -0.219839)
(0.102534 0.0600621 -0.232866)
(0.100715 -1.93773e-05 -0.262114)
(0.0959292 -0.000291555 -0.26674)
(-0.0803371 -0.429133 -0.202901)
(-0.133285 -0.449487 -0.223533)
(-0.186486 -0.457837 -0.207351)
(-0.249467 -0.444681 -0.169656)
(-0.169149 -0.546958 -0.184666)
(-0.126986 -0.558713 -0.257913)
(-0.0964219 -0.564967 -0.292327)
(-0.0608322 -0.553169 -0.292851)
(-0.0509471 -0.742049 -0.35006)
(-0.0817494 -0.756715 -0.33288)
(-0.106486 -0.769063 -0.282379)
(-0.147337 -0.759415 -0.195176)
(-0.134643 -0.821148 -0.182705)
(-0.128919 -0.882034 -0.200719)
(-0.0982466 -0.904622 -0.298023)
(-0.0727856 -0.871679 -0.374623)
(-0.0493571 -0.851401 -0.401157)
(-0.0769754 -0.966906 -0.371664)
(-0.112313 -0.988675 -0.336463)
(-0.138266 -1.00896 -0.284229)
(-0.137375 -1.09161 -0.347316)
(-0.0802126 -1.06586 -0.39991)
(-0.0726476 -1.14351 -0.441391)
(-0.0493346 -1.1219 -0.473965)
(-0.0268075 -1.1128 -0.459184)
(-0.00318022 -1.0409 -0.415674)
(0.0122095 -1.07298 -0.406741)
(-0.0126292 -1.1514 -0.469993)
(-0.0398535 -1.17857 -0.494552)
(-0.0686828 -1.20684 -0.463347)
(-0.131742 -1.22749 -0.379395)
(-0.135092 -1.16515 -0.369527)
(-0.283887 -1.04552 -0.225337)
(-0.45774 -1.14514 -0.0769114)
(-0.464155 -1.09914 -0.0674576)
(-0.416393 -1.0447 -0.064805)
(-0.303196 -1.03518 -0.0739161)
(-0.255946 -0.966442 -0.0641438)
(-0.309523 -0.943968 -0.0577283)
(-0.342647 -0.8482 -0.0422939)
(-0.378365 -0.712974 -0.0379643)
(-0.474077 -0.626347 -0.0367782)
(-0.410224 -0.401218 -0.0342097)
(-0.465357 -0.660342 -0.00587353)
(-0.317112 -0.457333 0.0245249)
(-0.638744 -0.398609 0.005453)
(-0.815542 -0.37932 0.0601668)
(-0.917913 -0.384528 0.0846584)
(-0.96777 -0.39735 0.124399)
(-0.979815 -0.525395 0.0977986)
(-0.940323 -0.689442 0.0653913)
(-0.924076 -0.750189 0.0525138)
(-0.874665 -0.848468 0.0364706)
(-0.859073 -0.895643 0.0304952)
(-0.821271 -0.927842 0.00763604)
(-0.704044 -0.967334 -0.022988)
(-0.592896 -1.00173 -0.0419959)
(-0.627154 -0.952352 -0.0172023)
(-0.485374 -0.971239 -0.0307328)
(-0.503295 -0.892973 -0.030148)
(-0.530907 -0.796562 -0.0233074)
(-0.559751 -0.730396 -0.0195013)
(-0.686779 -0.712131 -0.00977683)
(-0.675327 -0.597931 -0.00775598)
(-0.82437 -0.577136 0.0303678)
(-0.918572 -0.559615 0.0504392)
(-0.88156 -0.696998 0.0231781)
(-0.800701 -0.704421 0.0122209)
(-0.777855 -0.789562 0.00230385)
(-0.661297 -0.797902 -0.0107546)
(-0.636162 -0.882248 -0.0170257)
(-0.748835 -0.86597 -0.00511535)
(-0.825796 -0.85048 0.00447234)
(-0.863375 -0.772922 0.0135407)
(-0.801825 -0.738791 -0.0117335)
(-0.624101 -0.611857 0.00193703)
(-0.847309 -0.659571 0.011717)
(-0.868109 -0.518297 0.052083)
(-0.870506 -0.379765 0.0581486)
(-0.843199 -0.282173 0.12163)
(-0.832277 -0.302186 0.0765369)
(-0.878974 -0.350611 0.0525936)
(-0.875009 -0.203872 0.129105)
(-0.893894 -0.184221 0.174172)
(-0.760472 -0.161461 0.158507)
(-0.765894 -0.129003 0.259257)
(-0.777006 -0.120694 0.30205)
(-0.820444 -0.108578 0.355447)
(-0.827899 -0.11916 0.352822)
(-0.641431 -0.181569 0.251067)
(-0.606576 -0.173506 0.248421)
(-0.566885 -0.180344 0.215539)
(-0.550634 -0.175487 0.188923)
(-0.568626 -0.191084 0.120328)
(-0.338283 -0.194552 0.0765693)
(-0.319926 -0.189057 0.101515)
(-0.328859 -0.191793 0.113995)
(-0.360027 -0.198686 0.124203)
(-0.448513 -0.216707 0.141666)
(-0.404631 -0.253141 0.0595534)
(-0.381544 -0.284657 0.0682032)
(-0.409977 -0.340684 0.0468715)
(-0.315388 -0.426475 0.0356499)
(-0.311238 -0.393959 0.0488218)
(-0.283127 -0.415797 0.015248)
(-0.192546 -0.419054 -0.0208195)
(-0.336571 -0.25383 0.0352102)
(-0.402256 -0.330524 0.0409167)
(-0.247742 -0.456914 -0.00693613)
(-0.291115 -0.459288 9.10952e-06)
(-0.45104 -0.320877 0.0717898)
(-0.523803 -0.298709 0.131175)
(-0.497359 -0.318374 0.136234)
(-0.470483 -0.336532 0.111293)
(-0.45851 -0.350362 0.0942333)
(-0.493215 -0.372917 0.00850484)
(-0.710623 -0.317659 0.0631437)
(-0.717833 -0.529614 0.0389125)
(-0.549136 -0.554018 -0.00186897)
(-0.510096 -0.606603 -0.00416268)
(-0.465953 -0.648815 -0.017689)
(-0.43715 -0.652077 -0.0214857)
(-0.413043 -0.530664 -0.023361)
(-0.41138 -0.540719 -0.048645)
(-0.410289 -0.541146 -0.0346099)
(-0.335597 -0.550134 -0.0174984)
(-0.267734 -0.5955 -0.00778201)
(-0.319833 -0.580446 -0.00394599)
(-0.403562 -0.512649 0.00682635)
(-0.332169 -0.535027 -0.00454973)
(-0.439058 -0.629936 -0.012124)
(-0.293105 -0.472908 -0.00552096)
(-0.210636 -0.539334 -0.0188054)
(-0.281391 -0.524252 -0.0166784)
(-0.394551 -0.435791 -0.000986335)
(-0.413954 -0.362522 -0.0106112)
(-0.260797 -0.393959 -0.0114199)
(-0.157177 -0.422528 -0.0368823)
(-0.136552 -0.399092 -0.0231952)
(-0.238236 -0.205095 0.0219339)
(-0.382728 -0.34266 -0.00229042)
(-0.252027 -0.474231 -0.020141)
(-0.21926 -0.467629 -0.0240756)
(-0.122221 -0.392437 -0.0305558)
(-0.219139 -0.194251 0.0387953)
(-0.346847 -0.337709 0.0119137)
(-0.366043 -0.363013 0.0540573)
(-0.195878 -0.510698 -0.011246)
(-0.17407 -0.467676 0.0182701)
(-0.109976 -0.419825 0.00135637)
(-0.222161 -0.228817 0.0443837)
(-0.325712 -0.341609 0.0521703)
(-0.334802 -0.338686 0.0567951)
(-0.180514 -0.462857 0.0163235)
(-0.109265 -0.408601 -0.000433791)
(-0.231707 -0.22024 0.0618199)
(-0.285638 -0.221259 0.0772014)
(-0.240184 -0.230033 0.0709387)
(-0.349981 -0.336726 0.0782857)
(-0.189513 -0.464956 0.047975)
(-0.117722 -0.415299 0.0368422)
(-0.140413 -0.449326 -0.00448332)
(-0.196378 -0.497222 0.0253309)
(-0.381362 -0.350416 0.079027)
(-0.33417 -0.625019 -0.00381283)
(-0.355686 -0.631724 -0.011859)
(-0.499191 -0.511601 0.0578727)
(-0.651077 -0.44456 0.0983405)
(-0.666408 -0.28667 0.136414)
(-0.797749 -0.271542 0.170585)
(-0.890435 -0.320764 0.166491)
(-1.02073 -0.48896 0.126021)
(-1.10747 -0.495339 0.167745)
(-1.13237 -0.503038 0.192884)
(-1.1125 -0.505475 0.21585)
(-1.04943 -0.501843 0.23871)
(-0.944157 -0.490995 0.260587)
(-0.795699 -0.467766 0.287188)
(-0.641657 -0.432752 0.326672)
(-0.399353 -0.380691 0.394723)
(-0.167128 -0.290959 0.481258)
(0.0321274 -0.149433 0.486438)
(0.330213 -0.158205 0.429385)
(0.333193 -0.218831 0.38071)
(0.204501 -0.126811 0.490686)
(0.27116 -0.00159593 0.769788)
(0.282156 0.0481218 1.03471)
(0.267588 0.0831446 1.14331)
(0.250008 0.135569 1.09087)
(0.213073 0.12429 0.95179)
(0.143511 0.121345 0.699334)
(0.0410408 0.18489 0.400638)
(0.175271 0.511345 0.42286)
(0.425042 0.514519 0.372665)
(0.612883 0.536375 0.373726)
(0.855388 0.4955 0.350505)
(1.01279 0.416096 0.317443)
(1.07764 0.323483 0.274373)
(1.06417 0.256336 0.234543)
(1.0164 0.211464 0.198414)
(1.03614 0.158723 0.16688)
(1.04785 0.119213 0.14401)
(0.988061 0.0932803 0.0905203)
(0.882266 0.0424568 0.0678356)
(0.716147 -0.0227504 0.0543422)
(0.470587 -0.109939 0.0206377)
(0.242493 -0.217018 -0.022135)
(0.102875 -0.624479 -0.110706)
(0.179183 -0.385894 -0.079617)
(-0.1796 -0.173289 0.00609456)
(-0.100343 -0.397293 -0.0408373)
(-0.109478 -0.322812 -0.0675273)
(-0.111679 -0.352995 -0.0759013)
(-0.108752 -0.318141 -0.06682)
(-0.0777837 -0.251247 -0.0635363)
(-0.139687 -0.205509 -0.0418078)
(-0.223419 0.125483 0.143102)
(-0.148225 0.4371 0.140608)
(-0.0504934 0.570757 0.0804084)
(0.0229879 0.641415 0.0774346)
(0.106928 0.667576 0.160553)
(0.202045 0.711847 0.276754)
(0.298135 0.746835 0.329605)
(0.385303 0.743652 0.364734)
(0.465217 0.68368 0.373034)
(0.531587 0.548786 0.370243)
(0.582505 0.331518 0.334688)
(0.563257 0.0091053 0.259757)
(0.383133 -0.327651 0.250602)
(0.284032 -0.326057 0.315375)
(0.219114 -0.279854 0.325156)
(0.152604 -0.1883 0.333062)
(0.144791 0.0101121 0.30894)
(0.289439 0.0108774 0.335684)
(0.4486 -0.155727 0.328578)
(0.598565 -0.253192 0.341238)
(0.637431 -0.34249 0.350835)
(0.618297 -0.434933 0.352909)
(0.473152 -0.540823 0.335413)
(0.104613 -0.568089 0.319982)
(-0.17224 -0.303009 0.305201)
(-0.0462761 -0.129737 0.355835)
(0.225728 -0.146579 0.237858)
(0.282373 -0.396973 0.0726399)
(0.00940636 -0.512498 0.235939)
(-0.139517 -0.74097 -0.137441)
(0.206341 -0.715907 -0.478222)
(0.304003 -0.386466 -0.17516)
(0.33127 -0.375625 0.0951318)
(0.342322 -0.550213 0.187647)
(0.323212 -0.892367 0.122534)
(0.525363 -0.870704 0.0653949)
(0.601405 -0.688704 0.0981908)
(0.566037 -0.53442 0.139386)
(0.496408 -0.391747 0.189806)
(0.32965 -0.226402 0.24653)
(0.35127 -0.340997 0.196471)
(0.412794 -0.371318 0.143332)
(0.493538 -0.358518 0.0817577)
(0.597341 -0.287883 -0.0541688)
(0.848148 0.201145 -0.112693)
(0.897054 0.476468 -0.0175515)
(0.843977 0.671794 0.0545702)
(0.743077 0.767302 0.0965244)
(0.610238 0.790149 0.142769)
(0.460208 0.760911 0.157654)
(0.29492 0.70098 0.162522)
(0.124316 0.637064 0.0985917)
(-0.045335 0.592162 0.0549301)
(-0.166801 0.528238 0.0690039)
(-0.297872 0.408769 0.137786)
(-0.408868 0.163678 0.165727)
(-0.284549 -0.157358 0.00447595)
(-0.395537 -0.0921508 0.0385581)
(-0.475736 -0.0277829 0.0678449)
(-0.542001 0.0890495 0.112099)
(-0.532449 0.0564087 0.0891608)
(-0.494832 -0.0758468 0.0213253)
(-0.457281 -0.132259 0.0107692)
(-0.393132 -0.184345 -0.0120363)
(-0.298265 -0.237626 -0.0277582)
(-0.189822 -0.267709 -0.0414985)
(-0.144751 -0.245112 -0.0347415)
(-0.196534 -0.214778 -0.029597)
(-0.182153 -0.356702 -0.0479278)
(-0.122793 -0.350925 -0.0530428)
(-0.0998106 -0.368449 -0.0808756)
(-0.0766312 -0.404428 -0.116303)
(-0.0470456 -0.582658 -0.232126)
(-0.084418 -0.522638 -0.165841)
(-0.0981661 -0.624929 -0.130899)
(-0.145516 -0.62052 -0.0771349)
(-0.18651 -0.541592 -0.0603155)
(-0.285937 -0.356071 -0.0232459)
(-0.261396 0.157565 0.116156)
(-0.110765 0.378511 0.271117)
(-0.0148067 0.467616 0.40961)
(0.0609903 0.473056 0.537946)
(0.133318 0.414276 0.613086)
(0.18534 0.307691 0.64663)
(0.236015 0.159999 0.622256)
(0.225464 -0.00972937 0.524232)
(0.0929286 -0.128738 0.418887)
(-0.0202576 -0.0944181 0.432957)
(-0.0382572 0.0276212 0.40948)
(-0.0351887 0.148588 0.412785)
(0.0389783 0.252578 0.351369)
(0.201336 0.138294 0.366215)
(0.156189 0.27857 0.440139)
(-0.0661152 0.157525 -0.106965)
(-0.176562 -0.0654947 -0.635576)
(-0.181746 -0.30328 -0.526164)
(-0.16918 -0.340744 -0.295129)
(-0.146138 -0.299083 -0.0911517)
(-0.0624327 -0.582331 -0.104131)
(-0.0284248 -0.85931 -0.0925121)
(0.00193489 -1.01706 -0.0908014)
(0.0322337 -1.14163 -0.100697)
(0.0655227 -1.22573 -0.115075)
(0.0961468 -1.27893 -0.129104)
(0.122917 -1.30598 -0.141117)
(0.147033 -1.31506 -0.153187)
(0.168025 -1.3136 -0.16567)
(0.186302 -1.30513 -0.176425)
(0.201871 -1.29113 -0.184857)
(0.215704 -1.27199 -0.189937)
(0.227944 -1.24734 -0.19257)
(0.239125 -1.21586 -0.191318)
(0.248655 -1.17622 -0.186027)
(0.254375 -1.1262 -0.175119)
(0.25146 -1.06319 -0.158412)
(0.194533 -0.999768 -0.138508)
(0.139596 -0.914481 -0.122288)
(0.164103 -0.830106 -0.086589)
(0.187352 -0.729211 -0.0877983)
(0.203478 -0.560241 -0.0877015)
(0.246078 -0.442872 -0.0841065)
(0.0717037 -0.03072 -0.0949634)
(0.365778 -0.298637 0.0440136)
(0.245448 -0.551326 -0.0565915)
(0.285807 -0.0948288 -0.0265134)
(0.180439 -0.037043 -0.146616)
(0.201706 -0.112815 -0.123657)
(0.194782 -0.119621 -0.0797664)