/*--------------------------------*- C++ -*----------------------------------*\
| =========                 |                                                 |
| \\      /  F ield         | OpenFOAM: The Open Source CFD Toolbox           |
|  \\    /   O peration     | Version:  v2012                                 |
|   \\  /    A nd           | Website:  www.openfoam.com                      |
|    \\/     M anipulation  |                                                 |
\*---------------------------------------------------------------------------*/
FoamFile
{
    version     2.0;
    format      ascii;
    class       volScalarField;
    location    "735";
    object      epsilon;
}
// * * * * * * * * * * * * * * * * * * * * * * * * * * * * * * * * * * * * * //

dimensions      [0 2 -3 0 0 0 0];


internalField   nonuniform List<scalar> 
18258
(
0.023991
0.0122358
0.00910844
0.00716087
0.0126397
0.0125146
0.012975
0.0173065
0.0241103
0.0369408
0.0535101
0.0481209
0.0435167
0.0452748
0.0474549
0.0450342
0.0351073
0.0303668
0.0400371
0.0667004
0.0607461
0.0496564
0.0607036
0.0513984
0.0657945
0.0831799
0.0638461
0.0573152
0.0513946
0.048362
0.0419249
0.0243055
0.034125
0.052541
0.0720098
0.0788211
0.0845678
0.0894437
0.0945687
0.0967023
0.0969707
0.0917802
0.0826212
0.0674671
0.0494327
0.0377797
0.0289499
0.0322556
0.0450662
0.0454027
0.055989
0.0858831
0.108212
0.0811033
0.0518963
0.0826793
0.112663
0.144427
0.170946
0.193398
0.20111
0.197677
0.186135
0.16939
0.147928
0.122924
0.101921
0.0849913
0.0671961
0.0573981
0.0464471
0.0385347
0.0329679
0.029308
0.0271073
0.0253783
0.0242112
0.0251441
0.0250309
0.0178512
0.0140435
0.0131942
0.00944054
0.00784743
0.00816678
0.00776915
0.00807041
0.00712585
0.00610106
0.00529374
0.00448477
0.00652462
0.00701712
0.00725753
0.00727663
0.00780208
0.00806371
0.00780054
0.00789709
0.00723059
0.00737848
0.0118665
0.0136611
0.0173381
0.0154654
0.010686
0.00910918
0.01015
0.0107748
0.013382
0.0125788
0.0133631
0.011853
0.0108194
0.00913984
0.00888068
0.00912005
0.00969432
0.0101029
0.0117101
0.011537
0.0106959
0.0118338
0.0130602
0.0127893
0.0122421
0.011657
0.0143048
0.0115026
0.0121887
0.0136898
0.0220565
0.0215822
0.0260744
0.0255958
0.0260424
0.0262274
0.0316247
0.031746
0.0321171
0.032437
0.0341319
0.0572151
0.0509916
0.0498883
0.0496948
0.0430042
0.0425344
0.0418364
0.0426521
0.0361711
0.0348191
0.0315699
0.0312043
0.0348149
0.0439695
0.0614804
0.088773
0.122759
0.159139
0.189442
0.210457
0.232226
0.23761
0.251511
0.25623
0.257159
0.25151
0.243096
0.23364
0.220792
0.202215
0.189261
0.148748
0.1053
0.0592624
0.0786395
0.0907202
0.10049
0.102395
0.103552
0.0994534
0.0931594
0.0819263
0.0662784
0.0429899
0.0490016
0.066262
0.0684808
0.0691601
0.0548344
0.052733
0.048918
0.0488613
0.0641204
0.0736911
0.0619895
0.0858116
0.100773
0.0880803
0.0638159
0.0977712
0.14391
0.081004
0.068959
0.0535225
0.052557
0.0444592
0.0373264
0.0628631
0.0940336
0.129438
0.150686
0.172457
0.190016
0.203255
0.217284
0.188925
0.171642
0.115591
0.202495
0.15405
0.0781523
0.058021
0.0569639
0.043372
0.0497781
0.0552601
0.0512511
0.0392015
0.0273873
0.0252247
0.0464469
0.0646718
0.0781396
0.0622427
0.0791842
0.089192
0.0964754
0.101807
0.129118
0.0950289
0.106482
0.076467
0.103728
0.0737501
0.0476239
0.0529586
0.101181
0.161176
0.220783
0.257727
0.147001
0.0747242
0.0556614
0.0560331
0.0537737
0.0484889
0.0601428
0.106719
0.0721395
0.046859
0.0407198
0.0481614
0.0408889
0.0304587
0.0318715
0.0396171
0.0551718
0.0698239
0.0826198
0.126007
0.122104
0.147299
0.154842
0.130431
0.126017
0.0814929
0.0837369
0.123428
0.0920171
0.0744093
0.10438
0.147567
0.201997
0.24852
0.289082
0.314992
0.304216
0.275134
0.174034
0.0762174
0.0229456
0.0178228
0.0168595
0.0173345
0.010534
0.00631058
0.00586616
0.0066859
0.00702799
0.00591817
0.00544547
0.00543554
0.00578626
0.0101861
0.00875292
0.0108325
0.0131261
0.0156775
0.0187252
0.019455
0.0129092
0.00873816
0.00820019
0.00813577
0.00806671
0.00803712
0.00804859
0.00808883
0.00810461
0.00807217
0.00799339
0.0078562
0.00772065
0.00766345
0.00830045
0.011194
0.0153597
0.0148503
0.0135595
0.0122029
0.0110402
0.00870935
0.0151567
0.0128496
0.010941
0.0134033
0.0165125
0.0208701
0.0245232
0.0176899
0.0141628
0.0128183
0.0126931
0.0125798
0.0126268
0.0125064
0.0125745
0.0123799
0.0129841
0.0135866
0.0169815
0.0190056
0.0211801
0.0226745
0.0232514
0.0239658
0.0211371
0.0229557
0.0227282
0.0235094
0.0233241
0.0226372
0.0207236
0.0189372
0.0177192
0.0191368
0.0237082
0.0323713
0.0267623
0.0207713
0.0168077
0.0137475
0.0150146
0.0166909
0.0168664
0.0158788
0.0156468
0.0154382
0.0139188
0.0131353
0.0111207
0.0105086
0.0100411
0.0101886
0.0143651
0.0135188
0.0137277
0.0144645
0.0155688
0.0147261
0.015159
0.0143078
0.0145555
0.0149767
0.0170389
0.0186007
0.0178403
0.0165186
0.0160217
0.0137517
0.0158613
0.0157223
0.0170431
0.0186302
0.0191231
0.019058
0.0184199
0.0168236
0.018717
0.0220891
0.0257445
0.0247423
0.0244166
0.0204676
0.0192632
0.0202332
0.0215031
0.0224085
0.022483
0.0223188
0.022413
0.0264357
0.0261007
0.0248905
0.0228104
0.0203524
0.0177074
0.0152348
0.016709
0.0181914
0.0195837
0.0208534
0.0206081
0.0190826
0.0177237
0.0164925
0.0149991
0.0147067
0.0161599
0.0173815
0.0188114
0.0205222
0.0205935
0.0188841
0.0173911
0.0161102
0.0146369
0.014586
0.0160857
0.0173823
0.0187972
0.0202782
0.0196465
0.018494
0.0172453
0.0160044
0.0145526
0.014619
0.0159403
0.0170078
0.0180898
0.0190385
0.0198949
0.0179329
0.0170235
0.0171179
0.0161308
0.019318
0.0185598
0.0195023
0.0180484
0.016822
0.0178275
0.021022
0.0240594
0.0246119
0.0243322
0.0201954
0.0206515
0.0206283
0.019208
0.0159806
0.0153836
0.0181616
0.0209065
0.0213706
0.0200573
0.0169457
0.0133013
0.0143252
0.0174953
0.0198122
0.0185513
0.0183895
0.0169721
0.0158927
0.0161928
0.0139112
0.0166496
0.0267441
0.0242054
0.0221888
0.0197203
0.015705
0.0106297
0.0115304
0.0126915
0.013108
0.0105932
0.00792983
0.00711999
0.00692625
0.00676811
0.00655004
0.00618269
0.00562641
0.00538253
0.0105764
0.025589
0.0363947
0.035793
0.0241026
0.0207233
0.0199951
0.0184682
0.00885805
0.00817097
0.00838295
0.0103749
0.00821079
0.00830358
0.0143974
0.00998805
0.0137327
0.010694
0.0146416
0.0229269
0.0216664
0.0143248
0.0080104
0.00690356
0.0073943
0.00767686
0.0078805
0.00807732
0.00831151
0.00869905
0.0100245
0.0157649
0.0203504
0.0178039
0.0168146
0.015337
0.0188846
0.0213674
0.0233047
0.0260671
0.0161118
0.0118001
0.0166521
0.0272962
0.0247842
0.0233288
0.0171841
0.0177244
0.0171487
0.0110256
0.0106786
0.0105948
0.0114083
0.0127996
0.0147245
0.0158786
0.0166264
0.0169566
0.0178698
0.0231365
0.0216477
0.0211314
0.0173445
0.0134317
0.0154288
0.0516865
0.0195894
0.0207028
0.0189156
0.0191826
0.0204687
0.0151583
0.0135073
0.012937
0.0146372
0.0215298
0.0215441
0.021409
0.0182725
0.0174876
0.0209206
0.0220095
0.0224055
0.0217858
0.0213473
0.0194832
0.016699
0.0181308
0.0196493
0.0208451
0.0228532
0.0231922
0.0179738
0.0172497
0.0158538
0.0105547
0.0112983
0.00973402
0.00970408
0.00967061
0.00939746
0.00894701
0.00923501
0.00935188
0.00934959
0.00900291
0.00930035
0.00834982
0.0086859
0.00977817
0.0152283
0.0147938
0.0175928
0.0195043
0.016748
0.0155882
0.0142249
0.0132012
0.0154565
0.0142938
0.0168718
0.0212279
0.0265236
0.0191484
0.0181517
0.0179276
0.0175216
0.0173631
0.0174154
0.0167204
0.0157163
0.0151475
0.0236059
0.021303
0.0181771
0.0172272
0.0157931
0.0180477
0.0174902
0.0213929
0.0268823
0.0270867
0.0215603
0.0216379
0.0189783
0.0200846
0.0222769
0.0271221
0.0270463
0.0144516
0.00960816
0.0154547
0.0157958
0.0184076
0.0170222
0.0185515
0.0197325
0.0204617
0.0203198
0.0177164
0.0188945
0.019684
0.0206713
0.0186146
0.0166081
0.0173988
0.0161749
0.0152733
0.014771
0.0126941
0.0129421
0.0139166
0.0153702
0.0163129
0.0178101
0.0194699
0.0194975
0.0201683
0.0197632
0.0191604
0.025268
0.0240247
0.0255668
0.0282846
0.0224814
0.017838
0.0147085
0.0150229
0.0147887
0.0146965
0.0154366
0.0167973
0.0151733
0.0145538
0.0170731
0.0194403
0.0247186
0.0331118
0.0288473
0.026259
0.0332667
0.0314188
0.0382935
0.0287139
0.0281796
0.0208856
0.0263214
0.0305362
0.0392631
0.0255532
0.0209879
0.0224415
0.0255603
0.0348202
0.0328386
0.0332168
0.0412517
0.0400145
0.0362358
0.0312064
0.0354155
0.0212839
0.0302303
0.0322638
0.0268407
0.0257427
0.0307949
0.0311199
0.0330533
0.0283969
0.0268072
0.0179431
0.0274956
0.0314417
0.0331382
0.0278668
0.020547
0.0280575
0.0205835
0.0192176
0.0203302
0.0137962
0.0127414
0.0148179
0.0138874
0.0112107
0.0121613
0.011181
0.0111691
0.0112521
0.0113695
0.0115051
0.0117659
0.0117383
0.012775
0.0133643
0.0126615
0.0115894
0.0122359
0.0125736
0.0160957
0.0181849
0.0204486
0.0220371
0.0228774
0.0240302
0.0227712
0.02485
0.0237435
0.025255
0.0249764
0.0239093
0.0213772
0.0187263
0.0163107
0.0167726
0.020406
0.0267896
0.021936
0.0169824
0.0137302
0.0113722
0.0126637
0.0158457
0.00859905
0.00783999
0.00753491
0.00734264
0.00716062
0.00629366
0.00568107
0.00885577
0.0131712
0.016423
0.0204449
0.0260412
0.0321285
0.0374298
0.0414435
0.0443099
0.0460838
0.0465287
0.0436521
0.0333629
0.0287474
0.0247582
0.0205383
0.0167694
0.0169205
0.0246122
0.032213
0.0396875
0.0462627
0.0511702
0.0492656
0.033107
0.0302349
0.0467097
0.0783312
0.074245
0.0973079
0.111012
0.0631064
0.046661
0.0454815
0.0620445
0.0646455
0.0566377
0.0467045
0.0365097
0.0263859
0.030802
0.0351278
0.0392415
0.0435801
0.0573385
0.0603674
0.0591684
0.056591
0.0531927
0.0484651
0.0414596
0.0329654
0.0250316
0.0191428
0.0145574
0.00962327
0.00710491
0.00818683
0.00751273
0.0109509
0.00950026
0.00832397
0.00783468
0.00807763
0.00794182
0.00812137
0.00717359
0.00646729
0.0103488
0.00950992
0.00945656
0.010072
0.0133733
0.0102999
0.00762831
0.00719327
0.00711152
0.00733793
0.0163273
0.0251152
0.0304757
0.0350778
0.0384222
0.0369573
0.0335086
0.027867
0.022076
0.0199323
0.0170236
0.0145249
0.0133321
0.0146274
0.0121114
0.00618086
0.00515478
0.00567075
0.0055697
0.00510323
0.00612428
0.00680889
0.00741849
0.00783969
0.00814952
0.00820979
0.00814836
0.00805864
0.00801511
0.00799588
0.00796854
0.007905
0.007811
0.00767041
0.00753559
0.00747317
0.00806729
0.0106772
0.01459
0.0143555
0.013245
0.0121378
0.0112784
0.00955632
0.0153841
0.0130648
0.0109541
0.0101327
0.00999158
0.0102925
0.011265
0.0129147
0.013842
0.015852
0.0158902
0.0157815
0.0160612
0.0158446
0.0131537
0.0149162
0.017697
0.018534
0.0191614
0.0189403
0.0174087
0.0194245
0.0205546
0.0199814
0.0193585
0.016429
0.0191192
0.0231865
0.0236433
0.0239479
0.0213012
0.0184774
0.0216323
0.0227799
0.0223394
0.0231989
0.0213045
0.0220184
0.0278197
0.0141365
0.0127113
0.00764107
0.00866874
0.00882135
0.00843798
0.00814744
0.00847853
0.0087315
0.00856456
0.00923962
0.00955222
0.0089017
0.0114078
0.0104745
0.0100465
0.00941352
0.0100247
0.0107706
0.0111291
0.012162
0.0195135
0.0199437
0.0181973
0.020606
0.0212023
0.0180009
0.0204118
0.021279
0.0215074
0.0218445
0.023411
0.0220773
0.024419
0.0235752
0.0223032
0.021529
0.0382248
0.0252399
0.0166279
0.0153199
0.0149533
0.0150187
0.0169187
0.0127612
0.0142927
0.0100956
0.00873912
0.00836191
0.00805424
0.00820638
0.0109407
0.0172418
0.0252164
0.0279633
0.0267981
0.0234787
0.0180573
0.0136135
0.0132791
0.0120429
0.0112373
0.0111077
0.00752996
0.00515689
0.00641146
0.00656647
0.00714232
0.00754932
0.00788132
0.00813225
0.00827066
0.00834149
0.00842213
0.00854122
0.00867116
0.00878375
0.00887275
0.00893772
0.00900611
0.00913206
0.00944435
0.0106533
0.0153004
0.0196833
0.0185635
0.0171014
0.0157972
0.0165602
0.0173118
0.0180289
0.0222054
0.0191072
0.0219945
0.020686
0.0197021
0.0182885
0.0190288
0.0208119
0.0166157
0.0165572
0.0113132
0.00987
0.00948465
0.00926244
0.00908777
0.0089151
0.00874516
0.0085937
0.00845159
0.00832883
0.00823326
0.00814812
0.0080051
0.0077544
0.00735366
0.00690401
0.00612824
0.00678593
0.007281
0.00829875
0.00952423
0.0101185
0.00952901
0.00872019
0.00835725
0.008483
0.00867112
0.0088794
0.00911638
0.00944137
0.00992125
0.010907
0.0115839
0.0162485
0.0169915
0.0202163
0.0200175
0.0179309
0.0172871
0.018892
0.0174131
0.0126628
0.0173706
0.0168951
0.0211495
0.0157115
0.0148244
0.0152437
0.015725
0.0183582
0.0172665
0.0157834
0.0157489
0.0126482
0.0142298
0.0162361
0.0177163
0.0279312
0.0273827
0.0344361
0.0343626
0.0592407
0.0563827
0.0497156
0.053756
0.0237487
0.0463771
0.0542303
0.0494433
0.0429131
0.0273479
0.0436911
0.0664858
0.0962208
0.0694011
0.0567539
0.105403
0.0766277
0.0373525
0.0265866
0.0150113
0.0150944
0.0250452
0.0290818
0.024105
0.0232621
0.0334161
0.0347792
0.028015
0.02868
0.0310563
0.0299894
0.0324498
0.0280898
0.0273864
0.0155327
0.0127513
0.0137887
0.0155307
0.0165516
0.01605
0.0168877
0.0175515
0.0161008
0.0150662
0.0145008
0.0124331
0.0131698
0.0161518
0.0203653
0.0238723
0.0172438
0.0138591
0.012565
0.0123715
0.0121441
0.0120225
0.0116981
0.0115071
0.0110333
0.0112352
0.00977661
0.00979439
0.0103378
0.0105079
0.0107178
0.0108809
0.0110081
0.0111218
0.0119793
0.0187369
0.0259138
0.0207339
0.0164297
0.0139497
0.0151391
0.0170632
0.0209644
0.0263826
0.0178208
0.0176425
0.0115074
0.0107357
0.0105245
0.0103473
0.0101906
0.0100876
0.0101441
0.0101448
0.0118831
0.0115866
0.0136059
0.0146722
0.012118
0.0116837
0.011209
0.0109199
0.01076
0.0106735
0.0107613
0.0116217
0.0114553
0.0105269
0.0104343
0.0105565
0.0107724
0.0110982
0.0115483
0.0120556
0.0129772
0.0127586
0.011221
0.0111937
0.0105358
0.0102315
0.0100033
0.00998661
0.0100404
0.0101856
0.0104107
0.0113147
0.0171036
0.017288
0.0266012
0.0265798
0.0211271
0.0176532
0.0154985
0.0142458
0.0135153
0.0350611
0.0307944
0.0486854
0.0388952
0.0311601
0.0505287
0.0718286
0.0558125
0.0907858
0.0981066
0.0723495
0.0654536
0.0208743
0.0159106
0.0154105
0.0168999
0.0185937
0.0212309
0.0218195
0.026634
0.0287303
0.0171612
0.0164818
0.015562
0.0248397
0.0230122
0.0196434
0.0177583
0.0163716
0.0189109
0.0207062
0.0149537
0.0150038
0.00966517
0.0106701
0.0104143
0.0100739
0.00995308
0.0098742
0.0099065
0.00999768
0.0102787
0.0107709
0.0111538
0.011313
0.0116295
0.0114127
0.0111426
0.0108248
0.0106363
0.0104466
0.0102906
0.0101696
0.0102022
0.0105177
0.0106619
0.00935546
0.00970185
0.00981105
0.00982292
0.00985443
0.00981825
0.00967897
0.00946921
0.00926546
0.0090541
0.00909134
0.00989359
0.0100454
0.0101063
0.00995442
0.00983837
0.00983345
0.00977192
0.00976128
0.00975671
0.00963609
0.00932345
0.00859905
0.00844707
0.00905027
0.00939413
0.00957066
0.00964925
0.00963084
0.00957341
0.0093379
0.0091617
0.0089488
0.00860299
0.00813656
0.00673382
0.00701964
0.00737981
0.00788449
0.00840468
0.00886059
0.00916713
0.00932887
0.00942102
0.00933921
0.0090475
0.00851952
0.00846516
0.0088557
0.00903435
0.00899061
0.00872377
0.00830659
0.00773738
0.00703188
0.00635122
0.00583945
0.0056144
0.0052317
0.00652116
0.00712068
0.0076732
0.00818395
0.00866909
0.00919252
0.0093945
0.00945128
0.0094339
0.00927981
0.0089503
0.00842349
0.00842551
0.00890073
0.00921018
0.00933444
0.00931274
0.00913273
0.00872884
0.00781247
0.00700297
0.00634944
0.00576167
0.00517103
0.00515593
0.00541211
0.00515042
0.00532667
0.00589284
0.00668976
0.00746819
0.00808377
0.00851702
0.00870549
0.00865773
0.00840768
0.00830899
0.00842946
0.00836804
0.00805799
0.00748623
0.00673914
0.00594476
0.00532789
0.00517072
0.0055165
0.00585347
0.00554047
0.004356
0.0048989
0.00545844
0.0060485
0.00696492
0.00815224
0.00873647
0.00905193
0.00920921
0.00914215
0.00885312
0.00841419
0.00839086
0.0088139
0.00909677
0.00914828
0.00901162
0.00874114
0.00826325
0.00682504
0.00535267
0.00472465
0.00437179
0.0039397
0.00561711
0.00598521
0.0055565
0.00527694
0.00571027
0.00624115
0.00685619
0.0073649
0.00779212
0.00810039
0.0082074
0.00817978
0.00804689
0.00804645
0.00798801
0.00778293
0.00754211
0.00734118
0.00691561
0.00646918
0.00593141
0.00648993
0.00679005
0.00635844
0.00464961
0.0049358
0.00540079
0.0056868
0.00715409
0.00858705
0.0089669
0.00908844
0.00921215
0.00913192
0.00880916
0.00836612
0.00834733
0.00887277
0.00928171
0.00943555
0.00955812
0.00970394
0.00983065
0.00867771
0.00675965
0.00628801
0.00525652
0.00480419
0.00667865
0.00710536
0.0068874
0.00661763
0.00757188
0.00796645
0.00810532
0.00811301
0.00811794
0.00808653
0.00799653
0.00793056
0.00781624
0.00825399
0.00889088
0.00879897
0.0087088
0.00855542
0.00819737
0.00774422
0.00721859
0.00790842
0.00849277
0.00820362
0.00594766
0.0063224
0.007264
0.00745869
0.00901082
0.0101895
0.0105023
0.0104547
0.0103049
0.0102554
0.00923668
0.0083092
0.00815807
0.00951083
0.0154327
0.015262
0.0152725
0.0151885
0.0146263
0.014458
0.0139025
0.0136527
0.0129737
0.01254
0.0118791
0.0138938
0.0175928
0.019658
0.0220322
0.0245215
0.0232735
0.0188397
0.0166513
0.0102439
0.00807137
0.00695188
0.00600996
0.00530167
0.0050904
0.00750054
0.00933179
0.0114636
0.0133926
0.013725
0.0161395
0.0200681
0.0305649
0.0486052
0.0410484
0.0387621
0.039253
0.0978443
2.54872
2.75089
2.4989
2.8994
3.33188
0.392615
0.152146
0.28186
0.29811
0.331397
0.310086
0.282669
0.258811
0.270578
0.259619
0.272194
0.253659
0.263666
0.230216
0.234906
0.233835
0.637261
1.00537
1.22059
1.70979
1.7226
1.94376
1.90197
1.92454
1.78028
1.89653
1.64884
1.36739
1.29107
1.21826
1.30738
1.42017
1.23319
1.11766
1.00415
0.913406
0.781006
0.990683
0.751776
0.710335
0.708643
0.739921
0.984959
0.895906
1.03229
0.957621
1.01059
0.607646
0.680818
0.497754
0.41462
0.345069
0.413364
0.552633
0.730872
0.907148
0.698813
0.954334
0.885651
0.878684
0.838209
0.764929
0.726892
0.7153
0.736691
0.749541
0.764967
0.79247
0.813462
0.831757
0.982004
1.04547
1.03512
0.847979
0.759362
0.525879
0.563065
0.597471
0.601348
0.561128
0.542074
0.489157
0.47654
0.430929
0.412613
0.373864
0.3554
0.323457
0.448338
0.768181
0.79814
0.867219
0.921202
0.970262
0.992397
1.00829
0.991118
0.957606
0.889716
0.861005
0.799267
0.905095
1.08874
1.08905
1.00199
0.850371
0.805549
3.73489
4.53923
3.00969
6.4728
9.80087
16.4148
7.55918
2.06796
3.44818
2.3689
2.10274
2.04908
2.16176
3.40415
2.49019
3.26319
2.68695
2.84338
2.17476
2.47017
2.33645
1.79318
1.50764
1.27637
1.1636
0.942536
0.932477
0.763536
0.715245
0.665961
0.556489
0.684819
0.675888
1.57991
2.23778
2.79951
4.4026
4.83809
5.29098
8.36719
6.80285
8.5445
5.09793
5.14176
3.80254
3.57725
3.61481
4.96847
7.07625
4.88098
8.50377
4.74834
15.4706
34.5526
9.19842
18.9626
10.9395
9.89405
9.53664
9.8246
13.9477
9.50596
15.4717
12.9376
17.1875
16.5703
17.7336
13.7549
10.162
11.1496
11.9565
15.3624
10.9515
12.6612
9.62472
9.41177
8.83519
7.31348
6.57674
5.03641
5.88481
6.92695
7.86906
12.4304
15.6353
18.0021
21.7073
16.072
18.3541
11.0623
12.1222
9.37211
8.78987
8.91682
11.7292
20.8282
14.7657
26.9053
0.495994
0.225733
0.54333
0.229152
0.48678
0.390093
0.402619
0.403538
0.399075
0.460147
0.219685
0.184823
0.177139
0.175014
0.176537
0.100116
0.124297
0.0803503
0.126862
0.228976
0.502655
0.364972
0.140416
0.0825766
0.054563
0.0429121
0.0633988
0.0611879
0.0978462
0.0991868
0.105458
0.131836
0.22715
0.431171
31.5566
7.06801
1.11357
0.520954
0.280362
0.171761
0.146273
0.165122
0.177366
0.17978
0.168451
0.142631
0.101922
0.0671446
0.0448048
0.0375882
0.0274821
0.0290425
0.039983
0.0535726
0.0495628
0.0652059
0.0835903
0.106383
0.13071
0.150137
0.164766
0.168677
0.156596
0.122555
0.0806647
0.0444433
0.026544
0.0228798
0.020942
0.0194432
0.0167894
0.014561
0.0131407
0.011233
0.00990516
0.00894062
0.00863504
0.00876124
0.00956728
0.0121033
0.0145676
0.0188643
0.0179872
0.0134685
0.0126222
0.00782033
0.00723089
0.00737999
0.00763252
0.00845501
0.0132268
0.0135373
0.0134166
0.0134513
0.013271
0.0132643
0.0130965
0.0129364
0.012718
0.0123013
0.0120103
0.0114877
0.0112024
0.0105269
0.0105545
0.0109385
0.0112455
0.0101755
0.0100692
0.00936364
0.0206936
0.0492131
0.0703066
0.078743
0.0885226
0.08121
0.0420512
0.0231399
0.00794781
0.00774458
0.00824001
0.00890939
0.00845368
0.0061552
0.00669729
0.00797754
0.0111741
0.0111077
0.011139
0.0129889
0.01353
0.0148733
0.0154168
0.0157774
0.0160007
0.0158984
0.0160201
0.0157093
0.0157952
0.0155785
0.0156636
0.0152606
0.0271026
0.0255243
0.0262559
0.026318
0.0275643
0.0270887
0.0266533
0.0256842
0.0249988
0.0234799
0.0219176
0.0203323
0.0182116
0.0189545
0.0183166
0.0114109
0.0108318
0.00779745
0.0077033
0.00740264
0.0103394
0.00939455
0.00789852
0.00929773
0.00675779
0.00693302
0.00735005
0.0104931
0.0110238
0.017584
0.017543
0.0155566
0.0165257
0.0175745
0.018909
0.0200463
0.0214567
0.0224457
0.0235184
0.0253446
0.0257104
0.0239012
0.0235263
0.0224259
0.0243486
0.0233178
0.0215831
0.0231269
0.0248133
0.0274117
0.0271487
0.0250525
0.0237532
0.0223544
0.0200474
0.0174196
0.01605
0.0150406
0.0150869
0.0140553
0.0164224
0.0148667
0.010277
0.0105777
0.0079442
0.00630161
0.0060636
0.009293
0.0132407
0.0282457
0.0176156
0.00936932
0.0101264
0.0162948
0.0336767
0.0197374
0.0317182
0.0143585
0.0146306
0.0128123
0.0127236
0.0140229
0.0163228
0.0173857
0.0210435
0.0237265
0.0257144
0.0266242
0.0279382
0.0283228
0.0297212
0.0301607
0.0327934
0.0330337
0.0330123
0.0325342
0.0300649
0.0270219
0.0247781
0.0306866
0.0355968
0.0389969
0.0414363
0.0439659
0.0427296
0.0391172
0.0382545
0.0363527
0.0352449
0.0338524
0.0307443
0.0269107
0.0220885
0.0215099
0.0275454
0.0332996
0.049712
0.0536252
0.0533561
0.0556507
0.0561458
0.0578861
0.0583195
0.0609448
0.0615107
0.0626557
0.0629875
0.0680928
0.0689607
0.0698988
0.070221
0.069908
0.07081
0.0707814
0.0480939
0.0430644
0.0388718
0.0322257
0.0269339
0.0341774
0.042659
0.0480466
0.0734224
0.073873
0.0774855
0.0800821
0.0848723
0.0884876
0.0931931
0.0975665
0.101795
0.105093
0.107028
0.107297
0.107703
0.106761
0.105465
0.114163
0.148284
0.164677
0.194997
0.209942
0.222451
0.226538
0.217957
0.221711
0.213707
0.21627
0.210049
0.208094
0.20282
0.196504
0.192913
0.186571
0.182486
0.210338
0.158518
0.121358
0.0806248
0.0647317
0.0572583
0.0529465
0.0564657
0.0435011
0.0369039
0.05602
0.0512316
0.040587
0.026781
0.0188497
0.0323728
0.0478981
0.0647174
0.0819256
0.0976374
0.107924
0.110523
0.109466
0.1047
0.096854
0.081683
0.0615013
0.0422213
0.0347531
0.0320375
0.0280804
0.0221484
0.0178036
0.0156918
0.0141098
0.0123485
0.0111046
0.0105538
0.0107211
0.0110338
0.0132331
0.0173195
0.0173101
0.0116065
0.0111459
0.00766963
0.00775853
0.00801776
0.0133269
0.0134763
0.0208942
0.0233478
0.0219925
0.0226904
0.0224297
0.0227328
0.0223905
0.0212036
0.0203747
0.0194081
0.0185684
0.0178216
0.0169925
0.0161732
0.0175014
0.0164489
0.0138512
0.0139755
0.0145941
0.0152453
0.0161303
0.0173945
0.0184662
0.0211633
0.0213159
0.0208114
0.0209007
0.0194199
0.0186984
0.0199465
0.0194651
0.0132653
0.013084
0.0190982
0.0187492
0.018645
0.0224743
0.0209029
0.021421
0.0225562
0.0224723
0.019534
0.0181779
0.0166189
0.0154381
0.014056
0.0125398
0.0121595
0.0149188
0.0131181
0.0107719
0.0119732
0.0143798
0.0169913
0.0184568
0.020445
0.0231621
0.0241334
0.0263863
0.0278132
0.0299121
0.0307473
0.0355615
0.0362009
0.034017
0.0321736
0.0311805
0.0274019
0.0234882
0.0259029
0.0267758
0.0271536
0.0272935
0.0271792
0.0235971
0.0231668
0.0216505
0.0211317
0.0195494
0.0189896
0.0178261
0.0170631
0.0160378
0.014209
0.0134969
0.0126814
0.0123223
0.0173786
0.010873
0.0106146
0.0160359
0.00987773
0.0116288
0.0113655
0.0118877
0.0125531
0.0103814
0.0151763
0.0103668
0.0112584
0.0114847
0.0144111
0.0100078
0.0210352
0.0647839
0.0934186
0.112365
0.203855
0.243874
0.264026
0.28466
0.298732
0.314692
0.332154
0.349766
0.362709
0.364065
0.338254
0.319657
0.254594
0.227914
0.251601
0.281634
0.194084
0.166509
0.168722
0.169477
0.171969
0.173139
0.176659
0.17457
0.179484
0.17513
0.182239
0.176209
0.182489
0.175265
0.160125
0.143651
0.111474
0.100871
0.0650787
0.050421
0.0394483
0.028671
0.0209143
0.018779
0.017778
0.0164347
0.0165175
0.0126556
0.0131031
0.00839971
0.00618107
0.00986322
0.00969309
0.00723364
0.00982253
0.0112185
0.0117275
0.0122609
0.012554
0.0191942
0.019223
0.0246069
0.0245372
0.0291127
0.034732
0.0359746
0.0396143
0.0570127
0.0575474
0.0572903
0.0571449
0.0567341
0.0494931
0.0492118
0.0481081
0.0475254
0.044574
0.0440193
0.0419287
0.0407866
0.0378227
0.036997
0.0358697
0.0363381
0.0408551
0.0564013
0.0999562
0.0296967
0.0283538
0.0208016
0.0145693
0.0214558
0.015945
0.0154876
0.013648
0.0187446
0.013486
0.0137339
0.0165559
0.0170812
0.0164775
0.0215043
0.0268159
0.0235389
0.0260697
0.117662
0.0759618
0.0245842
0.0486596
0.0723971
0.158644
0.204341
0.140162
0.159988
0.184055
0.167154
0.140394
0.109836
0.0818336
0.0581701
0.0449336
0.0113826
0.0134157
0.0186016
0.0411274
0.0610569
0.101535
0.083508
0.109115
0.149048
0.173522
0.209506
0.201065
0.172988
0.1489
0.145554
0.16072
0.163091
0.105828
0.102848
0.0780669
0.174351
0.219409
0.184759
0.23186
0.244633
0.144714
0.0320886
0.0184322
0.0151622
0.0139576
0.0124716
0.0193948
0.0114997
0.011677
0.0123964
0.0133046
0.0170042
0.029347
0.0134921
0.0149538
0.0183621
0.0158952
0.0148861
0.014661
0.0145586
0.0151669
0.0165145
0.0215594
0.0216822
0.0213701
0.0160229
0.0173231
0.0157366
0.0200661
0.0212755
0.0333754
0.0153025
0.0162497
0.0215776
0.480939
0.0247226
0.017867
0.0232867
0.0219552
0.0302256
0.0436804
0.459608
0.0443748
0.0351775
0.0586232
0.0608719
0.0655557
0.0692371
0.0727789
0.0752938
0.0792708
0.0818954
0.0831571
0.0844441
0.100083
0.0999902
0.0989112
0.103504
0.0975761
0.0576464
0.0578417
0.0973374
0.105033
0.0593885
0.0409901
0.0384784
0.0311635
0.0322747
0.0418134
0.0438984
0.0616134
0.0614295
0.102406
0.0934008
0.0947844
0.0965673
0.0916086
0.0921103
0.0941345
0.0942632
0.0755287
0.0731607
0.0713779
0.0683534
0.0647903
0.0618875
0.0589684
0.0559131
0.0533631
0.053606
0.0586182
0.0584708
0.0664184
0.0740587
0.225847
0.153816
0.109515
0.0808293
0.0654614
0.0590796
0.0585568
0.06171
0.0649561
0.0665866
0.0674005
0.0708232
0.0925696
0.094756
0.0975961
0.095085
0.098864
0.096877
0.0944347
0.104319
0.112122
0.0655659
0.0676452
0.0477124
0.0444779
0.0324425
0.0329877
0.0235564
0.0195477
0.0195438
0.019526
0.0197428
0.0226056
0.0315596
0.0316698
0.0462423
0.0461778
0.0516415
0.0752489
0.0723204
0.128908
0.118169
0.108495
0.101216
0.101566
0.10372
0.106313
0.101326
0.09789
0.0923721
0.0725493
0.0684863
0.066353
0.0651256
0.0638608
0.0674527
0.0912744
0.148427
0.227591
0.334152
0.435035
0.445154
0.4026
0.25295
0.292022
0.145725
0.165773
0.188014
0.16459
0.173202
0.321041
0.266872
0.378272
0.483113
0.536986
0.603451
0.640815
0.63035
0.501666
0.326416
0.333602
0.444131
0.770784
0.864393
0.744062
0.761481
0.658205
0.540148
0.521603
0.49682
0.560395
0.61088
0.576526
0.592967
0.537256
0.513221
0.443412
0.494591
0.361296
0.325413
0.30588
0.297051
0.355914
0.288037
0.324478
0.266794
0.273136
0.222027
0.227509
0.189939
0.14543
0.137901
0.127863
0.143186
0.162399
0.148837
0.153524
0.134086
0.114735
0.0913249
0.0984924
0.0736029
0.0696381
0.0707517
0.08074
0.12691
0.372333
0.17412
0.164014
0.16807
0.177981
0.319969
0.283027
0.722033
0.506004
0.706499
0.4729
0.560903
0.469271
0.362093
0.377712
0.417419
0.597466
0.820188
6.64735
0.284562
4.2599
3.16281
3.32202
3.46817
4.44475
7.79976
7.10855
9.3785
6.8022
9.07832
4.97861
4.97551
4.32602
4.47158
4.43946
4.2629
5.20779
6.65451
0.23897
0.0910142
0.0854272
0.0856088
0.0873864
0.197799
0.0525657
0.201935
0.0539431
0.213333
0.049492
0.24647
0.19677
0.0382286
0.0192577
0.0200897
0.0168071
0.0203755
0.0169232
0.0250487
0.023543
0.0237008
0.0265955
0.0763762
0.292499
13.8485
1.67231
0.698013
0.798944
1.19649
0.814002
1.21503
1.68674
1.13506
0.566893
0.372177
0.439262
0.531394
0.507034
0.645892
0.929017
0.9085
0.714153
0.717968
0.634042
0.893825
0.902259
1.06867
1.24762
1.1411
0.895017
0.705461
0.598077
1.0282
1.0322
0.964855
0.410528
0.116291
0.047278
0.0496528
0.0360165
0.0379113
0.0349297
0.055779
0.162991
0.224248
0.135177
0.433508
0.41741
0.566284
0.40405
0.413806
0.326922
0.350793
0.53521
0.584409
0.643759
0.674946
0.725902
0.671353
1.29039
2.21261
2.50242
12.8704
17.4314
3.20667
3.09852
13.9487
0.315029
0.0839324
0.0233239
0.0174328
0.0162175
0.0161301
0.0150008
0.0155382
0.0159992
0.016963
0.018827
0.0231917
0.0458181
0.201357
0.203317
0.0643116
0.032416
0.0229658
0.0196143
0.0170455
0.0163864
0.0155313
0.0154589
0.0150081
0.015658
0.0174651
0.0237825
0.0774249
0.270926
11.3204
2.43497
2.25405
8.37973
5.79249
0.206685
0.0437846
0.0200929
0.0169263
0.0158835
0.0167532
0.0162652
0.0182103
0.0184011
0.0230138
0.0250175
0.0317547
0.0570424
0.110115
0.315207
9.56589
8.63773
8.3583
7.79999
0.309841
0.115108
0.0543656
0.0382213
0.0346184
0.0338141
0.0226474
0.0236716
0.0189812
0.0216386
0.0182941
0.0226797
0.0482977
0.211844
5.35014
1.56952
1.70052
1.20878
0.612476
0.655272
0.669294
0.689047
1.77793
4.07052
5.00176
3.4345
3.36557
4.7159
3.17527
2.48544
1.83244
1.74952
2.54847
1.96456
1.82623
1.35755
1.46759
1.06798
1.46721
0.811305
0.976764
1.07269
1.5313
1.39748
1.41024
0.908319
1.05016
1.47515
1.72409
1.64838
0.843832
1.22651
1.01357
0.654801
0.607008
0.633644
0.60383
0.57887
0.575558
0.579587
0.558435
0.575436
0.55556
0.587339
0.546816
0.532267
0.506967
0.526728
0.544528
0.577182
0.360043
0.422618
0.426804
0.441246
0.453982
0.374969
0.451009
0.442052
0.659219
0.995224
0.837134
1.15866
0.681284
1.00433
2.0089
5.20794
2.35768
0.822589
1.34828
1.58216
1.139
0.628214
2.55251
3.55764
1.2299
1.78305
10.3726
8.42417
16.506
10.9738
18.6459
6.0417
4.63629
17.8194
6.68174
6.91828
4.51966
4.52476
2.96209
1.5872
1.63134
1.74495
1.22858
1.30224
1.21222
1.13445
1.47639
1.44219
1.88972
2.03847
2.58195
1.81391
1.77937
2.605
1.06445
1.40335
1.84097
1.8334
1.36279
2.34767
3.16352
2.97975
2.14831
2.34086
3.50958
4.82551
4.59082
3.17943
3.98239
10.1439
13.5399
13.703
4.22943
19.3109
18.3037
2.08801
0.571868
0.327581
0.090541
0.0447708
0.0367372
0.0387953
0.144448
0.0458652
0.0571949
0.0457366
0.0737252
0.0702012
0.0877391
0.219758
0.127337
0.217826
0.156551
0.191778
0.122405
0.195826
0.229633
0.239778
0.190773
0.117171
0.21569
0.310565
0.107351
0.35877
0.394679
0.263341
0.336483
0.401136
0.198789
1.00095
0.186899
0.128735
0.148838
0.398305
1.26956
0.22144
0.465558
4.49061
14.7176
3.69376
0.944634
0.686957
0.055871
0.0303125
0.0321034
0.0280691
0.0194911
0.0848591
0.0998996
0.408219
0.209994
0.278293
0.661923
2.92675
2.40045
1.13584
5.50477
10.2722
15.1491
9.13854
2.24711
9.77125
19.6094
13.9004
6.9693