/*--------------------------------*- C++ -*----------------------------------*\
| =========                 |                                                 |
| \\      /  F ield         | OpenFOAM: The Open Source CFD Toolbox           |
|  \\    /   O peration     | Version:  v2012                                 |
|   \\  /    A nd           | Website:  www.openfoam.com                      |
|    \\/     M anipulation  |                                                 |
\*---------------------------------------------------------------------------*/
FoamFile
{
    version     2.0;
    format      ascii;
    class       volScalarField;
    location    "700";
    object      alphat;
}
// * * * * * * * * * * * * * * * * * * * * * * * * * * * * * * * * * * * * * //

dimensions      [1 -1 -1 0 0 0 0];


internalField   nonuniform List<scalar> 
18258
(
0.00485768
0.00211214
0.00173114
0.00150008
0.000992699
0.00162488
0.0022565
0.00268626
0.00281824
0.00279386
0.00289236
0.00488002
0.00684782
0.0084622
0.00888835
0.00887317
0.00805269
0.00768913
0.00834568
0.0102692
0.00864395
0.00553599
0.0066355
0.00766475
0.00833223
0.00737724
0.00596237
0.00552423
0.00500274
0.00416978
0.00349385
0.0023729
0.00175715
0.00163009
0.00147613
0.00168208
0.0018315
0.00195208
0.0019964
0.0020279
0.0020139
0.00200228
0.00194809
0.00191552
0.00186004
0.00154115
0.00187688
0.00189379
0.00207457
0.00287359
0.00309106
0.00260208
0.00288187
0.00257148
0.00169518
0.00194057
0.00210664
0.00215218
0.00212454
0.00203637
0.00200665
0.00198148
0.00194958
0.0019117
0.00188862
0.00190755
0.00192732
0.00190637
0.00181269
0.00173677
0.00161389
0.00149071
0.00139937
0.00132861
0.00127527
0.00121613
0.00114968
0.00100987
0.000935943
0.00123927
0.00155574
0.00166224
0.00235596
0.00287239
0.00289189
0.00216417
0.00154209
0.00160033
0.00177917
0.00179719
0.00152317
0.00181133
0.00205208
0.00212706
0.00221684
0.00247762
0.00282021
0.00274919
0.0024482
0.00225531
0.00221966
0.00254022
0.00241315
0.00312964
0.0031542
0.00275487
0.00253108
0.00284887
0.00367425
0.00395413
0.00307433
0.00288734
0.00283005
0.00279399
0.0025267
0.00261498
0.0023747
0.00213971
0.00233115
0.00281812
0.00267284
0.00291936
0.00302527
0.00283841
0.00328924
0.00379333
0.00373809
0.00299129
0.00243795
0.00227252
0.00228987
0.00140044
0.00151235
0.0016301
0.00167003
0.00169797
0.00172172
0.00183598
0.00183184
0.00180493
0.00180096
0.00183256
0.00100991
0.00109414
0.00112136
0.00112921
0.00107253
0.00106151
0.00104171
0.00102561
0.000966858
0.000925067
0.00110692
0.00124298
0.00135387
0.00148346
0.00167693
0.00191363
0.00216239
0.00241378
0.00258012
0.00262757
0.00267544
0.00257856
0.00248097
0.00256945
0.0025843
0.00256751
0.00253298
0.00248938
0.00243052
0.00232266
0.00244761
0.00244092
0.00229314
0.00196478
0.00200885
0.00200524
0.0020574
0.0020468
0.00206748
0.00203828
0.00200417
0.00190797
0.00177397
0.00147775
0.00143765
0.00145669
0.00187154
0.00227282
0.00351166
0.00428509
0.00497685
0.00532708
0.00570386
0.00461288
0.00513282
0.00395514
0.0035514
0.00451449
0.00590763
0.00337005
0.00183899
0.00348686
0.00309163
0.00224085
0.00199393
0.00205387
0.00205837
0.00236626
0.00272756
0.00302601
0.00317112
0.00329978
0.0034025
0.00351568
0.00365918
0.00369811
0.00357268
0.00302368
0.00364413
0.00295723
0.00345019
0.00311333
0.00209757
0.00224169
0.0023732
0.00216986
0.00210958
0.00202163
0.00181677
0.00222916
0.00289897
0.00336585
0.00384794
0.0051281
0.00474433
0.00455231
0.0035253
0.00340881
0.0017703
0.00252631
0.00261316
0.00293721
0.00195299
0.00178071
0.00168864
0.00223794
0.00259345
0.00306219
0.00339708
0.0040363
0.00312634
0.00356575
0.00322321
0.00224336
0.00216195
0.00309873
0.00333998
0.00274932
0.00245947
0.00308389
0.00291725
0.00206877
0.00166154
0.00255171
0.0026441
0.00189485
0.00471106
0.00500921
0.00479917
0.00585354
0.00733196
0.00835288
0.00777436
0.00689258
0.00770329
0.00611993
0.00592558
0.00631857
0.00529879
0.00370192
0.00379697
0.00392744
0.00403339
0.00433019
0.00460013
0.00493015
0.00524509
0.00476826
0.00395957
0.00299676
0.00206222
0.00203455
0.00202448
0.00181787
0.00269396
0.00407506
0.00404696
0.0022987
0.00133985
0.0015156
0.00171146
0.00169469
0.00122948
0.000925524
0.00159446
0.00182321
0.0018527
0.00180673
0.00170586
0.00178256
0.00286262
0.00440999
0.00484554
0.00501846
0.005182
0.00529737
0.00536135
0.00538131
0.00539218
0.00540565
0.00541746
0.00543575
0.00541867
0.00530309
0.00466441
0.00293271
0.00171445
0.00159275
0.00175784
0.00188922
0.00200395
0.00170519
0.00104254
0.00166527
0.00213225
0.00245065
0.00247146
0.00230649
0.00223738
0.00352786
0.00469058
0.00552878
0.00569835
0.00577363
0.00570987
0.00570115
0.00557611
0.00553652
0.00485409
0.00347582
0.00380093
0.00408143
0.00412885
0.00422468
0.00436838
0.00426702
0.00403021
0.00589233
0.00679766
0.00688456
0.00703092
0.00694728
0.00682655
0.00651558
0.0061606
0.00518603
0.00388894
0.00245361
0.00250464
0.00266615
0.00264046
0.00229837
0.00242202
0.00262867
0.002655
0.00274187
0.00307495
0.00349263
0.0033314
0.00286642
0.00243451
0.00226682
0.00221951
0.00212974
0.00159544
0.00161904
0.00157355
0.00159936
0.00214831
0.00255694
0.00294883
0.00418299
0.00373156
0.00303476
0.00481272
0.00493092
0.00529708
0.00585114
0.0059963
0.00664363
0.0046256
0.00416876
0.00428251
0.00349816
0.00323795
0.00327249
0.00328481
0.00306134
0.0033507
0.00332127
0.00320133
0.00353453
0.00389503
0.0051364
0.0062245
0.00656821
0.00676715
0.00684865
0.0068227
0.00668882
0.00672986
0.00590988
0.00590192
0.00565308
0.0054906
0.00543275
0.00516236
0.00591101
0.00613694
0.00621224
0.00636718
0.00660866
0.00643073
0.00623061
0.00607849
0.00596824
0.00585279
0.00591552
0.00602574
0.00614324
0.00630833
0.00652912
0.00656638
0.00633755
0.00616468
0.00604642
0.00593534
0.00594019
0.00603929
0.00615484
0.0063187
0.00652797
0.006412
0.0062494
0.00610457
0.00598575
0.00588114
0.00567555
0.00581283
0.00596383
0.00608831
0.0061691
0.00532985
0.00569698
0.00559874
0.00506869
0.00474381
0.00360247
0.00389871
0.00411136
0.00447805
0.00497085
0.00506775
0.00425257
0.00364428
0.00355113
0.00352244
0.00360531
0.0036352
0.00365287
0.0041276
0.00622041
0.00626231
0.0062795
0.0062816
0.00537105
0.00521927
0.00486305
0.00889014
0.00827614
0.00717095
0.00590999
0.00316769
0.00271537
0.00321676
0.00391165
0.00437311
0.00482525
0.00320378
0.00198414
0.00231216
0.00239691
0.00233769
0.00216061
0.00180006
0.0016616
0.00150801
0.00162295
0.00287453
0.00458789
0.00516821
0.00522344
0.00517194
0.00507154
0.0049493
0.00477901
0.00472129
0.00595872
0.00807223
0.00909411
0.00905594
0.00778042
0.00634454
0.00357831
0.00184368
0.00135717
0.00146144
0.00160541
0.00188509
0.0016801
0.00141585
0.00155138
0.00146842
0.0029732
0.00512919
0.00652469
0.00775116
0.00763223
0.00663998
0.00542016
0.00513111
0.00525061
0.00533142
0.00540001
0.0054704
0.00551856
0.00548744
0.00499423
0.00308497
0.00184148
0.001636
0.00175894
0.00206153
0.00219081
0.00221358
0.00218315
0.00189284
0.00313106
0.00497097
0.00316174
0.00172493
0.00186351
0.00184964
0.00326284
0.00325807
0.00318824
0.0049602
0.00524494
0.00523201
0.00491632
0.00469308
0.0027788
0.00315426
0.00316497
0.00318157
0.00323359
0.00163378
0.00178096
0.00183655
0.00197744
0.00172754
0.00219455
0.000567951
0.000787427
0.000914741
0.000994881
0.00107198
0.00105166
0.00201234
0.00204207
0.00194834
0.00189688
0.00240724
0.00258313
0.00264005
0.00243153
0.00224354
0.00238807
0.00239339
0.00225573
0.00213662
0.00221513
0.00221668
0.00212445
0.001807
0.00169326
0.00185872
0.00183872
0.00182412
0.00327492
0.00326907
0.00309424
0.00508249
0.00500134
0.00560148
0.00556546
0.00555896
0.00553619
0.00559587
0.00562701
0.00565033
0.00567755
0.00566658
0.00561159
0.00778269
0.00552202
0.00481856
0.00278704
0.00268478
0.00189628
0.00166199
0.001957
0.00209309
0.00226922
0.00221794
0.00233806
0.00233519
0.00247791
0.00229985
0.00204204
0.0031274
0.00334087
0.00326285
0.00332727
0.00324893
0.00322969
0.0032061
0.00316071
0.00310594
0.00184961
0.00181443
0.00212471
0.00223037
0.00239657
0.00241818
0.0024707
0.00234307
0.00206056
0.00199454
0.00229719
0.00226616
0.00231038
0.00217825
0.00216909
0.00193222
0.0019812
0.00399275
0.0073594
0.00379461
0.00421461
0.00381945
0.00434333
0.0038051
0.00328223
0.00335936
0.00295907
0.00308667
0.00323767
0.00329623
0.00346438
0.00408372
0.00393151
0.00345097
0.00335079
0.00328485
0.00309741
0.00278809
0.0029204
0.00294652
0.00300974
0.00334512
0.0038368
0.00430036
0.0052245
0.00506981
0.00444205
0.00406114
0.00425824
0.00433305
0.0054534
0.00509419
0.00506437
0.00534295
0.00529034
0.00502028
0.00475659
0.00459117
0.00394277
0.00400756
0.00458493
0.00443674
0.00457234
0.00449216
0.0046706
0.0047552
0.0045636
0.00424163
0.00446078
0.00445226
0.00494347
0.00480725
0.00446001
0.00407863
0.00436183
0.00430993
0.00497736
0.00468457
0.00438141
0.00403436
0.00386529
0.00438623
0.00430566
0.00488104
0.0050233
0.00502547
0.00438211
0.00427978
0.00508827
0.0048945
0.00472919
0.00492602
0.00408046
0.00419607
0.0051679
0.00527584
0.0050061
0.00418073
0.00424387
0.00363858
0.00427874
0.00532468
0.005029
0.0041224
0.00342163
0.00478575
0.00503473
0.00532403
0.00503214
0.00547922
0.00590191
0.00481304
0.00523567
0.00683831
0.00522661
0.00606455
0.00619839
0.00623432
0.00623689
0.00626022
0.0062905
0.00662561
0.00644116
0.00410043
0.00490158
0.00476454
0.0039885
0.00339519
0.00373875
0.00402657
0.00408479
0.00418844
0.00434762
0.00427207
0.00412686
0.00604467
0.00689821
0.00704623
0.00718461
0.00706629
0.00689204
0.00649091
0.00600342
0.00499538
0.0037275
0.00232937
0.00237509
0.00253151
0.00250811
0.00217621
0.00164116
0.0010789
0.00160002
0.00165518
0.00156035
0.00142448
0.00126168
0.00131239
0.00237753
0.0042792
0.00620546
0.00691429
0.00748436
0.00807724
0.00861721
0.00902246
0.00932089
0.00952705
0.00965621
0.00968432
0.00950269
0.00863976
0.00825004
0.00776654
0.00736847
0.00682267
0.00640823
0.00724838
0.00796593
0.00840846
0.00890482
0.00913441
0.00903719
0.00784656
0.0076023
0.00875242
0.0107903
0.00917319
0.0115318
0.0135556
0.0105491
0.0094807
0.00947514
0.0106012
0.0108086
0.0104259
0.00982688
0.00913768
0.00826412
0.00870425
0.00910581
0.00949482
0.00985357
0.0108005
0.0109587
0.0108717
0.0106929
0.0104589
0.0101388
0.00964936
0.00896576
0.00815064
0.00733327
0.00638464
0.00436534
0.00222713
0.00250686
0.00247263
0.00248218
0.00249661
0.00119851
0.00132354
0.00133957
0.00134704
0.00126881
0.00144526
0.00208907
0.00337299
0.00242444
0.00200231
0.00138057
0.00161413
0.00269163
0.00455195
0.0051388
0.00524626
0.00537714
0.00714752
0.00796124
0.00843619
0.00881481
0.00906625
0.00895944
0.00867702
0.00817283
0.00752257
0.00727091
0.00685378
0.00649006
0.00628878
0.00608951
0.00570537
0.00445464
0.00432378
0.00450494
0.00444446
0.00425323
0.00454704
0.00471244
0.00470918
0.00476202
0.00480804
0.00495012
0.00511717
0.00526241
0.00533837
0.00536622
0.00537459
0.00538502
0.00539317
0.00540911
0.00539034
0.00527198
0.00462902
0.00289467
0.00168977
0.001562
0.00171257
0.00181096
0.00185298
0.00164556
0.00105942
0.00164625
0.00213093
0.00218572
0.00239852
0.00247462
0.00262337
0.0029211
0.00337508
0.0034826
0.00309036
0.00292701
0.00286511
0.0027926
0.00239244
0.00298215
0.00328453
0.0032776
0.00324602
0.00350835
0.00431732
0.00414735
0.00365743
0.00361728
0.00358131
0.0032436
0.00319525
0.00348533
0.00352333
0.00365401
0.00428412
0.00513727
0.00476623
0.00434165
0.00416375
0.00384593
0.00339012
0.00306517
0.00375714
0.00307784
0.00163974
0.0014004
0.001385
0.00139273
0.00134737
0.00159732
0.00168026
0.00170185
0.00157975
0.00175189
0.00194859
0.00188328
0.00213203
0.0021053
0.0018871
0.00187068
0.00201682
0.00212259
0.00217763
0.00224278
0.00366965
0.00379386
0.00293456
0.00423972
0.00488174
0.00482945
0.00512349
0.00422146
0.00378806
0.00449495
0.00518753
0.00593922
0.00469985
0.00444828
0.00454708
0.00209374
0.00110183
0.00155408
0.00192965
0.00215234
0.00208885
0.00197336
0.00166864
0.00295667
0.00303722
0.00481071
0.00539633
0.00546655
0.00543301
0.00553804
0.00607362
0.00701685
0.0078906
0.00814787
0.00803269
0.00768101
0.00702761
0.00636653
0.00632033
0.00609312
0.00592822
0.00587539
0.00509091
0.00452752
0.00485146
0.00476414
0.00492556
0.00500096
0.00505568
0.00511119
0.00520359
0.00531492
0.00541604
0.00548449
0.00552961
0.00556729
0.00560578
0.00564446
0.00568643
0.00570856
0.00565345
0.00510872
0.00306471
0.00182739
0.00166703
0.00177872
0.0020905
0.00220114
0.00236572
0.00210052
0.00110638
0.00130041
0.00226036
0.00250653
0.00231915
0.00217051
0.00213158
0.0017857
0.00323442
0.00319209
0.00500986
0.005635
0.00571459
0.00569971
0.00565669
0.00560804
0.0055614
0.00552317
0.00549264
0.00545991
0.00541286
0.00535484
0.00530153
0.0052479
0.00515524
0.00502374
0.0048687
0.00505731
0.00523938
0.00545581
0.00568929
0.00581038
0.0057092
0.0055541
0.00548306
0.00551511
0.00556121
0.00560918
0.00565246
0.00567337
0.00560992
0.00528701
0.0049612
0.00314258
0.00318343
0.00156702
0.00174067
0.00200845
0.0020744
0.00225276
0.00224202
0.00176276
0.0013742
0.00155051
0.00144896
0.00258804
0.0028459
0.0031556
0.00312427
0.00169717
0.00174093
0.00180944
0.002041
0.0018982
0.00183423
0.00452018
0.00433339
0.00453631
0.00556411
0.00479341
0.00331013
0.00362524
0.00504514
0.00532095
0.00321636
0.00241418
0.00267526
0.00338814
0.00498943
0.00505158
0.0047993
0.00477189
0.00348275
0.00428253
0.00515494
0.00501409
0.00390767
0.00269198
0.00200655
0.000976822
0.00185802
0.00158849
0.00389135
0.00430625
0.00425576
0.00465354
0.00494455
0.00499513
0.00485326
0.00430511
0.0043906
0.00443385
0.00505148
0.00507351
0.00429618
0.00362538
0.00294581
0.00297197
0.00302926
0.00335634
0.00420232
0.00395951
0.00347072
0.00336576
0.00329347
0.00309807
0.00279593
0.00245255
0.0024695
0.00229854
0.00222447
0.00350636
0.00466712
0.00550344
0.00566178
0.00571934
0.00563204
0.00559285
0.00543368
0.00535172
0.00464987
0.0059393
0.00627731
0.00605632
0.00609993
0.00613691
0.00618269
0.00618267
0.00606577
0.00521287
0.00311331
0.00203368
0.00229546
0.00247759
0.00232656
0.00231334
0.00246557
0.00233959
0.00205509
0.00332958
0.00325439
0.00520331
0.00589232
0.00601941
0.00602784
0.00600456
0.00598545
0.0059938
0.00630903
0.00616308
0.00623682
0.00655975
0.00657349
0.00665434
0.00624828
0.00616944
0.00611934
0.00608598
0.00603123
0.0058838
0.00520744
0.00504823
0.00573204
0.00590793
0.00598574
0.00603969
0.00610442
0.00618982
0.00643585
0.00661817
0.00668499
0.00642188
0.00632952
0.00618446
0.00597568
0.00592603
0.00591531
0.00590989
0.00588034
0.00572687
0.00504106
0.00324135
0.00332124
0.00197579
0.00198868
0.00229048
0.00240572
0.00236279
0.00218802
0.00213331
0.00366883
0.00417617
0.00444251
0.00478473
0.00457016
0.0045434
0.00519287
0.00502578
0.00447933
0.00466085
0.00418102
0.00398463
0.00385227
0.00387348
0.00203956
0.00220085
0.00229565
0.00225757
0.0021588
0.00192554
0.00176581
0.00322255
0.00319895
0.00315706
0.00187755
0.00183636
0.00216345
0.00210099
0.00192196
0.00163833
0.00179606
0.00277294
0.0031014
0.00480903
0.00498145
0.00533268
0.0057036
0.00584485
0.00588367
0.00590708
0.00593358
0.00598929
0.00605492
0.00607221
0.00606718
0.006114
0.0061049
0.00610471
0.00607046
0.00603203
0.005988
0.00594148
0.00586567
0.00570981
0.00533606
0.00496919
0.00560275
0.00565417
0.00575937
0.00586856
0.00591572
0.00592443
0.00590512
0.00586503
0.0058177
0.00576168
0.0057609
0.00592448
0.0059626
0.00599101
0.0059731
0.00595308
0.00594654
0.00592074
0.0058783
0.00576881
0.00565885
0.00561157
0.00551728
0.00566552
0.00573177
0.00574254
0.00579896
0.00588884
0.00591349
0.00591133
0.00586692
0.00582984
0.00578337
0.00570831
0.00561163
0.00528062
0.005347
0.00543503
0.00554964
0.00566054
0.00575015
0.00580004
0.00580225
0.00574805
0.00571192
0.00571323
0.00566517
0.00569082
0.00571679
0.0056883
0.00568598
0.00569203
0.00562993
0.00551451
0.00535309
0.00518171
0.00503851
0.00496267
0.00484148
0.00523277
0.00537871
0.00550946
0.00562613
0.00573216
0.00583916
0.00587371
0.00586351
0.00579737
0.00575925
0.00575652
0.00569998
0.0056983
0.00575313
0.00575653
0.00578843
0.0058457
0.00582751
0.00574729
0.00554668
0.00535197
0.00518336
0.00502305
0.00485151
0.00478764
0.00486582
0.00480644
0.0048796
0.00505136
0.0052642
0.00544709
0.00556197
0.00559705
0.00563032
0.00568053
0.00567443
0.00564457
0.00562872
0.00556083
0.00550217
0.00542989
0.00526951
0.005063
0.00487887
0.00481626
0.00491141
0.00500937
0.00491882
0.00458268
0.00476432
0.00493382
0.00510383
0.00534535
0.00562454
0.00574935
0.00579414
0.00576679
0.00574474
0.00574081
0.00568878
0.00567188
0.00571984
0.00572444
0.00574654
0.00578222
0.00574271
0.00563864
0.00529568
0.0048903
0.00469708
0.00458438
0.00442749
0.00494338
0.00504618
0.00492136
0.00483752
0.00496933
0.00512456
0.0052857
0.00539254
0.00543431
0.00549228
0.00556859
0.00560472
0.00555024
0.00548715
0.00540887
0.00536816
0.00536577
0.00533624
0.00523126
0.00511006
0.00497355
0.00514196
0.00523989
0.00514595
0.00466895
0.00474643
0.00485614
0.0049186
0.00529787
0.00563399
0.0057176
0.00572426
0.00569134
0.00566941
0.00566981
0.00563932
0.00558455
0.0055751
0.00556984
0.00563364
0.00571665
0.00575892
0.00577805
0.00552591
0.00507283
0.00500244
0.00480223
0.00470446
0.00521504
0.00527486
0.00515537
0.00504273
0.00528315
0.00538656
0.0054173
0.0053981
0.00534372
0.00530714
0.00537463
0.00548073
0.00539981
0.00505061
0.00473945
0.00489891
0.00493653
0.00492246
0.00485447
0.00474313
0.00450274
0.00502688
0.00553708
0.00557999
0.00504237
0.00505047
0.00488111
0.00453752
0.0049772
0.00521474
0.00526985
0.00525391
0.00517645
0.00498166
0.00526299
0.00550979
0.00546278
0.00494478
0.00320956
0.00325405
0.00327811
0.00328162
0.0032382
0.00322607
0.00317876
0.00315426
0.00308079
0.00300613
0.00293482
0.00312996
0.00329766
0.00352292
0.00354105
0.00363394
0.00347738
0.003292
0.00307383
0.00239332
0.00303692
0.0036228
0.00385086
0.004143
0.00420398
0.00485159
0.00510491
0.00524328
0.00514393
0.00412727
0.00350143
0.00279815
0.00181973
0.00113384
0.00133104
0.0013845
0.00145577
0.00178153
0.00328893
0.00167551
0.00232576
0.00181789
0.00313427
0.0016557
0.00103308
0.000685834
0.000876504
0.00104179
0.00105184
0.00100661
0.000838866
0.000658052
0.000672629
0.000626154
0.00066516
0.000597797
0.000684759
0.000639676
0.000893741
0.00134496
0.00152694
0.00156039
0.00126098
0.00142159
0.00118759
0.00136936
0.00122253
0.00133228
0.0012778
0.00156279
0.00171266
0.00163975
0.00164437
0.00143903
0.00100664
0.00116675
0.000916802
0.00110073
0.000842566
0.00108843
0.000933409
0.00121295
0.00125054
0.00124711
0.00120095
0.00091767
0.00108854
0.000857052
0.00105468
0.000864597
0.000923369
0.000769105
0.00111687
0.00113762
0.00104702
0.00111786
0.00125806
0.00135182
0.0014892
0.00140494
0.00159861
0.00153975
0.00155622
0.00147337
0.0014318
0.00139887
0.00140143
0.00137815
0.00138547
0.00142987
0.00143182
0.00143723
0.00148233
0.00146041
0.00142515
0.00140402
0.00124746
0.00100659
0.00175356
0.00180843
0.00183532
0.00183487
0.00179363
0.00177374
0.00171324
0.00169708
0.0016445
0.00161336
0.00154249
0.00148388
0.00141724
0.0015923
0.00089084
0.00101126
0.0010674
0.00109879
0.0011207
0.00113064
0.00113873
0.00113222
0.00111809
0.00109037
0.00108086
0.00105073
0.00134428
0.00152882
0.00159806
0.00161669
0.00151567
0.00144357
0.00315464
0.00381684
0.00580731
0.00593462
0.00445369
0.00444124
0.00153866
0.00162306
0.00111009
0.00156007
0.00160883
0.00159276
0.001505
0.0010859
0.00163014
0.00113596
0.00153257
0.00115131
0.00142721
0.00118222
0.00168721
0.00215101
0.00207627
0.00188022
0.0012912
0.00107621
0.00108115
0.000923458
0.0010112
0.000825818
0.00100842
0.000848553
0.00125638
0.00178254
0.00197121
0.00201022
0.00158471
0.0021863
0.0016435
0.00237937
0.00188833
0.00232858
0.00186763
0.00216153
0.00267443
0.00268644
0.00262288
0.0021143
0.00169522
0.00190238
0.00168591
0.00194122
0.00280592
0.00183947
0.00278991
0.00115313
0.00157196
0.00162046
0.00159848
0.00150746
0.00101603
0.00258744
0.00136868
0.00243829
0.00157929
0.00253556
0.0018419
0.00244554
0.00292592
0.00306092
0.00305089
0.00248848
0.00224584
0.00232644
0.00185923
0.00223159
0.00165822
0.00240362
0.00135689
0.00176109
0.00194801
0.00205034
0.0020586
0.00169212
0.00334107
0.00209741
0.00316582
0.00220087
0.00281968
0.00225941
0.00247173
0.00291871
0.00290059
0.00287636
0.0024392
0.00197411
0.00260573
0.00185932
0.055375
0.127972
0.0509074
0.129298
0.0585513
0.0830924
0.0818689
0.0820357
0.0823343
0.0618009
0.134876
0.159396
0.166244
0.168268
0.167018
0.269915
0.220094
0.330727
0.214428
0.12616
0.0546881
0.0754247
0.194695
0.32153
0.482393
0.612034
0.417039
0.431659
0.275447
0.271571
0.255633
0.206728
0.126609
0.0634658
0.0109231
0.0119759
0.0170998
0.0227399
0.0179252
0.0109895
0.00216979
0.00223943
0.00229042
0.00232285
0.00231649
0.00227002
0.00231002
0.00218712
0.00206203
0.0023084
0.00251556
0.00266376
0.00314534
0.00347966
0.00313634
0.0034399
0.00364691
0.00381512
0.00395361
0.0041598
0.00439218
0.00459721
0.00460853
0.00422286
0.00359897
0.00292855
0.00246295
0.00233381
0.00219179
0.00193282
0.00176823
0.00165626
0.00160166
0.00157876
0.00162208
0.00177237
0.00190244
0.00194796
0.00190925
0.00187423
0.00184366
0.00164165
0.00191928
0.0026327
0.002654
0.00454678
0.00523898
0.00534754
0.00535456
0.00474772
0.00303308
0.00303956
0.00305511
0.00311308
0.00312514
0.00313255
0.00312914
0.00311753
0.00309927
0.00306506
0.00304819
0.00299898
0.00295759
0.00285432
0.00285894
0.00289536
0.00292439
0.00287674
0.00288869
0.00282827
0.00366271
0.00490417
0.00554707
0.00579863
0.00601522
0.00583854
0.00808356
0.0069049
0.0048525
0.004784
0.00472421
0.00560156
0.00564078
0.00510173
0.00512269
0.00466265
0.00290971
0.00289942
0.00290129
0.00310217
0.00316286
0.00327167
0.00330161
0.00332926
0.00334533
0.00334102
0.00333944
0.00331156
0.00328985
0.0032163
0.00319178
0.00318131
0.00175383
0.00191404
0.00198523
0.001998
0.00202596
0.00201323
0.00200047
0.00197613
0.00195983
0.00192678
0.00188822
0.00183218
0.00172282
0.00156973
0.00172767
0.00293336
0.00293282
0.00478311
0.00540808
0.0054475
0.00605356
0.0057477
0.00544357
0.00584119
0.00527276
0.00523203
0.00472727
0.00293382
0.00297387
0.001764
0.00174857
0.00204388
0.00198736
0.00212358
0.0021816
0.00218876
0.00221929
0.0022486
0.00228484
0.00234333
0.00236122
0.0023257
0.00231941
0.00218507
0.00188813
0.00191065
0.00225269
0.00236265
0.00219291
0.00215332
0.00213598
0.00208314
0.00204308
0.00200465
0.00203052
0.00218594
0.00218342
0.00214483
0.00204098
0.00198757
0.00172338
0.00166442
0.00291098
0.00295253
0.00488536
0.00500358
0.00496132
0.00571153
0.00637247
0.00725317
0.00618917
0.00503585
0.00526461
0.00601683
0.00447643
0.00373958
0.00222734
0.00166852
0.00208054
0.0019224
0.00200425
0.00207663
0.0018443
0.0019814
0.00183213
0.00166491
0.0016558
0.00165387
0.00169502
0.00171231
0.00174361
0.00174788
0.00179061
0.00178671
0.0017924
0.0018144
0.00182499
0.00201653
0.00219274
0.00184502
0.00156391
0.00152273
0.00143775
0.00136843
0.0014016
0.00136763
0.00135919
0.00133406
0.00131134
0.00125115
0.00130373
0.00138326
0.00161814
0.00154905
0.00125212
0.00111886
0.000764822
0.000780021
0.000785426
0.000809676
0.000818562
0.000829496
0.000833563
0.000847228
0.000849893
0.000854229
0.000853908
0.000874837
0.000871882
0.00086196
0.000855482
0.000859724
0.000863805
0.000863268
0.00126412
0.00140783
0.00153895
0.00182828
0.00215235
0.00185252
0.00156967
0.00135205
0.000869019
0.000882122
0.00089834
0.000906644
0.000926117
0.000943743
0.000963548
0.000976014
0.000985476
0.000995292
0.00100566
0.00100983
0.00100743
0.000987993
0.000976552
0.00100137
0.0011006
0.00115823
0.00123216
0.00126006
0.00128382
0.00129558
0.00128941
0.00130292
0.00128759
0.00128546
0.00126352
0.00125416
0.00124524
0.00123397
0.00121999
0.00118543
0.00117394
0.00123508
0.00209224
0.00273744
0.00315383
0.00347499
0.00321619
0.00261247
0.00274203
0.00482081
0.00456706
0.0026926
0.00251585
0.00232505
0.00203694
0.00176676
0.00213116
0.00243435
0.00266413
0.00286579
0.00305013
0.00317515
0.00333537
0.00354435
0.00391423
0.00396099
0.00361326
0.00292886
0.00248069
0.00231809
0.00224001
0.00210323
0.00195371
0.00200245
0.00201673
0.00195649
0.00188161
0.00186003
0.00189055
0.00192914
0.00190589
0.00190514
0.00170194
0.00170138
0.00290705
0.00296289
0.00455732
0.0048013
0.00484715
0.00311694
0.0030739
0.00179544
0.00166728
0.00181886
0.00188803
0.00189181
0.00189922
0.00188926
0.00185598
0.00183166
0.00180337
0.0017805
0.00176043
0.00172572
0.00165962
0.00153276
0.00167042
0.00187347
0.00195623
0.00197759
0.00198773
0.00201907
0.00207056
0.00211193
0.00220786
0.00221804
0.00221743
0.00222542
0.00208022
0.00214555
0.00181584
0.00181344
0.00314318
0.00313502
0.00180094
0.00212673
0.00214084
0.00211608
0.00227784
0.00208436
0.00201801
0.00200682
0.00192156
0.00187625
0.00181599
0.00178005
0.00181506
0.00193099
0.00186994
0.00165691
0.00159795
0.00179222
0.00172369
0.00143006
0.00122177
0.00118808
0.00113724
0.00110643
0.00115966
0.00120115
0.00122483
0.00125494
0.00126389
0.00131932
0.00128378
0.00134744
0.00142895
0.00149394
0.00177224
0.00192034
0.00173484
0.00170138
0.00168025
0.00167809
0.0016833
0.00161374
0.00160913
0.00157322
0.00155556
0.00150873
0.00148758
0.00146071
0.00146556
0.00148109
0.00162829
0.00419343
0.00534413
0.00556575
0.0094935
0.00384203
0.00392354
0.00767749
0.00318488
0.00478323
0.0051243
0.00535859
0.00559508
0.0051209
0.00649339
0.00454248
0.00505773
0.00527577
0.00463106
0.00172763
0.00195314
0.00226012
0.0020261
0.00179013
0.00122064
0.0013169
0.00136032
0.00139552
0.00141837
0.0014437
0.00147082
0.0014963
0.00151419
0.00151454
0.00146861
0.00141908
0.00130518
0.00126727
0.00131636
0.00136712
0.00120091
0.00113078
0.00114419
0.00116313
0.00117377
0.00117611
0.00118773
0.00119092
0.00120923
0.00119955
0.00120882
0.00118824
0.00119886
0.00118308
0.0011426
0.00108596
0.000989507
0.000965857
0.00139114
0.00148133
0.00155621
0.0017657
0.00203859
0.00217524
0.00194942
0.00179733
0.0017252
0.00191384
0.00191397
0.00347519
0.00667082
0.00298828
0.00335016
0.00976313
0.00388083
0.0030187
0.00306465
0.00309691
0.00310107
0.00180218
0.00213474
0.00207002
0.00207798
0.00176225
0.00147943
0.0013268
0.00118628
0.000804304
0.000801603
0.000807657
0.000819948
0.000823759
0.000788443
0.000788347
0.000783833
0.000782063
0.000765459
0.000760829
0.000747355
0.000739178
0.000719778
0.000709255
0.000690743
0.00068737
0.0007154
0.000794153
0.000959642
0.00107
0.00121499
0.00123765
0.00139767
0.00346751
0.00402036
0.00553683
0.00548973
0.00865793
0.00541018
0.0040879
0.00369618
0.00540609
0.00558418
0.00518608
0.00702609
0.00486314
0.00321766
0.00480547
0.00398986
0.00476568
0.00466224
0.0049431
0.00786062
0.00829657
0.00233704
0.00208371
0.00219247
0.00248714
0.00295262
0.00271793
0.0030965
0.00309226
0.00238517
0.00152148
0.0048455
0.00583891
0.00467998
0.0056134
0.00870399
0.00349719
0.00341121
0.00301875
0.00251972
0.00229019
0.00225937
0.00251913
0.0030143
0.00756273
0.00808443
0.00742574
0.00738767
0.00670348
0.00738634
0.00923724
0.00920701
0.00813326
0.00761166
0.00787098
0.00484782
0.00303173
0.00353255
0.0039128
0.00522006
0.00538312
0.0113702
0.00385741
0.00426172
0.00432828
0.00579043
0.00560555
0.00992059
0.00419767
0.00452889
0.00596755
0.00797632
0.0147219
0.00536389
0.00565478
0.00813672
0.00825957
0.00754827
0.00544996
0.00493764
0.00538035
0.00405318
0.00396179
0.00338296
0.00499463
0.00672616
0.00531425
0.00516067
0.00439284
0.00390549
0.00400471
0.00415467
0.00345032
0.00340293
0.00392909
0.00291015
0.00281547
0.00298634
0.000828507
0.000424765
0.000434288
0.000445563
0.000454719
0.000464135
0.000471045
0.000479217
0.00048294
0.000483325
0.00048454
0.000512475
0.000507792
0.000491748
0.000446524
0.000509575
0.000808671
0.000809262
0.000509053
0.000448788
0.000805217
0.0012832
0.00151296
0.00179006
0.00181239
0.00156367
0.00135556
0.000834224
0.000821139
0.000497729
0.000581282
0.000631245
0.000559851
0.000624771
0.000579042
0.000613353
0.000619578
0.000573178
0.000570017
0.000572229
0.000567831
0.00055775
0.000545408
0.000530357
0.000518459
0.000511832
0.000506537
0.000495172
0.000412082
0.000383846
0.000460873
0.000734155
0.000733019
0.000687391
0.00064866
0.000615689
0.000600818
0.000596764
0.000593583
0.000603957
0.000623517
0.00062903
0.000634521
0.00068376
0.00066265
0.000707802
0.000664236
0.000709691
0.000666177
0.00061283
0.000514573
0.000530924
0.000856495
0.000865613
0.00139882
0.00160051
0.00181504
0.00182451
0.00203659
0.00214467
0.00181589
0.00188535
0.00216102
0.00201285
0.00179441
0.0018013
0.00162043
0.00162177
0.00143632
0.000897487
0.000885263
0.000555976
0.000539915
0.000643793
0.000632493
0.000703436
0.000752773
0.000753002
0.000750551
0.000731371
0.00072456
0.000637169
0.000624701
0.00062551
0.000606534
0.000602401
0.000627831
0.000684515
0.000802742
0.000970706
0.00105724
0.00109474
0.00105065
0.0009411
0.000693484
0.000627414
0.00108663
0.00112897
0.00201435
0.00476844
0.00220944
0.0042598
0.00307544
0.000765928
0.000854971
0.00109033
0.00122179
0.00131895
0.00137401
0.00125501
0.00104664
0.000788148
0.000650992
0.000973669
0.000841972
0.000951537
0.000831117
0.00107564
0.00124376
0.00120327
0.0012124
0.00102469
0.000834804
0.000884049
0.00079381
0.000874974
0.000732462
0.000881251
0.000795739
0.000999989
0.00100937
0.000988374
0.000936859
0.000713349
0.000748437
0.000627772
0.000680976
0.000611331
0.000631828
0.000598697
0.000698207
0.000804537
0.00077211
0.000769065
0.000631876
0.000495087
0.000546773
0.000472696
0.000534974
0.00041573
0.000503631
0.00042239
0.000546763
0.000563586
0.000566451
0.000562558
0.000457441
0.000537747
0.00065948
0.000692719
0.000698534
0.000665572
0.000512995
0.000793909
0.000716855
0.000875344
0.000757348
0.000828857
0.000754883
0.000879905
0.00112688
0.00117649
0.00118434
0.000960837
0.000954664
0.00174157
0.0964849
0.00156658
0.00185151
0.00190915
0.00190221
0.00157276
0.00153467
0.00190051
0.00140621
0.00199101
0.00125363
0.00212297
0.000809348
0.00123022
0.00132077
0.00131791
0.00122476
0.00082085
0.00242716
0.119399
0.308224