/*--------------------------------*- C++ -*----------------------------------*\
| =========                 |                                                 |
| \\      /  F ield         | OpenFOAM: The Open Source CFD Toolbox           |
|  \\    /   O peration     | Version:  v2012                                 |
|   \\  /    A nd           | Website:  www.openfoam.com                      |
|    \\/     M anipulation  |                                                 |
\*---------------------------------------------------------------------------*/
FoamFile
{
    version     2.0;
    format      ascii;
    class       volScalarField;
    location    "325";
    object      nut;
}
// * * * * * * * * * * * * * * * * * * * * * * * * * * * * * * * * * * * * * //

dimensions      [0 2 -1 0 0 0 0];


internalField   nonuniform List<scalar> 
18258
(
0.00419954
0.0018247
0.00149483
0.00129488
0.000857796
0.00140352
0.00194937
0.00232057
0.00243471
0.00241388
0.00249917
0.0042172
0.00591817
0.00731341
0.00768146
0.00766766
0.00695802
0.00664348
0.00720843
0.00886887
0.00746356
0.00478075
0.00572966
0.00661772
0.00719212
0.00636682
0.00514702
0.0047685
0.00431795
0.00359883
0.00301565
0.00205072
0.00151773
0.0014083
0.00127539
0.00145336
0.0015824
0.00168649
0.00172495
0.00175228
0.00174025
0.00173031
0.00168359
0.00165562
0.00160788
0.00133249
0.00162373
0.00163732
0.00179233
0.00248301
0.00267088
0.00224808
0.00248899
0.00222139
0.00146513
0.0016768
0.00182022
0.0018595
0.0018357
0.00175961
0.00173402
0.00171237
0.0016849
0.00165226
0.0016324
0.00164886
0.00166603
0.00164801
0.00156713
0.00150156
0.00139543
0.00128902
0.00121011
0.00114897
0.00110286
0.00105171
0.000994233
0.00087332
0.000809384
0.00107166
0.00134531
0.00143731
0.00203707
0.00248351
0.00250016
0.0018715
0.00133385
0.0013843
0.00153894
0.00155444
0.00131749
0.00156608
0.00177389
0.00183858
0.00191604
0.00214155
0.00243874
0.00237797
0.00211787
0.00195156
0.00191315
0.0021925
0.00208458
0.00270351
0.0027231
0.00237512
0.00219047
0.0024648
0.00317872
0.00341887
0.00265658
0.00249526
0.00244597
0.00241477
0.00218414
0.00226062
0.00205305
0.00184994
0.00201531
0.00243552
0.00231014
0.0025232
0.00261468
0.00245303
0.00284237
0.00327765
0.00323027
0.00258501
0.00210777
0.0019648
0.00197973
0.00121082
0.0013075
0.0014088
0.00144331
0.00146753
0.0014881
0.00158692
0.00158334
0.00156014
0.00155671
0.00158412
0.000872992
0.000945794
0.000969278
0.000976058
0.000927027
0.000917455
0.000900308
0.000886383
0.000835869
0.000799816
0.000957013
0.0010746
0.00117042
0.00128241
0.00144951
0.00165393
0.00186874
0.00208578
0.00222932
0.00227023
0.00231147
0.00222786
0.00214354
0.00221995
0.00223278
0.00221832
0.00218854
0.0021509
0.00210004
0.00200681
0.0021145
0.00210865
0.00198103
0.00169789
0.0017358
0.00173262
0.00177764
0.00176849
0.00178633
0.00176111
0.00173163
0.00164855
0.0015328
0.00127651
0.0012417
0.00125782
0.00161592
0.00196232
0.00303188
0.00369957
0.00429717
0.00459987
0.0049246
0.00398219
0.00443101
0.00341393
0.0030654
0.0038968
0.00509968
0.00290899
0.0015872
0.00300962
0.00266856
0.00193433
0.00172132
0.0017732
0.00177762
0.00204383
0.00235555
0.00261303
0.00273819
0.00284925
0.00293777
0.00303556
0.00315928
0.00319315
0.0030849
0.00261138
0.00314601
0.00255368
0.00298013
0.00268934
0.00181181
0.00194067
0.00205286
0.00187614
0.00182357
0.00174718
0.00156994
0.00192743
0.00250185
0.00290382
0.00331927
0.0044243
0.00409309
0.00392654
0.00304076
0.00294037
0.00152726
0.00217964
0.00225524
0.0025345
0.0016854
0.00153689
0.00145769
0.00193319
0.0022397
0.00264376
0.00293244
0.00348404
0.00269953
0.00307963
0.00278419
0.00193799
0.00186785
0.00267692
0.00288486
0.00237418
0.00212429
0.00266397
0.00252036
0.00178751
0.00143587
0.00220502
0.00228458
0.00163672
0.0040656
0.00432387
0.00414643
0.00505826
0.00633513
0.00721569
0.0067135
0.00595332
0.00665597
0.00529058
0.00512018
0.00545668
0.00457718
0.00319891
0.00328036
0.00339243
0.00348312
0.00373861
0.003971
0.00425544
0.00452724
0.00411657
0.00341997
0.00258934
0.00178187
0.00175773
0.00174891
0.00157045
0.00232735
0.0035211
0.00349719
0.00198728
0.00115852
0.00131027
0.00147946
0.00146495
0.00106318
0.000800212
0.00137852
0.00157612
0.00160156
0.00156178
0.00147457
0.00154092
0.00247466
0.00381248
0.0041891
0.00433881
0.00448051
0.00458063
0.00463638
0.00465409
0.00466392
0.00467592
0.0046864
0.00470238
0.00468765
0.00458764
0.00403505
0.0025369
0.00148312
0.00137789
0.00152074
0.00163439
0.00173366
0.00147533
0.000901977
0.00144063
0.00184467
0.00211984
0.00213775
0.00199489
0.00193501
0.00305102
0.00405645
0.004781
0.00492738
0.00499225
0.00493691
0.00492919
0.00482093
0.00478659
0.00419656
0.0030049
0.00328536
0.00352767
0.00356858
0.00365138
0.00377565
0.00368816
0.00348393
0.0050926
0.00587594
0.00595149
0.00607875
0.00600729
0.00590376
0.00563554
0.00532902
0.00448628
0.00336432
0.00212268
0.00216698
0.00230693
0.00228486
0.00198912
0.00209566
0.00227425
0.00229699
0.00237206
0.00265997
0.00302101
0.00288163
0.00247958
0.00210595
0.00196097
0.00191997
0.00184226
0.00137994
0.00140043
0.00136116
0.0013835
0.00185839
0.00221197
0.0025508
0.00361814
0.00322765
0.00262509
0.00416151
0.00426363
0.00457973
0.00505858
0.00518403
0.00574267
0.00399989
0.00360541
0.00370389
0.00302587
0.00280092
0.00283094
0.00284166
0.00264864
0.00289899
0.00287341
0.00276956
0.00305776
0.00336914
0.00444268
0.0053833
0.00568006
0.00585151
0.00592135
0.00589835
0.00578226
0.00581761
0.00510866
0.00510192
0.00488636
0.00474581
0.00469576
0.00446247
0.00510962
0.00530463
0.00536983
0.00550392
0.0057129
0.00555916
0.00538603
0.00525444
0.00515908
0.00505947
0.00511392
0.00520906
0.00531065
0.00545344
0.00564443
0.005677
0.00547898
0.00532945
0.00522721
0.0051313
0.00513573
0.00522132
0.00532123
0.00546303
0.00564424
0.00554441
0.00540348
0.0052781
0.00517532
0.00508492
0.00490743
0.0050261
0.00515674
0.00526458
0.0053348
0.0046094
0.0049265
0.00484136
0.00438294
0.00410205
0.00311527
0.00337147
0.00355532
0.00387246
0.00429878
0.00438271
0.00367813
0.00315212
0.00307178
0.00304701
0.00311891
0.00314469
0.00315977
0.00357025
0.00537798
0.00541418
0.00542938
0.00543134
0.00464469
0.00451346
0.00420524
0.00768275
0.00715281
0.00619896
0.00511016
0.00274007
0.00234894
0.00278243
0.00338336
0.0037826
0.00417379
0.00277124
0.00171639
0.00200022
0.00207382
0.00202294
0.00186994
0.00155822
0.00143832
0.00130532
0.00140462
0.0024873
0.00396964
0.00447186
0.00451985
0.00447557
0.00438907
0.00428387
0.00413726
0.00408237
0.005145
0.0069614
0.00785915
0.00782808
0.00672604
0.00548113
0.00308801
0.00158641
0.00116058
0.00126282
0.00138644
0.0016298
0.00145445
0.00121541
0.00133225
0.00126441
0.00256263
0.00442639
0.00564143
0.00669876
0.00659121
0.00572882
0.00468525
0.00444056
0.00454388
0.00461301
0.00467211
0.00473284
0.00477434
0.00474726
0.00432044
0.00266885
0.00159339
0.00141573
0.00152225
0.00178412
0.00189575
0.00191516
0.00188861
0.00163738
0.0027083
0.00430008
0.00273494
0.00149215
0.0016121
0.00160024
0.00282246
0.00281825
0.00275787
0.00429081
0.00453724
0.004526
0.00425265
0.00405947
0.0024037
0.00272826
0.00273751
0.00275196
0.00279697
0.00141333
0.00154062
0.00158868
0.00171059
0.00149463
0.00189857
0.000491296
0.000681371
0.000791345
0.000860614
0.000927289
0.000909664
0.00174078
0.00176647
0.00168548
0.00164111
0.00208238
0.00223446
0.0022837
0.0021034
0.00194082
0.00206581
0.0020704
0.00195131
0.00184832
0.00191627
0.00191763
0.00183783
0.00156321
0.00146478
0.00160794
0.00159066
0.00157802
0.0028329
0.00282785
0.00267656
0.0043969
0.00432655
0.00484601
0.00481473
0.00480908
0.00478931
0.0048411
0.0048681
0.00488836
0.00491205
0.0049026
0.00485488
0.00673589
0.00477663
0.00416801
0.00241058
0.00232221
0.00164029
0.00143762
0.00169283
0.00181054
0.00196288
0.00191853
0.0020223
0.0020199
0.00214323
0.00198907
0.00176601
0.00270463
0.00288917
0.00282175
0.00287743
0.00280978
0.00279317
0.0027728
0.0027336
0.00268628
0.00159977
0.00156943
0.00183782
0.00192919
0.00207295
0.00209155
0.00213697
0.00202644
0.00178201
0.00172494
0.00198678
0.00195994
0.00199831
0.00188403
0.00187601
0.00167108
0.0017134
0.00345209
0.00635987
0.0032807
0.0036435
0.00330228
0.00375478
0.00328988
0.00283812
0.00290501
0.0025591
0.00266956
0.00280002
0.00285066
0.00299606
0.00353169
0.00340029
0.00298473
0.00289814
0.00284111
0.00267902
0.00241149
0.00252593
0.00254855
0.0026032
0.00289324
0.00331811
0.00371893
0.0045171
0.0043835
0.00384127
0.00351188
0.00368224
0.00374698
0.00471485
0.00440456
0.00437869
0.00461914
0.00457344
0.00433979
0.00411199
0.00396904
0.00340889
0.00346472
0.00396323
0.00383541
0.00395273
0.00388375
0.00403802
0.00411154
0.00394599
0.00366776
0.00385695
0.00384939
0.00427395
0.00415609
0.00385613
0.00352672
0.00377121
0.00372629
0.00430324
0.00405003
0.003788
0.00348817
0.003342
0.0037924
0.00372294
0.00421997
0.00434295
0.00434483
0.00378884
0.00370059
0.00439911
0.00423135
0.00408864
0.00425877
0.00352803
0.00362823
0.00446779
0.00456114
0.00432806
0.00361466
0.00366955
0.00314648
0.00369979
0.00460333
0.00434793
0.0035645
0.00295854
0.00413757
0.00435249
0.00460245
0.00435032
0.00473584
0.00510041
0.00416045
0.00452534
0.00590837
0.00451988
0.00524389
0.00535917
0.00538985
0.00539171
0.00541156
0.00543749
0.00572711
0.00556818
0.00354446
0.00423689
0.00411851
0.00344732
0.0029346
0.00323123
0.00347989
0.00353009
0.00361959
0.0037572
0.00369214
0.00356751
0.00522449
0.00596356
0.00609166
0.00621291
0.00611243
0.00596366
0.00561792
0.00519608
0.00432073
0.00322347
0.00201354
0.00205278
0.00218771
0.00216702
0.00187995
0.00141789
0.000932128
0.00138313
0.00143113
0.00134917
0.0012315
0.00109009
0.00113274
0.00205476
0.00379866
0.00539419
0.00598503
0.00646326
0.00696648
0.00744165
0.00780115
0.0080628
0.00823965
0.00834746
0.00836848
0.00820517
0.00744859
0.00711256
0.00669727
0.00635698
0.00589141
0.00553849
0.00626192
0.00688147
0.00726432
0.00769387
0.00789261
0.00780839
0.00678201
0.00656965
0.00755834
0.00931621
0.00791658
0.00995098
0.0117025
0.00911023
0.00819113
0.00818842
0.00915891
0.00933915
0.00900717
0.00848759
0.00789016
0.00713476
0.00751085
0.00785461
0.00818839
0.00849618
0.0093303
0.00947487
0.00940426
0.0092585
0.00906293
0.00878332
0.00834679
0.00774214
0.0070467
0.00635855
0.00555962
0.00386943
0.00192093
0.002158
0.0021266
0.00217693
0.0021683
0.00103216
0.00114017
0.00115463
0.00116185
0.00109544
0.00124763
0.00180356
0.00292415
0.00210208
0.00173376
0.00119341
0.0013969
0.00233124
0.00394886
0.00446033
0.00455156
0.00463632
0.0060134
0.00685728
0.00728783
0.00762146
0.00785894
0.00776064
0.00750669
0.0070574
0.00648279
0.00626668
0.00591096
0.00560195
0.0054338
0.00526503
0.00493599
0.00386096
0.00373277
0.00389049
0.00383959
0.00367454
0.00392761
0.00407044
0.00406772
0.00411352
0.0041535
0.00427656
0.00442128
0.00454724
0.00461342
0.00463807
0.0046459
0.00465547
0.00466298
0.00467715
0.0046612
0.00455904
0.00400315
0.00250323
0.00146127
0.00135075
0.00148097
0.00156605
0.00160238
0.00142308
0.00091611
0.00142345
0.00184261
0.00188988
0.00207398
0.00213994
0.00226907
0.00252681
0.00291959
0.0030127
0.00267357
0.00253225
0.00247864
0.00241598
0.00206806
0.00257807
0.00284123
0.00283545
0.00280821
0.00303511
0.00373461
0.00358799
0.00316414
0.00312936
0.00309805
0.00280439
0.00276258
0.00301493
0.00304795
0.00316106
0.00370627
0.00444395
0.00412336
0.00375594
0.00360197
0.00332674
0.00293154
0.00265025
0.0032528
0.00266662
0.00141575
0.00120662
0.00119576
0.00120178
0.0011618
0.0013778
0.00144976
0.00146897
0.00136487
0.00151377
0.00168399
0.00162836
0.00184123
0.00181806
0.00162942
0.00161473
0.00174277
0.00183582
0.00188362
0.00193744
0.00317277
0.00327908
0.0025375
0.00366918
0.0042248
0.00418394
0.00443869
0.00365487
0.00327937
0.00389206
0.00449328
0.00514753
0.00407107
0.00385276
0.00393917
0.00181134
0.000953175
0.00134452
0.00166961
0.00186247
0.00180786
0.0017082
0.0014447
0.00256222
0.0026314
0.0041729
0.00468149
0.00474346
0.00471539
0.00475838
0.00519174
0.005957
0.00680539
0.00705582
0.00695675
0.00664465
0.00606479
0.00547977
0.0054469
0.00525768
0.00512081
0.00508001
0.00440574
0.00390692
0.00418898
0.00411528
0.00425485
0.00432029
0.00436793
0.00441637
0.0044968
0.00459374
0.00468204
0.00474209
0.00478197
0.00481535
0.00484931
0.0048833
0.00492
0.00493946
0.00489198
0.00442068
0.0026513
0.00158075
0.00144181
0.00153843
0.00180815
0.00190387
0.00204623
0.00181691
0.000956804
0.00112515
0.00195517
0.00216819
0.00200619
0.00187762
0.00184399
0.00154478
0.00279849
0.00276238
0.00433727
0.00487883
0.00494785
0.00493485
0.00489738
0.00485475
0.00481296
0.00477852
0.00475081
0.00472129
0.00467954
0.00462846
0.0045817
0.00453453
0.00445365
0.00433889
0.00420053
0.00436512
0.00452525
0.00471669
0.00491806
0.0050176
0.0049285
0.00479758
0.00474255
0.00477457
0.00481603
0.00485843
0.00489653
0.00491527
0.00485976
0.0045793
0.00429586
0.00272023
0.00275567
0.00135588
0.00150596
0.00173762
0.00179465
0.00194869
0.00193912
0.00152432
0.00118833
0.001341
0.00125341
0.00223927
0.00246254
0.00273095
0.00270403
0.0014685
0.00150642
0.00156562
0.00176561
0.00164192
0.00158692
0.0039149
0.00375103
0.00392582
0.00481517
0.00414815
0.00286399
0.00313633
0.00436448
0.00460357
0.00278254
0.00208873
0.00231449
0.00293099
0.00431599
0.00437012
0.0041524
0.00412837
0.00301286
0.00370477
0.00446002
0.0043383
0.0033802
0.00232889
0.00173607
0.000844656
0.0016066
0.00137344
0.0033656
0.00372463
0.00368154
0.00402545
0.0042769
0.00432057
0.00419815
0.00372343
0.00379752
0.003835
0.00436952
0.00438886
0.00371571
0.00313552
0.00254732
0.00257023
0.00262003
0.00290313
0.00363486
0.00342476
0.00300186
0.00291086
0.00284807
0.00267887
0.00241748
0.00212057
0.00213519
0.00198727
0.00192313
0.00303145
0.00403508
0.00475806
0.00489477
0.00494431
0.00486854
0.00483432
0.00469639
0.00462524
0.00401839
0.00513178
0.00542449
0.00523406
0.00527225
0.00530467
0.00534467
0.00534507
0.00524432
0.00450682
0.00269155
0.00175813
0.00198455
0.00214213
0.00201154
0.00200011
0.00213177
0.00202276
0.00177671
0.00287852
0.00281351
0.00449854
0.00509435
0.00520391
0.0052108
0.00519038
0.00517348
0.00518032
0.00545225
0.0053257
0.0053905
0.00566947
0.00568065
0.00575101
0.00540048
0.00533275
0.00528991
0.00526153
0.00521467
0.0050877
0.00450335
0.00436586
0.00495674
0.00510829
0.005175
0.00522108
0.00527642
0.00534961
0.00556153
0.00571841
0.00577684
0.00555062
0.0054703
0.00534549
0.00516552
0.00512278
0.00511376
0.00510909
0.00508368
0.00495119
0.00435819
0.00280221
0.00287129
0.00170815
0.00171928
0.00198029
0.00208
0.00204291
0.00189188
0.00184456
0.00317475
0.00361347
0.0038433
0.00413993
0.00395452
0.00393156
0.00449302
0.00434838
0.00387493
0.00403243
0.00361799
0.00344757
0.00333381
0.00335267
0.00176352
0.0019029
0.00198481
0.00195183
0.0018664
0.00166468
0.00152659
0.00278596
0.00276558
0.00272961
0.00162322
0.00158767
0.00187049
0.00181657
0.00166185
0.00141658
0.00155291
0.00239779
0.00268163
0.00415858
0.00430739
0.00461063
0.00493122
0.00505337
0.00508708
0.00510758
0.00513037
0.00517843
0.00523469
0.00524903
0.00524424
0.00528219
0.0052737
0.00527433
0.00524576
0.00521344
0.0051762
0.00513672
0.00507187
0.00493771
0.00461499
0.00429804
0.00484616
0.00489016
0.00498052
0.00507417
0.00511407
0.00512066
0.00510289
0.00506705
0.00502474
0.00497524
0.00497471
0.00512018
0.00515465
0.00518036
0.0051656
0.00514837
0.00514258
0.00511967
0.00508239
0.00498752
0.00489242
0.00485185
0.00477072
0.00489858
0.00495542
0.00496453
0.00501337
0.0050913
0.00511352
0.0051125
0.0050742
0.0050417
0.00500035
0.00493382
0.0048477
0.00455602
0.00461418
0.00469153
0.00479239
0.0048899
0.00496882
0.00501319
0.00501623
0.00497037
0.00493992
0.00494165
0.00490049
0.00492255
0.00494446
0.00491901
0.00491594
0.00491987
0.00486455
0.00476322
0.00462203
0.00447239
0.00434783
0.0042828
0.0041788
0.00451869
0.0046474
0.00476266
0.00486534
0.00495804
0.00505081
0.00507953
0.00506925
0.00501174
0.0049786
0.00497639
0.00492799
0.00492604
0.00497291
0.00497566
0.00500334
0.00505271
0.00503866
0.00497046
0.00479631
0.00462671
0.00447921
0.00433842
0.00418835
0.00413891
0.00420663
0.00415252
0.00421344
0.00436139
0.00454586
0.00470499
0.00480613
0.00483802
0.0048681
0.00491258
0.00490808
0.00488178
0.00486708
0.00480712
0.00475499
0.00469108
0.0045513
0.00437254
0.00421414
0.00416197
0.00424535
0.00432955
0.00425133
0.00395614
0.00411375
0.00426298
0.00441192
0.00462236
0.00486455
0.00497094
0.00500883
0.00498445
0.00496495
0.00496164
0.00491723
0.00490197
0.00494285
0.00494685
0.00496652
0.00499778
0.0049661
0.00487842
0.00458158
0.00422805
0.00405834
0.00395831
0.00382324
0.00427256
0.00436143
0.00425401
0.00418169
0.00429536
0.0044284
0.00456659
0.00465882
0.00469577
0.00474709
0.00481434
0.00484673
0.004799
0.00474324
0.00467445
0.00463848
0.00463639
0.00461179
0.00452249
0.00441814
0.00429889
0.00444381
0.00452768
0.00444651
0.00403218
0.00409908
0.00419896
0.00425763
0.00458891
0.00487811
0.00494683
0.00494967
0.00491927
0.00489906
0.00489906
0.00487318
0.00482526
0.00481681
0.00481303
0.00487008
0.00494454
0.00498643
0.00500714
0.00479111
0.0043948
0.0043273
0.00414738
0.00406259
0.00450623
0.00455733
0.00445429
0.00435777
0.00456752
0.00465718
0.00468267
0.00466505
0.00461761
0.00458624
0.0046454
0.00473829
0.00466779
0.00436487
0.00409541
0.00423321
0.00426621
0.00425488
0.00419679
0.00410024
0.0038907
0.00434358
0.00478387
0.00482016
0.00435457
0.00436179
0.00422226
0.00393063
0.0043155
0.00451966
0.00456468
0.0045465
0.00447565
0.00430485
0.00454686
0.00476015
0.0047191
0.00427154
0.00277255
0.00281065
0.00283087
0.00283346
0.00279611
0.00278558
0.00274485
0.0027237
0.0026605
0.00259604
0.00253493
0.00270341
0.00284873
0.00304367
0.00305977
0.0031403
0.00300516
0.00284527
0.00265695
0.00206953
0.00262583
0.00313183
0.00332862
0.0035806
0.00363261
0.00419216
0.00441163
0.00453081
0.00444436
0.0035669
0.00302617
0.00241848
0.00157284
0.000979948
0.00115018
0.00119619
0.00125607
0.00153439
0.00282225
0.00143788
0.00199176
0.0015582
0.00267854
0.00142347
0.000890891
0.000591597
0.000755925
0.000898549
0.000907105
0.000868214
0.000723881
0.000568224
0.000580839
0.000540823
0.000574562
0.000516556
0.000591777
0.000553078
0.000773663
0.00116585
0.00132088
0.00134961
0.00109052
0.00122916
0.00102689
0.00118381
0.00105689
0.00115151
0.00110445
0.00135055
0.00148003
0.00141707
0.00142112
0.00124361
0.000869922
0.00100836
0.000792276
0.00095123
0.000727971
0.000940329
0.000806262
0.00104768
0.00108009
0.00107707
0.00103715
0.000792452
0.000939977
0.000740026
0.000910388
0.000745787
0.000796455
0.000663473
0.000962911
0.000980768
0.000902811
0.000963627
0.0010842
0.00116521
0.00128444
0.00121258
0.00137966
0.0013291
0.00134358
0.001272
0.00123615
0.0012078
0.0012101
0.00119008
0.0011965
0.00123496
0.00123677
0.00124155
0.00128075
0.00126189
0.00123162
0.00121353
0.00107826
0.000870058
0.00151541
0.00156284
0.00158594
0.00158543
0.00154967
0.00153266
0.00148077
0.00146683
0.0014216
0.0013946
0.00133352
0.00128275
0.00122523
0.00137673
0.000770132
0.000874225
0.000922762
0.000949803
0.000968782
0.000977339
0.000984414
0.00097882
0.000966668
0.000942628
0.000934278
0.000908193
0.00116189
0.00132133
0.00138096
0.00139688
0.00130952
0.00124705
0.00272475
0.00329664
0.00501625
0.00512674
0.00384737
0.00383713
0.00132939
0.00140152
0.000958283
0.00134671
0.00138863
0.00137459
0.00129871
0.000936899
0.00140651
0.000979949
0.00132329
0.000993786
0.00123451
0.0010201
0.00145472
0.00185415
0.00178981
0.0016212
0.00111264
0.00092795
0.000931708
0.000796248
0.00087178
0.000712681
0.000870761
0.000733326
0.00108787
0.00154349
0.00170492
0.00173864
0.00137055
0.00189042
0.00142123
0.00205687
0.00163234
0.0020121
0.00161397
0.00186773
0.00231085
0.00232108
0.00226602
0.0018265
0.0014646
0.00164378
0.00145667
0.00167742
0.00242341
0.00158848
0.00240837
0.000995287
0.00135662
0.00139818
0.00137888
0.00130001
0.000875805
0.00223053
0.00117955
0.00210293
0.00136237
0.00219018
0.00158943
0.00210782
0.00252269
0.00263953
0.00263187
0.00214752
0.00193837
0.00200679
0.00160394
0.00192487
0.00143102
0.00207471
0.00117169
0.00152119
0.00168325
0.00177144
0.001779
0.0014628
0.00288736
0.00181253
0.00273539
0.00190152
0.00243556
0.00195196
0.00213534
0.00252136
0.00250567
0.0024847
0.002107
0.00170482
0.00225037
0.00160581
0.0477921
0.110441
0.0439393
0.111587
0.0505627
0.0717376
0.0706724
0.0708003
0.0710419
0.0533275
0.116297
0.137462
0.143402
0.145188
0.144137
0.232942
0.189968
0.285456
0.185079
0.108875
0.0471961
0.0650926
0.168037
0.277518
0.416342
0.528185
0.359913
0.372468
0.23767
0.234268
0.220471
0.178256
0.10912
0.0547189
0.00940968
0.0103059
0.0147171
0.0195803
0.0154689
0.00950063
0.00187764
0.00193787
0.00198203
0.00201022
0.00200497
0.00196511
0.00200014
0.00189357
0.00178528
0.00199956
0.00217974
0.00230074
0.00271852
0.00300748
0.00271175
0.00297365
0.00315196
0.00329668
0.00341575
0.00359334
0.0037936
0.00397028
0.00398011
0.0036476
0.00310942
0.00253018
0.00212745
0.00201574
0.00189301
0.00166935
0.00152718
0.00143029
0.00138323
0.00136362
0.00140121
0.00153127
0.00164399
0.00168349
0.00165028
0.00161995
0.00159352
0.00141893
0.00165905
0.00227574
0.00229346
0.00392932
0.00452763
0.00462177
0.00462822
0.00410276
0.00262075
0.00262641
0.00263982
0.00268992
0.00270041
0.00270705
0.0027042
0.00269457
0.00267886
0.00264961
0.00263498
0.00259229
0.0025563
0.0024662
0.00247019
0.00250127
0.00252616
0.0024847
0.00249466
0.00244302
0.00317787
0.00424927
0.00479633
0.00501301
0.00519897
0.00504602
0.0069914
0.00597782
0.00419768
0.00413218
0.00408101
0.00483864
0.0048719
0.00440499
0.00442354
0.00403239
0.00251759
0.00251116
0.00251288
0.00268853
0.00274173
0.00283507
0.00286101
0.00288361
0.00289728
0.00289146
0.00288958
0.00286356
0.00284424
0.00277952
0.00275803
0.00274877
0.00151542
0.00165405
0.00171613
0.00172772
0.00175305
0.00174245
0.00173221
0.0017113
0.00169783
0.00166918
0.00163621
0.00158719
0.00149194
0.00135891
0.0014954
0.00253722
0.00253613
0.00413272
0.0046684
0.00470251
0.00522778
0.00496359
0.00470114
0.00504284
0.00454995
0.0045144
0.00408388
0.0025357
0.00257047
0.00152584
0.00151302
0.00176938
0.00172095
0.00183922
0.0018899
0.00189576
0.00192216
0.00194694
0.00197806
0.00202844
0.00204333
0.00201106
0.00200481
0.00188807
0.0016313
0.00165054
0.00194626
0.00204191
0.00189614
0.00186331
0.00184889
0.00180329
0.0017688
0.00173592
0.00175835
0.00189308
0.0018904
0.00185649
0.00176622
0.00171935
0.00148984
0.00143847
0.00251501
0.0025559
0.00423239
0.00432188
0.00428443
0.0049383
0.00551547
0.00627587
0.00535657
0.00435833
0.00456215
0.00521857
0.00388624
0.00325666
0.00193901
0.00144828
0.00181757
0.00166276
0.00173444
0.00179688
0.00159597
0.00171534
0.00158624
0.00144156
0.00143364
0.00143205
0.00146742
0.00148237
0.00150937
0.00151307
0.00155005
0.0015466
0.00155106
0.00156998
0.00157806
0.00174355
0.00189478
0.00159487
0.00135215
0.00131751
0.00124411
0.00118445
0.00121326
0.00118384
0.00117651
0.0011548
0.00113511
0.00108311
0.00112856
0.00119743
0.00140077
0.00134059
0.0010836
0.000968267
0.000661776
0.000675178
0.00067985
0.000700758
0.000708472
0.000717935
0.000721479
0.000733279
0.000735597
0.000739354
0.000739082
0.00075722
0.000754661
0.000746013
0.000740416
0.000744005
0.000747435
0.000746918
0.00109379
0.00121796
0.00133045
0.00158023
0.00185953
0.00160082
0.00135684
0.00116942
0.000751688
0.000762959
0.000776906
0.000784082
0.000800829
0.000816029
0.00083303
0.000843719
0.000851766
0.000860135
0.000868982
0.000872467
0.000870304
0.000853425
0.000843497
0.000864855
0.000950546
0.00100035
0.00106429
0.00108842
0.00110881
0.00111883
0.00111372
0.00112551
0.00111248
0.00111073
0.00109202
0.0010841
0.00107661
0.00106707
0.00105515
0.00102544
0.00101562
0.00106843
0.00181022
0.00236845
0.00272767
0.00300479
0.0027839
0.00226444
0.0023734
0.00417442
0.00395698
0.00233042
0.00217867
0.00201459
0.00176586
0.00152864
0.00184367
0.00210564
0.00230393
0.00247768
0.00263646
0.00274412
0.00288231
0.00306278
0.00338208
0.0034223
0.00312194
0.00253044
0.00214278
0.00200186
0.00193428
0.00181619
0.00168708
0.00172922
0.00174159
0.00168963
0.00162509
0.00160664
0.00163317
0.00166696
0.00164699
0.00164629
0.00147071
0.00147018
0.00251208
0.00255953
0.00393714
0.00414827
0.00418829
0.00269292
0.00265587
0.00155128
0.00144061
0.00157155
0.00163135
0.00163466
0.00164117
0.0016327
0.00160404
0.00158309
0.00155874
0.00153892
0.00152144
0.00149125
0.00143375
0.00132416
0.00144291
0.00161826
0.00169008
0.00170879
0.00171776
0.00174497
0.00178945
0.00182516
0.00190803
0.00191666
0.00191603
0.00192287
0.00179731
0.00185368
0.00156882
0.00156667
0.00271541
0.00270816
0.00155582
0.00183722
0.00184953
0.00182831
0.00196816
0.00180098
0.00174375
0.00173425
0.00166059
0.00162145
0.00156933
0.00153813
0.00156814
0.001668
0.00161484
0.00143095
0.00137922
0.00154736
0.00148884
0.00123531
0.00105546
0.00102646
0.000982604
0.000956023
0.00100209
0.00103799
0.00105848
0.00108452
0.00109226
0.00114016
0.00110939
0.0011643
0.00123473
0.00129087
0.00153128
0.00165927
0.00149899
0.00147013
0.00145189
0.00145016
0.0014547
0.00139458
0.0013906
0.00135957
0.00134429
0.00130378
0.00128546
0.00126214
0.00126625
0.00127955
0.00140664
0.00362506
0.0046213
0.00481182
0.00821246
0.00331976
0.00338946
0.00663807
0.00275077
0.00413328
0.00442822
0.00463201
0.00483774
0.0044264
0.00561814
0.00392608
0.00437409
0.00455974
0.0039919
0.0014959
0.00170583
0.00196616
0.00175541
0.00155055
0.0010568
0.00113942
0.00117662
0.00120688
0.0012264
0.00124823
0.00127157
0.00129352
0.00130891
0.00130914
0.00126936
0.00122647
0.00112791
0.00109508
0.00113749
0.00118133
0.00103757
0.000976932
0.000988494
0.00100481
0.00101397
0.00101596
0.00102595
0.00102867
0.00104443
0.00103604
0.00104399
0.00102617
0.00103527
0.0010217
0.0009868
0.000937874
0.000854653
0.000834271
0.00120163
0.00127952
0.0013441
0.00152508
0.00176075
0.00187878
0.0016838
0.00155256
0.00149027
0.00165322
0.00165384
0.00300465
0.0057696
0.00258288
0.00289468
0.00844167
0.00335407
0.00260766
0.00264724
0.00267512
0.00267886
0.00155689
0.00184407
0.00178817
0.00179526
0.00152262
0.00127833
0.00114647
0.00102504
0.000695029
0.000692704
0.000697932
0.000708588
0.000711895
0.000681359
0.000681276
0.000677373
0.000675844
0.000661483
0.000657476
0.000645815
0.000638732
0.000621951
0.000612845
0.00059686
0.000594076
0.000620208
0.000689961
0.000834134
0.00092791
0.00105488
0.00107393
0.00120878
0.0029932
0.00347287
0.0047845
0.00474704
0.00748844
0.00467847
0.00353397
0.0031929
0.00467182
0.00482593
0.00447507
0.00606396
0.004196
0.00277793
0.00418227
0.00348045
0.00411379
0.00403663
0.00428486
0.00681388
0.00718581
0.00202249
0.00180291
0.00189647
0.00215153
0.00255441
0.00235343
0.00268021
0.00268015
0.00207052
0.00131385
0.00418547
0.00504366
0.00405359
0.00487379
0.00753142
0.00302415
0.00294938
0.00260988
0.0021785
0.00197993
0.00195361
0.00217837
0.00260647
0.00653182
0.00698396
0.00644399
0.00641938
0.0058203
0.00639255
0.00798508
0.00795102
0.00702815
0.00657655
0.00681131
0.00421767
0.00261867
0.00305189
0.003383
0.0045143
0.00465401
0.00983343
0.00333441
0.00368341
0.00374134
0.00500602
0.00484526
0.00857145
0.00362859
0.00391391
0.005158
0.006897
0.0127264
0.00463862
0.0048879
0.00703373
0.00714111
0.00652566
0.0047115
0.00426803
0.00465204
0.00350445
0.0034257
0.00292355
0.00431646
0.00581372
0.00459581
0.00446264
0.00379629
0.00337867
0.00346101
0.00359222
0.00298333
0.00294178
0.00339513
0.00251855
0.00243796
0.00257931
0.000716264
0.00036711
0.00037528
0.000385011
0.000392928
0.000401079
0.000407052
0.000414127
0.000417337
0.000417679
0.000418733
0.000442882
0.000438804
0.000424939
0.000385862
0.000440337
0.000698776
0.000699268
0.000439867
0.000387788
0.000695789
0.00110877
0.00130727
0.00154657
0.00156582
0.00135102
0.00117127
0.000720848
0.000709529
0.000430077
0.000502279
0.00054545
0.000483766
0.000539882
0.000500371
0.00053
0.00053544
0.000495341
0.000492597
0.000494502
0.000490706
0.000481983
0.000471322
0.000458346
0.000448161
0.000442654
0.000438437
0.000429101
0.000356305
0.000332224
0.000399913
0.000638245
0.000637395
0.000597321
0.000562874
0.00053337
0.000519817
0.000515921
0.000513008
0.000521941
0.000538836
0.000543604
0.000548365
0.00059093
0.000572586
0.000611604
0.000573985
0.000613262
0.00057563
0.000529536
0.000444628
0.000458755
0.000740068
0.000747952
0.00120863
0.00138276
0.00156798
0.00157611
0.00175919
0.00185257
0.00156872
0.00162863
0.00186664
0.00173862
0.00154999
0.001556
0.00139979
0.00140104
0.00124098
0.000775461
0.000764906
0.000480386
0.000466516
0.000556283
0.000546527
0.000607826
0.000650484
0.000650666
0.000648546
0.000632094
0.000626219
0.000550654
0.000539864
0.000540579
0.000524227
0.000520829
0.000543347
0.000593429
0.000696874
0.000843045
0.000917868
0.000949682
0.000910544
0.000815182
0.000601908
0.000543693
0.000942537
0.000977983
0.00175254
0.00414906
0.00193507
0.00369477
0.00266734
0.00066327
0.000739863
0.000943492
0.00105725
0.00114163
0.00119008
0.0010879
0.000907855
0.000683663
0.000564522
0.000842722
0.000728681
0.000822852
0.000718679
0.000930074
0.00107538
0.00104031
0.00104813
0.000885776
0.000721571
0.00076418
0.000686084
0.000756259
0.00063308
0.00076172
0.000687692
0.000864186
0.000872277
0.000854109
0.000809568
0.000616403
0.000646716
0.000542481
0.000588457
0.000528321
0.000546008
0.000517396
0.000603328
0.000695212
0.000667192
0.000664558
0.000546008
0.000427818
0.00047251
0.000408532
0.000462381
0.000359321
0.000435298
0.000365043
0.000472581
0.000487239
0.00049
0.000487111
0.000396522
0.000466082
0.000570794
0.000599092
0.000603893
0.000575264
0.000443379
0.000686154
0.00061938
0.000756324
0.000654251
0.000716133
0.000652169
0.000760166
0.000973575
0.00101648
0.00102327
0.000830182
0.000824952
0.00150451
0.0834062
0.00135337
0.00159958
0.00164939
0.00164339
0.00135867
0.00132559
0.00164166
0.00121451
0.00171983
0.00108282
0.00183412
0.000699337
0.00106311
0.0011414
0.00113899
0.00105855