/*--------------------------------*- C++ -*----------------------------------*\
| =========                 |                                                 |
| \\      /  F ield         | OpenFOAM: The Open Source CFD Toolbox           |
|  \\    /   O peration     | Version:  v2012                                 |
|   \\  /    A nd           | Website:  www.openfoam.com                      |
|    \\/     M anipulation  |                                                 |
\*---------------------------------------------------------------------------*/
FoamFile
{
    version     2.0;
    format      ascii;
    class       volScalarField;
    location    "650";
    object      k;
}
// * * * * * * * * * * * * * * * * * * * * * * * * * * * * * * * * * * * * * //

dimensions      [0 2 -2 0 0 0 0];


internalField   nonuniform List<scalar> 
18258
(
0.0336505
0.0158496
0.0124132
0.0102613
0.0110213
0.0140556
0.0168563
0.021229
0.0256516
0.0315798
0.0386335
0.0475522
0.0535405
0.0606744
0.0636405
0.0619356
0.0520528
0.047295
0.0565677
0.0810498
0.0710611
0.051421
0.0622498
0.0615648
0.0726359
0.0768922
0.0605192
0.0552221
0.0497918
0.0441069
0.0375691
0.0234793
0.0241196
0.0288183
0.0320931
0.03584
0.0387383
0.0411349
0.0427674
0.0435795
0.0434822
0.042174
0.0394676
0.0353723
0.029855
0.0237905
0.023046
0.0240446
0.0297995
0.0352325
0.0405963
0.0461539
0.0545603
0.044649
0.0290229
0.0392029
0.047685
0.0545732
0.0589935
0.0614356
0.0621915
0.0612717
0.058976
0.0557112
0.0517453
0.0474023
0.0433809
0.0393922
0.034148
0.0308846
0.0267715
0.0234262
0.0209848
0.0192713
0.0181519
0.017151
0.0162875
0.0155561
0.0149408
0.0145191
0.0144266
0.0144503
0.0145482
0.0146429
0.0149835
0.0126429
0.0108771
0.0104102
0.0101609
0.00951927
0.00807471
0.0106315
0.0117417
0.0121591
0.0124294
0.0136005
0.0147284
0.0142969
0.0135717
0.0124508
0.0127305
0.0171628
0.0178754
0.0229237
0.0217992
0.0170427
0.0147816
0.0165689
0.0193744
0.0224342
0.0192395
0.0192057
0.0179067
0.0170135
0.0148609
0.0148854
0.0143629
0.0140561
0.0149667
0.0177309
0.0171488
0.0172704
0.0184804
0.0187963
0.0200149
0.0210259
0.0203633
0.0201821
0.016325
0.0162255
0.0172639
0.0171385
0.0176171
0.0201201
0.0201764
0.0205149
0.0207288
0.0235118
0.0235307
0.0235
0.0235909
0.0244461
0.0234752
0.0230594
0.0230845
0.023119
0.020954
0.0207348
0.0203763
0.0204158
0.0182408
0.017505
0.0182375
0.0192165
0.0211871
0.0249244
0.0313519
0.0402655
0.0503529
0.0605875
0.0683571
0.0727159
0.0770857
0.076555
0.0772692
0.0793788
0.0797593
0.078628
0.0767844
0.0746286
0.0716867
0.0670677
0.0666214
0.0589978
0.0481231
0.0334014
0.0389179
0.0417662
0.0445283
0.0448276
0.0453029
0.0440775
0.042301
0.0387036
0.0335798
0.0247083
0.0259531
0.030409
0.0350643
0.0388465
0.0430062
0.046603
0.0483917
0.0500497
0.0593548
0.0572007
0.0553236
0.0571264
0.0586788
0.0618608
0.0602573
0.0563263
0.0504737
0.0520987
0.0452497
0.033906
0.0316794
0.0295546
0.0271123
0.0377641
0.0495805
0.0612468
0.0676555
0.0738494
0.078728
0.0827716
0.0873135
0.08183
0.0766474
0.0578397
0.0840425
0.0660024
0.0507194
0.0414741
0.0336923
0.0305613
0.0337048
0.0339603
0.0322522
0.0276705
0.0219032
0.0231891
0.0361045
0.045941
0.0540039
0.0555921
0.0603163
0.0627902
0.0574513
0.0580366
0.0471217
0.0483377
0.0517661
0.0465078
0.0441498
0.0355409
0.0277843
0.0336523
0.0500843
0.0687672
0.0848039
0.099863
0.0663506
0.0504457
0.0413427
0.0345683
0.0332659
0.0378467
0.0438003
0.0530069
0.0411868
0.0371581
0.0336713
0.030824
0.0255541
0.0273193
0.0284714
0.0268302
0.0500363
0.0579055
0.0615384
0.0838452
0.0923164
0.108255
0.107167
0.0926118
0.0961177
0.068827
0.0687282
0.0862692
0.0682195
0.0512305
0.0614684
0.074324
0.088086
0.101217
0.112517
0.121607
0.12334
0.111885
0.0811141
0.0466958
0.021261
0.0186329
0.0180875
0.0173782
0.0164893
0.0156798
0.0150501
0.012102
0.00948598
0.0092737
0.00945751
0.00940425
0.00825607
0.0095108
0.0115736
0.0137622
0.0152675
0.016474
0.0174917
0.0182231
0.0188098
0.0192072
0.0195029
0.019769
0.0200023
0.0201857
0.0203206
0.020408
0.0204472
0.0204306
0.0203523
0.020211
0.0200049
0.0197179
0.019247
0.0177258
0.0158807
0.015056
0.015115
0.0148664
0.0145661
0.0119366
0.0123068
0.0143238
0.0149543
0.0177382
0.0197688
0.021467
0.0229155
0.0244361
0.0252098
0.0260357
0.0262991
0.0263494
0.026247
0.026095
0.0258693
0.0255665
0.0245056
0.0212665
0.0248714
0.027271
0.0289675
0.0303278
0.0312415
0.0313531
0.028603
0.0360516
0.0385102
0.0394156
0.0396751
0.0388487
0.0368369
0.0343916
0.0323393
0.0308311
0.0297132
0.0275725
0.025325
0.0230156
0.0206004
0.0173799
0.0186517
0.0204901
0.0207001
0.0204086
0.0214578
0.0227154
0.021057
0.0189613
0.0160886
0.0150923
0.0146074
0.0144199
0.0148344
0.0144878
0.0143811
0.0148762
0.0178712
0.0189611
0.0206617
0.0239231
0.0227896
0.0208469
0.0280225
0.0296324
0.0300841
0.0304361
0.0303403
0.0295831
0.0265012
0.0250447
0.026433
0.0249781
0.0243444
0.0244325
0.0240653
0.0221971
0.0244979
0.0264987
0.0280888
0.0289363
0.0301807
0.0317361
0.0338999
0.0356954
0.0373571
0.0383662
0.0383521
0.0378196
0.0379974
0.038649
0.0383373
0.0366456
0.0345645
0.0324651
0.0294943
0.0293098
0.0312883
0.0328544
0.034518
0.0362954
0.0356111
0.0337189
0.0320897
0.0306664
0.0289528
0.0288318
0.0305111
0.0319578
0.0336999
0.0358246
0.0359989
0.0338533
0.0320314
0.030524
0.0288187
0.028786
0.0304887
0.032004
0.033731
0.0356213
0.0347486
0.033276
0.0317506
0.0302803
0.028614
0.0281764
0.0297821
0.0311666
0.0324828
0.0335496
0.031873
0.0312825
0.0302108
0.02882
0.0270606
0.0258069
0.0263156
0.0277039
0.0278149
0.0282948
0.0294142
0.0292608
0.0289774
0.0289307
0.0286485
0.0264024
0.02681
0.0268603
0.0275532
0.0308578
0.0303745
0.03304
0.0354472
0.0331347
0.0316487
0.0280892
0.033661
0.0336979
0.03465
0.0334681
0.0237091
0.0218573
0.022856
0.0243863
0.0260246
0.0253287
0.0225878
0.0225183
0.0231228
0.0225296
0.0209597
0.0179779
0.0135065
0.0135156
0.013506
0.0142393
0.017041
0.0186325
0.0187394
0.0185805
0.0182744
0.0177983
0.0170749
0.0159955
0.0156269
0.0248161
0.0452818
0.0565836
0.0559081
0.0425155
0.0357394
0.0265134
0.0185782
0.0114145
0.0107755
0.0114616
0.0137332
0.0114691
0.0110563
0.0152143
0.012147
0.020157
0.0232098
0.0303097
0.0414532
0.0401673
0.0306417
0.0204758
0.018376
0.019233
0.0197609
0.0201522
0.0205363
0.020924
0.0213456
0.021859
0.0215386
0.0189058
0.0166652
0.0167872
0.0173589
0.0198624
0.0212475
0.0220448
0.0217151
0.0219678
0.0236744
0.0224371
0.0212141
0.0210046
0.0202961
0.0231335
0.02348
0.0228548
0.0228548
0.023133
0.0230211
0.0231592
0.0239612
0.0197802
0.0219017
0.0224539
0.0227343
0.023526
0.0190398
0.0192331
0.0193027
0.0181598
0.0148866
0.0179739
0.0167376
0.0121514
0.0134646
0.0134316
0.0140436
0.0143675
0.0171205
0.0162942
0.015568
0.016334
0.0222996
0.0231001
0.0232722
0.0206241
0.0193773
0.0218679
0.0224616
0.0220102
0.0211186
0.0212766
0.0203296
0.018427
0.0177081
0.0178452
0.0192555
0.020056
0.020129
0.0237294
0.023224
0.0216634
0.0226475
0.023247
0.0228316
0.0227207
0.0226627
0.0222899
0.0218657
0.0222803
0.0224714
0.022525
0.0220843
0.0223374
0.0249695
0.0214159
0.0212272
0.020153
0.0194983
0.0178729
0.0176199
0.017718
0.0176783
0.0175845
0.0167485
0.0186028
0.0178766
0.0200083
0.0216183
0.0227664
0.0239346
0.0240829
0.0236505
0.0236086
0.0232224
0.0231865
0.0226384
0.0217958
0.0212147
0.0204424
0.0192374
0.0192304
0.0191818
0.0190385
0.0204413
0.0203412
0.0219035
0.0230214
0.0227341
0.0217716
0.0216616
0.0204879
0.0204639
0.0215022
0.0223881
0.0226393
0.0234983
0.0260266
0.0236884
0.0252411
0.02594
0.0266045
0.0259938
0.0248958
0.0256476
0.0239886
0.0228781
0.0241962
0.0249191
0.026181
0.0269752
0.0249982
0.0239707
0.0227738
0.0219119
0.0209271
0.0184069
0.0190175
0.0198049
0.0210354
0.0228472
0.0255675
0.0282978
0.0312231
0.0312789
0.0289769
0.0272896
0.0320942
0.0315645
0.0365381
0.0371431
0.0330152
0.0302094
0.0272978
0.0268714
0.0259498
0.0254135
0.0241396
0.0253863
0.0258072
0.024865
0.0273338
0.0289052
0.0332382
0.0387983
0.0354582
0.0326339
0.0376993
0.0366179
0.0425741
0.0363545
0.0347005
0.0285543
0.0331667
0.0355268
0.0432623
0.0338532
0.0296705
0.0294535
0.0307816
0.0382652
0.0368001
0.0393891
0.0445561
0.0438993
0.0390266
0.0357909
0.0415392
0.0315787
0.0370211
0.0390338
0.0324153
0.0321668
0.0390377
0.0396616
0.0398298
0.0337524
0.0330184
0.0249978
0.0335534
0.0400312
0.0399482
0.0331702
0.0259721
0.035869
0.0315004
0.0313027
0.0313019
0.0269007
0.0268316
0.0261283
0.026383
0.0270934
0.0246537
0.0254573
0.0257172
0.0258806
0.0260128
0.0262067
0.0265539
0.0272016
0.0279362
0.0228605
0.0242962
0.0229351
0.0215994
0.0202587
0.0240358
0.0265153
0.0283272
0.0297852
0.0309218
0.0314038
0.0299958
0.0379447
0.0395964
0.0412784
0.041435
0.0401864
0.0374944
0.0340352
0.0305802
0.0284666
0.0271702
0.0247123
0.0226123
0.0205636
0.0184347
0.0156499
0.0143165
0.0129905
0.011603
0.0112501
0.0107099
0.0101153
0.00944818
0.00909319
0.0114731
0.0166181
0.0271909
0.0328347
0.038783
0.0456419
0.0519801
0.05709
0.0609377
0.0637416
0.0655576
0.0660795
0.0636349
0.0533548
0.0483417
0.0434257
0.0384041
0.033231
0.0322555
0.0414408
0.0497254
0.0566885
0.062951
0.0670119
0.0653565
0.0497738
0.0468022
0.0626337
0.0901655
0.0810146
0.104035
0.120207
0.0798103
0.0649616
0.0640723
0.0794484
0.0819422
0.0754336
0.0665939
0.0568417
0.0459603
0.051131
0.0559951
0.0605711
0.0651664
0.077593
0.0798695
0.0785923
0.075942
0.072583
0.0682658
0.0619922
0.053817
0.0445323
0.0362194
0.0287339
0.0176953
0.012624
0.0135484
0.0130988
0.0139548
0.0139886
0.0100877
0.0104048
0.0105781
0.0104644
0.0101713
0.0102054
0.0115995
0.0180856
0.0148789
0.0135002
0.0116465
0.0143732
0.0161843
0.017956
0.0184427
0.018647
0.022321
0.0373727
0.0446274
0.0499292
0.0545335
0.057327
0.0560931
0.0528376
0.0471449
0.0404957
0.0377831
0.0337467
0.0302156
0.0283596
0.0291685
0.0256076
0.0159774
0.0147258
0.0157647
0.0154661
0.0144717
0.0164134
0.0176246
0.0183908
0.0190088
0.019469
0.0198208
0.0200694
0.020232
0.0203142
0.0203343
0.0203066
0.0202362
0.020122
0.0199615
0.019744
0.0194396
0.0189233
0.0172265
0.0154
0.0146943
0.0147789
0.0145492
0.0141882
0.0123143
0.0125401
0.0144027
0.015004
0.0146099
0.0151911
0.0156521
0.0168323
0.0189929
0.0211271
0.0229608
0.0216609
0.0210166
0.0209959
0.0205904
0.0175075
0.0208037
0.023626
0.0241314
0.0243908
0.0251982
0.0267864
0.0277451
0.0268202
0.0263298
0.0258073
0.0227653
0.0243845
0.0278727
0.02828
0.0289422
0.0295305
0.030093
0.0313851
0.0307625
0.0298863
0.0292997
0.0264842
0.0256265
0.0317258
0.0207021
0.0145188
0.0104873
0.0109167
0.0111417
0.0108221
0.0115635
0.0120729
0.0122723
0.0115888
0.0126732
0.0135898
0.0128752
0.015548
0.0148264
0.0137881
0.0133539
0.0141405
0.0148856
0.0152845
0.0164166
0.0264816
0.0272696
0.0227664
0.0292307
0.0318485
0.0289688
0.0318196
0.0295114
0.0281419
0.0309155
0.0342849
0.0355105
0.0332031
0.0318171
0.0311613
0.0207846
0.020095
0.0193804
0.0175204
0.0177535
0.0172648
0.0167996
0.0163769
0.018795
0.0201922
0.0212448
0.020947
0.0206206
0.0202352
0.0216646
0.0266184
0.0364207
0.0440471
0.0464736
0.0451957
0.0415864
0.0352017
0.0293364
0.0287311
0.026687
0.025311
0.0249458
0.018991
0.0150005
0.0174392
0.0174056
0.0184606
0.0191216
0.0196388
0.0200498
0.0203906
0.0206819
0.0209612
0.0212234
0.0214534
0.0216481
0.0218166
0.0219572
0.022109
0.022291
0.0225436
0.0227477
0.0211534
0.0185623
0.0172347
0.0170886
0.0178009
0.0186991
0.0198247
0.0190882
0.015381
0.0154562
0.0218694
0.0222865
0.020912
0.019496
0.0197029
0.0188653
0.0226204
0.0224128
0.0231543
0.0229454
0.0226648
0.0223855
0.0221069
0.0218224
0.0215595
0.0213293
0.021121
0.0209278
0.0207368
0.0205311
0.0202631
0.0198641
0.0191911
0.0183933
0.0170756
0.0182728
0.0193134
0.0208933
0.0228086
0.0238464
0.0229974
0.0216949
0.0210159
0.0211391
0.0214196
0.0217351
0.0220746
0.0224677
0.0228921
0.0232939
0.0232709
0.0219946
0.0226268
0.0174062
0.0182625
0.0185604
0.018518
0.0201835
0.0193492
0.0146636
0.0151576
0.0158645
0.0171293
0.0196882
0.02004
0.0213679
0.0215887
0.0172584
0.0169455
0.0165228
0.017544
0.0151862
0.0158079
0.0264596
0.0271044
0.0348436
0.0381758
0.0398061
0.0330846
0.0455324
0.0523554
0.0504478
0.0408558
0.0234667
0.0345717
0.0421005
0.0487289
0.045645
0.0354882
0.0447932
0.0472966
0.063117
0.058723
0.052361
0.0631352
0.0446356
0.026851
0.015809
0.0163856
0.0151993
0.0306291
0.0347276
0.0314113
0.0322538
0.0398876
0.040905
0.0361549
0.0344872
0.0362442
0.0358004
0.0397351
0.0370264
0.0336827
0.023261
0.0189942
0.0198233
0.0212205
0.0230394
0.0253759
0.0252744
0.0241367
0.0227816
0.0218155
0.0207731
0.0182844
0.0176388
0.0195926
0.0212176
0.0225921
0.0240955
0.0249113
0.0257485
0.0259137
0.0258069
0.0254865
0.0250613
0.0245103
0.0238303
0.0224255
0.0236443
0.0243197
0.0245249
0.0247997
0.0251089
0.0253811
0.0255176
0.0254002
0.024462
0.023661
0.0225009
0.0213861
0.019785
0.0176757
0.0183536
0.0201054
0.0216982
0.0228083
0.0238539
0.0234596
0.0239412
0.0245864
0.0246115
0.0244337
0.0242107
0.0240606
0.0241533
0.0247879
0.0265009
0.0262302
0.0290939
0.0302861
0.0277065
0.0263701
0.0256732
0.0252448
0.0249984
0.0247924
0.0245944
0.0240515
0.0235079
0.0240069
0.0242599
0.0245572
0.0249156
0.0254241
0.0261188
0.0272186
0.0286359
0.0285075
0.0262249
0.0260635
0.0250012
0.0242113
0.0238364
0.0237852
0.0238344
0.0239384
0.0238769
0.0233664
0.0230465
0.0234532
0.0224479
0.0225179
0.02155
0.0201983
0.0187638
0.0173159
0.0166568
0.0351659
0.0351659
0.0456839
0.0423096
0.0369839
0.0469905
0.0599541
0.0519724
0.0626937
0.0664622
0.0539946
0.0502041
0.0277937
0.0243216
0.0173866
0.0189075
0.0202464
0.0214439
0.0212596
0.022175
0.0220562
0.0230153
0.0224731
0.0216838
0.0211549
0.0201438
0.0202009
0.0189352
0.0173954
0.0172615
0.0189037
0.0199272
0.0211019
0.0210853
0.0225383
0.0230482
0.0234441
0.0235937
0.0235805
0.0236635
0.0238328
0.0242784
0.0249946
0.0254688
0.0256353
0.0261207
0.025872
0.0255499
0.0250889
0.0247743
0.0244516
0.0241685
0.0238705
0.0235899
0.0231581
0.0225045
0.0223846
0.0228984
0.0232417
0.0234814
0.0236234
0.0236126
0.0234287
0.0231231
0.0228171
0.0224719
0.0225247
0.0237356
0.023944
0.0240538
0.0238293
0.0236575
0.0236425
0.0235308
0.0234423
0.0232163
0.0228497
0.0223767
0.0213121
0.0214147
0.0222939
0.0227387
0.0230677
0.0233436
0.0233519
0.0232552
0.0228746
0.0225855
0.0222526
0.0217149
0.0210253
0.0186943
0.0191614
0.0197759
0.0206047
0.0214388
0.0221482
0.0225973
0.0227793
0.022768
0.0225888
0.0222321
0.021483
0.0214644
0.0220083
0.0221841
0.0221437
0.0218518
0.021247
0.0203322
0.0191373
0.0179265
0.0169521
0.0164515
0.0156579
0.0182019
0.0192051
0.0201273
0.0209727
0.0217745
0.0226289
0.0229771
0.023061
0.0229073
0.0226436
0.0222299
0.0214597
0.0214696
0.0221734
0.0225648
0.0227816
0.022881
0.0225818
0.0218893
0.0203564
0.0189481
0.0177829
0.0167174
0.0156125
0.0152585
0.0157611
0.0153786
0.015855
0.0170034
0.0184945
0.0198571
0.0208269
0.0214084
0.0216818
0.0217008
0.0213639
0.021187
0.0213254
0.0211417
0.0206641
0.019815
0.0185434
0.0170658
0.0158206
0.0154053
0.0160153
0.0166661
0.0160674
0.0139024
0.0150154
0.0160815
0.0171913
0.0188578
0.0209129
0.0219338
0.0224288
0.0225807
0.0224635
0.0220999
0.0214476
0.0213957
0.0220185
0.0223713
0.0224649
0.0223612
0.0218846
0.0210171
0.0185071
0.0157957
0.0145829
0.0138982
0.0129517
0.0162161
0.016911
0.0160903
0.0155548
0.0164217
0.0174873
0.0186643
0.0195616
0.0201939
0.0206802
0.0209385
0.0209523
0.0206846
0.0205851
0.0203795
0.0200441
0.0197033
0.0193431
0.0185381
0.0176957
0.0167438
0.0178107
0.0183871
0.0176311
0.0144416
0.0150055
0.0157767
0.0162151
0.0188211
0.0213178
0.0220439
0.0222968
0.0224176
0.0223038
0.0219215
0.0213115
0.0211919
0.0218197
0.0222816
0.0225501
0.0228019
0.0229124
0.0229938
0.0210629
0.0178684
0.0172283
0.0155702
0.0147365
0.0181865
0.0188865
0.0184096
0.0178476
0.0194952
0.0201934
0.020456
0.0204648
0.020399
0.0203036
0.0203109
0.0204086
0.0201129
0.0200047
0.020116
0.0203325
0.0202823
0.0200475
0.0194685
0.0187034
0.017638
0.0194799
0.021157
0.0208874
0.016974
0.0175121
0.0182898
0.0177511
0.0203584
0.02223
0.0227628
0.0227994
0.0225667
0.0221457
0.0216349
0.0210093
0.020737
0.0212895
0.0218534
0.0219006
0.0220229
0.0219994
0.0214392
0.0212804
0.0207102
0.0204468
0.019688
0.0191183
0.0183685
0.0205389
0.0237397
0.0259402
0.0275212
0.0294079
0.0280054
0.0245011
0.0222475
0.0153005
0.0153135
0.0155446
0.014905
0.0145262
0.0143496
0.0187782
0.0215177
0.0242232
0.0259816
0.0235262
0.0234991
0.023417
0.0232989
0.0231853
0.0230934
0.0228939
0.0237869
0.0417809
0.283434
0.211223
0.236314
0.225283
0.315764
0.0806883
0.0394552
0.0439282
0.0515948
0.0598731
0.0585061
0.0544008
0.0474203
0.0428426
0.0424274
0.0416934
0.041448
0.0394659
0.0393721
0.0380088
0.0446545
0.0902038
0.121388
0.135179
0.143816
0.153299
0.148832
0.158129
0.150319
0.150959
0.152642
0.157385
0.15005
0.142659
0.138764
0.134501
0.117299
0.117675
0.0993728
0.103227
0.0861958
0.0906453
0.0945729
0.0939331
0.0927119
0.0924723
0.0927188
0.0934929
0.096974
0.0924023
0.0996354
0.0930412
0.0758069
0.073459
0.0761053
0.0702148
0.0613809
0.0698752
0.0859624
0.102344
0.118772
0.100418
0.123644
0.115938
0.114868
0.109205
0.10303
0.0993035
0.0986262
0.0992548
0.100368
0.102984
0.104854
0.106399
0.109184
0.117671
0.119821
0.118243
0.100889
0.0857746
0.0942059
0.0989879
0.102745
0.103077
0.0984933
0.0962437
0.0898549
0.0882601
0.0826506
0.0801225
0.0746026
0.0713603
0.0665542
0.0829299
0.0811914
0.0881434
0.0943606
0.098658
0.102226
0.103828
0.104999
0.103785
0.101366
0.0965261
0.0945916
0.0898936
0.108183
0.126527
0.129481
0.125029
0.111601
0.106065
0.33836
0.410351
0.411493
0.610112
0.651029
0.840942
0.334789
0.180093
0.192474
0.189155
0.180995
0.177767
0.177443
0.189037
0.197856
0.189107
0.199326
0.17869
0.174692
0.172774
0.203303
0.202015
0.182934
0.160823
0.130123
0.107748
0.109244
0.0912768
0.0924474
0.0783287
0.0774422
0.0767978
0.0910871
0.163838
0.205648
0.2322
0.25854
0.318526
0.288778
0.437151
0.351211
0.437172
0.302305
0.326505
0.312343
0.30367
0.30168
0.317645
0.339533
0.298753
0.371378
0.297854
0.645655
0.781763
0.497054
0.4592
0.407384
0.393419
0.383658
0.378177
0.369896
0.486291
0.451318
0.5496
0.510214
0.634415
0.563369
0.577696
0.544663
0.586405
0.608932
0.62394
0.503637
0.557546
0.436268
0.473639
0.391225
0.425725
0.295996
0.292811
0.331519
0.368977
0.393968
0.448797
0.70775
0.601706
0.811856
0.582494
0.704493
0.489507
0.535713
0.511835
0.494043
0.495461
0.523288
0.627834
0.607488
0.69289
0.514675
0.526978
0.516675
0.534021
0.523445
0.558379
0.563052
0.564211
0.562163
0.523397
0.533953
0.532157
0.531955
0.53198
0.532324
0.509568
0.512744
0.505214
0.510995
0.526918
0.514567
0.514489
0.512357
0.504786
0.502733
0.50225
0.504006
0.503777
0.508906
0.508776
0.509112
0.51216
0.526862
0.514424
1.81925
0.901549
0.429274
0.339014
0.220441
0.134882
0.0553688
0.0597426
0.0625824
0.0634059
0.0612531
0.0557893
0.0476208
0.0377094
0.0299785
0.0290039
0.0258505
0.0271231
0.0345702
0.0421141
0.0384351
0.0462104
0.0538997
0.0621951
0.0701583
0.0771082
0.0829983
0.085957
0.0829495
0.0702594
0.0526076
0.0352512
0.0250261
0.0226357
0.0209973
0.0190037
0.0169021
0.0152643
0.0142575
0.0130829
0.0124474
0.0123547
0.0125664
0.0128026
0.0132365
0.0147483
0.0160452
0.0172265
0.0181836
0.0184276
0.0179243
0.0184647
0.019059
0.0194516
0.019793
0.0196321
0.0196325
0.0198794
0.0198394
0.0200435
0.0199436
0.0199459
0.0198035
0.0196264
0.0193991
0.01896
0.018682
0.018123
0.0177797
0.0169658
0.0170013
0.0174212
0.017752
0.016761
0.0167163
0.0159407
0.0264148
0.0474356
0.0608936
0.0659299
0.0712277
0.0672408
0.0567912
0.0387599
0.0191036
0.0188364
0.0193007
0.0218187
0.0213323
0.0173781
0.0181579
0.0187407
0.0174909
0.0173323
0.0173602
0.0193392
0.0199132
0.0212899
0.0217791
0.022182
0.0224028
0.0224067
0.0225089
0.0222716
0.0222805
0.0219227
0.0219097
0.0216021
0.0213729
0.0216564
0.022335
0.0223959
0.0230003
0.0226969
0.0223807
0.0218238
0.0213978
0.0205566
0.0196225
0.0186364
0.0171237
0.0166974
0.0172334
0.0177684
0.017326
0.0188312
0.0200418
0.0197169
0.0244542
0.0227321
0.0202886
0.0228047
0.0185406
0.0187245
0.0181893
0.0170842
0.0176286
0.0171058
0.0169891
0.0172666
0.0175264
0.0186745
0.0196195
0.0202627
0.0211191
0.0217782
0.0224885
0.0236699
0.0239761
0.0230383
0.022875
0.0217072
0.0210344
0.0207254
0.0216451
0.0229175
0.0228051
0.0236533
0.0233982
0.0221745
0.021369
0.0205089
0.0195376
0.0188795
0.0181236
0.0174108
0.0170151
0.0162312
0.0163725
0.0153289
0.0168586
0.0171358
0.0191123
0.0174
0.0169754
0.0224373
0.0281931
0.0440148
0.0320771
0.0211502
0.022571
0.0305243
0.0377164
0.0260207
0.0255946
0.0149401
0.0165125
0.0152503
0.0154981
0.016564
0.0168453
0.0179873
0.0190325
0.0192606
0.0200052
0.0203406
0.0211143
0.021368
0.0220987
0.0222882
0.0235393
0.0236069
0.0236821
0.0236632
0.0229026
0.0228323
0.0228833
0.0233166
0.0230911
0.023748
0.0237725
0.0238477
0.0237792
0.022462
0.0221452
0.0213814
0.020874
0.0199719
0.0194314
0.0187176
0.0183355
0.0177261
0.0180418
0.0187589
0.0189662
0.0198593
0.0198788
0.020626
0.020828
0.0212896
0.0214183
0.0220799
0.022216
0.0224794
0.022534
0.0237253
0.0238374
0.0238752
0.0238388
0.0238612
0.0240929
0.0240921
0.0240274
0.0240165
0.0239593
0.0238094
0.0236757
0.0247233
0.0253778
0.0248991
0.024664
0.0249364
0.0257936
0.0263454
0.0274395
0.0282951
0.0293742
0.0302707
0.0311025
0.0317858
0.0322714
0.0324045
0.0324464
0.032009
0.0316407
0.0333422
0.0398302
0.0430481
0.0482924
0.0506611
0.0526567
0.0533987
0.0522196
0.0529183
0.0516204
0.0518658
0.0506431
0.0501877
0.049342
0.0483116
0.047576
0.0460864
0.045348
0.0499423
0.0564554
0.0565626
0.0496455
0.0467872
0.0421735
0.0363807
0.0386969
0.0449809
0.0402553
0.0382098
0.035261
0.0301388
0.0229276
0.0178071
0.0255523
0.0332457
0.0404693
0.0472736
0.0532765
0.0571582
0.0592721
0.0607923
0.062493
0.0604785
0.0530556
0.0414939
0.0317085
0.027872
0.0263317
0.0238865
0.0204444
0.0185543
0.0174791
0.0163235
0.0149732
0.0141124
0.0138661
0.0140985
0.0142121
0.0155584
0.0168183
0.0168124
0.0179899
0.0178235
0.0183326
0.0189219
0.0193213
0.0199894
0.0199562
0.0189965
0.0193431
0.0196049
0.0202793
0.0201772
0.0203446
0.0201226
0.0194049
0.0188886
0.0182895
0.0177735
0.0173199
0.0167541
0.0160563
0.0160469
0.0162533
0.0158071
0.0162054
0.0166366
0.017036
0.0176598
0.0185658
0.0193243
0.0211499
0.0212954
0.0210432
0.021131
0.0197076
0.0196467
0.0186741
0.0184425
0.0200343
0.0198799
0.0182089
0.0196031
0.0196039
0.0213772
0.02138
0.0207082
0.0209058
0.0207857
0.018964
0.0180751
0.0170108
0.0162366
0.0156568
0.0152665
0.0148132
0.0154343
0.0142594
0.013669
0.0141023
0.0140758
0.0141396
0.0145241
0.0149509
0.015693
0.0163944
0.017436
0.0180718
0.0189669
0.0192991
0.0212015
0.0211145
0.0209907
0.0210212
0.021154
0.0216057
0.0208163
0.0207786
0.0209204
0.0209351
0.0209532
0.0209349
0.0191022
0.0188993
0.0180664
0.01775
0.0168222
0.0164655
0.0158126
0.015501
0.0151151
0.01492
0.023299
0.0255011
0.0256639
0.039835
0.0200049
0.0200039
0.0343932
0.0173736
0.0231089
0.0236654
0.0247324
0.0259437
0.0225937
0.0307796
0.0212545
0.0233534
0.024091
0.0252787
0.0127671
0.0188728
0.0362978
0.0421021
0.0434584
0.0484298
0.0551775
0.0584309
0.0614908
0.0635665
0.0658383
0.0683117
0.0707261
0.0724828
0.0726482
0.0689935
0.0659534
0.0564963
0.0526829
0.0564306
0.0608611
0.0473992
0.0426084
0.0431626
0.0436396
0.0441836
0.0444002
0.0451016
0.0449129
0.0459261
0.0451933
0.0463137
0.0451703
0.0462123
0.0449553
0.0422028
0.0389646
0.0327284
0.0307335
0.0296169
0.026891
0.024382
0.0221175
0.0202807
0.019842
0.0182735
0.016865
0.0165657
0.015276
0.0155197
0.0167273
0.019841
0.0168165
0.017669
0.0259561
0.0191367
0.0180518
0.0186023
0.0191236
0.0193615
0.0182569
0.0198889
0.0221669
0.0221533
0.0222143
0.0222204
0.0214201
0.0212588
0.0209843
0.0210395
0.021072
0.0211923
0.0211592
0.0193416
0.0192854
0.0190133
0.0188754
0.018089
0.0179223
0.0173409
0.0170122
0.016174
0.015881
0.0154311
0.0154788
0.0165104
0.0202254
0.0295228
0.0171838
0.0177858
0.0154211
0.0139421
0.026579
0.0247995
0.0286313
0.0267914
0.0394634
0.0264474
0.0232081
0.024228
0.0297489
0.0296737
0.0325866
0.0423781
0.0330338
0.0281319
0.072145
0.0519188
0.0328737
0.0455876
0.0576715
0.108135
0.12683
0.0556654
0.0562123
0.0619181
0.0628071
0.0626846
0.0529971
0.0489042
0.0409405
0.031355
0.0129343
0.0249142
0.032145
0.0422331
0.0563186
0.0917429
0.0527194
0.0595478
0.0654914
0.0645688
0.067673
0.0658014
0.0644114
0.0653649
0.102491
0.111596
0.106957
0.0853414
0.0801682
0.0737984
0.123745
0.138908
0.119623
0.129602
0.13517
0.0805054
0.0302173
0.0249721
0.023841
0.0264173
0.0253631
0.0460546
0.0205882
0.0218338
0.0226574
0.0271789
0.0301858
0.0529055
0.023253
0.0254631
0.0324129
0.034868
0.0459491
0.0274304
0.0280924
0.0344211
0.0362116
0.0395241
0.0336444
0.0317625
0.0287438
0.0259294
0.0244333
0.0254874
0.0318968
0.0464197
0.027902
0.0283291
0.0300933
0.133503
0.030757
0.0266601
0.0277128
0.0267251
0.0336958
0.0351283
0.110904
0.0354452
0.016694
0.0154624
0.0159421
0.0167535
0.0173903
0.0180062
0.0184509
0.0190883
0.0194828
0.0196339
0.0198016
0.0221744
0.0220792
0.0216113
0.0210682
0.0218628
0.0211681
0.0212174
0.0218345
0.0213019
0.0214434
0.0224929
0.0236607
0.0231761
0.0237426
0.0250895
0.0239321
0.022231
0.022027
0.0221529
0.0228596
0.0240007
0.022807
0.0234568
0.0226369
0.0235628
0.023667
0.0203701
0.0200038
0.0198019
0.0192983
0.0186273
0.018003
0.0173294
0.0166717
0.016151
0.016044
0.0164982
0.015181
0.0155429
0.0177746
0.0388359
0.0319644
0.0262173
0.0220339
0.0194722
0.0183801
0.018292
0.0187491
0.019403
0.0199659
0.0201734
0.0207568
0.0246338
0.0245837
0.0257908
0.0246471
0.0259865
0.0249338
0.0236074
0.0227373
0.0239447
0.0232442
0.0237338
0.0253512
0.0261988
0.0238386
0.0241105
0.0215197
0.0201044
0.0184875
0.0188261
0.0202759
0.0209548
0.023396
0.0234754
0.0269164
0.0268915
0.0267392
0.0255007
0.0248257
0.0262806
0.0247934
0.0259449
0.0248318
0.0262388
0.027422
0.0277719
0.0270665
0.0262013
0.0253252
0.0210554
0.0202686
0.0199625
0.0194658
0.0191918
0.0200603
0.0241868
0.0331893
0.0450939
0.0571054
0.0665323
0.0661556
0.0596598
0.0402327
0.0414201
0.0383202
0.0419075
0.0594274
0.0847499
0.0591449
0.113524
0.0879576
0.0522276
0.0625511
0.0745009
0.0836347
0.0894874
0.0903275
0.0767508
0.0563991
0.0495215
0.0519689
0.0844001
0.0831442
0.0823096
0.0778857
0.0823572
0.0802575
0.0776065
0.0760603
0.0742994
0.070076
0.0700553
0.0673944
0.0673677
0.0602336
0.061424
0.0616582
0.0590871
0.0563425
0.0540583
0.0518707
0.0495492
0.0456562
0.0443761
0.0418955
0.0401522
0.0367962
0.0362647
0.0357794
0.0336047
0.0320525
0.0307991
0.0295374
0.0278348
0.0279939
0.0263952
0.0262377
0.0213808
0.0210043
0.0199914
0.0196543
0.0193939
0.0195614
0.0207437
0.0233343
0.0432806
0.0330052
0.0329275
0.0335135
0.033725
0.0396402
0.0464266
0.0706768
0.0653907
0.0719783
0.0615245
0.0639773
0.0631826
0.0627911
0.0655022
0.0690859
0.0744219
0.0869265
0.333619
0.513812
0.253287
0.237255
0.246865
0.251745
0.259194
0.339317
0.36019
0.356233
0.360714
0.330565
0.318344
0.196619
0.226048
0.238117
0.236982
0.22382
0.201871
0.391897
0.522665
0.518791
0.523658
0.523771
0.518766
0.522606
0.502912
0.514274
0.501758
0.51503
0.502299
0.521678
0.518939
0.504364
0.501137
0.501156
0.500916
0.501378
0.501556
0.504893
0.506055
0.506107
0.505102
0.504109
0.514527
0.435413
0.121358
0.0842537
0.139821
0.194274
0.15888
0.230684
0.26542
0.1912
0.108494
0.0882803
0.0995917
0.122617
0.124189
0.151126
0.198068
0.18559
0.151432
0.152453
0.152687
0.197648
0.189466
0.215769
0.257974
0.251541
0.186976
0.148683
0.147466
0.225352
0.240547
0.235807
0.121327
0.0433421
0.0217005
0.0225581
0.0326467
0.0164646
0.016818
0.0218398
0.0567026
0.0952884
0.0489448
0.134578
0.136761
0.181246
0.146798
0.177728
0.114915
0.118422
0.0673754
0.079362
0.0893074
0.0950807
0.0993478
0.0932695
0.215399
0.317711
0.189558
0.559809
0.537287
0.195445
0.216762
0.575509
0.513014
0.50352
0.501783
0.501698
0.501859
0.501816
0.500969
0.500915
0.500728
0.500765
0.500716
0.501163
0.504767
0.520403
0.514614
0.50524
0.501385
0.500824
0.500799
0.50069
0.50073
0.50075
0.500807
0.501017
0.501049
0.50115
0.50167
0.50394
0.512033
0.435605
0.169753
0.182114
0.40588
0.361646
0.511505
0.504622
0.501369
0.500942
0.500855
0.500829
0.500794
0.500969
0.50089
0.501397
0.501231
0.501287
0.502777
0.508259
0.506397
0.443323
0.369556
0.417316
0.330102
0.506673
0.507778
0.503276
0.502899
0.503246
0.503413
0.501513
0.501526
0.500992
0.50106
0.500892
0.50134
0.504755
0.511017
0.34581
0.170685
0.177577
0.257736
0.0877733
0.0906708
0.0925687
0.0946523
0.246556
0.440348
0.554285
0.470103
0.474347
0.541124
0.384919
0.36367
0.293431
0.317028
0.401244
0.346685
0.312328
0.249859
0.288081
0.247346
0.303098
0.217543
0.233837
0.221437
0.282695
0.286559
0.286928
0.226392
0.216285
0.271301
0.285625
0.316578
0.218437
0.258723
0.203021
0.192039
0.0869679
0.0891137
0.0809941
0.0710526
0.0708418
0.0789727
0.0774332
0.0836292
0.0806511
0.0843702
0.0815229
0.0794791
0.0726592
0.0746698
0.0684508
0.0710852
0.13
0.166081
0.150052
0.151477
0.17914
0.130689
0.157031
0.153027
0.197089
0.24745
0.225546
0.289794
0.224149
0.27486
0.404797
0.753429
0.435671
0.243342
0.317371
0.339679
0.288175
0.189197
0.448971
0.538093
0.297589
0.359867
1.19624
1.0435
1.7817
0.991454
1.11744
0.669361
0.596695
1.02766
0.652584
0.664815
0.55848
0.572407
0.497863
0.323393
0.32277
0.304733
0.241145
0.279617
0.270362
0.266186
0.295652
0.260762
0.315627
0.351386
0.395984
0.32192
0.284713
0.365713
0.21499
0.289516
0.345047
0.314537
0.258781
0.336653
0.448317
0.418958
0.360349
0.397647
0.507832
0.561529
0.529904
0.449348
0.509754
1.00389
0.960208
0.92911
0.588749
1.93356
1.7161
0.350405
0.13605
0.0946422
0.0358703
0.0223892
0.0182722
0.0178794
0.0487736
0.0195472
0.023514
0.0211464
0.0297835
0.0272167
0.031449
0.054985
0.0374017
0.0523686
0.0388978
0.0514981
0.0410263
0.0563565
0.0605083
0.0636656
0.0514793
0.0406181
0.0613617
0.0818869
0.0383337
0.0985915
0.104176
0.0672492
0.0818502
0.10104
0.0522748
0.163662
0.0568669
0.0564017
0.0668915
0.125378
0.2492
0.0845898
0.111161
0.582754
1.52789
0.507519
0.199735
0.162724
0.041385
0.0359542
0.0291584
0.0355676
0.0313845
0.0623683
0.0629417