/*--------------------------------*- C++ -*----------------------------------*\
| =========                 |                                                 |
| \\      /  F ield         | OpenFOAM: The Open Source CFD Toolbox           |
|  \\    /   O peration     | Version:  v2012                                 |
|   \\  /    A nd           | Website:  www.openfoam.com                      |
|    \\/     M anipulation  |                                                 |
\*---------------------------------------------------------------------------*/
FoamFile
{
    version     2.0;
    format      ascii;
    class       volVectorField;
    location    "650";
    object      U;
}
// * * * * * * * * * * * * * * * * * * * * * * * * * * * * * * * * * * * * * //

dimensions      [0 1 -1 0 0 0 0];


internalField   nonuniform List<vector> 
18258
(
(-0.176031 0.112741 0.139281)
(-0.0515935 0.244437 0.159572)
(-0.104815 0.211439 0.0964189)
(-0.0412546 0.0680573 0.0848913)
(-0.226349 0.199837 0.0197524)
(-0.159964 0.357452 0.0180566)
(-0.223489 0.0439381 0.0549391)
(-0.34199 -0.0541894 0.0759843)
(-0.449389 -0.106426 0.10859)
(-0.536454 -0.160085 0.146018)
(-0.622078 -0.217522 0.180139)
(-0.688253 -0.271902 0.309845)
(-0.678898 -0.334596 0.357446)
(-0.622364 -0.445783 0.385971)
(-0.487887 -0.543232 0.369369)
(-0.204491 -0.587523 0.340211)
(0.0746767 -0.374118 0.288369)
(0.0791339 -0.164325 0.298475)
(-0.12724 -0.0783265 0.236678)
(-0.398273 -0.273708 0.116441)
(-0.137582 -0.525745 0.291726)
(-0.195976 -0.364816 0.406874)
(-0.300555 -0.736659 0.300816)
(-0.360485 -0.777837 0.262443)
(-0.134245 -0.708277 0.134022)
(0.00484386 -0.64564 0.183775)
(-0.0165677 -0.339907 0.422587)
(0.174948 -0.113002 0.804457)
(0.299662 -0.0953545 0.891813)
(0.317121 0.057597 0.911234)
(0.318926 0.186293 0.811951)
(0.165844 0.301864 0.0898411)
(0.0797378 0.128078 -0.433103)
(0.0142745 0.0773594 -0.726497)
(-0.0651287 0.0760045 -0.899868)
(-0.0556162 0.0727524 -1.08169)
(-0.0692127 0.0721633 -1.22233)
(-0.0973561 0.0903671 -1.31719)
(-0.138487 0.0815056 -1.36502)
(-0.185729 0.0877262 -1.35094)
(-0.235093 0.0740061 -1.26669)
(-0.281356 0.0830924 -1.11273)
(-0.319819 0.0775724 -0.901743)
(-0.350507 0.0783653 -0.64691)
(-0.360387 0.0807387 -0.353499)
(-0.344019 0.0762248 -0.155149)
(-0.160196 0.16931 -0.197327)
(0.353211 -0.0948306 -0.137991)
(0.618737 -0.12925 -0.158622)
(0.669632 -0.111779 -0.167618)
(0.783124 -0.13576 -0.17649)
(0.811613 -0.133417 -0.193785)
(0.506778 -0.00559325 -0.257378)
(0.259681 -0.138057 -0.218144)
(0.113449 -0.0422527 -0.158699)
(0.282171 -0.00995193 -0.16907)
(0.53696 -0.00277139 -0.17374)
(0.791035 -0.0303121 -0.178046)
(1.09126 -0.0349549 -0.175869)
(1.42683 -0.0490819 -0.185335)
(1.76129 -0.0647982 -0.183719)
(2.04535 -0.0813614 -0.166822)
(2.24596 -0.0930471 -0.138396)
(2.34612 -0.0991658 -0.102798)
(2.35283 -0.0964833 -0.0682345)
(2.29252 -0.0887919 -0.0416099)
(2.19898 -0.0822729 -0.0249938)
(2.10654 -0.0761431 -0.0182835)
(2.03713 -0.067344 -0.0193286)
(1.99151 -0.0645105 -0.0240163)
(1.96719 -0.0593768 -0.0264728)
(1.95666 -0.0504931 -0.02097)
(1.94242 -0.0400123 -0.00400489)
(1.89899 -0.0252198 0.0235347)
(1.81152 -0.00820137 0.0531013)
(1.69076 0.00913517 0.0763345)
(1.57005 0.0212987 0.0791612)
(1.47735 0.0302341 0.0745268)
(1.3993 0.0372211 0.0698979)
(1.33726 0.049804 0.0625541)
(1.28649 0.0564555 0.0642424)
(1.19287 0.0436807 0.0775931)
(1.09566 0.0184053 0.108846)
(1.01257 0.000103158 0.126139)
(0.905108 -0.021493 0.118952)
(0.761162 0.0163352 0.144393)
(0.640511 0.0814512 0.132189)
(0.516859 0.100457 0.132885)
(0.379864 0.117788 0.117237)
(0.223637 0.126465 0.0950237)
(0.119771 0.189676 0.0907103)
(0.121259 0.011107 0.196274)
(0.163927 -0.100712 0.141944)
(0.112842 -0.129882 0.0374004)
(0.104262 -0.114954 -0.144951)
(0.215953 -0.209978 -0.374207)
(0.262124 -0.231006 -0.559586)
(0.203648 -0.137478 -0.731096)
(0.104976 -0.0791067 -0.712101)
(0.0362203 0.0611043 -0.485531)
(-0.0963768 0.234747 -0.139268)
(-0.218201 0.191396 0.183237)
(-0.234573 0.0641211 0.1583)
(-0.340557 0.0137811 0.172436)
(-0.275532 0.135388 0.181875)
(-0.249959 0.284512 -0.0362944)
(-0.106708 0.166274 -0.3996)
(0.062035 0.00633086 -0.582576)
(0.331943 -0.0929997 -0.63359)
(0.494171 -0.229217 -0.492882)
(0.350791 -0.210741 -0.283616)
(0.271309 -0.192125 -0.103591)
(0.282544 -0.186905 0.0368653)
(0.280233 -0.140121 0.158364)
(0.224396 -0.0989086 0.19022)
(0.395475 -0.0814761 0.179125)
(0.534494 -0.0635014 0.174646)
(0.586969 -0.0522916 0.162907)
(0.698762 -0.0789535 0.158857)
(0.731266 -0.133915 0.130199)
(0.599965 -0.134404 0.133056)
(0.453686 -0.151884 0.137622)
(0.460806 -0.18612 0.0326648)
(0.609956 -0.162975 0.0486015)
(0.735239 -0.162133 0.0460701)
(0.903636 -0.141828 0.0786208)
(1.08732 -0.109913 0.108284)
(1.18878 -0.077766 0.1459)
(1.20769 -0.0108918 0.137987)
(1.24488 -0.00928794 0.118735)
(1.33507 -0.00713492 0.138231)
(1.37694 -0.00195262 0.128361)
(1.36863 -0.0126585 0.156909)
(1.32804 -0.0482379 0.191784)
(1.32239 -0.0511509 0.188703)
(1.28533 -0.0620193 0.149666)
(1.27859 -0.060164 0.13273)
(1.25742 -0.0476075 0.106525)
(1.24885 -0.0456072 0.10861)
(1.20091 0.00494976 0.107465)
(1.1939 0.0285024 0.136304)
(1.07595 0.137868 0.270472)
(1.22571 0.0533942 0.253161)
(1.21725 0.0205298 0.157166)
(1.2659 -0.0206775 0.126474)
(1.27812 -0.0248606 0.117145)
(1.28877 -0.0381695 0.141937)
(1.30767 -0.0415023 0.181299)
(1.35013 -0.0367281 0.21531)
(1.38591 -0.0367351 0.220249)
(1.42281 -0.0129061 0.181659)
(1.43609 -0.0021192 0.136725)
(1.51228 -0.00670305 0.149845)
(1.61028 -0.0168719 0.157993)
(1.74942 -0.0317621 0.142459)
(1.88141 -0.0543255 0.0480335)
(1.96272 -0.075782 -0.072042)
(1.98199 -0.0906233 -0.165025)
(1.96448 -0.0966236 -0.201202)
(1.94809 -0.0969479 -0.195098)
(1.95819 -0.0913225 -0.175282)
(2.00514 -0.0827886 -0.144856)
(2.08654 -0.0703448 -0.108272)
(2.19766 -0.0601196 -0.0844608)
(2.31179 -0.0598009 -0.11331)
(2.38867 -0.060894 -0.173638)
(2.39133 -0.0584941 -0.277451)
(2.28544 -0.0502414 -0.392586)
(2.07004 -0.0425756 -0.483913)
(1.76974 -0.0367784 -0.540343)
(1.42602 -0.0316297 -0.54912)
(1.08014 -0.0193554 -0.527922)
(0.791815 -0.0244312 -0.459512)
(0.536353 -0.0158703 -0.415517)
(0.282751 -0.0214364 -0.386792)
(0.109142 -0.0401401 -0.36057)
(0.102278 -0.0419693 -0.636998)
(0.077416 -0.0371787 -0.872989)
(0.0507431 -0.0391825 -1.05752)
(0.0118527 -0.0404828 -1.17628)
(-0.0232651 -0.0281852 -1.21623)
(-0.0599082 -0.0157223 -1.16891)
(-0.0936681 0.00325421 -1.0402)
(-0.119075 0.026837 -0.823704)
(-0.121134 0.0829474 -0.561946)
(-0.146101 0.133161 -0.0446891)
(-0.19269 0.0264994 0.56874)
(-0.208723 -0.033432 0.755661)
(-0.227172 -0.00243548 0.924764)
(-0.232448 -0.0452568 1.06745)
(-0.318167 -0.104526 1.1307)
(-0.371535 -0.111281 1.14373)
(-0.370073 -0.23308 1.00429)
(-0.2981 -0.251896 0.770957)
(-0.460172 -0.66789 0.687538)
(-0.486217 -0.545352 0.705406)
(-0.414251 -0.412925 0.832624)
(-0.550135 -0.767104 0.857491)
(-0.685 -0.832879 0.60549)
(-0.475494 -0.755561 0.799782)
(-0.436458 -0.575778 0.74194)
(-0.784576 -0.526084 0.749365)
(-0.903472 -0.40901 0.859639)
(-0.531252 -0.706822 0.823432)
(-0.440507 -0.577035 0.664305)
(-0.320483 -0.317955 0.404148)
(-0.29924 -0.179531 0.398107)
(-0.282581 -0.143607 0.351074)
(-0.233634 0.114322 0.112002)
(-0.162284 0.29632 -0.419395)
(-0.152386 0.186426 -0.639396)
(-0.132298 0.0278895 -0.914738)
(-0.0870908 -0.0575771 -1.08636)
(-0.0289008 -0.0698252 -1.23412)
(0.0381832 -0.102383 -1.26877)
(0.0978414 -0.0989267 -1.23369)
(0.172377 -0.109624 -1.11973)
(0.216332 -0.123683 -0.919827)
(0.260642 -0.146901 -0.705394)
(0.249575 -0.139484 -0.3984)
(0.418877 -0.0506681 -0.637251)
(0.772318 -0.118774 -0.456783)
(0.727006 -0.109552 -0.412389)
(0.627257 -0.0747511 -0.405445)
(0.55825 -0.104416 -0.41264)
(0.12133 -0.100206 -0.525084)
(0.171301 -0.115258 -0.912951)
(0.253603 -0.223397 -1.06519)
(0.34047 -0.281855 -0.953112)
(0.390088 -0.351589 -0.516494)
(0.199542 0.0319069 0.137931)
(0.264091 0.12089 0.175719)
(0.429466 -0.323332 0.335733)
(0.516283 -0.529125 0.505534)
(0.545631 -0.523268 0.552694)
(0.41286 -0.235815 0.67756)
(0.471695 -0.33831 0.565432)
(0.48679 -0.610367 0.547332)
(0.703691 -0.673305 0.319306)
(0.745915 -0.489043 0.45552)
(0.798115 -0.345698 0.600448)
(0.235261 -0.225818 0.57644)
(-0.23751 -0.268884 0.8284)
(-0.17375 -0.191577 0.679445)
(-0.673421 -0.298858 0.819441)
(-0.47006 -0.181726 0.694311)
(-0.320345 -0.00384731 0.541927)
(-0.218423 0.177834 -0.295106)
(-0.192696 -0.0443274 -0.616712)
(-0.0571912 -0.170048 -1.1003)
(0.104278 -0.158965 -1.24977)
(0.275712 -0.0881947 -1.11775)
(0.436081 -0.108463 -0.699355)
(0.50543 -0.0742934 -0.62375)
(0.499312 -0.0430692 -0.613251)
(0.547938 -0.0871009 -0.638749)
(0.592214 -0.120385 -0.731437)
(0.401042 -0.0424977 -0.682036)
(0.360054 -0.0795285 -0.662196)
(0.135311 -0.114244 -0.67024)
(-0.109891 -0.0494009 -0.581855)
(0.295167 0.00387358 -0.591929)
(0.354268 0.0140704 -0.610879)
(0.639286 -0.0976383 -0.647017)
(0.576419 -0.0978993 -0.381264)
(0.27199 0.0721386 -0.364758)
(0.276841 0.0534288 -0.249852)
(-0.303889 -0.0410591 0.110848)
(-0.307595 0.142098 -0.00775212)
(-0.282445 -0.0258841 -0.449122)
(0.0885097 -0.201991 -0.576874)
(0.361519 -0.280528 -0.569654)
(0.724811 -0.346398 -0.406323)
(0.809538 -0.419473 -0.378082)
(0.7706 -0.291552 -0.29548)
(0.81192 -0.36591 -0.219573)
(0.826726 -0.487856 -0.284437)
(0.739197 -0.432879 -0.279064)
(0.717886 -0.306234 -0.331978)
(0.745653 -0.252314 -0.34194)
(0.791208 -0.312034 -0.21233)
(0.803345 -0.367578 -0.160793)
(0.891114 -0.465469 -0.156798)
(1.15701 -0.631876 -0.117868)
(1.61534 -0.727213 -0.0989153)
(1.99244 -0.672739 -0.0383047)
(2.14911 -0.490709 0.0471133)
(2.06931 -0.291719 0.0951146)
(1.90414 -0.163855 0.102572)
(1.80669 -0.0957781 0.0991099)
(1.70991 -0.00110752 0.098641)
(1.57232 0.0868876 0.0907659)
(1.43488 0.104869 0.0477346)
(1.33033 0.0550014 0.0269453)
(1.24047 -0.00705831 0.0211558)
(1.13863 -0.0564871 0.0227779)
(1.05473 -0.0809219 0.0208979)
(0.996817 -0.0642088 0.0163359)
(0.820377 -0.111706 -0.0244642)
(0.715741 0.00067141 0.00890736)
(0.632507 0.0665528 0.00817862)
(0.496987 0.0209266 0.005829)
(0.358972 -0.0624631 -0.0136634)
(0.13885 -0.147775 -0.0325716)
(0.225346 -0.308849 0.00139068)
(0.353106 -0.0821725 0.0119545)
(-0.00269089 -0.230602 -0.00926727)
(0.0427923 -0.546344 -0.0505841)
(0.0117947 -0.712884 -0.0527267)
(-0.00824225 -0.876775 -0.0533437)
(-0.0261953 -1.00679 -0.0650841)
(-0.0362405 -1.10268 -0.0960367)
(-0.0468193 -1.157 -0.105347)
(-0.0583854 -1.21421 -0.11847)
(-0.0886164 -1.27585 -0.13445)
(-0.1137 -1.32047 -0.149756)
(-0.137659 -1.35406 -0.162665)
(-0.159671 -1.3756 -0.173715)
(-0.178673 -1.38686 -0.183367)
(-0.194062 -1.38848 -0.190069)
(-0.206203 -1.3814 -0.193917)
(-0.216251 -1.36672 -0.19404)
(-0.224852 -1.34484 -0.192131)
(-0.233177 -1.31438 -0.186695)
(-0.240874 -1.27347 -0.178349)
(-0.24634 -1.21921 -0.165301)
(-0.244224 -1.15007 -0.147541)
(-0.191212 -1.07067 -0.127146)
(-0.141387 -0.968128 -0.112821)
(-0.165992 -0.867746 -0.0797022)
(-0.190046 -0.753931 -0.0821256)
(-0.205289 -0.542544 -0.0857269)
(-0.274234 -0.449762 -0.0922269)
(0.0220469 0.0537493 -0.116468)
(-0.350942 -0.308005 0.0249384)
(-0.231888 -0.617109 -0.0548609)
(-0.270697 -0.0991439 -0.0113337)
(-0.4584 -0.182291 0.0644273)
(-0.679102 -0.198548 0.082204)
(-0.842517 -0.20916 0.114048)
(-0.953906 -0.223039 0.144182)
(-1.03454 -0.23245 0.203752)
(-1.11774 -0.244258 0.245277)
(-1.18686 -0.244192 0.30199)
(-1.20055 -0.24847 0.33625)
(-1.17367 -0.250282 0.36616)
(-1.1069 -0.249047 0.394462)
(-0.996334 -0.243432 0.422647)
(-0.842029 -0.230512 0.454048)
(-0.668618 -0.206377 0.493437)
(-0.421517 -0.147419 0.542248)
(-0.13974 -0.118149 0.565854)
(-0.158906 0.0286563 0.821993)
(-0.162579 0.0831421 1.04262)
(-0.162251 0.115514 1.11275)
(-0.163417 0.164758 1.02161)
(-0.166632 0.153751 0.839202)
(-0.15316 0.131578 0.568779)
(-0.123845 0.143761 0.286739)
(-0.225142 0.440332 0.371692)
(-0.506663 0.468026 0.335609)
(-0.691279 0.480907 0.339719)
(-0.915977 0.465616 0.333096)
(-1.09795 0.424782 0.308953)
(-1.22485 0.353293 0.266105)
(-1.28042 0.273333 0.218877)
(-1.26308 0.206175 0.181565)
(-1.23023 0.147989 0.158278)
(-1.18744 0.115294 0.140356)
(-1.09813 0.0925905 0.0901988)
(-0.956603 0.0452091 0.0698584)
(-0.76556 -0.0206983 0.0593983)
(-0.499535 -0.113932 0.0190047)
(-0.252306 -0.207685 -0.0191518)
(-0.27357 -0.197499 -0.0665481)
(-0.317781 -0.176923 0.00764559)
(-0.313987 -0.174119 0.0586368)
(-0.272112 -0.156443 0.1496)
(-0.380347 -0.233438 0.117104)
(-0.4221 -0.296652 0.117106)
(-0.326006 -0.287671 0.175689)
(-0.268957 -0.214667 0.0434148)
(-0.140719 -0.10045 -0.0274481)
(-0.140681 -0.0766801 -0.00906854)
(-0.138736 -0.0739747 -0.0368684)
(-0.169553 -0.0555502 -0.0690199)
(-0.167935 -0.501259 -0.149786)
(-0.126424 -0.479226 -0.140028)
(-0.110647 -0.446704 -0.0978522)
(-0.100465 -0.423541 -0.147708)
(-0.265894 -0.537264 -0.0331272)
(-0.275378 -0.574532 -0.0275594)
(-0.282482 -0.630699 -0.0860992)
(-0.336339 -0.582224 -0.0222495)
(-0.3394 -0.529345 0.0533228)
(-0.300848 -0.358721 0.083382)
(-0.443682 -0.316755 0.113501)
(-0.360672 -0.431385 0.0390108)
(-0.346235 -0.522057 0.012349)
(-0.377022 -0.50808 -0.0254873)
(-0.427781 -0.394167 0.0307001)
(-0.496544 -0.346297 0.0719916)
(-0.528134 -0.254679 0.162882)
(-0.590409 -0.215297 0.240595)
(-0.679256 -0.197393 0.255176)
(-0.575849 -0.206551 0.21076)
(-0.516135 -0.187697 0.180441)
(-0.544379 -0.184868 0.117219)
(-0.538962 -0.17195 0.091464)
(-0.495477 -0.184142 0.000563542)
(-0.760534 -0.0865669 0.0642965)
(-0.970262 -0.00535148 0.0894467)
(-1.07768 0.0521839 0.103362)
(-1.1268 0.0750754 0.137947)
(-1.16448 0.0358834 0.237576)
(-1.249 0.0690772 0.266865)
(-1.31487 0.119475 0.348778)
(-1.32855 0.170902 0.431565)
(-1.27143 0.221975 0.5242)
(-1.14682 0.260971 0.604078)
(-0.974439 0.281307 0.648877)
(-0.774739 0.283336 0.658206)
(-0.623129 0.288297 0.645238)
(-0.342856 0.272104 0.645408)
(-0.436951 0.244252 0.875791)
(-0.469107 0.226795 1.00396)
(-0.46201 0.178937 1.08242)
(-0.442836 0.122681 1.0147)
(-0.441364 0.0577695 0.798341)
(-0.712166 -0.0055056 0.744752)
(-0.72277 0.0709949 0.945296)
(-0.741502 0.116844 1.02388)
(-0.746286 0.163757 0.979944)
(-0.695811 0.198315 0.873149)
(-0.837696 0.186028 0.863006)
(-0.879873 0.145509 0.965399)
(-0.882938 0.0880861 1.00128)
(-0.873335 0.0417188 0.926657)
(-0.867077 -0.0392382 0.707168)
(-1.00989 -0.06043 0.675899)
(-1.02427 0.0203751 0.90126)
(-1.03707 0.069403 0.966351)
(-1.04503 0.121832 0.944429)
(-1.01983 0.17392 0.854543)
(-1.1631 0.162943 0.804316)
(-1.16386 0.11047 0.892924)
(-1.14738 0.0570551 0.914629)
(-1.13042 0.00637274 0.859463)
(-1.11056 -0.0731506 0.640097)
(-1.17046 -0.0837412 0.595455)
(-1.19573 -0.00625371 0.796824)
(-1.22187 0.0435877 0.840063)
(-1.25099 0.0918048 0.811554)
(-1.26848 0.141385 0.716954)
(-1.31785 0.110901 0.610121)
(-1.28953 0.0688636 0.709179)
(-1.25131 0.0250092 0.747143)
(-1.21614 -0.0217315 0.716303)
(-1.18631 -0.0934916 0.53971)
(-1.15302 -0.104684 0.472639)
(-1.18087 -0.0413509 0.621239)
(-1.21948 0.00023825 0.640547)
(-1.27361 0.0392048 0.606274)
(-1.30652 0.0743305 0.508946)
(-1.2236 0.0357838 0.414056)
(-1.18695 0.00295914 0.499864)
(-1.1274 -0.0321144 0.53093)
(-1.08539 -0.0600326 0.520003)
(-1.03945 -0.11172 0.386688)
(-0.918664 -0.120076 0.315107)
(-0.922824 -0.109305 0.357996)
(-0.971979 -0.0803108 0.438035)
(-0.955862 -0.0869579 0.424785)
(-0.926842 -0.102538 0.394278)
(-1.00344 -0.0683118 0.380971)
(-0.995161 -0.062968 0.306981)
(-0.999839 -0.0390704 0.282371)
(-1.04283 -0.0271105 0.208791)
(-1.03786 -0.00945394 0.20214)
(-0.805363 -0.105042 0.145004)
(-0.818232 -0.125062 0.157411)
(-0.787299 -0.128243 0.215728)
(-0.823167 -0.141317 0.248825)
(-0.609179 -0.281374 0.132327)
(-0.556201 -0.291053 0.114006)
(-0.502781 -0.326444 0.131535)
(-0.419474 -0.39909 0.115025)
(-0.396301 -0.383561 0.148435)
(-0.487526 -0.283818 0.164289)
(-0.60524 -0.238798 0.182755)
(-0.614328 -0.267536 0.0959849)
(-0.512604 -0.377452 0.0429554)
(-0.438914 -0.459498 0.0270436)
(-0.396799 -0.52572 0.0565385)
(-0.383526 -0.697224 0.120614)
(-0.386635 -0.662629 0.126547)
(-0.404835 -0.379898 0.105359)
(-0.407645 -0.536019 0.0799117)
(-0.398639 -0.601268 0.0420889)
(-0.21526 -0.787254 -0.160664)
(-0.193031 -0.792932 -0.260967)
(-0.11517 -0.703053 -0.370153)
(-0.0785015 -0.622954 -0.3862)
(-0.0450161 -0.587542 -0.348435)
(-0.0133964 -0.554434 -0.301856)
(0.0317415 -0.500441 -0.232012)
(0.124061 -0.453853 -0.108837)
(0.124641 -0.578209 -0.121845)
(0.116772 -0.634285 -0.120078)
(0.0848899 -0.692056 -0.157621)
(0.0923467 -0.746548 -0.155888)
(0.100538 -0.803163 -0.17512)
(0.118329 -0.831393 -0.167165)
(0.126348 -0.838013 -0.152889)
(0.126511 -0.823968 -0.130191)
(0.117737 -0.787708 -0.0955862)
(0.104275 -0.730378 -0.0420693)
(0.0359895 -0.648857 0.0345164)
(0.00274891 -0.538369 0.156993)
(0.0174464 -0.290484 0.363941)
(-0.154789 0.0268798 0.448485)
(-0.37089 0.0985904 0.348655)
(-0.394602 -0.0368141 0.257576)
(-0.221163 -0.173374 0.251281)
(-0.183198 -0.191157 0.268169)
(-0.160336 -0.181772 0.215483)
(-0.0980011 -0.150029 0.207422)
(-0.0054326 -0.053757 0.0770678)
(-0.0329136 0.103989 0.0821809)
(-0.0800764 0.141828 0.081165)
(-0.0483363 0.207548 0.172919)
(-0.00166533 0.172721 0.196819)
(0.0153963 0.0138244 0.145967)
(-0.0519637 -0.0395039 0.232016)
(0.0224346 0.0811053 0.328464)
(-0.00560819 -0.0714931 0.289015)
(0.0734586 0.138734 0.251159)
(0.0886791 -0.0240338 0.225823)
(-0.0236592 -0.249463 0.455022)
(0.0469489 -0.352026 0.545268)
(0.170845 -0.493173 0.517648)
(0.170316 -0.686773 0.35537)
(0.0773629 -0.812189 0.146976)
(0.0590122 -0.885171 -0.00623158)
(0.0656744 -0.920743 -0.118894)
(0.0634908 -0.94749 -0.197417)
(0.0604168 -0.962309 -0.248756)
(0.0522956 -0.960672 -0.279636)
(0.0421287 -0.940889 -0.29311)
(0.0295141 -0.903416 -0.289991)
(0.0239259 -0.828427 -0.250057)
(0.00748933 -0.782881 -0.329229)
(0.0436861 -0.701987 -0.225544)
(0.0477839 -0.651848 -0.211388)
(0.0449798 -0.634605 -0.232175)
(0.0047779 -0.700564 -0.325799)
(-0.0225026 -0.740362 -0.383823)
(-0.0572385 -0.775962 -0.411615)
(-0.0730818 -0.842865 -0.402514)
(-0.131587 -0.903243 -0.347106)
(-0.0936286 -0.967483 -0.333391)
(-0.0886052 -0.978136 -0.374316)
(-0.0536247 -0.916877 -0.418951)
(-0.0434546 -0.866764 -0.432706)
(-0.0176637 -0.824341 -0.404986)
(-0.0093795 -0.867671 -0.341927)
(-0.0390571 -0.900196 -0.375061)
(-0.0557584 -0.947026 -0.397655)
(-0.0234595 -0.989941 -0.406715)
(-0.0484176 -1.05827 -0.421752)
(-0.066471 -1.04101 -0.425337)
(-0.0930777 -0.91895 -0.346243)
(-0.185952 -0.760672 -0.225629)
(-0.196982 -0.61385 -0.0424678)
(-0.0992769 -0.732224 -0.198865)
(-0.0791946 -0.838097 -0.261538)
(-0.0592022 -0.927235 -0.325345)
(-0.0609024 -0.94484 -0.335991)
(-0.0279249 -0.828258 -0.383368)
(-0.0241587 -0.723353 -0.33983)
(-0.0323266 -0.540814 -0.256942)
(-0.0167319 -0.352815 -0.167021)
(0.0358734 -0.0885105 -0.213034)
(-0.245691 -0.43254 0.0717792)
(-0.326922 -0.460232 0.0252935)
(0.217558 -0.11941 -0.243603)
(-0.172955 -0.24707 0.0416308)
(-0.217902 -0.266189 -0.118767)
(-0.258191 -0.268454 -0.104607)
(-0.208249 -0.281336 -0.0222487)
(0.080927 0.14131 -0.220044)
(0.102505 0.0602921 -0.233223)
(0.100637 0.000200516 -0.262698)
(0.0956222 -0.00030909 -0.267347)
(-0.0807175 -0.429043 -0.203624)
(-0.133559 -0.449412 -0.223997)
(-0.186706 -0.45775 -0.207685)
(-0.249639 -0.444594 -0.169829)
(-0.169206 -0.546774 -0.184808)
(-0.127069 -0.558518 -0.258183)
(-0.0965504 -0.564766 -0.292757)
(-0.0610511 -0.553002 -0.293463)
(-0.0511191 -0.741843 -0.35062)
(-0.0818297 -0.756494 -0.333281)
(-0.106533 -0.768846 -0.282619)
(-0.147377 -0.759212 -0.195316)
(-0.134675 -0.820919 -0.182822)
(-0.128947 -0.881769 -0.20085)
(-0.0982657 -0.90434 -0.298244)
(-0.0728212 -0.871407 -0.374993)
(-0.0494673 -0.851119 -0.401712)
(-0.0771153 -0.96651 -0.372184)
(-0.112389 -0.988308 -0.336823)
(-0.138316 -1.0086 -0.284505)
(-0.13746 -1.09116 -0.347594)
(-0.0803202 -1.06538 -0.400471)
(-0.072757 -1.143 -0.44188)
(-0.049379 -1.12134 -0.474565)
(-0.0267644 -1.11226 -0.459898)
(-0.0030619 -1.04044 -0.416293)
(0.0123406 -1.07234 -0.407232)
(-0.012598 -1.15077 -0.470582)
(-0.0399102 -1.17797 -0.495057)
(-0.0687907 -1.20629 -0.46376)
(-0.131856 -1.22694 -0.379631)
(-0.135202 -1.16464 -0.369784)
(-0.28404 -1.04497 -0.225484)
(-0.457924 -1.14458 -0.0769497)
(-0.464326 -1.09864 -0.0674876)
(-0.416506 -1.04426 -0.0648582)
(-0.303295 -1.03478 -0.0739851)
(-0.255998 -0.966077 -0.0642089)
(-0.309611 -0.943624 -0.05779)
(-0.342745 -0.847919 -0.042352)
(-0.378451 -0.71275 -0.0380256)
(-0.474194 -0.626216 -0.0368388)
(-0.410323 -0.401159 -0.0342862)
(-0.465491 -0.660238 -0.00591764)
(-0.317204 -0.457277 0.024486)
(-0.638919 -0.39852 0.00540184)
(-0.815745 -0.379204 0.0601336)
(-0.918126 -0.384385 0.0846136)
(-0.967986 -0.397184 0.124335)
(-0.979989 -0.525146 0.0977552)
(-0.940476 -0.689129 0.0653576)
(-0.924219 -0.749813 0.0524901)
(-0.874804 -0.848048 0.0364502)
(-0.85921 -0.895168 0.0304806)
(-0.821412 -0.927372 0.00762332)
(-0.704201 -0.966874 -0.0230052)
(-0.593062 -1.00128 -0.0420251)
(-0.627307 -0.95194 -0.017223)
(-0.485518 -0.97085 -0.0307625)
(-0.503452 -0.892639 -0.0301783)
(-0.531066 -0.796288 -0.0233462)
(-0.559921 -0.730203 -0.0195445)
(-0.68696 -0.711904 -0.00980618)
(-0.675509 -0.597777 -0.00779759)
(-0.82456 -0.576937 0.0303389)
(-0.918757 -0.559379 0.0504062)
(-0.881727 -0.696706 0.0231528)
(-0.800879 -0.704159 0.0121985)
(-0.778023 -0.789233 0.00228565)
(-0.661465 -0.797601 -0.0107784)
(-0.636321 -0.881889 -0.0170456)
(-0.748991 -0.865587 -0.00513076)
(-0.825944 -0.850077 0.00445575)
(-0.863533 -0.772565 0.0135208)
(-0.802004 -0.738461 -0.0117744)
(-0.624246 -0.61156 0.00180477)
(-0.847486 -0.659304 0.0116751)
(-0.868297 -0.518089 0.0520171)
(-0.870705 -0.379636 0.0580806)
(-0.843409 -0.282085 0.121513)
(-0.832505 -0.302098 0.0764558)
(-0.879192 -0.350509 0.0525359)
(-0.875272 -0.203818 0.128998)
(-0.894163 -0.184154 0.174047)
(-0.76071 -0.161407 0.158375)
(-0.766156 -0.128947 0.259049)
(-0.77726 -0.120644 0.301732)
(-0.820706 -0.108531 0.355043)
(-0.828083 -0.119136 0.352303)
(-0.641618 -0.181526 0.25056)
(-0.606833 -0.173445 0.248014)
(-0.5671 -0.180299 0.215203)
(-0.550861 -0.175436 0.188702)
(-0.568829 -0.191051 0.120183)
(-0.338407 -0.194504 0.0764034)
(-0.320105 -0.189001 0.101279)
(-0.329012 -0.191743 0.113606)
(-0.360237 -0.198594 0.123753)
(-0.448568 -0.216686 0.141026)
(-0.404733 -0.253124 0.0588814)
(-0.381573 -0.284643 0.0674715)
(-0.410092 -0.340618 0.046268)
(-0.3155 -0.426355 0.0349744)
(-0.311276 -0.393865 0.0480722)
(-0.283236 -0.415661 0.0144938)
(-0.192655 -0.418923 -0.0215185)
(-0.336647 -0.253778 0.0345524)
(-0.402406 -0.330428 0.0403935)
(-0.247903 -0.456778 -0.00753339)
(-0.291265 -0.459143 -0.000631665)
(-0.451177 -0.320803 0.0712868)
(-0.523916 -0.298636 0.130715)
(-0.497513 -0.318288 0.13585)
(-0.470621 -0.336462 0.110969)
(-0.45865 -0.350286 0.094026)
(-0.493356 -0.372857 0.00835966)
(-0.710828 -0.317571 0.0630373)
(-0.718026 -0.529443 0.0388272)
(-0.549294 -0.553876 -0.00198814)
(-0.510243 -0.606468 -0.00428581)
(-0.466101 -0.64869 -0.0178152)
(-0.43729 -0.651966 -0.0216547)
(-0.413148 -0.53061 -0.0235213)
(-0.411515 -0.540689 -0.0487581)
(-0.410421 -0.541127 -0.0346994)
(-0.335676 -0.55011 -0.0176253)
(-0.267824 -0.595461 -0.0079188)
(-0.319974 -0.58038 -0.00412189)
(-0.40367 -0.512591 0.00668431)
(-0.332234 -0.534984 -0.00466947)
(-0.439192 -0.629859 -0.0122186)
(-0.293157 -0.472871 -0.00564981)
(-0.210721 -0.5393 -0.0189522)
(-0.28153 -0.524194 -0.016858)
(-0.39466 -0.435737 -0.00113643)
(-0.414072 -0.362475 -0.0107618)
(-0.260843 -0.39394 -0.0115533)
(-0.157245 -0.422483 -0.0370396)
(-0.136637 -0.399028 -0.0233988)
(-0.238331 -0.20505 0.0217151)
(-0.382865 -0.342629 -0.0024781)
(-0.25216 -0.474177 -0.0203356)
(-0.219401 -0.467573 -0.0242985)
(-0.122299 -0.392359 -0.0307888)
(-0.219225 -0.194194 0.038527)
(-0.347 -0.337668 0.0116847)
(-0.366199 -0.36295 0.0538289)
(-0.195997 -0.51063 -0.0115105)
(-0.174192 -0.467611 0.0179698)
(-0.110047 -0.419748 0.00103231)
(-0.222274 -0.228775 0.044072)
(-0.325881 -0.341572 0.0519028)
(-0.334921 -0.338645 0.0564558)
(-0.18061 -0.462801 0.0159789)
(-0.109316 -0.408527 -0.000804263)
(-0.231777 -0.220195 0.0614335)
(-0.28575 -0.221224 0.076783)
(-0.240294 -0.229985 0.0704885)
(-0.350138 -0.336686 0.0778872)
(-0.189633 -0.464907 0.047534)
(-0.117824 -0.41525 0.0363707)
(-0.140505 -0.449303 -0.00490919)
(-0.196481 -0.497172 0.0249391)
(-0.3815 -0.350364 0.078673)
(-0.334272 -0.624918 -0.00415487)
(-0.355808 -0.631627 -0.012093)
(-0.49933 -0.511465 0.057693)
(-0.651244 -0.444393 0.0981891)
(-0.6666 -0.286572 0.136235)
(-0.79795 -0.271427 0.170428)
(-0.890602 -0.320593 0.166318)
(-1.02089 -0.488724 0.125979)
(-1.10759 -0.495095 0.167686)
(-1.13246 -0.502782 0.192827)
(-1.11254 -0.505207 0.215802)
(-1.04939 -0.501569 0.238669)
(-0.943998 -0.490712 0.260548)
(-0.795372 -0.467488 0.287141)
(-0.641137 -0.432522 0.326632)
(-0.39881 -0.380758 0.394781)
(-0.166144 -0.291502 0.481666)
(0.0345848 -0.149623 0.486585)
(0.331893 -0.15816 0.428792)
(0.333989 -0.217963 0.379711)
(0.204483 -0.126648 0.489333)
(0.271413 -0.00168354 0.768106)
(0.282644 0.0479011 1.03303)
(0.268212 0.0828157 1.14215)
(0.250623 0.135113 1.09092)
(0.213261 0.124011 0.95336)
(0.143132 0.121597 0.701575)
(0.0401282 0.186224 0.402634)
(0.175259 0.511824 0.424237)
(0.421132 0.513341 0.373832)
(0.607156 0.538016 0.375215)
(0.851587 0.497581 0.35113)
(1.01059 0.417643 0.317259)
(1.07687 0.323918 0.273324)
(1.06419 0.257076 0.23315)
(1.01886 0.211254 0.196507)
(1.03986 0.158284 0.16559)
(1.05001 0.118943 0.142977)
(0.990089 0.0932443 0.0899738)
(0.884084 0.042536 0.0674541)
(0.718562 -0.0223868 0.0542767)
(0.473635 -0.10948 0.0206178)
(0.245948 -0.217365 -0.020857)
(0.105721 -0.625661 -0.10898)
(0.181324 -0.387151 -0.0800567)
(-0.177391 -0.174102 0.00824209)
(-0.0994216 -0.39602 -0.0374671)
(-0.108543 -0.318533 -0.0642988)
(-0.110629 -0.346166 -0.0730729)
(-0.107827 -0.307984 -0.0647769)
(-0.0779961 -0.238668 -0.0601292)
(-0.134193 -0.194972 -0.052527)
(-0.217556 0.0759729 0.106277)
(-0.148753 0.415667 0.12618)
(-0.0405876 0.537167 0.0731441)
(0.0420118 0.624156 0.107369)
(0.129813 0.676424 0.204846)
(0.223372 0.734551 0.302206)
(0.314207 0.771053 0.338283)
(0.396698 0.766782 0.366876)
(0.473811 0.701676 0.373924)
(0.539227 0.560895 0.370582)
(0.591459 0.337788 0.336553)
(0.571287 0.005714 0.26298)
(0.393456 -0.334211 0.258244)
(0.29288 -0.332516 0.32116)
(0.227347 -0.286641 0.330376)
(0.160136 -0.195771 0.336315)
(0.14754 0.0010427 0.313131)
(0.28899 0.00921028 0.340047)
(0.451156 -0.1571 0.331127)
(0.603099 -0.254473 0.342865)
(0.642025 -0.343613 0.351868)
(0.622641 -0.435709 0.353672)
(0.476163 -0.540988 0.335019)
(0.106631 -0.566288 0.317307)
(-0.17166 -0.298645 0.303021)
(-0.0389759 -0.127898 0.355785)
(0.231023 -0.150846 0.237371)
(0.283236 -0.403314 0.0721768)
(0.00943278 -0.518671 0.237602)
(-0.140754 -0.747669 -0.141281)
(0.202427 -0.71905 -0.480598)
(0.308579 -0.390474 -0.176832)
(0.331664 -0.374304 0.093747)
(0.344581 -0.545351 0.184257)
(0.326322 -0.889861 0.120249)
(0.530902 -0.871806 0.0650861)
(0.609828 -0.690726 0.0989509)
(0.575424 -0.536856 0.139274)
(0.505927 -0.394217 0.189738)
(0.33697 -0.228909 0.247683)
(0.361406 -0.344365 0.196585)
(0.425071 -0.374933 0.143579)
(0.506315 -0.361187 0.0814614)
(0.617338 -0.29405 -0.0558006)
(0.863664 0.195194 -0.118023)
(0.907999 0.47876 -0.0229689)
(0.85362 0.682504 0.0473107)
(0.756045 0.786253 0.0902241)
(0.630382 0.81478 0.136147)
(0.487528 0.784996 0.156827)
(0.329614 0.722671 0.175521)
(0.164104 0.642541 0.132443)
(-0.0121329 0.570075 0.0735922)
(-0.154866 0.495033 0.0622063)
(-0.303006 0.387938 0.123622)
(-0.412312 0.139672 0.1415)
(-0.28374 -0.149929 -0.000260624)
(-0.394681 -0.0868752 0.0323457)
(-0.474992 -0.0239777 0.0602038)
(-0.545697 0.0855282 0.10182)
(-0.536587 0.0533607 0.0831895)
(-0.498497 -0.0734745 0.0210039)
(-0.458856 -0.128358 0.0104861)
(-0.392261 -0.179182 -0.011757)
(-0.296641 -0.23108 -0.0271851)
(-0.188391 -0.258236 -0.0403415)
(-0.143957 -0.234142 -0.033028)
(-0.195536 -0.206324 -0.0314249)
(-0.183813 -0.349454 -0.0472353)
(-0.123369 -0.341748 -0.0509122)
(-0.100098 -0.358394 -0.0780771)
(-0.0772648 -0.392182 -0.111673)
(-0.0477577 -0.572552 -0.227164)
(-0.0859716 -0.510147 -0.16702)
(-0.103193 -0.591449 -0.132311)
(-0.157291 -0.549826 -0.0653523)
(-0.221188 -0.442717 -0.0299933)
(-0.304473 -0.108508 0.0374023)
(-0.185627 0.317308 0.177769)
(-0.0742838 0.438469 0.307922)
(0.00786151 0.512891 0.444285)
(0.0755022 0.50075 0.561288)
(0.144046 0.435703 0.623094)
(0.197645 0.322142 0.653365)
(0.247792 0.166707 0.626571)
(0.234153 -0.0112691 0.531155)
(0.102534 -0.134193 0.437656)
(-0.0142891 -0.0962566 0.44764)
(-0.0334232 0.0198036 0.423711)
(-0.0337577 0.141905 0.42436)
(0.0378596 0.247071 0.362866)
(0.199459 0.13676 0.376866)
(0.155751 0.275719 0.448673)
(-0.0636688 0.167498 -0.0835786)
(-0.174332 -0.064045 -0.641206)
(-0.179945 -0.30361 -0.53734)
(-0.168356 -0.343675 -0.302506)
(-0.145179 -0.301887 -0.0933901)
(-0.0617801 -0.585599 -0.106346)
(-0.0278678 -0.862905 -0.0939595)
(0.0023294 -1.01968 -0.0915503)
(0.0327573 -1.14325 -0.100845)
(0.0661216 -1.22708 -0.115225)
(0.0966303 -1.28007 -0.129422)
(0.123231 -1.30679 -0.141403)
(0.147174 -1.31547 -0.153426)
(0.168013 -1.31357 -0.165973)
(0.186248 -1.30453 -0.17677)
(0.201871 -1.28983 -0.185205)
(0.215827 -1.26993 -0.190301)
(0.228209 -1.24454 -0.192921)
(0.23953 -1.21239 -0.19168)
(0.249142 -1.1724 -0.186498)
(0.254915 -1.1224 -0.175667)
(0.251988 -1.05965 -0.159025)
(0.194839 -0.996782 -0.13909)
(0.139801 -0.911982 -0.122767)
(0.164406 -0.828014 -0.0869769)
(0.187704 -0.727536 -0.088211)
(0.20386 -0.558915 -0.0881097)
(0.246667 -0.442022 -0.0844491)
(0.0720068 -0.029884 -0.0954969)
(0.365998 -0.298267 0.0436573)
(0.245791 -0.550972 -0.057181)
(0.286227 -0.094777 -0.026966)
(0.180822 -0.0369796 -0.147497)
(0.201814 -0.112508 -0.124995)
(0.194744 -0.119336 -0.0815801)