/*--------------------------------*- C++ -*----------------------------------*\
| =========                 |                                                 |
| \\      /  F ield         | OpenFOAM: The Open Source CFD Toolbox           |
|  \\    /   O peration     | Version:  v2012                                 |
|   \\  /    A nd           | Website:  www.openfoam.com                      |
|    \\/     M anipulation  |                                                 |
\*---------------------------------------------------------------------------*/
FoamFile
{
    version     2.0;
    format      ascii;
    class       volVectorField;
    location    "990";
    object      U;
}
// * * * * * * * * * * * * * * * * * * * * * * * * * * * * * * * * * * * * * //

dimensions      [0 1 -1 0 0 0 0];


internalField   nonuniform List<vector> 
18258
(
(-0.17698 0.118318 0.137238)
(-0.0520405 0.246702 0.156845)
(-0.104999 0.215444 0.0961321)
(-0.0379 0.0708281 0.0837761)
(-0.226399 0.203729 0.0172883)
(-0.158971 0.362889 0.0158239)
(-0.222767 0.045099 0.0532148)
(-0.341176 -0.0522278 0.0746886)
(-0.44845 -0.105225 0.107854)
(-0.53529 -0.159216 0.145463)
(-0.621076 -0.216836 0.179727)
(-0.687415 -0.271214 0.309326)
(-0.678449 -0.333971 0.357109)
(-0.622014 -0.445244 0.385765)
(-0.487771 -0.54267 0.369435)
(-0.205267 -0.586531 0.340189)
(0.0731058 -0.373882 0.28815)
(0.0784107 -0.165275 0.298197)
(-0.125873 -0.0785877 0.235709)
(-0.39429 -0.27396 0.115737)
(-0.135113 -0.523656 0.288887)
(-0.190458 -0.363413 0.406002)
(-0.292525 -0.734134 0.299257)
(-0.35033 -0.775164 0.262465)
(-0.12643 -0.709082 0.138845)
(0.00895513 -0.64477 0.186709)
(-0.0131964 -0.337365 0.421511)
(0.176329 -0.111464 0.800828)
(0.300088 -0.0945987 0.886424)
(0.317661 0.0586078 0.902802)
(0.320259 0.188798 0.799921)
(0.164095 0.302463 0.0715114)
(0.0857383 0.11875 -0.436074)
(0.0228114 0.0703013 -0.732303)
(-0.0585359 0.0716456 -0.903704)
(-0.0492795 0.0690518 -1.08401)
(-0.0637324 0.0687265 -1.22684)
(-0.0913082 0.0872962 -1.32389)
(-0.130713 0.0778736 -1.37285)
(-0.176399 0.0831974 -1.35918)
(-0.225197 0.0691184 -1.27512)
(-0.270653 0.0774906 -1.12118)
(-0.308436 0.0720251 -0.91009)
(-0.338876 0.0718064 -0.654356)
(-0.349748 0.0730976 -0.359006)
(-0.335202 0.0688453 -0.158998)
(-0.166561 0.146498 -0.203657)
(0.33126 -0.0928063 -0.140668)
(0.587158 -0.131214 -0.16324)
(0.650409 -0.110483 -0.171171)
(0.770211 -0.135102 -0.179032)
(0.803789 -0.133737 -0.195557)
(0.504545 -0.00822248 -0.257767)
(0.259125 -0.138329 -0.218741)
(0.113356 -0.0427331 -0.158975)
(0.282215 -0.00978034 -0.16909)
(0.53737 -0.00255739 -0.173639)
(0.791743 -0.0299196 -0.177817)
(1.0923 -0.0345598 -0.175564)
(1.42813 -0.0486501 -0.185)
(1.76284 -0.0643422 -0.183358)
(2.04711 -0.0808582 -0.166416)
(2.24783 -0.0924935 -0.137903)
(2.34797 -0.0985637 -0.102201)
(2.35451 -0.0958477 -0.0675154)
(2.29398 -0.0881411 -0.0407911)
(2.2003 -0.0816345 -0.0241747)
(2.10784 -0.0755413 -0.0174492)
(2.03846 -0.0667598 -0.0184735)
(1.9929 -0.0638851 -0.0231439)
(1.9687 -0.0587423 -0.0255615)
(1.95826 -0.0498348 -0.0199983)
(1.9441 -0.0393223 -0.00295466)
(1.9007 -0.0244903 0.0246533)
(1.81312 -0.00743163 0.0542535)
(1.69211 0.00998351 0.0776152)
(1.57123 0.022214 0.0804876)
(1.47861 0.0312325 0.0758335)
(1.40055 0.0383707 0.0710974)
(1.33828 0.0513261 0.0636742)
(1.28744 0.0579734 0.0655501)
(1.19385 0.0449436 0.0793106)
(1.09691 0.0195605 0.111291)
(1.01421 0.00125167 0.12902)
(0.907327 -0.0203963 0.121989)
(0.76336 0.0170491 0.147059)
(0.642436 0.0818569 0.134039)
(0.51882 0.100707 0.135081)
(0.381864 0.118306 0.119494)
(0.22519 0.127687 0.0975421)
(0.120336 0.190175 0.09286)
(0.122795 0.00981109 0.19834)
(0.164331 -0.100855 0.144946)
(0.113375 -0.129574 0.0410165)
(0.104971 -0.115308 -0.14072)
(0.217278 -0.210594 -0.369094)
(0.263351 -0.23348 -0.554521)
(0.20489 -0.140548 -0.729088)
(0.106605 -0.0825846 -0.715524)
(0.0363805 0.0553012 -0.494117)
(-0.085753 0.229115 -0.169492)
(-0.21499 0.196408 0.178129)
(-0.234546 0.0654896 0.152252)
(-0.340345 0.0161201 0.167971)
(-0.271553 0.14024 0.176388)
(-0.245349 0.287524 -0.0527312)
(-0.106299 0.161382 -0.405063)
(0.0652973 0.00298053 -0.586102)
(0.334997 -0.0948993 -0.631745)
(0.497137 -0.230632 -0.488458)
(0.352205 -0.211027 -0.278863)
(0.272028 -0.192015 -0.0994052)
(0.283246 -0.18659 0.0410009)
(0.281127 -0.140039 0.161334)
(0.226295 -0.0990282 0.192525)
(0.397597 -0.0811298 0.181863)
(0.536737 -0.0630178 0.177515)
(0.589169 -0.0517464 0.165467)
(0.701253 -0.0784919 0.161834)
(0.733288 -0.133532 0.133827)
(0.601601 -0.134129 0.136445)
(0.455026 -0.151668 0.140857)
(0.461914 -0.18577 0.03686)
(0.611376 -0.162781 0.0528432)
(0.736814 -0.162044 0.0503987)
(0.905347 -0.141688 0.0823144)
(1.08881 -0.109908 0.111818)
(1.18989 -0.0777411 0.149437)
(1.20907 -0.010486 0.140965)
(1.2462 -0.00885282 0.121281)
(1.33596 -0.0067793 0.140784)
(1.37801 -0.00146531 0.130581)
(1.36953 -0.0123492 0.159547)
(1.32908 -0.0481378 0.194902)
(1.3234 -0.0510863 0.191783)
(1.28629 -0.0620143 0.152937)
(1.27964 -0.0602359 0.136098)
(1.25913 -0.0478743 0.109193)
(1.25065 -0.04583 0.111183)
(1.20216 0.00423395 0.109851)
(1.19509 0.0276019 0.138341)
(1.07815 0.136543 0.27164)
(1.22685 0.0526975 0.254201)
(1.21877 0.019948 0.159237)
(1.26767 -0.0208468 0.128859)
(1.27971 -0.0250433 0.119779)
(1.2897 -0.0382038 0.14508)
(1.30854 -0.04147 0.184309)
(1.35115 -0.03667 0.21833)
(1.38697 -0.0366248 0.223306)
(1.42376 -0.012624 0.184336)
(1.43724 -0.00170812 0.138878)
(1.51336 -0.00634596 0.151999)
(1.61133 -0.0165539 0.160034)
(1.75067 -0.0314847 0.144311)
(1.88283 -0.0540813 0.0494653)
(1.96419 -0.0755398 -0.0709306)
(1.98344 -0.0903926 -0.164119)
(1.96579 -0.0964125 -0.20043)
(1.94921 -0.0967496 -0.194422)
(1.95914 -0.0911321 -0.174651)
(2.00598 -0.0826208 -0.144205)
(2.08735 -0.0701456 -0.107535)
(2.1985 -0.0598631 -0.0835402)
(2.31286 -0.0594988 -0.112249)
(2.39005 -0.0605881 -0.172532)
(2.39294 -0.0582158 -0.276461)
(2.28715 -0.0500073 -0.391801)
(2.07164 -0.0424236 -0.483254)
(1.77111 -0.0366651 -0.53974)
(1.42717 -0.0315385 -0.548552)
(1.08108 -0.0192966 -0.527421)
(0.792447 -0.024305 -0.459205)
(0.536689 -0.0157642 -0.415459)
(0.282733 -0.0213445 -0.386916)
(0.108932 -0.0404666 -0.36087)
(0.102029 -0.0423296 -0.637462)
(0.0772041 -0.0374351 -0.87362)
(0.0505595 -0.0393344 -1.05828)
(0.0117324 -0.0405583 -1.17714)
(-0.0233501 -0.0282277 -1.21718)
(-0.059931 -0.0157651 -1.17001)
(-0.0936528 0.00308032 -1.04149)
(-0.119071 0.026147 -0.82605)
(-0.121528 0.0810355 -0.56386)
(-0.145804 0.132888 -0.0546616)
(-0.191713 0.0271589 0.563166)
(-0.207699 -0.0330507 0.749476)
(-0.226347 -0.00156419 0.918662)
(-0.231536 -0.0441261 1.06168)
(-0.317387 -0.10333 1.12418)
(-0.370777 -0.109011 1.1384)
(-0.368854 -0.231309 1.00114)
(-0.295676 -0.249835 0.769521)
(-0.458105 -0.66453 0.686667)
(-0.485386 -0.541645 0.704142)
(-0.413737 -0.409983 0.830875)
(-0.550386 -0.763686 0.853541)
(-0.685906 -0.829643 0.602043)
(-0.475841 -0.752245 0.79838)
(-0.436712 -0.573574 0.739904)
(-0.785298 -0.523862 0.745557)
(-0.904976 -0.407419 0.854173)
(-0.531641 -0.704857 0.817953)
(-0.441268 -0.577107 0.658843)
(-0.320292 -0.317103 0.398775)
(-0.298919 -0.17808 0.392175)
(-0.281828 -0.142462 0.345068)
(-0.232658 0.117284 0.106173)
(-0.162826 0.293488 -0.4213)
(-0.15302 0.182386 -0.640299)
(-0.13232 0.0269132 -0.915983)
(-0.0870863 -0.0578712 -1.0872)
(-0.029015 -0.0699851 -1.23502)
(0.0378467 -0.102521 -1.26963)
(0.09746 -0.0990312 -1.23454)
(0.171773 -0.10982 -1.12057)
(0.215758 -0.123799 -0.920563)
(0.25989 -0.147114 -0.705988)
(0.248909 -0.139612 -0.3989)
(0.417097 -0.052567 -0.638281)
(0.763593 -0.118323 -0.459983)
(0.713161 -0.108437 -0.417238)
(0.607576 -0.0726638 -0.412322)
(0.523574 -0.106654 -0.423931)
(0.0972878 -0.110313 -0.539253)
(0.154263 -0.121229 -0.934919)
(0.242327 -0.227098 -1.08653)
(0.333673 -0.284753 -0.971125)
(0.391236 -0.354219 -0.53677)
(0.200757 0.0123655 0.162699)
(0.261156 0.105882 0.172685)
(0.428674 -0.325781 0.333399)
(0.515782 -0.528879 0.503506)
(0.545042 -0.52144 0.552763)
(0.412493 -0.234018 0.675224)
(0.471734 -0.336219 0.566924)
(0.48719 -0.607196 0.552648)
(0.70321 -0.670666 0.321109)
(0.745502 -0.485293 0.459078)
(0.796313 -0.344893 0.599699)
(0.231503 -0.223656 0.573074)
(-0.242307 -0.266775 0.822468)
(-0.180358 -0.191086 0.672625)
(-0.676256 -0.298489 0.814739)
(-0.475091 -0.17885 0.68808)
(-0.324556 -0.00131675 0.535668)
(-0.219082 0.172142 -0.296041)
(-0.193359 -0.0471901 -0.619842)
(-0.0572535 -0.170019 -1.10132)
(0.103517 -0.159304 -1.25052)
(0.274225 -0.0892309 -1.11868)
(0.429153 -0.107186 -0.704045)
(0.494432 -0.0737732 -0.630881)
(0.484445 -0.0422551 -0.62332)
(0.524057 -0.0880154 -0.653988)
(0.576458 -0.120771 -0.746582)
(0.389087 -0.0418345 -0.694164)
(0.35119 -0.0785945 -0.672846)
(0.129451 -0.112934 -0.677965)
(-0.111831 -0.049981 -0.588762)
(0.286912 -0.000267758 -0.600879)
(0.342782 0.0106599 -0.624223)
(0.629194 -0.101209 -0.66082)
(0.574743 -0.0987379 -0.40995)
(0.266137 0.0674268 -0.388149)
(0.278963 0.0513142 -0.284977)
(-0.306282 -0.0439869 0.0852666)
(-0.307298 0.142404 -0.020455)
(-0.282356 -0.0262712 -0.45605)
(0.0833369 -0.199822 -0.582965)
(0.356026 -0.278244 -0.573682)
(0.71933 -0.343425 -0.409405)
(0.806439 -0.416472 -0.379699)
(0.766885 -0.289664 -0.297053)
(0.808845 -0.363588 -0.220817)
(0.824024 -0.484442 -0.285855)
(0.735006 -0.42833 -0.281522)
(0.710601 -0.302454 -0.33533)
(0.739524 -0.250337 -0.344739)
(0.785849 -0.310003 -0.213932)
(0.798419 -0.365597 -0.162245)
(0.889258 -0.463829 -0.157161)
(1.15672 -0.629378 -0.117835)
(1.6161 -0.724246 -0.0987605)
(1.99382 -0.669822 -0.0379537)
(2.15062 -0.487786 0.0475241)
(2.07057 -0.288765 0.0956261)
(1.90531 -0.160944 0.103082)
(1.8079 -0.0926965 0.0996536)
(1.7112 0.00270055 0.0992384)
(1.57387 0.0913442 0.0914154)
(1.43668 0.110087 0.0484398)
(1.33224 0.0605178 0.0277675)
(1.24251 -0.00146882 0.0221813)
(1.14084 -0.0509316 0.0240206)
(1.0568 -0.0760092 0.0222513)
(0.999028 -0.0601579 0.0180068)
(0.823302 -0.108023 -0.0228439)
(0.717705 0.00489714 0.0112656)
(0.634264 0.0715576 0.0101289)
(0.49847 0.026767 0.00778906)
(0.360057 -0.0581302 -0.0124846)
(0.139401 -0.145378 -0.0316899)
(0.225935 -0.307376 0.00102643)
(0.353544 -0.0816824 0.0121142)
(-0.00227758 -0.229814 -0.00919064)
(0.0432182 -0.545721 -0.0503867)
(0.012189 -0.712321 -0.0525029)
(-0.00786242 -0.876359 -0.0531419)
(-0.0258268 -1.00646 -0.0648267)
(-0.0358646 -1.10248 -0.0956095)
(-0.0463315 -1.15695 -0.104885)
(-0.0578425 -1.21438 -0.118042)
(-0.0880934 -1.2763 -0.134066)
(-0.113239 -1.32119 -0.149406)
(-0.137258 -1.35511 -0.162343)
(-0.159325 -1.37696 -0.173422)
(-0.178399 -1.38843 -0.183099)
(-0.193836 -1.39012 -0.189826)
(-0.20599 -1.38302 -0.193686)
(-0.216011 -1.36829 -0.193806)
(-0.224554 -1.34639 -0.191887)
(-0.232825 -1.31595 -0.186439)
(-0.24049 -1.27508 -0.17808)
(-0.245947 -1.22083 -0.165032)
(-0.24385 -1.15166 -0.147286)
(-0.190953 -1.07213 -0.126893)
(-0.141233 -0.969396 -0.112521)
(-0.165756 -0.868834 -0.07945)
(-0.189762 -0.754817 -0.0818577)
(-0.204964 -0.543307 -0.0854588)
(-0.27363 -0.450386 -0.091952)
(0.0226005 0.0530716 -0.116143)
(-0.350812 -0.308439 0.0252018)
(-0.231666 -0.617522 -0.0545431)
(-0.270368 -0.0993008 -0.0110224)
(-0.458005 -0.182516 0.0645925)
(-0.678723 -0.198715 0.0822689)
(-0.842227 -0.209309 0.114082)
(-0.953711 -0.223179 0.144214)
(-1.03451 -0.232587 0.203811)
(-1.11787 -0.244386 0.245346)
(-1.18708 -0.244293 0.302103)
(-1.20076 -0.248535 0.336377)
(-1.17381 -0.250311 0.366285)
(-1.10695 -0.249042 0.394576)
(-0.996264 -0.243394 0.422748)
(-0.84183 -0.230431 0.454161)
(-0.668171 -0.206224 0.493613)
(-0.4211 -0.147173 0.542714)
(-0.138328 -0.118501 0.566625)
(-0.156909 0.0285542 0.822505)
(-0.16055 0.083009 1.0428)
(-0.160433 0.115236 1.11279)
(-0.161732 0.164306 1.02164)
(-0.165004 0.153256 0.839171)
(-0.151537 0.131154 0.568873)
(-0.122427 0.143535 0.286812)
(-0.223894 0.440605 0.371824)
(-0.505531 0.468269 0.33548)
(-0.690578 0.48116 0.33971)
(-0.915739 0.466118 0.33332)
(-1.09839 0.425544 0.309332)
(-1.22608 0.354086 0.266559)
(-1.2823 0.274021 0.219347)
(-1.26536 0.206675 0.182013)
(-1.23268 0.148369 0.158715)
(-1.18991 0.115619 0.140764)
(-1.10045 0.0928581 0.0904669)
(-0.958755 0.0454615 0.0700854)
(-0.767452 -0.0204778 0.0596208)
(-0.500985 -0.113809 0.0191015)
(-0.253341 -0.207826 -0.0189602)
(-0.274409 -0.197634 -0.0660568)
(-0.318492 -0.177007 0.00857191)
(-0.314682 -0.174201 0.0598786)
(-0.272849 -0.156682 0.151173)
(-0.380916 -0.233863 0.118801)
(-0.422792 -0.297044 0.118854)
(-0.326912 -0.28814 0.177419)
(-0.269861 -0.215298 0.0455827)
(-0.140701 -0.100958 -0.025864)
(-0.140866 -0.0769016 -0.00731687)
(-0.138531 -0.0742576 -0.0356533)
(-0.169319 -0.0557398 -0.0681096)
(-0.167874 -0.501564 -0.148835)
(-0.12621 -0.479789 -0.138392)
(-0.110652 -0.4472 -0.0956976)
(-0.100439 -0.424113 -0.145657)
(-0.266657 -0.538274 -0.0313605)
(-0.276547 -0.5758 -0.0255733)
(-0.284079 -0.632215 -0.0836863)
(-0.337524 -0.583016 -0.019747)
(-0.340362 -0.530188 0.0553895)
(-0.301731 -0.359282 0.0856589)
(-0.444593 -0.317139 0.115053)
(-0.361758 -0.431947 0.0405397)
(-0.347683 -0.522876 0.0140935)
(-0.378116 -0.508548 -0.0235924)
(-0.428676 -0.394597 0.032265)
(-0.49745 -0.346695 0.0732399)
(-0.529052 -0.254964 0.164163)
(-0.591333 -0.215532 0.241808)
(-0.680281 -0.19762 0.256487)
(-0.576644 -0.206776 0.212061)
(-0.517081 -0.187811 0.181654)
(-0.545432 -0.184947 0.118249)
(-0.540007 -0.171999 0.0922047)
(-0.496726 -0.18413 0.000931833)
(-0.762309 -0.086514 0.0647045)
(-0.972412 -0.00514776 0.0898292)
(-1.07998 0.052452 0.10374)
(-1.12916 0.0753938 0.138422)
(-1.1666 0.0360422 0.238296)
(-1.25111 0.0692643 0.267599)
(-1.31676 0.119736 0.349581)
(-1.33008 0.171287 0.432426)
(-1.27233 0.222427 0.525044)
(-1.14694 0.26137 0.604772)
(-0.974009 0.281435 0.649285)
(-0.774109 0.283331 0.658241)
(-0.622187 0.288445 0.645099)
(-0.341763 0.272329 0.645503)
(-0.435827 0.244439 0.875818)
(-0.468103 0.226985 1.00403)
(-0.461241 0.179244 1.08232)
(-0.442137 0.123174 1.01435)
(-0.440728 0.0582653 0.79822)
(-0.711741 -0.0053053 0.744616)
(-0.722249 0.0711913 0.945173)
(-0.740764 0.116995 1.02401)
(-0.745246 0.164041 0.979991)
(-0.694755 0.198591 0.872893)
(-0.837128 0.186206 0.862774)
(-0.879309 0.145796 0.965454)
(-0.882484 0.0882301 1.00151)
(-0.873034 0.0418361 0.926716)
(-0.866886 -0.0391392 0.707164)
(-1.00988 -0.0603691 0.676009)
(-1.0242 0.0204685 0.901477)
(-1.03692 0.0695335 0.966716)
(-1.04486 0.122032 0.94472)
(-1.01961 0.174043 0.854739)
(-1.16334 0.163156 0.804936)
(-1.1641 0.110679 0.893497)
(-1.14756 0.0571813 0.915174)
(-1.1306 0.00645537 0.859849)
(-1.11072 -0.073115 0.640315)
(-1.17079 -0.0837357 0.59574)
(-1.19618 -0.006196 0.797314)
(-1.22243 0.0436875 0.840732)
(-1.25171 0.0919717 0.812327)
(-1.26931 0.141607 0.717826)
(-1.31918 0.11109 0.611065)
(-1.29064 0.0689896 0.710031)
(-1.25218 0.0250681 0.747887)
(-1.21681 -0.0217105 0.716846)
(-1.18678 -0.0935194 0.540026)
(-1.15357 -0.10475 0.472952)
(-1.18168 -0.0413771 0.621798)
(-1.22055 0.000250403 0.641312)
(-1.27497 0.0392623 0.607154)
(-1.30816 0.0744487 0.509888)
(-1.22535 0.0358474 0.41499)
(-1.18838 0.00294877 0.500743)
(-1.12853 -0.0321561 0.531708)
(-1.08624 -0.0600973 0.520581)
(-1.03995 -0.111821 0.386992)
(-0.919047 -0.120202 0.315353)
(-0.923322 -0.109423 0.35836)
(-0.972738 -0.0804076 0.438582)
(-0.956683 -0.0870561 0.425403)
(-0.927948 -0.102631 0.395168)
(-1.0048 -0.0684004 0.381957)
(-0.996666 -0.0629723 0.307982)
(-1.00147 -0.039079 0.283325)
(-1.04475 -0.0270417 0.209593)
(-1.0398 -0.00934522 0.202847)
(-0.806905 -0.105069 0.145683)
(-0.819791 -0.125149 0.158287)
(-0.788663 -0.12838 0.216752)
(-0.824454 -0.141451 0.24993)
(-0.610334 -0.281735 0.133328)
(-0.557249 -0.2915 0.115119)
(-0.50373 -0.326923 0.132805)
(-0.420314 -0.399665 0.116382)
(-0.396939 -0.384116 0.149898)
(-0.48816 -0.284301 0.165713)
(-0.606171 -0.239113 0.184143)
(-0.61558 -0.26783 0.0970477)
(-0.513702 -0.377963 0.0442338)
(-0.439699 -0.460229 0.02837)
(-0.397342 -0.526451 0.0581555)
(-0.383949 -0.698074 0.122673)
(-0.387116 -0.663502 0.1284)
(-0.405523 -0.380466 0.107424)
(-0.408559 -0.536638 0.0818464)
(-0.399394 -0.602105 0.0441663)
(-0.215892 -0.788443 -0.158503)
(-0.193524 -0.794283 -0.259457)
(-0.115408 -0.704084 -0.36912)
(-0.0785512 -0.624206 -0.385083)
(-0.045176 -0.589092 -0.347422)
(-0.0137805 -0.556235 -0.301168)
(0.0314174 -0.50223 -0.231949)
(0.124081 -0.455787 -0.108887)
(0.124641 -0.580537 -0.121875)
(0.116734 -0.637064 -0.120167)
(0.0847566 -0.695087 -0.157594)
(0.0921242 -0.749776 -0.155704)
(0.100241 -0.806354 -0.174827)
(0.117948 -0.834736 -0.166902)
(0.125947 -0.841611 -0.152729)
(0.126159 -0.82797 -0.130223)
(0.117544 -0.792108 -0.0959658)
(0.103929 -0.735885 -0.0427924)
(0.0382093 -0.656692 0.0328672)
(0.00142018 -0.548419 0.151918)
(0.0140671 -0.303132 0.358684)
(-0.144906 0.00740766 0.448718)
(-0.36429 0.0938338 0.350998)
(-0.390779 -0.0407932 0.256013)
(-0.218565 -0.172217 0.252669)
(-0.178335 -0.188197 0.268898)
(-0.155644 -0.177069 0.214056)
(-0.0867654 -0.140467 0.205327)
(0.00249923 -0.0238425 0.0684216)
(-0.0384143 0.112763 0.0804523)
(-0.0815426 0.151013 0.0801511)
(-0.0502826 0.215029 0.169673)
(-0.00931617 0.18387 0.189707)
(0.0140257 0.0474643 0.141623)
(-0.041073 -0.0239625 0.225454)
(0.0253885 0.0969013 0.321543)
(-0.000658947 -0.0615274 0.285476)
(0.0794291 0.144899 0.245887)
(0.092242 -0.0260137 0.227531)
(-0.0188633 -0.258684 0.456071)
(0.0526251 -0.362609 0.54421)
(0.173071 -0.508627 0.512797)
(0.164927 -0.696623 0.349729)
(0.074647 -0.819828 0.142345)
(0.059006 -0.891221 -0.00857266)
(0.0651657 -0.925048 -0.119831)
(0.0631741 -0.951074 -0.197783)
(0.0600653 -0.965523 -0.248615)
(0.0519468 -0.963549 -0.279192)
(0.041812 -0.943518 -0.29248)
(0.0292393 -0.905846 -0.289292)
(0.0235855 -0.831124 -0.249611)
(0.00731626 -0.785331 -0.328766)
(0.0434868 -0.704514 -0.225288)
(0.0475102 -0.654286 -0.211382)
(0.0447173 -0.636772 -0.232067)
(0.00460691 -0.702735 -0.325146)
(-0.0225493 -0.742264 -0.382871)
(-0.0573275 -0.777503 -0.410566)
(-0.0732764 -0.844239 -0.401431)
(-0.132119 -0.904716 -0.345658)
(-0.0941028 -0.969243 -0.33141)
(-0.0890572 -0.979975 -0.372775)
(-0.0538077 -0.918485 -0.417834)
(-0.0435726 -0.868533 -0.431744)
(-0.0177352 -0.826448 -0.404149)
(-0.00963783 -0.869908 -0.341019)
(-0.0393776 -0.902093 -0.37392)
(-0.056102 -0.94872 -0.396275)
(-0.0238175 -0.991881 -0.405569)
(-0.0487282 -1.06029 -0.420134)
(-0.0666264 -1.04298 -0.423895)
(-0.0935759 -0.920766 -0.344666)
(-0.186741 -0.762071 -0.224208)
(-0.198755 -0.613971 -0.0407016)
(-0.100213 -0.733709 -0.19662)
(-0.0797741 -0.839836 -0.259112)
(-0.0594403 -0.929157 -0.323008)
(-0.0608222 -0.946568 -0.333748)
(-0.027666 -0.829668 -0.380385)
(-0.0238289 -0.724754 -0.336639)
(-0.0319709 -0.542407 -0.253171)
(-0.0159689 -0.353371 -0.162251)
(0.0330765 -0.0911847 -0.207421)
(-0.248698 -0.433988 0.0735053)
(-0.32974 -0.461579 0.0264927)
(0.222196 -0.118179 -0.244563)
(-0.172365 -0.247445 0.043615)
(-0.217989 -0.266574 -0.116485)
(-0.258344 -0.268845 -0.103241)
(-0.208514 -0.281672 -0.0212863)
(0.0812173 0.140682 -0.219106)
(0.102779 0.0595103 -0.23168)
(0.101008 -0.00036102 -0.260404)
(0.0965909 1.10252e-05 -0.265536)
(-0.0796803 -0.429853 -0.201076)
(-0.13277 -0.45004 -0.222316)
(-0.185974 -0.458413 -0.206422)
(-0.249005 -0.445185 -0.169132)
(-0.168944 -0.547597 -0.18419)
(-0.12677 -0.559478 -0.257124)
(-0.0961586 -0.565802 -0.291239)
(-0.0604346 -0.554048 -0.291442)
(-0.0506043 -0.74304 -0.34879)
(-0.081563 -0.757647 -0.331873)
(-0.106349 -0.769922 -0.281671)
(-0.147177 -0.760153 -0.19472)
(-0.134506 -0.821933 -0.182313)
(-0.128803 -0.882911 -0.200291)
(-0.0981715 -0.905605 -0.29737)
(-0.0726864 -0.87271 -0.373677)
(-0.0491288 -0.852548 -0.399893)
(-0.0767721 -0.96822 -0.370674)
(-0.112192 -0.989845 -0.335719)
(-0.138151 -1.01008 -0.283568)
(-0.137211 -1.09283 -0.346837)
(-0.0801233 -1.06726 -0.399043)
(-0.0725302 -1.14491 -0.440724)
(-0.0493935 -1.12344 -0.473313)
(-0.026961 -1.11447 -0.458538)
(-0.00336663 -1.04259 -0.415247)
(0.0120398 -1.07478 -0.406433)
(-0.0127301 -1.15311 -0.46949)
(-0.0398485 -1.18013 -0.494051)
(-0.0685512 -1.20823 -0.462861)
(-0.131553 -1.22872 -0.379098)
(-0.134895 -1.16639 -0.36915)
(-0.283658 -1.04657 -0.225329)
(-0.457364 -1.14599 -0.0769325)
(-0.463767 -1.10004 -0.0674637)
(-0.416053 -1.0457 -0.0647561)
(-0.302889 -1.0362 -0.0738099)
(-0.255743 -0.967462 -0.0640137)
(-0.309211 -0.944932 -0.0576049)
(-0.342322 -0.849061 -0.042181)
(-0.378077 -0.713709 -0.0378484)
(-0.473746 -0.626949 -0.0366744)
(-0.409842 -0.401536 -0.0340402)
(-0.464823 -0.660894 -0.00580664)
(-0.316676 -0.457705 0.0246167)
(-0.638394 -0.398876 0.00545931)
(-0.815316 -0.379513 0.0601529)
(-0.917807 -0.384671 0.084638)
(-0.967806 -0.397474 0.124379)
(-0.979815 -0.525605 0.097784)
(-0.940204 -0.689749 0.0653763)
(-0.923922 -0.750549 0.0524957)
(-0.874437 -0.848885 0.0364381)
(-0.858827 -0.896089 0.0304566)
(-0.82097 -0.928375 0.00760395)
(-0.703672 -0.96803 -0.0230235)
(-0.592481 -1.00257 -0.0420035)
(-0.626733 -0.953154 -0.0172074)
(-0.484933 -0.972171 -0.0307032)
(-0.502825 -0.893854 -0.0301197)
(-0.530435 -0.797363 -0.0232655)
(-0.559259 -0.731109 -0.0194503)
(-0.686373 -0.71272 -0.00979405)
(-0.674929 -0.598371 -0.0077658)
(-0.824094 -0.577488 0.0303501)
(-0.918433 -0.55989 0.0504141)
(-0.881347 -0.697385 0.0231477)
(-0.800381 -0.704904 0.0121985)
(-0.777514 -0.790137 0.00228167)
(-0.660883 -0.798591 -0.0107704)
(-0.635737 -0.883007 -0.0170375)
(-0.74847 -0.866605 -0.00513734)
(-0.825511 -0.850997 0.00443854)
(-0.863132 -0.773384 0.0135097)
(-0.801618 -0.739263 -0.0117706)
(-0.624158 -0.612398 0.00191755)
(-0.847139 -0.659953 0.0116943)
(-0.868089 -0.518585 0.0520823)
(-0.870497 -0.379936 0.0581689)
(-0.843375 -0.282333 0.121669)
(-0.83234 -0.30235 0.0765731)
(-0.878932 -0.350763 0.0525992)
(-0.8752 -0.203975 0.129123)
(-0.894191 -0.184299 0.17419)
(-0.760738 -0.161566 0.158545)
(-0.766448 -0.129104 0.259315)
(-0.777724 -0.120795 0.302168)
(-0.821399 -0.108674 0.355639)
(-0.828974 -0.119268 0.353058)
(-0.642369 -0.181752 0.251385)
(-0.607362 -0.173689 0.248716)
(-0.567485 -0.180518 0.215774)
(-0.551025 -0.175679 0.189069)
(-0.568757 -0.191244 0.120433)
(-0.338319 -0.194837 0.076903)
(-0.320139 -0.189344 0.101875)
(-0.329311 -0.192044 0.114494)
(-0.360581 -0.198961 0.124698)
(-0.449305 -0.216939 0.142179)
(-0.405308 -0.253427 0.0600751)
(-0.382234 -0.284974 0.068772)
(-0.410695 -0.34112 0.0473283)
(-0.315984 -0.427049 0.0362151)
(-0.311845 -0.394451 0.0494982)
(-0.283623 -0.416373 0.0159664)
(-0.192947 -0.419615 -0.0201595)
(-0.337179 -0.254171 0.0357333)
(-0.402934 -0.330995 0.0413136)
(-0.248225 -0.457535 -0.00641726)
(-0.291654 -0.459932 0.000557258)
(-0.451782 -0.321282 0.0721604)
(-0.524585 -0.299046 0.131465)
(-0.497959 -0.318717 0.136492)
(-0.470871 -0.336866 0.111509)
(-0.45869 -0.350712 0.0943498)
(-0.49314 -0.373236 0.00860863)
(-0.710671 -0.317892 0.0631878)
(-0.717761 -0.529999 0.0389379)
(-0.548958 -0.554517 -0.00179263)
(-0.509856 -0.607204 -0.00405172)
(-0.465633 -0.649486 -0.0175346)
(-0.436869 -0.65274 -0.0212203)
(-0.412803 -0.531021 -0.0230605)
(-0.410998 -0.540999 -0.0485017)
(-0.409879 -0.541464 -0.0344346)
(-0.335366 -0.550537 -0.017139)
(-0.2674 -0.596014 -0.00736392)
(-0.319447 -0.581012 -0.00355915)
(-0.403333 -0.513107 0.0070779)
(-0.331922 -0.535491 -0.00422245)
(-0.438655 -0.63052 -0.0119451)
(-0.292876 -0.473326 -0.00516847)
(-0.210296 -0.539811 -0.0183312)
(-0.280989 -0.524767 -0.0162749)
(-0.394338 -0.436198 -0.000743165)
(-0.413766 -0.362851 -0.0104287)
(-0.260542 -0.394297 -0.011068)
(-0.156919 -0.42302 -0.0363472)
(-0.136272 -0.399618 -0.0225976)
(-0.238103 -0.205408 0.0224352)
(-0.382483 -0.34296 -0.00198485)
(-0.251631 -0.47471 -0.0197028)
(-0.218941 -0.468131 -0.0236021)
(-0.122024 -0.392978 -0.0299239)
(-0.219173 -0.194566 0.0393393)
(-0.346727 -0.338038 0.0122542)
(-0.366105 -0.36339 0.0542799)
(-0.195758 -0.511271 -0.0107477)
(-0.174012 -0.46822 0.0187984)
(-0.109967 -0.420386 0.00210209)
(-0.222289 -0.229152 0.0448858)
(-0.325769 -0.341985 0.0524859)
(-0.335032 -0.33907 0.0571693)
(-0.180565 -0.463396 0.0168778)
(-0.109337 -0.409145 0.000309807)
(-0.23197 -0.220558 0.0623829)
(-0.285985 -0.221543 0.0777627)
(-0.240466 -0.23036 0.071539)
(-0.350286 -0.337119 0.0787224)
(-0.18966 -0.465479 0.0486182)
(-0.117813 -0.415791 0.0377015)
(-0.140518 -0.449857 -0.00356295)
(-0.196477 -0.497778 0.0259287)
(-0.381672 -0.350785 0.0793502)
(-0.334359 -0.625693 -0.00341005)
(-0.355649 -0.632391 -0.0115524)
(-0.499311 -0.512106 0.0579665)
(-0.651288 -0.444933 0.0983705)
(-0.666729 -0.286905 0.136463)
(-0.798148 -0.27172 0.170626)
(-0.890874 -0.320944 0.166545)
(-1.02084 -0.489125 0.126014)
(-1.10769 -0.495434 0.167777)
(-1.13258 -0.503054 0.192948)
(-1.11263 -0.505404 0.215939)
(-1.04939 -0.50168 0.238814)
(-0.94389 -0.490735 0.260691)
(-0.795126 -0.467405 0.287288)
(-0.64065 -0.432303 0.326847)
(-0.398121 -0.380732 0.395378)
(-0.164209 -0.292291 0.482932)
(0.0388178 -0.150385 0.487069)
(0.334612 -0.158493 0.428939)
(0.336513 -0.21732 0.379315)
(0.204892 -0.127628 0.489099)
(0.272181 -0.00271135 0.768611)
(0.283139 0.0467968 1.03431)
(0.268215 0.0818278 1.14374)
(0.250263 0.13441 1.09203)
(0.212903 0.123433 0.953552)
(0.143074 0.121093 0.701293)
(0.0408335 0.185722 0.402283)
(0.174535 0.512089 0.423619)
(0.424121 0.514988 0.373216)
(0.6117 0.53706 0.374242)
(0.854566 0.495952 0.350847)
(1.01162 0.416044 0.317758)
(1.07536 0.322927 0.274789)
(1.05955 0.255129 0.235275)
(1.00824 0.211119 0.200105)
(1.02595 0.159015 0.168198)
(1.04131 0.118818 0.145101)
(0.982242 0.0926763 0.0911428)
(0.877958 0.0422278 0.0682802)
(0.712351 -0.0231194 0.0544838)
(0.467063 -0.110247 0.0209565)
(0.239455 -0.216847 -0.0231055)
(0.100113 -0.620921 -0.111539)
(0.176266 -0.383361 -0.0791652)
(-0.180336 -0.171415 0.00516496)
(-0.100457 -0.392638 -0.0410799)
(-0.109758 -0.315859 -0.0673168)
(-0.111943 -0.343825 -0.0753729)
(-0.109179 -0.305819 -0.0649215)
(-0.0762007 -0.232228 -0.0608593)
(-0.149651 -0.183585 -0.0271956)
(-0.22698 0.203425 0.163169)
(-0.13956 0.463394 0.132754)
(-0.0485392 0.593617 0.0765218)
(0.0226406 0.650979 0.0726201)
(0.10528 0.669978 0.154151)
(0.200301 0.709014 0.271487)
(0.297282 0.743553 0.328462)
(0.384981 0.741031 0.364448)
(0.465295 0.681609 0.373276)
(0.53187 0.54701 0.370564)
(0.582854 0.330143 0.334937)
(0.563445 0.00697033 0.259916)
(0.384235 -0.329021 0.250685)
(0.284943 -0.328452 0.315105)
(0.220034 -0.282555 0.324909)
(0.153561 -0.191252 0.332193)
(0.144997 0.00702743 0.308819)
(0.289891 0.0105676 0.335757)
(0.449497 -0.156669 0.328329)
(0.599724 -0.25412 0.340802)
(0.638588 -0.343328 0.350459)
(0.619461 -0.435559 0.352632)
(0.473839 -0.540884 0.335119)
(0.106062 -0.567551 0.319483)
(-0.171001 -0.302189 0.304903)
(-0.0436747 -0.130302 0.355732)
(0.225485 -0.148287 0.237893)
(0.281775 -0.397677 0.0729871)
(0.00899173 -0.513421 0.236479)
(-0.13976 -0.742063 -0.13774)
(0.206167 -0.717476 -0.478475)
(0.304003 -0.389841 -0.175877)
(0.331717 -0.376912 0.0943056)
(0.34396 -0.550013 0.186775)
(0.325293 -0.891884 0.122311)
(0.526744 -0.871196 0.065209)
(0.603032 -0.689861 0.0975553)
(0.567582 -0.535761 0.138231)
(0.497842 -0.39342 0.188597)
(0.330899 -0.228255 0.24563)
(0.352365 -0.343267 0.195207)
(0.413867 -0.373772 0.142369)
(0.49458 -0.360943 0.0808041)
(0.598179 -0.289346 -0.0544026)
(0.848217 0.199481 -0.112902)
(0.897473 0.475513 -0.0176213)
(0.844358 0.670377 0.0546545)
(0.743074 0.765347 0.0966772)
(0.609614 0.787401 0.142595)
(0.458695 0.75739 0.156841)
(0.291975 0.697521 0.158886)
(0.120888 0.638477 0.0922015)
(-0.0463903 0.601448 0.0501372)
(-0.164583 0.547845 0.0656)
(-0.28642 0.431411 0.131965)
(-0.406709 0.211608 0.172919)
(-0.286694 -0.136352 0.0116217)
(-0.400879 -0.042263 0.0558942)
(-0.483634 0.0169604 0.0848403)
(-0.537683 0.140199 0.127152)
(-0.535995 0.0974609 0.0978552)
(-0.494808 -0.0409658 0.0218745)
(-0.455301 -0.103125 0.0123385)
(-0.390426 -0.159879 -0.0110369)
(-0.295389 -0.21939 -0.0257231)
(-0.190929 -0.252867 -0.039592)
(-0.142262 -0.227124 -0.0320913)
(-0.197572 -0.1924 -0.0249293)
(-0.181879 -0.342557 -0.0413772)
(-0.122368 -0.337922 -0.0496634)
(-0.100065 -0.357242 -0.0774676)
(-0.077571 -0.393966 -0.112275)
(-0.0474674 -0.576418 -0.229015)
(-0.0857486 -0.516605 -0.158374)
(-0.0997816 -0.631469 -0.125892)
(-0.145222 -0.638149 -0.0864617)
(-0.185732 -0.561283 -0.0739887)
(-0.284244 -0.384193 -0.0378672)
(-0.270484 0.128069 0.103805)
(-0.115454 0.370598 0.26784)
(-0.0155963 0.460124 0.409134)
(0.0609829 0.468904 0.538364)
(0.133761 0.410772 0.613785)
(0.185927 0.30477 0.647327)
(0.236856 0.157569 0.622688)
(0.226222 -0.012946 0.524107)
(0.0949295 -0.131503 0.420614)
(-0.0188542 -0.0978921 0.433853)
(-0.0378272 0.023613 0.411406)
(-0.0356729 0.145702 0.415133)
(0.0386326 0.250618 0.355826)
(0.201461 0.137975 0.371851)
(0.158254 0.275051 0.441949)
(-0.061334 0.166453 -0.0836499)
(-0.175039 -0.0682695 -0.636077)
(-0.182126 -0.306103 -0.529343)
(-0.168798 -0.341647 -0.298499)
(-0.145496 -0.30042 -0.0924029)
(-0.0626199 -0.583248 -0.104362)
(-0.0285566 -0.860474 -0.092232)
(0.00165533 -1.01824 -0.0903229)
(0.0318564 -1.14245 -0.100019)
(0.0650021 -1.22618 -0.114354)
(0.0955179 -1.27899 -0.128282)
(0.122246 -1.30562 -0.140236)
(0.146372 -1.31428 -0.152273)
(0.1674 -1.31239 -0.16479)
(0.185725 -1.30351 -0.175616)
(0.201337 -1.28918 -0.184136)
(0.215203 -1.26985 -0.189315)
(0.22747 -1.24518 -0.192055)
(0.238679 -1.2138 -0.190905)
(0.248243 -1.17434 -0.18569)
(0.25401 -1.12448 -0.174841)
(0.251171 -1.0616 -0.158157)
(0.194377 -0.998145 -0.138356)
(0.139519 -0.91294 -0.12225)
(0.164059 -0.828715 -0.0866084)
(0.187299 -0.728005 -0.0878154)
(0.203421 -0.559258 -0.0877187)
(0.24606 -0.442096 -0.0841074)
(0.0717749 -0.0303775 -0.0949876)
(0.365431 -0.297948 0.0438185)
(0.245236 -0.550385 -0.0566454)
(0.28546 -0.0945378 -0.0265617)
(0.180153 -0.0367818 -0.146618)
(0.201173 -0.11243 -0.123616)
(0.19407 -0.119314 -0.0795234)