/*--------------------------------*- C++ -*----------------------------------*\
| =========                 |                                                 |
| \\      /  F ield         | OpenFOAM: The Open Source CFD Toolbox           |
|  \\    /   O peration     | Version:  v2012                                 |
|   \\  /    A nd           | Website:  www.openfoam.com                      |
|    \\/     M anipulation  |                                                 |
\*---------------------------------------------------------------------------*/
FoamFile
{
    version     2.0;
    format      ascii;
    class       volScalarField;
    location    "625";
    object      alphat;
}
// * * * * * * * * * * * * * * * * * * * * * * * * * * * * * * * * * * * * * //

dimensions      [1 -1 -1 0 0 0 0];


internalField   nonuniform List<scalar> 
18258
(
0.00484377
0.00210655
0.00172459
0.0014936
0.000991059
0.00162099
0.00225168
0.00268106
0.00281337
0.00279027
0.00288978
0.00487718
0.00684523
0.00846087
0.0088881
0.0088731
0.00805514
0.00769262
0.00834975
0.0102702
0.00864026
0.00553349
0.00663239
0.0076616
0.00832881
0.00737293
0.00596056
0.00552143
0.00499894
0.00416606
0.00349127
0.00237724
0.0017545
0.00162742
0.00147399
0.00167956
0.00182863
0.00194893
0.00199305
0.00202454
0.00201074
0.00199935
0.0019454
0.00191272
0.00185673
0.00153727
0.00186759
0.00190191
0.00208186
0.00288154
0.00309819
0.00260678
0.00288516
0.00257368
0.00169611
0.00194129
0.00210727
0.00215271
0.00212504
0.00203684
0.00200711
0.00198194
0.00195005
0.00191218
0.00188912
0.00190812
0.00192799
0.00190717
0.00181361
0.00173787
0.00161524
0.00149228
0.00140117
0.00133059
0.00127738
0.00121815
0.00115159
0.00101156
0.000937542
0.00124133
0.00155837
0.00166512
0.00236012
0.0028775
0.00289702
0.00216899
0.00154593
0.00160447
0.00178335
0.00180078
0.0015256
0.00181294
0.0020529
0.00212766
0.00221712
0.00247842
0.00282331
0.0027529
0.00245179
0.0022597
0.00220592
0.00253114
0.00240854
0.00312417
0.00314496
0.00273961
0.00253741
0.00285472
0.00368246
0.00395919
0.00307381
0.00288777
0.00283127
0.00279443
0.00252828
0.00261795
0.00237842
0.00214319
0.00233529
0.00282069
0.00267508
0.00292102
0.00302729
0.00284045
0.00329149
0.0037957
0.00374164
0.00299421
0.00244257
0.0022769
0.00229407
0.00140306
0.00151509
0.00163176
0.00167176
0.00169998
0.00172386
0.00183759
0.00183343
0.0018064
0.00180241
0.00183378
0.00101068
0.00109503
0.00112232
0.0011302
0.00107381
0.00106269
0.00104276
0.0010266
0.000968472
0.000926752
0.00110877
0.00124491
0.00135585
0.00148565
0.00167902
0.00191562
0.00216433
0.0024157
0.00258194
0.0026293
0.00267709
0.00258004
0.00248221
0.00257061
0.0025854
0.0025686
0.002534
0.00249036
0.00243144
0.00232345
0.00244788
0.00244075
0.00229282
0.00196547
0.00200913
0.00200554
0.00205779
0.00204754
0.00206852
0.0020396
0.00200565
0.00190938
0.00177494
0.00147747
0.00143861
0.00145703
0.00187148
0.00227233
0.00351042
0.00428304
0.00497393
0.0053236
0.0056989
0.0046093
0.00512948
0.00395271
0.00354879
0.00451084
0.00590156
0.00336688
0.00183748
0.00348504
0.00309023
0.00224053
0.00199409
0.00205452
0.00205934
0.00236792
0.00272995
0.00302876
0.00317333
0.00330112
0.0034031
0.00351565
0.00365856
0.00369805
0.00357294
0.00302499
0.00364499
0.00295987
0.00345702
0.00312188
0.00210491
0.00223605
0.00236908
0.00216697
0.00210721
0.00201862
0.00181574
0.00223195
0.00289414
0.0033599
0.00384117
0.00512091
0.00473773
0.00454371
0.00351885
0.00340251
0.00176661
0.00252022
0.00261075
0.00293401
0.00195136
0.00177898
0.00168741
0.00224034
0.00259639
0.00306397
0.00339722
0.00403506
0.00312748
0.00357204
0.00323148
0.00225024
0.00216731
0.00310559
0.00334574
0.0027513
0.00246234
0.0030887
0.00292234
0.00207248
0.00166213
0.00255238
0.00264376
0.00189464
0.00470425
0.00500595
0.00477573
0.00582173
0.00729876
0.00832303
0.00774966
0.00687631
0.00767651
0.00609653
0.00590457
0.00629765
0.005289
0.00370798
0.00380146
0.00393157
0.0040388
0.00433695
0.00460777
0.00493809
0.00525176
0.00477334
0.00396325
0.0029991
0.00206224
0.00203324
0.00202258
0.00181628
0.00269198
0.00407476
0.00404857
0.00230184
0.00134127
0.00151591
0.00171128
0.00169431
0.00123007
0.000925518
0.00159426
0.00182318
0.00185279
0.00180692
0.00170613
0.00178294
0.00286333
0.00441123
0.00484711
0.00502042
0.00518448
0.00530046
0.00536516
0.00538589
0.00539755
0.00541172
0.00542411
0.00544279
0.00542585
0.00531012
0.00467038
0.00293588
0.00171592
0.0015939
0.00175911
0.00189053
0.00200521
0.00170607
0.00104323
0.00166634
0.00213377
0.00245275
0.00247377
0.0023088
0.0022398
0.00353192
0.00469612
0.00553545
0.00570547
0.00578115
0.00571765
0.00570929
0.00558448
0.00554524
0.00486198
0.00347864
0.00380323
0.00408327
0.00412986
0.00422507
0.00436817
0.00426659
0.00403047
0.00589223
0.00679852
0.0068853
0.00703184
0.00694879
0.00682883
0.00651858
0.00616412
0.00518931
0.0038916
0.00245544
0.00250669
0.00266855
0.00264306
0.00230088
0.00242432
0.00263096
0.00265733
0.00274443
0.00307761
0.00349575
0.00333497
0.00287027
0.00243725
0.00226935
0.00222149
0.00213132
0.00159605
0.00162
0.00157493
0.00160099
0.00215118
0.00256042
0.00295272
0.00418759
0.00373565
0.00303806
0.00481628
0.00493486
0.0053013
0.00585674
0.00600217
0.00665002
0.00462942
0.00417256
0.00428598
0.00350088
0.00324057
0.00327508
0.00328741
0.00306409
0.00335348
0.00332385
0.00320368
0.00353703
0.0038975
0.00513937
0.00622751
0.00657086
0.00676934
0.00685046
0.00682445
0.00669124
0.00673331
0.005914
0.0059077
0.00565825
0.00549633
0.00543955
0.00517074
0.00591905
0.00614381
0.00621807
0.00637235
0.00661347
0.00643448
0.00623521
0.0060839
0.00597459
0.00586022
0.00592264
0.00603179
0.00614833
0.00631245
0.00653214
0.00656912
0.00634132
0.00616945
0.00605217
0.00594214
0.00594669
0.00604479
0.0061594
0.00632235
0.00653075
0.00641499
0.00625308
0.00610904
0.00599106
0.00588735
0.00568141
0.00581794
0.00596825
0.00609208
0.00617232
0.005333
0.00570077
0.00560302
0.00507316
0.00474864
0.00360614
0.00390258
0.00411509
0.00448205
0.00497491
0.00507143
0.00425546
0.00364676
0.00355351
0.00352483
0.00360796
0.00363784
0.00365556
0.0041306
0.00622193
0.00626474
0.00628222
0.00628436
0.00537459
0.00522293
0.0048663
0.00889377
0.00827996
0.00717321
0.0059139
0.00317066
0.00271786
0.00321971
0.00391548
0.00437749
0.00483149
0.00320733
0.00198647
0.0023149
0.00240012
0.00234147
0.00216441
0.0018032
0.00166454
0.0015108
0.00162593
0.00287941
0.00459573
0.00517734
0.00523294
0.00518166
0.00508154
0.00495993
0.00479053
0.00472035
0.00593589
0.00801281
0.00907949
0.00904751
0.00777283
0.00632721
0.00355929
0.0018203
0.00131956
0.00145778
0.00159956
0.00188314
0.00168337
0.0013919
0.00152438
0.00145283
0.00294857
0.00510204
0.00652223
0.00773903
0.00760473
0.0065988
0.0054139
0.00514052
0.00526139
0.00534086
0.00540944
0.00547987
0.00552801
0.00549664
0.00500228
0.00308968
0.00184439
0.00163875
0.00176207
0.00206508
0.00219426
0.00221665
0.0021859
0.00189511
0.00313452
0.00497816
0.00316572
0.00172702
0.00186589
0.00185222
0.00326747
0.00326267
0.00319255
0.00496781
0.0052531
0.00524014
0.00492309
0.00469954
0.00278188
0.00315718
0.0031678
0.00318471
0.00323707
0.00163491
0.00178201
0.00183737
0.00197761
0.00172937
0.00219782
0.000568747
0.000787958
0.000915484
0.000995485
0.00107253
0.00105217
0.00201255
0.00204176
0.00194847
0.00189713
0.00240853
0.00258489
0.00264211
0.0024337
0.00224581
0.00239054
0.00239567
0.0022575
0.00213852
0.0022175
0.00221912
0.00212662
0.00180882
0.00169497
0.0018608
0.00184072
0.00182589
0.00327933
0.00327378
0.00309833
0.00509148
0.00500925
0.00561114
0.00557469
0.00556801
0.00554516
0.0056051
0.00563637
0.00566003
0.00568771
0.0056769
0.00562189
0.00782256
0.00553067
0.00482593
0.00279053
0.00268782
0.00189809
0.00166349
0.00195877
0.00209496
0.00227118
0.00221974
0.00234025
0.0023374
0.0024803
0.00230226
0.00204438
0.00313134
0.00334537
0.0032676
0.0033324
0.00325415
0.00323514
0.00321127
0.00316545
0.00311028
0.00185178
0.00181632
0.00212688
0.00223258
0.00239888
0.00242073
0.0024732
0.0023457
0.00206309
0.00199713
0.0022999
0.00226896
0.00231293
0.00218074
0.00217186
0.00193498
0.00198393
0.00400092
0.00738539
0.0038009
0.00422177
0.0038248
0.00434999
0.00381014
0.00328605
0.003363
0.00296217
0.0030898
0.00324094
0.00329947
0.00346759
0.00408734
0.00393518
0.0034543
0.00335417
0.00328819
0.00310047
0.00279072
0.00292337
0.00294965
0.00301288
0.00334851
0.00384055
0.00430501
0.00522991
0.00507487
0.00444665
0.00406494
0.00426205
0.0043368
0.00545843
0.0050987
0.00506925
0.00534827
0.00529607
0.00502641
0.00476308
0.00459764
0.00394776
0.00401296
0.00459289
0.00444393
0.00457935
0.00449879
0.00467653
0.00476038
0.0045692
0.00424691
0.00446401
0.00445499
0.00494741
0.00481213
0.00446374
0.00408441
0.00436516
0.00431211
0.00498106
0.00468942
0.00438627
0.0040373
0.00386719
0.00438865
0.00430878
0.00488571
0.00502678
0.00502889
0.00438431
0.0042828
0.00509307
0.00490015
0.00473275
0.00492921
0.0040823
0.00419927
0.00517267
0.00528078
0.00500951
0.00418234
0.00424688
0.00364178
0.00428212
0.0053295
0.00503255
0.00412484
0.00342303
0.00478956
0.00504037
0.00533161
0.00503926
0.00548904
0.00591413
0.00482092
0.00524535
0.00685376
0.00523391
0.00607379
0.00620838
0.00624488
0.00624794
0.00627179
0.0063026
0.00663905
0.00645616
0.00410669
0.00491121
0.00477163
0.00399156
0.00339451
0.00373869
0.0040263
0.00408416
0.00418757
0.00434683
0.00427195
0.00412902
0.00604589
0.00690096
0.00704932
0.00718893
0.00707141
0.00689838
0.00649745
0.00600642
0.00498712
0.00371929
0.00232118
0.00236567
0.00252044
0.00249564
0.00216421
0.0016329
0.00107313
0.00159308
0.001648
0.00155286
0.00141624
0.00125125
0.00129624
0.00236191
0.00459591
0.00629545
0.006942
0.00746802
0.00803086
0.00858296
0.00900674
0.00931327
0.00951793
0.00964053
0.00966242
0.00946722
0.00859232
0.00820927
0.0077363
0.00734989
0.00681894
0.00641023
0.0072453
0.00796023
0.00840271
0.00889995
0.00913093
0.0090358
0.00785212
0.0076115
0.0087541
0.0107862
0.00916719
0.0115206
0.0135521
0.0105494
0.00948819
0.00948557
0.0106002
0.0108042
0.0104169
0.00981398
0.00912266
0.00825128
0.0086796
0.00907011
0.00944802
0.00979526
0.010767
0.0109431
0.0108657
0.0107034
0.0104813
0.0101542
0.00963802
0.00893129
0.00815027
0.00738772
0.00650035
0.0046507
0.00219725
0.00247992
0.00243531
0.00261693
0.00255047
0.00117854
0.00130092
0.00131807
0.00132755
0.00125414
0.00142721
0.00206537
0.0033638
0.00241935
0.00198964
0.00137176
0.00161192
0.0026938
0.0045797
0.00517552
0.00527544
0.00533822
0.00675228
0.00788967
0.00840722
0.00879653
0.00908847
0.00897195
0.00867258
0.00814319
0.00748392
0.00723723
0.00683569
0.00648255
0.00629289
0.00609748
0.00572243
0.00449156
0.00431108
0.00449346
0.00443936
0.00424961
0.00454168
0.00470649
0.00470311
0.00475593
0.00480217
0.00494456
0.00511207
0.00525796
0.00533475
0.00536356
0.00537297
0.00538445
0.00539356
0.00541034
0.00539221
0.00527422
0.00463109
0.00289533
0.00168962
0.00156159
0.0017121
0.00181042
0.00185234
0.0016447
0.00105875
0.00164526
0.00212965
0.00218461
0.00239759
0.00247403
0.00262406
0.00292288
0.00337723
0.00348459
0.00309169
0.00292781
0.00286501
0.00279236
0.00238568
0.00297432
0.0032831
0.00327711
0.00324664
0.00350956
0.00431957
0.00414865
0.00365786
0.00361644
0.0035796
0.00323543
0.00318682
0.00348328
0.00352199
0.0036542
0.00428543
0.00514027
0.00476793
0.00434218
0.00416203
0.00384313
0.00338233
0.00305718
0.00376377
0.0030898
0.00162377
0.00137702
0.00137358
0.00137822
0.00132937
0.00157649
0.00165916
0.00168201
0.00156585
0.00173783
0.0019347
0.00187415
0.00211764
0.00208916
0.0018697
0.00185152
0.00200507
0.00211824
0.0021748
0.00223076
0.00365596
0.00377392
0.00292381
0.00423371
0.00487753
0.00484474
0.00513956
0.00422662
0.00378869
0.0044979
0.00520025
0.005969
0.00471554
0.00445922
0.00456449
0.00209322
0.0011015
0.001554
0.0019297
0.0021516
0.00208833
0.00197364
0.00166962
0.00296616
0.00304608
0.00483966
0.00542974
0.00550094
0.00546614
0.00546733
0.0059417
0.00682125
0.00783078
0.00815705
0.00804493
0.00768267
0.00700543
0.00633002
0.00629637
0.00608551
0.00593045
0.0058872
0.00511545
0.00451369
0.00483604
0.00475786
0.00491926
0.00499498
0.00505011
0.00510631
0.00519968
0.00531234
0.00541522
0.00548563
0.00553269
0.00557218
0.00561226
0.0056523
0.00569546
0.00571875
0.00566453
0.00511926
0.00306885
0.00182866
0.00166756
0.00177923
0.00209128
0.00220207
0.00236661
0.00210065
0.00110617
0.00130074
0.00226056
0.00250817
0.00232101
0.00217213
0.00213333
0.00178705
0.00324004
0.00319845
0.00502452
0.00565187
0.00573141
0.00571567
0.00567142
0.00562089
0.00557065
0.00552918
0.00549571
0.00546039
0.00541118
0.00535195
0.00529697
0.00524072
0.00514527
0.0050105
0.00485338
0.00504594
0.00522451
0.00545212
0.00569294
0.00580912
0.00570298
0.00554868
0.0054863
0.00552557
0.0055758
0.00562682
0.00567259
0.00569594
0.00563178
0.00530651
0.00497644
0.00315
0.00319157
0.00156841
0.00174207
0.00201014
0.00207609
0.00225444
0.0022429
0.00176213
0.00137379
0.00155043
0.00144962
0.00259077
0.00284966
0.00316144
0.00313061
0.00169868
0.00174252
0.00181079
0.00204204
0.00189816
0.0018351
0.00454605
0.00435268
0.00455359
0.00558659
0.00481264
0.00332099
0.00363723
0.00506174
0.00533949
0.00322627
0.00242026
0.0026833
0.00339911
0.00500529
0.00506847
0.00481657
0.00478891
0.00349352
0.00429506
0.00517194
0.00503132
0.00391817
0.00269912
0.00201156
0.000976592
0.00185745
0.0015878
0.00389631
0.00431287
0.00426359
0.00466256
0.00495356
0.00500405
0.00486261
0.0043107
0.0043972
0.00444099
0.00506157
0.00508456
0.00430202
0.00362915
0.00294576
0.00297256
0.00303055
0.00335839
0.00420496
0.00396187
0.00347244
0.00336693
0.00329401
0.00309797
0.00279536
0.0024515
0.00246873
0.00229801
0.00222408
0.00350618
0.00466739
0.00550416
0.00566245
0.00571975
0.00563196
0.00559209
0.00543219
0.00534954
0.00464754
0.00593655
0.00627419
0.00605413
0.00609872
0.00613668
0.00618346
0.00618446
0.0060682
0.00521385
0.00311332
0.00203345
0.00229518
0.00247711
0.00232578
0.00231287
0.0024654
0.00233967
0.00205521
0.00332992
0.00325496
0.00520505
0.00589532
0.00602156
0.00602882
0.00600482
0.00598505
0.00599313
0.00630854
0.00616484
0.00624629
0.00657509
0.00658642
0.00666785
0.00626131
0.00618235
0.00613192
0.00609809
0.00604267
0.00589426
0.00521583
0.00505715
0.00574316
0.00592008
0.00599835
0.00605233
0.00611668
0.00620115
0.00644607
0.00662741
0.00669648
0.00643022
0.00633256
0.00618586
0.00597661
0.00592656
0.00591615
0.00591085
0.00588194
0.00572932
0.00504286
0.0032422
0.00332207
0.00197616
0.00198888
0.00229066
0.00240564
0.00236248
0.00218765
0.00213284
0.00367901
0.00418756
0.00445239
0.004799
0.0045845
0.00455828
0.00520908
0.00504098
0.00449069
0.00467435
0.00419359
0.00399347
0.00386767
0.00389086
0.00203928
0.00220068
0.00229571
0.00225788
0.00215908
0.00192591
0.00176613
0.0032235
0.00319998
0.00315875
0.00187779
0.00183649
0.00216357
0.00210093
0.00192176
0.00163817
0.00179606
0.00277451
0.00310329
0.00481269
0.00498526
0.00533537
0.00570583
0.0058465
0.00588527
0.00590929
0.00593603
0.00599275
0.00605917
0.00607747
0.0060734
0.00611767
0.00610698
0.00610883
0.0060774
0.00604119
0.00599871
0.00595308
0.00587746
0.00572106
0.00534588
0.00497784
0.00561244
0.00566436
0.00576988
0.00587869
0.00592466
0.00593137
0.00590924
0.00586567
0.00581412
0.00575495
0.00575413
0.00592658
0.00596826
0.00599808
0.0059799
0.00595832
0.00595036
0.00592275
0.00587922
0.00577
0.00566067
0.00561456
0.00552073
0.00566818
0.00573359
0.00574324
0.00579895
0.00588842
0.0059152
0.00591575
0.00587289
0.00583636
0.00578844
0.0057097
0.00560537
0.00525944
0.00532905
0.00542083
0.00554107
0.00565715
0.00575114
0.00580441
0.00580908
0.00575653
0.00572111
0.00572255
0.00567391
0.00569907
0.00572496
0.00569546
0.00569125
0.00569428
0.00562771
0.00550788
0.00534173
0.00516649
0.00502253
0.00495082
0.0048327
0.00522245
0.00537568
0.00551169
0.00563158
0.00573877
0.00584526
0.00587614
0.00586231
0.00579628
0.00575867
0.00575709
0.00570164
0.00569881
0.00575232
0.00575446
0.00578561
0.00584165
0.00582786
0.00575164
0.0055504
0.00535381
0.00518201
0.00501661
0.00483995
0.00480073
0.00487959
0.00481031
0.00487351
0.00504146
0.00525437
0.00543953
0.00555945
0.00559851
0.00563471
0.00568692
0.00568173
0.00565058
0.00563298
0.0055624
0.00550054
0.00542499
0.00526223
0.00505656
0.00487699
0.00482288
0.00492285
0.00501932
0.00492797
0.00457312
0.00475689
0.00493264
0.00510591
0.00535011
0.00563024
0.00574997
0.00579246
0.00576394
0.00574173
0.00573877
0.00568809
0.00567004
0.00571678
0.00572079
0.00574343
0.00577959
0.00574669
0.0056499
0.00530757
0.00489598
0.00469749
0.00457902
0.00442334
0.00495267
0.00505637
0.00493266
0.00484883
0.00497881
0.00512866
0.00528451
0.00538889
0.00543153
0.0054918
0.00557083
0.00560928
0.0055534
0.00548781
0.00540739
0.00536598
0.0053657
0.00534115
0.00524181
0.00512288
0.00498282
0.00515021
0.00524765
0.00515321
0.00466515
0.00474254
0.0048635
0.00493535
0.00532233
0.00565414
0.00572789
0.00572729
0.00569012
0.00566603
0.00566617
0.00563649
0.00558094
0.0055713
0.00556725
0.00563451
0.00572311
0.0057779
0.00580725
0.00556045
0.00509793
0.00501492
0.00479887
0.00470059
0.00522275
0.00528155
0.00516039
0.00504835
0.00529373
0.00539731
0.00542449
0.00540074
0.00534283
0.00530544
0.0053742
0.00548267
0.00540077
0.00504938
0.00473763
0.00489822
0.00493887
0.00492829
0.00486252
0.00475035
0.00450534
0.00503166
0.00554416
0.00558528
0.00503808
0.00504648
0.00489254
0.00455969
0.00500896
0.00524183
0.0052904
0.00526457
0.00517925
0.00497999
0.0052593
0.00550558
0.00545806
0.00494106
0.003207
0.00325097
0.00327392
0.00327657
0.00323388
0.00322198
0.00317519
0.003151
0.00307814
0.00300389
0.00293323
0.00312855
0.00329663
0.00352224
0.00354124
0.00363466
0.00347872
0.00329282
0.0030751
0.00239396
0.0030378
0.00362431
0.00385167
0.00414296
0.00420258
0.00484613
0.00509784
0.00523219
0.00512912
0.0041143
0.00348956
0.00278826
0.00181328
0.00112978
0.00132594
0.00137891
0.00144711
0.0017687
0.00328625
0.00167236
0.0023226
0.00181457
0.00312996
0.00164257
0.00102717
0.000679943
0.000864042
0.0010232
0.00103193
0.000991203
0.000827691
0.000653023
0.000667622
0.000624299
0.000663606
0.000598767
0.00068613
0.000641273
0.000895509
0.00134536
0.0015261
0.00155986
0.00126077
0.00142171
0.00118776
0.0013699
0.00122313
0.00133316
0.00127874
0.00156412
0.00171419
0.00164128
0.00164599
0.00144043
0.00100746
0.00116771
0.000917336
0.00110135
0.000842647
0.00108818
0.000933121
0.00121246
0.00124986
0.00124627
0.00119999
0.000916811
0.00108711
0.000855763
0.00104798
0.000857735
0.000910811
0.000757562
0.00109668
0.0011164
0.00102927
0.00109336
0.00122648
0.00131602
0.00145306
0.0013795
0.00157597
0.00152649
0.00155297
0.00147088
0.00143007
0.00139737
0.00140016
0.00137714
0.0013847
0.00142934
0.00143155
0.00143722
0.00148279
0.00146121
0.00142619
0.00140518
0.00124826
0.00100707
0.00175436
0.00180922
0.00183587
0.00183531
0.00179349
0.00177352
0.00171223
0.00169595
0.0016426
0.00161128
0.00153988
0.00148121
0.00141435
0.00159019
0.000889812
0.00101035
0.0010667
0.00109837
0.00112052
0.00113068
0.00113898
0.00113264
0.00111863
0.00109092
0.00108142
0.00105124
0.00134521
0.00153019
0.00159937
0.00161774
0.00151627
0.00144372
0.00315671
0.00382052
0.00581207
0.00594064
0.00445869
0.00444533
0.00153888
0.00162306
0.00110983
0.0015596
0.00160805
0.00159168
0.00150368
0.00108463
0.00162775
0.00113374
0.00152757
0.00114328
0.00141443
0.0011603
0.00164494
0.00209503
0.00202019
0.00182936
0.00124474
0.00103635
0.0010338
0.000886376
0.000972778
0.000805532
0.00099137
0.000839681
0.00125059
0.00178157
0.00197069
0.00201035
0.00158527
0.00218712
0.00164432
0.0023804
0.00188916
0.00232943
0.00186931
0.00216425
0.00267786
0.00268975
0.00262588
0.00211631
0.00169623
0.00190367
0.00168654
0.00194216
0.00280722
0.00183973
0.00279
0.00115299
0.00157147
0.00161963
0.00159734
0.00150609
0.00101485
0.00258513
0.00136679
0.00243537
0.00157552
0.00253109
0.00183163
0.00241931
0.00289165
0.00301919
0.0030047
0.00245333
0.00220724
0.00227444
0.00181558
0.00217904
0.00163011
0.0023692
0.0013509
0.00175821
0.00194736
0.00205038
0.00205906
0.00169302
0.00334273
0.00209848
0.00316755
0.00220197
0.00282128
0.00226121
0.0024745
0.00292215
0.00290407
0.00287983
0.00244209
0.00197569
0.00260751
0.0018604
0.0553083
0.127911
0.0508753
0.129306
0.058553
0.0831274
0.0819239
0.0821077
0.0824232
0.0619072
0.135046
0.159516
0.166338
0.168342
0.167067
0.269975
0.220098
0.330696
0.21434
0.126062
0.0545931
0.0753096
0.194537
0.321374
0.482303
0.612084
0.417102
0.431797
0.275551
0.271712
0.255818
0.206943
0.126815
0.0635905
0.0109198
0.0119384
0.0170838
0.0227396
0.0179053
0.0109747
0.00216914
0.00223921
0.00229068
0.00232352
0.00231723
0.00227002
0.00230799
0.00218148
0.00205346
0.00229887
0.00250633
0.00267403
0.00315538
0.003488
0.0031443
0.00344571
0.00365108
0.00381885
0.0039582
0.00416554
0.00439876
0.00460277
0.00461323
0.00422637
0.0036017
0.00292832
0.00245953
0.00232964
0.00218748
0.00192902
0.00176452
0.00165163
0.0015976
0.00157544
0.00161933
0.00177006
0.00190108
0.00194705
0.00190903
0.00187406
0.00184359
0.00164169
0.00191957
0.00263313
0.00265329
0.0045458
0.00523804
0.00534711
0.00535479
0.00474587
0.0030315
0.00303827
0.00305392
0.00311243
0.00312486
0.00313369
0.00313071
0.0031208
0.0031028
0.00306963
0.00305267
0.00300306
0.00296108
0.00285553
0.00286015
0.00289619
0.00292503
0.00287654
0.00288774
0.00282778
0.00369628
0.0049333
0.00555339
0.00580287
0.00601825
0.00584093
0.00809761
0.00693305
0.00486758
0.00478528
0.0047261
0.00560675
0.0056449
0.00509661
0.00511777
0.0046721
0.00291788
0.00291272
0.00291475
0.00311961
0.0031816
0.00328789
0.00331761
0.00334203
0.0033575
0.00334851
0.0033458
0.00331408
0.0032913
0.00321566
0.00319062
0.00317977
0.00175303
0.00191353
0.00198573
0.00199956
0.00202984
0.0020181
0.00200715
0.00198322
0.00196837
0.00193548
0.00189809
0.00184108
0.00173022
0.00157563
0.00173355
0.00294007
0.00293859
0.00478687
0.0054001
0.00543999
0.00605748
0.00574947
0.00544515
0.00584181
0.00526526
0.00522233
0.00472938
0.00293789
0.00297797
0.00176844
0.00175372
0.00205142
0.00199556
0.00213302
0.00219189
0.00219799
0.00222813
0.00225623
0.00229185
0.00234975
0.00236612
0.00232744
0.00231962
0.00218415
0.001887
0.00190911
0.00225123
0.00236223
0.00219429
0.0021575
0.00214162
0.00208922
0.00204963
0.00201198
0.00203839
0.00219508
0.00219196
0.00215226
0.00204761
0.00199302
0.00172669
0.00166717
0.00291394
0.00296045
0.00489488
0.00499915
0.00496301
0.00572538
0.00639705
0.00727348
0.00621074
0.00504868
0.00526139
0.00602076
0.00448542
0.00376096
0.00223688
0.00167573
0.00209998
0.00192733
0.00201016
0.00208289
0.00184986
0.00198855
0.00183867
0.00167097
0.00166152
0.00165965
0.00170037
0.00171765
0.00174872
0.00175298
0.00179557
0.00179144
0.00179595
0.00181774
0.00182617
0.00201761
0.00219163
0.00184516
0.00156456
0.0015253
0.00144045
0.00137182
0.00140539
0.00137147
0.00136302
0.00133798
0.00131521
0.00125509
0.00130782
0.00138782
0.00162363
0.00155368
0.00125572
0.00112194
0.000766723
0.00078233
0.000787739
0.000811886
0.000820819
0.000831759
0.000835868
0.000849476
0.000852149
0.000856482
0.000856163
0.000877092
0.000874099
0.000863972
0.00085749
0.000861543
0.000865385
0.000864716
0.00126631
0.0014099
0.00153934
0.00182803
0.00215055
0.00185157
0.00156977
0.00135353
0.000870054
0.000883051
0.00089916
0.000907475
0.000926794
0.000944363
0.000963953
0.000976274
0.000985507
0.000995141
0.00100533
0.00100934
0.00100683
0.000987323
0.000975862
0.0010006
0.00109987
0.00115754
0.00123162
0.0012596
0.00128332
0.00129498
0.00128917
0.00130282
0.0012878
0.00128579
0.00126419
0.00125505
0.00124643
0.00123541
0.00122163
0.00118723
0.00117583
0.00123706
0.00209527
0.0027404
0.00315371
0.00347187
0.00321487
0.00261353
0.00274016
0.00481896
0.00456538
0.00268998
0.00251337
0.00232198
0.00203227
0.00177082
0.00213998
0.00244178
0.00266985
0.0028697
0.00305276
0.00317738
0.00333802
0.00354763
0.00391714
0.00396326
0.00361462
0.00292762
0.00247621
0.00231105
0.00223232
0.00209623
0.00194749
0.0019966
0.00201116
0.00195152
0.00187748
0.00185678
0.00188778
0.00192779
0.00190486
0.00190421
0.00170132
0.00170065
0.00290614
0.00295953
0.00455263
0.00479725
0.00484423
0.00311393
0.00307152
0.00179405
0.00166632
0.00181787
0.00188726
0.00189133
0.0018993
0.00188992
0.00185721
0.00183319
0.00180517
0.00178226
0.00176182
0.00172662
0.00165946
0.00153278
0.00166983
0.00187229
0.00195583
0.00197789
0.00198864
0.00202017
0.00207169
0.00211281
0.0022082
0.00221756
0.00221647
0.00222412
0.00207866
0.00214346
0.00181402
0.00181117
0.00313937
0.00313045
0.00179827
0.00212341
0.00213822
0.00211402
0.00227621
0.00208301
0.00201713
0.0020068
0.00192206
0.00187689
0.00181644
0.00178022
0.00181458
0.00192976
0.00186788
0.00165541
0.00159405
0.00178896
0.00172206
0.00142873
0.00122078
0.00118739
0.00113676
0.00110607
0.00115947
0.00120118
0.00122498
0.00125511
0.00126403
0.00131918
0.0012834
0.00134648
0.00142791
0.00149272
0.00177051
0.0019189
0.00173353
0.00170037
0.00167931
0.00167785
0.00168323
0.00161403
0.00160945
0.0015736
0.00155588
0.00150885
0.00148757
0.00146051
0.00146514
0.00148035
0.0016273
0.00418849
0.0053416
0.00556287
0.00950753
0.00383878
0.00392086
0.00769359
0.00318031
0.00478186
0.00512381
0.00535522
0.00559237
0.00511805
0.00651055
0.00454189
0.00506061
0.00526843
0.00460081
0.00173529
0.00199595
0.0022909
0.0020362
0.00179793
0.00122469
0.00131932
0.00136191
0.00139668
0.001419
0.00144417
0.00147101
0.00149624
0.00151387
0.00151396
0.00146762
0.00141779
0.00130335
0.00126524
0.00131421
0.00136482
0.00119816
0.00112798
0.00114123
0.00115989
0.00117034
0.00117248
0.00118387
0.00118688
0.0012049
0.00119515
0.00120418
0.00118348
0.00119381
0.00117843
0.00113842
0.00108198
0.00098624
0.000962909
0.00138697
0.00147697
0.00155141
0.00176094
0.00203366
0.0021703
0.00194555
0.00179477
0.00172285
0.00191104
0.00191287
0.00347947
0.00667777
0.00298926
0.00334672
0.00975636
0.00388036
0.00301491
0.00306012
0.00309218
0.00309675
0.00179928
0.0021309
0.00206603
0.00207508
0.0017602
0.001478
0.00132569
0.00118529
0.000803923
0.000801328
0.000807375
0.000819811
0.000823687
0.000788488
0.000788396
0.000783896
0.000782134
0.000765503
0.000760854
0.000747304
0.000739068
0.000719577
0.000709011
0.000690532
0.0006875
0.000720367
0.000803777
0.00097212
0.00107835
0.00122796
0.00124922
0.00139917
0.00345708
0.00400931
0.00552664
0.00548582
0.00865289
0.00540626
0.00408307
0.00368563
0.00539406
0.00557374
0.0051642
0.00699441
0.00483955
0.00321032
0.00489841
0.00408806
0.00475875
0.00469455
0.00499043
0.0079297
0.00833698
0.00234244
0.00208744
0.002195
0.00249073
0.00295787
0.00272765
0.0031056
0.00311113
0.00240858
0.00151923
0.00483632
0.00583371
0.00471524
0.00568633
0.00872581
0.00350052
0.00341318
0.00301954
0.00252026
0.00229037
0.00226031
0.00252065
0.0030163
0.00754704
0.00807564
0.00749482
0.00748836
0.00678771
0.00741289
0.00923946
0.00918665
0.00812654
0.00760398
0.00789353
0.00493627
0.00302849
0.00352265
0.00390828
0.00521578
0.00537812
0.0113642
0.00385756
0.00425984
0.00432579
0.00578282
0.005601
0.00989561
0.00419945
0.00452697
0.00596334
0.00797341
0.0146953
0.00536939
0.00565079
0.0081249
0.00824842
0.00753867
0.00544896
0.0049324
0.0053728
0.00404806
0.00395778
0.00337567
0.00498187
0.00670668
0.00530915
0.00515482
0.0043827
0.00391141
0.00399644
0.00414946
0.00344729
0.0033981
0.00391931
0.00291778
0.00282782
0.00297896
0.000829079
0.00042476
0.000434142
0.000445422
0.000454608
0.000464085
0.000471001
0.000479215
0.000482897
0.000483314
0.000484575
0.000512363
0.000507567
0.00049152
0.000446316
0.000509234
0.000808119
0.000808605
0.000508596
0.000448352
0.000804532
0.00128184
0.00151116
0.00178745
0.00180936
0.00156137
0.00135382
0.00083344
0.00082033
0.000497206
0.000580702
0.000630623
0.000559382
0.000624327
0.000578698
0.00061291
0.000619379
0.000573195
0.000569961
0.000572149
0.000567791
0.000557664
0.000545322
0.00053031
0.000518636
0.000512548
0.00050818
0.00049808
0.000412465
0.000385064
0.000464988
0.000743677
0.000744083
0.000696453
0.000654886
0.000619071
0.000602271
0.000597186
0.000593601
0.000603916
0.000623419
0.000628936
0.000634516
0.000683578
0.000662062
0.000707119
0.000663692
0.000709019
0.000665439
0.000612154
0.000513995
0.000530288
0.000855525
0.000864629
0.00139678
0.00159763
0.00181139
0.00182047
0.00203215
0.00214032
0.00181282
0.00188205
0.00215648
0.00200822
0.00178988
0.0017971
0.00161648
0.00161832
0.00143386
0.000896226
0.000884083
0.000555203
0.000539219
0.000642958
0.000631747
0.000702589
0.000751966
0.000752202
0.000749777
0.000731179
0.000724433
0.00063714
0.000624582
0.000625431
0.000606597
0.000602869
0.000629644
0.000689089
0.000810444
0.00098068
0.0010669
0.00110244
0.00105647
0.000945255
0.00069976
0.000630706
0.00109498
0.00113412
0.00204665
0.00486095
0.00228399
0.00429727
0.00310019
0.00076882
0.00085684
0.00109255
0.00122413
0.00132203
0.00137937
0.00126234
0.00105442
0.000793899
0.0006553
0.000975714
0.000843576
0.000951566
0.000830859
0.00107538
0.00124323
0.00120256
0.00121147
0.0010237
0.000833741
0.000882946
0.000792482
0.000873432
0.000731303
0.000879817
0.000794316
0.000998112
0.00100746
0.000986471
0.000935018
0.000711918
0.000746956
0.000626566
0.000679749
0.000610328
0.000630865
0.000597773
0.000697125
0.000803325
0.00077101
0.000768023
0.000631075
0.000494555
0.000546258
0.000472498
0.000534806
0.000415761
0.000503626
0.000422309
0.000546769
0.000563873
0.00056741
0.000564706
0.000460307
0.000541343
0.000661619
0.00069374
0.000699009
0.000665578
0.000513085
0.000793838
0.000716134
0.000874232
0.000755986
0.000827624
0.000753605
0.000878344
0.00112492
0.00117454
0.00118235
0.000959338
0.00095334
0.0017407
0.0965591
0.00156579
0.00185069
0.00190849
0.00190167
0.00157223
0.00153384
0.00190005
0.00140536
0.00199042
0.00125337
0.00212316
0.000809333
0.00123022
0.0013208
0.00131803
0.00122503
0.000822272
0.00243292
0.118925
0.307869
0.334272
0.333734
0.320747