/*--------------------------------*- C++ -*----------------------------------*\
| =========                 |                                                 |
| \\      /  F ield         | OpenFOAM: The Open Source CFD Toolbox           |
|  \\    /   O peration     | Version:  v2012                                 |
|   \\  /    A nd           | Website:  www.openfoam.com                      |
|    \\/     M anipulation  |                                                 |
\*---------------------------------------------------------------------------*/
FoamFile
{
    version     2.0;
    format      ascii;
    class       volScalarField;
    location    "625";
    object      k;
}
// * * * * * * * * * * * * * * * * * * * * * * * * * * * * * * * * * * * * * //

dimensions      [0 2 -2 0 0 0 0];


internalField   nonuniform List<scalar> 
18258
(
0.0334369
0.0157647
0.0123054
0.0101543
0.0109848
0.0139853
0.0167827
0.0211496
0.0255699
0.0315115
0.0385834
0.0475189
0.0535242
0.0606812
0.0636519
0.0619231
0.0520615
0.0473172
0.0564987
0.0809949
0.071073
0.0513915
0.0623348
0.0614947
0.0722423
0.0763219
0.0600824
0.0548646
0.0494464
0.0437603
0.0371984
0.0230626
0.0240854
0.0288383
0.032048
0.0357488
0.0385973
0.0409178
0.0425706
0.0433857
0.0432911
0.0419954
0.0393071
0.0352746
0.0298265
0.0238626
0.0235469
0.023748
0.0294571
0.0350917
0.0405603
0.0461646
0.0545854
0.0446721
0.0290429
0.0391911
0.0476651
0.0545568
0.0589867
0.0614384
0.0622044
0.0612934
0.0590053
0.0557472
0.0517874
0.0474504
0.0434354
0.0394531
0.0342131
0.0309552
0.026848
0.0235069
0.0210697
0.0193597
0.0182428
0.0172375
0.0163703
0.0156357
0.0150192
0.0145944
0.0145033
0.0145301
0.014631
0.0147276
0.0150717
0.0127239
0.010951
0.0104831
0.0102255
0.00957073
0.00810935
0.0106591
0.0117597
0.012175
0.0124436
0.0136227
0.0147853
0.0143627
0.0136366
0.0125228
0.0125561
0.0170246
0.0178066
0.0228477
0.0216652
0.0168508
0.0148878
0.0166734
0.0195119
0.0225448
0.0192533
0.0192354
0.0179414
0.0170319
0.0148928
0.0149384
0.0144307
0.0141244
0.0150487
0.0177985
0.0172058
0.0173119
0.0185346
0.01886
0.0200882
0.0211068
0.0204547
0.0202724
0.0164267
0.016327
0.0173683
0.0172421
0.0177223
0.0202084
0.0202661
0.0206149
0.0208328
0.0236152
0.0236336
0.0235976
0.0236888
0.0245243
0.0235634
0.0231515
0.0231813
0.0232173
0.0210548
0.0208306
0.0204637
0.0205011
0.0183428
0.017607
0.0183371
0.0193165
0.0212921
0.0250464
0.031484
0.0404083
0.0505054
0.060747
0.0685154
0.072869
0.0772304
0.0766857
0.0773804
0.0794717
0.079837
0.0786917
0.0768374
0.0746708
0.0717161
0.0670787
0.0665923
0.058941
0.0480613
0.033389
0.0388798
0.0417124
0.0444648
0.0447789
0.0452701
0.0440727
0.0423301
0.0387582
0.0336605
0.0247666
0.0257395
0.0301849
0.0348476
0.0386335
0.0427945
0.0464247
0.0482781
0.0499892
0.0593449
0.0570814
0.0551763
0.0568704
0.0584278
0.0616289
0.0600546
0.0561194
0.0501623
0.0518105
0.0449247
0.0335833
0.031375
0.029261
0.0269921
0.0378731
0.0496641
0.0611841
0.0674928
0.0736288
0.0784452
0.08246
0.086973
0.0815415
0.0764117
0.0577257
0.0837767
0.0657284
0.0505072
0.0412015
0.0332605
0.0315407
0.0343139
0.0343692
0.0325641
0.02801
0.0220466
0.0229923
0.035806
0.0455922
0.0535925
0.0551767
0.0598656
0.0622683
0.0570052
0.0575765
0.0467521
0.0479435
0.0513871
0.0459878
0.0437319
0.0351194
0.0274199
0.0335661
0.0499529
0.0685332
0.084395
0.0994131
0.0659479
0.0501568
0.0410862
0.0342492
0.0330875
0.0377186
0.0436574
0.0528029
0.0412176
0.0371605
0.0336438
0.0307665
0.0258148
0.0275376
0.0287571
0.0269408
0.0497827
0.057344
0.0610334
0.0834634
0.0923812
0.108325
0.107027
0.0925817
0.0962485
0.0690352
0.0687611
0.0860894
0.0681786
0.0513318
0.0615992
0.0745311
0.0883922
0.101597
0.112941
0.12204
0.123716
0.112198
0.0813389
0.0468317
0.0213021
0.0186398
0.0180814
0.0173747
0.0164904
0.0157052
0.0150915
0.0121548
0.00951618
0.00928306
0.00945978
0.00940361
0.00826909
0.00951572
0.0115771
0.0137708
0.0152802
0.0164902
0.0175113
0.0182465
0.0188355
0.0192344
0.0195313
0.0197993
0.0200353
0.020222
0.020361
0.0204529
0.0204966
0.0204837
0.0204077
0.0202671
0.0200602
0.019771
0.0192959
0.0177637
0.0159094
0.0150806
0.0151395
0.0148897
0.0145873
0.0119518
0.0123255
0.0143457
0.0149788
0.0177712
0.0198077
0.0215114
0.0229658
0.0244927
0.0252691
0.026097
0.0263618
0.0264133
0.0263117
0.02616
0.0259337
0.0256283
0.0245595
0.0212967
0.0249004
0.0272946
0.0289822
0.0303334
0.0312363
0.031337
0.0285872
0.0360727
0.0385295
0.0394329
0.0396997
0.0388834
0.0368784
0.0344365
0.0323867
0.0308807
0.0297644
0.0276226
0.0253761
0.0230675
0.0206521
0.0174296
0.0186994
0.0205353
0.0207455
0.0204553
0.0215
0.0227599
0.0211064
0.0190172
0.0161248
0.0151264
0.0146344
0.0144438
0.0148482
0.0145054
0.0144057
0.014905
0.017921
0.0190163
0.0207178
0.0239745
0.022841
0.020896
0.0280681
0.029681
0.0301289
0.0304768
0.0303859
0.0296309
0.0265502
0.0250929
0.0264792
0.0250212
0.0243906
0.0244797
0.0241121
0.0222494
0.0245497
0.0265501
0.0281406
0.0289883
0.0302262
0.0317799
0.0339395
0.0357322
0.0373901
0.0383914
0.0383658
0.0378256
0.0380039
0.0386506
0.0383337
0.0366467
0.0345787
0.0324957
0.0295417
0.0293629
0.0313285
0.0328823
0.0345355
0.0363057
0.0356241
0.0337415
0.0321225
0.0307104
0.029008
0.0288878
0.0305571
0.0319937
0.0337264
0.0358426
0.0360243
0.0338843
0.0320702
0.0305714
0.0288749
0.0288422
0.0305372
0.0320453
0.0337661
0.0356527
0.0347838
0.0333141
0.0317939
0.0303298
0.02867
0.0282318
0.029832
0.0312116
0.0325236
0.033588
0.0319145
0.0313256
0.030257
0.0288698
0.0271144
0.0258585
0.0263671
0.0277533
0.027864
0.0283421
0.0294591
0.0293044
0.0290216
0.0289768
0.0286952
0.0264494
0.0268567
0.0269055
0.0275974
0.0308957
0.0304177
0.0330898
0.035502
0.0331938
0.0317053
0.0281369
0.0336983
0.0337417
0.0347018
0.0335291
0.023755
0.0219005
0.0229016
0.0244356
0.0260766
0.0253903
0.0226356
0.0225679
0.0231712
0.0225861
0.0210273
0.018045
0.0135599
0.0135691
0.0135613
0.0142959
0.0171012
0.0187
0.0188115
0.0186562
0.0183534
0.0178811
0.0171643
0.0160932
0.015628
0.0245944
0.0444784
0.0563734
0.0557982
0.0424375
0.0355009
0.0261324
0.0179104
0.0105066
0.0107296
0.011369
0.0137305
0.0115817
0.0104966
0.0144538
0.01178
0.0196871
0.022876
0.0302611
0.0412908
0.0398107
0.0301767
0.0204253
0.0184648
0.0193311
0.0198449
0.0202335
0.0206157
0.0210015
0.0214204
0.0219296
0.0216019
0.0189659
0.0167235
0.0168506
0.017422
0.0199251
0.0213034
0.0220957
0.0217642
0.0220145
0.0237394
0.0224915
0.0212631
0.0210552
0.0203504
0.0231945
0.0235415
0.0229139
0.0229232
0.0232011
0.0230817
0.0232133
0.0240199
0.0198195
0.0219303
0.0224797
0.0227631
0.0235581
0.0190549
0.0192426
0.0193044
0.0181454
0.0148992
0.018029
0.0167854
0.0121646
0.0134807
0.0134433
0.0140543
0.0143801
0.017122
0.0162824
0.0155592
0.0163218
0.0223057
0.0231165
0.0232966
0.0206555
0.0194119
0.0219025
0.0224906
0.0220291
0.021143
0.0213104
0.0203663
0.0184611
0.0177413
0.0178786
0.0192921
0.0200904
0.0201573
0.0237746
0.0232731
0.0217082
0.0227085
0.0233028
0.0228948
0.0227862
0.0227335
0.022363
0.0219411
0.0223534
0.022541
0.0225927
0.0221507
0.0224023
0.0250459
0.0214801
0.0212881
0.0202006
0.0195402
0.0179076
0.0176537
0.0177519
0.0177117
0.0176167
0.0167775
0.0186395
0.0179124
0.0200486
0.0216645
0.0228187
0.0239938
0.0241455
0.0237161
0.0236772
0.0232924
0.0232591
0.0227069
0.0218572
0.0212703
0.0204906
0.0192787
0.0192711
0.0192213
0.0190768
0.0204853
0.0203837
0.0219527
0.023077
0.0227917
0.0218225
0.0217144
0.0205337
0.0205111
0.0215563
0.0224495
0.0226994
0.0235646
0.0261037
0.0237513
0.0253053
0.0260021
0.0266657
0.0260528
0.0249542
0.0257032
0.0240392
0.0229249
0.0242444
0.0249677
0.026229
0.0270237
0.0250455
0.024017
0.0228196
0.0219563
0.0209695
0.0184431
0.0190564
0.0198472
0.0210795
0.0228955
0.0256185
0.0283565
0.0312778
0.0313339
0.0290347
0.0273344
0.0321342
0.0316097
0.0365844
0.0371835
0.0330611
0.0302586
0.0273464
0.0269225
0.0260031
0.0254677
0.0241893
0.0254408
0.0258687
0.0249208
0.0273913
0.0289639
0.033295
0.0388614
0.0355286
0.032694
0.0377419
0.0366526
0.0426237
0.0364066
0.0347428
0.0286083
0.0332064
0.0355563
0.0433093
0.0339051
0.0297218
0.029491
0.03081
0.0382963
0.036843
0.0394477
0.0445997
0.0439361
0.0390506
0.0358189
0.0415898
0.0316322
0.037054
0.0390641
0.0324344
0.0322051
0.0390883
0.0397042
0.0398577
0.0337665
0.0330509
0.0250397
0.0335985
0.0400844
0.0399864
0.0331998
0.0259892
0.035905
0.0315521
0.031354
0.0313525
0.0269614
0.0268968
0.0261869
0.0264446
0.0271604
0.0247193
0.0255277
0.02579
0.025955
0.0260883
0.0262826
0.0266296
0.0272765
0.0280092
0.0229146
0.0243683
0.0230028
0.0216458
0.0202766
0.024059
0.0265348
0.0283399
0.029793
0.0309274
0.0314111
0.0299967
0.0379639
0.0396844
0.0413184
0.0414812
0.040259
0.037627
0.0342107
0.0307494
0.028518
0.0271829
0.0246597
0.0225299
0.0204577
0.0183037
0.0155062
0.0141983
0.0128917
0.0115628
0.0112466
0.0107223
0.0101316
0.0094532
0.00908639
0.0115044
0.018727
0.0278308
0.0328405
0.0381311
0.0446722
0.0514244
0.0569946
0.0610951
0.0639262
0.0656347
0.0660441
0.0633347
0.0524349
0.047448
0.042607
0.0377113
0.0327736
0.0320946
0.0411741
0.0494669
0.0565048
0.0628692
0.0670355
0.0654365
0.0499701
0.0467858
0.0622817
0.0897063
0.0804133
0.103321
0.119856
0.0794854
0.0648908
0.0642122
0.0795376
0.0820011
0.0753168
0.0662927
0.05639
0.0454517
0.0504328
0.0551707
0.0596813
0.0642005
0.0775828
0.0801977
0.0790705
0.0767328
0.0735406
0.0689244
0.0619343
0.053039
0.0441013
0.0365889
0.0297239
0.0198142
0.0125611
0.0135489
0.0129581
0.0151049
0.0144815
0.00986667
0.0101958
0.010415
0.0103624
0.0101456
0.0101956
0.0115895
0.0183158
0.0149898
0.0136038
0.0117078
0.0144962
0.0164172
0.0183785
0.0189915
0.0191307
0.0195728
0.0315562
0.0433766
0.0495128
0.0543874
0.0581905
0.0567989
0.053144
0.046872
0.0395993
0.0369547
0.0330375
0.0297331
0.0280897
0.0290618
0.0255514
0.0159119
0.014631
0.0156971
0.0153987
0.0144108
0.0163581
0.0175797
0.0183572
0.0189862
0.0194569
0.0198195
0.0200789
0.0202517
0.0203434
0.0203722
0.0203525
0.0202892
0.0201808
0.0200245
0.0198096
0.0195057
0.0189865
0.0172695
0.015423
0.0147041
0.0147877
0.0145559
0.0141913
0.0123116
0.0125365
0.0143963
0.0149997
0.0146115
0.0152051
0.0156791
0.0168938
0.0190736
0.0212144
0.0230522
0.0217383
0.0210779
0.0210427
0.0206385
0.0174392
0.0207451
0.0236612
0.0241811
0.0244609
0.0252844
0.0268882
0.0278367
0.0268958
0.0263831
0.0258463
0.022718
0.0243443
0.0279169
0.0283367
0.0290228
0.0296269
0.0302082
0.0314894
0.0308532
0.0299518
0.029349
0.0264816
0.0256028
0.0316709
0.0206501
0.0143881
0.010277
0.0107843
0.0109667
0.0106132
0.0113804
0.0119223
0.0121746
0.0115798
0.0126584
0.0135757
0.0128898
0.0154192
0.0147096
0.0136859
0.0132135
0.0140743
0.014884
0.0152861
0.0162882
0.0263754
0.0271476
0.0227293
0.0292204
0.0318095
0.0290351
0.031897
0.0295287
0.0281689
0.0309507
0.0343736
0.035675
0.0333193
0.0319044
0.0313043
0.0208369
0.0201495
0.0194351
0.0175849
0.0178551
0.0173963
0.0169475
0.0165467
0.0191125
0.0205075
0.0217372
0.021436
0.0211336
0.0207167
0.0207805
0.0246514
0.0326277
0.0431474
0.0469275
0.0457244
0.0417611
0.0347497
0.0283449
0.0279967
0.0261818
0.0250216
0.0248104
0.0189046
0.0148758
0.0173898
0.0173505
0.0184212
0.0190996
0.0196353
0.0200651
0.0204263
0.0207412
0.0210483
0.0213347
0.0215855
0.0217967
0.0219774
0.0221266
0.0222854
0.0224759
0.0227374
0.022946
0.0212874
0.0186408
0.0172863
0.0171384
0.0178573
0.0187629
0.0198895
0.0191264
0.0153997
0.0154874
0.0219054
0.0223748
0.0210085
0.0195825
0.0197867
0.0189429
0.0227878
0.0225971
0.0234208
0.0232193
0.0229383
0.0226536
0.0223679
0.0220697
0.0217668
0.021501
0.0212586
0.0210334
0.0208131
0.0205788
0.0202928
0.0198725
0.0191742
0.0183623
0.0168719
0.0180044
0.0192422
0.0209731
0.022837
0.023698
0.0227987
0.0215942
0.0211123
0.0213705
0.0216945
0.0220374
0.0224016
0.0228246
0.0232422
0.0236311
0.0235631
0.0222079
0.0228579
0.017488
0.0183403
0.0186416
0.0186002
0.0202603
0.0193921
0.0146587
0.0151751
0.0159054
0.0172021
0.0198086
0.0201788
0.0215472
0.0217793
0.0173431
0.017039
0.0166099
0.0176116
0.0152304
0.0158804
0.0266821
0.0272695
0.0350215
0.0384065
0.0399874
0.0331671
0.0456224
0.0524968
0.0506378
0.0409271
0.0235352
0.0346882
0.0422085
0.0488821
0.0458341
0.0356769
0.0449921
0.0474222
0.0633344
0.0590111
0.0526468
0.0633702
0.0447915
0.0269624
0.0158271
0.0163973
0.0151956
0.0306842
0.0347941
0.0315032
0.0323615
0.0399868
0.0409983
0.0362704
0.0345548
0.0363117
0.0358595
0.0398309
0.0371441
0.0337309
0.0233195
0.0190347
0.0198811
0.021298
0.0231325
0.025478
0.0253736
0.024225
0.0228533
0.0218713
0.0208107
0.0183084
0.0176455
0.0196082
0.0212398
0.0226196
0.0241324
0.0249558
0.0257984
0.0259619
0.0258513
0.0255252
0.0250933
0.0245352
0.0238488
0.0224389
0.0236805
0.0243584
0.0245684
0.0248489
0.0251644
0.0254443
0.0255897
0.0254776
0.0245207
0.0237039
0.0225326
0.0214146
0.0198061
0.0176863
0.0183713
0.0201341
0.0217378
0.0228531
0.0239051
0.0235172
0.0240137
0.0246763
0.0246959
0.0245099
0.0242839
0.0241323
0.0242262
0.0248619
0.0265866
0.0263273
0.0291723
0.0303489
0.0277775
0.0264462
0.0257529
0.0253262
0.0250799
0.0248724
0.0246716
0.0241233
0.0235838
0.0240878
0.0243423
0.0246387
0.0249931
0.0254945
0.026178
0.0272641
0.0286672
0.0285571
0.0263307
0.0261716
0.0251049
0.0243136
0.0239312
0.0238779
0.023922
0.0240267
0.0239676
0.0234446
0.023113
0.0235178
0.0225032
0.0225664
0.0215929
0.02023
0.0187861
0.0173333
0.0166704
0.0353392
0.0353206
0.0458029
0.0424984
0.0371753
0.0472417
0.0602321
0.0522149
0.0628971
0.0666993
0.0542185
0.0503121
0.0279426
0.0244544
0.0174066
0.0189339
0.0202824
0.021491
0.0213072
0.0222314
0.0221133
0.0230864
0.0225432
0.0217629
0.0212033
0.0201844
0.0202396
0.018965
0.0174175
0.0172844
0.0189361
0.0199993
0.0211821
0.0211799
0.0226436
0.0231408
0.0235401
0.0236926
0.0236864
0.0237825
0.0239586
0.0244159
0.0251356
0.0256073
0.0257486
0.026126
0.0258579
0.0255514
0.0251132
0.0248181
0.024511
0.0242387
0.0239473
0.0236691
0.023235
0.0225759
0.0224559
0.0229715
0.0233119
0.0235428
0.0236707
0.0236412
0.0234333
0.0231005
0.0227634
0.0223971
0.0224586
0.0238245
0.0240872
0.0242251
0.0240068
0.0238215
0.0237903
0.0236528
0.0235441
0.0233102
0.02294
0.0224723
0.0214034
0.0215018
0.022383
0.0228252
0.023156
0.0234391
0.023477
0.023413
0.0230461
0.0227553
0.0223964
0.0218128
0.02104
0.0185236
0.0190022
0.0196431
0.0205126
0.0213856
0.0221302
0.0226082
0.0228138
0.0228204
0.0226517
0.0222991
0.0215474
0.0215258
0.0220659
0.0222295
0.0221687
0.0218479
0.0212045
0.0202537
0.0190225
0.0177838
0.0168034
0.0163281
0.0155603
0.0181716
0.0192505
0.0202355
0.021129
0.0219542
0.0228086
0.0231158
0.0231545
0.0229934
0.0227252
0.0223128
0.0215419
0.0215456
0.0222487
0.022638
0.0228555
0.0229461
0.0226938
0.0220374
0.020489
0.0190491
0.0178404
0.0167192
0.0155633
0.0153115
0.015818
0.0153729
0.0157849
0.0169047
0.0183931
0.0197718
0.0207838
0.0214017
0.0217044
0.0217444
0.0214191
0.0212331
0.0213522
0.021141
0.0206321
0.0197533
0.018462
0.0169927
0.0157812
0.0154223
0.0160646
0.0167012
0.0161005
0.0138647
0.0149999
0.0161282
0.0172854
0.0189911
0.0210668
0.0220428
0.0225209
0.022659
0.0225329
0.0221682
0.0215164
0.0214569
0.0220808
0.0224389
0.0225441
0.022445
0.0220317
0.021228
0.0187088
0.0159118
0.0146389
0.0139
0.0129642
0.0162537
0.0169501
0.0161423
0.0156073
0.0164638
0.0174925
0.01863
0.0195099
0.0201537
0.0206639
0.0209498
0.0209881
0.0207105
0.0205849
0.0203566
0.0200107
0.0196815
0.01936
0.0185988
0.0177689
0.0167841
0.0178429
0.0184041
0.0176505
0.0144643
0.0150304
0.0159098
0.0164645
0.0191773
0.021639
0.022266
0.0224284
0.0225152
0.0223762
0.02198
0.0213651
0.0212382
0.021877
0.0223652
0.022677
0.0229924
0.0232599
0.0234599
0.0215794
0.0182138
0.0173916
0.0155944
0.014751
0.0182114
0.0188913
0.0184172
0.0178631
0.0195622
0.0202664
0.0205001
0.0204709
0.0203799
0.0202818
0.0203039
0.0204264
0.0201247
0.019993
0.0200953
0.0203203
0.0202941
0.0200902
0.0195294
0.0187565
0.0176352
0.0194873
0.021158
0.0208816
0.0169896
0.0175285
0.018426
0.0180589
0.0208421
0.0226874
0.0231523
0.0230608
0.0227238
0.0222374
0.0216894
0.0210475
0.0207652
0.0213341
0.0219042
0.0219378
0.0220352
0.0219886
0.0214309
0.0212678
0.0206957
0.0204262
0.0196644
0.0190831
0.018336
0.020497
0.0237066
0.0259183
0.0275057
0.0294
0.0279448
0.0244064
0.0221335
0.0152525
0.0152611
0.015485
0.0148594
0.0144851
0.0143011
0.0187113
0.0214337
0.0240874
0.025777
0.023347
0.0233068
0.0232179
0.023102
0.0229877
0.022876
0.0226581
0.0232743
0.0404758
0.282386
0.2084
0.234434
0.223498
0.314532
0.0781736
0.0385258
0.0426956
0.0493975
0.0565824
0.0548658
0.0513197
0.0448905
0.040743
0.0403634
0.0399281
0.0397462
0.0385055
0.0385312
0.0377596
0.0455083
0.0963257
0.124357
0.137896
0.146335
0.155257
0.150674
0.159634
0.151466
0.151937
0.153511
0.158269
0.150886
0.143557
0.13976
0.135462
0.118106
0.118446
0.0999483
0.103753
0.0865581
0.0910561
0.0949441
0.0942775
0.0930599
0.0928347
0.0931102
0.0939324
0.0976115
0.092895
0.0985613
0.0909101
0.0724627
0.069974
0.0717556
0.0660255
0.0577937
0.0652433
0.0799936
0.0955766
0.112509
0.096511
0.120653
0.114611
0.115626
0.109798
0.103334
0.0995173
0.0987556
0.099366
0.100503
0.103166
0.105126
0.106756
0.109721
0.118341
0.120747
0.119387
0.101833
0.0864464
0.0949213
0.0997565
0.103401
0.103643
0.0988357
0.0967272
0.0905745
0.0890092
0.0834778
0.080856
0.0754013
0.0720646
0.0672566
0.0838426
0.0819832
0.0889982
0.0953133
0.0995631
0.103253
0.104865
0.10618
0.105011
0.102644
0.0976189
0.0954814
0.090642
0.109208
0.127699
0.130405
0.125693
0.112126
0.106428
0.33974
0.412136
0.413604
0.613915
0.655739
0.847953
0.336423
0.179875
0.192364
0.189026
0.180798
0.177581
0.17735
0.18906
0.198067
0.188917
0.200109
0.177142
0.175108
0.16604
0.191357
0.188756
0.169754
0.148618
0.116037
0.0951785
0.0941221
0.0790188
0.0801014
0.0707016
0.0719589
0.0738844
0.0917259
0.171689
0.210031
0.236757
0.26323
0.32376
0.293365
0.442993
0.354505
0.439857
0.303695
0.328661
0.31432
0.305475
0.303445
0.319449
0.342169
0.300806
0.37411
0.299663
0.648813
0.785424
0.496646
0.459272
0.407087
0.392822
0.382834
0.377194
0.369047
0.486763
0.451012
0.554043
0.513848
0.645176
0.562767
0.5664
0.532883
0.569201
0.588029
0.602243
0.479967
0.520907
0.405716
0.439231
0.369628
0.405942
0.291245
0.291869
0.334972
0.372018
0.398102
0.455353
0.715556
0.607292
0.819009
0.586186
0.708307
0.492001
0.539618
0.515306
0.497647
0.499364
0.527524
0.631611
0.610612
0.697732
0.514719
0.526978
0.516716
0.534045
0.523491
0.558422
0.563117
0.564308
0.562302
0.523422
0.534038
0.532202
0.531975
0.531992
0.53234
0.509585
0.512768
0.505228
0.51101
0.526914
0.514603
0.514518
0.512374
0.504798
0.502742
0.502256
0.504016
0.503784
0.508918
0.508788
0.50913
0.512191
0.526915
0.514422
1.82536
0.901728
0.430259
0.340317
0.220386
0.135248
0.0559337
0.0604354
0.0634193
0.0643982
0.0623857
0.0570003
0.0487861
0.0387166
0.0308885
0.0300544
0.026798
0.0266924
0.0345182
0.0421852
0.0385858
0.0463803
0.0540692
0.0623919
0.0704128
0.077416
0.0833377
0.0862609
0.0832155
0.0704698
0.0527794
0.0353181
0.0250066
0.0225941
0.0209469
0.0189543
0.0168473
0.0151823
0.0141863
0.0130266
0.0124034
0.012322
0.0125514
0.0127955
0.013241
0.0147548
0.0160545
0.0172396
0.0182038
0.0184486
0.0179238
0.0184662
0.0190602
0.0194556
0.0198006
0.0196168
0.0196084
0.0198579
0.0198192
0.0200297
0.0199343
0.019954
0.0198176
0.0196631
0.0194393
0.019013
0.0187334
0.0181677
0.0178142
0.0169564
0.0169918
0.0173877
0.0177121
0.0167055
0.0166431
0.015897
0.0271867
0.0483705
0.0612035
0.0662047
0.0714812
0.0674426
0.0571818
0.0392867
0.0192512
0.0187864
0.0192685
0.021791
0.0213016
0.0173631
0.0181536
0.018827
0.0176427
0.0176146
0.0176481
0.0197396
0.0203538
0.0217028
0.0221994
0.0225487
0.0227637
0.0226735
0.0227556
0.0224376
0.0224255
0.0220193
0.0219955
0.0216743
0.0214424
0.0217416
0.0224643
0.02256
0.0232486
0.0229667
0.0227
0.0221427
0.0217573
0.0209023
0.0199901
0.0189511
0.0173748
0.0169068
0.0174137
0.0178774
0.0174041
0.0187844
0.0199835
0.0196688
0.0243889
0.022657
0.020214
0.0226762
0.0184196
0.0185872
0.0181453
0.0170909
0.0176426
0.0171806
0.0171228
0.0174473
0.0177575
0.0189396
0.019927
0.0205586
0.021426
0.0220571
0.0227661
0.0239665
0.0242446
0.0232066
0.0229986
0.0217798
0.0210871
0.0207581
0.0216981
0.0230203
0.0229585
0.0239013
0.0236758
0.0224269
0.0216178
0.0207707
0.0197856
0.0191251
0.0183231
0.0175593
0.0171287
0.0162859
0.0163561
0.0152527
0.0168123
0.0173324
0.019548
0.017414
0.0169366
0.0225462
0.0285354
0.0444507
0.0324786
0.0214546
0.0232466
0.0315931
0.0394599
0.027967
0.0274853
0.0154201
0.0181678
0.0152649
0.0155801
0.0166534
0.0169461
0.0181661
0.019238
0.0194809
0.0202317
0.0205815
0.0213455
0.0216052
0.0223412
0.0225374
0.0238221
0.0238879
0.0239291
0.0239026
0.0230558
0.022979
0.0229596
0.0234366
0.0232285
0.0239735
0.0240077
0.0241164
0.0240539
0.0226986
0.022371
0.0215965
0.021076
0.0201706
0.0196125
0.0188935
0.0185069
0.0178468
0.0181638
0.0188872
0.0190747
0.0200396
0.0200586
0.0208005
0.0210117
0.0214823
0.021619
0.0222871
0.0224288
0.0226994
0.0227571
0.0239823
0.0240981
0.0241296
0.0240955
0.0240974
0.0243135
0.0243064
0.0242512
0.024226
0.0240929
0.0239174
0.0237277
0.0248081
0.0255079
0.0250844
0.0248465
0.0251068
0.0259616
0.0265154
0.027608
0.0284629
0.0295332
0.0304195
0.0312355
0.0318995
0.032368
0.0324755
0.0325027
0.0320407
0.0316624
0.0333455
0.0398517
0.0430823
0.0483673
0.0507498
0.052711
0.0534028
0.0522834
0.0530211
0.0517754
0.0520478
0.0508905
0.0504826
0.0496947
0.0487136
0.0480157
0.0465661
0.0458455
0.0504764
0.0571354
0.0572189
0.0500023
0.0469923
0.0428446
0.0374925
0.0392154
0.0458201
0.0412441
0.0386492
0.0358985
0.0309353
0.0238117
0.0179117
0.0257054
0.0334695
0.0407131
0.0474789
0.0534541
0.0573332
0.0594683
0.0610148
0.0627054
0.0606646
0.0532025
0.0415413
0.0316474
0.0277366
0.026176
0.0237491
0.0203297
0.0184574
0.0173911
0.0162458
0.0149085
0.0140617
0.0138243
0.0140824
0.0142018
0.0155494
0.0168136
0.0168049
0.0179872
0.0177851
0.0182978
0.0188924
0.0192995
0.0199517
0.019925
0.0189639
0.0193168
0.0195802
0.0202609
0.0201647
0.020342
0.0201333
0.0194246
0.0189143
0.0183193
0.0178015
0.017337
0.0167565
0.0160241
0.0160147
0.0161989
0.0157497
0.0161734
0.0166247
0.01704
0.0176693
0.0185776
0.019333
0.021157
0.0212852
0.0210276
0.0211101
0.0196768
0.0196083
0.0186338
0.0183942
0.0199884
0.0198244
0.0181533
0.0195438
0.0195571
0.0213443
0.0213566
0.020685
0.0208865
0.0207862
0.0189664
0.0180778
0.0170067
0.0162237
0.0156253
0.015214
0.0147339
0.0153559
0.0141198
0.0135644
0.0140397
0.0140175
0.0140886
0.0144839
0.0149178
0.0156644
0.016373
0.0174236
0.0180653
0.0189644
0.019297
0.0211999
0.0211035
0.0209605
0.0209914
0.0211273
0.0215723
0.0207905
0.0207521
0.0208954
0.0209112
0.0209487
0.0209351
0.0191024
0.0188995
0.0180651
0.0177459
0.0168112
0.0164497
0.0157901
0.0154711
0.0150744
0.0148737
0.0232635
0.025462
0.0256175
0.0397795
0.0199831
0.0199523
0.0343554
0.0173308
0.0230506
0.0235994
0.0246794
0.0259161
0.022538
0.0307398
0.0212043
0.0233391
0.0240708
0.0252244
0.0129241
0.0202821
0.037931
0.0427843
0.0440848
0.0490005
0.0556113
0.0587807
0.0618033
0.0638083
0.0660661
0.0685007
0.0708926
0.0726194
0.0727567
0.0690479
0.0659707
0.0564424
0.0526116
0.0563461
0.060761
0.0472486
0.0424547
0.0429908
0.0434429
0.0439646
0.0441605
0.0448326
0.0446286
0.0456061
0.0448694
0.0459548
0.0448016
0.0458052
0.0445942
0.0418907
0.0386787
0.0325183
0.0305582
0.0294547
0.0267482
0.0242436
0.022012
0.0201953
0.0197655
0.0182088
0.0168184
0.0165206
0.0152304
0.0155072
0.0167454
0.019899
0.0168183
0.0176376
0.0260173
0.0191177
0.0180091
0.0185513
0.019069
0.0193108
0.0181997
0.0198224
0.0220901
0.0221022
0.0221734
0.0221894
0.021388
0.0212238
0.0209647
0.0210261
0.0210583
0.0211874
0.0211581
0.0193375
0.0192811
0.0190084
0.0188705
0.01808
0.0179118
0.0173251
0.0169927
0.0161486
0.0158531
0.0154049
0.0154736
0.0168282
0.020913
0.0306269
0.0175535
0.0183123
0.0158139
0.0139837
0.0266781
0.0247326
0.0286275
0.0267733
0.0393859
0.0264149
0.0231668
0.0241645
0.0296924
0.0296529
0.0326434
0.0423939
0.0330325
0.0283369
0.0745278
0.0549097
0.0336622
0.0469911
0.0589499
0.109947
0.127932
0.0561736
0.0566547
0.0623066
0.0632424
0.0631545
0.0536794
0.0494254
0.0417692
0.0323568
0.0128501
0.0249362
0.0322693
0.0433021
0.0578994
0.0921509
0.0529633
0.0597754
0.0657208
0.0647934
0.0678771
0.0660642
0.0647027
0.0656541
0.102629
0.111515
0.108353
0.0873545
0.0819718
0.0744581
0.124277
0.13904
0.120034
0.130113
0.136215
0.0829414
0.03054
0.0249235
0.0238121
0.0263912
0.0253326
0.0459457
0.0206028
0.0218214
0.0226588
0.0271381
0.0301866
0.0528169
0.0232803
0.0254661
0.0323972
0.0348591
0.0458374
0.0274613
0.0280809
0.0343756
0.0361472
0.0394831
0.0336466
0.0317573
0.0287013
0.025906
0.0244129
0.0254599
0.0318376
0.0462543
0.027877
0.0283055
0.0300627
0.13405
0.0307315
0.0266379
0.027722
0.0267215
0.0336494
0.0350528
0.111747
0.03559
0.0167222
0.0154525
0.0159172
0.0167281
0.0173677
0.0179899
0.0184356
0.0190792
0.0194707
0.0196259
0.0197979
0.0221665
0.0220592
0.0215919
0.0210484
0.0218331
0.021139
0.0211827
0.0217952
0.0212592
0.0214089
0.0224523
0.0236198
0.0231218
0.0236773
0.0250333
0.0238816
0.0221945
0.0219878
0.0221064
0.0228147
0.0239524
0.0227677
0.0234239
0.0226109
0.0235256
0.0236528
0.0203649
0.0199923
0.0197874
0.0192859
0.0186095
0.0179852
0.0173156
0.0166786
0.0162063
0.0161835
0.0167665
0.0152121
0.0156738
0.0182208
0.0402961
0.0333091
0.0271772
0.0226162
0.0197613
0.0184948
0.0183188
0.0187413
0.0193909
0.0199506
0.0201596
0.0207502
0.0246217
0.024535
0.0257351
0.0246074
0.0259377
0.0248774
0.023556
0.0226867
0.0238901
0.0231995
0.0236892
0.0252927
0.0261225
0.0237554
0.0240164
0.0214343
0.0200311
0.0184298
0.0187687
0.0202034
0.0208689
0.0232905
0.0233783
0.0268003
0.0267939
0.0266654
0.0254426
0.0247718
0.0262141
0.0247332
0.0258802
0.0247754
0.0261753
0.0273632
0.027707
0.0270043
0.0261887
0.0253177
0.0210471
0.020253
0.0199491
0.0194636
0.0192255
0.0202168
0.0246419
0.0341031
0.0464438
0.0586615
0.0679868
0.0673162
0.0605313
0.041318
0.0421122
0.0392129
0.0425331
0.0608637
0.0877956
0.0617577
0.115164
0.0891959
0.0529036
0.0630982
0.0751247
0.0843061
0.0903042
0.0915126
0.0781458
0.0576535
0.0505992
0.0530027
0.0850718
0.083758
0.0825005
0.0779924
0.0824971
0.0803532
0.0776579
0.07607
0.0742658
0.069978
0.0699608
0.0672226
0.067179
0.0600777
0.0612539
0.0614681
0.0588926
0.0561519
0.0538699
0.0516835
0.0493641
0.0454856
0.044215
0.0417547
0.0400291
0.0366873
0.0361514
0.0356687
0.0335029
0.0319595
0.0307131
0.0294595
0.0277698
0.0279374
0.0263737
0.0262219
0.0213812
0.0209989
0.0199763
0.019649
0.0194151
0.019649
0.0209635
0.0237482
0.0440785
0.0332902
0.0330478
0.0335638
0.0337228
0.0396539
0.0464169
0.0705227
0.0652183
0.0717015
0.0613361
0.0637544
0.0629552
0.0625783
0.0653032
0.0688804
0.0742242
0.0867072
0.333386
0.51379
0.25311
0.2371
0.246742
0.251643
0.259025
0.338967
0.360056
0.355805
0.360522
0.330468
0.318445
0.196633
0.226047
0.238132
0.237037
0.223952
0.202824
0.394522
0.522645
0.518783
0.523655
0.523767
0.518767
0.522596
0.502913
0.514275
0.501758
0.515026
0.502297
0.52166
0.518918
0.504364
0.501138
0.501157
0.500917
0.50138
0.501557
0.504895
0.506057
0.506108
0.505103
0.504125
0.514518
0.438846
0.123732
0.0862424
0.143617
0.199616
0.163636
0.235852
0.27089
0.195317
0.111252
0.0910704
0.102745
0.126592
0.128044
0.155161
0.20278
0.189696
0.154896
0.155806
0.156772
0.202121
0.193469
0.219657
0.262203
0.255158
0.190418
0.151794
0.151518
0.229741
0.244117
0.239281
0.124929
0.0451167
0.0220301
0.0230038
0.0328423
0.0166402
0.0168727
0.0225428
0.0594152
0.0984252
0.0511621
0.137891
0.139224
0.182624
0.147864
0.178685
0.115952
0.119064
0.0677742
0.0797836
0.0897024
0.0954359
0.0997869
0.0940609
0.217528
0.321718
0.19168
0.562592
0.538617
0.19669
0.217507
0.576166
0.513006
0.503529
0.501786
0.501699
0.501859
0.501817
0.50097
0.500916
0.500728
0.500765
0.500717
0.501164
0.504767
0.520381
0.514597
0.50524
0.501385
0.500824
0.5008
0.500691
0.500731
0.500751
0.500808
0.501018
0.50105
0.501152
0.501671
0.503943
0.512023
0.43531
0.169947
0.182324
0.406011
0.361778
0.5115
0.504622
0.50137
0.500943
0.500856
0.50083
0.500795
0.50097
0.50089
0.501398
0.501232
0.501287
0.502776
0.508256
0.506391
0.442621
0.368938
0.4165
0.329604
0.506666
0.507775
0.503277
0.502901
0.503248
0.503415
0.501515
0.501528
0.500993
0.501061
0.500894
0.501341
0.504756
0.511008
0.345935
0.170845
0.17778
0.258048
0.0879129
0.0908718
0.0928201
0.0949269
0.24756
0.442728
0.556777
0.472103
0.475932
0.543103
0.386183
0.364959
0.294572
0.317993
0.40247
0.347581
0.313044
0.250588
0.288906
0.247891
0.303656
0.218038
0.234282
0.221834
0.283212
0.287079
0.28742
0.226832
0.216663
0.271762
0.285947
0.316892
0.218887
0.259062
0.203411
0.192488
0.0871933
0.0893946
0.0813011
0.071368
0.0710931
0.0792135
0.0776379
0.0838052
0.0807802
0.0844565
0.0815518
0.079559
0.0727943
0.0748414
0.0686426
0.0713071
0.130389
0.166613
0.15048
0.151898
0.179683
0.131192
0.157538
0.153702
0.197777
0.248175
0.227861
0.294059
0.22599
0.276007
0.406072
0.754508
0.442101
0.245546
0.318479
0.339988
0.288815
0.189694
0.449626
0.538405
0.298076
0.360101
1.19531
1.04302
1.7806
0.992827
1.12013
0.671845
0.59805
1.02936
0.654636
0.667274
0.56058
0.574162
0.500332
0.324972
0.324618
0.306385
0.242395
0.281445
0.272109
0.267051
0.296776
0.262014
0.317256
0.352996
0.397768
0.323023
0.286009
0.367766
0.215947
0.291749
0.347256
0.31646
0.260434
0.339093
0.451379
0.423703
0.364803
0.400283
0.510908
0.564814
0.535268
0.454379
0.516687
1.00943
0.966637
0.932547
0.59204
1.93378
1.72146
0.356521
0.140025
0.0977527
0.0369639
0.0225501
0.0182787
0.0178882
0.0490127
0.0195474
0.0235623
0.0212522
0.0304065
0.0274933
0.0317994
0.0561222
0.0378887
0.0534529
0.0395672
0.0529723
0.0421725
0.058031
0.0623038
0.0656943
0.0531211
0.0418874
0.0632782
0.0844294
0.0395392
0.101629
0.107419
0.069505
0.0844384
0.104277
0.0539869
0.16706
0.0578605
0.0577229
0.0689659
0.129344
0.255539
0.0871745
0.113785
0.590421
1.53332
0.514559
0.204094
0.166706
0.041455
0.0359371
0.0294498