/*--------------------------------*- C++ -*----------------------------------*\
| =========                 |                                                 |
| \\      /  F ield         | OpenFOAM: The Open Source CFD Toolbox           |
|  \\    /   O peration     | Version:  v2012                                 |
|   \\  /    A nd           | Website:  www.openfoam.com                      |
|    \\/     M anipulation  |                                                 |
\*---------------------------------------------------------------------------*/
FoamFile
{
    version     2.0;
    format      ascii;
    class       volVectorField;
    location    "625";
    object      U;
}
// * * * * * * * * * * * * * * * * * * * * * * * * * * * * * * * * * * * * * //

dimensions      [0 1 -1 0 0 0 0];


internalField   nonuniform List<vector> 
18258
(
(-0.176965 0.117082 0.137726)
(-0.0520493 0.246364 0.157443)
(-0.105101 0.214668 0.0961618)
(-0.0386773 0.0702495 0.0839902)
(-0.226556 0.202879 0.017784)
(-0.159338 0.361753 0.0163467)
(-0.223113 0.0447973 0.0536518)
(-0.341613 -0.0527655 0.0750315)
(-0.448987 -0.10559 0.108069)
(-0.535857 -0.159506 0.14561)
(-0.621533 -0.217079 0.179847)
(-0.68776 -0.271455 0.309472)
(-0.678624 -0.334198 0.357187)
(-0.622069 -0.445444 0.3858)
(-0.487693 -0.542824 0.369374)
(-0.20481 -0.586616 0.340047)
(0.073644 -0.37379 0.287869)
(0.0795471 -0.165532 0.298169)
(-0.124876 -0.0782667 0.23559)
(-0.392736 -0.273938 0.115246)
(-0.133833 -0.522922 0.28797)
(-0.188588 -0.362657 0.405742)
(-0.290199 -0.733186 0.298724)
(-0.347373 -0.773897 0.262378)
(-0.125391 -0.708964 0.139825)
(0.00948993 -0.644836 0.187057)
(-0.0126451 -0.33704 0.421226)
(0.176762 -0.111394 0.800278)
(0.300301 -0.0946018 0.885717)
(0.317822 0.0584863 0.901654)
(0.320656 0.189554 0.798214)
(0.163564 0.302039 0.065312)
(0.0871165 0.116351 -0.436807)
(0.0245026 0.068547 -0.733563)
(-0.0572688 0.0706875 -0.9043)
(-0.0481845 0.0684906 -1.08453)
(-0.0628446 0.0683094 -1.22792)
(-0.0904136 0.0868985 -1.32545)
(-0.129607 0.0774013 -1.37468)
(-0.175098 0.0826131 -1.36111)
(-0.223642 0.0684893 -1.27703)
(-0.268949 0.0767718 -1.12303)
(-0.306576 0.0713167 -0.911844)
(-0.336922 0.070961 -0.655858)
(-0.347865 0.0721507 -0.360154)
(-0.333631 0.0681934 -0.159754)
(-0.168555 0.14192 -0.204681)
(0.326087 -0.0901765 -0.141323)
(0.58137 -0.130678 -0.164079)
(0.647099 -0.109957 -0.171632)
(0.767721 -0.135181 -0.179286)
(0.801654 -0.134477 -0.195705)
(0.503525 -0.00982104 -0.257868)
(0.258863 -0.138563 -0.218894)
(0.113269 -0.0432427 -0.159045)
(0.281587 -0.0101427 -0.169095)
(0.536274 -0.00276472 -0.173645)
(0.790378 -0.0300101 -0.177839)
(1.09077 -0.0345581 -0.17558)
(1.42652 -0.0486269 -0.185025)
(1.76119 -0.0643339 -0.183406)
(2.04548 -0.0808983 -0.166517)
(2.24638 -0.0925961 -0.138095)
(2.3469 -0.09873 -0.102505)
(2.35404 -0.0960693 -0.0679321)
(2.29414 -0.0884054 -0.0412592)
(2.20094 -0.0819063 -0.0245602)
(2.1087 -0.0757838 -0.0177616)
(2.03939 -0.0669816 -0.0187183)
(1.99381 -0.0641068 -0.0233401)
(1.96948 -0.0589541 -0.0257339)
(1.95891 -0.0500397 -0.0201703)
(1.94461 -0.0395213 -0.00313513)
(1.90109 -0.0246835 0.024464)
(1.81341 -0.00762056 0.0540566)
(1.69233 0.00978921 0.0773906)
(1.57136 0.0220113 0.0802443)
(1.47863 0.0310166 0.0755824)
(1.4005 0.0381262 0.0708607)
(1.33823 0.051003 0.0634467)
(1.28736 0.057653 0.0652802)
(1.19373 0.04467 0.0789395)
(1.0967 0.0192987 0.110746)
(1.01387 0.000979094 0.128359)
(0.906808 -0.0206598 0.121256)
(0.762852 0.0168637 0.146403)
(0.642016 0.0817201 0.133591)
(0.518393 0.100608 0.134546)
(0.381423 0.118145 0.118938)
(0.224851 0.127304 0.0969033)
(0.120246 0.189865 0.0923112)
(0.122467 0.0100426 0.197755)
(0.164242 -0.100798 0.144199)
(0.113283 -0.129592 0.0402197)
(0.104801 -0.115129 -0.141481)
(0.216993 -0.210326 -0.36967)
(0.263065 -0.23298 -0.55494)
(0.204621 -0.139902 -0.729078)
(0.106302 -0.081865 -0.714307)
(0.0363646 0.0566609 -0.491645)
(-0.0887278 0.230641 -0.161024)
(-0.215931 0.195032 0.179572)
(-0.234689 0.0651152 0.153988)
(-0.340594 0.0154886 0.16929)
(-0.272818 0.13883 0.177989)
(-0.246736 0.286705 -0.0476214)
(-0.106174 0.162669 -0.403201)
(0.06473 0.00377493 -0.584781)
(0.334485 -0.0944104 -0.631676)
(0.496493 -0.230279 -0.488843)
(0.35184 -0.210813 -0.279448)
(0.27185 -0.191882 -0.100146)
(0.283066 -0.186552 0.0400955)
(0.280913 -0.139998 0.160598)
(0.225868 -0.098995 0.19189)
(0.397086 -0.0811941 0.181122)
(0.53621 -0.0631313 0.176738)
(0.588656 -0.0518782 0.164779)
(0.700653 -0.0785887 0.161045)
(0.732782 -0.133558 0.132909)
(0.601183 -0.134128 0.135593)
(0.45467 -0.151633 0.140047)
(0.461598 -0.185737 0.03592)
(0.610982 -0.16274 0.0518824)
(0.736395 -0.161984 0.0494241)
(0.90492 -0.141631 0.0814488)
(1.08849 -0.109824 0.111076)
(1.18969 -0.077682 0.148735)
(1.20885 -0.0105595 0.140323)
(1.24601 -0.00893524 0.120744)
(1.3359 -0.00684581 0.140287)
(1.37795 -0.00156679 0.13016)
(1.36949 -0.0124091 0.159042)
(1.32895 -0.0481173 0.19437)
(1.32327 -0.0510525 0.191294)
(1.28619 -0.0619433 0.152551)
(1.2795 -0.0601409 0.135708)
(1.25875 -0.0476721 0.10911)
(1.25021 -0.0456165 0.111123)
(1.20135 0.00454923 0.110091)
(1.1943 0.0279915 0.138643)
(1.07682 0.136937 0.272294)
(1.226 0.053009 0.25478)
(1.21793 0.0202134 0.1596)
(1.26719 -0.0206798 0.128926)
(1.27932 -0.0249 0.119771)
(1.28958 -0.0381325 0.144806)
(1.30846 -0.0414236 0.184025)
(1.35106 -0.0366509 0.217925)
(1.38688 -0.0366212 0.22283)
(1.42375 -0.012684 0.183851)
(1.43721 -0.00179811 0.138483)
(1.51341 -0.00642774 0.151627)
(1.61149 -0.0166327 0.159709)
(1.7509 -0.031559 0.144031)
(1.88316 -0.0541582 0.0492235)
(1.96463 -0.0756271 -0.0711621)
(1.984 -0.0904939 -0.164354)
(1.9665 -0.0965241 -0.200667)
(1.9501 -0.0968725 -0.194686)
(1.9602 -0.0912627 -0.174999)
(2.00711 -0.0827706 -0.144693)
(2.08843 -0.0703687 -0.108231)
(2.19936 -0.060188 -0.0845511)
(2.31314 -0.0598449 -0.113454)
(2.38955 -0.0609115 -0.173761)
(2.39178 -0.0584856 -0.277445)
(2.28557 -0.0501994 -0.392431)
(2.06995 -0.0425077 -0.483634)
(1.76946 -0.0366932 -0.539968)
(1.4256 -0.0315479 -0.548692)
(1.07962 -0.0193109 -0.527509)
(0.791187 -0.024386 -0.459244)
(0.535688 -0.0159332 -0.415425)
(0.28212 -0.0215886 -0.386827)
(0.10878 -0.0407808 -0.360797)
(0.10186 -0.0425791 -0.637277)
(0.0770327 -0.0375882 -0.873259)
(0.0503992 -0.0394427 -1.0577)
(0.0116183 -0.0406771 -1.17638)
(-0.0234276 -0.0283714 -1.21634)
(-0.0599727 -0.015952 -1.16923)
(-0.0936662 0.00279863 -1.04091)
(-0.119063 0.0256046 -0.826185)
(-0.12165 0.0799969 -0.564107)
(-0.14553 0.133012 -0.0589333)
(-0.190993 0.0281383 0.561261)
(-0.207013 -0.0324607 0.748093)
(-0.225736 -0.00115115 0.91758)
(-0.230968 -0.0434921 1.06094)
(-0.316827 -0.102486 1.1232)
(-0.370357 -0.10791 1.13738)
(-0.368404 -0.230357 1.00032)
(-0.294874 -0.248749 0.769151)
(-0.457768 -0.663214 0.686588)
(-0.485639 -0.54031 0.70394)
(-0.413841 -0.408784 0.830473)
(-0.550728 -0.762819 0.852552)
(-0.686564 -0.82906 0.60116)
(-0.476485 -0.751671 0.797966)
(-0.437178 -0.573409 0.739116)
(-0.785838 -0.523768 0.74468)
(-0.905354 -0.407241 0.85329)
(-0.531886 -0.704278 0.816754)
(-0.441495 -0.576745 0.65771)
(-0.320148 -0.316066 0.3977)
(-0.298579 -0.176523 0.391341)
(-0.281393 -0.140989 0.343763)
(-0.23195 0.119105 0.10539)
(-0.162908 0.292496 -0.421449)
(-0.153158 0.18049 -0.639691)
(-0.132219 0.026271 -0.915411)
(-0.0869606 -0.0582249 -1.08626)
(-0.0290167 -0.070175 -1.23404)
(0.0377228 -0.102686 -1.26864)
(0.0971934 -0.0990819 -1.23366)
(0.171371 -0.109889 -1.11988)
(0.215316 -0.123843 -0.920131)
(0.259432 -0.14724 -0.705715)
(0.248511 -0.139738 -0.398851)
(0.416205 -0.0536013 -0.638054)
(0.761386 -0.1187 -0.460146)
(0.710653 -0.108401 -0.417747)
(0.604441 -0.0721221 -0.413253)
(0.517543 -0.106388 -0.425734)
(0.0921345 -0.110438 -0.542085)
(0.150609 -0.12088 -0.939153)
(0.239912 -0.226655 -1.09068)
(0.332086 -0.284461 -0.974762)
(0.391227 -0.353759 -0.541808)
(0.201072 0.00740108 0.165882)
(0.260482 0.103729 0.171764)
(0.428413 -0.324807 0.333804)
(0.515398 -0.528462 0.504365)
(0.54441 -0.521659 0.553719)
(0.412148 -0.234183 0.675101)
(0.471257 -0.336464 0.567626)
(0.486632 -0.607341 0.554137)
(0.702183 -0.670729 0.32271)
(0.744515 -0.485234 0.461024)
(0.795365 -0.344688 0.601303)
(0.230875 -0.223273 0.574073)
(-0.242957 -0.266619 0.82144)
(-0.181143 -0.191213 0.67141)
(-0.676737 -0.298365 0.814049)
(-0.476104 -0.177878 0.686725)
(-0.325143 -0.000639021 0.533799)
(-0.219189 0.171312 -0.294757)
(-0.193503 -0.0484944 -0.618779)
(-0.0570918 -0.170345 -1.10041)
(0.103264 -0.159697 -1.24952)
(0.273492 -0.0897317 -1.11813)
(0.427476 -0.107289 -0.704233)
(0.492618 -0.0738283 -0.63158)
(0.482257 -0.0418805 -0.624654)
(0.519991 -0.0876127 -0.656232)
(0.57395 -0.120396 -0.74887)
(0.38772 -0.0415887 -0.695872)
(0.350166 -0.0787132 -0.674213)
(0.12847 -0.113063 -0.678604)
(-0.111296 -0.0502967 -0.58945)
(0.285899 -0.00161013 -0.601912)
(0.341346 0.00991341 -0.626286)
(0.627502 -0.101734 -0.663062)
(0.574964 -0.0988954 -0.416099)
(0.266917 0.0661179 -0.39298)
(0.281505 0.0500698 -0.293542)
(-0.306627 -0.045395 0.0805355)
(-0.3073 0.140869 -0.0220967)
(-0.282086 -0.02672 -0.456274)
(0.0827666 -0.199723 -0.58354)
(0.354596 -0.278116 -0.574082)
(0.717548 -0.343686 -0.409708)
(0.804779 -0.416971 -0.379848)
(0.764915 -0.289956 -0.296954)
(0.806877 -0.363869 -0.220718)
(0.822341 -0.484953 -0.285936)
(0.733163 -0.428455 -0.281699)
(0.708504 -0.302335 -0.335572)
(0.737384 -0.250373 -0.344818)
(0.783776 -0.310005 -0.213896)
(0.79639 -0.365724 -0.162412)
(0.887448 -0.464657 -0.157371)
(1.15516 -0.630505 -0.118167)
(1.6149 -0.725708 -0.0992836)
(1.99297 -0.671746 -0.0384594)
(2.1502 -0.490134 0.0471293)
(2.07095 -0.291156 0.0952956)
(1.90597 -0.16287 0.103065)
(1.80841 -0.0942141 0.0995786)
(1.71158 0.00144849 0.0991293)
(1.57404 0.0902105 0.0912799)
(1.43663 0.108915 0.0482698)
(1.33204 0.0592932 0.0275535)
(1.24218 -0.00274757 0.0219133)
(1.1404 -0.0522389 0.0236968)
(1.05636 -0.0771826 0.0219012)
(0.998553 -0.0611084 0.0175832)
(0.822557 -0.10893 -0.0232972)
(0.71721 0.00383688 0.0106572)
(0.633831 0.0703236 0.00963268)
(0.498072 0.0252938 0.00729541)
(0.359738 -0.0592487 -0.0127901)
(0.139179 -0.146007 -0.0319419)
(0.225733 -0.30776 0.00110424)
(0.353402 -0.0818537 0.0120406)
(-0.00242282 -0.230074 -0.00922119)
(0.0430616 -0.545897 -0.0504553)
(0.0120412 -0.712455 -0.0525834)
(-0.00801039 -0.876438 -0.0532203)
(-0.0259751 -1.00651 -0.0649334)
(-0.0360205 -1.10249 -0.0957954)
(-0.0465396 -1.15691 -0.105087)
(-0.0580822 -1.21428 -0.11824)
(-0.088335 -1.27611 -0.13425)
(-0.113458 -1.32091 -0.149576)
(-0.137452 -1.35471 -0.162495)
(-0.159491 -1.37643 -0.173551)
(-0.178528 -1.38781 -0.183205)
(-0.193935 -1.38947 -0.189909)
(-0.206076 -1.38236 -0.193757)
(-0.216107 -1.36764 -0.193877)
(-0.224678 -1.34574 -0.191967)
(-0.23298 -1.31527 -0.186533)
(-0.240669 -1.27437 -0.178188)
(-0.246141 -1.22009 -0.165147)
(-0.244045 -1.15091 -0.147402)
(-0.191101 -1.0714 -0.12702)
(-0.141337 -0.968746 -0.11269)
(-0.165911 -0.868271 -0.0795974)
(-0.189942 -0.754351 -0.0820102)
(-0.205169 -0.542912 -0.0856109)
(-0.273973 -0.45003 -0.092098)
(0.022253 0.0534449 -0.116325)
(-0.350873 -0.308146 0.0250459)
(-0.231809 -0.617222 -0.0547411)
(-0.270535 -0.0991995 -0.0111981)
(-0.458166 -0.182404 0.0645308)
(-0.67882 -0.198649 0.0822778)
(-0.842227 -0.209272 0.11411)
(-0.953619 -0.223166 0.144251)
(-1.03428 -0.232588 0.203851)
(-1.11754 -0.244394 0.245398)
(-1.18669 -0.244336 0.30214)
(-1.20039 -0.248615 0.336402)
(-1.17352 -0.250429 0.3663)
(-1.10679 -0.249195 0.394582)
(-0.996289 -0.243582 0.422745)
(-0.842093 -0.230657 0.454134)
(-0.668777 -0.206498 0.493526)
(-0.421703 -0.147447 0.542338)
(-0.139836 -0.118089 0.565899)
(-0.159124 0.0287188 0.822005)
(-0.162966 0.0831527 1.04274)
(-0.162781 0.115435 1.11305)
(-0.16395 0.164582 1.02215)
(-0.166774 0.153427 0.839911)
(-0.152539 0.131208 0.56961)
(-0.122036 0.14366 0.287522)
(-0.223555 0.4412 0.372298)
(-0.505102 0.468679 0.335721)
(-0.689907 0.481464 0.340006)
(-0.914912 0.466345 0.333579)
(-1.09735 0.425682 0.309533)
(-1.22488 0.354212 0.266717)
(-1.28102 0.274121 0.219455)
(-1.26405 0.206762 0.18207)
(-1.23146 0.148462 0.158755)
(-1.18878 0.115712 0.140793)
(-1.09937 0.0929519 0.0904841)
(-0.957826 0.0455552 0.0701041)
(-0.766714 -0.0203959 0.0596207)
(-0.500468 -0.113718 0.0191161)
(-0.253027 -0.207748 -0.0190183)
(-0.274252 -0.197585 -0.0660876)
(-0.318255 -0.176948 0.00852001)
(-0.314435 -0.174142 0.0597206)
(-0.272613 -0.156592 0.150924)
(-0.380572 -0.23365 0.1185)
(-0.422357 -0.296789 0.118518)
(-0.326432 -0.287869 0.176979)
(-0.269371 -0.214976 0.0450311)
(-0.140492 -0.100717 -0.0264228)
(-0.140633 -0.0767403 -0.00804928)
(-0.138525 -0.0740733 -0.0362711)
(-0.169414 -0.055605 -0.0686054)
(-0.167893 -0.501331 -0.149406)
(-0.126261 -0.479397 -0.139297)
(-0.110549 -0.446818 -0.0967206)
(-0.100306 -0.423717 -0.146402)
(-0.266217 -0.537749 -0.0317819)
(-0.27596 -0.575103 -0.0260891)
(-0.283303 -0.631394 -0.0843905)
(-0.336912 -0.582517 -0.0204545)
(-0.339852 -0.529702 0.0548475)
(-0.301256 -0.358939 0.0850469)
(-0.444016 -0.316881 0.114687)
(-0.361177 -0.431578 0.0401661)
(-0.346943 -0.522383 0.0135952)
(-0.3775 -0.508186 -0.0241082)
(-0.428114 -0.394295 0.0318957)
(-0.496878 -0.346425 0.0729592)
(-0.528449 -0.25477 0.163908)
(-0.590702 -0.215368 0.241596)
(-0.679621 -0.197449 0.256276)
(-0.576134 -0.206598 0.211822)
(-0.516651 -0.187667 0.181467)
(-0.544999 -0.18482 0.118118)
(-0.539592 -0.171867 0.092126)
(-0.496389 -0.183995 0.000910451)
(-0.761702 -0.086383 0.0646609)
(-0.971574 -0.00506498 0.089805)
(-1.079 0.0525378 0.103738)
(-1.12813 0.0754762 0.138431)
(-1.16554 0.036104 0.238281)
(-1.24993 0.0693301 0.267607)
(-1.31546 0.119781 0.349622)
(-1.32879 0.171312 0.432536)
(-1.27111 0.222423 0.525222)
(-1.14587 0.261339 0.605018)
(-0.973116 0.281389 0.649629)
(-0.773493 0.283187 0.658701)
(-0.622083 0.288223 0.645572)
(-0.342087 0.27216 0.646207)
(-0.43643 0.243968 0.876413)
(-0.468814 0.226391 1.00451)
(-0.461996 0.178597 1.08282)
(-0.44297 0.122481 1.01496)
(-0.441548 0.0577149 0.798447)
(-0.712245 -0.00565673 0.744904)
(-0.722715 0.0707881 0.945626)
(-0.741186 0.116641 1.02432)
(-0.74556 0.163647 0.980281)
(-0.694884 0.198265 0.873236)
(-0.836739 0.185968 0.863091)
(-0.879132 0.145497 0.965686)
(-0.882468 0.0879911 1.00168)
(-0.873106 0.0415751 0.926979)
(-0.867025 -0.03938 0.707333)
(-1.00972 -0.0605567 0.676123)
(-1.02392 0.0202788 0.901655)
(-1.03651 0.0693605 0.966852)
(-1.04427 0.121839 0.944925)
(-1.01886 0.173915 0.855006)
(-1.16235 0.163078 0.805145)
(-1.16325 0.110545 0.893672)
(-1.14688 0.0570544 0.915292)
(-1.13006 0.00631514 0.859954)
(-1.11035 -0.0732599 0.640387)
(-1.17025 -0.0838376 0.595797)
(-1.19545 -0.00628999 0.797393)
(-1.22155 0.043611 0.840841)
(-1.25067 0.0919031 0.812468)
(-1.26816 0.141579 0.717979)
(-1.31796 0.111097 0.611169)
(-1.28951 0.0689673 0.710137)
(-1.25118 0.0250385 0.747967)
(-1.21597 -0.0217599 0.716908)
(-1.18614 -0.0935789 0.540078)
(-1.15289 -0.10477 0.473004)
(-1.1808 -0.0413849 0.621842)
(-1.21952 0.000256839 0.641362)
(-1.27382 0.0392818 0.607217)
(-1.30691 0.0744898 0.509926)
(-1.2242 0.035914 0.41499)
(-1.18729 0.00300435 0.500763)
(-1.12754 -0.0321152 0.531719)
(-1.08539 -0.0600726 0.520593)
(-1.03933 -0.111807 0.387034)
(-0.918523 -0.12017 0.315376)
(-0.922715 -0.109382 0.358383)
(-0.971954 -0.0803677 0.438564)
(-0.955855 -0.0870097 0.425366)
(-0.92708 -0.10255 0.395104)
(-1.00385 -0.0683058 0.381888)
(-0.995751 -0.0628796 0.3079)
(-1.00057 -0.0389929 0.283248)
(-1.04383 -0.0269711 0.209549)
(-1.0389 -0.00926778 0.202811)
(-0.806238 -0.104939 0.14562)
(-0.8191 -0.125019 0.158199)
(-0.787971 -0.128236 0.216622)
(-0.823685 -0.141304 0.249782)
(-0.609633 -0.281458 0.133096)
(-0.556621 -0.291191 0.11485)
(-0.503149 -0.32658 0.13249)
(-0.4198 -0.399262 0.11604)
(-0.396501 -0.383753 0.149537)
(-0.487671 -0.284015 0.165386)
(-0.605566 -0.238897 0.183862)
(-0.614855 -0.267578 0.0968027)
(-0.513078 -0.377596 0.0439079)
(-0.439184 -0.459741 0.0280451)
(-0.396916 -0.525967 0.0577717)
(-0.383594 -0.697507 0.122188)
(-0.386761 -0.66296 0.127991)
(-0.405099 -0.380131 0.106975)
(-0.40806 -0.53621 0.0813799)
(-0.398929 -0.601597 0.0436492)
(-0.215547 -0.787712 -0.159103)
(-0.193256 -0.793497 -0.259808)
(-0.115257 -0.703401 -0.369248)
(-0.0784649 -0.623498 -0.385203)
(-0.0450684 -0.588296 -0.347544)
(-0.0136174 -0.555368 -0.3012)
(0.031525 -0.501378 -0.231808)
(0.124002 -0.454928 -0.108765)
(0.124561 -0.579461 -0.121756)
(0.116668 -0.635781 -0.120032)
(0.0847451 -0.693659 -0.157468)
(0.0921491 -0.74824 -0.155655)
(0.100283 -0.804813 -0.174826)
(0.118009 -0.833153 -0.166903)
(0.126006 -0.839984 -0.152708)
(0.126189 -0.826289 -0.130155)
(0.117508 -0.790436 -0.0958099)
(0.103911 -0.734114 -0.0425658)
(0.0374128 -0.654478 0.0333015)
(0.00155559 -0.546036 0.152983)
(0.0149951 -0.300099 0.359871)
(-0.147009 0.0120174 0.448744)
(-0.365818 0.095145 0.350429)
(-0.391597 -0.0397681 0.256339)
(-0.219016 -0.172429 0.252518)
(-0.179158 -0.188739 0.268897)
(-0.156371 -0.177809 0.214468)
(-0.0880936 -0.141802 0.205782)
(0.00163917 -0.0274388 0.0694554)
(-0.0379911 0.111209 0.0807852)
(-0.0814394 0.149588 0.0804175)
(-0.0501077 0.214013 0.170399)
(-0.00863391 0.182324 0.190815)
(0.0141162 0.0437997 0.142179)
(-0.0423078 -0.0259895 0.226401)
(0.0251379 0.0950598 0.322696)
(-0.00134273 -0.0628219 0.286276)
(0.078578 0.144127 0.247011)
(0.0919053 -0.0248758 0.227065)
(-0.0197295 -0.25641 0.455749)
(0.0514369 -0.359933 0.544412)
(0.172731 -0.504893 0.513893)
(0.166229 -0.694108 0.350973)
(0.0751956 -0.817781 0.143342)
(0.0589239 -0.889439 -0.00808486)
(0.0652633 -0.923548 -0.119618)
(0.0632352 -0.949626 -0.197674)
(0.0601559 -0.964088 -0.248627)
(0.0520512 -0.962161 -0.279277)
(0.0419155 -0.942175 -0.292606)
(0.0293373 -0.904558 -0.289421)
(0.0237077 -0.829765 -0.249618)
(0.00738894 -0.784088 -0.328704)
(0.0435408 -0.703259 -0.225198)
(0.0475846 -0.653112 -0.211234)
(0.0447956 -0.635709 -0.231941)
(0.00468677 -0.70165 -0.325156)
(-0.0224913 -0.741261 -0.382966)
(-0.0572483 -0.776606 -0.410682)
(-0.0731564 -0.843369 -0.401586)
(-0.131861 -0.903819 -0.345981)
(-0.0938529 -0.968261 -0.331997)
(-0.0888308 -0.978929 -0.373166)
(-0.0536981 -0.917502 -0.418011)
(-0.0434935 -0.867506 -0.431835)
(-0.0176771 -0.825318 -0.404197)
(-0.00952565 -0.868702 -0.341168)
(-0.0392353 -0.901004 -0.374143)
(-0.0559329 -0.94771 -0.396593)
(-0.0236652 -0.990766 -0.405847)
(-0.0485626 -1.05919 -0.420611)
(-0.0664979 -1.04196 -0.424376)
(-0.0932849 -0.919823 -0.34517)
(-0.186315 -0.761329 -0.224582)
(-0.197905 -0.613853 -0.0412523)
(-0.0997036 -0.732948 -0.197435)
(-0.079436 -0.838943 -0.26004)
(-0.0592616 -0.928173 -0.32393)
(-0.0607952 -0.945663 -0.334662)
(-0.0277449 -0.828858 -0.381715)
(-0.0239161 -0.723949 -0.338049)
(-0.0320317 -0.54155 -0.254812)
(-0.0161356 -0.353067 -0.164373)
(0.0346053 -0.090008 -0.209864)
(-0.247287 -0.433344 0.0730367)
(-0.328398 -0.460931 0.026281)
(0.219972 -0.118816 -0.24393)
(-0.172478 -0.247229 0.042804)
(-0.217852 -0.266325 -0.117564)
(-0.25819 -0.268601 -0.10394)
(-0.208331 -0.28146 -0.0218094)
(0.0810422 0.140981 -0.219626)
(0.102619 0.0598762 -0.232506)
(0.100834 -0.000147765 -0.261548)
(0.0962177 -0.000199167 -0.266316)
(-0.0800465 -0.429354 -0.202255)
(-0.133078 -0.449651 -0.223136)
(-0.186308 -0.458012 -0.207066)
(-0.249322 -0.444838 -0.169507)
(-0.169091 -0.547157 -0.18454)
(-0.126914 -0.558944 -0.257687)
(-0.0963192 -0.565217 -0.291992)
(-0.0606656 -0.553428 -0.292387)
(-0.0508148 -0.742333 -0.349655)
(-0.0816831 -0.756988 -0.332576)
(-0.106445 -0.769319 -0.282182)
(-0.147295 -0.759642 -0.195055)
(-0.13461 -0.821391 -0.182602)
(-0.128891 -0.882303 -0.200608)
(-0.0982284 -0.904916 -0.297847)
(-0.0727538 -0.871981 -0.374345)
(-0.0492724 -0.851733 -0.400762)
(-0.0768936 -0.967305 -0.371337)
(-0.112266 -0.989032 -0.336228)
(-0.138229 -1.0093 -0.284034)
(-0.137318 -1.09199 -0.347162)
(-0.0801687 -1.06629 -0.399612)
(-0.0725996 -1.14394 -0.441162)
(-0.0493428 -1.12237 -0.47373)
(-0.026853 -1.11331 -0.458943)
(-0.0032443 -1.04142 -0.415514)
(0.0121496 -1.07354 -0.40664)
(-0.012659 -1.15193 -0.469819)
(-0.0398446 -1.17905 -0.49438)
(-0.0686336 -1.20726 -0.463182)
(-0.131679 -1.22788 -0.379297)
(-0.135026 -1.16554 -0.369404)
(-0.283802 -1.04587 -0.225315)
(-0.457615 -1.14545 -0.07691)
(-0.464029 -1.09945 -0.0674537)
(-0.416294 -1.04504 -0.0647834)
(-0.30311 -1.03552 -0.07388)
(-0.255897 -0.966772 -0.0641031)
(-0.309444 -0.944283 -0.0576886)
(-0.342563 -0.848484 -0.0422577)
(-0.378292 -0.713221 -0.0379256)
(-0.473988 -0.626548 -0.0367422)
(-0.41012 -0.401329 -0.0341519)
(-0.4652 -0.660532 -0.00584401)
(-0.316985 -0.457463 0.0245609)
(-0.638624 -0.398713 0.00546971)
(-0.815448 -0.379408 0.0601741)
(-0.917844 -0.384608 0.0846675)
(-0.967732 -0.397427 0.124413)
(-0.97977 -0.525514 0.0978084)
(-0.940251 -0.689596 0.0653978)
(-0.923994 -0.750367 0.0525174)
(-0.874566 -0.848666 0.0364682)
(-0.858968 -0.895854 0.0304895)
(-0.821154 -0.928074 0.00763096)
(-0.703914 -0.967602 -0.0229932)
(-0.592759 -1.00203 -0.0419919)
(-0.627024 -0.952644 -0.0171983)
(-0.485249 -0.971559 -0.0307191)
(-0.50316 -0.893276 -0.0301345)
(-0.530769 -0.79684 -0.0232879)
(-0.559605 -0.730642 -0.0194778)
(-0.686645 -0.712349 -0.00977256)
(-0.675192 -0.598096 -0.00774627)
(-0.824261 -0.577286 0.030372)
(-0.918495 -0.559751 0.0504424)
(-0.881467 -0.697172 0.0231777)
(-0.800584 -0.704616 0.0122223)
(-0.777735 -0.789791 0.00230418)
(-0.661164 -0.798156 -0.0107516)
(-0.636029 -0.882526 -0.017023)
(-0.748711 -0.866221 -0.00511582)
(-0.825688 -0.850704 0.00446883)
(-0.863275 -0.773126 0.013539)
(-0.801724 -0.738987 -0.0117329)
(-0.62407 -0.612056 0.00195969)
(-0.84722 -0.659734 0.0117211)
(-0.868056 -0.518424 0.0520986)
(-0.870459 -0.379845 0.058171)
(-0.843199 -0.282238 0.12167)
(-0.832246 -0.302255 0.0765674)
(-0.878916 -0.350681 0.0526109)
(-0.875013 -0.203916 0.12914)
(-0.893929 -0.184259 0.174213)
(-0.760504 -0.161503 0.158555)
(-0.766 -0.129042 0.259329)
(-0.777165 -0.120728 0.302161)
(-0.82068 -0.108608 0.35559)
(-0.828195 -0.119187 0.352994)
(-0.641694 -0.181621 0.25126)
(-0.606769 -0.173564 0.248594)
(-0.567022 -0.180399 0.215688)
(-0.550704 -0.175552 0.189026)
(-0.568631 -0.191138 0.120399)
(-0.338278 -0.194649 0.0767111)
(-0.319953 -0.189159 0.101688)
(-0.328966 -0.191882 0.114241)
(-0.360163 -0.198787 0.124453)
(-0.448764 -0.216776 0.141952)
(-0.404831 -0.253232 0.0598388)
(-0.381761 -0.284759 0.0685121)
(-0.410167 -0.340822 0.0471129)
(-0.31554 -0.426669 0.0359374)
(-0.311423 -0.394129 0.0491638)
(-0.283257 -0.415999 0.015606)
(-0.192641 -0.419255 -0.020493)
(-0.336747 -0.253948 0.0354912)
(-0.402415 -0.33068 0.041123)
(-0.247836 -0.457127 -0.00667854)
(-0.291234 -0.459507 0.000282153)
(-0.451226 -0.321004 0.0719809)
(-0.524007 -0.298812 0.131338)
(-0.497491 -0.318482 0.136378)
(-0.470552 -0.336638 0.111422)
(-0.458521 -0.350478 0.0943129)
(-0.493162 -0.373025 0.00856785)
(-0.710591 -0.317746 0.0631813)
(-0.717764 -0.529758 0.03894)
(-0.549047 -0.554193 -0.00181961)
(-0.50999 -0.606808 -0.00410275)
(-0.465827 -0.649038 -0.0176178)
(-0.437029 -0.652295 -0.0213759)
(-0.412944 -0.530782 -0.0232457)
(-0.411243 -0.540812 -0.0485814)
(-0.410148 -0.541249 -0.0345432)
(-0.33551 -0.550263 -0.0173756)
(-0.267616 -0.595664 -0.00764145)
(-0.319683 -0.580631 -0.00380506)
(-0.403467 -0.512801 0.0069269)
(-0.332085 -0.535179 -0.00443417)
(-0.438918 -0.630126 -0.0120541)
(-0.293029 -0.473047 -0.00539688)
(-0.210517 -0.539489 -0.0186482)
(-0.281236 -0.524422 -0.0165316)
(-0.394461 -0.435928 -0.000885728)
(-0.41387 -0.362632 -0.0105268)
(-0.260714 -0.394071 -0.0112946)
(-0.157086 -0.422693 -0.0367056)
(-0.136451 -0.399275 -0.0229886)
(-0.23818 -0.205212 0.0221273)
(-0.382617 -0.342761 -0.00216371)
(-0.251874 -0.474392 -0.0199806)
(-0.219124 -0.467797 -0.0238979)
(-0.122145 -0.39263 -0.0303316)
(-0.219131 -0.194373 0.039014)
(-0.346765 -0.337818 0.0120588)
(-0.366009 -0.363136 0.0541679)
(-0.1958 -0.510885 -0.0110549)
(-0.174006 -0.467856 0.0184775)
(-0.109948 -0.420022 0.00163146)
(-0.222171 -0.228938 0.0446019)
(-0.325672 -0.341728 0.0523158)
(-0.334819 -0.338806 0.0569722)
(-0.180482 -0.463034 0.0165502)
(-0.109264 -0.408793 -0.000146756)
(-0.231766 -0.220356 0.0620714)
(-0.285717 -0.22136 0.077462)
(-0.24024 -0.230152 0.0712124)
(-0.350012 -0.336848 0.0784894)
(-0.1895 -0.465125 0.048244)
(-0.117712 -0.41547 0.0371838)
(-0.140408 -0.449498 -0.00413761)
(-0.196358 -0.497398 0.0255769)
(-0.381399 -0.35053 0.0791902)
(-0.334172 -0.625236 -0.00363298)
(-0.35563 -0.631941 -0.0117275)
(-0.499178 -0.511775 0.0579365)
(-0.651084 -0.444698 0.098381)
(-0.666448 -0.286756 0.136469)
(-0.797811 -0.271615 0.170632)
(-0.890507 -0.320846 0.166542)
(-1.02071 -0.489063 0.126034)
(-1.10748 -0.495423 0.167772)
(-1.13238 -0.503105 0.19292)
(-1.11249 -0.505522 0.215892)
(-1.04938 -0.501868 0.238755)
(-0.944058 -0.490995 0.260632)
(-0.795531 -0.467739 0.287235)
(-0.641384 -0.432703 0.326749)
(-0.399019 -0.380784 0.394959)
(-0.166265 -0.291429 0.481809)
(0.0340866 -0.149779 0.486668)
(0.33152 -0.158294 0.429337)
(0.334239 -0.218376 0.380389)
(0.204669 -0.127071 0.490272)
(0.271502 -0.00193045 0.769548)
(0.282481 0.0477365 1.03473)
(0.267808 0.0827736 1.14358)
(0.250127 0.135261 1.09132)
(0.213095 0.124068 0.952359)
(0.143497 0.121292 0.699905)
(0.041157 0.18511 0.401074)
(0.175068 0.511613 0.423114)
(0.425133 0.514883 0.372859)
(0.613048 0.536558 0.373851)
(0.855513 0.495491 0.350596)
(1.01261 0.415918 0.317554)
(1.07687 0.323169 0.274563)
(1.0624 0.255786 0.234872)
(1.01314 0.211314 0.199125)
(1.03212 0.158832 0.167412)
(1.0453 0.119056 0.144435)
(0.98583 0.0930164 0.0907419)
(0.880562 0.0423241 0.067976)
(0.714561 -0.0229448 0.0543644)
(0.469078 -0.110103 0.0207337)
(0.241173 -0.216945 -0.0225533)
(0.101691 -0.623014 -0.111062)
(0.177961 -0.384849 -0.0793898)
(-0.179927 -0.172547 0.00571131)
(-0.100423 -0.395512 -0.0410115)
(-0.109644 -0.320182 -0.0675232)
(-0.111839 -0.349468 -0.0757395)
(-0.109021 -0.313382 -0.066067)
(-0.0770183 -0.243441 -0.0624638)
(-0.144274 -0.196476 -0.0348163)
(-0.225131 0.162397 0.153824)
(-0.144148 0.449657 0.137371)
(-0.0498485 0.582037 0.0788341)
(0.0223144 0.646749 0.0749516)
(0.105434 0.669235 0.15657)
(0.200462 0.710179 0.273078)
(0.297226 0.744691 0.328898)
(0.38482 0.741827 0.364487)
(0.464985 0.682175 0.373167)
(0.531493 0.547594 0.370411)
(0.582403 0.330676 0.334808)
(0.563142 0.00830306 0.259798)
(0.38324 -0.328074 0.250488)
(0.284105 -0.326737 0.315184)
(0.21921 -0.280549 0.324981)
(0.152742 -0.189013 0.332724)
(0.144807 0.00936351 0.308809)
(0.289573 0.0108224 0.335607)
(0.448851 -0.155955 0.328453)
(0.598884 -0.253416 0.341084)
(0.637755 -0.342691 0.350711)
(0.61863 -0.435086 0.352822)
(0.473351 -0.540813 0.335363)
(0.105178 -0.567944 0.3199)
(-0.17182 -0.302851 0.30519)
(-0.0452811 -0.129962 0.355908)
(0.225801 -0.147324 0.237864)
(0.282053 -0.397354 0.0728648)
(0.00929534 -0.51281 0.236159)
(-0.139707 -0.741355 -0.137508)
(0.20617 -0.716725 -0.478359)
(0.304294 -0.388269 -0.175642)
(0.331808 -0.376229 0.0948871)
(0.342984 -0.550335 0.187441)
(0.324035 -0.892283 0.12259)
(0.525828 -0.87084 0.0654253)
(0.601867 -0.689019 0.0980398)
(0.566417 -0.534766 0.139084)
(0.496723 -0.392178 0.18947)
(0.329916 -0.226882 0.24624)
(0.351417 -0.34158 0.196104)
(0.412873 -0.371974 0.14306)
(0.493577 -0.359225 0.0814976)
(0.597189 -0.288293 -0.0542074)
(0.847893 0.200658 -0.112644)
(0.897005 0.475914 -0.0173869)
(0.843883 0.670788 0.054811)
(0.742672 0.765847 0.0968065)
(0.60931 0.788305 0.142861)
(0.458666 0.758846 0.157352)
(0.292395 0.699188 0.160123)
(0.121563 0.638386 0.0947379)
(-0.046409 0.597637 0.0524672)
(-0.165999 0.538105 0.0675547)
(-0.292338 0.419338 0.13559)
(-0.407601 0.185806 0.170275)
(-0.285554 -0.148342 0.00796278)
(-0.398021 -0.0737889 0.0454767)
(-0.479145 -0.0110088 0.0748925)
(-0.540349 0.110241 0.119458)
(-0.533945 0.0733007 0.0934542)
(-0.494641 -0.0623052 0.0216662)
(-0.456543 -0.121081 0.0113571)
(-0.392543 -0.174787 -0.011798)
(-0.297614 -0.230328 -0.0269258)
(-0.190415 -0.261879 -0.0407387)
(-0.143718 -0.237757 -0.0335609)
(-0.196919 -0.205342 -0.0274005)
(-0.182236 -0.350948 -0.0450626)
(-0.122731 -0.3458 -0.0516038)
(-0.0999844 -0.364087 -0.0794643)
(-0.0770554 -0.400366 -0.114669)
(-0.047223 -0.580357 -0.230869)
(-0.0849542 -0.520369 -0.162423)
(-0.0986833 -0.629293 -0.128317)
(-0.145026 -0.630672 -0.0814284)
(-0.185313 -0.55382 -0.0667723)
(-0.283608 -0.374097 -0.0305205)
(-0.267964 0.136247 0.107924)
(-0.114777 0.373129 0.268018)
(-0.0160398 0.462378 0.408125)
(0.0603799 0.470411 0.537329)
(0.133101 0.411933 0.612951)
(0.185267 0.30593 0.64674)
(0.235993 0.158682 0.62241)
(0.225571 -0.0110359 0.52413)
(0.0933688 -0.129639 0.419121)
(-0.0199481 -0.0955627 0.432996)
(-0.0382002 0.0264948 0.409868)
(-0.0353419 0.147815 0.413315)
(0.038915 0.252044 0.352523)
(0.201405 0.138212 0.367737)
(0.156854 0.277517 0.4406)
(-0.0646824 0.160166 -0.100026)
(-0.1761 -0.0661634 -0.635689)
(-0.181815 -0.303935 -0.527344)
(-0.169028 -0.340984 -0.296458)
(-0.145861 -0.299536 -0.0916769)
(-0.0625109 -0.582736 -0.104221)
(-0.0285167 -0.859858 -0.0923939)
(0.00177881 -1.01764 -0.0905908)
(0.0320217 -1.14208 -0.100389)
(0.0652374 -1.22599 -0.114708)
(0.0958173 -1.27899 -0.12868)
(0.12258 -1.30585 -0.140676)
(0.146715 -1.31475 -0.152749)
(0.167738 -1.31313 -0.165266)
(0.186048 -1.30452 -0.176073)
(0.201645 -1.29044 -0.184566)
(0.215499 -1.27128 -0.189708)
(0.227755 -1.2467 -0.192398)
(0.238952 -1.21531 -0.191191)
(0.248499 -1.17579 -0.185924)
(0.254239 -1.12584 -0.175033)
(0.251356 -1.06288 -0.158325)
(0.194479 -0.999431 -0.138446)
(0.139562 -0.914149 -0.122257)
(0.164072 -0.829799 -0.0865746)
(0.187316 -0.72894 -0.0877843)
(0.20344 -0.560018 -0.0876883)
(0.246042 -0.442693 -0.0840939)
(0.0717018 -0.0306605 -0.0949491)
(0.365676 -0.298464 0.0439654)
(0.245371 -0.55109 -0.0565839)
(0.285701 -0.0947503 -0.0265206)
(0.180356 -0.0369823 -0.146598)
(0.201577 -0.112736 -0.12362)
(0.194622 -0.119563 -0.0796673)
(0.215726 -0.131853 -0.0222268)