/*--------------------------------*- C++ -*----------------------------------*\
| =========                 |                                                 |
| \\      /  F ield         | OpenFOAM: The Open Source CFD Toolbox           |
|  \\    /   O peration     | Version:  v2012                                 |
|   \\  /    A nd           | Website:  www.openfoam.com                      |
|    \\/     M anipulation  |                                                 |
\*---------------------------------------------------------------------------*/
FoamFile
{
    version     2.0;
    format      ascii;
    class       volScalarField;
    location    "515";
    object      k;
}
// * * * * * * * * * * * * * * * * * * * * * * * * * * * * * * * * * * * * * //

dimensions      [0 2 -2 0 0 0 0];


internalField   nonuniform List<scalar> 
18258
(
0.0336306
0.0158461
0.0123963
0.0102395
0.0110198
0.0140501
0.0168523
0.0212291
0.025656
0.0315907
0.0386506
0.0475728
0.0535634
0.0606992
0.0636542
0.0619219
0.0520282
0.0472733
0.0564445
0.0809802
0.0711323
0.0514369
0.0623931
0.0615448
0.0723012
0.0764072
0.0601162
0.0549168
0.0495158
0.0438321
0.0372476
0.0229779
0.0241594
0.028935
0.0321433
0.0358576
0.0387184
0.0410484
0.0427098
0.0435232
0.0434187
0.0421093
0.0394076
0.0353707
0.0299286
0.0239816
0.0237802
0.0235491
0.0292543
0.0349026
0.0403799
0.0460047
0.0544664
0.044601
0.0290132
0.039165
0.047639
0.0545313
0.05896
0.0614116
0.0621771
0.061266
0.0589782
0.0557204
0.0517606
0.0474227
0.0434053
0.0394199
0.0341779
0.0309156
0.0268028
0.0234573
0.0210157
0.0193022
0.0181829
0.0171809
0.0163163
0.015584
0.0149684
0.0145464
0.0144548
0.0144803
0.01458
0.014676
0.0150191
0.0126682
0.0108976
0.0104299
0.0101784
0.00953327
0.00808413
0.0106407
0.0117508
0.0121685
0.0124409
0.0136145
0.0147539
0.0143255
0.0135982
0.0124759
0.0127078
0.0171429
0.0178725
0.0229254
0.0217887
0.0170333
0.0148161
0.0166074
0.0194278
0.0224895
0.0192605
0.0192306
0.0179269
0.0170273
0.0148749
0.0149055
0.0143865
0.0140795
0.0149965
0.0177671
0.017178
0.0172932
0.0185111
0.018834
0.020062
0.0210814
0.0204165
0.0202332
0.0163652
0.0162648
0.0173053
0.0171782
0.0176587
0.0201675
0.0202242
0.0205662
0.0207815
0.0235743
0.0235932
0.0235599
0.0236512
0.0244919
0.0235281
0.0231145
0.0231422
0.0231773
0.0210051
0.0207842
0.0204225
0.0204616
0.018282
0.0175434
0.0182765
0.0192568
0.0212299
0.0249725
0.0314051
0.0403233
0.0504137
0.0606497
0.0684178
0.0727726
0.0771356
0.0765976
0.0773036
0.0794024
0.0797717
0.078629
0.0767784
0.0746148
0.0716637
0.0670336
0.0665771
0.0589499
0.0480772
0.033368
0.0388721
0.0417039
0.0444532
0.0447519
0.0452292
0.0440183
0.0422679
0.0386977
0.0336174
0.0247695
0.0257077
0.0301718
0.0348499
0.0386486
0.0428218
0.0464652
0.0483315
0.0500524
0.059445
0.0571644
0.0552419
0.056932
0.0585055
0.0617198
0.0601696
0.0562177
0.0502366
0.0518564
0.0449595
0.0335914
0.0313701
0.0292434
0.0269653
0.0378154
0.0495791
0.0610857
0.0674168
0.0735887
0.0784368
0.082479
0.087016
0.0815555
0.0764085
0.0576814
0.0837434
0.0656206
0.0503178
0.0409827
0.0330325
0.0316974
0.0344289
0.0344576
0.0326355
0.028093
0.0220718
0.0229336
0.0359212
0.045748
0.0537743
0.055325
0.0600272
0.0624974
0.0572072
0.0577823
0.0469434
0.0481729
0.0514727
0.0460784
0.0437971
0.0351825
0.0274568
0.0334914
0.0498505
0.0684716
0.0844056
0.0994828
0.0659141
0.049992
0.0408825
0.0340429
0.0329251
0.0375555
0.0435151
0.0527412
0.0411269
0.0370462
0.0335263
0.0306556
0.0257952
0.0275213
0.0287623
0.0269443
0.0498406
0.0572593
0.0611136
0.0836195
0.0924168
0.108369
0.107013
0.0925387
0.0962671
0.0690008
0.0686994
0.0860519
0.0680883
0.0511696
0.0614563
0.0743734
0.088154
0.10128
0.112567
0.121649
0.123402
0.111958
0.0811855
0.046757
0.021301
0.0186634
0.0181149
0.0174047
0.0165145
0.0157075
0.01508
0.0121224
0.00949644
0.00927954
0.00946208
0.00940812
0.00826151
0.00951613
0.0115804
0.0137716
0.015279
0.0164871
0.0175062
0.018239
0.0188265
0.019224
0.0195189
0.0197842
0.0200165
0.0201988
0.0203325
0.0204186
0.0204564
0.0204384
0.0203584
0.0202154
0.0200077
0.0197192
0.019247
0.0177256
0.0158823
0.0150589
0.0151177
0.014869
0.0145688
0.0119394
0.0123093
0.0143271
0.0149574
0.0177407
0.0197708
0.0214683
0.0229164
0.0244365
0.0252098
0.0260345
0.0262965
0.0263452
0.0262409
0.0260864
0.0258572
0.0255492
0.0244814
0.0212623
0.0248703
0.0272701
0.0289678
0.0303273
0.0312382
0.0313417
0.0285823
0.0360743
0.0385203
0.039425
0.0396896
0.038867
0.0368545
0.0344058
0.0323509
0.0308428
0.029725
0.0275825
0.0253356
0.023027
0.0206125
0.0173925
0.0186645
0.0205002
0.0207098
0.0204177
0.0214633
0.0227196
0.0210617
0.0189667
0.0160887
0.0150929
0.0146084
0.0144223
0.0148367
0.014488
0.0143805
0.0148749
0.0178737
0.0189652
0.0206638
0.0239222
0.0227914
0.020851
0.0280222
0.0296293
0.0300767
0.030427
0.0303333
0.0295747
0.0265034
0.0250477
0.0264368
0.0249827
0.0243518
0.0244418
0.0240748
0.0222103
0.02451
0.0265101
0.0281006
0.0289485
0.0301889
0.0317442
0.0339076
0.0357043
0.0373666
0.0383717
0.0383466
0.037799
0.0379661
0.0385988
0.0382613
0.0365821
0.0345092
0.032417
0.0294486
0.029285
0.0312604
0.0328226
0.0344812
0.0362544
0.0355838
0.0336933
0.0320673
0.0306469
0.0289359
0.0288197
0.0304974
0.0319424
0.0336839
0.0358105
0.0359953
0.0338453
0.032022
0.0305146
0.02881
0.02878
0.0304827
0.031999
0.0337283
0.0356232
0.0347523
0.0332759
0.0317484
0.0302769
0.0286101
0.0281741
0.0297803
0.0311661
0.0324842
0.0335539
0.0318777
0.0312846
0.0302114
0.0288194
0.0270595
0.0258061
0.0263151
0.0277034
0.0278147
0.0282963
0.0294169
0.0292654
0.028983
0.0289389
0.0286572
0.0264115
0.0268186
0.0268666
0.027558
0.0308571
0.0303744
0.0330382
0.0354428
0.0331338
0.0316503
0.028093
0.0336482
0.033686
0.0346431
0.0334664
0.0237109
0.0218607
0.02286
0.0243882
0.0260249
0.0253252
0.0225859
0.0225153
0.023117
0.0225265
0.0209608
0.0179832
0.013514
0.0135223
0.0135125
0.0142448
0.0170445
0.0186372
0.0187461
0.0185892
0.0182853
0.0178117
0.0170919
0.0160176
0.0156335
0.0247774
0.0451205
0.0565483
0.0558968
0.0425168
0.0356894
0.0264039
0.0183599
0.0110949
0.0107823
0.0114499
0.0137585
0.0115386
0.0108481
0.0149539
0.0120263
0.0200072
0.0231126
0.0302817
0.0414152
0.0400902
0.0305435
0.0204709
0.0183986
0.0192532
0.0197756
0.0201637
0.0205452
0.0209305
0.0213497
0.0218601
0.0215374
0.0189073
0.0166688
0.0167923
0.0173636
0.0198637
0.0212454
0.0220408
0.0217126
0.0219663
0.0236715
0.0224354
0.0212121
0.021002
0.0202947
0.0231296
0.0234759
0.0228526
0.0228536
0.0231296
0.0230105
0.0231498
0.0239544
0.0197758
0.0218896
0.0224394
0.0227181
0.0235073
0.0190285
0.0192196
0.0192868
0.018142
0.0148675
0.0179761
0.016739
0.0121484
0.013459
0.0134269
0.0140399
0.014366
0.0171178
0.0162867
0.0155567
0.0163176
0.0222815
0.0230846
0.0232601
0.0206188
0.0193728
0.0218573
0.0224476
0.0219944
0.0211054
0.0212651
0.0203216
0.0184237
0.0177057
0.0178427
0.0192493
0.020047
0.0201184
0.023711
0.0232065
0.0216512
0.0226289
0.0232296
0.0228166
0.0227114
0.0226604
0.0222914
0.0218696
0.0222799
0.0224644
0.0225128
0.0220709
0.0223208
0.0249267
0.0214134
0.0212235
0.0201502
0.0194961
0.0178736
0.0176218
0.0177198
0.01768
0.0175862
0.0167503
0.0186045
0.0178787
0.02001
0.0216191
0.0227667
0.0239336
0.0240807
0.0236474
0.0236045
0.023218
0.0231811
0.022634
0.0217918
0.0212111
0.0204428
0.0192387
0.0192317
0.0191832
0.0190401
0.0204421
0.0203424
0.0219034
0.0230203
0.0227325
0.0217711
0.0216608
0.0204884
0.0204643
0.0215014
0.0223857
0.0226369
0.0234907
0.0260006
0.0236842
0.0252356
0.0259387
0.026601
0.0259927
0.0248969
0.0256484
0.0239891
0.0228787
0.0241956
0.0249188
0.0261807
0.0269761
0.0249991
0.0239708
0.0227739
0.0219118
0.0209281
0.0184083
0.0190179
0.0198053
0.0210359
0.0228496
0.0255668
0.0282967
0.0312138
0.0312695
0.0289736
0.0272825
0.032078
0.0315535
0.0365189
0.0371191
0.0329994
0.0301994
0.0272911
0.0268626
0.0259411
0.0254049
0.0241363
0.0253827
0.0257999
0.0248585
0.0273236
0.0288936
0.0332233
0.0387759
0.0354372
0.0326193
0.0376856
0.0366075
0.0425563
0.0363399
0.0346899
0.0285451
0.033157
0.0355186
0.0432444
0.0338402
0.0296617
0.0294473
0.0307767
0.0382535
0.03679
0.0393729
0.0445383
0.0438795
0.039014
0.0357804
0.0415189
0.0315642
0.0370037
0.0390134
0.0324024
0.0321557
0.0390185
0.0396393
0.0398068
0.033737
0.0330055
0.0249925
0.0335385
0.0400089
0.0399215
0.03315
0.0259618
0.0358487
0.0314863
0.0312823
0.0312835
0.0268858
0.0268168
0.0261192
0.026373
0.0270782
0.0246505
0.0254503
0.0257075
0.025868
0.0259971
0.0261872
0.0265292
0.0271686
0.0278825
0.0228461
0.024275
0.0229358
0.021613
0.0202838
0.024059
0.0265374
0.0283476
0.0298044
0.0309379
0.0314124
0.0299657
0.0379487
0.0396534
0.0412825
0.0414322
0.0402022
0.0375603
0.0341447
0.030721
0.0286123
0.027302
0.0248317
0.022707
0.0206347
0.0184839
0.0156755
0.0143395
0.0130283
0.0116619
0.0113431
0.0108243
0.0102481
0.00960918
0.00931109
0.0116554
0.0162784
0.0270548
0.0325808
0.0382924
0.0451802
0.0518327
0.057197
0.0612001
0.0640516
0.0658476
0.0663404
0.0638024
0.0530016
0.0479068
0.0429291
0.0378934
0.0328046
0.032073
0.041206
0.0495345
0.0565797
0.0629372
0.0670885
0.0654616
0.049908
0.046678
0.062259
0.0897654
0.0805131
0.103509
0.119888
0.079469
0.0647971
0.0640831
0.0795595
0.0820693
0.0754446
0.0664617
0.056569
0.0455865
0.0507096
0.0555933
0.06026
0.0649526
0.078062
0.0804278
0.0791612
0.0765946
0.0732447
0.0687331
0.0620882
0.0534458
0.0441044
0.0360606
0.0286958
0.0175028
0.0129
0.0138369
0.0133497
0.013608
0.0138804
0.0101983
0.0105479
0.0107527
0.0106645
0.0103809
0.0104517
0.0118533
0.0182889
0.0150757
0.0137421
0.0118565
0.0145355
0.0163917
0.0181605
0.0187283
0.0189239
0.0198507
0.0352771
0.0441549
0.0498554
0.0546203
0.0579236
0.0566512
0.0532008
0.0472079
0.0399963
0.037287
0.0332036
0.0297963
0.0280506
0.0289856
0.0254003
0.0156533
0.0147152
0.0157751
0.0154325
0.0144344
0.016395
0.017622
0.0184022
0.0190324
0.019502
0.0198617
0.0201167
0.020284
0.0203693
0.0203909
0.0203635
0.0202924
0.0201769
0.0200147
0.0197952
0.0194886
0.0189691
0.0172611
0.0154251
0.0147113
0.014795
0.0145638
0.0142004
0.0123237
0.0125517
0.0144129
0.0150169
0.0146256
0.0152163
0.015686
0.0168845
0.0190502
0.0211875
0.0230262
0.0217198
0.0210664
0.0210439
0.0206417
0.0175361
0.0208525
0.0236814
0.0241882
0.0244517
0.0252674
0.0268608
0.0278199
0.0268897
0.0263953
0.0258706
0.0228308
0.0244713
0.0279495
0.0283583
0.0290201
0.0296094
0.0301738
0.0314679
0.0308465
0.0299768
0.0293918
0.0266024
0.0257351
0.0316743
0.0207468
0.0146689
0.0106236
0.0109613
0.0111952
0.0108982
0.0116789
0.0122232
0.0124592
0.0117834
0.012861
0.0137686
0.013014
0.0156261
0.0149342
0.013938
0.0134846
0.0142374
0.0149443
0.0153249
0.0164611
0.0265821
0.0274137
0.0228711
0.0294321
0.0319912
0.029033
0.0319413
0.0296175
0.0283014
0.0310956
0.0344432
0.0356276
0.0332943
0.031944
0.0312473
0.0208469
0.0201612
0.0194369
0.0175838
0.0178674
0.0174051
0.016943
0.0165278
0.018993
0.0203909
0.0214827
0.0211778
0.0208752
0.020471
0.0213063
0.0257323
0.0344796
0.0438044
0.0468314
0.0455927
0.0417435
0.0349631
0.0286597
0.0282001
0.0262412
0.0249999
0.0247105
0.0187245
0.0149633
0.0174973
0.0173939
0.0184656
0.0191425
0.0196757
0.0201007
0.0204544
0.020759
0.0210527
0.0213241
0.0215602
0.0217575
0.021926
0.0220649
0.0222147
0.022396
0.0226489
0.0228523
0.0212301
0.0186146
0.0172747
0.017128
0.0178435
0.0187467
0.0198742
0.0191233
0.0154049
0.015479
0.021901
0.0223454
0.0209748
0.0195529
0.0197542
0.018914
0.0227093
0.0225081
0.0232858
0.0230822
0.0228049
0.0225281
0.0222526
0.0219693
0.0216945
0.0214536
0.0212337
0.021028
0.0208237
0.0205982
0.0203244
0.0199233
0.0192447
0.0184556
0.0169753
0.0180811
0.0193473
0.0209979
0.0228034
0.0237022
0.0228426
0.0216325
0.021086
0.02129
0.021582
0.0219008
0.0222446
0.0226463
0.0230645
0.0234602
0.0234212
0.0221046
0.0227428
0.0174569
0.0183108
0.0186101
0.0185701
0.0202301
0.0193767
0.0146686
0.0151834
0.0159066
0.0171861
0.0197672
0.0201261
0.0214686
0.0216921
0.0173123
0.0170079
0.0165852
0.0175934
0.0152305
0.015865
0.0265878
0.0272069
0.0349568
0.0383105
0.039922
0.0331415
0.0456091
0.052462
0.0505804
0.0409204
0.0235142
0.0346575
0.042181
0.0488345
0.0457682
0.0356074
0.0449332
0.0473971
0.0633183
0.058961
0.0525908
0.0633564
0.0447549
0.0269349
0.015834
0.0164069
0.0152082
0.0306823
0.0347923
0.0314891
0.0323397
0.0399795
0.0409936
0.0362483
0.0345574
0.0363134
0.0358654
0.0398248
0.0371242
0.0337435
0.0233119
0.0190349
0.0198728
0.0212799
0.0231046
0.0254464
0.0253437
0.0242012
0.0228374
0.0218639
0.0208116
0.0183151
0.0176599
0.0196197
0.021249
0.0226268
0.0241346
0.0249526
0.0257915
0.0259556
0.0258473
0.0255255
0.0250994
0.0245478
0.0238671
0.02246
0.0237011
0.0243815
0.0245853
0.0248582
0.0251661
0.025438
0.0255751
0.0254575
0.0245114
0.0237034
0.0225372
0.0214193
0.0198132
0.0176974
0.0183782
0.0201364
0.0217358
0.0228501
0.0239001
0.0235089
0.0239977
0.0246516
0.0246787
0.0245021
0.0242818
0.0241352
0.0242312
0.0248651
0.0265711
0.0262492
0.0290399
0.0302327
0.0276672
0.026338
0.0256468
0.0252234
0.024981
0.0247787
0.0245844
0.0240459
0.0235009
0.0239949
0.024243
0.0245358
0.0248898
0.0253935
0.0260837
0.027179
0.0285888
0.0284614
0.0262635
0.0261462
0.0250931
0.0243058
0.0239267
0.0238712
0.0239144
0.0240139
0.0239475
0.023428
0.0231008
0.0235059
0.0224946
0.0225615
0.0215891
0.0202307
0.0187905
0.0173386
0.0166772
0.0352996
0.0352873
0.0458097
0.0424559
0.0371218
0.0471808
0.0601873
0.0521711
0.0628997
0.0666854
0.05418
0.0503397
0.0278934
0.0244039
0.0174106
0.0189361
0.0202808
0.0214849
0.0213013
0.0222227
0.0221049
0.0230728
0.0225285
0.0217397
0.0211975
0.020181
0.0202368
0.0189655
0.0174205
0.0172872
0.0189355
0.0199764
0.0211564
0.0211477
0.0226091
0.0231177
0.0235219
0.0236795
0.0236737
0.0237649
0.0239389
0.0243878
0.0251005
0.0255635
0.0256966
0.0260948
0.0258399
0.0255168
0.0250562
0.0247435
0.0244241
0.024145
0.0238518
0.0235766
0.02315
0.0224978
0.0223789
0.0228895
0.0232275
0.0234621
0.0235997
0.0235861
0.0234003
0.0230945
0.0227897
0.0224471
0.0225092
0.0238078
0.0240427
0.0241692
0.0239532
0.0237802
0.0237602
0.0236369
0.0235367
0.0233006
0.0229251
0.0224482
0.0213764
0.0214811
0.0223683
0.0228192
0.0231557
0.0234422
0.0234634
0.0233785
0.0230001
0.0227056
0.0223583
0.0218028
0.0210856
0.018668
0.019126
0.0197423
0.0205734
0.0214095
0.0221216
0.0225738
0.0227601
0.0227534
0.0225794
0.022227
0.0214817
0.0214642
0.0220034
0.022174
0.0221276
0.02183
0.0212198
0.0203002
0.0191003
0.017885
0.0169067
0.0164035
0.0156148
0.0182417
0.0192722
0.0202199
0.0210892
0.0219047
0.0227618
0.0230968
0.0231636
0.0230014
0.022729
0.0223076
0.0215286
0.0215408
0.0222539
0.0226532
0.0228767
0.0229768
0.0226908
0.0220043
0.0204622
0.0190367
0.0178501
0.0167618
0.0156363
0.0152314
0.0157323
0.0153491
0.015823
0.0169688
0.0184593
0.0198244
0.0208013
0.02139
0.0216705
0.0216959
0.0213646
0.0211884
0.0213199
0.0211286
0.0206432
0.0197873
0.0185111
0.0170343
0.0157929
0.0153815
0.0159929
0.0166379
0.0160436
0.0139222
0.0150465
0.0161363
0.0172721
0.0189581
0.0210246
0.0220376
0.0225331
0.02268
0.022555
0.0221825
0.0215204
0.0214693
0.0221025
0.0224655
0.0225667
0.022464
0.0220008
0.0211443
0.0186264
0.0158761
0.0146369
0.0139325
0.0129886
0.0161957
0.0168848
0.0160713
0.0155371
0.0164029
0.0174649
0.0186375
0.0195349
0.0201731
0.0206666
0.0209327
0.0209543
0.0206871
0.0205794
0.0203667
0.0200257
0.0196813
0.0193246
0.0185256
0.0176824
0.0167237
0.0177879
0.018352
0.0176031
0.014488
0.0150549
0.0158629
0.0163555
0.0190044
0.0214869
0.0221863
0.022403
0.0225227
0.0224003
0.0220059
0.0213847
0.0212634
0.0219041
0.0223831
0.0226677
0.0229392
0.0231085
0.0232276
0.0213163
0.0180385
0.0173068
0.0156163
0.0147756
0.01816
0.0188454
0.0183825
0.0178244
0.0194857
0.0201871
0.0204463
0.0204506
0.0203857
0.0202938
0.0203065
0.0204119
0.0201173
0.020002
0.0201097
0.020325
0.0202744
0.020043
0.0194658
0.0187008
0.0176155
0.0194515
0.0211055
0.0208431
0.0170187
0.0175563
0.0183415
0.017887
0.0205828
0.0224566
0.0229744
0.0229669
0.0226968
0.0222492
0.0217167
0.0210771
0.0207982
0.0213629
0.0219351
0.0219747
0.022086
0.0220505
0.0214825
0.0213159
0.0207364
0.0204625
0.0196928
0.0191063
0.0183515
0.0205086
0.0237113
0.025916
0.0274894
0.0293737
0.0279104
0.024385
0.0221085
0.0152438
0.0152514
0.0154707
0.0148521
0.0144845
0.0143097
0.0187489
0.0214855
0.0241789
0.0259137
0.0234858
0.0234577
0.0233758
0.0232599
0.0231471
0.0230461
0.0228367
0.0235459
0.0410478
0.28283
0.209148
0.235046
0.224289
0.315428
0.0794091
0.0389673
0.0434511
0.0508881
0.0588542
0.0572758
0.053204
0.0463557
0.0416639
0.0412628
0.0404575
0.0402245
0.0385652
0.0385449
0.0376507
0.0453983
0.0963102
0.124473
0.137956
0.146342
0.155177
0.150581
0.159453
0.151271
0.151693
0.153243
0.157956
0.150576
0.143257
0.13946
0.135182
0.117911
0.118251
0.0998378
0.103643
0.0865491
0.0911098
0.0950175
0.0943703
0.0931783
0.0929791
0.0932821
0.0941364
0.0979135
0.0932194
0.100052
0.0925942
0.0748378
0.0724968
0.074822
0.0689292
0.06012
0.068545
0.08463
0.101424
0.1188
0.100625
0.124608
0.11692
0.116201
0.110234
0.103619
0.0997599
0.0989607
0.0995365
0.100638
0.103265
0.105187
0.106776
0.109669
0.118219
0.120569
0.119177
0.101682
0.0863398
0.0947992
0.0996306
0.103294
0.103548
0.0988026
0.0967067
0.0906419
0.0890897
0.0836374
0.0810328
0.0756312
0.0723022
0.0675151
0.0840336
0.082143
0.0891225
0.0953956
0.0995938
0.103241
0.104811
0.106091
0.104893
0.102509
0.0974883
0.0953525
0.0905282
0.109034
0.127456
0.130188
0.125538
0.112052
0.106422
0.339807
0.412182
0.413523
0.613957
0.655941
0.848356
0.33637
0.1799
0.192494
0.189184
0.181013
0.177862
0.177708
0.189558
0.198735
0.189769
0.201729
0.180012
0.178962
0.173218
0.202534
0.200257
0.180537
0.158106
0.125985
0.103708
0.104177
0.0868997
0.0877161
0.0751318
0.0750717
0.0758143
0.092775
0.171925
0.21011
0.23667
0.262969
0.323424
0.292992
0.442512
0.354118
0.439462
0.303086
0.327748
0.313432
0.304653
0.302696
0.318807
0.341766
0.300407
0.373865
0.299407
0.64827
0.785292
0.496657
0.459453
0.407405
0.393279
0.383431
0.377935
0.369981
0.487777
0.45243
0.555815
0.516848
0.648471
0.570168
0.580595
0.547674
0.587435
0.608751
0.622252
0.499009
0.547585
0.427716
0.463229
0.384477
0.419629
0.294256
0.292985
0.335237
0.371981
0.397886
0.454799
0.714724
0.606577
0.817979
0.585509
0.707399
0.491138
0.538305
0.513998
0.49638
0.498103
0.526241
0.630615
0.609807
0.696989
0.514715
0.526982
0.516715
0.534054
0.523491
0.558415
0.563101
0.564282
0.562264
0.523427
0.534016
0.532194
0.531975
0.531994
0.532343
0.509587
0.512771
0.505229
0.51101
0.526913
0.51459
0.514504
0.51237
0.504798
0.502743
0.502258
0.504018
0.503786
0.508921
0.50879
0.509131
0.512189
0.526892
0.514438
1.82777
0.905998
0.431976
0.341223
0.220862
0.135476
0.055977
0.0604581
0.063415
0.0643683
0.0623482
0.0569973
0.0488649
0.0389107
0.031143
0.0303015
0.0269954
0.0264905
0.0343037
0.0419898
0.0383963
0.046229
0.0539487
0.062271
0.0702491
0.0772021
0.0830889
0.0860521
0.0830455
0.0703522
0.0526985
0.0353228
0.0250754
0.0226745
0.0210288
0.0190284
0.0169175
0.0152667
0.0142577
0.013081
0.0124451
0.0123539
0.0125694
0.0128076
0.0132444
0.0147577
0.0160561
0.0172391
0.0181986
0.0184429
0.0179332
0.0184739
0.0190668
0.0194584
0.0197986
0.0196312
0.0196278
0.0198736
0.0198336
0.020037
0.019937
0.0199388
0.0197971
0.019622
0.0193953
0.0189573
0.0186795
0.0181195
0.0177732
0.0169425
0.0169778
0.0173782
0.0177049
0.0167078
0.0166536
0.0159024
0.0267078
0.0478162
0.0610716
0.0661158
0.0714138
0.0673918
0.0569914
0.0389769
0.0191356
0.0187766
0.0192538
0.0217514
0.021271
0.0173978
0.0181883
0.0187519
0.017546
0.0174573
0.0174887
0.0195231
0.0201185
0.0214921
0.0219887
0.0223785
0.0226005
0.022572
0.0226687
0.0224015
0.0224033
0.0220252
0.0220083
0.021692
0.021459
0.0217502
0.0224501
0.0225226
0.0231589
0.0228559
0.0225505
0.0219861
0.0215715
0.0207174
0.0197859
0.0187712
0.0172296
0.016783
0.0172978
0.0177972
0.0173368
0.0187546
0.0200419
0.0197223
0.0243569
0.0226426
0.0202024
0.0226708
0.0184709
0.0186546
0.0181289
0.017044
0.0175946
0.0170956
0.017024
0.0173215
0.0176146
0.018775
0.019743
0.0203886
0.0212583
0.0219094
0.0226275
0.0238353
0.0241433
0.0231692
0.0229907
0.0217947
0.0211091
0.0207881
0.0217225
0.0230243
0.0229268
0.0238078
0.0235511
0.0222972
0.0214812
0.0206214
0.0196351
0.0189685
0.0181828
0.0174402
0.0170196
0.016198
0.0162937
0.0152023
0.0167779
0.0172409
0.0194745
0.0174446
0.0169255
0.0224406
0.0283227
0.0442101
0.0322603
0.0213508
0.0232775
0.0315505
0.0392979
0.0276573
0.0272582
0.0152918
0.0178452
0.0151875
0.0154892
0.0165548
0.0168454
0.0180374
0.019103
0.0193416
0.0200942
0.0204403
0.0212128
0.0214721
0.0222116
0.0224069
0.0236906
0.0237616
0.0238336
0.0238136
0.0230235
0.0229514
0.0229781
0.0234289
0.023206
0.0238917
0.023917
0.0239969
0.0239241
0.022572
0.0222462
0.0214713
0.0209533
0.0200458
0.0194915
0.0187709
0.0183835
0.0177415
0.0180607
0.0187848
0.0189809
0.0199228
0.0199423
0.0206883
0.0208973
0.0213664
0.0215008
0.0221699
0.0223109
0.0225807
0.0226378
0.023859
0.0239758
0.024017
0.0239824
0.0239953
0.0242241
0.0242242
0.0241662
0.0241536
0.0240763
0.0239191
0.0237615
0.0248274
0.0254992
0.025027
0.0247856
0.0250521
0.0259115
0.0264641
0.0275637
0.0284211
0.0295026
0.0303968
0.0312257
0.0319004
0.0323796
0.0324969
0.0325302
0.0320726
0.0316951
0.0333841
0.0398896
0.0431179
0.0483922
0.0507695
0.052732
0.053432
0.052283
0.0530095
0.0517398
0.0520021
0.0508189
0.0503937
0.0495834
0.0485849
0.0478722
0.0464117
0.0456844
0.0502994
0.0569517
0.0570751
0.049985
0.0470557
0.0428657
0.0374555
0.0392557
0.0458376
0.0412634
0.038713
0.035962
0.0310147
0.0239231
0.0178336
0.0254997
0.0332714
0.0405434
0.0473533
0.0533646
0.0572545
0.0593749
0.0609032
0.0626125
0.0605947
0.0531621
0.0415754
0.0317609
0.0279043
0.0263551
0.0239065
0.0204583
0.0185645
0.0174865
0.0163278
0.0149734
0.0141104
0.0138644
0.0141021
0.0142171
0.0155644
0.0168258
0.0168192
0.0179982
0.0178247
0.0183346
0.0189234
0.0193219
0.019989
0.0199546
0.0189921
0.0193379
0.0196003
0.0202763
0.0201736
0.0203394
0.0201188
0.0193985
0.0188826
0.0182832
0.0177669
0.0173102
0.0167392
0.016027
0.0160142
0.01621
0.0157689
0.0161798
0.0166196
0.0170244
0.0176501
0.0185572
0.0193164
0.0211497
0.0212931
0.0210447
0.0211335
0.0197051
0.0196452
0.0186698
0.0184388
0.0200356
0.0198808
0.0182058
0.0196034
0.0196035
0.0213846
0.0213859
0.0207104
0.0209034
0.0207856
0.018956
0.0180652
0.0169981
0.0162204
0.015633
0.0152327
0.0147651
0.0153828
0.0141871
0.0136124
0.0140653
0.0140426
0.0141105
0.0144999
0.0149297
0.0156739
0.0163778
0.0174225
0.0180605
0.0189586
0.0192921
0.0212033
0.0211148
0.0209888
0.0210205
0.0211605
0.0216131
0.0208203
0.020782
0.0209186
0.0209332
0.0209538
0.020936
0.0190948
0.0188913
0.018056
0.0177385
0.016808
0.0164496
0.0157939
0.0154795
0.0150888
0.0148911
0.0232617
0.0254571
0.0256203
0.039761
0.0199788
0.0199613
0.0343103
0.0173443
0.0230563
0.0236075
0.0246861
0.0259017
0.0225442
0.0307136
0.0212079
0.0233269
0.0240608
0.0252306
0.0128127
0.0194442
0.0369473
0.0423728
0.0437145
0.0486883
0.0554165
0.0586511
0.0617075
0.0637559
0.0660279
0.0684862
0.0708998
0.0726514
0.0728135
0.0691414
0.0660906
0.0566003
0.0527794
0.056529
0.0609647
0.0474633
0.0426639
0.0432124
0.0436843
0.0442202
0.0444313
0.0451219
0.0449286
0.0459294
0.0451948
0.0463035
0.0451566
0.0461866
0.0449404
0.0421935
0.0389582
0.0327301
0.0307422
0.029629
0.0269037
0.0243914
0.0221292
0.020292
0.0198542
0.0182803
0.0168656
0.0165649
0.0152744
0.0155248
0.0167432
0.0198727
0.0168262
0.0176764
0.0260212
0.0191538
0.0180534
0.0186051
0.0191261
0.0193635
0.0182571
0.0198924
0.0221734
0.0221623
0.0222236
0.0222307
0.0214222
0.0212574
0.0209833
0.0210393
0.0210717
0.0211935
0.0211609
0.0193345
0.0192781
0.0190047
0.0188665
0.0180774
0.0179101
0.0173269
0.0169971
0.016157
0.0158634
0.0154137
0.0154675
0.0166023
0.0204282
0.0298672
0.0172895
0.0179375
0.0155297
0.013954
0.0265853
0.024746
0.0285939
0.0267523
0.0393816
0.0264032
0.0231684
0.0241765
0.0296874
0.0296273
0.0325646
0.0423189
0.0329762
0.0281493
0.0728744
0.0529714
0.0331416
0.0460472
0.0580137
0.10872
0.127396
0.055925
0.0564614
0.0621719
0.0630698
0.0629413
0.0533101
0.0491452
0.0412776
0.0317474
0.0128869
0.0248978
0.0321416
0.042603
0.0568742
0.0919916
0.0528681
0.0597127
0.0656917
0.0647706
0.06787
0.0660153
0.064632
0.0655746
0.102719
0.111682
0.107562
0.086088
0.0807785
0.0739318
0.124039
0.139165
0.119993
0.130092
0.135795
0.0812493
0.0302627
0.024925
0.0238063
0.0263815
0.0253298
0.0459903
0.0205729
0.0218081
0.0226386
0.0271448
0.0301718
0.0529145
0.0232421
0.0254521
0.0324047
0.0348879
0.0459807
0.0274405
0.0280982
0.0344356
0.0362298
0.0395469
0.0336443
0.0317442
0.0287054
0.0258994
0.0244019
0.025449
0.0318359
0.0463229
0.0278616
0.0282901
0.0300558
0.133611
0.0307225
0.0266318
0.0276913
0.0266969
0.0336445
0.0350971
0.111161
0.0354458
0.0166918
0.0154524
0.0159272
0.0167379
0.0173756
0.0179932
0.0184384
0.0190787
0.0194733
0.0196261
0.0197943
0.0221753
0.0220774
0.0216106
0.0210667
0.0218608
0.0211663
0.0212155
0.0218326
0.0212988
0.0214438
0.0224982
0.0236745
0.0231874
0.0237546
0.0251052
0.0239412
0.0222347
0.0220296
0.0221511
0.0228584
0.0239977
0.022804
0.0234556
0.0226362
0.0235579
0.0236669
0.020363
0.0199954
0.0197921
0.019288
0.0186146
0.0179903
0.0173181
0.0166671
0.0161617
0.016081
0.0165755
0.015184
0.0155768
0.0179073
0.0393007
0.0323497
0.0264912
0.022198
0.0195506
0.0184073
0.018293
0.0187397
0.0193929
0.0199561
0.0201648
0.0207498
0.0246339
0.0245766
0.0257826
0.0246458
0.0259848
0.0249304
0.0236061
0.0227358
0.0239455
0.0232505
0.0237415
0.0253647
0.0262144
0.0238489
0.0241209
0.021526
0.0201111
0.0184913
0.0188336
0.0202872
0.0209637
0.0234063
0.0234855
0.0269286
0.0269057
0.026755
0.0255123
0.0248361
0.026285
0.024795
0.0259452
0.0248319
0.0262361
0.0274196
0.0277635
0.0270577
0.0262016
0.0253258
0.0210484
0.0202598
0.0199534
0.0194591
0.0191959
0.0201029
0.0243238
0.0334751
0.0455305
0.057636
0.0670738
0.0666014
0.0600183
0.0406026
0.0416876
0.0386347
0.0421594
0.0599405
0.0856023
0.0599491
0.11418
0.088494
0.0525202
0.0628345
0.0748324
0.0839969
0.0899
0.0908281
0.0772694
0.0568306
0.0498886
0.052327
0.0847278
0.0834511
0.0824982
0.0780413
0.0825381
0.0804219
0.0777497
0.076187
0.0744092
0.0701543
0.0701336
0.0674442
0.0674123
0.0602648
0.0614502
0.0616844
0.0591101
0.0563613
0.0540739
0.051883
0.0495587
0.0456623
0.0443817
0.0419024
0.0401579
0.0367965
0.0362601
0.0357762
0.033601
0.0320477
0.0307936
0.0295316
0.0278273
0.0279879
0.0263947
0.0262374
0.0213777
0.0209988
0.0199832
0.019648
0.0193952
0.0195836
0.0208077
0.0234603
0.0435096
0.0330801
0.0329525
0.0335188
0.0337212
0.0396398
0.046424
0.0706574
0.0653765
0.0719487
0.0615114
0.0639623
0.0631712
0.0627898
0.065514
0.0691058
0.0744501
0.0869424
0.333713
0.513807
0.253358
0.237304
0.246907
0.251783
0.259194
0.339317
0.360222
0.356212
0.360724
0.330593
0.318386
0.196637
0.226046
0.238118
0.236993
0.223853
0.202138
0.392703
0.522659
0.518789
0.523657
0.52377
0.518766
0.522603
0.502912
0.514274
0.501758
0.515028
0.502299
0.521672
0.518933
0.504364
0.501137
0.501156
0.500916
0.501379
0.501556
0.504894
0.506055
0.506107
0.505102
0.504114
0.514524
0.436534
0.122143
0.084878
0.140972
0.195879
0.160293
0.232343
0.26718
0.192539
0.109375
0.0891117
0.100521
0.12379
0.125344
0.152383
0.199583
0.186943
0.152567
0.153574
0.153967
0.199102
0.190808
0.217118
0.259469
0.252869
0.18818
0.149742
0.148722
0.226824
0.241844
0.237099
0.122441
0.0438419
0.0217822
0.0226762
0.0326589
0.0165085
0.0168249
0.0220399
0.057513
0.096167
0.0495856
0.135655
0.137648
0.181985
0.147411
0.178374
0.115476
0.118892
0.0676255
0.0796479
0.0896082
0.0953785
0.0996702
0.0936632
0.216316
0.319195
0.190373
0.56086
0.537981
0.196045
0.217219
0.576051
0.513012
0.503523
0.501784
0.501698
0.501859
0.501816
0.500969
0.500915
0.500728
0.500765
0.500716
0.501163
0.504767
0.520397
0.51461
0.50524
0.501385
0.500824
0.500799
0.50069
0.50073
0.50075
0.500807
0.501017
0.501049
0.50115
0.50167
0.503942
0.51203
0.435823
0.170048
0.182474
0.406255
0.362
0.511504
0.504623
0.501369
0.500942
0.500855
0.500829
0.500794
0.500969
0.50089
0.501397
0.501231
0.501287
0.502777
0.508259
0.506398
0.443418
0.369632
0.417388
0.33021
0.506674
0.507778
0.503277
0.502899
0.503246
0.503414
0.501514
0.501527
0.500992
0.50106
0.500893
0.50134
0.504756
0.511016
0.34615
0.171018
0.177934
0.258293
0.0879823
0.0909058
0.0928284
0.0949102
0.247186
0.441463
0.55559
0.471268
0.475398
0.542271
0.385702
0.364482
0.294161
0.317824
0.402157
0.34748
0.313012
0.250505
0.288824
0.247986
0.303794
0.218136
0.234426
0.221971
0.283325
0.287218
0.28758
0.226978
0.216809
0.271911
0.286203
0.31723
0.219017
0.259286
0.203513
0.19258
0.08721
0.0893805
0.0812505
0.0712841
0.0710485
0.0792024
0.0776461
0.0838453
0.0808412
0.0845528
0.0816803
0.0796491
0.072831
0.0748609
0.0686302
0.0712831
0.130409
0.166636
0.15052
0.151948
0.179717
0.131138
0.157535
0.153564
0.197699
0.248132
0.226558
0.29136
0.225064
0.275706
0.405791
0.754484
0.437934
0.24437
0.318257
0.340411
0.288918
0.189753
0.449845
0.538917
0.298305
0.360618
1.19693
1.04424
1.78187
0.992773
1.11901
0.670876
0.597911
1.02886
0.653837
0.666209
0.559743
0.573588
0.499199
0.324366
0.323806
0.305675
0.241924
0.280585
0.271293
0.266919
0.296478
0.261548
0.316573
0.352393
0.397061
0.322747
0.285498
0.366775
0.215662
0.290585
0.346196
0.315549
0.259661
0.337776
0.449725
0.420753
0.362024
0.398937
0.509273
0.56304
0.531919
0.451217
0.512172
1.00617
0.962596
0.930696
0.590369
1.93404
1.71818
0.35242
0.137213
0.0955723
0.036168
0.0224211
0.0182634
0.0178716
0.0488091
0.0195388
0.0235166
0.0211634
0.0299455
0.027282
0.0315346
0.0552937
0.0375298
0.0526737
0.0390902
0.0519194
0.0413334
0.056821
0.0610192
0.0642457
0.0519535
0.0409601
0.0619001
0.0826222
0.0386562
0.0994951
0.105138
0.0679113
0.0826032
0.101988
0.0527774
0.164658
0.05712
0.0567404
0.0674534
0.126529
0.251153
0.0853037
0.111919
0.585258
1.52996
0.509779
0.201078
0.163911
0.0413534
0.0358889
0.0292002
0.0355011
0.0313187
0.0626795