/*--------------------------------*- C++ -*----------------------------------*\
| =========                 |                                                 |
| \\      /  F ield         | OpenFOAM: The Open Source CFD Toolbox           |
|  \\    /   O peration     | Version:  v2012                                 |
|   \\  /    A nd           | Website:  www.openfoam.com                      |
|    \\/     M anipulation  |                                                 |
\*---------------------------------------------------------------------------*/
FoamFile
{
    version     2.0;
    format      ascii;
    class       volScalarField;
    location    "900";
    object      alphat;
}
// * * * * * * * * * * * * * * * * * * * * * * * * * * * * * * * * * * * * * //

dimensions      [1 -1 -1 0 0 0 0];


internalField   nonuniform List<scalar> 
18258
(
0.0048504
0.00211155
0.00173155
0.00150086
0.00099248
0.00162456
0.00225595
0.00268535
0.00281713
0.00279269
0.00289117
0.00487827
0.00684557
0.00845978
0.00888701
0.00887419
0.00805533
0.00769156
0.00835724
0.0102746
0.00863734
0.00553438
0.0066254
0.00766506
0.00835443
0.00740406
0.00598562
0.00554167
0.00501827
0.00418434
0.0035112
0.00240407
0.0017545
0.00162544
0.00147413
0.00168086
0.00183118
0.00195341
0.0019969
0.00202832
0.00201449
0.00200295
0.00194871
0.00191444
0.00185622
0.00153291
0.00184125
0.00191775
0.00209739
0.00288962
0.00310086
0.00260717
0.00288517
0.00257345
0.00169568
0.00194188
0.00210807
0.00215339
0.00212548
0.00203703
0.00200708
0.00198172
0.00194963
0.00191159
0.00188835
0.00190712
0.00192674
0.00190566
0.00181183
0.00173582
0.00161286
0.00148964
0.00139826
0.00132747
0.00127412
0.00121501
0.0011486
0.00100891
0.000935028
0.00123803
0.00155414
0.00166045
0.00235333
0.00286913
0.00288855
0.00216213
0.00154074
0.00159894
0.00177778
0.00179601
0.00152235
0.0018106
0.00205135
0.00212628
0.00221586
0.00247645
0.00281792
0.00274656
0.00244596
0.00225333
0.00221922
0.00254024
0.00241253
0.00312854
0.00315339
0.00275286
0.00252866
0.00284593
0.00366973
0.00394975
0.00307289
0.00288575
0.0028287
0.00279299
0.00252563
0.00261341
0.00237294
0.00213808
0.00232904
0.00281545
0.00267077
0.00291765
0.00302306
0.00283582
0.00328565
0.00378845
0.00373318
0.0029874
0.00243493
0.00226972
0.00228704
0.00139876
0.0015105
0.00162808
0.00166794
0.00169574
0.00171943
0.00183343
0.0018293
0.0018025
0.00179853
0.00183062
0.00100869
0.00109275
0.00111988
0.00112771
0.00107115
0.00106017
0.00104045
0.00102439
0.000965717
0.000924009
0.00110568
0.00124161
0.00135243
0.00148197
0.00167544
0.0019122
0.00216105
0.00241256
0.00257903
0.00262665
0.00267472
0.00257807
0.00248066
0.00256937
0.00258442
0.00256785
0.00253346
0.00249003
0.00243136
0.00232374
0.00244906
0.00244257
0.00229481
0.00196612
0.00201045
0.00200714
0.0020595
0.00204877
0.00206926
0.00203957
0.00200464
0.00190765
0.00177225
0.00147516
0.00144625
0.00146375
0.00187855
0.00227982
0.00352064
0.00429238
0.00497998
0.00532614
0.00569724
0.00461352
0.00513633
0.00396232
0.00355672
0.00451934
0.0059111
0.00337304
0.00184371
0.00349608
0.00310342
0.00225371
0.00200608
0.00206748
0.00206533
0.00236348
0.00272663
0.00303013
0.00317748
0.00330666
0.00341016
0.00352352
0.00366725
0.00370616
0.00357997
0.00302904
0.0036525
0.00296745
0.00346607
0.00313494
0.00212211
0.00219491
0.00234352
0.00215099
0.00209453
0.00200277
0.00180787
0.00224494
0.00290679
0.00337283
0.00385611
0.00514096
0.0047563
0.00456319
0.00353281
0.00341639
0.00177346
0.00253008
0.00262137
0.002953
0.00196206
0.0017915
0.00170088
0.00224413
0.00260056
0.00306987
0.0034068
0.00404639
0.00313884
0.00358441
0.00324427
0.00226379
0.00217526
0.00311267
0.00335243
0.00275729
0.00246121
0.00308887
0.00292451
0.00207559
0.00165198
0.00253995
0.00262747
0.00188997
0.00472567
0.00504512
0.0048108
0.0058562
0.0073289
0.00835041
0.00778991
0.0069043
0.00769638
0.00610839
0.00593036
0.00633557
0.00531462
0.00370494
0.00379824
0.00392706
0.0040326
0.00432936
0.00459934
0.00492937
0.00524384
0.00476671
0.00395767
0.00299461
0.00206012
0.00203271
0.00202276
0.00181633
0.00269171
0.0040713
0.00404307
0.00229692
0.00133914
0.00151509
0.00171102
0.00169432
0.00122908
0.000925254
0.00159397
0.00182258
0.00185202
0.00180604
0.0017052
0.00178184
0.00286146
0.00440825
0.00484379
0.00501683
0.00518051
0.00529606
0.00536023
0.00538038
0.00539146
0.00540512
0.00541715
0.00543565
0.00541876
0.00530337
0.00466479
0.00293299
0.0017145
0.00159267
0.00175774
0.0018891
0.00200379
0.001705
0.00104249
0.00166509
0.00213209
0.00245059
0.00247147
0.00230655
0.00223748
0.00352807
0.00469093
0.00552939
0.00569921
0.00577479
0.00571137
0.0057031
0.00557863
0.00553996
0.00485826
0.00347643
0.00380116
0.00408165
0.00412887
0.00422467
0.00436848
0.00426772
0.00403193
0.00588995
0.00679673
0.00688377
0.00702958
0.00694557
0.00682497
0.00651451
0.00615994
0.00518548
0.00388853
0.00245345
0.00250444
0.00266584
0.00264003
0.00229781
0.00242139
0.00262827
0.00265464
0.00274152
0.00307489
0.00349267
0.00333141
0.00286647
0.00243488
0.00226711
0.00221965
0.00212965
0.00159527
0.00161908
0.00157376
0.00159968
0.00214855
0.00255711
0.00294919
0.00418365
0.00373189
0.00303484
0.00481439
0.00493347
0.00530133
0.00585607
0.006001
0.00664989
0.00462659
0.00416891
0.00428261
0.00349819
0.00323779
0.0032722
0.00328449
0.00306073
0.00335023
0.00332092
0.00320099
0.00353412
0.00389486
0.00513617
0.00622421
0.00656773
0.00676655
0.00684849
0.0068238
0.00669173
0.00673417
0.00591569
0.00591072
0.00566051
0.00549744
0.00543921
0.00516897
0.00591538
0.00614157
0.00621721
0.0063726
0.00661448
0.0064347
0.00623456
0.00608217
0.00597161
0.0058559
0.0059179
0.00602829
0.00614597
0.00631105
0.00653144
0.00656741
0.00633919
0.00616657
0.00604833
0.00593719
0.0059416
0.00604068
0.0061561
0.00631965
0.0065283
0.00641211
0.00624998
0.00610542
0.00598676
0.0058822
0.00567633
0.00581356
0.00596442
0.0060887
0.00616917
0.00532991
0.00569728
0.00559918
0.00506919
0.00474431
0.00360283
0.00389907
0.00411177
0.00447846
0.00497115
0.00506796
0.00425263
0.00364428
0.00355097
0.00352225
0.00360505
0.00363498
0.0036528
0.00412765
0.00622274
0.00626489
0.00628286
0.00628577
0.00537386
0.00522122
0.00486382
0.00889873
0.00828471
0.00717734
0.00591409
0.00316801
0.0027155
0.00321681
0.00391196
0.00437368
0.00482632
0.00320435
0.00198468
0.00231303
0.00239776
0.00233841
0.002161
0.00180001
0.00166161
0.00150805
0.00162309
0.00287501
0.00458831
0.00516827
0.0052231
0.00517122
0.00507039
0.0049476
0.00477649
0.00471914
0.00595985
0.00807978
0.0090951
0.00905552
0.00777937
0.00634755
0.00358457
0.00185352
0.00137506
0.00146032
0.00160557
0.00188284
0.00167445
0.00142837
0.00156361
0.00147509
0.00298313
0.00513861
0.00652823
0.00775369
0.00763696
0.00664643
0.00541968
0.00512859
0.00524872
0.0053302
0.0053993
0.00547012
0.0055187
0.00548802
0.00499526
0.00308597
0.00184194
0.00163629
0.00175921
0.00206187
0.00219139
0.00221429
0.00218387
0.00189331
0.00313158
0.00497209
0.00316232
0.00172533
0.00186404
0.00185018
0.00326398
0.00325913
0.00318899
0.00496126
0.0052462
0.00523405
0.00491804
0.00469447
0.0027796
0.00315555
0.0031664
0.00318313
0.00323533
0.00163448
0.00178182
0.00183756
0.00197873
0.00172912
0.0021949
0.000568048
0.000787725
0.000915146
0.000995168
0.00107221
0.00105179
0.00201252
0.00204251
0.00194915
0.00189827
0.00240861
0.0025843
0.00264106
0.00243217
0.0022441
0.002389
0.00239447
0.00225688
0.0021376
0.00221606
0.00221744
0.00212489
0.00180733
0.00169357
0.00185928
0.0018394
0.00182487
0.00327677
0.00327084
0.00309555
0.00508537
0.00500406
0.0056043
0.00556755
0.0055602
0.00553701
0.00559635
0.00562803
0.00565222
0.0056801
0.00566919
0.00561455
0.00781472
0.00552279
0.00481935
0.00278741
0.00268512
0.00189637
0.00166198
0.00195699
0.00209308
0.00226921
0.00221792
0.00233806
0.00233521
0.00247792
0.00229992
0.00204215
0.00312768
0.00334125
0.00326328
0.00332778
0.00324945
0.00323029
0.00320661
0.00316119
0.00310639
0.00184969
0.00181446
0.00212473
0.00223038
0.00239658
0.00241824
0.00247073
0.00234319
0.00206073
0.00199472
0.00229733
0.00226632
0.00231046
0.00217833
0.00216925
0.00193244
0.00198141
0.00399569
0.00737728
0.00379646
0.00421718
0.00382071
0.00434555
0.00380639
0.00328271
0.00335984
0.00295924
0.00308686
0.00323798
0.00329653
0.00346472
0.00408401
0.00393181
0.0034513
0.0033511
0.00328514
0.00309756
0.00278818
0.00292066
0.00294683
0.00301007
0.00334531
0.00383812
0.00430226
0.00522914
0.00507429
0.00444469
0.00406382
0.00426225
0.004336
0.00545906
0.00510008
0.00506948
0.00534768
0.00529437
0.0050248
0.00476097
0.00459546
0.00394505
0.00400976
0.00458886
0.00444059
0.00457664
0.00449661
0.00467522
0.00476039
0.00456874
0.00424579
0.00446439
0.00445522
0.00494763
0.00481122
0.00446322
0.00408211
0.00436475
0.00431231
0.00498138
0.00468829
0.00438455
0.00403662
0.00386702
0.00438899
0.00430835
0.00488514
0.00502722
0.00502961
0.00438488
0.00428222
0.00509293
0.00489928
0.00473342
0.0049307
0.00408345
0.00419896
0.00517308
0.00528125
0.00501114
0.00418393
0.00424684
0.00364042
0.00428238
0.00533061
0.00503499
0.0041268
0.00342426
0.00479091
0.00503973
0.0053316
0.00503853
0.00548687
0.00591031
0.00481765
0.00524103
0.0068484
0.00522734
0.00606596
0.00620032
0.0062368
0.00623999
0.00626411
0.0062954
0.00663242
0.00645165
0.00410284
0.0049056
0.00476554
0.00398738
0.00339236
0.00373646
0.00402444
0.00408285
0.00418657
0.00434596
0.00427117
0.0041298
0.00604461
0.00689265
0.00704624
0.00718544
0.00706528
0.00688573
0.00647944
0.00598711
0.00497825
0.00371498
0.00232105
0.00236743
0.00252442
0.00250219
0.00217239
0.00163848
0.00107622
0.00159413
0.00164578
0.00154903
0.00141174
0.00124684
0.00129049
0.00235198
0.00438511
0.00624024
0.00695446
0.00754413
0.00812566
0.00863203
0.00901353
0.00929796
0.00949936
0.00962923
0.00965866
0.00948253
0.00866457
0.0082862
0.00781346
0.00742326
0.00687414
0.00643009
0.00727221
0.00798297
0.00841698
0.00890535
0.00912835
0.00902926
0.00783641
0.00761577
0.00878329
0.0108178
0.00920562
0.0115649
0.0135758
0.010578
0.00949688
0.00947632
0.0105929
0.0107987
0.0104234
0.00983571
0.00916045
0.00830139
0.00874175
0.00913733
0.00951462
0.00986222
0.0107577
0.0109119
0.0108251
0.010641
0.0104073
0.0101033
0.00964493
0.00900574
0.00820315
0.00736367
0.0064085
0.00444215
0.00219206
0.00246971
0.00243476
0.00253935
0.00251553
0.00118735
0.00130886
0.0013226
0.00132809
0.00125044
0.00142099
0.00205744
0.00330603
0.00238003
0.00195817
0.00136388
0.00160269
0.00267106
0.00452371
0.00509317
0.00519923
0.00576509
0.00736821
0.00801
0.00844496
0.0088085
0.0090159
0.00890982
0.00864157
0.00816252
0.00756955
0.00732094
0.00691558
0.00654198
0.00632995
0.00611362
0.00573588
0.00451686
0.00432369
0.00450174
0.00444832
0.00425808
0.00454807
0.00471096
0.00470583
0.00475717
0.0048021
0.00494311
0.00510919
0.00525366
0.00532916
0.00535683
0.00536521
0.00537578
0.00538415
0.00540037
0.00538195
0.00526408
0.00462241
0.00289113
0.00168801
0.00156081
0.00171133
0.00180975
0.00185189
0.00164462
0.00105869
0.00164537
0.00212958
0.00218408
0.00239589
0.0024712
0.00261853
0.00291613
0.00336977
0.00347718
0.00308579
0.0029233
0.00286149
0.0027887
0.00238932
0.00297693
0.00327998
0.00327319
0.00324155
0.00350305
0.00431075
0.00414114
0.00365206
0.00361197
0.00357599
0.00323679
0.00318699
0.00347932
0.00351735
0.00364829
0.00427767
0.00512972
0.00475911
0.00433473
0.00415589
0.00383818
0.0033795
0.00305585
0.00375647
0.00307868
0.00162682
0.00138577
0.00137999
0.00138667
0.00133904
0.0015845
0.00166421
0.00168283
0.00156131
0.00173374
0.00193048
0.00186862
0.00212343
0.00209361
0.0018719
0.00185659
0.00200678
0.00211714
0.00217396
0.00223735
0.00365225
0.00376758
0.00291695
0.0042089
0.00486136
0.00482858
0.00511546
0.00421046
0.00376807
0.0044714
0.00517152
0.00593857
0.00469602
0.00443627
0.00454397
0.00209011
0.00109972
0.00155151
0.00192564
0.00214404
0.00207861
0.00196325
0.00165949
0.00293936
0.00302048
0.00478153
0.00536373
0.0054289
0.00539785
0.00558632
0.00618706
0.00723056
0.00791569
0.00811461
0.00799374
0.00766322
0.0070511
0.00644636
0.00638443
0.00615128
0.00597117
0.00591002
0.00513826
0.00453271
0.00484021
0.00476377
0.00492256
0.00499576
0.0050484
0.00510217
0.00519286
0.00530233
0.00540142
0.0054686
0.005513
0.00555046
0.0055891
0.00562817
0.00567058
0.00569306
0.00563843
0.00509557
0.00305837
0.00182431
0.00166467
0.00177621
0.00208747
0.00219775
0.00236211
0.002098
0.00110524
0.00129915
0.00225814
0.00250255
0.00231504
0.00216676
0.00212832
0.00178296
0.00322729
0.00318451
0.00499405
0.00561606
0.00569443
0.00567878
0.00563505
0.005586
0.00554078
0.00550386
0.00547481
0.00544373
0.00539846
0.00534309
0.00529047
0.00523718
0.00514582
0.0050127
0.00488034
0.00508657
0.00523177
0.00543845
0.00568767
0.00582724
0.00572833
0.00556107
0.00547124
0.00549184
0.00553654
0.00558433
0.00562742
0.00564782
0.00558624
0.00526617
0.00494375
0.00313389
0.00317447
0.00156431
0.00173794
0.00200528
0.00207096
0.00224971
0.00224007
0.0017622
0.00137264
0.00154792
0.00144613
0.00258223
0.00283903
0.00314734
0.00311596
0.00169404
0.00173715
0.0018054
0.00203753
0.00189471
0.00183028
0.00449651
0.00431328
0.00451765
0.00554356
0.00477662
0.00330124
0.00361921
0.0050351
0.00530829
0.00321127
0.00240843
0.00267184
0.00338491
0.00498178
0.00504255
0.00478897
0.00476337
0.00348164
0.00427859
0.0051434
0.00500231
0.00390595
0.00269186
0.00200302
0.000975807
0.00185639
0.00158778
0.00388447
0.00429764
0.00424559
0.00464258
0.00493325
0.00498406
0.0048422
0.00429687
0.00438182
0.00442476
0.00503962
0.005061
0.00428761
0.00361919
0.00294193
0.00296755
0.00302438
0.00335106
0.00419593
0.00395347
0.00346547
0.00336099
0.00328911
0.00309455
0.00279295
0.00245057
0.00246727
0.00229636
0.00222232
0.00350289
0.00466251
0.00549803
0.00565636
0.00571398
0.00562678
0.00558752
0.00542831
0.0053462
0.00464491
0.00592952
0.00626681
0.00604682
0.00609102
0.0061285
0.00617458
0.00617476
0.00605815
0.00520681
0.00310998
0.00203166
0.00229325
0.00247536
0.00232467
0.00231138
0.00246325
0.00233716
0.00205286
0.00332581
0.00325045
0.00519641
0.00588374
0.00601019
0.00601805
0.00599408
0.00597417
0.00598185
0.0062967
0.00615292
0.00623561
0.00656997
0.00658258
0.00666161
0.00625405
0.00617419
0.00612318
0.00608907
0.00603364
0.00588555
0.00520842
0.00504935
0.00573401
0.0059107
0.00598924
0.00604393
0.0061094
0.00619543
0.00644214
0.00662567
0.00669312
0.006417
0.00631715
0.0061704
0.00596144
0.00591246
0.00590262
0.00589831
0.00586978
0.00571745
0.0050336
0.003237
0.00331699
0.00197341
0.00198642
0.00228802
0.00240337
0.0023607
0.0021862
0.00213161
0.0036586
0.0041646
0.00443168
0.00477197
0.00455732
0.0045308
0.00517957
0.00501288
0.00447292
0.00465263
0.00417057
0.00397578
0.00384126
0.00386098
0.00203778
0.0021988
0.0022933
0.00225504
0.00215632
0.00192315
0.00176355
0.003218
0.00319448
0.00315249
0.00187532
0.00183433
0.00216115
0.00209894
0.00192022
0.0016368
0.00179421
0.00276901
0.00309689
0.00480099
0.00497279
0.00532375
0.00569296
0.00583267
0.00587009
0.00589216
0.00591783
0.00597317
0.00603958
0.00605885
0.0060587
0.00611751
0.00610891
0.00610895
0.00607498
0.0060365
0.00599212
0.00594509
0.0058686
0.00571195
0.0053374
0.00497029
0.0056039
0.00565573
0.0057616
0.00587141
0.00591907
0.005928
0.00590865
0.00586821
0.00582022
0.00576353
0.00576127
0.00591348
0.00594864
0.0059747
0.00595528
0.00593515
0.00592927
0.00590513
0.00586455
0.00575685
0.00564828
0.00560143
0.00550775
0.0056553
0.00572078
0.00573086
0.00578616
0.0058743
0.005897
0.00589324
0.00584856
0.00581237
0.00576793
0.005695
0.00560082
0.00528081
0.00534945
0.00543744
0.0055523
0.00566345
0.00575314
0.00580295
0.00580481
0.00575021
0.00571352
0.00571434
0.00566584
0.00569137
0.00571787
0.00568994
0.00568817
0.00569465
0.00563274
0.00551758
0.0053565
0.0051856
0.00504336
0.00496905
0.00484784
0.00522468
0.00536781
0.0054953
0.00560871
0.00571286
0.00581953
0.00585593
0.00584819
0.00578349
0.00574663
0.0057448
0.00568921
0.00568707
0.00574085
0.0057433
0.00577419
0.00583103
0.00581089
0.00572974
0.00553036
0.00533815
0.00517248
0.00501523
0.00484617
0.00479632
0.00487464
0.00481276
0.00488405
0.00505526
0.00526785
0.0054504
0.00556486
0.00559939
0.00563201
0.00568159
0.00567485
0.00564489
0.00562979
0.00556268
0.00550478
0.00543317
0.00527329
0.00506702
0.00488324
0.00482178
0.00491809
0.00501725
0.00492612
0.00457849
0.00475848
0.00492456
0.0050909
0.00532954
0.0056071
0.0057331
0.00577815
0.00575177
0.0057309
0.00572806
0.00567718
0.00566003
0.00570671
0.00570999
0.00573086
0.00576585
0.00572415
0.00561828
0.00527612
0.00487687
0.00468735
0.00457757
0.00442015
0.00495015
0.00505376
0.00492737
0.00484285
0.00497429
0.00512905
0.00528996
0.00539627
0.00543708
0.00549419
0.00556967
0.00560493
0.00555034
0.00548818
0.00541071
0.00537085
0.00536956
0.00534019
0.00523515
0.00511459
0.00497875
0.00514779
0.00524813
0.00515328
0.0046603
0.00473695
0.00484133
0.00489558
0.00526817
0.00560716
0.00569493
0.00570691
0.00567493
0.00565446
0.0056565
0.00562743
0.00557282
0.00556174
0.00555415
0.00561536
0.0056948
0.00572905
0.00574309
0.00548761
0.00504703
0.00499012
0.00479363
0.00469735
0.00522225
0.00528364
0.00516102
0.00504752
0.00528634
0.00538918
0.00542008
0.00540108
0.00534605
0.00530866
0.00537547
0.00548068
0.00539956
0.00505113
0.00474034
0.00490015
0.00493808
0.00492385
0.00485586
0.00474467
0.00450649
0.00503224
0.00554683
0.00558886
0.0050345
0.00504257
0.00487411
0.00451934
0.00494565
0.0051836
0.00524083
0.00523037
0.00515798
0.00496716
0.00525046
0.00549853
0.00545233
0.00493382
0.00320167
0.00324657
0.00327135
0.00327577
0.00323298
0.0032214
0.00317486
0.00315119
0.00307875
0.00300553
0.00293486
0.00313062
0.00329759
0.00352221
0.00354069
0.00363351
0.00348121
0.00329839
0.00308262
0.00239812
0.00304346
0.00363162
0.00385775
0.00414883
0.00420949
0.0048528
0.00510534
0.00524407
0.00514634
0.00412796
0.00350211
0.00279879
0.00182012
0.00113411
0.00133164
0.00138549
0.0014624
0.0017966
0.0032924
0.00168379
0.00233204
0.00182196
0.0031365
0.00166795
0.00103944
0.000689726
0.000883163
0.00105179
0.00106386
0.00101824
0.000848114
0.000665752
0.000680411
0.000633592
0.000672917
0.000603223
0.000690464
0.000642073
0.000884353
0.00129463
0.00150447
0.00154161
0.00124779
0.00141083
0.00117895
0.00136184
0.00121729
0.00132757
0.00127392
0.00155825
0.00170782
0.00163456
0.00163844
0.0014338
0.00100288
0.00116265
0.000913649
0.00109734
0.000839941
0.00108439
0.000930126
0.00120873
0.00124604
0.00124244
0.0011962
0.000913781
0.00108302
0.000853078
0.00105315
0.00086737
0.000930585
0.000775327
0.00112853
0.0011501
0.00105901
0.00113034
0.00127102
0.00136227
0.00149379
0.0014067
0.00159628
0.00153536
0.00154737
0.00146624
0.00142658
0.00139436
0.0013976
0.00137464
0.00138194
0.0014261
0.00142764
0.0014327
0.00147695
0.00145504
0.00141884
0.00139666
0.001241
0.00100212
0.00174595
0.00180041
0.00182835
0.00182865
0.00178896
0.00176744
0.00170349
0.00168687
0.00163231
0.00160191
0.00152942
0.00147176
0.00140465
0.00157904
0.000884275
0.00100417
0.00106001
0.00109212
0.00111366
0.00112386
0.00113137
0.00112477
0.00111037
0.00108359
0.00107524
0.0010458
0.00133732
0.0015213
0.00159169
0.00161134
0.00151056
0.00143924
0.00315989
0.00382706
0.00580611
0.00593271
0.00445964
0.00444291
0.00153337
0.00162272
0.00110894
0.00155848
0.00160742
0.00159122
0.00150305
0.00108406
0.00162686
0.00113464
0.00152521
0.00114954
0.00141249
0.001184
0.00169634
0.00216712
0.0020954
0.00189991
0.00131411
0.00109684
0.00110648
0.000944549
0.0010355
0.000840781
0.00102199
0.000853533
0.00124334
0.00173421
0.0019466
0.00198741
0.00156812
0.002165
0.00162826
0.00236027
0.00187783
0.00231997
0.0018636
0.00215492
0.00266687
0.00267944
0.00261602
0.00210857
0.00168793
0.00189527
0.00167845
0.00193418
0.00279822
0.00183375
0.00278986
0.00115207
0.00157103
0.00162005
0.00159847
0.00150767
0.00101586
0.00258401
0.00136769
0.00242625
0.00157081
0.00250927
0.00183305
0.00244388
0.00292257
0.00306297
0.00305608
0.00249467
0.00225749
0.00234859
0.00187774
0.00225586
0.00167101
0.00241897
0.00136071
0.00176041
0.00193574
0.00204055
0.00204625
0.00167807
0.00331944
0.00208616
0.00314963
0.00219296
0.00281136
0.00225387
0.00246326
0.00290994
0.00289142
0.00286653
0.00243057
0.00196845
0.00259919
0.00185222
0.0556496
0.128221
0.0511625
0.129616
0.0585795
0.0831894
0.0819528
0.0821105
0.0824323
0.0619132
0.135176
0.159648
0.166446
0.168457
0.167206
0.27019
0.220351
0.331002
0.214551
0.126422
0.0549281
0.0756476
0.19494
0.321691
0.482755
0.612576
0.41745
0.432139
0.275755
0.271913
0.256071
0.207255
0.127233
0.0638419
0.0109186
0.0119392
0.0170931
0.0227733
0.0178806
0.0109092
0.00215457
0.00222241
0.00227134
0.0023012
0.00229162
0.0022411
0.00227487
0.00214653
0.00201537
0.00224933
0.00245225
0.00270069
0.00315962
0.00348584
0.00313846
0.0034396
0.0036458
0.00381345
0.00395165
0.00415767
0.00438995
0.00459466
0.00460573
0.0042198
0.0035956
0.00292534
0.00246029
0.00233161
0.00218995
0.00193141
0.00176726
0.00165589
0.00160144
0.00157871
0.0016221
0.00177231
0.00190215
0.00194754
0.00190867
0.00187364
0.00184306
0.00164108
0.00191854
0.00263169
0.00265336
0.00454573
0.00523805
0.00534681
0.00535406
0.00474792
0.00303346
0.00304007
0.00305563
0.00311372
0.00312582
0.00313337
0.00312994
0.00311829
0.00310002
0.00306582
0.00304897
0.00299991
0.00295875
0.00285674
0.00286139
0.00289961
0.00292906
0.00288199
0.00289484
0.00283239
0.00364406
0.00488556
0.0055388
0.00579053
0.00600764
0.0058323
0.00806934
0.00688615
0.0048499
0.00479327
0.00473155
0.00561327
0.00565196
0.00509807
0.00511711
0.00466171
0.0029053
0.00288855
0.0028901
0.00308534
0.00314413
0.00325349
0.00328301
0.00331185
0.00332788
0.00332614
0.00332504
0.00329967
0.00327862
0.00320693
0.00318281
0.00317295
0.0017494
0.00190882
0.00197881
0.00199098
0.00201743
0.00200464
0.00199142
0.00196734
0.00195045
0.00191787
0.00187913
0.00182462
0.00171729
0.00156565
0.00172442
0.00293132
0.00293245
0.00479424
0.00540679
0.00544587
0.00606856
0.00576168
0.00545768
0.00586187
0.00528338
0.00524184
0.00473675
0.00293824
0.00297759
0.0017648
0.00174688
0.00204058
0.00198216
0.00211706
0.00217356
0.00218059
0.0022105
0.00224031
0.00227619
0.00233319
0.00235107
0.00231735
0.00231186
0.00217938
0.00188385
0.00190685
0.00224732
0.00235536
0.00218549
0.00214466
0.00212736
0.00207607
0.00203648
0.001998
0.00202442
0.0021799
0.00217935
0.00214282
0.00204093
0.00199012
0.00172819
0.00167243
0.00291929
0.0029436
0.00483495
0.00499603
0.00497013
0.00571317
0.00635874
0.00723686
0.00617121
0.00500976
0.0051707
0.00590182
0.00437138
0.003614
0.00214916
0.00164782
0.00199324
0.00192719
0.00200504
0.00207734
0.00184415
0.00197813
0.00182795
0.00166064
0.00165127
0.00164893
0.00169011
0.00170714
0.0017381
0.00174215
0.00178349
0.00177949
0.00178535
0.0018073
0.00181888
0.00200982
0.00218652
0.00183914
0.00155888
0.00151704
0.00143237
0.00136315
0.00139629
0.00136348
0.00135532
0.00133055
0.00130818
0.00124825
0.00130115
0.00138076
0.0016155
0.00154801
0.00125111
0.00111771
0.000764265
0.000778432
0.000783826
0.000808073
0.000816808
0.000827585
0.000831535
0.000845048
0.000847622
0.000851833
0.000851466
0.00087176
0.000868739
0.000858802
0.000852307
0.000856745
0.000860906
0.00086035
0.00125961
0.00140283
0.00153396
0.00182257
0.00214671
0.00184701
0.00156455
0.0013476
0.000866314
0.000879531
0.00089568
0.000903988
0.000923337
0.000940936
0.000960683
0.000973216
0.000982737
0.000992721
0.00100319
0.00100764
0.00100539
0.000986331
0.000975047
0.00100012
0.00109916
0.00115666
0.00123023
0.00125805
0.0012823
0.00129465
0.00128802
0.00130115
0.00128544
0.00128312
0.00126063
0.00125087
0.00124142
0.00122967
0.00121532
0.00118035
0.00116862
0.00122967
0.00208088
0.00272182
0.00313894
0.00346017
0.00318353
0.00256754
0.00271703
0.00476457
0.00449932
0.0026699
0.00248557
0.00228558
0.00198633
0.00176533
0.00213399
0.00243362
0.00266175
0.00286356
0.00304791
0.00317284
0.00333279
0.00354126
0.00391052
0.00395706
0.00360943
0.00292574
0.00247835
0.00231636
0.00223858
0.00210194
0.00195269
0.00200156
0.002016
0.00195598
0.00188139
0.00186
0.00189052
0.00192883
0.0019055
0.00190473
0.00170155
0.00170102
0.00290639
0.00296264
0.00455688
0.00480097
0.00484705
0.00311679
0.00307392
0.00179556
0.00166748
0.00181905
0.00188818
0.00189201
0.00189953
0.0018896
0.00185643
0.00183215
0.00180388
0.00178108
0.00176117
0.00172673
0.0016613
0.00153453
0.00167288
0.00187585
0.00195795
0.00197877
0.00198858
0.00201977
0.00207123
0.00211251
0.00220803
0.00221817
0.00221735
0.00222526
0.00208026
0.00214547
0.00181589
0.00181342
0.00314281
0.00313458
0.00180087
0.00212643
0.00214064
0.00211558
0.00227747
0.00208416
0.00201806
0.00200691
0.00192207
0.00187691
0.00181676
0.00178106
0.00181655
0.00193326
0.00187305
0.00165987
0.00160212
0.00179602
0.00172608
0.00143183
0.00122307
0.00118912
0.00113809
0.00110714
0.00116028
0.00120169
0.0012253
0.00125529
0.00126419
0.00131932
0.00128377
0.00134741
0.00142887
0.00149363
0.00177179
0.00192005
0.0017346
0.00170136
0.00168024
0.00167811
0.00168333
0.00161413
0.00160957
0.00157379
0.00155618
0.00150943
0.00148837
0.00146165
0.00146666
0.00148245
0.00162997
0.00420155
0.00535406
0.00557501
0.00951219
0.00384701
0.0039297
0.0077012
0.00318681
0.00479157
0.00513554
0.00536895
0.0056072
0.00513112
0.00650785
0.00454852
0.00506136
0.00528747
0.00465856
0.00172501
0.00192572
0.00224168
0.0020201
0.00178526
0.00121759
0.00131413
0.00135779
0.00139307
0.00141623
0.00144158
0.00146887
0.00149436
0.00151231
0.00151268
0.00146689
0.00141744
0.0013038
0.00126593
0.00131499
0.0013657
0.00119984
0.00112982
0.00114328
0.00116225
0.00117296
0.00117534
0.00118706
0.00119028
0.0012087
0.00119903
0.00120841
0.00118784
0.00119853
0.00118265
0.00114217
0.00108551
0.000989072
0.000965368
0.00139038
0.00148051
0.00155543
0.00176481
0.00203768
0.00217429
0.00194886
0.00179716
0.00172511
0.00191378
0.00191361
0.00347268
0.00666744
0.00298725
0.00334798
0.00974069
0.00387586
0.00301838
0.00306414
0.00309639
0.00310062
0.00180198
0.00213425
0.00206932
0.0020773
0.00176169
0.00147897
0.00132662
0.00118621
0.000804294
0.000801593
0.000807647
0.000819948
0.00082377
0.000788622
0.000788533
0.000784049
0.000782294
0.000765747
0.000761132
0.000747691
0.00073954
0.000720168
0.000709659
0.000691146
0.000687654
0.000713755
0.000790908
0.000955032
0.00106735
0.00121083
0.00123417
0.00139712
0.00348155
0.00403232
0.0055562
0.00550206
0.00867749
0.00542136
0.0040953
0.003706
0.00542201
0.00560222
0.00521364
0.00706312
0.00488671
0.00322998
0.0047796
0.00395851
0.00479419
0.00467019
0.00494162
0.00783687
0.00826051
0.00233179
0.00207919
0.00218804
0.00248211
0.00294684
0.00271031
0.00308917
0.00308028
0.00237133
0.00152443
0.00485837
0.00586641
0.00467592
0.00558772
0.00866954
0.00349226
0.00340655
0.00301417
0.00251578
0.00228677
0.00225567
0.00251489
0.00300956
0.00754436
0.00806966
0.00738136
0.00733792
0.00667368
0.00739226
0.0092189
0.00918889
0.00810958
0.00758454
0.00783896
0.00482295
0.00304268
0.00354166
0.00391966
0.00522872
0.0053911
0.0113769
0.00386165
0.00426657
0.00433149
0.00579669
0.00561092
0.0099175
0.00420159
0.0045308
0.00596941
0.00796672
0.0146905
0.00536142
0.00565015
0.00812512
0.00824591
0.00753951
0.0054519
0.00494378
0.00538797
0.00405904
0.00396823
0.00339057
0.00500758
0.00673797
0.0053243
0.00517022
0.00440093
0.00391151
0.00401203
0.00415998
0.00345535
0.00340897
0.00393828
0.00291748
0.00281323
0.00299558
0.000828849
0.000424903
0.000434485
0.000445774
0.00045492
0.00046432
0.000471216
0.000479358
0.000483064
0.000483437
0.000484647
0.000512492
0.000507799
0.000491738
0.00044652
0.000509562
0.000808646
0.000809225
0.000509021
0.000448764
0.000805145
0.00128291
0.00151235
0.00178935
0.0018116
0.00156294
0.00135512
0.000834085
0.000821009
0.000497686
0.000581228
0.000631209
0.000559831
0.000624742
0.00057902
0.000613373
0.000619609
0.000573303
0.00057015
0.000572377
0.000568003
0.000557954
0.000545615
0.000530536
0.000518544
0.000511696
0.000506039
0.000494184
0.000412063
0.000383507
0.000459424
0.000730517
0.000729337
0.000684375
0.000646611
0.00061463
0.000600444
0.000596775
0.000593747
0.000604134
0.000623678
0.000629174
0.000634654
0.000683809
0.00066268
0.000707835
0.000664196
0.00070964
0.000666131
0.000612764
0.000514519
0.000530841
0.000856283
0.000865377
0.00139823
0.0015997
0.00181424
0.00182366
0.00203587
0.00214401
0.00181555
0.00188482
0.00216014
0.00201205
0.00179354
0.00180046
0.00161959
0.00162093
0.00143561
0.000897146
0.00088495
0.000555837
0.000539814
0.000643686
0.000632403
0.000703366
0.000752711
0.000753017
0.000750579
0.00073141
0.00072462
0.000637299
0.000624839
0.000625658
0.000606657
0.000602356
0.000627236
0.000682808
0.000799764
0.000966714
0.00105307
0.00109091
0.00104751
0.000938536
0.000690787
0.000625603
0.00108276
0.00112587
0.00200196
0.00474835
0.00218671
0.00424159
0.0030615
0.000763954
0.000853115
0.00108799
0.00121922
0.00131603
0.00137054
0.00125125
0.00104311
0.000785518
0.000649005
0.000971863
0.000840487
0.000950393
0.00083021
0.00107436
0.00124235
0.00120201
0.00121122
0.00102377
0.00083418
0.000883392
0.00079333
0.000874468
0.000732108
0.000880862
0.000795375
0.000999536
0.00100894
0.000987974
0.000936498
0.000713087
0.000748188
0.00062757
0.000680757
0.000611157
0.000631702
0.000598614
0.000698098
0.000804424
0.000772025
0.000768999
0.000631835
0.000495088
0.000546774
0.000472704
0.000534987
0.000415788
0.000503718
0.000422468
0.000546853
0.000563576
0.00056615
0.000561764
0.000456345
0.000536565
0.000658846
0.000692542
0.000698548
0.000665598
0.000513075
0.000793901
0.000716618
0.000875104
0.000757107
0.000828683
0.000754692
0.000879694
0.00112658
0.0011761
0.00118389
0.000960455
0.000954375
0.00174113
0.0965044
0.00156623
0.00185118
0.00190888
0.00190198
0.00157267
0.00153442
0.00190031
0.00140599
0.00199083
0.00125344
0.00212288
0.000809291
0.00123023
0.00132077
0.00131788
0.00122467
0.000820415
0.00242506
0.119576
0.308353
0.334319
0.333723