/*--------------------------------*- C++ -*----------------------------------*\
| =========                 |                                                 |
| \\      /  F ield         | OpenFOAM: The Open Source CFD Toolbox           |
|  \\    /   O peration     | Version:  v2012                                 |
|   \\  /    A nd           | Website:  www.openfoam.com                      |
|    \\/     M anipulation  |                                                 |
\*---------------------------------------------------------------------------*/
FoamFile
{
    version     2.0;
    format      ascii;
    class       volVectorField;
    location    "900";
    object      U;
}
// * * * * * * * * * * * * * * * * * * * * * * * * * * * * * * * * * * * * * //

dimensions      [0 1 -1 0 0 0 0];


internalField   nonuniform List<vector> 
18258
(
(-0.175954 0.113281 0.139038)
(-0.0515251 0.244588 0.15927)
(-0.104712 0.211773 0.0963842)
(-0.0408916 0.0683257 0.084777)
(-0.226224 0.20021 0.0195427)
(-0.159766 0.357918 0.0178138)
(-0.223291 0.0440811 0.0547335)
(-0.341729 -0.0539414 0.0758213)
(-0.449061 -0.106248 0.10848)
(-0.536113 -0.159934 0.145942)
(-0.621799 -0.21739 0.180072)
(-0.688036 -0.271769 0.30976)
(-0.678774 -0.334466 0.357389)
(-0.622311 -0.445654 0.38593)
(-0.487927 -0.54311 0.369376)
(-0.204747 -0.587445 0.340248)
(0.0744059 -0.3741 0.28851)
(0.0785215 -0.163966 0.298379)
(-0.127953 -0.0785433 0.236801)
(-0.399702 -0.273713 0.11675)
(-0.138527 -0.526253 0.292538)
(-0.197802 -0.365444 0.407111)
(-0.30272 -0.737376 0.301308)
(-0.363195 -0.778805 0.262533)
(-0.135573 -0.708098 0.13308)
(0.00407158 -0.645395 0.183313)
(-0.0172791 -0.340174 0.422719)
(0.174244 -0.113106 0.804925)
(0.29905 -0.0953957 0.892737)
(0.316572 0.0575473 0.913036)
(0.317965 0.18521 0.814366)
(0.166722 0.301646 0.0987107)
(0.0780575 0.131025 -0.43111)
(0.0120479 0.0796012 -0.723728)
(-0.0667019 0.0771706 -0.898107)
(-0.0569963 0.0734652 -1.08036)
(-0.0702772 0.0727063 -1.2204)
(-0.0985102 0.090788 -1.31472)
(-0.139953 0.0819975 -1.36236)
(-0.187475 0.0883584 -1.34831)
(-0.236982 0.0746884 -1.26417)
(-0.28341 0.0838729 -1.11035)
(-0.322078 0.0783099 -0.899479)
(-0.352891 0.0792754 -0.644922)
(-0.362687 0.0818513 -0.351945)
(-0.345917 0.0770784 -0.154085)
(-0.157678 0.175216 -0.195877)
(0.359626 -0.0979699 -0.137031)
(0.625604 -0.129989 -0.157508)
(0.673258 -0.112453 -0.16695)
(0.785572 -0.135861 -0.176087)
(0.813283 -0.13308 -0.193552)
(0.507428 -0.00467267 -0.257321)
(0.259812 -0.137966 -0.218001)
(0.113425 -0.0420096 -0.158614)
(0.282353 -0.00975363 -0.16902)
(0.537329 -0.00262926 -0.173697)
(0.79152 -0.030236 -0.178012)
(1.09183 -0.0349152 -0.175847)
(1.42745 -0.0490565 -0.185314)
(1.76195 -0.0647763 -0.183694)
(2.04603 -0.0813323 -0.166784)
(2.24662 -0.0930037 -0.138331)
(2.34671 -0.0991059 -0.102702)
(2.35329 -0.096409 -0.0681052)
(2.29283 -0.0887101 -0.0414593)
(2.19918 -0.0821936 -0.0248569)
(2.10666 -0.0760724 -0.0181587)
(2.03721 -0.0672786 -0.0192158)
(1.99157 -0.0644445 -0.0239166)
(1.96725 -0.0593139 -0.0263836)
(1.95672 -0.0504315 -0.0208856)
(1.94249 -0.0399512 -0.0039196)
(1.89908 -0.0251581 0.0236223)
(1.8116 -0.00813854 0.05319)
(1.69083 0.00920259 0.0764327)
(1.57011 0.0213705 0.0792638)
(1.47742 0.0303121 0.0746293)
(1.39937 0.0373122 0.0699934)
(1.33731 0.0499259 0.0626439)
(1.28653 0.0565782 0.064347)
(1.19292 0.0437811 0.0777299)
(1.09573 0.0184994 0.109044)
(1.01268 0.000199364 0.126375)
(0.905273 -0.0213998 0.119209)
(0.76132 0.016401 0.144623)
(0.64064 0.0814949 0.132345)
(0.516994 0.100487 0.133072)
(0.380005 0.117841 0.117432)
(0.223748 0.126597 0.0952468)
(0.119796 0.189781 0.0909013)
(0.121371 0.0110258 0.196475)
(0.163946 -0.100719 0.142214)
(0.112866 -0.129851 0.0377004)
(0.104284 -0.115003 -0.144641)
(0.216052 -0.210074 -0.37397)
(0.26222 -0.231193 -0.559353)
(0.203743 -0.13775 -0.731092)
(0.105091 -0.079419 -0.712668)
(0.036192 0.0604667 -0.486759)
(-0.094981 0.23407 -0.143254)
(-0.217749 0.192033 0.182524)
(-0.234474 0.064302 0.157448)
(-0.340394 0.0140746 0.171792)
(-0.274915 0.136034 0.181104)
(-0.249296 0.284899 -0.0387496)
(-0.106734 0.165563 -0.400511)
(0.0622872 0.00593831 -0.58318)
(0.332133 -0.0932117 -0.633612)
(0.494418 -0.229356 -0.492684)
(0.350913 -0.210817 -0.283358)
(0.271366 -0.192169 -0.103285)
(0.282596 -0.186901 0.0372059)
(0.2803 -0.140124 0.158626)
(0.224541 -0.0989159 0.190441)
(0.39564 -0.0814491 0.179382)
(0.534663 -0.0634591 0.174916)
(0.587132 -0.0522426 0.163146)
(0.698954 -0.0789162 0.159132)
(0.731429 -0.133897 0.130523)
(0.600095 -0.134394 0.133359)
(0.453794 -0.151885 0.13791)
(0.460899 -0.186118 0.0330152)
(0.610075 -0.16298 0.0489581)
(0.735371 -0.162146 0.0464312)
(0.903772 -0.141839 0.0789401)
(1.08742 -0.109933 0.108565)
(1.18885 -0.0777799 0.146172)
(1.20777 -0.0108646 0.138226)
(1.24496 -0.00925842 0.118939)
(1.33511 -0.00711525 0.138432)
(1.377 -0.00191924 0.128536)
(1.36868 -0.0126407 0.157115)
(1.3281 -0.0482409 0.192015)
(1.32245 -0.0511572 0.188926)
(1.28537 -0.0620367 0.149879)
(1.27863 -0.0601897 0.132952)
(1.2575 -0.047674 0.106647)
(1.24895 -0.0456749 0.108722)
(1.20109 0.00484675 0.107489)
(1.19407 0.0283814 0.136297)
(1.07625 0.137755 0.270367)
(1.22589 0.0533059 0.253082)
(1.21744 0.0204496 0.157179)
(1.266 -0.0207236 0.126569)
(1.2782 -0.0249026 0.11727)
(1.2888 -0.0381858 0.142141)
(1.3077 -0.0415114 0.181493)
(1.35018 -0.036731 0.215525)
(1.38597 -0.0367338 0.220474)
(1.42286 -0.0128883 0.181865)
(1.43615 -0.00209026 0.136892)
(1.51234 -0.00667731 0.150009)
(1.61033 -0.0168483 0.158146)
(1.74948 -0.0317402 0.142597)
(1.88147 -0.0543038 0.0481424)
(1.96279 -0.075757 -0.0719526)
(1.98204 -0.0905946 -0.164945)
(1.96451 -0.096591 -0.201121)
(1.9481 -0.0969098 -0.19501)
(1.95819 -0.0912783 -0.175177)
(2.00516 -0.0827366 -0.144715)
(2.08661 -0.0702749 -0.108081)
(2.1978 -0.0600271 -0.084199)
(2.31208 -0.0597005 -0.11301)
(2.38914 -0.0607999 -0.173334)
(2.39194 -0.0584193 -0.277205)
(2.28613 -0.0501918 -0.39243)
(2.07074 -0.0425567 -0.48382)
(1.7704 -0.0367736 -0.540286)
(1.42664 -0.0316289 -0.549076)
(1.0807 -0.0193516 -0.527878)
(0.792289 -0.0243919 -0.459467)
(0.536726 -0.0157691 -0.415466)
(0.282959 -0.0212924 -0.38674)
(0.10916 -0.0399773 -0.360509)
(0.102308 -0.0418227 -0.636912)
(0.0774322 -0.0370754 -0.872884)
(0.0507329 -0.0391061 -1.05736)
(0.0118098 -0.0404269 -1.17603)
(-0.0233392 -0.0281346 -1.21585)
(-0.0600076 -0.0156638 -1.16833)
(-0.0937799 0.00337731 -1.03938)
(-0.119189 0.0271775 -0.822159)
(-0.12108 0.0838951 -0.560551)
(-0.146486 0.132759 -0.039043)
(-0.193364 0.0256554 0.571238)
(-0.20942 -0.03391 0.757882)
(-0.227791 -0.00283172 0.926592)
(-0.233013 -0.0458414 1.06887)
(-0.318684 -0.105397 1.13211)
(-0.371874 -0.112436 1.14485)
(-0.370451 -0.233968 1.00489)
(-0.298899 -0.252801 0.771155)
(-0.460513 -0.66894 0.687485)
(-0.485995 -0.546598 0.705333)
(-0.414105 -0.414077 0.832776)
(-0.549639 -0.768033 0.858456)
(-0.684167 -0.833474 0.606309)
(-0.474768 -0.756133 0.79994)
(-0.435869 -0.575894 0.742498)
(-0.783848 -0.526213 0.750165)
(-0.9028 -0.409298 0.860466)
(-0.530849 -0.707456 0.82482)
(-0.440187 -0.577462 0.665869)
(-0.320451 -0.319258 0.405619)
(-0.29948 -0.181166 0.399537)
(-0.282972 -0.14509 0.353068)
(-0.23427 0.112235 0.113914)
(-0.162348 0.2973 -0.418304)
(-0.152274 0.188214 -0.638696)
(-0.132401 0.0283987 -0.91385)
(-0.0872266 -0.0572745 -1.0858)
(-0.0289541 -0.0696732 -1.23368)
(0.0381809 -0.102221 -1.26847)
(0.0978975 -0.0988316 -1.2335)
(0.172499 -0.109477 -1.11961)
(0.216502 -0.123609 -0.919745)
(0.260852 -0.146801 -0.705337)
(0.249761 -0.139425 -0.398307)
(0.419362 -0.0499606 -0.637199)
(0.773934 -0.11858 -0.456321)
(0.729364 -0.109678 -0.411558)
(0.630598 -0.0754416 -0.404157)
(0.56529 -0.104937 -0.410392)
(0.127741 -0.10023 -0.521323)
(0.175966 -0.115743 -0.907385)
(0.256811 -0.223851 -1.05952)
(0.342437 -0.282043 -0.947998)
(0.389636 -0.351454 -0.509452)
(0.199309 0.0391263 0.132085)
(0.265179 0.122471 0.179134)
(0.429239 -0.323967 0.335988)
(0.516215 -0.529092 0.505839)
(0.54569 -0.522967 0.552468)
(0.412701 -0.235628 0.678109)
(0.471589 -0.338111 0.565026)
(0.486849 -0.610174 0.546178)
(0.703943 -0.673116 0.318558)
(0.746147 -0.489099 0.454226)
(0.798404 -0.345769 0.59979)
(0.235709 -0.225949 0.576692)
(-0.236184 -0.269195 0.829355)
(-0.172403 -0.191565 0.680724)
(-0.672836 -0.299076 0.820002)
(-0.46919 -0.182863 0.695515)
(-0.319819 -0.00499094 0.543377)
(-0.218604 0.17782 -0.293804)
(-0.192738 -0.0431458 -0.616099)
(-0.0574924 -0.169633 -1.09971)
(0.104322 -0.158542 -1.24957)
(0.27598 -0.087667 -1.11761)
(0.437086 -0.108418 -0.698495)
(0.507013 -0.0742095 -0.622414)
(0.501564 -0.0434718 -0.611281)
(0.552694 -0.0876446 -0.63582)
(0.595201 -0.120864 -0.72825)
(0.402494 -0.0428353 -0.679474)
(0.360996 -0.079494 -0.659948)
(0.135763 -0.114177 -0.66876)
(-0.110985 -0.0490227 -0.580221)
(0.296145 0.00528653 -0.590047)
(0.355776 0.0150229 -0.607889)
(0.641081 -0.0969644 -0.644057)
(0.575695 -0.097747 -0.373094)
(0.271549 0.0736049 -0.358617)
(0.274138 0.0545808 -0.239574)
(-0.303555 -0.0397822 0.116625)
(-0.30807 0.142733 -0.00614325)
(-0.283096 -0.0255594 -0.448184)
(0.0887718 -0.202078 -0.575714)
(0.362307 -0.280611 -0.56888)
(0.726095 -0.346406 -0.405755)
(0.810459 -0.419329 -0.377827)
(0.771683 -0.291397 -0.295375)
(0.813005 -0.36583 -0.219496)
(0.827678 -0.487747 -0.284202)
(0.740519 -0.433138 -0.278561)
(0.719582 -0.306562 -0.33139)
(0.747094 -0.252338 -0.341563)
(0.792651 -0.312128 -0.212126)
(0.804849 -0.367691 -0.160552)
(0.892177 -0.465203 -0.15667)
(1.15777 -0.631587 -0.11777)
(1.61595 -0.726927 -0.0988396)
(1.99296 -0.672392 -0.0382296)
(2.14953 -0.490284 0.04718)
(2.06957 -0.291265 0.0951865)
(1.9043 -0.163448 0.102621)
(1.8068 -0.0954198 0.0991636)
(1.71 -0.00075861 0.0986933)
(1.57243 0.0872461 0.0908212)
(1.43501 0.10527 0.0477969)
(1.33047 0.0554292 0.0270188)
(1.24062 -0.00661826 0.0212487)
(1.13881 -0.0560352 0.0228886)
(1.05489 -0.0805148 0.0210162)
(0.996986 -0.0638741 0.016479)
(0.820626 -0.111387 -0.0243144)
(0.715897 0.00104354 0.00911985)
(0.632642 0.0669898 0.00835354)
(0.497111 0.0214474 0.0060024)
(0.35907 -0.0620653 -0.0135556)
(0.138923 -0.147548 -0.0324837)
(0.225404 -0.308698 0.00136252)
(0.35314 -0.082108 0.0119833)
(-0.0026386 -0.230501 -0.00925325)
(0.0428476 -0.546258 -0.0505559)
(0.0118498 -0.712813 -0.0526957)
(-0.00818498 -0.876726 -0.0533134)
(-0.0261358 -1.00676 -0.0650434)
(-0.0361766 -1.10267 -0.0959664)
(-0.0467339 -1.15702 -0.10527)
(-0.0582867 -1.21427 -0.118395)
(-0.0885137 -1.27595 -0.134381)
(-0.113603 -1.32063 -0.149692)
(-0.13757 -1.35429 -0.162607)
(-0.159594 -1.3759 -0.173666)
(-0.178612 -1.38722 -0.18333)
(-0.194016 -1.38888 -0.190043)
(-0.206166 -1.38182 -0.1939)
(-0.216217 -1.36715 -0.194026)
(-0.224811 -1.34529 -0.192116)
(-0.233125 -1.31484 -0.186674)
(-0.240814 -1.27396 -0.17832)
(-0.246273 -1.21971 -0.165266)
(-0.244156 -1.15057 -0.147502)
(-0.191165 -1.07115 -0.1271)
(-0.141357 -0.968561 -0.112754)
(-0.165941 -0.868125 -0.0796412)
(-0.189985 -0.754248 -0.0820603)
(-0.205217 -0.542803 -0.0856608)
(-0.274101 -0.449991 -0.0921648)
(0.0222151 0.053566 -0.116386)
(-0.350951 -0.308193 0.0250233)
(-0.231845 -0.617334 -0.05476)
(-0.270641 -0.0992103 -0.0112369)
(-0.458356 -0.182367 0.0644709)
(-0.679107 -0.198597 0.0822073)
(-0.842587 -0.20919 0.114038)
(-0.954039 -0.223051 0.144165)
(-1.03475 -0.232452 0.20373)
(-1.11803 -0.244255 0.245247)
(-1.1872 -0.244166 0.301965)
(-1.2009 -0.248419 0.336231)
(-1.17399 -0.250206 0.366151)
(-1.10715 -0.248945 0.394464)
(-0.996454 -0.243303 0.422665)
(-0.841965 -0.230353 0.45409)
(-0.668288 -0.206181 0.493516)
(-0.421156 -0.147214 0.542523)
(-0.138713 -0.118432 0.566382)
(-0.157327 0.0285854 0.822338)
(-0.16078 0.0830796 1.04263)
(-0.16044 0.115406 1.11249)
(-0.161646 0.164583 1.02114)
(-0.165199 0.153666 0.838525)
(-0.152349 0.131572 0.56808)
(-0.124314 0.143644 0.286072)
(-0.225564 0.439772 0.371215)
(-0.507229 0.467665 0.335398)
(-0.692092 0.48063 0.339445)
(-0.916893 0.465313 0.332832)
(-1.09889 0.424509 0.308728)
(-1.22579 0.353051 0.265922)
(-1.2813 0.273148 0.218741)
(-1.26394 0.206028 0.181474)
(-1.23098 0.147857 0.158202)
(-1.1881 0.115175 0.140296)
(-1.09875 0.0924837 0.0901617)
(-0.957118 0.045114 0.0698266)
(-0.765957 -0.0207718 0.0593834)
(-0.499808 -0.113998 0.018986)
(-0.252468 -0.207723 -0.0191248)
(-0.273638 -0.197515 -0.0665582)
(-0.317912 -0.176952 0.00762933)
(-0.314123 -0.17415 0.0586777)
(-0.272243 -0.156493 0.149684)
(-0.380559 -0.233564 0.117215)
(-0.422366 -0.296811 0.117242)
(-0.326287 -0.287836 0.175899)
(-0.269243 -0.214812 0.0436829)
(-0.140853 -0.100576 -0.0271594)
(-0.140822 -0.0767778 -0.00868657)
(-0.138764 -0.0740849 -0.0365402)
(-0.169529 -0.0556315 -0.0687635)
(-0.167948 -0.501442 -0.149502)
(-0.126417 -0.479493 -0.139568)
(-0.110715 -0.446956 -0.097336)
(-0.100554 -0.423818 -0.147324)
(-0.266153 -0.537635 -0.0328689)
(-0.275682 -0.574932 -0.0273154)
(-0.282817 -0.631121 -0.0858563)
(-0.33667 -0.582547 -0.0219564)
(-0.3397 -0.529648 0.0535703)
(-0.301119 -0.358923 0.0836456)
(-0.444023 -0.316908 0.113653)
(-0.360975 -0.431604 0.0391685)
(-0.346575 -0.522348 0.0125554)
(-0.377357 -0.508331 -0.0252825)
(-0.428119 -0.394364 0.0308635)
(-0.496898 -0.346478 0.0721268)
(-0.528501 -0.254802 0.162988)
(-0.590803 -0.215404 0.240676)
(-0.679668 -0.197505 0.255247)
(-0.576164 -0.206662 0.210847)
(-0.516382 -0.187788 0.180497)
(-0.544619 -0.184948 0.117246)
(-0.53919 -0.172033 0.0914688)
(-0.495632 -0.184228 0.000550496)
(-0.760841 -0.0866615 0.0642983)
(-0.970708 -0.00542863 0.0894349)
(-1.07822 0.0520886 0.103334)
(-1.12738 0.0749748 0.137899)
(-1.16512 0.0358152 0.237531)
(-1.24975 0.0689944 0.2668)
(-1.31577 0.119391 0.348684)
(-1.32951 0.170817 0.431408)
(-1.27245 0.221895 0.523972)
(-1.14786 0.260923 0.603785)
(-0.975438 0.281333 0.648522)
(-0.775473 0.283528 0.657793)
(-0.623356 0.288555 0.644835)
(-0.342636 0.272272 0.644739)
(-0.436527 0.244681 0.875277)
(-0.468611 0.227313 1.00356)
(-0.461499 0.179477 1.08202)
(-0.442291 0.123236 1.01423)
(-0.440853 0.0582108 0.798162)
(-0.711923 -0.00523707 0.744561)
(-0.722547 0.0713105 0.944987)
(-0.741302 0.117141 1.02369)
(-0.746167 0.1641 0.979754)
(-0.69584 0.198621 0.872922)
(-0.838193 0.186267 0.8628)
(-0.880175 0.145775 0.965258)
(-0.883098 0.088291 1.00119)
(-0.873418 0.0419267 0.926498)
(-0.867112 -0.0390533 0.707073)
(-1.01014 -0.0602888 0.67583)
(-1.02463 0.0205209 0.901142)
(-1.03755 0.0695414 0.966256)
(-1.04567 0.121989 0.944267)
(-1.02066 0.174028 0.854317)
(-1.16404 0.162973 0.80409)
(-1.16466 0.110554 0.892751)
(-1.14803 0.0571409 0.914517)
(-1.13095 0.00647113 0.859373)
(-1.11096 -0.073046 0.64004)
(-1.17095 -0.0836708 0.595397)
(-1.19636 -0.00619564 0.796737)
(-1.22262 0.0436265 0.839943)
(-1.25187 0.091827 0.811392)
(-1.26944 0.141362 0.716761)
(-1.31879 0.110854 0.609976)
(-1.29041 0.0688486 0.709047)
(-1.25209 0.0250118 0.747036)
(-1.21681 -0.0217071 0.716223)
(-1.18684 -0.0934521 0.539652)
(-1.15355 -0.104671 0.472584)
(-1.18153 -0.0413529 0.621173)
(-1.22024 0.000218619 0.640462)
(-1.27445 0.0391673 0.606172)
(-1.30741 0.0742687 0.508855)
(-1.22436 0.0357158 0.413991)
(-1.1877 0.00290618 0.499794)
(-1.12809 -0.0321512 0.530875)
(-1.086 -0.060053 0.519961)
(-1.03991 -0.111728 0.386647)
(-0.919055 -0.120095 0.315087)
(-0.923264 -0.10933 0.357967)
(-0.972528 -0.0803382 0.438021)
(-0.956434 -0.0869905 0.42478)
(-0.927415 -0.102597 0.394273)
(-1.00405 -0.0683816 0.380962)
(-0.995732 -0.0630397 0.306973)
(-1.00039 -0.0391377 0.282362)
(-1.04336 -0.0271714 0.208764)
(-1.03838 -0.0095223 0.202112)
(-0.805738 -0.105132 0.144999)
(-0.818625 -0.12515 0.157414)
(-0.787709 -0.12834 0.215752)
(-0.823639 -0.141416 0.248857)
(-0.609621 -0.281555 0.132441)
(-0.556595 -0.291252 0.114136)
(-0.503145 -0.326664 0.131688)
(-0.419795 -0.399346 0.115191)
(-0.396574 -0.383784 0.148605)
(-0.487838 -0.283991 0.164436)
(-0.605619 -0.238934 0.182869)
(-0.614798 -0.267714 0.096124)
(-0.513007 -0.377696 0.0431267)
(-0.439242 -0.459808 0.0272016)
(-0.397072 -0.526025 0.0567152)
(-0.383755 -0.697582 0.120841)
(-0.38686 -0.662966 0.12673)
(-0.405094 -0.380102 0.105551)
(-0.407947 -0.536293 0.0801203)
(-0.398931 -0.60159 0.0423276)
(-0.215474 -0.787728 -0.160333)
(-0.193195 -0.793429 -0.260782)
(-0.115262 -0.70349 -0.370102)
(-0.078556 -0.6234 -0.386156)
(-0.0450792 -0.588034 -0.348387)
(-0.0134865 -0.554962 -0.301856)
(0.0316852 -0.500954 -0.232103)
(0.124107 -0.454368 -0.108905)
(0.12469 -0.578844 -0.12191)
(0.116815 -0.635032 -0.120153)
(0.0849036 -0.692877 -0.157695)
(0.0923438 -0.747423 -0.155923)
(0.100531 -0.804031 -0.175131)
(0.118317 -0.832267 -0.167176)
(0.126339 -0.838892 -0.152912)
(0.126515 -0.824857 -0.130241)
(0.117763 -0.788585 -0.0956865)
(0.104274 -0.731315 -0.0422101)
(0.0362221 -0.650013 0.0342542)
(0.00260448 -0.539972 0.156226)
(0.0172677 -0.292418 0.363207)
(-0.153396 0.0243594 0.448569)
(-0.37011 0.0979067 0.348883)
(-0.394175 -0.0372971 0.257491)
(-0.220917 -0.173227 0.251332)
(-0.182841 -0.190853 0.268136)
(-0.160054 -0.181438 0.215264)
(-0.0975765 -0.149538 0.207205)
(-0.00508819 -0.0525501 0.076749)
(-0.0329523 0.104642 0.0819867)
(-0.0800808 0.14236 0.081044)
(-0.0483684 0.207886 0.172569)
(-0.00180175 0.173431 0.196352)
(0.0154571 0.0149399 0.145665)
(-0.05154 -0.0389569 0.231605)
(0.0225269 0.0816773 0.327924)
(-0.00536355 -0.0710189 0.288612)
(0.0737926 0.139068 0.250577)
(0.0887849 -0.0246294 0.225986)
(-0.0232291 -0.250595 0.455148)
(0.047632 -0.353412 0.545136)
(0.171194 -0.495136 0.517096)
(0.169739 -0.688232 0.354638)
(0.0769842 -0.813377 0.146361)
(0.058961 -0.886138 -0.00655609)
(0.0656125 -0.921538 -0.119054)
(0.0634628 -0.94827 -0.19751)
(0.0603831 -0.963095 -0.248782)
(0.0522584 -0.961456 -0.279619)
(0.0420889 -0.941667 -0.293066)
(0.0294724 -0.904177 -0.28994)
(0.0238653 -0.829226 -0.250067)
(0.00745308 -0.783619 -0.329283)
(0.0436644 -0.702724 -0.225606)
(0.0477506 -0.652542 -0.211482)
(0.0449432 -0.635238 -0.232256)
(0.00473754 -0.701216 -0.325814)
(-0.0225349 -0.740975 -0.383792)
(-0.0572861 -0.776521 -0.411573)
(-0.0731531 -0.843415 -0.402449)
(-0.131739 -0.903809 -0.346943)
(-0.0937627 -0.968106 -0.333088)
(-0.088731 -0.97879 -0.374122)
(-0.0536885 -0.917493 -0.418877)
(-0.0435013 -0.867397 -0.43268)
(-0.0176963 -0.825024 -0.404983)
(-0.00943923 -0.868396 -0.341863)
(-0.039135 -0.900866 -0.374957)
(-0.0558513 -0.947658 -0.397502)
(-0.0235337 -0.990627 -0.40659)
(-0.0484965 -1.05896 -0.421522)
(-0.0665229 -1.04166 -0.425113)
(-0.0932153 -0.919564 -0.345996)
(-0.186195 -0.761172 -0.225441)
(-0.19734 -0.614306 -0.0419955)
(-0.0994474 -0.732799 -0.198391)
(-0.0793112 -0.838728 -0.261043)
(-0.0592591 -0.927885 -0.324888)
(-0.0609043 -0.945423 -0.335551)
(-0.0279118 -0.82874 -0.382797)
(-0.0241453 -0.723798 -0.339231)
(-0.0323273 -0.541171 -0.256278)
(-0.0167133 -0.352964 -0.166327)
(0.0358061 -0.0884913 -0.212436)
(-0.246137 -0.432979 0.0722263)
(-0.327341 -0.4606 0.0255822)
(0.217966 -0.119451 -0.243452)
(-0.173039 -0.247194 0.0422816)
(-0.218005 -0.266355 -0.118292)
(-0.258305 -0.268619 -0.104252)
(-0.208366 -0.281481 -0.0219964)
(0.0810236 0.141171 -0.219818)
(0.102597 0.0600974 -0.232824)
(0.100695 2.98056e-05 -0.262233)
(0.0957167 -0.000277492 -0.266873)
(-0.0806523 -0.429301 -0.203184)
(-0.133449 -0.449674 -0.223667)
(-0.186572 -0.458003 -0.207399)
(-0.249515 -0.44482 -0.16967)
(-0.169158 -0.547056 -0.184659)
(-0.12702 -0.558845 -0.257933)
(-0.0964989 -0.565119 -0.292425)
(-0.0609951 -0.553342 -0.29304)
(-0.0510589 -0.742272 -0.35023)
(-0.0817918 -0.756909 -0.332975)
(-0.106503 -0.769233 -0.282399)
(-0.14734 -0.759552 -0.195177)
(-0.134643 -0.821283 -0.182704)
(-0.128921 -0.882172 -0.200723)
(-0.0982509 -0.904787 -0.298046)
(-0.0728036 -0.871871 -0.374709)
(-0.0494281 -0.851615 -0.401328)
(-0.0770679 -0.967075 -0.37188)
(-0.112361 -0.988829 -0.336602)
(-0.138291 -1.0091 -0.284307)
(-0.137417 -1.09171 -0.347469)
(-0.0802953 -1.06599 -0.400217)
(-0.0727182 -1.14361 -0.441699)
(-0.0493903 -1.12201 -0.474384)
(-0.0268081 -1.11297 -0.459715)
(-0.00311484 -1.04115 -0.416181)
(0.0122977 -1.07306 -0.407159)
(-0.0126212 -1.15148 -0.470446)
(-0.039899 -1.17863 -0.494926)
(-0.0687453 -1.2069 -0.463641)
(-0.131801 -1.22749 -0.379573)
(-0.135145 -1.16519 -0.369699)
(-0.283977 -1.04545 -0.225502)
(-0.457842 -1.14498 -0.0769678)
(-0.464239 -1.09905 -0.0674959)
(-0.416429 -1.04471 -0.0648455)
(-0.30322 -1.03524 -0.0739539)
(-0.255952 -0.966527 -0.0641686)
(-0.309532 -0.94405 -0.0577514)
(-0.342664 -0.848298 -0.0423146)
(-0.378384 -0.713071 -0.0379861)
(-0.474124 -0.626484 -0.0368042)
(-0.410227 -0.401306 -0.0342286)
(-0.465341 -0.66049 -0.00589389)
(-0.317069 -0.457448 0.0245209)
(-0.638849 -0.398639 0.00539989)
(-0.815739 -0.379283 0.0601267)
(-0.918181 -0.384436 0.0846008)
(-0.96811 -0.397224 0.12432)
(-0.980098 -0.525217 0.0977477)
(-0.94053 -0.689252 0.0653528)
(-0.92426 -0.74996 0.0524861)
(-0.87481 -0.84823 0.0364411)
(-0.85921 -0.895366 0.0304697)
(-0.821387 -0.927612 0.00761464)
(-0.704139 -0.967186 -0.0230175)
(-0.592975 -1.00166 -0.0420292)
(-0.627218 -0.952293 -0.0172256)
(-0.485411 -0.971258 -0.030754)
(-0.503335 -0.893022 -0.0301698)
(-0.530951 -0.796634 -0.023332)
(-0.559801 -0.730515 -0.0195271)
(-0.686881 -0.71216 -0.00981374)
(-0.675429 -0.597972 -0.00780397)
(-0.824538 -0.577084 0.0303311)
(-0.918799 -0.559483 0.0503948)
(-0.881736 -0.696865 0.0231408)
(-0.80084 -0.704364 0.0121895)
(-0.777975 -0.789479 0.00227709)
(-0.66138 -0.797898 -0.0107847)
(-0.63623 -0.88222 -0.0170507)
(-0.748931 -0.865863 -0.00513932)
(-0.825921 -0.850301 0.00444371)
(-0.863529 -0.772758 0.0135097)
(-0.802015 -0.738665 -0.0117897)
(-0.624347 -0.611799 0.00179231)
(-0.847515 -0.659466 0.0116648)
(-0.86839 -0.518206 0.0520131)
(-0.870799 -0.379704 0.0580828)
(-0.843581 -0.28215 0.121515)
(-0.832631 -0.302165 0.0764613)
(-0.879275 -0.350571 0.0525299)
(-0.875456 -0.203858 0.128986)
(-0.894391 -0.184182 0.174031)
(-0.760909 -0.161449 0.158372)
(-0.766485 -0.128985 0.25904)
(-0.777652 -0.120685 0.301726)
(-0.821195 -0.108573 0.355052)
(-0.8286 -0.11919 0.352309)
(-0.642053 -0.181606 0.250609)
(-0.607225 -0.173524 0.248072)
(-0.567412 -0.180375 0.215249)
(-0.551097 -0.175517 0.188734)
(-0.568953 -0.191122 0.120209)
(-0.338464 -0.194619 0.0765182)
(-0.320243 -0.189115 0.101395)
(-0.329233 -0.191845 0.113747)
(-0.360505 -0.198699 0.123883)
(-0.448907 -0.216782 0.141126)
(-0.405023 -0.253236 0.0589849)
(-0.381846 -0.284769 0.0675831)
(-0.4104 -0.340793 0.0463649)
(-0.31574 -0.426583 0.035102)
(-0.3115 -0.394061 0.0482255)
(-0.283437 -0.415888 0.0146696)
(-0.192815 -0.419139 -0.0213482)
(-0.336899 -0.2539 0.0346676)
(-0.402718 -0.330607 0.0404941)
(-0.248116 -0.457021 -0.00739339)
(-0.29149 -0.459394 -0.000492674)
(-0.451514 -0.320967 0.0713793)
(-0.524275 -0.298781 0.130779)
(-0.497818 -0.318444 0.135917)
(-0.47084 -0.336611 0.111021)
(-0.458787 -0.350441 0.0940554)
(-0.49339 -0.373 0.00838391)
(-0.710935 -0.317669 0.0630445)
(-0.718088 -0.529609 0.0388324)
(-0.549298 -0.554094 -0.00196905)
(-0.510222 -0.606731 -0.00425413)
(-0.466046 -0.648987 -0.0177673)
(-0.437251 -0.652265 -0.0215688)
(-0.413118 -0.530794 -0.02342)
(-0.41143 -0.540843 -0.0487153)
(-0.410322 -0.541295 -0.0346406)
(-0.335634 -0.550313 -0.017497)
(-0.267737 -0.595706 -0.00776724)
(-0.319882 -0.580638 -0.00398507)
(-0.403639 -0.5128 0.00677059)
(-0.332181 -0.535199 -0.00455305)
(-0.439098 -0.630126 -0.0121574)
(-0.293104 -0.473063 -0.00552367)
(-0.210624 -0.539523 -0.0187797)
(-0.281428 -0.524426 -0.016717)
(-0.394633 -0.435918 -0.00105533)
(-0.414058 -0.362625 -0.0107053)
(-0.260775 -0.394098 -0.0114275)
(-0.15717 -0.422697 -0.0368445)
(-0.136555 -0.399246 -0.0231861)
(-0.238312 -0.205173 0.0218884)
(-0.382832 -0.342768 -0.00237732)
(-0.252058 -0.474389 -0.0201837)
(-0.219329 -0.467793 -0.0241378)
(-0.122249 -0.392579 -0.0305683)
(-0.219271 -0.194313 0.0387119)
(-0.347018 -0.337819 0.0117963)
(-0.366294 -0.363121 0.053899)
(-0.195998 -0.510885 -0.0113424)
(-0.174216 -0.467847 0.0181492)
(-0.110069 -0.41998 0.00128668)
(-0.22236 -0.228906 0.0442342)
(-0.325971 -0.341741 0.0520048)
(-0.335073 -0.338817 0.0565705)
(-0.180674 -0.463036 0.0161593)
(-0.109365 -0.408749 -0.000559335)
(-0.231908 -0.220318 0.0616102)
(-0.285922 -0.221339 0.0769518)
(-0.240436 -0.23011 0.0706673)
(-0.350321 -0.336861 0.078019)
(-0.189736 -0.465138 0.0477379)
(-0.117886 -0.415459 0.0366465)
(-0.140576 -0.449538 -0.00460848)
(-0.196564 -0.497421 0.0251311)
(-0.381689 -0.350533 0.0787671)
(-0.334402 -0.625227 -0.00403068)
(-0.355858 -0.631929 -0.0119891)
(-0.499452 -0.511683 0.0577229)
(-0.651419 -0.444551 0.0981945)
(-0.666821 -0.286672 0.136236)
(-0.798217 -0.271499 0.170428)
(-0.890896 -0.320664 0.166326)
(-1.02105 -0.488774 0.125975)
(-1.10781 -0.495112 0.167695)
(-1.13269 -0.50276 0.19285)
(-1.11274 -0.505141 0.215839)
(-1.04951 -0.501454 0.238716)
(-0.944003 -0.490542 0.260601)
(-0.795192 -0.467253 0.287195)
(-0.640695 -0.432218 0.326715)
(-0.398206 -0.38066 0.395099)
(-0.164706 -0.292042 0.482516)
(0.038138 -0.149912 0.486925)
(0.334375 -0.158272 0.428468)
(0.335728 -0.217146 0.378874)
(0.204658 -0.127019 0.48842)
(0.271902 -0.00226934 0.767299)
(0.283127 0.0471691 1.03259)
(0.2685 0.0820523 1.14217)
(0.250681 0.134397 1.09146)
(0.213007 0.123465 0.954377)
(0.142616 0.121428 0.702848)
(0.0396554 0.186797 0.40377)
(0.17475 0.512286 0.424669)
(0.420109 0.5134 0.374164)
(0.605775 0.538438 0.375582)
(0.850521 0.497986 0.351379)
(1.0095 0.417806 0.317461)
(1.07539 0.323748 0.273521)
(1.06166 0.256602 0.233489)
(1.01478 0.21121 0.197306)
(1.03501 0.158524 0.166222)
(1.04701 0.118854 0.143491)
(0.98751 0.0930302 0.0902561)
(0.882255 0.0425071 0.0676469)
(0.717018 -0.0224788 0.0543457)
(0.472274 -0.109563 0.0207684)
(0.244869 -0.217343 -0.0211996)
(0.104696 -0.624131 -0.109197)
(0.180128 -0.386105 -0.0799111)
(-0.177608 -0.173192 0.00792712)
(-0.09941 -0.393472 -0.0371654)
(-0.108633 -0.314249 -0.0637704)
(-0.11066 -0.340282 -0.0723674)
(-0.108035 -0.299864 -0.0633895)
(-0.0769146 -0.226014 -0.057878)
(-0.138899 -0.181252 -0.0450082)
(-0.219149 0.120731 0.116055)
(-0.142969 0.429114 0.118514)
(-0.038179 0.546199 0.0686979)
(0.0438306 0.626801 0.107236)
(0.131332 0.679111 0.206417)
(0.224638 0.736283 0.30232)
(0.315213 0.772411 0.338542)
(0.397472 0.768038 0.366869)
(0.474484 0.702575 0.374045)
(0.539895 0.561412 0.37067)
(0.592246 0.337974 0.336782)
(0.571957 0.00507373 0.263198)
(0.394241 -0.33505 0.25868)
(0.293587 -0.333721 0.321333)
(0.227995 -0.288008 0.330459)
(0.160831 -0.197359 0.335917)
(0.147729 -0.000845546 0.313063)
(0.289145 0.00906285 0.340163)
(0.451624 -0.15761 0.331049)
(0.603752 -0.254996 0.342731)
(0.642679 -0.344099 0.351804)
(0.623289 -0.436115 0.35371)
(0.476621 -0.541244 0.335025)
(0.107026 -0.566378 0.317259)
(-0.171414 -0.298633 0.302946)
(-0.0388267 -0.128168 0.355757)
(0.230673 -0.151389 0.237627)
(0.282495 -0.403573 0.0722508)
(0.00907164 -0.51913 0.237883)
(-0.140964 -0.748278 -0.141578)
(0.201286 -0.719711 -0.480638)
(0.308421 -0.391848 -0.176859)
(0.331553 -0.374852 0.0935474)
(0.344755 -0.545647 0.184009)
(0.326655 -0.890148 0.120058)
(0.531377 -0.872372 0.0649189)
(0.610567 -0.691446 0.0986865)
(0.57625 -0.53767 0.138736)
(0.506788 -0.395178 0.189161)
(0.337735 -0.229944 0.247221)
(0.362196 -0.345558 0.195955)
(0.425911 -0.37608 0.143153)
(0.507266 -0.362086 0.0810308)
(0.618783 -0.294873 -0.0561469)
(0.864699 0.194535 -0.118364)
(0.908938 0.478819 -0.0232837)
(0.854462 0.682963 0.0468308)
(0.75701 0.787116 0.0898747)
(0.631681 0.815898 0.135611)
(0.489214 0.786018 0.1565)
(0.331695 0.723921 0.175169)
(0.16695 0.644349 0.132902)
(-0.00817122 0.572214 0.072222)
(-0.151385 0.502328 0.0573943)
(-0.295516 0.399154 0.117443)
(-0.410344 0.168355 0.144709)
(-0.284463 -0.135644 0.00393372)
(-0.397768 -0.0605471 0.0408237)
(-0.479381 -0.00119676 0.0682436)
(-0.544477 0.111756 0.109791)
(-0.539124 0.0745511 0.0879233)
(-0.499059 -0.0549849 0.0213323)
(-0.458549 -0.112297 0.0111226)
(-0.391482 -0.164931 -0.0114378)
(-0.295405 -0.219624 -0.0261294)
(-0.188786 -0.248586 -0.0390676)
(-0.142258 -0.222138 -0.0309297)
(-0.195379 -0.192039 -0.0287449)
(-0.184126 -0.340439 -0.0429743)
(-0.123405 -0.33321 -0.0483992)
(-0.100402 -0.350811 -0.0754848)
(-0.0779683 -0.384622 -0.108465)
(-0.0481233 -0.568151 -0.224558)
(-0.0868313 -0.505423 -0.16256)
(-0.104566 -0.592586 -0.128845)
(-0.158807 -0.554083 -0.0700298)
(-0.22505 -0.443318 -0.0342339)
(-0.304849 -0.0928615 0.0383077)
(-0.182274 0.32208 0.179184)
(-0.0728008 0.442074 0.309702)
(0.00939131 0.514773 0.44649)
(0.0765811 0.50211 0.562895)
(0.144949 0.436542 0.623945)
(0.198714 0.322587 0.654099)
(0.248779 0.16674 0.627076)
(0.234878 -0.0120759 0.531608)
(0.1035 -0.134933 0.43889)
(-0.013443 -0.0973756 0.448556)
(-0.033027 0.0179942 0.424844)
(-0.0339252 0.140348 0.425609)
(0.0376277 0.245886 0.36536)
(0.199422 0.136595 0.380065)
(0.156777 0.273657 0.449583)
(-0.0611796 0.172133 -0.0702537)
(-0.173843 -0.0666488 -0.641384)
(-0.180657 -0.306686 -0.536832)
(-0.16827 -0.343499 -0.301536)
(-0.145137 -0.301676 -0.0934691)
(-0.0619127 -0.584764 -0.106407)
(-0.0278117 -0.862049 -0.0939951)
(0.00240123 -1.01924 -0.0916292)
(0.0328362 -1.14314 -0.10087)
(0.0661854 -1.22718 -0.115263)
(0.0966441 -1.28021 -0.129404)
(0.1232 -1.30685 -0.141323)
(0.147112 -1.31538 -0.153295)
(0.167928 -1.31331 -0.165824)
(0.186154 -1.30409 -0.176622)
(0.201781 -1.2892 -0.185065)
(0.215748 -1.26915 -0.190179)
(0.228142 -1.24364 -0.192819)
(0.239473 -1.21144 -0.191606)
(0.249092 -1.17146 -0.186459)
(0.254875 -1.12152 -0.175648)
(0.251965 -1.05884 -0.159008)
(0.194825 -0.996006 -0.139102)
(0.1398 -0.911272 -0.122804)
(0.164425 -0.827388 -0.0870222)
(0.187724 -0.727004 -0.0882554)
(0.203882 -0.558482 -0.0881508)
(0.24672 -0.441691 -0.0844771)
(0.0720612 -0.0296907 -0.0955465)
(0.365905 -0.298 0.0435706)
(0.245755 -0.55062 -0.057237)
(0.286142 -0.094666 -0.0270065)
(0.18076 -0.0368732 -0.147561)
(0.201632 -0.112336 -0.125079)
(0.194476 -0.119198 -0.0816127)
(0.21481 -0.131466 -0.0246467)