/*--------------------------------*- C++ -*----------------------------------*\
| =========                 |                                                 |
| \\      /  F ield         | OpenFOAM: The Open Source CFD Toolbox           |
|  \\    /   O peration     | Version:  v2012                                 |
|   \\  /    A nd           | Website:  www.openfoam.com                      |
|    \\/     M anipulation  |                                                 |
\*---------------------------------------------------------------------------*/
FoamFile
{
    version     2.0;
    format      ascii;
    class       volVectorField;
    location    "980";
    object      U;
}
// * * * * * * * * * * * * * * * * * * * * * * * * * * * * * * * * * * * * * //

dimensions      [0 1 -1 0 0 0 0];


internalField   nonuniform List<vector> 
18258
(
(-0.176349 0.117759 0.137217)
(-0.0516816 0.246192 0.156969)
(-0.104619 0.214828 0.0961441)
(-0.0381017 0.0705622 0.0838757)
(-0.225953 0.203357 0.0176032)
(-0.158714 0.362208 0.0159136)
(-0.222389 0.0451167 0.0532086)
(-0.340571 -0.052174 0.0746408)
(-0.447595 -0.1051 0.107753)
(-0.534398 -0.159044 0.145409)
(-0.620299 -0.21665 0.179654)
(-0.686776 -0.271025 0.309233)
(-0.67799 -0.333776 0.357078)
(-0.621766 -0.445068 0.385767)
(-0.487873 -0.542712 0.369521)
(-0.205409 -0.587364 0.340683)
(0.0733885 -0.374833 0.289187)
(0.0780031 -0.164171 0.298121)
(-0.127871 -0.0785331 0.236993)
(-0.401438 -0.273144 0.117306)
(-0.13987 -0.526831 0.293733)
(-0.200051 -0.366183 0.407281)
(-0.305215 -0.738079 0.301913)
(-0.366205 -0.78006 0.262733)
(-0.136139 -0.707338 0.131889)
(0.00348509 -0.644476 0.183214)
(-0.0180394 -0.34001 0.422835)
(0.173114 -0.112694 0.804942)
(0.298332 -0.095264 0.893085)
(0.316018 0.057816 0.914408)
(0.316795 0.183569 0.815621)
(0.168303 0.301596 0.111913)
(0.0760682 0.134201 -0.427512)
(0.00965015 0.082106 -0.719418)
(-0.0684402 0.0784446 -0.894973)
(-0.0584947 0.0740902 -1.07733)
(-0.0714372 0.0730779 -1.2164)
(-0.0998853 0.0910327 -1.30995)
(-0.141732 0.0822894 -1.35738)
(-0.189603 0.0887938 -1.34349)
(-0.239369 0.0751591 -1.25976)
(-0.286001 0.0843858 -1.10644)
(-0.325039 0.0786766 -0.895975)
(-0.356137 0.0797483 -0.641972)
(-0.366061 0.0824596 -0.34957)
(-0.348823 0.0767055 -0.152542)
(-0.152554 0.18477 -0.194073)
(0.371943 -0.107742 -0.13539)
(0.636605 -0.133281 -0.156084)
(0.678736 -0.114226 -0.166406)
(0.789812 -0.136006 -0.175985)
(0.816987 -0.131986 -0.193668)
(0.509383 -0.00219298 -0.257474)
(0.260406 -0.13777 -0.217925)
(0.113556 -0.0413008 -0.158609)
(0.283394 -0.00910702 -0.169025)
(0.539233 -0.00217873 -0.173663)
(0.793969 -0.0299476 -0.177935)
(1.0947 -0.0347295 -0.175756)
(1.43063 -0.0488939 -0.185193)
(1.76534 -0.0646108 -0.183528)
(2.04951 -0.0811278 -0.166547)
(2.25005 -0.0927415 -0.137994)
(2.34994 -0.0987765 -0.102247)
(2.35619 -0.0960235 -0.0675212)
(2.29534 -0.0882926 -0.0407738)
(2.20137 -0.0817787 -0.0241697)
(2.10864 -0.0756796 -0.0174586)
(2.03903 -0.0668913 -0.0185062)
(1.99329 -0.0640207 -0.0232141)
(1.96894 -0.0588821 -0.0256816)
(1.95839 -0.0499814 -0.0201637)
(1.94415 -0.039478 -0.00315438)
(1.90071 -0.0246544 0.0244293)
(1.81311 -0.00760261 0.0540151)
(1.6921 0.00979599 0.0773451)
(1.57121 0.0220086 0.0802032)
(1.47852 0.0310081 0.0755511)
(1.40043 0.0381149 0.0708378)
(1.33818 0.0509895 0.0634286)
(1.28733 0.0576411 0.0652605)
(1.19371 0.0446679 0.0789276)
(1.0967 0.0193123 0.110741)
(1.01391 0.00100521 0.128362)
(0.906892 -0.0206305 0.121323)
(0.762906 0.0169065 0.14649)
(0.642028 0.0817875 0.133639)
(0.518397 0.100672 0.134613)
(0.381425 0.118217 0.119019)
(0.224845 0.127477 0.0970285)
(0.120188 0.190171 0.0924142)
(0.122434 0.0101659 0.197961)
(0.164221 -0.100781 0.144363)
(0.113241 -0.129571 0.0403408)
(0.104762 -0.115218 -0.141533)
(0.217017 -0.210506 -0.370161)
(0.263119 -0.233146 -0.555684)
(0.204696 -0.14027 -0.73002)
(0.106357 -0.0823139 -0.716307)
(0.0363632 0.0554278 -0.494934)
(-0.0854581 0.229026 -0.170248)
(-0.214919 0.196433 0.177764)
(-0.234207 0.065537 0.151805)
(-0.339823 0.0161615 0.167502)
(-0.271148 0.140449 0.175891)
(-0.244736 0.287436 -0.0547542)
(-0.106187 0.161032 -0.406249)
(0.0649943 0.0029582 -0.586951)
(0.334544 -0.0949002 -0.632621)
(0.496748 -0.230541 -0.489503)
(0.351965 -0.211051 -0.279847)
(0.27191 -0.192078 -0.100215)
(0.283115 -0.186641 0.0402139)
(0.280953 -0.140043 0.160746)
(0.225886 -0.0989802 0.192085)
(0.397161 -0.0811915 0.181327)
(0.536276 -0.0631127 0.176948)
(0.588717 -0.0518541 0.164957)
(0.700756 -0.0785874 0.161229)
(0.732932 -0.133622 0.133086)
(0.601295 -0.134186 0.135761)
(0.454776 -0.151705 0.140214)
(0.461716 -0.185834 0.036053)
(0.611122 -0.162826 0.0520159)
(0.736556 -0.162079 0.0495413)
(0.905073 -0.141751 0.0815938)
(1.08856 -0.109936 0.111094)
(1.18973 -0.0777678 0.148677)
(1.20884 -0.0105817 0.140326)
(1.246 -0.00895565 0.120746)
(1.3359 -0.0068698 0.140259)
(1.37793 -0.00158094 0.130126)
(1.36949 -0.0124291 0.159003)
(1.32899 -0.0481712 0.194258)
(1.3233 -0.0511086 0.191153)
(1.28612 -0.0620274 0.152284)
(1.27945 -0.0602392 0.135441)
(1.25873 -0.0478891 0.108603)
(1.25023 -0.0458547 0.110616)
(1.202 0.00428496 0.109247)
(1.19495 0.0276918 0.137779)
(1.07784 0.13684 0.271309)
(1.22673 0.0528016 0.253917)
(1.21853 0.0200154 0.158791)
(1.26726 -0.020839 0.1284)
(1.27931 -0.0250299 0.11927)
(1.28951 -0.0381946 0.14451)
(1.30839 -0.0414731 0.183739)
(1.35105 -0.0366806 0.217748)
(1.38688 -0.0366501 0.222702)
(1.42372 -0.0126925 0.183791)
(1.43717 -0.00180375 0.138437)
(1.51334 -0.00642558 0.151564)
(1.61136 -0.0166188 0.159631)
(1.75069 -0.0315318 0.143957)
(1.88286 -0.0541173 0.0491859)
(1.96425 -0.0755698 -0.0711488)
(1.98355 -0.0904122 -0.164285)
(1.96597 -0.0964153 -0.200536)
(1.94951 -0.0967364 -0.194473)
(1.9596 -0.0911059 -0.174661)
(2.00666 -0.0825791 -0.14416)
(2.08828 -0.0700871 -0.10745)
(2.19969 -0.0597833 -0.0834064)
(2.31437 -0.0594274 -0.112116)
(2.3919 -0.0605484 -0.172412)
(2.3951 -0.0582297 -0.276422)
(2.28955 -0.0500783 -0.391907)
(2.07419 -0.0425219 -0.483513)
(1.77372 -0.0367693 -0.540122)
(1.42973 -0.031622 -0.549003)
(1.08348 -0.0193274 -0.527857)
(0.794644 -0.0242587 -0.459505)
(0.538587 -0.0154596 -0.415596)
(0.28404 -0.0208356 -0.386956)
(0.109383 -0.0394819 -0.360797)
(0.102565 -0.0413733 -0.637396)
(0.0776652 -0.0367262 -0.873591)
(0.0508969 -0.0387852 -1.05814)
(0.0118849 -0.0401139 -1.17671)
(-0.0233287 -0.027805 -1.21622)
(-0.0600415 -0.0153027 -1.16817)
(-0.0938229 0.00390181 -1.03855)
(-0.119249 0.0282455 -0.819497)
(-0.120825 0.0862419 -0.557957)
(-0.147152 0.131998 -0.0264727)
(-0.194509 0.0236743 0.576118)
(-0.210455 -0.0349007 0.76176)
(-0.22865 -0.00360281 0.929329)
(-0.233794 -0.0469761 1.07054)
(-0.319326 -0.10681 1.13388)
(-0.372094 -0.114352 1.14605)
(-0.370635 -0.235202 1.00526)
(-0.299785 -0.254014 0.77112)
(-0.460325 -0.670158 0.687088)
(-0.484855 -0.548145 0.704844)
(-0.413243 -0.415558 0.832373)
(-0.547782 -0.76909 0.859698)
(-0.681383 -0.833859 0.607531)
(-0.472453 -0.75651 0.799731)
(-0.433686 -0.575803 0.743146)
(-0.781147 -0.526048 0.751277)
(-0.900773 -0.409231 0.861592)
(-0.529492 -0.707907 0.82704)
(-0.439414 -0.577659 0.668444)
(-0.32053 -0.321094 0.408167)
(-0.299827 -0.184175 0.402147)
(-0.283541 -0.147951 0.356877)
(-0.235391 0.107346 0.117126)
(-0.162035 0.299385 -0.416579)
(-0.151587 0.192818 -0.638352)
(-0.132126 0.0301519 -0.91308)
(-0.0870837 -0.0559241 -1.08591)
(-0.0286722 -0.0687864 -1.23397)
(0.0385247 -0.101266 -1.2691)
(0.0984202 -0.0982588 -1.23431)
(0.173137 -0.108805 -1.12047)
(0.2173 -0.123275 -0.920554)
(0.261679 -0.146453 -0.705982)
(0.25055 -0.139229 -0.398564)
(0.420826 -0.0477619 -0.637899)
(0.777127 -0.117574 -0.456452)
(0.732898 -0.109658 -0.411118)
(0.634988 -0.0769062 -0.402976)
(0.575779 -0.107425 -0.407901)
(0.139547 -0.104372 -0.515432)
(0.184673 -0.119572 -0.898491)
(0.262745 -0.226662 -1.05003)
(0.346 -0.283851 -0.93894)
(0.389498 -0.352454 -0.497648)
(0.199116 0.0480692 0.130791)
(0.266744 0.118905 0.183531)
(0.429065 -0.326792 0.335422)
(0.516751 -0.529613 0.505623)
(0.54664 -0.522511 0.552023)
(0.413174 -0.235207 0.678485)
(0.472541 -0.337505 0.564441)
(0.488311 -0.609796 0.545346)
(0.70566 -0.672761 0.317427)
(0.748039 -0.488713 0.452693)
(0.799994 -0.346034 0.598188)
(0.235932 -0.226229 0.575908)
(-0.234927 -0.269119 0.830617)
(-0.172144 -0.191277 0.682437)
(-0.672067 -0.299036 0.820994)
(-0.468494 -0.183539 0.697497)
(-0.319218 -0.00545885 0.545929)
(-0.218294 0.178831 -0.296177)
(-0.192068 -0.0393694 -0.617715)
(-0.0575593 -0.16786 -1.10012)
(0.10474 -0.15661 -1.25053)
(0.276923 -0.0857194 -1.11834)
(0.439183 -0.107385 -0.698098)
(0.509146 -0.0735998 -0.621361)
(0.504254 -0.0444328 -0.609236)
(0.559941 -0.089698 -0.63262)
(0.599405 -0.122469 -0.724183)
(0.403549 -0.0435786 -0.676228)
(0.361725 -0.0787372 -0.657243)
(0.136731 -0.113133 -0.666807)
(-0.112158 -0.0480547 -0.578035)
(0.296775 0.00794751 -0.58782)
(0.356552 0.0159919 -0.604553)
(0.643142 -0.0967679 -0.640459)
(0.573305 -0.0976077 -0.362608)
(0.26885 0.0747968 -0.351469)
(0.268815 0.0564597 -0.225122)
(-0.302733 -0.0369189 0.125892)
(-0.308562 0.146083 -0.000229017)
(-0.28385 -0.0235995 -0.446641)
(0.0890642 -0.201183 -0.573616)
(0.364026 -0.279793 -0.567785)
(0.729252 -0.345283 -0.404982)
(0.813263 -0.417811 -0.377474)
(0.774776 -0.290183 -0.29562)
(0.816285 -0.364756 -0.219654)
(0.830659 -0.486234 -0.283729)
(0.744245 -0.432321 -0.277712)
(0.723398 -0.306272 -0.330685)
(0.750541 -0.251745 -0.341464)
(0.79635 -0.311819 -0.212079)
(0.808934 -0.367585 -0.1603)
(0.895774 -0.463988 -0.156332)
(1.16089 -0.630212 -0.117441)
(1.61908 -0.725498 -0.0985423)
(1.99605 -0.670855 -0.037864)
(2.15231 -0.488519 0.0475351)
(2.07181 -0.289296 0.0956465)
(1.90611 -0.161417 0.103085)
(1.80838 -0.0932582 0.0996216)
(1.71145 0.0019107 0.0991525)
(1.57394 0.0903637 0.0912959)
(1.43658 0.108909 0.0482933)
(1.33204 0.0592642 0.0275863)
(1.24222 -0.00274487 0.021958)
(1.14048 -0.0521903 0.0237463)
(1.05646 -0.0771127 0.0219386)
(0.998639 -0.061057 0.0176064)
(0.822743 -0.108816 -0.0232061)
(0.717322 0.00399694 0.0107638)
(0.633911 0.0704881 0.009718)
(0.498183 0.0255376 0.00737369)
(0.359851 -0.0590274 -0.012731)
(0.139322 -0.145864 -0.0318705)
(0.225828 -0.307668 0.00108405)
(0.353462 -0.0817575 0.0120976)
(-0.00233705 -0.229937 -0.00919618)
(0.0431678 -0.545827 -0.0504081)
(0.0121533 -0.712451 -0.0525282)
(-0.00788488 -0.876501 -0.0531576)
(-0.0258371 -1.00662 -0.0648411)
(-0.0358659 -1.10265 -0.0956258)
(-0.0463265 -1.15715 -0.104896)
(-0.0578233 -1.2146 -0.118042)
(-0.0880529 -1.27652 -0.134046)
(-0.11318 -1.32142 -0.149368)
(-0.137186 -1.35536 -0.162295)
(-0.159247 -1.37723 -0.173371)
(-0.178322 -1.38873 -0.183052)
(-0.193769 -1.39047 -0.189789)
(-0.205936 -1.3834 -0.193662)
(-0.215968 -1.36869 -0.193793)
(-0.224514 -1.34681 -0.191877)
(-0.23278 -1.3164 -0.186429)
(-0.240433 -1.27557 -0.178065)
(-0.245878 -1.22136 -0.165013)
(-0.24378 -1.15221 -0.147263)
(-0.190918 -1.07272 -0.126862)
(-0.141217 -0.96995 -0.112475)
(-0.165724 -0.869337 -0.0794042)
(-0.189723 -0.755256 -0.0818057)
(-0.204918 -0.543667 -0.0854046)
(-0.273534 -0.450718 -0.0919042)
(0.0227871 0.052877 -0.11607)
(-0.350886 -0.308717 0.0252963)
(-0.231653 -0.617904 -0.0544245)
(-0.270351 -0.0994032 -0.0109026)
(-0.458027 -0.182627 0.0646506)
(-0.678839 -0.198788 0.0822734)
(-0.842448 -0.20935 0.114069)
(-0.954029 -0.223192 0.14419)
(-1.03495 -0.232581 0.203781)
(-1.11842 -0.244374 0.245303)
(-1.18772 -0.24424 0.302066)
(-1.20142 -0.248438 0.336362)
(-1.17442 -0.250166 0.366303)
(-1.1074 -0.248844 0.394636)
(-0.996442 -0.243131 0.422863)
(-0.841564 -0.230082 0.45435)
(-0.66726 -0.205754 0.49391)
(-0.420168 -0.146654 0.543612)
(-0.135496 -0.119311 0.568383)
(-0.152346 0.0284144 0.823766)
(-0.155169 0.0829309 1.04302)
(-0.154864 0.115017 1.11211)
(-0.156193 0.163834 1.02022)
(-0.160711 0.153188 0.837102)
(-0.149406 0.131326 0.566668)
(-0.124625 0.143372 0.28473)
(-0.226023 0.438735 0.370164)
(-0.507882 0.466833 0.334807)
(-0.693263 0.479973 0.338755)
(-0.91835 0.464831 0.332335)
(-1.10069 0.424327 0.308433)
(-1.22797 0.353025 0.265795)
(-1.28379 0.273221 0.218747)
(-1.26667 0.206079 0.181568)
(-1.23364 0.147873 0.158334)
(-1.19066 0.115184 0.140448)
(-1.10116 0.0924762 0.0902702)
(-0.959265 0.0451192 0.0699235)
(-0.767757 -0.0207482 0.0595082)
(-0.501139 -0.114014 0.0190286)
(-0.253361 -0.207848 -0.0189516)
(-0.274266 -0.197601 -0.0662255)
(-0.31855 -0.177026 0.00825166)
(-0.314764 -0.174225 0.0596317)
(-0.272914 -0.156724 0.150926)
(-0.381212 -0.234018 0.118593)
(-0.423186 -0.29727 0.118722)
(-0.327282 -0.288365 0.177471)
(-0.270228 -0.215509 0.0456607)
(-0.140958 -0.101117 -0.025643)
(-0.141101 -0.0770466 -0.00694955)
(-0.138641 -0.0744162 -0.0352808)
(-0.169346 -0.0558639 -0.06781)
(-0.167931 -0.501894 -0.148506)
(-0.126252 -0.480212 -0.137875)
(-0.110785 -0.447609 -0.0951853)
(-0.100602 -0.424535 -0.145396)
(-0.266994 -0.538771 -0.0312702)
(-0.276917 -0.576338 -0.0255008)
(-0.284487 -0.632809 -0.0835706)
(-0.33792 -0.583475 -0.0196409)
(-0.340735 -0.530606 0.0554498)
(-0.302089 -0.359576 0.0857169)
(-0.445095 -0.317378 0.115054)
(-0.362168 -0.432279 0.0405709)
(-0.348114 -0.523295 0.0142167)
(-0.378549 -0.508924 -0.0235017)
(-0.42914 -0.394898 0.0322945)
(-0.497929 -0.346961 0.0732897)
(-0.529611 -0.255156 0.164122)
(-0.591963 -0.215698 0.241719)
(-0.680921 -0.197794 0.256317)
(-0.57712 -0.206959 0.211903)
(-0.51736 -0.187984 0.181441)
(-0.545651 -0.185095 0.11802)
(-0.540197 -0.172171 0.0919889)
(-0.496658 -0.184331 0.000795226)
(-0.762429 -0.0867639 0.0645814)
(-0.972746 -0.00541488 0.0896701)
(-1.0805 0.0521096 0.103534)
(-1.12975 0.0750167 0.138122)
(-1.16741 0.0358133 0.237926)
(-1.25222 0.068987 0.267163)
(-1.31832 0.119422 0.349017)
(-1.33193 0.170909 0.431631)
(-1.27462 0.222007 0.524001)
(-1.14969 0.261029 0.603537)
(-0.977003 0.28139 0.647917)
(-0.776534 0.283855 0.656794)
(-0.623344 0.28918 0.643784)
(-0.34172 0.272951 0.643236)
(-0.435026 0.245919 0.874139)
(-0.467001 0.228739 1.00271)
(-0.459966 0.18104 1.08102)
(-0.440706 0.124934 1.01297)
(-0.439387 0.059584 0.797794)
(-0.711104 -0.00454724 0.744136)
(-0.721707 0.0721274 0.944284)
(-0.740364 0.117896 1.02335)
(-0.745232 0.165027 0.979341)
(-0.695274 0.199452 0.872217)
(-0.838749 0.186849 0.862134)
(-0.880294 0.146497 0.964959)
(-0.882972 0.0888016 1.00114)
(-0.873236 0.0424221 0.926285)
(-0.866909 -0.0386487 0.706969)
(-1.01043 -0.0600127 0.675871)
(-1.02507 0.0208579 0.901147)
(-1.03818 0.0698944 0.966323)
(-1.04664 0.122415 0.944098)
(-1.02196 0.174294 0.8539)
(-1.16573 0.163152 0.803975)
(-1.16609 0.110845 0.892767)
(-1.14913 0.0573899 0.914696)
(-1.13182 0.00670494 0.85956)
(-1.11157 -0.0728606 0.640184)
(-1.17179 -0.0835669 0.595592)
(-1.19753 -0.00605165 0.797012)
(-1.22408 0.0437753 0.840213)
(-1.25366 0.0919871 0.811594)
(-1.27147 0.141463 0.716912)
(-1.32103 0.110907 0.610309)
(-1.29241 0.0689239 0.70939)
(-1.25377 0.0250732 0.747405)
(-1.21816 -0.0216462 0.716553)
(-1.18782 -0.0934232 0.539867)
(-1.15456 -0.104711 0.472798)
(-1.18294 -0.0413701 0.621541)
(-1.22199 0.00021032 0.640901)
(-1.27653 0.0391624 0.606616)
(-1.30976 0.0742597 0.509315)
(-1.22661 0.0356626 0.414519)
(-1.1897 0.00282987 0.500316)
(-1.12979 -0.0322271 0.531383)
(-1.08735 -0.0601294 0.52038)
(-1.04081 -0.111824 0.386867)
(-0.919779 -0.120224 0.315286)
(-0.924135 -0.10946 0.358254)
(-0.973746 -0.0804521 0.438455)
(-0.957724 -0.08711 0.425275)
(-0.928929 -0.102733 0.394953)
(-1.00581 -0.068531 0.381673)
(-0.997532 -0.0631381 0.307669)
(-1.00225 -0.0392385 0.283011)
(-1.04539 -0.0272129 0.20927)
(-1.04039 -0.00955437 0.202535)
(-0.807281 -0.105277 0.145453)
(-0.820207 -0.125324 0.158034)
(-0.789186 -0.128559 0.216512)
(-0.825151 -0.141632 0.249696)
(-0.61097 -0.282026 0.133356)
(-0.557808 -0.291811 0.115165)
(-0.50425 -0.327266 0.132861)
(-0.420771 -0.400058 0.116441)
(-0.397356 -0.38445 0.149924)
(-0.488658 -0.28455 0.165702)
(-0.606742 -0.239321 0.184068)
(-0.616207 -0.26812 0.097153)
(-0.514221 -0.378329 0.0443539)
(-0.440156 -0.460689 0.0284374)
(-0.397765 -0.526898 0.0581738)
(-0.384309 -0.698585 0.12265)
(-0.38746 -0.663971 0.128326)
(-0.405898 -0.380748 0.10734)
(-0.408951 -0.537045 0.0818523)
(-0.399791 -0.602549 0.0441964)
(-0.216134 -0.789068 -0.158317)
(-0.193708 -0.794911 -0.259412)
(-0.115523 -0.704671 -0.369224)
(-0.0786324 -0.624751 -0.385211)
(-0.0452572 -0.589662 -0.347504)
(-0.0138651 -0.556816 -0.301277)
(0.0313795 -0.502789 -0.232096)
(0.124143 -0.456321 -0.108975)
(0.124712 -0.581203 -0.121961)
(0.116803 -0.637826 -0.120257)
(0.0848016 -0.69591 -0.157701)
(0.092165 -0.750636 -0.155779)
(0.100301 -0.807178 -0.174889)
(0.118022 -0.835504 -0.166966)
(0.126036 -0.842291 -0.152798)
(0.126267 -0.828531 -0.130299)
(0.117661 -0.792497 -0.0960444)
(0.104056 -0.735987 -0.0428476)
(0.0380262 -0.65646 0.0328812)
(0.00164611 -0.548166 0.152169)
(0.0147349 -0.30294 0.358914)
(-0.145389 0.00864689 0.44871)
(-0.364817 0.093934 0.350777)
(-0.39123 -0.0406108 0.256254)
(-0.218986 -0.172471 0.252295)
(-0.179206 -0.188741 0.268586)
(-0.156613 -0.178111 0.214066)
(-0.0896623 -0.142891 0.205504)
(0.000632161 -0.0317724 0.07071)
(-0.0365228 0.111222 0.080653)
(-0.081006 0.148977 0.0801644)
(-0.0496653 0.213119 0.169842)
(-0.00701003 0.18152 0.190945)
(0.0147669 0.0387505 0.142409)
(-0.043742 -0.0283012 0.226679)
(0.0246507 0.092515 0.322605)
(-0.00182724 -0.0640503 0.285743)
(0.078148 0.143368 0.246383)
(0.0912406 -0.0268842 0.227395)
(-0.0195188 -0.258131 0.456063)
(0.0521652 -0.362066 0.544304)
(0.173048 -0.507678 0.513158)
(0.165492 -0.696438 0.350045)
(0.0748052 -0.819717 0.142644)
(0.0589214 -0.891179 -0.00845611)
(0.0652049 -0.925257 -0.119852)
(0.063222 -0.951514 -0.197846)
(0.0601036 -0.966108 -0.248679)
(0.0519729 -0.964243 -0.279241)
(0.041825 -0.944292 -0.292514)
(0.0292378 -0.906668 -0.289321)
(0.0235584 -0.831978 -0.249696)
(0.00729215 -0.78614 -0.328924)
(0.0434936 -0.705302 -0.225416)
(0.0475066 -0.655033 -0.211524)
(0.0447049 -0.637467 -0.232206)
(0.00457061 -0.703463 -0.325273)
(-0.0225956 -0.742979 -0.382974)
(-0.0573882 -0.778196 -0.410678)
(-0.0733641 -0.844953 -0.401514)
(-0.132271 -0.905435 -0.345628)
(-0.0942283 -0.96998 -0.331217)
(-0.0891774 -0.980759 -0.372697)
(-0.0538852 -0.919256 -0.417902)
(-0.0436274 -0.869302 -0.431862)
(-0.0177761 -0.827236 -0.404277)
(-0.00968105 -0.870738 -0.341054)
(-0.039437 -0.902897 -0.373929)
(-0.0561887 -0.949497 -0.396238)
(-0.0238586 -0.992673 -0.405533)
(-0.0487873 -1.06105 -0.419992)
(-0.0666595 -1.04368 -0.423717)
(-0.0936885 -0.921467 -0.344469)
(-0.186978 -0.762679 -0.224075)
(-0.199087 -0.614372 -0.0404181)
(-0.100388 -0.734314 -0.196291)
(-0.0798878 -0.840505 -0.258761)
(-0.0594964 -0.929852 -0.322674)
(-0.0608324 -0.947219 -0.333414)
(-0.0276567 -0.830275 -0.379968)
(-0.0238202 -0.725335 -0.336194)
(-0.0319756 -0.542939 -0.252651)
(-0.0159353 -0.353685 -0.161588)
(0.0326634 -0.091575 -0.206575)
(-0.249201 -0.434413 0.0737587)
(-0.330319 -0.46208 0.0266038)
(0.222855 -0.11805 -0.244634)
(-0.172491 -0.247637 0.0440724)
(-0.218166 -0.266803 -0.116019)
(-0.258541 -0.269078 -0.102876)
(-0.208709 -0.281878 -0.0210167)
(0.0813203 0.140557 -0.218893)
(0.10288 0.0593244 -0.23131)
(0.101104 -0.000484125 -0.259954)
(0.0967361 1.52361e-05 -0.26517)
(-0.0796213 -0.430276 -0.20063)
(-0.132708 -0.450421 -0.22201)
(-0.185884 -0.458785 -0.206158)
(-0.248921 -0.445516 -0.168988)
(-0.168916 -0.547979 -0.184057)
(-0.126742 -0.559913 -0.256899)
(-0.0961323 -0.566268 -0.290948)
(-0.0604036 -0.554521 -0.291072)
(-0.0505694 -0.743597 -0.34846)
(-0.0815394 -0.758191 -0.331614)
(-0.10633 -0.770436 -0.281483)
(-0.147155 -0.760615 -0.194603)
(-0.134488 -0.822423 -0.18222)
(-0.128788 -0.88344 -0.200192)
(-0.0981616 -0.906173 -0.297212)
(-0.0726727 -0.873299 -0.373442)
(-0.0491076 -0.853162 -0.399574)
(-0.0767416 -0.968872 -0.370411)
(-0.112159 -0.990462 -0.335526)
(-0.138123 -1.01068 -0.283407)
(-0.137155 -1.09343 -0.346732)
(-0.080099 -1.06792 -0.398839)
(-0.0724962 -1.14554 -0.440581)
(-0.0493961 -1.12412 -0.473181)
(-0.0269843 -1.11519 -0.458441)
(-0.00338103 -1.04334 -0.41523)
(0.0120425 -1.07546 -0.406445)
(-0.0127353 -1.15377 -0.469433)
(-0.039838 -1.18075 -0.493962)
(-0.0685172 -1.20882 -0.462767)
(-0.131502 -1.22926 -0.379046)
(-0.134835 -1.16697 -0.369078)
(-0.283546 -1.04706 -0.225331)
(-0.45725 -1.14638 -0.0769542)
(-0.463648 -1.10048 -0.067473)
(-0.415982 -1.04623 -0.0647416)
(-0.302824 -1.03675 -0.0737835)
(-0.255714 -0.968023 -0.0639803)
(-0.309156 -0.94547 -0.0575699)
(-0.342269 -0.849557 -0.0421464)
(-0.378047 -0.714141 -0.0378103)
(-0.473733 -0.627331 -0.0366417)
(-0.409792 -0.401752 -0.0339842)
(-0.464703 -0.661269 -0.00577665)
(-0.31655 -0.457971 0.0246636)
(-0.638387 -0.399054 0.00545729)
(-0.815401 -0.379625 0.0601459)
(-0.917975 -0.384732 0.084621)
(-0.96806 -0.397514 0.124358)
(-0.98001 -0.525685 0.0977796)
(-0.940281 -0.689893 0.0653809)
(-0.923948 -0.750714 0.0525016)
(-0.874396 -0.849082 0.0364363)
(-0.858752 -0.896286 0.0304522)
(-0.820873 -0.928626 0.00760061)
(-0.703561 -0.968374 -0.0230312)
(-0.592364 -1.00299 -0.0420033)
(-0.626635 -0.953581 -0.0172066)
(-0.484842 -0.972674 -0.0306927)
(-0.502732 -0.894343 -0.0301081)
(-0.530353 -0.797822 -0.0232476)
(-0.559185 -0.731542 -0.0194278)
(-0.686336 -0.713072 -0.00979792)
(-0.674904 -0.598651 -0.00776981)
(-0.824139 -0.577689 0.0303435)
(-0.918553 -0.560022 0.0504027)
(-0.881388 -0.697586 0.0231391)
(-0.800379 -0.705176 0.0121928)
(-0.777478 -0.790451 0.00227705)
(-0.66082 -0.798981 -0.0107727)
(-0.635651 -0.883423 -0.0170383)
(-0.748401 -0.866944 -0.00514156)
(-0.825461 -0.85126 0.00443186)
(-0.86313 -0.77362 0.013504)
(-0.801622 -0.739509 -0.0117811)
(-0.624238 -0.61269 0.00191168)
(-0.847203 -0.660158 0.0116888)
(-0.868263 -0.518734 0.0520797)
(-0.870698 -0.380023 0.0581742)
(-0.843686 -0.282417 0.121667)
(-0.832607 -0.302441 0.0765792)
(-0.879136 -0.350849 0.05259)
(-0.87559 -0.204029 0.129095)
(-0.894658 -0.184332 0.174148)
(-0.761148 -0.161627 0.158522)
(-0.767069 -0.129162 0.259268)
(-0.778445 -0.12086 0.302094)
(-0.822284 -0.108742 0.355552)
(-0.829875 -0.119359 0.35292)
(-0.64311 -0.181879 0.251326)
(-0.608063 -0.173806 0.248708)
(-0.56805 -0.180633 0.215778)
(-0.551479 -0.1758 0.189081)
(-0.569037 -0.191349 0.120452)
(-0.338471 -0.194998 0.0770373)
(-0.320417 -0.189508 0.102003)
(-0.329702 -0.192194 0.114616)
(-0.361057 -0.199109 0.124776)
(-0.449845 -0.217102 0.142155)
(-0.405787 -0.253619 0.0600622)
(-0.382664 -0.285184 0.0687527)
(-0.411194 -0.34139 0.0473348)
(-0.316386 -0.427376 0.0362451)
(-0.312205 -0.394736 0.049537)
(-0.28397 -0.416699 0.016039)
(-0.193221 -0.419936 -0.0200911)
(-0.337591 -0.254376 0.0357447)
(-0.403438 -0.33127 0.0413466)
(-0.248582 -0.457896 -0.00635953)
(-0.292041 -0.460301 0.000605441)
(-0.45233 -0.321538 0.0721881)
(-0.525162 -0.299268 0.13147)
(-0.498457 -0.318943 0.136521)
(-0.471241 -0.33709 0.111542)
(-0.458947 -0.350942 0.0943688)
(-0.493252 -0.37345 0.00862536)
(-0.710905 -0.318034 0.0631907)
(-0.717897 -0.530227 0.0389471)
(-0.549018 -0.554829 -0.00177111)
(-0.50988 -0.607582 -0.00401402)
(-0.465619 -0.64991 -0.0174805)
(-0.436875 -0.653172 -0.0211239)
(-0.41283 -0.531302 -0.0229495)
(-0.410954 -0.541239 -0.0484569)
(-0.409814 -0.541716 -0.0343767)
(-0.33537 -0.550851 -0.0170063)
(-0.267334 -0.596394 -0.00720391)
(-0.319367 -0.581399 -0.00341524)
(-0.403336 -0.513425 0.00716951)
(-0.331897 -0.535821 -0.00409825)
(-0.438593 -0.630909 -0.0118786)
(-0.292844 -0.473625 -0.0050321)
(-0.210202 -0.540162 -0.0181475)
(-0.280886 -0.525118 -0.0161311)
(-0.394349 -0.436474 -0.00065973)
(-0.413799 -0.363076 -0.0103762)
(-0.260477 -0.394552 -0.0109254)
(-0.156841 -0.423347 -0.0361231)
(-0.136192 -0.399942 -0.0223604)
(-0.23812 -0.205592 0.0226296)
(-0.382488 -0.343172 -0.00188239)
(-0.25153 -0.475028 -0.0195437)
(-0.218886 -0.468462 -0.0234349)
(-0.121987 -0.393301 -0.0296813)
(-0.219282 -0.194743 0.0395414)
(-0.346807 -0.338267 0.0123644)
(-0.366297 -0.363642 0.0543406)
(-0.195802 -0.511647 -0.0105749)
(-0.174091 -0.468567 0.0189844)
(-0.110033 -0.42072 0.00237954)
(-0.222463 -0.229347 0.0450503)
(-0.325957 -0.342237 0.052583)
(-0.335293 -0.339328 0.0572744)
(-0.180691 -0.463743 0.0170603)
(-0.109433 -0.409468 0.000563824)
(-0.232196 -0.220744 0.0625517)
(-0.286283 -0.221721 0.0779148)
(-0.240714 -0.230555 0.0717059)
(-0.350594 -0.337386 0.0788485)
(-0.189836 -0.465833 0.0488278)
(-0.117933 -0.416112 0.0379881)
(-0.140654 -0.450217 -0.0032541)
(-0.196626 -0.498154 0.0261269)
(-0.381988 -0.35104 0.0794314)
(-0.334573 -0.626145 -0.00327204)
(-0.355768 -0.632832 -0.011441)
(-0.499522 -0.512419 0.0579976)
(-0.651563 -0.445143 0.0983751)
(-0.667113 -0.287046 0.136449)
(-0.798591 -0.271807 0.170611)
(-0.8913 -0.321013 0.166538)
(-1.0211 -0.489171 0.126019)
(-1.108 -0.495432 0.167805)
(-1.13287 -0.502992 0.193006)
(-1.11284 -0.505269 0.21603)
(-1.04942 -0.501455 0.238932)
(-0.943633 -0.490389 0.260823)
(-0.794394 -0.466896 0.28742)
(-0.639256 -0.431611 0.327062)
(-0.396397 -0.380588 0.396278)
(-0.160119 -0.29397 0.485486)
(0.0491568 -0.15097 0.488221)
(0.342681 -0.158317 0.428135)
(0.342277 -0.214191 0.376909)
(0.205814 -0.128506 0.486172)
(0.274062 -0.00418999 0.765727)
(0.28509 0.0448333 1.03237)
(0.269718 0.0796781 1.1433)
(0.251129 0.132367 1.09358)
(0.212809 0.121985 0.957053)
(0.142053 0.120878 0.705794)
(0.0398453 0.187955 0.406241)
(0.17357 0.513959 0.425568)
(0.421358 0.515407 0.374763)
(0.607778 0.539135 0.375951)
(0.852336 0.497843 0.351981)
(1.00959 0.41682 0.318464)
(1.07227 0.322445 0.275213)
(1.05337 0.253673 0.235917)
(0.997683 0.21049 0.202002)
(1.01267 0.159049 0.169954)
(1.03262 0.118515 0.146567)
(0.974581 0.0920197 0.091893)
(0.872605 0.0421358 0.0686644)
(0.708164 -0.0233772 0.0545677)
(0.463587 -0.110419 0.0212908)
(0.23675 -0.216723 -0.0240016)
(0.097551 -0.616884 -0.112093)
(0.173239 -0.380618 -0.0788937)
(-0.18064 -0.169306 0.00451483)
(-0.10031 -0.386549 -0.0403839)
(-0.109768 -0.306155 -0.0661055)
(-0.111897 -0.330921 -0.0739661)
(-0.109156 -0.288236 -0.0622665)
(-0.0753163 -0.20768 -0.056598)
(-0.1576 -0.155184 -0.0177777)
(-0.225108 0.254515 0.165887)
(-0.130713 0.48681 0.125906)
(-0.0423937 0.611316 0.0739)
(0.0283206 0.656742 0.0737377)
(0.11219 0.672639 0.160438)
(0.207682 0.714026 0.279982)
(0.30319 0.749668 0.33051)
(0.389403 0.747138 0.365689)
(0.468979 0.686395 0.373998)
(0.535299 0.549624 0.371361)
(0.586917 0.330983 0.335887)
(0.566726 0.00240635 0.261347)
(0.390307 -0.333352 0.253872)
(0.290276 -0.334818 0.316575)
(0.225564 -0.290153 0.326472)
(0.159226 -0.200182 0.33216)
(0.147184 -0.00310404 0.311199)
(0.290573 0.00937449 0.338984)
(0.452888 -0.159023 0.329764)
(0.604935 -0.256564 0.341483)
(0.644177 -0.345491 0.350987)
(0.625239 -0.437175 0.353269)
(0.478552 -0.541402 0.335218)
(0.111698 -0.566561 0.317489)
(-0.168341 -0.300069 0.302572)
(-0.038583 -0.130438 0.355236)
(0.227809 -0.151792 0.238128)
(0.281081 -0.402414 0.0726422)
(0.00797273 -0.518949 0.238004)
(-0.1411 -0.748061 -0.141202)
(0.201818 -0.721265 -0.480702)
(0.307418 -0.396801 -0.177661)
(0.332864 -0.379004 0.0921193)
(0.348227 -0.550053 0.183717)
(0.331771 -0.891381 0.121114)
(0.533329 -0.873385 0.0658333)
(0.611213 -0.693283 0.097811)
(0.575917 -0.539825 0.136944)
(0.505823 -0.398085 0.186926)
(0.337246 -0.233176 0.244911)
(0.359504 -0.349556 0.19298)
(0.421583 -0.379988 0.140526)
(0.501862 -0.365954 0.0786299)
(0.607926 -0.293747 -0.0556095)
(0.854431 0.193933 -0.115372)
(0.902049 0.474945 -0.0201225)
(0.848735 0.67283 0.0524789)
(0.748563 0.770419 0.0945719)
(0.617362 0.793414 0.140484)
(0.4681 0.762142 0.155497)
(0.302955 0.700892 0.162698)
(0.131873 0.639764 0.0969535)
(-0.0387886 0.604217 0.0479049)
(-0.157177 0.561831 0.0601604)
(-0.276141 0.453434 0.122346)
(-0.403301 0.254356 0.168931)
(-0.288319 -0.110036 0.018652)
(-0.406858 0.0295129 0.0752696)
(-0.490103 0.0770339 0.101416)
(-0.526916 0.200782 0.137442)
(-0.536243 0.148677 0.105891)
(-0.497408 0.00962489 0.0259282)
(-0.453261 -0.0637546 0.0142819)
(-0.383682 -0.126767 -0.00818602)
(-0.288582 -0.196281 -0.021922)
(-0.191693 -0.232538 -0.0367499)
(-0.139594 -0.203637 -0.0287319)
(-0.199226 -0.16518 -0.0204784)
(-0.182 -0.324196 -0.0340963)
(-0.121977 -0.320025 -0.0453697)
(-0.100472 -0.341132 -0.0730576)
(-0.0788351 -0.378241 -0.106764)
(-0.0482174 -0.565857 -0.22469)
(-0.0884446 -0.505883 -0.152362)
(-0.10558 -0.615861 -0.116743)
(-0.150168 -0.625218 -0.0858665)
(-0.192356 -0.53938 -0.0777679)
(-0.295274 -0.354657 -0.0428423)
(-0.256117 0.182821 0.117513)
(-0.10182 0.383023 0.278903)
(-0.00631545 0.473722 0.422792)
(0.0672941 0.474892 0.548268)
(0.138585 0.415592 0.618663)
(0.190768 0.306793 0.650691)
(0.243104 0.157327 0.624322)
(0.230693 -0.0178421 0.526506)
(0.102626 -0.137529 0.431284)
(-0.0135479 -0.104359 0.441549)
(-0.0340474 0.0120959 0.421038)
(-0.035197 0.136589 0.424875)
(0.038045 0.244095 0.369774)
(0.201069 0.136852 0.387201)
(0.160572 0.269131 0.451235)
(-0.0530895 0.186807 -0.0342465)
(-0.169153 -0.0758787 -0.640491)
(-0.181204 -0.309763 -0.542842)
(-0.168559 -0.34726 -0.3126)
(-0.144197 -0.306633 -0.0955833)
(-0.063172 -0.588836 -0.105354)
(-0.0291429 -0.865255 -0.091565)
(0.000893438 -1.02055 -0.0893579)
(0.0310726 -1.1428 -0.0986471)
(0.0640399 -1.22566 -0.113043)
(0.0944456 -1.27806 -0.127079)
(0.121173 -1.3044 -0.139133)
(0.145363 -1.3128 -0.151244)
(0.166501 -1.31059 -0.16391)
(0.184982 -1.30129 -0.174884)
(0.200767 -1.28655 -0.183541)
(0.214794 -1.2669 -0.18887)
(0.227191 -1.24206 -0.191746)
(0.238496 -1.2107 -0.190734)
(0.248132 -1.17139 -0.18563)
(0.253954 -1.12176 -0.174854)
(0.25117 -1.05911 -0.158199)
(0.194389 -0.99586 -0.138466)
(0.13953 -0.910895 -0.122391)
(0.164126 -0.826912 -0.0867534)
(0.187378 -0.726473 -0.0879696)
(0.203508 -0.557997 -0.087872)
(0.246271 -0.441158 -0.0842328)
(0.0719516 -0.029764 -0.0952103)
(0.365261 -0.297281 0.043534)
(0.245225 -0.549505 -0.0569059)
(0.285398 -0.0942487 -0.0268109)
(0.180147 -0.0365088 -0.147072)
(0.200873 -0.111937 -0.124342)
(0.193584 -0.118888 -0.0804083)