/*--------------------------------*- C++ -*----------------------------------*\
| =========                 |                                                 |
| \\      /  F ield         | OpenFOAM: The Open Source CFD Toolbox           |
|  \\    /   O peration     | Version:  v2012                                 |
|   \\  /    A nd           | Website:  www.openfoam.com                      |
|    \\/     M anipulation  |                                                 |
\*---------------------------------------------------------------------------*/
FoamFile
{
    version     2.0;
    format      ascii;
    class       volVectorField;
    location    "430";
    object      U;
}
// * * * * * * * * * * * * * * * * * * * * * * * * * * * * * * * * * * * * * //

dimensions      [0 1 -1 0 0 0 0];


internalField   nonuniform List<vector> 
18258
(
(-0.176586 0.118762 0.136927)
(-0.0517993 0.246566 0.156557)
(-0.104691 0.215516 0.0961448)
(-0.0375122 0.0710531 0.0837228)
(-0.225987 0.204056 0.0171796)
(-0.15854 0.363208 0.0155387)
(-0.222261 0.0453165 0.0529135)
(-0.340445 -0.0518291 0.0744284)
(-0.447464 -0.104904 0.107647)
(-0.534253 -0.158919 0.145339)
(-0.620191 -0.21657 0.179608)
(-0.686693 -0.270962 0.309186)
(-0.677946 -0.333734 0.357056)
(-0.62168 -0.445045 0.385754)
(-0.48776 -0.542644 0.369521)
(-0.205335 -0.586986 0.340504)
(0.0731243 -0.374579 0.288679)
(0.0786417 -0.164795 0.298)
(-0.126681 -0.078346 0.236433)
(-0.398115 -0.273452 0.116478)
(-0.13755 -0.525169 0.29132)
(-0.195659 -0.364844 0.406549)
(-0.298976 -0.736131 0.300531)
(-0.3582 -0.777797 0.262465)
(-0.130337 -0.708266 0.135578)
(0.00657959 -0.644405 0.185261)
(-0.0154508 -0.338464 0.421997)
(0.174574 -0.112082 0.802565)
(0.29905 -0.0950806 0.889768)
(0.3168 0.0580245 0.90889)
(0.318212 0.184706 0.807661)
(0.167143 0.302617 0.0983801)
(0.0806219 0.127586 -0.430477)
(0.0160084 0.076666 -0.724236)
(-0.0634 0.0749945 -0.89829)
(-0.0537054 0.0710904 -1.07954)
(-0.0673969 0.070275 -1.22051)
(-0.0951349 0.0886287 -1.3159)
(-0.135544 0.0795173 -1.36419)
(-0.182137 0.0853516 -1.35056)
(-0.231484 0.0714361 -1.26686)
(-0.277461 0.0801542 -1.11339)
(-0.315877 0.0745761 -0.902694)
(-0.346653 0.0749402 -0.647869)
(-0.357188 0.0768303 -0.353967)
(-0.34129 0.0717164 -0.155572)
(-0.158357 0.165305 -0.199208)
(0.352131 -0.102927 -0.137652)
(0.609679 -0.133447 -0.159518)
(0.662423 -0.112829 -0.168887)
(0.777952 -0.135901 -0.177615)
(0.808384 -0.133635 -0.194735)
(0.506004 -0.00670952 -0.257749)
(0.259533 -0.138266 -0.218504)
(0.113374 -0.0424882 -0.158867)
(0.282261 -0.00972378 -0.169063)
(0.537401 -0.00248995 -0.173638)
(0.791774 -0.0299331 -0.177861)
(1.09233 -0.0345629 -0.175628)
(1.42819 -0.0486765 -0.185071)
(1.7629 -0.0644041 -0.18344)
(2.04717 -0.0809714 -0.166528)
(2.24798 -0.0926584 -0.138078)
(2.34835 -0.098771 -0.102453)
(2.35529 -0.0960872 -0.0678451)
(2.29519 -0.0884055 -0.0411504)
(2.20179 -0.0818982 -0.0244575)
(2.10941 -0.0757713 -0.0176625)
(2.04 -0.0669602 -0.0186227)
(1.99434 -0.0640739 -0.023248)
(1.96996 -0.0589137 -0.0256437)
(1.95936 -0.0499905 -0.0200764)
(1.94504 -0.0394631 -0.00303143)
(1.9015 -0.0246162 0.0245781)
(1.81379 -0.00754495 0.054178)
(1.69266 0.00987704 0.0775292)
(1.57167 0.022111 0.0803937)
(1.47894 0.0311304 0.0757358)
(1.40079 0.0382614 0.0710049)
(1.33848 0.0511866 0.0635823)
(1.28761 0.0578405 0.0654402)
(1.19398 0.0448377 0.0791632)
(1.097 0.0194699 0.111076)
(1.01428 0.00116372 0.128754)
(0.907335 -0.0204763 0.121741)
(0.763345 0.017005 0.146853)
(0.642418 0.0818534 0.133895)
(0.518774 0.100719 0.134915)
(0.381781 0.118297 0.119329)
(0.225105 0.127645 0.0973741)
(0.120299 0.190244 0.0927214)
(0.122678 0.00997595 0.198267)
(0.164318 -0.100829 0.144802)
(0.113356 -0.129571 0.0408709)
(0.104933 -0.115288 -0.140919)
(0.217261 -0.210604 -0.369368)
(0.263358 -0.23357 -0.554911)
(0.204944 -0.140824 -0.729718)
(0.106667 -0.0829496 -0.716987)
(0.0364144 0.0543292 -0.496507)
(-0.0834003 0.22793 -0.176118)
(-0.214281 0.197426 0.17685)
(-0.234206 0.0657818 0.150719)
(-0.339796 0.0165701 0.166723)
(-0.270355 0.141411 0.174908)
(-0.243851 0.288023 -0.0578987)
(-0.106179 0.160164 -0.40728)
(0.0655855 0.0023528 -0.587663)
(0.335095 -0.0952418 -0.63235)
(0.497276 -0.230776 -0.488835)
(0.352224 -0.211084 -0.279126)
(0.272053 -0.192057 -0.0996229)
(0.283268 -0.186619 0.0408013)
(0.281126 -0.140053 0.161173)
(0.226189 -0.0990099 0.192413)
(0.397532 -0.0811586 0.181709)
(0.536692 -0.0630588 0.177344)
(0.589137 -0.0517912 0.165311)
(0.701227 -0.0785302 0.161638)
(0.733345 -0.133581 0.133584)
(0.601634 -0.134166 0.136229)
(0.455046 -0.151698 0.140668)
(0.46196 -0.185804 0.0366377)
(0.611433 -0.162812 0.0526007)
(0.736904 -0.162073 0.0501418)
(0.905441 -0.141732 0.0821167)
(1.08889 -0.109942 0.111594)
(1.19 -0.0777694 0.14917)
(1.20916 -0.0105278 0.140741)
(1.24631 -0.00889815 0.121103)
(1.33617 -0.00682332 0.140621)
(1.37824 -0.00152013 0.13044)
(1.36977 -0.0123935 0.159379)
(1.32928 -0.048168 0.194702)
(1.32358 -0.0511108 0.191593)
(1.28637 -0.0620423 0.152737)
(1.27971 -0.0602682 0.13591)
(1.25909 -0.0479647 0.108922)
(1.25062 -0.0459303 0.110921)
(1.20245 0.00409496 0.109424)
(1.19538 0.02744 0.137869)
(1.07862 0.13647 0.271066)
(1.22715 0.0525743 0.25374)
(1.21902 0.019839 0.158888)
(1.26766 -0.0209132 0.128659)
(1.27967 -0.0250994 0.119582)
(1.28977 -0.0382237 0.144956)
(1.30864 -0.0414893 0.184166)
(1.35135 -0.0366892 0.218192)
(1.38721 -0.0366519 0.223148)
(1.42405 -0.0126666 0.18418)
(1.43752 -0.00175634 0.138746)
(1.51373 -0.00639315 0.151879)
(1.6118 -0.0166047 0.159936)
(1.75124 -0.0315381 0.144231)
(1.88353 -0.0541443 0.0493849)
(1.96502 -0.0756192 -0.0710347)
(1.98441 -0.0904927 -0.164254)
(1.96691 -0.0965299 -0.200581)
(1.95053 -0.0968837 -0.194599)
(1.96067 -0.0912763 -0.174902)
(2.00766 -0.082785 -0.144573)
(2.08909 -0.0703723 -0.108077)
(2.20016 -0.0601718 -0.0843534)
(2.31416 -0.0598243 -0.11323)
(2.39082 -0.0609 -0.173537)
(2.39326 -0.0584956 -0.277283)
(2.28722 -0.0502339 -0.392378)
(2.07166 -0.0425552 -0.483677)
(1.77118 -0.0367422 -0.540079)
(1.42725 -0.0315845 -0.548839)
(1.08114 -0.0193201 -0.527657)
(0.79254 -0.0243357 -0.459351)
(0.536817 -0.0157373 -0.415485)
(0.282854 -0.0212843 -0.386867)
(0.109011 -0.040271 -0.360789)
(0.102133 -0.0420935 -0.637293)
(0.0772581 -0.0372339 -0.873316)
(0.0505454 -0.0391639 -1.0577)
(0.0116548 -0.0404494 -1.1762)
(-0.0234789 -0.0281382 -1.21583)
(-0.0601016 -0.0156705 -1.16815)
(-0.0938217 0.00336035 -1.0391)
(-0.119208 0.0271071 -0.821811)
(-0.12114 0.0837157 -0.560217)
(-0.146546 0.132166 -0.0389363)
(-0.193291 0.0250993 0.57015)
(-0.209279 -0.0341002 0.755865)
(-0.22767 -0.00261754 0.924046)
(-0.232776 -0.0456251 1.06603)
(-0.318481 -0.105276 1.12878)
(-0.371493 -0.111866 1.14182)
(-0.369852 -0.233279 1.00292)
(-0.298063 -0.252032 0.770237)
(-0.459306 -0.667485 0.686764)
(-0.484975 -0.544827 0.7042)
(-0.413315 -0.412726 0.83106)
(-0.548707 -0.766433 0.856075)
(-0.683224 -0.831709 0.604279)
(-0.473795 -0.754255 0.798656)
(-0.434771 -0.574657 0.741251)
(-0.782743 -0.524931 0.748024)
(-0.902453 -0.408316 0.857516)
(-0.530259 -0.706479 0.822151)
(-0.440098 -0.577602 0.663639)
(-0.320181 -0.319691 0.403723)
(-0.29932 -0.181822 0.397356)
(-0.282713 -0.145856 0.351459)
(-0.234199 0.111656 0.11248)
(-0.16246 0.296705 -0.418226)
(-0.152255 0.187978 -0.638523)
(-0.132244 0.0285325 -0.913481)
(-0.0871832 -0.0569961 -1.08546)
(-0.0289544 -0.0695023 -1.23343)
(0.0379651 -0.102012 -1.26836)
(0.0976341 -0.0986907 -1.2336)
(0.172029 -0.109346 -1.11991)
(0.21612 -0.123571 -0.920225)
(0.260374 -0.146886 -0.705796)
(0.249384 -0.139537 -0.398732)
(0.418103 -0.0511031 -0.637976)
(0.768167 -0.118316 -0.458307)
(0.720791 -0.109204 -0.414365)
(0.618853 -0.0750727 -0.407891)
(0.547142 -0.107958 -0.416227)
(0.118206 -0.109922 -0.527442)
(0.169666 -0.122378 -0.91688)
(0.252923 -0.228355 -1.06786)
(0.34031 -0.285412 -0.953975)
(0.39046 -0.35417 -0.514251)
(0.199698 0.0325201 0.148948)
(0.264318 0.110964 0.17828)
(0.42886 -0.327992 0.334552)
(0.51646 -0.529852 0.504791)
(0.546002 -0.521968 0.552793)
(0.412757 -0.234593 0.677301)
(0.472183 -0.336776 0.566061)
(0.488015 -0.608224 0.549586)
(0.704849 -0.671519 0.319407)
(0.747331 -0.486538 0.455909)
(0.798826 -0.345573 0.598386)
(0.234042 -0.225092 0.573767)
(-0.238846 -0.267685 0.826419)
(-0.176679 -0.190959 0.677411)
(-0.673911 -0.298831 0.817609)
(-0.471652 -0.181433 0.692657)
(-0.322154 -0.0037658 0.540582)
(-0.218816 0.174826 -0.294677)
(-0.192944 -0.043396 -0.617877)
(-0.0578969 -0.168981 -1.09942)
(0.103671 -0.158166 -1.24946)
(0.274718 -0.0878526 -1.11802)
(0.432078 -0.107389 -0.701042)
(0.499749 -0.0737606 -0.626268)
(0.49225 -0.0436808 -0.616547)
(0.540087 -0.0896597 -0.643858)
(0.586667 -0.12229 -0.735475)
(0.39447 -0.0430454 -0.685319)
(0.354769 -0.0787387 -0.665148)
(0.131167 -0.113022 -0.672628)
(-0.114349 -0.0491242 -0.583431)
(0.290573 0.00391329 -0.594497)
(0.348129 0.0132447 -0.614497)
(0.635335 -0.0993695 -0.650633)
(0.572618 -0.0983747 -0.384468)
(0.265559 0.0712516 -0.369263)
(0.271749 0.0544019 -0.253108)
(-0.304888 -0.0402064 0.104456)
(-0.308617 0.144769 -0.0122489)
(-0.283999 -0.0249383 -0.452068)
(0.0845315 -0.200205 -0.578565)
(0.357971 -0.278796 -0.570986)
(0.722336 -0.34446 -0.407391)
(0.808062 -0.417407 -0.378738)
(0.768884 -0.290138 -0.296311)
(0.810663 -0.364366 -0.220217)
(0.825549 -0.485571 -0.284894)
(0.737616 -0.4303 -0.279703)
(0.714829 -0.304211 -0.333147)
(0.742894 -0.251047 -0.343165)
(0.789065 -0.310921 -0.212982)
(0.801766 -0.366735 -0.161412)
(0.890917 -0.464586 -0.156963)
(1.15752 -0.630596 -0.117946)
(1.61678 -0.725895 -0.0991428)
(1.99454 -0.67178 -0.0383457)
(2.15149 -0.489982 0.0472262)
(2.07191 -0.290881 0.0954325)
(1.90666 -0.16258 0.103199)
(1.80893 -0.0939405 0.0996928)
(1.71199 0.00177403 0.0992299)
(1.57443 0.0906182 0.0913923)
(1.43702 0.109455 0.0484074)
(1.33243 0.0599511 0.0277241)
(1.24261 -0.00199358 0.0221225)
(1.14089 -0.051414 0.0239388)
(1.05684 -0.0764135 0.0221421)
(0.999056 -0.0604862 0.0178487)
(0.823273 -0.108304 -0.0229713)
(0.717725 0.00455826 0.0110841)
(0.634281 0.0711406 0.00997679)
(0.498504 0.0262899 0.007631)
(0.360093 -0.0584902 -0.0125776)
(0.139444 -0.145587 -0.0317442)
(0.225945 -0.30753 0.00104637)
(0.353585 -0.081705 0.0121038)
(-0.00227408 -0.229862 -0.00918825)
(0.0432435 -0.545826 -0.0503829)
(0.0122188 -0.712477 -0.0524969)
(-0.00782465 -0.876563 -0.0531295)
(-0.0257814 -1.0067 -0.0648055)
(-0.0358109 -1.10276 -0.0955661)
(-0.0462562 -1.15728 -0.104832)
(-0.0577477 -1.21475 -0.117985)
(-0.0879829 -1.27672 -0.133998)
(-0.113124 -1.32167 -0.149327)
(-0.137143 -1.35566 -0.16226)
(-0.159218 -1.37758 -0.173344)
(-0.17831 -1.38911 -0.183033)
(-0.193769 -1.39086 -0.189778)
(-0.205943 -1.38379 -0.193654)
(-0.215972 -1.36906 -0.193785)
(-0.224509 -1.34716 -0.191866)
(-0.232765 -1.31675 -0.186414)
(-0.240411 -1.2759 -0.178044)
(-0.245852 -1.22168 -0.164986)
(-0.243752 -1.15251 -0.147233)
(-0.190894 -1.07298 -0.12683)
(-0.141204 -0.970175 -0.112435)
(-0.165699 -0.869527 -0.0793684)
(-0.18969 -0.755406 -0.0817656)
(-0.204878 -0.543789 -0.0853627)
(-0.273454 -0.450806 -0.0918621)
(0.0228571 0.0527886 -0.116024)
(-0.350869 -0.30877 0.0253369)
(-0.231624 -0.617949 -0.0543757)
(-0.270303 -0.0994124 -0.0108606)
(-0.457963 -0.182648 0.0646706)
(-0.678771 -0.198803 0.0822783)
(-0.84239 -0.209359 0.114065)
(-0.953987 -0.223196 0.144181)
(-1.03494 -0.232584 0.203768)
(-1.11843 -0.244374 0.245286)
(-1.18775 -0.244234 0.302046)
(-1.20147 -0.248423 0.336333)
(-1.17448 -0.250143 0.36626)
(-1.10747 -0.248811 0.394575)
(-0.996529 -0.243089 0.422778)
(-0.841685 -0.230035 0.454238)
(-0.66741 -0.20571 0.493761)
(-0.420273 -0.146622 0.54334)
(-0.135825 -0.119162 0.567907)
(-0.153017 0.0284106 0.823251)
(-0.156113 0.0828854 1.04264)
(-0.156009 0.114983 1.11193)
(-0.157504 0.163885 1.02022)
(-0.161837 0.15315 0.837226)
(-0.15023 0.131257 0.566834)
(-0.124713 0.143327 0.284933)
(-0.225685 0.43873 0.370382)
(-0.507451 0.466932 0.334861)
(-0.69284 0.480102 0.338864)
(-0.917994 0.465046 0.332478)
(-1.10051 0.424571 0.308592)
(-1.22796 0.353254 0.265951)
(-1.28393 0.273406 0.218887)
(-1.26691 0.206209 0.181686)
(-1.23394 0.147971 0.158441)
(-1.19098 0.115266 0.140541)
(-1.10146 0.0925425 0.0903288)
(-0.95955 0.0451789 0.0699705)
(-0.768016 -0.0206949 0.0595494)
(-0.501346 -0.113973 0.0190458)
(-0.253524 -0.207848 -0.0189198)
(-0.274396 -0.1976 -0.0661341)
(-0.318646 -0.177016 0.00842229)
(-0.314858 -0.174218 0.059844)
(-0.273014 -0.156739 0.151195)
(-0.381267 -0.234063 0.118882)
(-0.423244 -0.297313 0.118996)
(-0.327369 -0.288421 0.177718)
(-0.270323 -0.215582 0.0459523)
(-0.140927 -0.101166 -0.0254483)
(-0.141113 -0.0770578 -0.006727)
(-0.138605 -0.0744365 -0.0351369)
(-0.169306 -0.0558689 -0.0676929)
(-0.167923 -0.501917 -0.148379)
(-0.126227 -0.480272 -0.137676)
(-0.110785 -0.447661 -0.0949069)
(-0.10059 -0.424578 -0.145133)
(-0.267082 -0.538878 -0.03104)
(-0.277056 -0.576486 -0.0252209)
(-0.284699 -0.632997 -0.0832217)
(-0.338084 -0.583567 -0.0192703)
(-0.340857 -0.5307 0.0557639)
(-0.302178 -0.359634 0.0860515)
(-0.445198 -0.317421 0.115283)
(-0.362305 -0.432346 0.0407971)
(-0.348318 -0.523403 0.0144794)
(-0.378706 -0.508987 -0.0232193)
(-0.429264 -0.394949 0.0325326)
(-0.498065 -0.347019 0.0734813)
(-0.529708 -0.255193 0.164304)
(-0.592046 -0.215733 0.241889)
(-0.681021 -0.197826 0.256511)
(-0.577198 -0.206982 0.212107)
(-0.517473 -0.187987 0.181638)
(-0.545786 -0.185095 0.118192)
(-0.540331 -0.172161 0.0921191)
(-0.496838 -0.184308 0.000859752)
(-0.762681 -0.0867414 0.06465)
(-0.973045 -0.00536845 0.0897398)
(-1.08081 0.0521727 0.103609)
(-1.13007 0.0750922 0.138222)
(-1.16768 0.0358489 0.238063)
(-1.25246 0.0690309 0.267309)
(-1.31848 0.11948 0.349189)
(-1.332 0.170995 0.431835)
(-1.27453 0.222105 0.524224)
(-1.14941 0.261108 0.603753)
(-0.976594 0.281389 0.6481)
(-0.776192 0.283726 0.656925)
(-0.623122 0.288992 0.643859)
(-0.341711 0.272624 0.643483)
(-0.435108 0.245499 0.874261)
(-0.467098 0.228306 1.00282)
(-0.460113 0.180632 1.08109)
(-0.440893 0.124599 1.01299)
(-0.439559 0.0593955 0.797635)
(-0.711237 -0.00461888 0.744042)
(-0.721799 0.0719922 0.944257)
(-0.7404 0.117746 1.02333)
(-0.745173 0.164875 0.979325)
(-0.695142 0.199301 0.872165)
(-0.83855 0.186755 0.862084)
(-0.880186 0.146422 0.964914)
(-0.882957 0.0887351 1.00108)
(-0.873287 0.0423545 0.926202)
(-0.867011 -0.0386789 0.706862)
(-1.01049 -0.0600287 0.675787)
(-1.02507 0.0208224 0.901083)
(-1.0381 0.0698646 0.966304)
(-1.04647 0.122388 0.944114)
(-1.02169 0.174266 0.853947)
(-1.16554 0.163169 0.804114)
(-1.16597 0.110846 0.892854)
(-1.14908 0.0573773 0.914731)
(-1.13181 0.00668543 0.859532)
(-1.11162 -0.072871 0.64013)
(-1.17185 -0.0835749 0.595565)
(-1.19755 -0.00606326 0.79702)
(-1.22407 0.0437722 0.84029)
(-1.25363 0.0919994 0.811727)
(-1.27141 0.141498 0.717098)
(-1.32109 0.110942 0.610501)
(-1.29246 0.0689377 0.70954)
(-1.25381 0.0250723 0.747503)
(-1.21821 -0.0216548 0.716585)
(-1.18788 -0.0934305 0.53986)
(-1.15462 -0.10472 0.472804)
(-1.18301 -0.0413793 0.621586)
(-1.22207 0.00020681 0.641007)
(-1.27664 0.0391689 0.606767)
(-1.3099 0.0742835 0.509495)
(-1.22679 0.035679 0.414686)
(-1.18983 0.00282812 0.500458)
(-1.12989 -0.0322352 0.531492)
(-1.08743 -0.0601398 0.520438)
(-1.04087 -0.111836 0.386883)
(-0.919816 -0.120236 0.315299)
(-0.924184 -0.109473 0.358282)
(-0.973814 -0.0804649 0.438511)
(-0.957798 -0.0871238 0.425344)
(-0.929034 -0.10275 0.395077)
(-1.00595 -0.0685472 0.381822)
(-0.997701 -0.0631363 0.307827)
(-1.00245 -0.0392373 0.283167)
(-1.04564 -0.0271981 0.209411)
(-1.04064 -0.00952927 0.202665)
(-0.807482 -0.105271 0.145571)
(-0.82041 -0.125332 0.158181)
(-0.789352 -0.128578 0.216675)
(-0.825295 -0.14165 0.249865)
(-0.611129 -0.282074 0.133506)
(-0.557955 -0.291872 0.115329)
(-0.504381 -0.327329 0.133045)
(-0.42089 -0.400131 0.116637)
(-0.397436 -0.384515 0.150134)
(-0.488728 -0.284609 0.165906)
(-0.606846 -0.23936 0.18427)
(-0.616407 -0.268161 0.09732)
(-0.514401 -0.378403 0.0445508)
(-0.440276 -0.460791 0.0286353)
(-0.397836 -0.526989 0.0584147)
(-0.38435 -0.69868 0.122981)
(-0.387503 -0.664068 0.128628)
(-0.405963 -0.380809 0.107662)
(-0.409067 -0.537106 0.0821488)
(-0.399893 -0.602649 0.0445238)
(-0.216237 -0.789251 -0.157963)
(-0.193787 -0.795118 -0.259155)
(-0.11556 -0.704828 -0.369036)
(-0.0786376 -0.624953 -0.385004)
(-0.0452832 -0.589918 -0.347316)
(-0.0139347 -0.557117 -0.301142)
(0.0313159 -0.503091 -0.232075)
(0.124141 -0.456656 -0.108978)
(0.124705 -0.581612 -0.121957)
(0.116788 -0.638317 -0.12026)
(0.084771 -0.696437 -0.157675)
(0.0921217 -0.751188 -0.155726)
(0.100247 -0.807705 -0.174814)
(0.117953 -0.836039 -0.166894)
(0.125962 -0.842847 -0.152741)
(0.126201 -0.829133 -0.130269)
(0.117627 -0.793149 -0.0960681)
(0.104015 -0.736803 -0.0429294)
(0.0385393 -0.657629 0.032651)
(0.00149441 -0.549393 0.151498)
(0.0140031 -0.304466 0.358195)
(-0.144131 0.00590124 0.44867)
(-0.363804 0.0932909 0.351124)
(-0.390607 -0.0411422 0.255951)
(-0.218584 -0.172225 0.25251)
(-0.178415 -0.188192 0.268723)
(-0.155826 -0.177222 0.213864)
(-0.0876928 -0.141117 0.205205)
(0.00192707 -0.0263801 0.0691397)
(-0.0375988 0.112674 0.0804099)
(-0.0812761 0.150613 0.0800232)
(-0.0500145 0.21447 0.169363)
(-0.00842183 0.183331 0.189804)
(0.0143896 0.0446235 0.141754)
(-0.041905 -0.025325 0.225638)
(0.0251119 0.0954159 0.32153)
(-0.000976559 -0.0622259 0.28525)
(0.0791351 0.144454 0.245654)
(0.0918491 -0.0270249 0.227718)
(-0.0188067 -0.25943 0.456195)
(0.0529554 -0.363547 0.544111)
(0.173234 -0.509856 0.512398)
(0.164617 -0.697696 0.349221)
(0.0744921 -0.820739 0.141954)
(0.0590302 -0.892078 -0.00878923)
(0.0651553 -0.925922 -0.119955)
(0.0631818 -0.952066 -0.197856)
(0.0600523 -0.966606 -0.248609)
(0.0519199 -0.964694 -0.279126)
(0.0417769 -0.944711 -0.292374)
(0.0291953 -0.907063 -0.289174)
(0.0234996 -0.832432 -0.249595)
(0.0072641 -0.786557 -0.328816)
(0.0434572 -0.705732 -0.225346)
(0.0474535 -0.655452 -0.211507)
(0.0446538 -0.637837 -0.232172)
(0.00454095 -0.703831 -0.325136)
(-0.0225989 -0.743296 -0.382788)
(-0.0573992 -0.778447 -0.41048)
(-0.0733936 -0.845171 -0.401315)
(-0.132358 -0.905668 -0.345376)
(-0.0943042 -0.970283 -0.330888)
(-0.0892491 -0.981068 -0.372432)
(-0.0539118 -0.919518 -0.417697)
(-0.043643 -0.869594 -0.431675)
(-0.0177827 -0.827589 -0.404105)
(-0.009721 -0.871107 -0.340873)
(-0.0394883 -0.903208 -0.373713)
(-0.0562424 -0.949777 -0.395994)
(-0.0239146 -0.992998 -0.405317)
(-0.0488334 -1.06142 -0.41972)
(-0.0666793 -1.04405 -0.423502)
(-0.0937631 -0.921785 -0.34423)
(-0.187098 -0.7629 -0.223853)
(-0.199335 -0.614381 -0.0401845)
(-0.100533 -0.734552 -0.19597)
(-0.0799803 -0.840795 -0.258409)
(-0.0595349 -0.930187 -0.322333)
(-0.0608233 -0.947529 -0.333088)
(-0.0276102 -0.830533 -0.379528)
(-0.023763 -0.725586 -0.335711)
(-0.03192 -0.543223 -0.252065)
(-0.0158212 -0.353778 -0.160822)
(0.0321236 -0.0920564 -0.20561)
(-0.249583 -0.434619 0.0740176)
(-0.330707 -0.462245 0.0267561)
(0.223599 -0.117813 -0.244876)
(-0.172379 -0.247676 0.044281)
(-0.218175 -0.266853 -0.115696)
(-0.258555 -0.269128 -0.102709)
(-0.208741 -0.281914 -0.0208882)
(0.0813571 0.140489 -0.218764)
(0.102924 0.0592262 -0.231101)
(0.101166 -0.000551724 -0.259616)
(0.0969008 7.74527e-05 -0.264956)
(-0.0794379 -0.430406 -0.200242)
(-0.132594 -0.450511 -0.221762)
(-0.185788 -0.458885 -0.205971)
(-0.248846 -0.445604 -0.168885)
(-0.16889 -0.548112 -0.183967)
(-0.126708 -0.560069 -0.256748)
(-0.0960793 -0.566437 -0.290732)
(-0.0602977 -0.554698 -0.290779)
(-0.0504833 -0.743806 -0.348204)
(-0.0815051 -0.758388 -0.33142)
(-0.106311 -0.77062 -0.281354)
(-0.147135 -0.760776 -0.19452)
(-0.134473 -0.822599 -0.182152)
(-0.128776 -0.883639 -0.20012)
(-0.0981562 -0.906398 -0.297099)
(-0.072658 -0.873531 -0.373272)
(-0.0490514 -0.853417 -0.399329)
(-0.0766922 -0.969176 -0.37021)
(-0.112141 -0.990737 -0.335385)
(-0.138113 -1.01094 -0.283285)
(-0.137135 -1.09375 -0.346646)
(-0.0800717 -1.06827 -0.398646)
(-0.072461 -1.14591 -0.440435)
(-0.0493906 -1.12452 -0.472998)
(-0.0270096 -1.11559 -0.45821)
(-0.00342712 -1.04371 -0.415026)
(0.0119989 -1.07587 -0.406277)
(-0.012748 -1.15419 -0.469246)
(-0.0398189 -1.18117 -0.49382)
(-0.0684784 -1.2092 -0.462663)
(-0.13147 -1.22963 -0.379006)
(-0.134804 -1.16732 -0.369017)
(-0.283516 -1.04738 -0.225314)
(-0.45722 -1.14668 -0.0769516)
(-0.463611 -1.10076 -0.067469)
(-0.415942 -1.04649 -0.0647257)
(-0.302785 -1.037 -0.0737576)
(-0.255689 -0.968257 -0.0639517)
(-0.309109 -0.945691 -0.057543)
(-0.342218 -0.849744 -0.04212)
(-0.378 -0.71429 -0.0377811)
(-0.473674 -0.627438 -0.0366128)
(-0.409727 -0.401802 -0.0339423)
(-0.464608 -0.661351 -0.00575818)
(-0.316471 -0.458017 0.0246834)
(-0.638308 -0.399092 0.0054613)
(-0.815335 -0.379654 0.060145)
(-0.91793 -0.384756 0.0846187)
(-0.968046 -0.397538 0.124355)
(-0.980012 -0.52573 0.0977782)
(-0.940284 -0.689975 0.0653812)
(-0.923962 -0.75082 0.0525023)
(-0.874407 -0.849223 0.0364367)
(-0.858773 -0.896454 0.0304514)
(-0.820881 -0.928812 0.00760216)
(-0.703541 -0.968586 -0.0230302)
(-0.592325 -1.00322 -0.041998)
(-0.62659 -0.95379 -0.0172042)
(-0.484782 -0.972901 -0.0306842)
(-0.502661 -0.894541 -0.0300994)
(-0.530277 -0.797986 -0.0232345)
(-0.559098 -0.73167 -0.0194129)
(-0.686265 -0.713186 -0.00979702)
(-0.674825 -0.598726 -0.00776776)
(-0.82408 -0.577754 0.0303437)
(-0.918521 -0.560077 0.0504019)
(-0.881363 -0.697675 0.0231381)
(-0.800327 -0.705278 0.0121925)
(-0.777436 -0.790586 0.00227681)
(-0.660759 -0.799132 -0.0107713)
(-0.635598 -0.883605 -0.0170371)
(-0.748366 -0.867109 -0.00514189)
(-0.825449 -0.851409 0.00443069)
(-0.863113 -0.77374 0.0135031)
(-0.801611 -0.739632 -0.0117783)
(-0.624283 -0.612825 0.0019368)
(-0.847187 -0.660248 0.0116926)
(-0.868259 -0.518794 0.0520901)
(-0.870682 -0.380055 0.058185)
(-0.843696 -0.282446 0.121682)
(-0.83259 -0.302466 0.0765917)
(-0.879104 -0.35087 0.0525942)
(-0.875571 -0.204043 0.129099)
(-0.894648 -0.184346 0.174153)
(-0.761139 -0.161645 0.158534)
(-0.767094 -0.129179 0.259288)
(-0.778487 -0.120878 0.302137)
(-0.822343 -0.108762 0.35562)
(-0.829958 -0.119378 0.353017)
(-0.643176 -0.181913 0.251433)
(-0.608102 -0.173841 0.248793)
(-0.568082 -0.180663 0.215845)
(-0.551487 -0.175829 0.189121)
(-0.569017 -0.191371 0.120481)
(-0.33845 -0.195035 0.0771004)
(-0.32041 -0.189547 0.102071)
(-0.329725 -0.19223 0.114726)
(-0.361072 -0.199155 0.124891)
(-0.449908 -0.217134 0.142303)
(-0.40584 -0.253655 0.0602118)
(-0.382736 -0.285221 0.0689251)
(-0.411275 -0.34146 0.0474835)
(-0.316454 -0.427474 0.0364233)
(-0.312273 -0.394811 0.0497353)
(-0.284018 -0.416791 0.0162255)
(-0.193259 -0.420019 -0.0199297)
(-0.337647 -0.254418 0.0358861)
(-0.403513 -0.331345 0.0414629)
(-0.248635 -0.457994 -0.00622476)
(-0.292104 -0.460414 0.000766537)
(-0.452412 -0.321609 0.0723096)
(-0.525253 -0.29933 0.131577)
(-0.498521 -0.319003 0.13661)
(-0.471287 -0.337143 0.111616)
(-0.458965 -0.350994 0.0944138)
(-0.493236 -0.373494 0.00866151)
(-0.710891 -0.31807 0.0632103)
(-0.717882 -0.530298 0.0389647)
(-0.548992 -0.55491 -0.00173988)
(-0.509849 -0.607674 -0.00397834)
(-0.465571 -0.650016 -0.0174366)
(-0.436831 -0.653273 -0.021058)
(-0.412786 -0.531355 -0.0228753)
(-0.410894 -0.541288 -0.0484128)
(-0.409751 -0.54177 -0.0343257)
(-0.335337 -0.550905 -0.0169167)
(-0.267293 -0.596458 -0.00710422)
(-0.319324 -0.581478 -0.00331947)
(-0.403313 -0.513488 0.00723506)
(-0.331868 -0.535884 -0.00401913)
(-0.438531 -0.630998 -0.01183)
(-0.292821 -0.473678 -0.00494993)
(-0.210166 -0.540219 -0.0180383)
(-0.280849 -0.525188 -0.0160287)
(-0.394329 -0.436529 -0.000594707)
(-0.413779 -0.363122 -0.0103219)
(-0.260461 -0.394584 -0.0108512)
(-0.15682 -0.423401 -0.0360195)
(-0.136164 -0.400005 -0.0222372)
(-0.2381 -0.20563 0.0227306)
(-0.382463 -0.343215 -0.00180206)
(-0.251494 -0.475095 -0.0194375)
(-0.218854 -0.468528 -0.0233209)
(-0.121967 -0.393368 -0.0295512)
(-0.21928 -0.194782 0.0396542)
(-0.346793 -0.338313 0.0124565)
(-0.3663 -0.363697 0.0544121)
(-0.195788 -0.511724 -0.0104564)
(-0.174084 -0.468642 0.0191037)
(-0.110029 -0.420793 0.00252529)
(-0.222464 -0.229388 0.0451603)
(-0.325957 -0.342289 0.0526706)
(-0.335326 -0.339383 0.0573745)
(-0.180704 -0.463818 0.0171846)
(-0.109443 -0.409542 0.0007137)
(-0.232221 -0.220785 0.0626776)
(-0.286308 -0.221757 0.0780399)
(-0.240737 -0.230593 0.0718338)
(-0.350633 -0.337438 0.0789551)
(-0.189861 -0.465898 0.0489597)
(-0.117941 -0.41617 0.0381481)
(-0.140662 -0.450283 -0.00307938)
(-0.196644 -0.498227 0.0262543)
(-0.382028 -0.351094 0.0795228)
(-0.334604 -0.626241 -0.00316796)
(-0.355761 -0.632928 -0.0113618)
(-0.499542 -0.512501 0.0580391)
(-0.651601 -0.445216 0.098402)
(-0.667146 -0.287088 0.136477)
(-0.79864 -0.271845 0.170633)
(-0.891383 -0.321063 0.166572)
(-1.02112 -0.489208 0.126014)
(-1.10807 -0.495454 0.167804)
(-1.13297 -0.502997 0.193001)
(-1.11296 -0.505255 0.216019)
(-1.04958 -0.501417 0.238913)
(-0.943821 -0.490328 0.260796)
(-0.794637 -0.466813 0.287384)
(-0.639543 -0.431503 0.327)
(-0.396654 -0.38037 0.396091)
(-0.160697 -0.293514 0.484966)
(0.0476034 -0.150869 0.487898)
(0.341179 -0.158519 0.428135)
(0.341211 -0.21505 0.377281)
(0.205494 -0.128581 0.486836)
(0.273608 -0.00412848 0.766595)
(0.284482 0.0449971 1.03325)
(0.26902 0.0799239 1.14395)
(0.250404 0.132623 1.09372)
(0.212157 0.122092 0.956624)
(0.141521 0.120746 0.705071)
(0.0392461 0.187386 0.405579)
(0.17317 0.513626 0.424943)
(0.421462 0.515407 0.374299)
(0.608192 0.538536 0.375542)
(0.852079 0.497449 0.351919)
(1.00932 0.41699 0.318653)
(1.07263 0.323117 0.275524)
(1.05513 0.254641 0.236088)
(1.00127 0.21106 0.201559)
(1.01732 0.159337 0.169379)
(1.03543 0.118956 0.146103)
(0.976954 0.092517 0.0916797)
(0.874118 0.0423903 0.0685897)
(0.709181 -0.0231257 0.0545883)
(0.46435 -0.110258 0.0212429)
(0.237283 -0.216621 -0.0237469)
(0.0981094 -0.617956 -0.112033)
(0.173956 -0.381301 -0.0788866)
(-0.180751 -0.169852 0.00448821)
(-0.100416 -0.388706 -0.0411009)
(-0.109808 -0.310177 -0.0670183)
(-0.111976 -0.336698 -0.074948)
(-0.109216 -0.29644 -0.063787)
(-0.0758418 -0.219804 -0.05909)
(-0.153831 -0.169535 -0.022552)
(-0.226556 0.230552 0.165116)
(-0.135386 0.475722 0.129302)
(-0.0458859 0.60283 0.074859)
(0.0249012 0.65389 0.072216)
(0.107889 0.670789 0.155869)
(0.203068 0.710486 0.274431)
(0.299477 0.745354 0.329019)
(0.386685 0.74281 0.36507)
(0.466847 0.683054 0.373612)
(0.533324 0.547664 0.370946)
(0.584459 0.330208 0.335319)
(0.564684 0.00502528 0.260452)
(0.386537 -0.330672 0.251836)
(0.286743 -0.331175 0.315475)
(0.221825 -0.285788 0.325164)
(0.155494 -0.195129 0.331386)
(0.145871 0.00254561 0.309069)
(0.290892 0.0101547 0.336418)
(0.451568 -0.158169 0.328424)
(0.602524 -0.255783 0.340691)
(0.641553 -0.344893 0.350493)
(0.6225 -0.436803 0.352898)
(0.476222 -0.541313 0.335335)
(0.109524 -0.567167 0.318982)
(-0.168891 -0.301408 0.303961)
(-0.0409247 -0.130995 0.355248)
(0.225301 -0.150417 0.238117)
(0.280427 -0.399169 0.0732448)
(0.00844167 -0.515663 0.237351)
(-0.140232 -0.744458 -0.138683)
(0.203292 -0.719706 -0.478831)
(0.304473 -0.394892 -0.17648)
(0.332284 -0.379099 0.0931453)
(0.34628 -0.550982 0.185491)
(0.329004 -0.892097 0.122132)
(0.529975 -0.872718 0.0655589)
(0.606833 -0.69223 0.0972715)
(0.571337 -0.538419 0.137015)
(0.501288 -0.396397 0.187184)
(0.333688 -0.231241 0.244626)
(0.354986 -0.346743 0.193661)
(0.416476 -0.376995 0.141311)
(0.497182 -0.363541 0.079769)
(0.601621 -0.291108 -0.0546939)
(0.850348 0.19745 -0.113744)
(0.899347 0.475396 -0.0185784)
(0.846309 0.671228 0.0538648)
(0.745426 0.76701 0.0959202)
(0.612693 0.789093 0.141871)
(0.462152 0.758381 0.156235)
(0.295923 0.697971 0.160151)
(0.124766 0.638431 0.0932506)
(-0.0437752 0.603028 0.0483021)
(-0.161622 0.555475 0.0626889)
(-0.281506 0.443354 0.127223)
(-0.405257 0.234583 0.171252)
(-0.287642 -0.122605 0.0149743)
(-0.404187 -0.00404236 0.0668448)
(-0.487033 0.0491081 0.0941137)
(-0.531698 0.174988 0.13442)
(-0.535801 0.126067 0.10301)
(-0.494853 -0.0154095 0.0231625)
(-0.453482 -0.0815443 0.0134333)
(-0.386976 -0.141689 -0.00948182)
(-0.292102 -0.206659 -0.0238596)
(-0.191528 -0.241978 -0.0382786)
(-0.141051 -0.214933 -0.0306734)
(-0.198524 -0.178559 -0.0229992)
(-0.181983 -0.333032 -0.0381521)
(-0.122253 -0.328439 -0.0478094)
(-0.100326 -0.348751 -0.0756506)
(-0.0781989 -0.386099 -0.110079)
(-0.0478608 -0.570821 -0.227408)
(-0.0870532 -0.510966 -0.155769)
(-0.102576 -0.624228 -0.122076)
(-0.147481 -0.633239 -0.0874135)
(-0.188527 -0.553318 -0.0774093)
(-0.288809 -0.374256 -0.0417194)
(-0.265435 0.148707 0.108061)
(-0.110136 0.374983 0.27202)
(-0.012092 0.464482 0.414149)
(0.0636756 0.470255 0.542282)
(0.135844 0.41211 0.616213)
(0.187848 0.30504 0.648994)
(0.239252 0.157214 0.623645)
(0.227852 -0.0150856 0.525005)
(0.0978358 -0.133843 0.424432)
(-0.017062 -0.100661 0.436187)
(-0.0369044 0.0191369 0.414703)
(-0.0359556 0.142025 0.418951)
(0.0385213 0.247934 0.363001)
(0.201956 0.137709 0.380702)
(0.160943 0.270654 0.445347)
(-0.0546598 0.179104 -0.04997)
(-0.172165 -0.0758177 -0.636696)
(-0.183212 -0.312373 -0.531385)
(-0.168767 -0.343192 -0.299965)
(-0.145395 -0.301762 -0.0928445)
(-0.0632154 -0.583099 -0.104238)
(-0.0287671 -0.859902 -0.0918021)
(0.00145747 -1.01773 -0.0899918)
(0.0316596 -1.14208 -0.0995731)
(0.0647138 -1.22601 -0.114017)
(0.0951432 -1.27886 -0.127903)
(0.121832 -1.30536 -0.139805)
(0.145957 -1.31379 -0.151795)
(0.167011 -1.31159 -0.164322)
(0.185387 -1.30236 -0.175181)
(0.201059 -1.28771 -0.183751)
(0.214981 -1.26812 -0.188992)
(0.227294 -1.24329 -0.191795)
(0.238537 -1.21186 -0.190719)
(0.248131 -1.17241 -0.185568)
(0.253925 -1.12263 -0.174769)
(0.251119 -1.05985 -0.15811)
(0.194341 -0.99647 -0.138373)
(0.139495 -0.911414 -0.12231)
(0.164078 -0.827354 -0.0866911)
(0.187329 -0.726834 -0.0879097)
(0.203464 -0.558283 -0.0878181)
(0.246205 -0.441362 -0.0841887)
(0.0718995 -0.0298952 -0.09514)
(0.365283 -0.297377 0.0435964)
(0.245212 -0.549643 -0.0568414)
(0.285379 -0.0942863 -0.0267507)
(0.18008 -0.0365206 -0.146958)
(0.200834 -0.111997 -0.124126)
(0.193556 -0.118931 -0.0800843)