/*--------------------------------*- C++ -*----------------------------------*\
| =========                 |                                                 |
| \\      /  F ield         | OpenFOAM: The Open Source CFD Toolbox           |
|  \\    /   O peration     | Version:  v2012                                 |
|   \\  /    A nd           | Website:  www.openfoam.com                      |
|    \\/     M anipulation  |                                                 |
\*---------------------------------------------------------------------------*/
FoamFile
{
    version     2.0;
    format      ascii;
    class       surfaceScalarField;
    location    "170";
    object      phi;
}
// * * * * * * * * * * * * * * * * * * * * * * * * * * * * * * * * * * * * * //

dimensions      [1 0 -1 0 0 0 0];
oriented        oriented;


internalField   nonuniform List<scalar> 
63799
(
0.00326778
-0.00546475
0.00430269
-0.00836014
-0.0058041
0.00882708
-0.00502364
-0.00842493
0.0104967
0.00613268
0.00622825
-0.00780336
-0.00352781
0.0038018
0.00325711
-0.000893808
0.00431615
0.00172936
-0.00229106
0.00548339
0.00294201
-0.00418016
0.00149884
0.00389668
0.0029512
-0.00642655
0.00487516
0.00448144
-0.0059133
0.00427287
0.00536284
-0.00449248
0.00350856
0.00643591
-0.0030706
0.00189332
0.0122111
-0.00515102
-0.000817313
0.0141682
-0.0116064
0.00909308
0.0151574
-0.0132242
0.0115414
0.0182755
-0.0123861
0.00849242
0.0179736
-0.00985898
0.00937974
0.0126533
-0.00757066
0.0120801
-0.00453811
-0.00737946
0.0237944
-0.0196941
-0.0161748
0.0305685
-0.017286
-0.0300674
0.0269671
-0.00670827
-0.0335729
0.0224427
-0.0147445
0.00767959
-0.0486594
0.0312346
0.00233956
-0.0538853
-0.0223119
0.0269861
-0.0627348
-0.0124464
0.0207439
-0.0442466
-0.0332232
0.0143924
-0.0556505
0.0110453
-0.0893404
0.00720929
0.0259246
-0.109222
0.0145535
0.00463002
-0.122862
0.00830103
0.00456955
-0.128981
0.00276719
0.00254899
-0.130481
-0.00118584
0.00183351
-0.129132
-0.00498206
0.00277553
-0.125534
-0.00972542
0.00525071
-0.118692
-0.0164916
0.00879662
-0.105716
-0.0268631
0.0130313
-0.0836569
-0.0393149
0.01646
-0.051222
-0.050873
0.0176497
-0.0618215
0.00985203
-0.103237
0.00332482
0.0372888
-0.131694
-0.000604313
0.0282308
-0.15003
-0.00289368
0.020322
-0.158574
-0.00461851
0.0122347
-0.158269
-0.00734425
0.00607314
-0.149807
-0.0111738
0.00174616
-0.132801
-0.0159877
-0.00198701
-0.106914
-0.0210045
-0.00584411
-0.0703382
-0.025381
-0.0121521
-0.0414076
-0.0179853
-0.0118951
0.0153139
-0.0145586
-0.0431044
0.0818785
-0.0181967
-0.0492944
0.11937
-0.00362721
-0.0347727
0.141629
0.00313444
-0.0262713
0.151177
0.0084262
-0.0188121
0.140851
0.0161583
-0.00659582
0.0817073
0.0368059
0.0217166
0.0343746
0.0174858
0.0296269
0.0193166
0.0114448
0.00353556
0.0198465
0.000757459
-0.0013427
0.0196653
-0.00104399
0.00115406
0.0167258
0.000216167
0.00264247
0.0109736
0.000910936
0.00475652
0.00641637
0.000782201
0.00370348
0.0055762
0.000407086
0.000382031
-0.00254436
0.00629188
0.0017572
-0.000673031
-0.00195951
0.00658532
0.000106549
-0.00746393
0.0125124
0.00252339
-0.00856086
0.0176539
0.00213417
-0.00737873
0.0240335
-0.000881424
-0.00560335
0.0573305
-0.0171401
-0.016354
0.111881
-0.0115015
-0.0436238
0.134202
0.002859
-0.0258994
0.14354
0.00447079
-0.0146151
0.145912
0.00403144
-0.00721603
0.143204
0.00426858
-0.00239982
0.13545
0.00513411
0.00182322
0.120187
0.00683873
0.00764635
0.0983453
0.00612222
0.0150138
0.0613803
0.00747863
0.0289258
0.0500364
0.010984
0.0801746
0.0141774
-0.0446586
0.0758876
0.00889826
-0.00516302
0.0518614
0.0162722
0.00720227
-0.00143322
0.0533538
-0.000402089
-0.00596131
0.00416819
0.0111467
0.0174164
-0.0350849
0.0107929
0.0283522
-0.0287035
0.00176445
0.0319456
-0.0236948
0.00157849
0.0309234
-0.0315342
0.0147312
0.0343261
-0.0483174
0.0299088
0.0397351
-0.055725
0.0429232
0.0422709
-0.0560913
0.0457178
0.0437463
-0.0472599
0.0247506
0.0467477
-0.0263544
0.0126186
0.0210575
-0.00912234
0.012281
0.00610926
-0.00587675
0.012198
0.0056554
-0.00567534
0.0109062
0.00631016
-0.00512869
0.00710328
0.00539035
-0.0016864
0.00195674
0.00505841
0.00307572
0.00347608
-0.00466651
0.00269836
0.00277252
-0.00244617
0.00182325
0.00411621
-0.00331259
0.00261206
0.00469428
-0.00556776
0.00217038
0.00430888
-0.00394797
0.00181671
0.00397112
-0.00368846
0.00211827
0.00198842
-0.00234529
0.00328991
0.00186445
-0.00311365
-0.00184569
0.0105714
-0.0056555
-0.0123052
0.0343362
-0.0244976
-0.0120099
0.0328501
-0.0339077
-0.0123302
0.0346908
-0.0352075
-0.0143728
0.0372032
-0.0360363
-0.0132728
0.0365482
-0.0385544
-0.010998
0.0369216
-0.0401183
-0.00697263
0.0374277
-0.0423848
0.0017911
0.0430415
-0.0527372
0.00630014
0.0486272
-0.0540586
0.00486984
0.0516179
-0.0510943
0.00325814
0.052591
-0.0518554
0.00895508
0.0484074
-0.0549415
0.0190461
0.0457465
-0.0565999
0.0164785
0.0479647
-0.046018
0.00550994
0.0186969
-0.00794778
0.00370992
0.00646321
-0.00474059
0.00556329
0.00257909
-0.00448735
0.00732869
0.00394221
-0.00577754
0.00454124
-0.00509414
-0.00809182
0.00949591
-0.00537336
-0.00562345
0.00763964
-0.00624167
-0.00118861
-0.00187744
0.00736877
-0.00212298
-0.00590295
0.0121869
0.00698169
-0.00601031
-0.00542399
0.0162527
0.00179297
-0.000634941
0.0748253
0.0149055
-0.0475414
0.0175703
0.0713779
-0.0447478
0.0260836
0.0711644
-0.0321947
0.0225877
0.0736364
-0.0184896
0.0151962
0.0697314
-0.0116786
0.0105443
0.0634849
-0.0111747
0.0102913
0.0533145
-0.0109956
0.00731699
0.0413852
-0.0019586
0.00251725
0.0406976
5.52678e-05
-0.00471125
0.0441383
-0.00131776
-0.0141582
0.0477577
-0.00204704
-0.0172382
0.0450887
-0.00824192
-0.0153589
0.0467196
-0.0166598
-0.00982151
0.0527762
-0.0049781
-0.0199859
-0.00600775
0.0106677
-0.00408256
-0.00754006
0.00901754
-0.00515956
-0.00243938
-0.00454965
-0.00115497
-0.0016785
-0.000904555
-0.00266287
0.00860674
-0.00372804
-0.00305291
0.00859759
-0.00398633
-0.00173684
0.00890258
-0.00561593
-0.0026327
0.00695177
-0.00200889
-0.002641
0.00474653
-0.00201203
-0.00218727
0.00649018
-0.0035306
0.0101604
-0.00738542
0.0147614
-0.00776434
0.00305401
0.0190989
-0.00788047
0.00341935
0.0238936
-0.00831267
0.0033819
0.0341182
-0.0124407
0.00203759
0.0462857
-0.0189797
0.00652612
0.0342594
-0.000105774
0.0118475
0.0248833
-0.000828866
0.0100253
0.0208929
-0.00189618
0.0057504
0.017273
-0.00101705
0.00451335
0.0130409
0.000342921
0.00377991
0.00771943
0.00183753
0.0033878
0.0036103
0.00402102
0.00286979
0.00615983
-0.00549073
0.00277472
0.00393989
-0.00389582
0.00558711
0.00167945
-0.00456331
0.00753121
0.00237852
-0.00440725
0.00873218
0.00288479
-0.00416648
0.00852937
0.00337911
-0.00324725
0.00814268
0.00301246
-0.00268101
0.0150897
0.000943769
-0.00796824
0.0391734
-0.00674995
-0.017553
0.0691201
0.0131201
-0.0436839
0.0766119
0.0246282
-0.0328758
0.0746775
0.0291556
-0.0280478
0.0666222
0.030834
-0.0236346
0.0532507
0.0304376
-0.0179346
0.0259354
0.0285084
-0.00205503
-0.0150338
0.0254628
0.0146497
-0.0398023
0.0320301
-0.00811884
-0.0497568
0.0370804
-0.0279878
-0.0554945
0.0392896
-0.0344191
-0.0569472
0.0387238
-0.0381237
-0.0527341
0.0361145
-0.0411491
-0.0420815
0.0324967
-0.0439002
-0.0208218
0.0265836
-0.0484586
-0.0071759
0.00278893
-0.0166539
-0.0034714
0.00279627
-0.00657831
-0.00403365
0.00360163
-0.00309469
-0.00374294
0.00472532
-0.00508677
-0.00221914
0.00444571
-0.00604874
-0.000529422
0.00436416
-0.00613402
0.00061846
0.00190844
-0.00311993
0.000635685
0.00275164
-0.00281656
-0.000629139
0.00540021
-0.00420585
0.00561114
-0.00632696
0.00955838
0.00212107
-0.00616755
0.012212
0.00385479
-0.0066162
0.0145127
0.0037358
-0.00614297
0.0162151
0.00398226
-0.00578792
0.0172666
0.00420557
-0.0053573
0.0169947
0.00454337
-0.00436553
0.011953
0.00626599
-0.0013015
0.00554348
-0.000125615
0.00650495
0.00539551
-0.000773289
0.000907765
0.0064555
-0.000854378
-0.000220275
0.00748457
-0.000932672
-0.000111919
0.00831675
-0.000655346
-0.000192576
0.00882283
-2.78255e-05
-0.000493709
0.00891769
0.000615988
-0.000726268
0.00873432
0.00106373
-0.000895712
0.00840955
0.00126323
-0.000953842
0.00806153
0.00128589
-0.000953299
0.00771622
0.00122866
-0.000898817
0.00738522
0.00115253
-0.000837057
0.00703968
0.0010904
-0.000760318
0.00668873
0.00104702
-0.000711672
0.00615749
0.000963367
-0.000447326
0.00542885
0.000736917
-2.24945e-05
0.00579646
0.000610913
-0.000991313
0.0123658
-0.00082205
-0.00577551
0.0175368
-0.00319478
-0.00204499
0.0183912
-0.000903589
-3.31946e-05
0.0177557
-0.000201019
0.000754087
0.0156177
0.000379587
0.00167568
0.00958149
0.00212763
0.00383948
0.00390837
0.00389192
0.0017531
0.00322479
0.000282742
0.000388204
0.00300234
-0.000330918
0.000539717
0.00234934
4.91533e-05
0.000590294
0.00099557
0.000417062
0.00092556
0.000363586
0.0004293
0.000197224
0.000144796
0.000215682
9.46588e-05
0.000126853
-7.84115e-05
7.43857e-05
6.33158e-05
-4.37601e-05
0.000125162
2.49637e-05
-7.63878e-05
0.000212292
2.94343e-05
-0.000117469
0.000326396
3.59625e-05
-0.000151249
0.000543793
4.68378e-05
-0.0002655
0.000501697
-1.09975e-05
5.20611e-05
0.000738354
-0.000357565
0.000120146
0.00121766
-0.000733864
0.000253362
0.00188093
-0.000934809
0.000270313
0.00253899
-0.0010459
0.000386589
0.00298136
-0.000958648
0.000515033
0.00308804
-0.000755128
0.000647188
0.00301385
-0.000631525
0.000704456
0.00260265
-0.000288268
0.000698225
0.00166825
0.000233259
0.000699883
0.000146403
0.000795652
0.000724965
-0.00144448
0.00138982
0.000199869
-0.00223317
0.000625872
0.000162059
-0.00215869
1.41425e-05
-8.96477e-05
-0.00133925
-0.000796474
-2.42203e-05
-0.000812653
-0.000548005
2.024e-05
-0.00044488
-0.000404539
3.58702e-05
-0.000249108
-0.000262385
6.5972e-05
-0.000303729
-0.000147257
0.000201167
-0.00046981
-0.000128897
0.000293304
0.00036542
-0.000838294
0.000245246
-0.000613268
0.000729905
2.88691e-05
-0.000400798
0.000614068
-0.000279094
-0.000241505
0.00054635
-0.000551542
-0.000257312
0.000526773
-0.000718014
-0.000347436
0.000510917
-0.000860201
-0.000343486
0.000482785
-0.000877877
-0.000459846
0.000474688
-0.000922521
-0.000411643
0.000453518
-0.000874019
-0.000506428
0.000455208
-0.000877716
-0.000441111
0.00044211
-0.000806381
-0.000520968
0.000446998
-0.000796032
-0.000443832
0.000430823
-0.000718194
-0.000503925
0.000423557
-0.000698593
-0.000409518
0.000387313
-0.000612909
-0.000459212
0.000371179
-0.000528299
-0.000421024
0.0003339
-0.00054499
-0.00048939
0.00050371
-0.00130323
-0.000300796
0.00105379
-0.00147227
-0.000585732
0.00074827
-0.00265963
-0.000354703
0.00152935
-0.00481064
-0.0041018
0.0062173
-0.0107191
-0.0174626
0.023246
-0.0157231
-0.0220215
0.026855
-0.0174469
-0.0349811
0.0363898
-0.0152421
-0.0461459
0.0435983
-0.0504836
0.0459138
0.0156413
-0.0811998
0.0217561
0.0247693
-0.0820181
0.0261824
0.0217412
-0.074862
0.00547301
0.0367691
0.0125768
-0.0233014
0.0102854
0.00489389
-0.0249201
0.0123447
0.00261816
0.00240376
0.00324843
-0.00488791
0.00280417
0.00165955
-0.00369197
0.00161307
0.00192889
0.000515781
0.00107616
0.000264049
0.000736354
-4.28658e-05
0.000380742
0.000347117
8.72048e-05
-0.000175524
3.24425e-05
-0.00115614
0.000816686
0.000162327
-0.00170214
0.000500886
0.0021881
-0.00403162
0.00178659
0.000963639
0.00135258
-0.00436726
0.00207115
0.00215098
0.000814888
0.000540458
0.00114859
0.000555787
0.00096629
-0.000803948
0.000572905
0.00134894
-0.00145362
0.00056325
0.00108262
-0.000778256
0.000596941
0.00144889
-0.00147162
0.00058056
0.00112303
-0.000735714
0.000616612
0.0014473
-0.00143986
0.000605269
0.00105973
-0.000685585
0.000657576
0.00126053
-0.00133061
0.000665958
0.000813578
-0.000635286
0.000734706
0.000797515
-0.00109963
0.000764153
0.000441658
-0.000746763
0.000841183
0.000351169
-0.0010203
0.000865155
9.51388e-05
-0.00107017
0.000921192
-0.000242047
-0.00124977
0.000968952
-0.00201212
0.000926436
-0.00435001
0.000587461
0.00173969
-0.00517218
-0.000181411
0.000990941
-0.00518514
-0.000234718
0.00023486
-0.00591223
-0.000270558
0.000986904
-0.0136454
0.000888598
0.00681973
-0.0203621
0.00587894
0.000786104
-0.0245183
0.00235029
0.00174441
-0.0475021
0.00662982
0.0162587
-0.0492363
0.00437744
-0.00284762
-0.0274164
-0.00404218
-0.0178716
-0.024381
-0.00139598
-0.00169935
-0.0185017
-0.00494057
-0.000989286
-0.00852344
-0.00124897
-0.00875394
-0.0079416
0.00038046
-0.000973094
-0.00904095
0.000207982
0.000878276
-0.00943533
8.43558e-05
0.000296546
-0.00900418
-0.000552137
0.000107469
-0.00872285
-0.000483537
0.000189529
-0.00862671
-0.000333574
0.000224643
-0.00882772
-0.000124
0.000311769
-0.0093883
7.26122e-05
0.000473525
-0.0096942
-0.000359421
0.000650025
-0.00958044
-0.000906334
0.000776773
-0.00910968
-0.0013738
0.00088718
-0.00841088
-0.0016821
0.000967523
-0.00777974
-0.00164022
0.000993258
-0.0070233
-0.0015356
0.000763787
-0.00605007
-0.00130721
0.000319258
-0.00617143
-0.0011996
0.00130763
-0.0134498
-0.00069357
0.00794092
-0.0184433
0.00810448
-0.00318679
-0.0208265
0.00540082
-0.00310473
-0.0418828
0.0127259
0.00815831
-0.0543354
0.0250084
-0.0130037
-0.0357229
0.00929538
-0.0284618
-0.0331713
-0.00312085
-0.051375
-0.0254722
0.0429937
-0.0592341
-0.039104
0.0462069
-0.0571872
-0.050193
0.0473231
-0.0453337
-0.0578755
0.0451853
-0.0278633
-0.0613202
0.043044
-0.062449
0.0436467
0.0193925
-0.10427
0.0249298
0.0383489
-0.103332
0.0221966
0.0521097
-0.0969046
0.0243802
0.0547368
-0.0838075
0.0301073
0.0461034
-0.0653828
0.0340853
0.0261574
-0.0430281
0.0367533
-0.0144325
0.0367922
-0.0290952
-0.0292094
0.0431121
-0.0401884
-0.0373894
0.0476099
-0.0455589
-0.0459337
0.0503952
-0.043945
-0.0551737
0.0526068
-0.0365527
-0.0630124
0.0546683
-0.0244533
-0.0696874
0.056642
-0.00660323
-0.0745837
0.0558121
0.0111608
-0.0718541
0.0531964
0.0100858
-0.0547345
0.0549375
0.00462823
-0.0577934
0.0623861
0.0097527
-0.0687571
0.0627669
0.0182852
-0.0708606
0.0614576
0.0277522
-0.0678145
0.0574903
0.0347124
-0.0613783
0.0535908
0.0347044
-0.0514061
0.0506579
0.0147749
-0.0343708
0.0536832
0.00614711
-0.0106375
0.0190463
0.00326971
-0.00119705
0.00399716
0.00276057
-0.00300832
0.00346264
0.0015692
-0.00417207
0.00529361
9.91917e-05
-0.00386814
0.00526002
-0.00100383
-0.00466235
0.00568618
0.000537633
-0.0040576
0.00245305
0.00140611
-0.0046038
0.00368801
-0.00119167
-0.00520789
0.00773472
0.0083807
-0.0096604
0.0139171
-0.0096358
0.00400003
0.0170131
-0.0099423
0.00673558
0.0191669
-0.0081978
0.00594104
0.0224957
-0.00883432
0.00540081
0.0507292
-0.0306722
0.00224387
0.107517
-0.000844491
-0.0565063
0.133233
0.0162353
-0.0426409
0.145926
0.0235996
-0.0370593
0.152099
0.0262961
-0.0332123
0.151406
0.028837
-0.0288986
0.136408
0.0338204
-0.0194853
0.0791658
0.049007
0.00770824
0.0363943
0.0190911
0.0235037
0.0293038
0.00630389
0.000695977
0.0188031
0.0103067
0.000122085
0.0078461
0.0103058
0.000621662
0.00690683
0.00164655
-0.000719669
0.00687615
0.000634138
-0.000617108
0.00572069
0.00160191
-0.000459687
0.00259317
0.00248332
0.00063326
0.00106896
0.00126325
0.000255596
0.000432429
0.000633459
0.000257211
-0.000759015
0.000930685
3.14611e-05
-0.000593059
0.000815692
-0.00012137
-0.000649239
0.000798942
-0.000266515
-0.000614467
0.000756617
-0.000324556
-0.000656785
0.000711827
-0.000398459
-0.000579971
0.000650979
-0.000381458
-0.000641158
0.000621317
-0.000399158
-0.000563893
0.000578817
-0.000340945
-0.00062881
0.000567872
-0.000333936
-0.000554779
0.000545065
-0.00027237
-0.000612101
0.000547891
-0.000267272
-0.000539041
0.000531273
-0.000234407
-0.00056177
0.000526361
-0.000242434
-0.000489747
0.000495149
-0.00019056
-0.000519361
0.000465114
-6.114e-05
-0.000477887
0.000345964
-2.29352e-06
-0.000436079
0.000374904
-0.000396453
-0.000692442
0.00108131
-0.00064819
0.000872255
-0.000627107
-0.00133831
0.00136556
-0.000688194
-0.00253755
0.0055331
-0.00436965
-0.00915336
0.0249157
-0.0184268
-0.0161429
0.0303123
-0.0234987
-0.020566
0.0407242
-0.0366214
-0.0164784
0.0447881
-0.0492193
0.049322
-0.0551929
0.0192024
0.0712439
-0.0272578
0.0260485
0.0636245
-0.0259492
-0.0184457
0.0498176
-0.00540642
0.0269894
-0.00477692
0.0338811
-0.00206893
-0.00488006
0.000151968
0.0451258
-0.0114374
0.0649253
-0.0150226
-0.0121086
0.0512131
-0.00103848
-0.028306
0.054603
-0.0293344
0.0698488
0.0104963
0.0638949
-0.0135586
0.0162909
0.0360627
0.0273419
0.00931683
0.0085279
0.0677894
-0.00580135
-0.00587947
-0.0123584
0.0840091
-0.0179298
0.00154891
-0.00245329
0.0129363
-0.0257433
-0.00337956
0.0100577
-0.0102344
0.00119972
-0.0307251
-0.00895657
0.0227969
0.00657962
0.00431927
-0.00693184
0.00623559
0.0145138
0.0221235
-0.0137606
0.00863634
0.0034913
-0.0059373
2.04887e-05
0.0161489
0.00385868
0.0031209
0.011513
0.0013512
0.00327757
0.0106453
-2.6115e-05
0.000883169
-0.00928431
-0.000376978
0.020293
-0.019263
0.00100562
0.0041996
0.00354218
0.00543624
-0.00478509
0.0072563
-0.000440217
0.00465999
0.00256606
-0.00468043
0.00895924
0.00175639
0.0107668
0.00361406
-0.0118429
-0.000806784
-0.00564583
-0.00243839
-0.0029547
0.0307475
-0.0101868
-0.00250602
0.000926482
0.00971761
0.00426083
0.0026754
-0.0337731
0.00348697
-0.00230605
0.000569644
-0.00111382
0.00308473
-0.00443478
0.00292713
-0.00451111
0.00315007
-0.0115146
-0.0133289
0.00633134
0.0108281
0.00341261
-0.00818908
-0.0108839
0.00708812
0.0117002
-0.00293478
0.00224632
-0.012531
0.0190593
-0.00256178
-0.00282219
-0.00278262
0.00571283
0.000645184
-0.00260819
-0.00208543
0.00182138
-0.000710457
0.00041016
0.00298423
-0.00247023
-0.00211405
0.00183228
0.000530385
0.00254209
0.00189743
-0.00251481
-0.00204771
0.000437413
-0.00255098
-0.00206865
0.00215902
0.00255061
0.000671738
-0.0026288
-0.00203624
0.00199474
0.00243311
0.000665239
-0.00229965
-0.00204078
0.00182413
0.00252
0.00104411
-0.00256011
-0.00191819
0.001626
0.00247071
0.000975835
-0.0023241
-0.00198619
0.00176409
0.00261187
0.00142199
-0.00287633
0.00265822
0.00179167
-0.00202225
0.00133558
-0.00269497
0.00202661
0.00307799
-0.00232582
0.00162055
-0.00268123
-0.00354417
0.0034738
0.0024639
0.00121942
-0.00365182
0.00324546
-0.00319063
0.00399524
0.00103907
-0.00451148
-0.00346682
0.0037957
0.00435989
0.00043629
-0.00438076
0.00513711
0.00364239
-0.0037989
5.1863e-05
0.00416693
-0.00483591
0.00556311
-0.00451287
6.94723e-05
-0.00190023
0.00242674
0.0017904
-0.00233582
0.00179952
-0.00110306
0.0012246
-0.00185233
0.00226294
0.00213396
0.000341122
-0.00293943
0.00208124
-0.000879003
0.000644133
0.00041561
0.00213308
-0.00164492
0.00135018
0.000241733
0.00174398
-0.00109054
0.00119827
0.00028025
0.00134815
-0.000655059
0.000769637
0.000280176
0.000647036
-3.85458e-05
0.000325647
0.000412963
-0.000352217
0.00050833
-8.52775e-05
0.000575136
-0.00104513
0.000560189
-0.000483976
0.000615633
-0.0012515
0.00075254
-0.00107696
0.000529747
-0.00124868
0.000965367
-0.00150361
0.000534348
-0.00113255
0.00100531
-0.00154853
0.000425971
-0.000924725
0.000927548
-0.00136598
0.000229437
-0.000784533
0.000377805
-0.000487536
-3.14232e-05
-0.000428972
0.000576785
0.000110165
-0.00104344
-0.000155783
0.000271964
-0.000577466
3.15696e-05
-0.000572556
0.000664368
-0.000561287
0.000312204
-0.00121649
0.00156169
0.00134968
6.55279e-05
-0.0023509
-0.00264967
0.00265811
-0.00217304
0.00092593
-0.00367063
0.000125426
0.00218002
0.000431356
-0.00261959
0.000792923
-0.00182646
-0.00059171
-0.00518606
0.00383141
-0.00256925
0.00196142
-0.00509284
0.00379588
-0.00693151
-0.000917533
-0.00399535
0.00915886
-0.0260677
-0.00993025
-0.0185709
-0.00691533
0.0537304
-0.0428643
-0.0203508
0.0253192
0.0110323
-0.0495137
-0.0292699
0.0462992
-0.0112006
-0.0494809
-0.031035
0.0512647
-0.0210918
-0.0464905
-0.0320641
0.0535365
-0.0252957
-0.0415259
-0.0299858
0.0526175
-0.0284137
-0.0121207
-0.0231212
0.0472677
-0.0164679
-0.0379346
0.0164715
-0.00726589
-0.00961873
-0.0118429
0.0136358
0.0260143
-0.0101697
-0.0131393
0.0217228
0.0166114
-0.0141073
-0.0107255
0.012311
0.0345419
-0.0112847
-0.0139723
0.00529928
0.027717
-0.008112
-0.0126925
-0.00657215
0.0394158
-0.0104848
-0.0171596
-0.01254
0.0402222
-0.014478
-0.0199035
-0.00759532
0.0292728
-0.0138218
-0.0205317
-0.00888348
0.0333225
-0.0132279
-0.0189602
-0.0106488
-0.00503697
-0.00739573
-0.0023327
-0.00926621
0.00588729
-0.00105898
-0.00991106
0.0064168
-0.00247333
-0.00867965
0.00449581
-0.0029293
-0.00626703
0.0028808
-0.00300553
0.00198961
-0.00269993
-0.00912963
0.00586868
0.0101294
-0.00497525
-0.00431622
0.00657998
-0.00533393
0.00614406
-0.00653815
0.00682609
-0.00665416
0.00586194
0.00727931
-0.00589717
0.00534127
0.0072482
-0.00476613
0.00469268
0.0121899
-0.012679
0.00754259
0.0224625
-0.033956
0.0319265
-0.0401396
0.0398983
-0.0408017
0.0460514
-0.0379312
0.0470779
-0.0310502
0.0452545
-0.0191903
0.0312936
0.00350425
0.0163025
0.013897
0.0155393
0.00263403
0.012116
0.00275971
0.00502726
0.00592088
0.00113834
0.00440853
0.00079472
-0.000188369
0.00422808
0.000272198
-0.000105377
0.00338339
0.00087287
-4.14135e-05
0.00145182
0.000604937
0.0013157
0.000541207
0.000241111
0.000664132
0.000444978
9.3164e-05
0.000306978
4.31896e-05
9.3134e-05
0.00022418
-4.83122e-05
0.000130399
0.000343702
-0.000128819
8.6552e-06
0.000570899
-0.000183987
-4.41069e-05
0.000793732
-0.000180831
-4.31746e-05
0.00106338
-4.39358e-05
-0.000226965
0.000887881
-5.97985e-05
0.000234272
0.00130852
-4.35909e-05
0.00218022
5.46556e-05
0.0030775
0.000106808
0.00376868
0.000272935
0.00406146
0.000458526
0.00398758
0.000632814
0.00377269
0.000721957
0.0030276
0.000705311
0.00173718
0.00063411
2.00199e-05
0.000625392
-0.00181615
0.000190065
-0.00290099
0.000205078
-0.0027522
-9.40083e-05
-5.58041e-05
-0.00172161
-1.70467e-05
-0.0010148
-0.00105029
3.97454e-05
-0.000712246
-0.000579358
5.5865e-05
-0.000527693
-0.000327515
8.89739e-05
-0.00034146
-0.000403673
0.000263804
-0.000188356
-0.000146167
0.000374276
-0.000646366
0.000458476
4.12723e-05
-0.000241269
0.000301021
0.000555408
0.000454581
-0.00212072
0.000611499
0.00081213
0.00113045
-0.00273791
0.000949658
0.0011107
0.00115831
-0.00247486
0.00123617
0.00120901
0.00206483
-0.00383123
0.00134388
0.00157889
0.00195602
-0.00286177
0.00142
0.00154874
0.00430056
-0.00534932
0.00290092
0.00504957
0.00412383
0.00297122
-0.00206152
0.00397489
0.00178786
-0.000996218
0.00480553
0.00162741
-0.00110977
0.00485772
0.00235263
-0.00120827
0.00460655
0.00201487
-0.000995723
0.00411049
0.00102922
-0.00020906
0.00330281
0.000247287
0.000473557
0.00243461
-0.000378351
0.000761006
0.00163462
-0.00160574
0.00132723
0.000935644
-0.00276418
0.00195787
0.000119186
-0.00289724
0.00216346
-0.000851476
-0.00245474
0.00205752
-0.0010331
-0.000686141
0.00037879
-0.000641986
0.000663199
-0.000478864
0.000655181
-0.000362252
0.00407755
-0.00245612
-0.00326946
-0.00123962
0.00418957
0.00449032
-0.00146185
0.00259137
0.00626328
-0.000722922
0.0015846
0.019794
-0.00527649
-0.0120539
0.00382184
0.0156781
-0.00724186
0.00606055
0.0114678
-0.00669724
0.00572729
-0.00983102
-0.00139861
0.0253613
-0.00846378
-0.0168039
-0.0100515
0.0160404
-0.0180541
-0.0395216
0.0590737
-0.0291699
0.0269393
0.0426741
-0.0501045
0.0588533
0.00746332
-0.0576092
0.0666796
-0.00883143
-0.0590405
0.0702375
-0.0162
-0.0565749
0.0704223
-0.0212061
0.0644003
-0.0320136
0.069464
0.0835832
-0.0274474
0.068789
0.0841229
-0.0140525
0.0640138
0.0813044
-0.00730307
0.0509211
0.077565
0.00120733
0.0173737
0.071127
0.0202746
-0.0380229
0.0320644
0.0492592
-0.0367275
-0.0466235
-0.0222566
0.0484948
0.0139694
-0.0192753
-0.0116678
-0.0198751
-0.0186487
-0.0154964
0.00746036
-0.0243877
-0.00739249
0.00559114
-0.0224685
0.00634396
-0.0272507
-0.00839714
0.00583303
-0.0119573
-0.0151841
-0.00713512
0.00164947
0.00400792
-0.011622
-0.00423318
-0.000133152
-0.00995714
0.00116476
-0.00982363
-0.00395341
0.00233817
-0.00369844
-0.00687124
-0.00418484
0.00245692
0.00320423
-0.00473884
-0.00315192
0.000984264
0.00211398
-0.0037279
0.00154513
-0.00146268
0.00164784
-0.00338805
-0.00347986
0.00294681
-0.00516023
-0.0031802
0.00205225
-0.00728184
-0.00311593
0.00247033
-0.00908422
-0.0022725
0.0024662
-0.0100747
-0.00181216
0.00242128
-0.0115914
-0.00107258
0.00283362
-0.0118033
-0.000545295
0.00178339
-0.0111668
0.000924289
0.000451107
-0.0102747
0.00183872
-0.000381137
-0.00922399
0.00297234
-0.00239929
-0.00896328
0.00275352
-0.00122943
0.0101854
0.00622296
-0.0161402
-0.00122714
0.00945602
0.00324821
0.000231108
0.0111931
0.00266228
-0.00143056
0.0123907
0.000801647
-0.000163574
0.012487
-0.00030992
0.00113475
0.0114705
-0.00115648
0.00162469
0.0106065
-0.00195496
0.00174355
0.00966714
-0.00271555
0.00183998
0.00871308
-0.00323812
0.00191673
0.00712153
-0.00343963
0.00191209
0.00574199
-0.00339757
0.00159388
-0.00381223
0.00234287
-0.00673066
-0.00379061
0.00196652
-0.00779126
-0.00473984
0.00239937
-0.00875339
-0.00431612
0.00183544
-0.00974036
-0.00409003
0.00183586
-0.0107603
-0.00351316
0.00181457
-0.0114245
-0.00288916
0.00159547
-0.0120111
-0.001621
0.0010481
-0.0124524
-0.000169892
0.000298063
-0.0117499
0.00138818
-0.00129259
-0.00970782
0.00143497
-0.000818401
-0.00931408
0.00217814
0.000672508
0.0118408
0.00311669
-0.0188144
0.000747944
0.00904014
0.00461496
0.00035993
0.0129346
-0.00166221
-0.000801215
0.0116191
0.0035734
-0.0008737
0.0158455
-0.00353675
-0.000863663
0.0122942
0.00159457
0.000331602
0.0151134
-0.00562776
-8.47384e-05
0.0110386
-0.000648298
0.00120575
0.0128573
-0.00673742
0.00082448
0.00852975
-0.00196288
0.00197028
0.00842349
-0.00645096
0.00181334
0.00527346
-0.00218085
0.00153636
-0.00534965
0.000596007
0.0113803
-0.00735088
-0.0139215
0.00234451
0.0118023
-0.0059945
0.00137095
-0.00504408
0.00125142
0.0125933
-0.00510872
-0.0130123
0.000464119
-0.00565619
-0.00119047
0.013798
-0.00436049
-0.0133759
-0.00174067
0.0295987
-0.00475524
-0.0189293
0.000647982
-0.00772271
0.00443764
0.024929
-0.00660269
-0.0301143
0.00397628
-0.00670532
0.00489591
0.0122826
-0.00311757
-0.0185289
0.0026128
-0.0298477
-0.0162559
-0.0228753
-0.0185429
0.00835843
0.0048373
-0.0397452
0.00257338
0.00934153
-0.023199
0.00283532
0.00629053
-0.00580361
-0.0277762
0.00401203
-0.0315321
0.0028649
0.00804191
-0.000171777
-0.03241
-0.00636426
-0.000723954
-0.0134526
-0.00181783
0.00468718
-0.0185629
0.000229287
-0.0141215
0.000304176
0.00558514
-0.0156165
-0.00513153
0.00102221
-0.0143503
0.000910354
-0.016786
-0.00634488
0.00141171
0.0077311
-0.020053
-0.00632741
0.00184572
-0.0181191
0.00349894
-0.0215071
-0.00642586
0.00241243
-0.0224215
-0.00361971
0.000485198
-0.0208843
-0.0004639
-0.00105249
-0.019274
0.00229698
-0.000971688
-0.0187515
0.00375221
-0.00117475
-0.00504373
0.00436097
-0.0173198
-0.000768484
-0.00641684
-0.0165958
-0.000865407
-0.00744064
-0.0150256
-0.000110135
-0.00580453
-0.0115873
0.00172218
-0.00390491
-0.00925894
0.00103785
-0.00688593
0.000591256
-0.00930295
0.00433796
-0.000336122
-0.00668253
-0.00133192
-0.000669645
-0.00471559
-0.000324422
0.00560552
-2.34416e-05
0.015105
0.00978578
-0.0309392
0.0108179
-0.000606771
-0.00457208
0.00702676
0.00104078
0.000274639
-0.00431571
0.00468595
-0.00791673
0.00902613
-0.00122363
-0.00171567
0.00637843
-0.00136828
-0.00796461
-0.00117752
0.0052999
-0.00631267
-0.0019117
0.00565104
0.00189647
-0.00682994
-0.00234428
0.00559064
-0.00698993
0.00181431
-0.00253176
0.00547825
-0.00701756
0.00170882
-0.00250791
0.0053574
-0.00695506
0.00155574
-0.00238054
0.0052677
-0.00689062
0.00147751
-0.00229486
0.00514802
-0.00670557
0.00145383
-0.00225412
0.00507572
-0.00656182
0.00142739
-0.00212607
0.00473385
-0.00619288
0.0013137
-0.00200724
0.00407625
-0.00493562
0.000725058
-0.00177584
0.00524889
-0.00773722
0.0022333
-0.0116611
0.00366514
-0.0260633
0.0136758
-0.0220186
-0.0248443
0.0115395
-0.0275197
0.00507262
-0.0780419
0.0411641
-0.0178243
-0.0877588
0.0282702
-0.0890842
0.0230096
-0.11708
0.0201783
0.0131599
-0.130524
0.0156789
0.00378963
-0.137717
0.0145924
-0.00310594
-0.140044
0.014621
-0.00888765
-0.137477
0.0160229
-0.0154223
-0.129147
0.0196779
-0.0243977
-0.114182
0.0236824
-0.0366402
-0.0457997
-0.0400534
0.0253065
-0.0660288
-0.00664585
0.00980319
-0.0283464
-0.0208276
-0.0176463
-0.0062048
-0.0161282
-0.00243756
-0.0131702
0.00860644
-0.00954489
-0.00433445
0.00493276
-0.0113706
0.000482582
0.00168598
-0.00649366
0.00140136
-0.00297448
0.00593782
0.00183641
-0.00648234
0.00980918
0.00197391
-0.00596901
0.0127523
0.00167985
-0.00475921
0.0201637
0.0035951
-0.0111866
0.0347281
0.0152635
-0.0301132
0.0300428
0.0322503
-0.0278539
0.0250612
0.0213535
-0.016558
0.0227957
0.0155701
-0.0134534
0.01958
0.0135125
-0.0104328
0.0157744
0.0120953
-0.00840689
0.00952422
-0.00350831
-0.0147123
0.0142949
0.000207616
-0.0183104
-0.00254286
0.0181216
-0.0207522
0.0196841
-0.00385688
-0.0215372
0.0213708
-0.00515023
-0.0159384
0.0218043
-0.00618848
-0.0553318
0.0382095
0.056749
-0.023911
-0.0218102
-0.0201492
-0.0451847
0.0464793
-0.0191579
-0.00724591
0.0256652
-0.0212626
-0.0155466
-0.00759089
0.0196608
-0.0158611
-0.0100325
-0.00722974
0.0183119
-0.0167677
-0.00616976
0.0161964
-0.0152811
0.00585974
-0.00862016
0.00992686
-0.00944815
0.0125794
-0.0086968
-0.0113592
-0.00367054
-0.00282789
-0.00271815
-0.00215246
-0.00110587
-0.00140362
-0.00116352
-0.00199659
0.00211598
-0.00122839
0.00247316
-0.00253828
-0.0019359
0.00277989
-0.00171366
-0.00446498
0.000582993
0.00382249
0.00317809
0.00532883
-0.0155241
0.00294076
-0.000376117
-0.0078
0.00508833
-0.00564043
-0.000783546
-0.0071777
0.000144643
0.0271116
-0.00881819
-0.0132498
-0.00593622
0.00671125
0.0139691
0.00638979
0.0377641
0.00673224
-0.0378549
0.00906998
-0.00160407
0.0302198
-0.0186769
-0.00242313
0.000334165
-0.00675826
0.00799817
-0.000916586
0.00283455
-0.00321807
0.0159899
-0.00645176
0.00414063
0.0102204
0.00969988
-0.0106732
-0.0105873
-0.00679367
-0.00751123
0.00817515
-0.0101008
-0.00217207
-0.00660599
-0.0314228
-0.0189658
0.0413754
0.00641896
-0.0001598
-0.00250175
-0.0686879
0.0333287
-0.00785195
-0.0214164
0.00652783
-0.0201304
0.0039467
0.00317319
-0.000596987
0.00322151
-0.00145096
-0.00260479
-0.000971108
-0.000352467
-0.00219916
0.00146776
0.00252923
0.00165828
-0.0290453
0.0151755
-0.0109641
-0.0109463
-0.0102576
0.0793522
0.047023
0.0338337
-0.0158799
-0.0150246
-0.0141687
0.0226892
0.0270774