/*--------------------------------*- C++ -*----------------------------------*\
| =========                 |                                                 |
| \\      /  F ield         | OpenFOAM: The Open Source CFD Toolbox           |
|  \\    /   O peration     | Version:  v2012                                 |
|   \\  /    A nd           | Website:  www.openfoam.com                      |
|    \\/     M anipulation  |                                                 |
\*---------------------------------------------------------------------------*/
FoamFile
{
    version     2.0;
    format      ascii;
    class       volScalarField;
    location    "545";
    object      k;
}
// * * * * * * * * * * * * * * * * * * * * * * * * * * * * * * * * * * * * * //

dimensions      [0 2 -2 0 0 0 0];


internalField   nonuniform List<scalar> 
18258
(
0.0334177
0.01575
0.0123061
0.0101601
0.0109776
0.0139734
0.0167666
0.0211244
0.0255359
0.0314688
0.0385348
0.047468
0.0534734
0.0606331
0.0636249
0.0619364
0.0521023
0.0473539
0.0567186
0.0811267
0.070899
0.0513365
0.0620565
0.0614696
0.0727346
0.0770512
0.0606877
0.0553051
0.0498343
0.0441411
0.0376637
0.0237891
0.0239865
0.0286413
0.0319549
0.0357195
0.0386398
0.0410524
0.0426793
0.0434991
0.0434094
0.0421052
0.0393966
0.0352634
0.0296967
0.023552
0.0224643
0.0244821
0.0302762
0.035593
0.0409051
0.0464414
0.0548262
0.0448011
0.0290755
0.0392903
0.0477949
0.0546894
0.0590997
0.0615272
0.0622689
0.0613355
0.059028
0.0557541
0.0517826
0.0474376
0.0434185
0.0394339
0.034192
0.0309322
0.0268238
0.0234821
0.0210443
0.0193338
0.0182164
0.0172119
0.0163452
0.0156111
0.0149945
0.0145704
0.0144794
0.0145064
0.0146079
0.0147055
0.0150519
0.0127033
0.0109309
0.010464
0.0102092
0.00955785
0.00809956
0.0106519
0.0117563
0.0121719
0.0124411
0.0136193
0.0147724
0.0143445
0.0136202
0.0125092
0.0125363
0.0170146
0.0177903
0.0228209
0.0216393
0.0168026
0.0148738
0.0166571
0.0194898
0.0225308
0.0192604
0.0192398
0.0179414
0.0170315
0.0148869
0.0149283
0.0144164
0.0141089
0.0150323
0.0177898
0.0171987
0.0173081
0.0185317
0.0188551
0.0200826
0.0210975
0.0204383
0.020254
0.0164013
0.0163009
0.0173412
0.0172145
0.017695
0.0201878
0.0202452
0.0205916
0.0208089
0.0235942
0.0236127
0.0235759
0.0236669
0.0244968
0.023541
0.0231304
0.0231608
0.0231966
0.0210313
0.0208079
0.0204429
0.020481
0.0183165
0.0175794
0.0183107
0.0192907
0.0212656
0.0250162
0.0314493
0.0403678
0.0504602
0.0607009
0.0684739
0.0728376
0.0772066
0.0766947
0.0774057
0.079521
0.079901
0.0787658
0.0769215
0.0747647
0.071826
0.0672151
0.0667847
0.0591423
0.0482297
0.0334725
0.039003
0.041858
0.0446192
0.0449037
0.0453641
0.0441169
0.0423096
0.0386944
0.0335311
0.024634
0.0261567
0.0305772
0.0351911
0.0389424
0.0430751
0.0466214
0.0483461
0.0499539
0.0591469
0.057086
0.0552592
0.0571269
0.0586435
0.0617926
0.0601393
0.0562325
0.0504742
0.0521553
0.045365
0.0340948
0.0318864
0.0297835
0.0272284
0.0376916
0.0495343
0.0613566
0.067861
0.074104
0.079045
0.0831406
0.0877291
0.0822309
0.0770249
0.0581053
0.0845374
0.066489
0.0511518
0.0419315
0.034242
0.0299843
0.0333294
0.0337054
0.0320513
0.0273828
0.0217828
0.0233594
0.0360174
0.045799
0.0538547
0.0555047
0.0602236
0.0626204
0.0572844
0.0578731
0.0469241
0.0480711
0.0517825
0.0466216
0.0442467
0.0356715
0.02795
0.0337824
0.0503109
0.0690521
0.0852427
0.100426
0.0668583
0.0508825
0.041768
0.0350353
0.0336031
0.0381454
0.0440899
0.0532891
0.0412917
0.0373032
0.0338542
0.0310329
0.0254166
0.0272085
0.0282856
0.0267597
0.0499896
0.0583075
0.0620054
0.0845097
0.0928809
0.108926
0.107889
0.093214
0.0967085
0.0692407
0.0691743
0.0868637
0.0686756
0.0515224
0.0617794
0.0746494
0.0884319
0.101575
0.112878
0.121967
0.123666
0.112159
0.081294
0.0468047
0.0213003
0.0186452
0.0180888
0.0173806
0.0164939
0.0157022
0.0150874
0.0121436
0.00950723
0.00927847
0.00945754
0.00940264
0.00826489
0.00951324
0.0115742
0.0137675
0.0152768
0.0164869
0.0175081
0.018243
0.0188323
0.0192317
0.0195297
0.0197984
0.0200346
0.0202211
0.0203594
0.0204503
0.0204929
0.0204791
0.0204027
0.0202621
0.0200557
0.0197674
0.0192939
0.017765
0.0159096
0.0150774
0.0151358
0.0148855
0.0145821
0.0119473
0.0123239
0.0143405
0.0149741
0.0177677
0.0198048
0.0215088
0.0229633
0.0244906
0.0252677
0.0260978
0.0263655
0.0264209
0.0263243
0.0261796
0.0259628
0.025672
0.0246206
0.0213007
0.0248977
0.0272929
0.0289763
0.0303253
0.0312256
0.031334
0.0286061
0.036033
0.0385184
0.0394261
0.039686
0.0388648
0.0368629
0.034429
0.0323856
0.0308804
0.0297647
0.0276272
0.0253805
0.0230701
0.0206524
0.0174263
0.0186931
0.0205333
0.0207441
0.020454
0.0215029
0.0227632
0.0211094
0.0190224
0.0161327
0.0151327
0.0146363
0.014441
0.0148398
0.0145039
0.0144101
0.0149134
0.0179302
0.0190241
0.0207283
0.0239845
0.0228474
0.0208998
0.0280738
0.0296938
0.030145
0.0304913
0.0303975
0.0296422
0.0265529
0.0250961
0.0264829
0.0250258
0.0243928
0.0244806
0.0241126
0.022246
0.0245493
0.0265518
0.0281418
0.0289883
0.0302299
0.0317829
0.033942
0.0357324
0.0373895
0.0383983
0.0383919
0.0378791
0.0380786
0.03876
0.0384999
0.0367908
0.0347098
0.0326134
0.0296567
0.029426
0.0313997
0.0329639
0.034627
0.0364039
0.0356945
0.0338098
0.0321827
0.0307611
0.0290501
0.0289174
0.0305937
0.0320376
0.0337743
0.035887
0.0360481
0.0339147
0.0321
0.0305973
0.0288956
0.0288561
0.0305546
0.0320643
0.0337841
0.0356644
0.0347907
0.033325
0.0318058
0.0303409
0.0286787
0.0282368
0.0298389
0.0312192
0.0325309
0.0335933
0.0319196
0.0313313
0.0302623
0.0288744
0.0271172
0.0258608
0.0263697
0.0277578
0.0278684
0.0283461
0.0294638
0.0293096
0.0290265
0.0289802
0.0286984
0.0264515
0.0268591
0.0269093
0.0276023
0.0309046
0.0304263
0.0331069
0.0355288
0.0332166
0.0317199
0.0281397
0.0337151
0.0337609
0.0347263
0.033552
0.0237654
0.0219071
0.0229055
0.0244426
0.026088
0.025402
0.0226441
0.0225865
0.0231979
0.0226148
0.0210553
0.0180638
0.0135649
0.0135743
0.0135673
0.0143038
0.0171125
0.0187046
0.0188111
0.0186521
0.0183465
0.0178719
0.0171521
0.016077
0.015617
0.0245858
0.0445066
0.0563703
0.0557806
0.0424178
0.0355236
0.0262191
0.0181181
0.010805
0.0106985
0.0113675
0.0136955
0.0114843
0.0106561
0.0146886
0.0118863
0.0198206
0.022958
0.0302952
0.041311
0.0398443
0.0302101
0.0204178
0.0184509
0.0193184
0.0198355
0.0202267
0.0206115
0.0210004
0.021424
0.0219405
0.0216253
0.0189837
0.0167366
0.0168648
0.0174372
0.0199465
0.0213266
0.0221177
0.0217796
0.0220212
0.0237482
0.022498
0.021276
0.021073
0.0203697
0.0232184
0.0235625
0.0229264
0.0229312
0.0232078
0.0230926
0.0232254
0.0240327
0.0198344
0.0219475
0.0224978
0.0227814
0.0235783
0.0190694
0.0192592
0.0193236
0.0181671
0.0149465
0.0180414
0.0167982
0.0121809
0.013496
0.0134518
0.0140604
0.0143841
0.017123
0.0162845
0.01557
0.016347
0.0223303
0.0231359
0.0233141
0.0206685
0.0194226
0.02192
0.0225099
0.0220504
0.0211611
0.0213272
0.0203802
0.0184688
0.0177479
0.0178852
0.019303
0.020104
0.0201732
0.0237982
0.023293
0.0217224
0.022723
0.0233196
0.0229082
0.0227954
0.0227383
0.0223665
0.0219413
0.0223563
0.0225484
0.0226034
0.0221597
0.0224138
0.0250698
0.0214768
0.0212858
0.0201996
0.0195404
0.0179071
0.0176509
0.0177489
0.0177086
0.0176137
0.0167751
0.0186365
0.017911
0.0200449
0.0216611
0.0228154
0.0239913
0.0241432
0.0237131
0.0236742
0.0232888
0.0232558
0.022703
0.0218539
0.0212677
0.0204861
0.0192748
0.0192669
0.0192172
0.0190729
0.0204809
0.0203795
0.0219491
0.0230739
0.0227881
0.0218185
0.0217101
0.0205292
0.0205065
0.0215518
0.0224453
0.0226956
0.0235646
0.0261171
0.0237503
0.0253063
0.0259999
0.0266655
0.0260517
0.0249503
0.0257029
0.0240385
0.022925
0.024247
0.0249709
0.0262337
0.0270276
0.0250499
0.0240221
0.0228235
0.0219592
0.0209696
0.018443
0.0190598
0.0198526
0.0210859
0.0229
0.0256289
0.0283712
0.0313002
0.0313592
0.0290536
0.0273554
0.0321727
0.0316382
0.0366216
0.0372329
0.0330946
0.030276
0.0273553
0.0269341
0.026014
0.0254785
0.0241938
0.0254437
0.025873
0.0249263
0.027406
0.0289863
0.0333248
0.038914
0.035583
0.0327318
0.0377726
0.0366714
0.0426621
0.0364346
0.0347637
0.0286284
0.0332244
0.0355676
0.0433457
0.0339293
0.0297378
0.0295023
0.0308153
0.038316
0.0368663
0.0394827
0.0446338
0.0439708
0.0390693
0.0358347
0.0416284
0.031655
0.0370788
0.0390946
0.0324496
0.0322266
0.0391225
0.0397407
0.0398935
0.0337855
0.0330742
0.0250531
0.0336341
0.0401281
0.0400377
0.0332398
0.0260011
0.0359392
0.0315736
0.0313825
0.0313778
0.0269767
0.0269083
0.0261958
0.0264523
0.0271712
0.024718
0.0255309
0.0257982
0.0259697
0.0261114
0.0263173
0.0266801
0.027353
0.0281457
0.0229511
0.0244282
0.0230237
0.0216342
0.0202261
0.0240159
0.0264919
0.0282964
0.0297479
0.0308864
0.0313872
0.0300525
0.0379659
0.0396256
0.0413292
0.0415041
0.040263
0.0375772
0.0341085
0.0305773
0.028216
0.0268754
0.0243138
0.0222208
0.0201937
0.0180797
0.0153377
0.0140645
0.0127453
0.0114284
0.0110694
0.0105088
0.00988106
0.00913102
0.008643
0.0111956
0.0204903
0.0285157
0.0333278
0.0385107
0.045063
0.0515624
0.056837
0.060731
0.0634918
0.0652317
0.0656855
0.0631079
0.0529726
0.0480848
0.0433251
0.0384489
0.0333952
0.0323499
0.0414998
0.0497274
0.0566511
0.0628864
0.0669341
0.0653075
0.0498124
0.0469944
0.0628511
0.0903357
0.0811604
0.104164
0.120388
0.0801546
0.0651987
0.0642149
0.0793781
0.0818132
0.0752855
0.0664601
0.0567561
0.0459697
0.0510148
0.0557299
0.0601251
0.0645455
0.0769436
0.0794318
0.0782861
0.075838
0.0726719
0.068374
0.0618464
0.0533152
0.0444613
0.0370719
0.0304289
0.0213202
0.0119804
0.014266
0.0135276
0.0174569
0.0157544
0.00974911
0.00971901
0.00991706
0.00984698
0.00968429
0.00967853
0.0110878
0.0180286
0.0146477
0.013194
0.0113321
0.0142626
0.0161759
0.0181783
0.0187608
0.0188023
0.0193019
0.0342916
0.0439589
0.0496721
0.0544153
0.0574741
0.0560755
0.0526855
0.0467999
0.0403464
0.0376814
0.0338457
0.0303513
0.028543
0.0293215
0.0258457
0.0163848
0.0146506
0.0156646
0.0154345
0.0144614
0.0163721
0.0175636
0.0183142
0.0189187
0.0193695
0.019715
0.0199608
0.0201236
0.0202091
0.020235
0.0202153
0.0201546
0.020051
0.0199008
0.0196927
0.0193962
0.0188861
0.0171895
0.0153599
0.0146533
0.0147377
0.0145082
0.0141473
0.0122739
0.0124941
0.0143514
0.0149491
0.0145582
0.0151383
0.0156018
0.0168015
0.0189851
0.0211272
0.022967
0.0216697
0.0210267
0.0209884
0.0205786
0.0173311
0.0205931
0.0235812
0.0241105
0.0243933
0.025204
0.0267959
0.0277518
0.0268129
0.0262943
0.0257495
0.0225295
0.0241041
0.0277882
0.0282167
0.0289216
0.029536
0.0301147
0.0313958
0.0307452
0.0298072
0.0291826
0.0261943
0.0253196
0.0317826
0.0205273
0.0139202
0.00993252
0.0106427
0.0107207
0.0102527
0.0109417
0.0114306
0.0116665
0.0111649
0.0122419
0.0131516
0.0125132
0.0151559
0.014386
0.0132697
0.0127675
0.0137852
0.0147499
0.0152164
0.0160933
0.0260679
0.0267208
0.0224949
0.0288238
0.0314128
0.0289762
0.0317586
0.0293659
0.027896
0.0306398
0.0341764
0.0356602
0.0332869
0.0317595
0.0313028
0.0207661
0.0200675
0.0193744
0.017515
0.0177118
0.0172127
0.0167614
0.0163541
0.0189221
0.0202868
0.0214603
0.0211504
0.0208109
0.0203331
0.0209073
0.0256657
0.0353001
0.0438991
0.0465985
0.045279
0.0416089
0.0351511
0.0293686
0.02878
0.0268547
0.0254902
0.0251599
0.019327
0.0150179
0.0172676
0.0173427
0.0183818
0.0190303
0.0195355
0.019937
0.0202711
0.0205586
0.0208372
0.0211062
0.0213471
0.0215552
0.0217379
0.0218928
0.0220585
0.0222559
0.0225244
0.022745
0.0211405
0.0185329
0.0171993
0.017053
0.0177668
0.0186653
0.019788
0.0190433
0.0153374
0.0154206
0.0218147
0.0222543
0.0208854
0.0194681
0.0196761
0.0188362
0.0226207
0.0224263
0.0231969
0.0229745
0.0226774
0.0223784
0.0220797
0.0217726
0.021481
0.0212285
0.0210047
0.020803
0.0206099
0.0204216
0.0201479
0.0197301
0.0190505
0.0182256
0.0170294
0.018326
0.0191372
0.0207919
0.0228978
0.0240015
0.0230735
0.0216482
0.0209092
0.021055
0.0213724
0.0217246
0.0221005
0.0225319
0.0229712
0.0233864
0.0233599
0.0220323
0.0226733
0.0173842
0.0182354
0.0185356
0.018493
0.0201559
0.0193134
0.014618
0.0151078
0.0158182
0.0171074
0.0196975
0.0200513
0.0213937
0.0216166
0.0172375
0.0169269
0.0165024
0.0175099
0.0151399
0.0157842
0.0265166
0.0271014
0.0348274
0.0381998
0.0397757
0.0330154
0.0454404
0.0522731
0.0503987
0.0407715
0.0234352
0.0345318
0.0420335
0.0486755
0.0456225
0.0354792
0.0447441
0.0471988
0.062956
0.0586121
0.0522708
0.0629564
0.0445389
0.0268187
0.0157607
0.0163339
0.0151511
0.0305548
0.0346413
0.0313483
0.0321983
0.0397916
0.0408043
0.0360926
0.0343953
0.0361474
0.0356976
0.0396363
0.0369544
0.033576
0.0232118
0.0189451
0.0197847
0.0211959
0.0230339
0.0253802
0.0252686
0.024118
0.0227508
0.0217727
0.0207222
0.0182307
0.0175797
0.0195327
0.0211582
0.0225347
0.0240451
0.02487
0.0257153
0.0258837
0.025778
0.025455
0.0250242
0.0244653
0.0237768
0.0223673
0.0235691
0.0242433
0.0244604
0.024747
0.0250665
0.0253484
0.0254949
0.0253831
0.0244258
0.0236125
0.0224465
0.0213329
0.0197316
0.0176218
0.0183038
0.0200579
0.0216532
0.0227633
0.0238108
0.0234177
0.0239085
0.0245681
0.024584
0.0243936
0.0241634
0.0240052
0.0240927
0.024727
0.0264661
0.0263248
0.0293076
0.0304648
0.027854
0.0265018
0.0257923
0.0253523
0.025096
0.0248808
0.0246744
0.0241215
0.0235817
0.0240906
0.0243518
0.0246564
0.0250205
0.0255325
0.0262265
0.0273225
0.0287452
0.0286462
0.026278
0.0260255
0.0249444
0.0241535
0.0237783
0.0237332
0.0237839
0.0238944
0.0238435
0.0233279
0.0230049
0.0234145
0.022406
0.0224733
0.021506
0.0201512
0.0187156
0.0172698
0.0166109
0.0351146
0.0351134
0.0455581
0.0422439
0.0369453
0.0469243
0.0598336
0.0518788
0.0625174
0.0662876
0.0538814
0.0500535
0.0277686
0.0243063
0.0173412
0.0188606
0.0202006
0.0214012
0.0212149
0.0221314
0.0220107
0.0229734
0.0224323
0.0216534
0.0211088
0.0200978
0.0201552
0.0188892
0.0173506
0.017217
0.0188581
0.0198977
0.0210741
0.0210571
0.0225105
0.0230128
0.0234002
0.0235412
0.0235272
0.0236156
0.0237826
0.0242342
0.024954
0.0254426
0.0256381
0.0261451
0.0258833
0.0255789
0.0251442
0.0248474
0.0245353
0.0242563
0.0239575
0.0236727
0.0232335
0.0225735
0.0224533
0.0229713
0.0233164
0.0235523
0.0236855
0.0236587
0.0234503
0.0231128
0.022766
0.0223912
0.0224311
0.0236835
0.0239231
0.0240408
0.0238128
0.0236263
0.0236006
0.0234718
0.0233729
0.0231527
0.0227956
0.0223312
0.0212712
0.0213607
0.0222316
0.0226662
0.0229846
0.0232527
0.023282
0.0232139
0.0228486
0.0225696
0.0222276
0.0216618
0.0209024
0.0184833
0.0189951
0.0196385
0.0205143
0.0213931
0.0221405
0.0226187
0.0228214
0.0228256
0.022653
0.0222973
0.0215439
0.0215231
0.0220661
0.0222337
0.0221768
0.0218578
0.0212122
0.0202613
0.0190304
0.0177937
0.016824
0.0163705
0.0156073
0.0180719
0.0191324
0.0200891
0.0209528
0.0217581
0.0226071
0.0229151
0.0229607
0.0228123
0.0225551
0.0221518
0.0213925
0.021389
0.0220803
0.0224618
0.0226737
0.022761
0.0225119
0.0218675
0.0203295
0.0189138
0.017733
0.0166385
0.0155001
0.0154137
0.0159225
0.0154363
0.0158148
0.0169239
0.0184084
0.0197849
0.0207987
0.0214145
0.0217126
0.0217476
0.0214178
0.021234
0.0213594
0.0211547
0.0206516
0.0197764
0.0184862
0.0170193
0.0158169
0.015483
0.0161482
0.0167959
0.0161877
0.0138253
0.0149455
0.0160435
0.0171653
0.0188453
0.020912
0.0218772
0.0223448
0.0224801
0.0223548
0.0219957
0.0213548
0.0212929
0.0219068
0.0222608
0.0223695
0.02228
0.0218761
0.0210864
0.018569
0.0158007
0.014557
0.0138436
0.0129104
0.0163372
0.0170444
0.0162213
0.0156763
0.0165279
0.0175454
0.0186759
0.0195484
0.0201815
0.0206834
0.0209614
0.0209918
0.0207171
0.0206006
0.0203813
0.0200454
0.0197327
0.0194166
0.0186591
0.0178378
0.0168503
0.0179161
0.0185002
0.0177358
0.0143955
0.0149514
0.0157858
0.0162746
0.0189691
0.0214588
0.0220963
0.0222536
0.0223379
0.0221969
0.0218062
0.0212015
0.0210773
0.0217032
0.0221799
0.022487
0.0227964
0.0230369
0.0232069
0.0212908
0.0179871
0.0172822
0.0155213
0.0146942
0.0182988
0.0189915
0.0184821
0.01792
0.019617
0.0203167
0.0205519
0.0205239
0.0204234
0.0203105
0.0203227
0.0204353
0.0201349
0.0200127
0.0201225
0.0203549
0.0203305
0.0201232
0.0195611
0.0187925
0.0176829
0.0195548
0.0212737
0.0209821
0.0169226
0.0174588
0.0183624
0.0178819
0.0205807
0.0224203
0.0228982
0.0228332
0.0225183
0.0220491
0.021519
0.0208928
0.0206215
0.0211749
0.0217297
0.0217677
0.0218655
0.0218283
0.0212889
0.021137
0.0205835
0.0203297
0.0195932
0.0190432
0.0183129
0.020459
0.0236165
0.0257947
0.0273824
0.0292661
0.0279335
0.0244638
0.0222285
0.0153849
0.0153817
0.01559
0.0149327
0.0145426
0.0143572
0.0187049
0.0213887
0.0240226
0.025731
0.0233115
0.0232818
0.0232067
0.0230958
0.0229917
0.0229026
0.0227096
0.0235882
0.0414851
0.283281
0.211418
0.236328
0.225128
0.315721
0.0802107
0.0392845
0.0437227
0.0513251
0.0595668
0.0580909
0.0538908
0.0468923
0.0421015
0.0416763
0.0409072
0.0406544
0.0389963
0.0389553
0.0378708
0.0441251
0.0873415
0.119792
0.133767
0.14252
0.152279
0.147882
0.157294
0.149653
0.150314
0.151989
0.1567
0.149371
0.14194
0.137983
0.133695
0.116526
0.116928
0.0986869
0.102534
0.0855815
0.0899028
0.0937744
0.0931253
0.0919128
0.091674
0.0919195
0.0926974
0.0962708
0.0917335
0.0987806
0.0922561
0.0749804
0.0726976
0.0754268
0.0696293
0.060854
0.0694518
0.0854614
0.101661
0.117827
0.099441
0.122676
0.115023
0.11407
0.1084
0.102124
0.0984107
0.0977302
0.0983525
0.0994536
0.102046
0.103898
0.105431
0.108201
0.116689
0.118861
0.117307
0.100136
0.0852199
0.0936026
0.0983679
0.102175
0.102559
0.0980784
0.0957965
0.0892903
0.0877016
0.0820228
0.0795408
0.0739585
0.0707592
0.0659355
0.082286
0.0806317
0.0875715
0.0937571
0.0980896
0.101607
0.103208
0.104315
0.103084
0.100633
0.0958522
0.0939708
0.0893127
0.107395
0.125577
0.128511
0.124057
0.110659
0.105173
0.335656
0.407361
0.408274
0.605422
0.646023
0.834391
0.332718
0.179225
0.191202
0.187871
0.179784
0.176588
0.176276
0.187876
0.196914
0.188432
0.198709
0.178447
0.174065
0.172058
0.202749
0.201457
0.182448
0.160262
0.129156
0.106194
0.107181
0.0889336
0.0899183
0.0764506
0.0760684
0.0761213
0.0900298
0.160241
0.203418
0.22994
0.256151
0.315642
0.286313
0.433746
0.349231
0.43537
0.301374
0.325101
0.311015
0.302395
0.300361
0.316169
0.337475
0.29705
0.368971
0.296048
0.642947
0.777934
0.495814
0.457136
0.405566
0.391772
0.382131
0.376733
0.368449
0.485078
0.450575
0.548884
0.509895
0.633376
0.563231
0.577796
0.544553
0.586587
0.609464
0.624123
0.502561
0.555763
0.433106
0.46971
0.387385
0.422407
0.295375
0.292362
0.329854
0.367509
0.391969
0.445517
0.703233
0.598521
0.807515
0.58024
0.702101
0.488004
0.533428
0.509826
0.492072
0.493378
0.521018
0.625324
0.605253
0.689315
0.514646
0.526975
0.516645
0.534011
0.523429
0.558434
0.563108
0.564256
0.562187
0.523389
0.533945
0.532154
0.531958
0.531984
0.532324
0.50956
0.512729
0.505204
0.510984
0.526922
0.514551
0.514481
0.512349
0.504777
0.502727
0.502247
0.504001
0.503773
0.5089
0.508772
0.509107
0.512153
0.526857
0.514419
1.81702
0.898882
0.426658
0.336584
0.218665
0.133476
0.0546855
0.0589864
0.0617744
0.062565
0.0603947
0.054919
0.0467472
0.0368498
0.0291421
0.0281454
0.0251281
0.0276424
0.0349252
0.0424119
0.0386968
0.0464536
0.0541441
0.0624487
0.0704253
0.0773802
0.0832636
0.0862002
0.0831624
0.0704289
0.0527499
0.0353175
0.0250288
0.0226205
0.0209734
0.0189788
0.0168702
0.0152075
0.0142077
0.0130433
0.012416
0.0123308
0.012555
0.012797
0.0132395
0.0147538
0.0160538
0.0172388
0.0182016
0.0184468
0.0179298
0.0184733
0.0190696
0.0194657
0.019811
0.0196356
0.0196321
0.0198837
0.0198456
0.0200608
0.0199649
0.0199855
0.019848
0.019691
0.0194666
0.0190394
0.0187607
0.0181993
0.0178481
0.0170018
0.017038
0.0174619
0.0177945
0.0167915
0.0167423
0.0159685
0.0268817
0.0480138
0.0611388
0.0661728
0.0714651
0.0674474
0.057074
0.0390973
0.0192407
0.0188929
0.019358
0.0219247
0.021425
0.0173304
0.0181045
0.0188356
0.0175792
0.0174491
0.0174772
0.0195159
0.0201058
0.0214559
0.0219439
0.0223053
0.022519
0.022449
0.0225334
0.0222353
0.0222273
0.0218363
0.0218144
0.021503
0.0212808
0.0215709
0.0222711
0.022361
0.0230266
0.0227549
0.022493
0.021945
0.0215459
0.0207067
0.019794
0.0187881
0.0172368
0.016796
0.0173392
0.0178551
0.0174062
0.0189222
0.0199695
0.0196497
0.0245641
0.0228159
0.0203642
0.0229062
0.0185157
0.0186682
0.0182527
0.017169
0.0177133
0.0172176
0.0170914
0.017389
0.0176503
0.0188263
0.0197866
0.0204116
0.0212609
0.0219061
0.022605
0.0237522
0.0240115
0.0229963
0.0227959
0.0216132
0.0209412
0.0206264
0.0215399
0.022821
0.0227583
0.0236822
0.0234743
0.0222824
0.0214866
0.020636
0.0196716
0.0190259
0.0182656
0.0175403
0.0171456
0.0163562
0.0164926
0.0154593
0.0169485
0.0171983
0.0190321
0.0173421
0.0170226
0.0225924
0.0284251
0.0442891
0.0322964
0.0212075
0.0221468
0.0299592
0.036939
0.0255255
0.0249634
0.0149389
0.0162404
0.0153785
0.0156136
0.0166876
0.0169648
0.0181164
0.0191595
0.0193878
0.0201275
0.0204628
0.0212313
0.0214843
0.0222096
0.0223983
0.0236246
0.0236826
0.0237147
0.0236872
0.0228562
0.0227789
0.0227672
0.0232318
0.023032
0.0237648
0.0238021
0.023916
0.0238647
0.0225697
0.0222538
0.0214933
0.0209856
0.0200849
0.0195458
0.0188368
0.0184586
0.0178424
0.0181533
0.018866
0.0190678
0.019967
0.0199855
0.020731
0.0209332
0.0213947
0.0215239
0.0221829
0.0223182
0.0225803
0.0226343
0.0238078
0.023916
0.0239381
0.0239014
0.0239137
0.0241295
0.0241176
0.0240522
0.0240222
0.0238841
0.0237073
0.023532
0.0245879
0.0252783
0.0248847
0.0246623
0.0249302
0.0257741
0.0263263
0.0273964
0.0282426
0.0292922
0.0301721
0.030976
0.0316418
0.0321064
0.0322291
0.03226
0.0318251
0.0314549
0.0331602
0.0396267
0.0428402
0.0480698
0.050439
0.0524498
0.0532175
0.0520433
0.052737
0.0514409
0.0516912
0.0504634
0.0500127
0.0491599
0.048136
0.0473952
0.0459125
0.045168
0.0497602
0.0561236
0.0561377
0.0491614
0.0462604
0.0415441
0.0356954
0.0381331
0.0442076
0.0394876
0.0376508
0.0346605
0.0295021
0.022244
0.0179264
0.0258142
0.0334894
0.0406935
0.0474869
0.0534777
0.0573508
0.0594621
0.0609809
0.0626746
0.0606373
0.0531843
0.0415487
0.0316821
0.0277863
0.0262262
0.0237925
0.0203667
0.0184881
0.0174195
0.0162707
0.014929
0.0140775
0.0138367
0.0140874
0.0142051
0.0155536
0.0168185
0.0168112
0.0179943
0.0178028
0.0183162
0.0189107
0.0193179
0.0199724
0.0199466
0.018983
0.0193386
0.0196036
0.0202879
0.020192
0.0203696
0.020163
0.0194502
0.0189411
0.0183437
0.0178284
0.0173683
0.0167932
0.0160714
0.0160682
0.016265
0.0158048
0.016218
0.0166603
0.0170696
0.0176952
0.0186074
0.0193619
0.0211884
0.0213132
0.0210544
0.0211364
0.0196986
0.0196289
0.0186513
0.0184114
0.0200078
0.0198436
0.0181726
0.019565
0.0195777
0.0213683
0.0213828
0.0207081
0.0209113
0.020815
0.0189945
0.0181072
0.0170344
0.0162563
0.015666
0.0152655
0.0147964
0.0154307
0.014219
0.0136389
0.0140949
0.0140685
0.0141338
0.0145242
0.0149545
0.015699
0.0164046
0.017456
0.0180965
0.0189947
0.019326
0.0212296
0.021129
0.0209828
0.021014
0.0211495
0.0215937
0.0208127
0.0207741
0.020919
0.0209351
0.020976
0.0209646
0.0191311
0.0189291
0.0180951
0.0177769
0.0168403
0.0164814
0.0158248
0.0155093
0.0151173
0.0149207
0.0233256
0.0255325
0.025686
0.0398864
0.0200399
0.0200157
0.0344877
0.0173803
0.0231376
0.0236843
0.0247589
0.0259941
0.0226202
0.0308542
0.0212866
0.0234055
0.0241322
0.0253055
0.0128705
0.0196838
0.0373166
0.0425552
0.0438767
0.048811
0.0554698
0.0586729
0.061712
0.0637454
0.0660097
0.0684551
0.0708533
0.0725814
0.0727241
0.0690269
0.0659598
0.0564537
0.0526296
0.0563581
0.0607648
0.0472778
0.042491
0.0430269
0.0434791
0.044
0.0441947
0.0448652
0.04466
0.0456352
0.0448977
0.0459806
0.0448274
0.0458267
0.0446117
0.0419054
0.0386939
0.0325356
0.0305759
0.0294731
0.0267692
0.0242681
0.0220368
0.0202222
0.0197929
0.0182329
0.0168361
0.0165368
0.0152453
0.0155128
0.0167515
0.0199093
0.0168249
0.0176541
0.0260371
0.0191363
0.0180278
0.0185715
0.0190897
0.0193307
0.0182221
0.0198457
0.0221111
0.0221239
0.0221936
0.0222112
0.0214101
0.0212454
0.0209876
0.0210506
0.0210826
0.0212156
0.0211882
0.0193657
0.0193095
0.0190376
0.0189008
0.0181105
0.0179431
0.0173569
0.0170254
0.0161795
0.0158848
0.0154355
0.0154958
0.0167282
0.020679
0.0302485
0.0174391
0.018145
0.0156925
0.0139844
0.0267125
0.0248196
0.0287113
0.0268416
0.03951
0.0264879
0.023231
0.0242438
0.0297891
0.0297389
0.0327117
0.0425144
0.0331317
0.0283421
0.0737963
0.05388
0.0334332
0.0465999
0.0586636
0.10949
0.127584
0.0560121
0.0565119
0.0621887
0.0631194
0.0630248
0.0534528
0.0492577
0.0414476
0.0319452
0.0129168
0.0249852
0.0323414
0.042939
0.0573573
0.0920892
0.0529152
0.0597454
0.0656936
0.0647568
0.0678364
0.0660019
0.0646428
0.0656048
0.102698
0.11165
0.107929
0.0866863
0.0814365
0.0744719
0.124303
0.139129
0.119986
0.129991
0.135884
0.0822066
0.0305161
0.025006
0.0238808
0.0264682
0.0254091
0.0460361
0.0206571
0.021872
0.0227047
0.0272055
0.0302726
0.0528453
0.0233446
0.0255135
0.0324612
0.0349088
0.0458392
0.0275177
0.0281195
0.0344124
0.0361888
0.0395321
0.0337233
0.0318494
0.0287785
0.025972
0.0244798
0.0255345
0.031945
0.0464018
0.0279588
0.0283883
0.0301488
0.134411
0.0308191
0.0267015
0.0277808
0.0267867
0.0337538
0.0351145
0.111567
0.0356415
0.0167331
0.0154713
0.0159426
0.016758
0.0173977
0.0180201
0.0184644
0.0191081
0.0194968
0.0196536
0.0198292
0.0221971
0.0220851
0.0216153
0.0210706
0.0218545
0.0211606
0.0212037
0.0218153
0.021278
0.0214305
0.0224735
0.0236402
0.0231408
0.0236953
0.0250517
0.023902
0.0222161
0.0220089
0.0221254
0.0228348
0.0239726
0.0227881
0.0234467
0.0226343
0.0235511
0.0236866
0.0203962
0.0200195
0.019813
0.0193145
0.0186379
0.018013
0.0173384
0.0166905
0.0161956
0.0161391
0.0166736
0.0152145
0.0156401
0.0180656
0.0397693
0.0327497
0.0267827
0.0223794
0.0196476
0.0184566
0.0183226
0.0187632
0.0194179
0.0199756
0.0201853
0.0207805
0.0246587
0.0245599
0.0257602
0.02463
0.0259597
0.024897
0.0235753
0.0227052
0.023909
0.0232202
0.02371
0.0253112
0.0261391
0.0237734
0.0240339
0.0214567
0.0200566
0.0184546
0.0187933
0.0202303
0.0208937
0.0233108
0.0233975
0.0268163
0.0268095
0.0266819
0.0254614
0.0247911
0.0262321
0.0247515
0.0258987
0.0247947
0.0261949
0.0273846
0.0277304
0.0270284
0.0262248
0.0253564
0.0210758
0.0202769
0.019972
0.0194835
0.0192241
0.0201576
0.0244579
0.0337498
0.0459514
0.0581273
0.0675296
0.066904
0.0602256
0.0409403
0.0418719
0.0389044
0.0423217
0.0603867
0.0869208
0.0608753
0.114662
0.0887948
0.0526685
0.0629069
0.0749008
0.0840577
0.089999
0.091085
0.0776329
0.0571693
0.0501554
0.0526043
0.0848261
0.0835394
0.0824256
0.0779347
0.0824199
0.080287
0.0776018
0.0760224
0.0742273
0.0699557
0.0699376
0.0672167
0.0671758
0.0600741
0.0612523
0.0614676
0.0588939
0.0561553
0.0538751
0.0516903
0.0493722
0.0454961
0.0442261
0.0417674
0.0400435
0.036704
0.0361696
0.0356873
0.0335214
0.0319782
0.0307321
0.0294789
0.0277904
0.0279593
0.0264028
0.0262507
0.0214078
0.021023
0.0199948
0.0196655
0.0194183
0.019616
0.0208699
0.0235779
0.0437944
0.0331934
0.0330323
0.0335837
0.0337364
0.0397119
0.0464624
0.0705152
0.0652315
0.0716943
0.0613597
0.0637722
0.0629724
0.0625961
0.0653202
0.0688942
0.0742382
0.0867081
0.333338
0.513787
0.253087
0.237089
0.246738
0.25165
0.259046
0.338971
0.3601
0.355801
0.36056
0.330521
0.318528
0.196631
0.226058
0.238139
0.237025
0.2239
0.202538
0.393591
0.522651
0.518784
0.523655
0.523768
0.518768
0.522594
0.502914
0.514274
0.501759
0.515023
0.502298
0.521653
0.518914
0.504364
0.501138
0.501158
0.500917
0.501381
0.501557
0.504897
0.506058
0.506109
0.505104
0.50412
0.514521
0.437734
0.122906
0.0854842
0.142303
0.197819
0.162034
0.234163
0.26912
0.193944
0.110297
0.0900632
0.101634
0.125242
0.126733
0.153808
0.201218
0.188335
0.153735
0.15469
0.155394
0.200637
0.192149
0.218411
0.260867
0.254024
0.1893
0.150753
0.15014
0.228318
0.242987
0.238153
0.123737
0.0445199
0.0219408
0.0228694
0.0328718
0.0165967
0.0168675
0.0223142
0.0584968
0.0975374
0.0504068
0.136831
0.138449
0.182189
0.147525
0.178424
0.115602
0.118843
0.0676376
0.0796312
0.0895473
0.0953006
0.0996317
0.0937739
0.216846
0.320461
0.190983
0.561688
0.538226
0.196263
0.217259
0.575928
0.513009
0.503527
0.501786
0.501699
0.50186
0.501817
0.50097
0.500916
0.500729
0.500766
0.500717
0.501164
0.504767
0.520377
0.514594
0.505239
0.501385
0.500824
0.5008
0.500691
0.500731
0.500751
0.500808
0.501018
0.501051
0.501152
0.501671
0.503942
0.512025
0.435366
0.169803
0.182191
0.405925
0.361688
0.5115
0.504622
0.50137
0.500943
0.500856
0.50083
0.500795
0.50097
0.50089
0.501398
0.501232
0.501287
0.502776
0.508255
0.506388
0.442511
0.368851
0.416393
0.329539
0.506664
0.507774
0.503277
0.502901
0.503248
0.503415
0.501515
0.501528
0.500993
0.501061
0.500894
0.501341
0.504755
0.511009
0.345836
0.170716
0.177646
0.257865
0.0878307
0.0907754
0.0927117
0.0948164
0.247242
0.441985
0.555972
0.471456
0.475372
0.54244
0.385714
0.364508
0.294208
0.317681
0.402001
0.347242
0.312762
0.250325
0.288639
0.247731
0.303461
0.217888
0.234132
0.221667
0.282993
0.286888
0.287228
0.226673
0.216497
0.271559
0.285757
0.316732
0.21872
0.258885
0.203233
0.192327
0.0870905
0.089276
0.0811878
0.0712628
0.0710119
0.0791222
0.0775574
0.0837153
0.0807039
0.0843866
0.0814945
0.0794951
0.072734
0.0747708
0.0685779
0.0712339
0.130265
0.166467
0.150334
0.151756
0.179541
0.131027
0.157378
0.153489
0.197566
0.247973
0.227139
0.292764
0.225457
0.275661
0.405714
0.7541
0.439974
0.244934
0.31815
0.339889
0.288613
0.189535
0.449434
0.538276
0.297928
0.360026
1.19549
1.04307
1.78093
0.992365
1.1192
0.671076
0.597638
1.02892
0.653987
0.666466
0.559893
0.573574
0.499612
0.324544
0.324096
0.305938
0.24206
0.280934
0.271625
0.26684
0.296488
0.261659
0.316793
0.352537
0.397215
0.3227
0.285628
0.367157
0.215686
0.291106
0.346603
0.315908
0.259976
0.338335
0.450434
0.422272
0.363465
0.399486
0.509942
0.563801
0.533659
0.452869
0.514526
1.00767
0.964596
0.93161
0.591056
1.9338
1.7193
0.354548
0.1388
0.0966859
0.0366095
0.022523
0.0182966
0.0179101
0.0490666
0.0195649
0.0235726
0.0212436
0.0302116
0.0274243
0.03171
0.0557473
0.0377514
0.0530907
0.0393339
0.0524428
0.0417554
0.0574394
0.0616801
0.0649837
0.0525157
0.0414289
0.0626041
0.0835739
0.0390978
0.100617
0.106331
0.0686699
0.0835181
0.103186
0.0533405
0.166006
0.0576271
0.0573734
0.0683583
0.128178
0.253507
0.0864303
0.113012
0.587707
1.5311
0.511981
0.202698
0.165588
0.0415547
0.0360505
0.0294313
0.0356852
0.0314319