/*--------------------------------*- C++ -*----------------------------------*\
| =========                 |                                                 |
| \\      /  F ield         | OpenFOAM: The Open Source CFD Toolbox           |
|  \\    /   O peration     | Version:  v2012                                 |
|   \\  /    A nd           | Website:  www.openfoam.com                      |
|    \\/     M anipulation  |                                                 |
\*---------------------------------------------------------------------------*/
FoamFile
{
    version     2.0;
    format      ascii;
    class       volScalarField;
    location    "545";
    object      nut;
}
// * * * * * * * * * * * * * * * * * * * * * * * * * * * * * * * * * * * * * //

dimensions      [0 2 -1 0 0 0 0];


internalField   nonuniform List<scalar> 
18258
(
0.00418017
0.00182095
0.00149163
0.00129218
0.000856796
0.00140113
0.00194618
0.00231671
0.0024307
0.00241043
0.00249626
0.00421339
0.00591385
0.00730959
0.00767943
0.00766815
0.00696243
0.00664918
0.00722792
0.00887861
0.00745258
0.00477704
0.00571507
0.00661526
0.00721667
0.00639722
0.00517411
0.00478793
0.00433445
0.00361371
0.00303424
0.00208662
0.00151366
0.00140214
0.00127251
0.00145147
0.00158173
0.00168754
0.00172505
0.00175231
0.00174044
0.00173047
0.00168349
0.0016531
0.00160152
0.00132029
0.00157675
0.00166841
0.00182328
0.00250687
0.00268734
0.00225795
0.00249643
0.00222579
0.00146637
0.00167922
0.00182297
0.001862
0.00183771
0.00176114
0.0017352
0.00171326
0.00168554
0.0016527
0.0016327
0.00164906
0.00166621
0.00164821
0.00156734
0.00150182
0.00139578
0.00128945
0.00121064
0.00114958
0.00110353
0.00105233
0.000994797
0.000873801
0.000809828
0.00107222
0.00134606
0.00143823
0.00203853
0.00248545
0.00250244
0.00187342
0.00133525
0.00138587
0.00154056
0.00155582
0.00131827
0.00156663
0.00177426
0.00183884
0.00191615
0.00214193
0.00243935
0.00237818
0.00211816
0.00195235
0.00190548
0.00218772
0.00208149
0.00269931
0.00271721
0.0023649
0.0021923
0.00246639
0.00318114
0.0034208
0.00265708
0.00249604
0.00244695
0.00241519
0.00218488
0.00226203
0.00205476
0.00185145
0.00201732
0.00243714
0.0023115
0.00252428
0.00261609
0.00245447
0.0028441
0.00327944
0.00323227
0.00258649
0.00210964
0.00196651
0.00198134
0.00121179
0.00130855
0.00140952
0.00144406
0.00146837
0.00148898
0.00158743
0.00158384
0.00156048
0.00155704
0.00158406
0.000873116
0.000945984
0.000969551
0.00097635
0.000927523
0.000917934
0.000900751
0.000886812
0.00083649
0.000800425
0.000957692
0.00107534
0.00117122
0.00128335
0.0014504
0.00165476
0.00186951
0.00208654
0.00223009
0.00227106
0.00231234
0.00222902
0.00214472
0.00222136
0.00223435
0.00222003
0.00219036
0.00215284
0.0021022
0.0020093
0.00211759
0.0021119
0.00198401
0.00170028
0.00173853
0.00173568
0.00178085
0.0017714
0.00178892
0.00176302
0.00173243
0.00164842
0.00153078
0.00127323
0.00125277
0.00126663
0.00162435
0.00197042
0.00304182
0.00370692
0.004299
0.0045964
0.00491326
0.0039805
0.00443296
0.0034208
0.00306992
0.00390018
0.00509974
0.00291021
0.00159157
0.00301931
0.0026816
0.00194949
0.00173601
0.00179002
0.00178646
0.00204039
0.00235439
0.0026187
0.00274708
0.00285912
0.00294905
0.00304758
0.00317204
0.00320615
0.00309704
0.00262059
0.00316043
0.00257021
0.0030044
0.00272016
0.00184474
0.00188357
0.0020172
0.00185395
0.00180606
0.0017243
0.0015596
0.00194371
0.00250656
0.00290773
0.00332475
0.0044351
0.00410316
0.00393425
0.00304566
0.00294544
0.00152822
0.00217909
0.00226303
0.00255091
0.00169491
0.00154834
0.00147141
0.00194095
0.00224957
0.00265484
0.0029469
0.00350021
0.00271862
0.00310682
0.002814
0.0019658
0.0018865
0.00269732
0.0029035
0.00238636
0.00212804
0.00267252
0.00253186
0.00179781
0.00142459
0.00219136
0.00226459
0.00163075
0.0040733
0.0043679
0.00417168
0.0050811
0.00635489
0.00723898
0.00675425
0.00598678
0.00667213
0.00529667
0.00514381
0.00549417
0.0046097
0.00320839
0.00328744
0.00339719
0.00348717
0.00374266
0.00397514
0.00425966
0.00453099
0.00411953
0.00342194
0.00259069
0.00178233
0.00175759
0.00174846
0.00157005
0.00232684
0.00352145
0.00349861
0.00198876
0.00115897
0.00131016
0.00147916
0.00146458
0.00106325
0.00080008
0.00137815
0.00157583
0.00160133
0.00156162
0.00147445
0.00154083
0.00247457
0.0038124
0.00418915
0.00433898
0.00448083
0.00458111
0.00463705
0.00465497
0.00466507
0.00467737
0.00468818
0.00470449
0.00469007
0.00459029
0.00403759
0.00253852
0.0014838
0.00137823
0.0015211
0.00163472
0.00173388
0.00147539
0.00090223
0.00144086
0.00184513
0.00212079
0.00213893
0.00199616
0.0019364
0.00305347
0.00405995
0.00478557
0.00493264
0.00499827
0.00494367
0.00493696
0.00482979
0.00479711
0.00420757
0.00300738
0.00328712
0.00352916
0.00356913
0.00365127
0.00377486
0.00368761
0.00348517
0.0050901
0.00587597
0.00595171
0.0060785
0.00600694
0.00590395
0.00563669
0.00533096
0.00448817
0.00336589
0.00212394
0.00216841
0.00230852
0.00228646
0.00199047
0.00209675
0.0022756
0.0022984
0.00237364
0.0026619
0.00302331
0.00288416
0.00248241
0.00210819
0.0019629
0.00192121
0.0018429
0.00137979
0.00140085
0.00136217
0.0013849
0.00186072
0.00221469
0.00255401
0.00362198
0.00323083
0.00262749
0.00416594
0.00426952
0.00458755
0.00506825
0.00519374
0.00575466
0.00400374
0.00360819
0.00370649
0.00302796
0.00280276
0.00283265
0.00284333
0.00265013
0.00290067
0.00287506
0.00277101
0.00305924
0.00337089
0.00444474
0.0053854
0.00568181
0.00585298
0.00592322
0.00590169
0.00578813
0.00582576
0.00511866
0.00511683
0.00489961
0.00475901
0.00470945
0.00447738
0.00512126
0.00531601
0.00538089
0.00551496
0.00572399
0.00556734
0.00539487
0.00526345
0.00516825
0.00506883
0.00512192
0.00521679
0.00531812
0.00546036
0.00565014
0.0056809
0.00548424
0.0053355
0.00523375
0.00513819
0.00514173
0.00522688
0.00532621
0.00546718
0.00564718
0.00554706
0.00540704
0.00528236
0.00518014
0.00509017
0.004912
0.00503034
0.00516054
0.00526784
0.00533742
0.00461187
0.0049296
0.00484481
0.00438642
0.00410556
0.00311786
0.00337425
0.00355818
0.00387553
0.00430188
0.00438558
0.00368038
0.00315401
0.00307347
0.00304869
0.0031207
0.00314652
0.00316177
0.00357256
0.00538286
0.0054202
0.00543638
0.00543927
0.00465128
0.00451895
0.0042088
0.00769664
0.00716657
0.00620947
0.00511893
0.00274266
0.00235095
0.00278464
0.00338644
0.00378642
0.00417885
0.0027741
0.00171865
0.00200323
0.00207727
0.00202673
0.00187335
0.00156052
0.00144052
0.00130744
0.00140699
0.00249148
0.00397538
0.0044777
0.00452519
0.00448037
0.00439339
0.00428782
0.00414083
0.00408086
0.00513251
0.00693109
0.00785052
0.00782189
0.00671989
0.00547335
0.00308291
0.00158303
0.00115722
0.00125908
0.00138342
0.00162661
0.00144987
0.00121281
0.0013288
0.00126208
0.0025583
0.00442019
0.0056435
0.00669367
0.00657861
0.00570922
0.0046805
0.004443
0.0045475
0.00461663
0.00467634
0.00473769
0.00477985
0.00475342
0.00432682
0.00267355
0.00159608
0.00141812
0.00152495
0.00178723
0.00189906
0.00191826
0.0018914
0.00163947
0.00271098
0.00430529
0.00273783
0.00149397
0.00161436
0.00160272
0.00282708
0.00282258
0.0027614
0.00429624
0.00454261
0.00453151
0.00425777
0.00406468
0.00240656
0.0027311
0.00274023
0.00275477
0.00280002
0.00141437
0.00154173
0.00158978
0.00171145
0.00149834
0.00190131
0.000491999
0.000682078
0.000792194
0.000861195
0.000927733
0.000910009
0.00174072
0.00176608
0.00168588
0.00164216
0.00208405
0.00223628
0.00228561
0.00210519
0.00194254
0.00206795
0.00207248
0.00195312
0.00185005
0.00191826
0.00191956
0.00183932
0.00156442
0.0014659
0.00160946
0.00159221
0.00157952
0.00283667
0.00283158
0.00267959
0.00440293
0.0043322
0.00485217
0.00482041
0.00481449
0.00479489
0.0048462
0.00487322
0.00489384
0.00491791
0.0049083
0.00486113
0.00677657
0.0047803
0.00417147
0.00241237
0.00232378
0.00164114
0.00143822
0.00169355
0.00181132
0.00196371
0.00191931
0.00202334
0.00202103
0.0021444
0.00199036
0.00176732
0.00270699
0.00289191
0.00282453
0.00288044
0.00281269
0.0027962
0.00277556
0.00273607
0.00268851
0.00160075
0.00157022
0.00183874
0.00193015
0.00207398
0.00209277
0.00213819
0.00202786
0.00178347
0.00172639
0.0019882
0.00196138
0.0019995
0.00188517
0.00187738
0.00167253
0.0017149
0.00345988
0.00639345
0.00328669
0.00365109
0.00330717
0.0037618
0.00329462
0.00284102
0.00290774
0.00256102
0.00267152
0.0028023
0.002853
0.0029985
0.00353441
0.00340305
0.00298726
0.00290056
0.00284339
0.00268088
0.00241301
0.00252795
0.00255086
0.00260562
0.00289575
0.00332221
0.00372439
0.00452623
0.00439236
0.00384771
0.00351777
0.0036895
0.00375282
0.0047247
0.00441437
0.00438804
0.00462829
0.00458206
0.00434926
0.00412135
0.00397819
0.00341482
0.00347082
0.00397301
0.00384454
0.00396213
0.00389291
0.00404672
0.00412013
0.00395492
0.00367553
0.0038626
0.00385409
0.00428073
0.00416368
0.00386197
0.0035343
0.00377647
0.00372999
0.0043097
0.00405741
0.00379479
0.00349245
0.0033448
0.00379642
0.00372735
0.00422726
0.0043491
0.00435105
0.00379263
0.0037048
0.00440698
0.00424028
0.00409501
0.00426545
0.00353179
0.00363309
0.00447636
0.00457021
0.00433542
0.00361864
0.00367451
0.00315053
0.00370582
0.00461299
0.00435667
0.00357064
0.00296207
0.00414554
0.00436193
0.00461537
0.00436138
0.00475081
0.00511801
0.00417087
0.00453787
0.0059311
0.00452455
0.00525068
0.00536729
0.0053993
0.00540261
0.00542422
0.00545225
0.00574573
0.00559299
0.00355199
0.0042495
0.00412551
0.00344859
0.00293054
0.00322838
0.00347697
0.00352702
0.00361634
0.00375429
0.00369074
0.00357219
0.00522484
0.0059598
0.00609368
0.00621618
0.00611404
0.0059609
0.00561034
0.00518006
0.00429046
0.00319865
0.00199356
0.00203222
0.00216624
0.00214575
0.0018623
0.00140612
0.000923208
0.0013705
0.00141476
0.00133024
0.00121022
0.00106404
0.00109373
0.00201552
0.0041591
0.00551258
0.00604908
0.00649113
0.00697548
0.00743193
0.00777709
0.0080284
0.00820098
0.00830906
0.0083307
0.00817
0.00746657
0.00714488
0.00674453
0.00641613
0.0059507
0.00556374
0.00628732
0.00689807
0.00727118
0.0076919
0.00788364
0.00779867
0.00677219
0.00659
0.00759672
0.00934931
0.00795298
0.00998788
0.0117298
0.00914973
0.00821447
0.00819308
0.00914814
0.00932459
0.00899985
0.00849221
0.00791027
0.00717269
0.00754588
0.00788018
0.00819777
0.00849057
0.00926913
0.00941452
0.00934638
0.00919893
0.00900776
0.00874403
0.00832751
0.00774303
0.0070769
0.00643144
0.00568894
0.00417345
0.00185632
0.00220135
0.00215256
0.00243382
0.00230146
0.00101365
0.00109897
0.00111283
0.00111969
0.00106013
0.00120306
0.00174764
0.00284173
0.00204818
0.0016777
0.00116749
0.00138307
0.00231275
0.00393912
0.00444861
0.0045228
0.00458428
0.00608728
0.00686829
0.0072814
0.00760786
0.00780941
0.0077074
0.00746565
0.0070351
0.00653146
0.00631859
0.00598195
0.00566259
0.00548406
0.00529475
0.00497547
0.00394009
0.00372884
0.00387969
0.00384128
0.00367955
0.00392693
0.00406576
0.00405991
0.00410296
0.00414088
0.00426201
0.00440509
0.00452984
0.00459544
0.00462007
0.00462829
0.00463857
0.00464703
0.00466225
0.00464743
0.00454656
0.00399298
0.00249739
0.00145795
0.00134801
0.00147804
0.00156302
0.00159941
0.00142028
0.000914076
0.00142056
0.00183864
0.00188561
0.0020686
0.00213397
0.0022628
0.00252157
0.00291441
0.00300781
0.00266965
0.00252917
0.00247485
0.00241179
0.00205732
0.00256334
0.00283485
0.0028303
0.00280407
0.00303037
0.00372882
0.0035824
0.0031587
0.00312266
0.00309033
0.00278704
0.00274289
0.00300568
0.0030396
0.00315469
0.0037003
0.00443781
0.00411685
0.00374837
0.00359075
0.00331425
0.00290958
0.00262964
0.00326511
0.00268969
0.00138168
0.00117127
0.00118066
0.00117904
0.00113052
0.00133748
0.00140562
0.0014246
0.00133033
0.00147868
0.00164761
0.00159771
0.00181629
0.00178746
0.00159284
0.00157467
0.00171687
0.00182437
0.00187724
0.00191828
0.0031372
0.00322623
0.0025072
0.00363767
0.00419542
0.00420567
0.00445787
0.00365439
0.00326438
0.00387758
0.00450156
0.005198
0.00409321
0.00385958
0.00396417
0.0018075
0.000950782
0.00134205
0.00166586
0.00185363
0.00179683
0.00169776
0.00143573
0.00255248
0.00262004
0.00415819
0.00466358
0.00471987
0.00468212
0.00474149
0.0052421
0.00613507
0.00682989
0.00702819
0.00692188
0.00663048
0.0060921
0.00557136
0.00551981
0.00532885
0.00517514
0.00512539
0.00447159
0.00392023
0.004165
0.00411089
0.00424673
0.00430888
0.00435328
0.00439888
0.00447662
0.00457089
0.00465659
0.00471558
0.00475531
0.00478927
0.00482428
0.00485963
0.00489783
0.00491897
0.0048735
0.00440589
0.0026439
0.00157654
0.00143822
0.00153461
0.00180369
0.00189912
0.00204119
0.00181279
0.000954619
0.00112287
0.00195106
0.00216297
0.002001
0.00187267
0.00183947
0.00154083
0.00279076
0.00275474
0.00432288
0.00485997
0.00492612
0.0049105
0.00487052
0.0048256
0.00478317
0.00474857
0.00472147
0.00469339
0.00465383
0.00460776
0.00456156
0.00451311
0.00443266
0.00431445
0.00421574
0.00440168
0.00450464
0.00469303
0.00492796
0.00505365
0.00495926
0.0048021
0.0047193
0.00474081
0.00478382
0.00482932
0.00487062
0.00489235
0.00484029
0.00456397
0.00428415
0.00271276
0.00274823
0.00135223
0.00150204
0.00173323
0.00179005
0.00194435
0.00193555
0.00152175
0.00118529
0.00133701
0.00125008
0.00223409
0.00245635
0.00272384
0.00269673
0.00146445
0.00150191
0.00156089
0.00176076
0.00163663
0.00158222
0.00391424
0.00374415
0.00391734
0.00481014
0.00414228
0.00285995
0.00313601
0.00436281
0.00460167
0.0027826
0.002086
0.00231538
0.00293281
0.00431595
0.00437029
0.0041523
0.00412851
0.00301511
0.00370471
0.00445652
0.00433567
0.00338172
0.00233084
0.00173509
0.00084265
0.00160301
0.00137096
0.00335947
0.00371786
0.00367474
0.00401953
0.00426947
0.0043133
0.00419221
0.00371664
0.00379052
0.00382807
0.0043625
0.00438312
0.00370884
0.00312996
0.00254099
0.00256401
0.00261415
0.00289775
0.00362891
0.00341864
0.00299589
0.00290471
0.00284169
0.00267288
0.00241178
0.00211585
0.00213049
0.00198302
0.00191918
0.00302566
0.00402802
0.00475044
0.00488736
0.00493708
0.00486135
0.00482679
0.00468843
0.00461662
0.00401041
0.00511811
0.00540926
0.00522053
0.0052599
0.00529337
0.00533424
0.00533549
0.00523543
0.0044983
0.00268618
0.00175452
0.00198048
0.00213768
0.00200727
0.00199603
0.00212749
0.00201875
0.00177317
0.00287282
0.00280764
0.00448923
0.00508423
0.00519245
0.00519794
0.00517647
0.00515847
0.00516464
0.00543654
0.00531488
0.00539714
0.00569473
0.00570226
0.00577006
0.0054167
0.00534704
0.0053023
0.00527222
0.00522373
0.0050951
0.00450854
0.00437107
0.00496424
0.00511762
0.00518593
0.00523339
0.00528991
0.00536376
0.00557624
0.00573449
0.00579542
0.00555066
0.00545648
0.00532805
0.00514741
0.00510495
0.00509698
0.00509334
0.00506932
0.00493882
0.00434778
0.00279583
0.0028652
0.00170453
0.00171573
0.00197627
0.00207576
0.00203874
0.00188805
0.00184086
0.00316806
0.00360706
0.00383553
0.00413331
0.00394843
0.00392479
0.00448642
0.00434194
0.00387166
0.00402836
0.00361097
0.00344049
0.00333004
0.00334873
0.0017599
0.00189898
0.0019807
0.00194778
0.00186236
0.001661
0.00152307
0.00277934
0.00275906
0.00272342
0.00161959
0.00158419
0.00186651
0.00181275
0.00165838
0.00141357
0.00154956
0.00239232
0.00267561
0.00414791
0.00429613
0.00459845
0.00491645
0.0050363
0.00506865
0.00508841
0.00511044
0.0051589
0.00521654
0.00523427
0.0052365
0.00528802
0.00527941
0.00528146
0.00525487
0.00522359
0.00518654
0.00514656
0.00508064
0.00494498
0.00462045
0.00430243
0.00485071
0.0048956
0.00498706
0.00508143
0.00512153
0.00512746
0.00510812
0.00506981
0.00502402
0.00497177
0.0049687
0.00510551
0.00513904
0.00516276
0.00514599
0.00512725
0.00512113
0.00509835
0.00506204
0.0049695
0.00487673
0.00483727
0.00475701
0.00488292
0.00493843
0.004946
0.00499263
0.00506806
0.00509002
0.00508983
0.00505264
0.00502213
0.00498234
0.004916
0.00482714
0.00453923
0.00460345
0.00468321
0.00478802
0.00488913
0.00497081
0.00501701
0.00502091
0.00497543
0.00494463
0.00494578
0.00490388
0.00492552
0.0049479
0.00492258
0.00491916
0.00492181
0.00486388
0.00476019
0.00461652
0.00446522
0.00434204
0.00428278
0.00418144
0.0044995
0.00463001
0.00474468
0.00484534
0.00493622
0.0050282
0.0050553
0.00504436
0.004989
0.00495782
0.00495737
0.00491064
0.00490721
0.00495222
0.00495329
0.00497948
0.00502726
0.00501534
0.00495038
0.00477683
0.00460909
0.00446346
0.00432343
0.00417273
0.00416109
0.00422937
0.00416438
0.00421462
0.00435839
0.00454197
0.00470181
0.00480577
0.00483942
0.00487039
0.00491518
0.00491053
0.00488371
0.00486887
0.00480839
0.00475542
0.00469046
0.00454989
0.00437243
0.00421842
0.00417489
0.00426392
0.00434825
0.00426847
0.00394475
0.00410174
0.00425008
0.00439585
0.00460458
0.00484665
0.00494947
0.00498543
0.00496086
0.00494191
0.00493989
0.00489723
0.00488123
0.00492059
0.0049237
0.00494349
0.00497545
0.0049477
0.00486515
0.00456832
0.00421487
0.00404655
0.00394729
0.00381279
0.00428912
0.00437997
0.00427166
0.00419829
0.00430996
0.00443797
0.00457174
0.00466104
0.00469669
0.00474796
0.00481555
0.00484817
0.00480007
0.00474416
0.0046755
0.00464077
0.0046424
0.0046218
0.0045364
0.0044347
0.00431334
0.00445834
0.00454472
0.00446191
0.00401976
0.0040855
0.00418477
0.00423888
0.00457311
0.00486469
0.00493006
0.00492926
0.00489721
0.0048763
0.00487685
0.00485218
0.00480446
0.00479502
0.00479055
0.00484807
0.00492383
0.0049682
0.00499028
0.00477169
0.00437649
0.0043183
0.0041351
0.00405203
0.00452191
0.00457422
0.00446593
0.00436854
0.00458035
0.00466938
0.00469308
0.00467274
0.00462167
0.00458777
0.00464624
0.00473911
0.00466839
0.00436549
0.00409661
0.00423616
0.00427145
0.00426193
0.00420493
0.00410838
0.00389771
0.00435438
0.00480197
0.00483564
0.00434259
0.00434987
0.00421886
0.00391961
0.00430021
0.00450213
0.00454581
0.00452625
0.00445483
0.00428478
0.00452664
0.00474003
0.00470008
0.00425352
0.00275998
0.00279811
0.00281794
0.00282078
0.00278496
0.00277535
0.00273606
0.00271615
0.00265485
0.00259281
0.00253295
0.00270082
0.00284313
0.00303624
0.00305307
0.00313351
0.00300539
0.00284878
0.00266303
0.00207803
0.00263584
0.00314287
0.00333692
0.00358759
0.00363925
0.00418727
0.0044007
0.00451525
0.00442832
0.00355278
0.00301403
0.00240906
0.00156684
0.000976469
0.0011466
0.0011931
0.00125911
0.00154722
0.00282551
0.00144767
0.00199881
0.00156236
0.00268033
0.00143565
0.000896297
0.000594581
0.000761056
0.000907181
0.000917579
0.000877785
0.000731059
0.000573707
0.000586299
0.000546133
0.000580041
0.000520772
0.000596243
0.000555007
0.000762086
0.00110715
0.00129439
0.00132759
0.00107511
0.00121661
0.00101681
0.00117501
0.00105068
0.00114582
0.00109961
0.00134477
0.0014737
0.00141014
0.00141312
0.00123641
0.000864622
0.0010025
0.000787608
0.000946064
0.000723923
0.000934177
0.00080109
0.00104093
0.00107293
0.00106969
0.00102975
0.000786527
0.000932203
0.00073428
0.00090595
0.000746199
0.000800577
0.0006673
0.0009716
0.000990706
0.000912714
0.000974757
0.00109528
0.00117248
0.00128429
0.0012096
0.00137216
0.00132034
0.00133161
0.00126179
0.00122766
0.00120006
0.00120303
0.00118342
0.00118983
0.00122799
0.00122943
0.00123389
0.00127217
0.00125362
0.00122256
0.00120344
0.00106952
0.000864016
0.00150527
0.00155226
0.0015767
0.0015773
0.00154354
0.00152483
0.00146878
0.00145442
0.00140675
0.00138075
0.00131768
0.00126815
0.00121002
0.00136113
0.000762453
0.0008659
0.000914032
0.000941886
0.000960313
0.000969104
0.000975349
0.000969557
0.000956987
0.000934025
0.000926978
0.000901668
0.0011526
0.00131102
0.00137175
0.00138855
0.00130138
0.00123987
0.00272407
0.00330074
0.00500389
0.00511441
0.00384685
0.00383256
0.00132204
0.00139934
0.000955423
0.00134256
0.00138453
0.00137032
0.00129411
0.000933204
0.00140086
0.000977251
0.00131396
0.000990646
0.00121811
0.0010202
0.00146221
0.00186916
0.00180899
0.00164104
0.00113457
0.000945949
0.000953308
0.000812631
0.000890683
0.000723889
0.000880863
0.000736521
0.00107072
0.00148736
0.00167586
0.00171184
0.00135109
0.00186576
0.00140357
0.002035
0.00162021
0.00200218
0.00160889
0.00185927
0.00230089
0.00231159
0.00225657
0.00181855
0.00145504
0.00163423
0.00144681
0.00166772
0.00241289
0.00158074
0.00240666
0.000992932
0.0013539
0.00139597
0.00137711
0.00129858
0.000874468
0.00222518
0.00117776
0.0020897
0.00135313
0.00216282
0.00158026
0.00210654
0.0025207
0.00264383
0.00263955
0.00215563
0.00195018
0.00202848
0.00161991
0.00194583
0.00144115
0.0020872
0.00117506
0.00151982
0.00166894
0.00176002
0.00176462
0.00144643
0.00286197
0.00179927
0.00271624
0.00189209
0.00242547
0.0019449
0.00212436
0.00250971
0.00249338
0.00247152
0.00209541
0.00169711
0.00224136
0.00159642
0.048177
0.110829
0.0442999
0.112079
0.050679
0.071966
0.0708863
0.0710034
0.0712664
0.0535359
0.116757
0.137888
0.143774
0.145545
0.144492
0.233464
0.190433
0.286005
0.185355
0.109273
0.0475416
0.0654232
0.16845
0.277897
0.417074
0.529184
0.360686
0.373339
0.238237
0.234876
0.221176
0.178995
0.10984
0.0551475
0.00940163
0.0102565
0.0146886
0.0195771
0.0153512
0.00935611
0.00185332
0.00191148
0.00195339
0.00197879
0.00196995
0.0019253
0.00195228
0.00183912
0.00172362
0.00192235
0.00209718
0.00235096
0.00274197
0.00302106
0.00272045
0.00297903
0.00315598
0.00329983
0.00341858
0.00359612
0.00379635
0.00397272
0.00398221
0.00364924
0.0031108
0.00253048
0.00212655
0.00201454
0.00189169
0.0016682
0.00152601
0.00142857
0.00138173
0.00136241
0.00140019
0.00153033
0.00164331
0.00168294
0.00164997
0.0016197
0.00159333
0.00141881
0.00165896
0.00227563
0.00229323
0.00392912
0.00452758
0.00462194
0.00462862
0.004103
0.00262113
0.00262707
0.00264063
0.00269148
0.0027022
0.00270987
0.00270724
0.00269848
0.00268289
0.00265414
0.00263955
0.00259694
0.00256082
0.00247035
0.00247441
0.00250747
0.00253282
0.00249146
0.00250215
0.00244849
0.00317611
0.00424758
0.00479632
0.00501281
0.0051988
0.00504624
0.00699022
0.00597648
0.00420426
0.00414562
0.00409229
0.00485785
0.00488957
0.00439752
0.00441408
0.00403657
0.00251601
0.00250433
0.00250571
0.00267975
0.00273186
0.0028244
0.00284976
0.00287185
0.00288523
0.00287879
0.00287666
0.00285052
0.00283119
0.0027669
0.00274548
0.00273664
0.00150903
0.00164689
0.00170837
0.00172006
0.00174545
0.00173562
0.00172626
0.00170583
0.00169235
0.00166434
0.00163177
0.00158369
0.00148876
0.00135669
0.00149436
0.00253803
0.00253849
0.00414984
0.00466216
0.00469585
0.00525044
0.00498365
0.00472111
0.00507106
0.00455915
0.00452018
0.00409709
0.00254346
0.00257743
0.00152934
0.0015136
0.00176928
0.00171875
0.00183727
0.00188701
0.00189221
0.00191766
0.00194272
0.00197319
0.00202117
0.00203458
0.00200189
0.00199544
0.00188001
0.00162488
0.00164441
0.00193813
0.00203227
0.00188772
0.00185563
0.00184256
0.00179933
0.00176553
0.00173271
0.00175607
0.00189156
0.00189076
0.00185844
0.00176984
0.00172554
0.00149785
0.00144999
0.00252714
0.00254738
0.00417222
0.00430899
0.00429758
0.00495094
0.0055164
0.00627334
0.00535107
0.00433649
0.00443664
0.00506589
0.00375026
0.00310451
0.00184234
0.00142505
0.00171564
0.0016713
0.00173863
0.00180139
0.00159914
0.00171572
0.00158537
0.00144027
0.00143188
0.00142983
0.00146523
0.00147994
0.00150651
0.00150997
0.00154504
0.00154125
0.00154486
0.00156356
0.00157111
0.00173577
0.0018858
0.00158741
0.0013462
0.00131224
0.00123933
0.00118042
0.00120958
0.00118167
0.00117464
0.00115331
0.00113396
0.00108214
0.00112807
0.00119731
0.001401
0.00134225
0.00108468
0.000968867
0.000662376
0.00067474
0.000679395
0.000700332
0.000707898
0.000717214
0.000720641
0.000732278
0.000734488
0.000738108
0.00073778
0.00075511
0.000752428
0.000743569
0.000737949
0.000741611
0.000744947
0.000744295
0.00108972
0.00121316
0.00132439
0.00157266
0.00185059
0.00159285
0.00135035
0.00116494
0.000749038
0.000760376
0.000774175
0.000781369
0.000797797
0.000812894
0.000829589
0.000840209
0.000848086
0.000856479
0.000865251
0.000868922
0.000866814
0.000850342
0.00084055
0.000862293
0.000947784
0.000997495
0.00106105
0.00108516
0.00110625
0.00111714
0.00111152
0.00112285
0.00110931
0.00110737
0.00108794
0.00107959
0.0010714
0.00106134
0.00104895
0.00101885
0.00100871
0.00106155
0.00179474
0.00234592
0.00270254
0.00297712
0.00273604
0.00220404
0.00233534
0.00409052
0.00386022
0.00229454
0.00213425
0.00195949
0.00169728
0.00153088
0.001853
0.00211041
0.00230622
0.00247956
0.00263795
0.00274535
0.00288346
0.0030638
0.00338298
0.00342299
0.00312237
0.00253
0.00214113
0.00199906
0.00193106
0.00181324
0.00168457
0.0017269
0.00173944
0.00168775
0.00162359
0.00160548
0.00163213
0.00166633
0.00164645
0.00164584
0.00147045
0.00146991
0.00251183
0.00255862
0.00393601
0.00414741
0.004188
0.00269216
0.00265556
0.00155108
0.00144072
0.00157177
0.00163187
0.0016354
0.00164228
0.00163426
0.00160584
0.00158514
0.00156082
0.00154114
0.00152365
0.00149347
0.00143587
0.00132652
0.00144566
0.00162052
0.00169224
0.00171083
0.00171982
0.00174687
0.00179156
0.00182704
0.00190953
0.00191748
0.0019165
0.0019231
0.0017972
0.00185321
0.00156832
0.00156587
0.00271407
0.00270634
0.00155483
0.00183594
0.00184871
0.00182785
0.00196815
0.001801
0.00174409
0.00173532
0.0016621
0.00162314
0.00157085
0.0015398
0.00156997
0.00167024
0.00161734
0.00143375
0.00138211
0.00155
0.00149092
0.00123684
0.00105661
0.0010275
0.000983534
0.000956852
0.00100291
0.00103895
0.00105946
0.00108546
0.00109312
0.00114077
0.00110972
0.0011642
0.0012346
0.00129064
0.00153077
0.00165909
0.00149882
0.00147019
0.00145199
0.00145083
0.00145556
0.00139577
0.00139185
0.00136091
0.00134563
0.00130494
0.00128667
0.00126342
0.0012676
0.00128099
0.00140837
0.00362911
0.00462776
0.00481849
0.00823896
0.0033242
0.00339439
0.00667621
0.00275006
0.00414153
0.0044396
0.00464053
0.00484737
0.00443537
0.00564343
0.00393226
0.00437959
0.00456759
0.00400774
0.00149639
0.00169934
0.00196428
0.00175549
0.00155055
0.00105658
0.00113895
0.00117609
0.00120631
0.00122587
0.00124768
0.00127098
0.00129285
0.00130811
0.00130823
0.00126829
0.00122531
0.00112664
0.00109376
0.00113601
0.00117966
0.00103592
0.000975359
0.000986799
0.00100292
0.00101194
0.00101378
0.00102359
0.00102617
0.00104171
0.00103327
0.00104102
0.00102313
0.00103199
0.00101865
0.000984047
0.000935284
0.000852593
0.00083244
0.00119907
0.00127695
0.00134144
0.00152267
0.0017586
0.00187679
0.00168235
0.00155172
0.00148949
0.00165223
0.00165337
0.00300817
0.00577978
0.00258397
0.00289344
0.00844568
0.00335488
0.00260655
0.00264569
0.00267339
0.00267729
0.00155585
0.00184251
0.00178625
0.00179408
0.00152182
0.00127789
0.00114622
0.00102482
0.000695109
0.000692876
0.0006981
0.000708915
0.000712298
0.000681863
0.000681787
0.000677918
0.000676416
0.000662056
0.000658057
0.000646365
0.000639272
0.000622409
0.000613298
0.000597315
0.000594534
0.00062074
0.000690822
0.000835117
0.000928925
0.00105642
0.00107546
0.00120918
0.00300311
0.0034783
0.00479824
0.00475495
0.00749936
0.00468491
0.00353724
0.0031963
0.00467926
0.00483688
0.00449307
0.00608462
0.00420832
0.00278738
0.00420503
0.00350063
0.00414434
0.00406683
0.00431275
0.00683732
0.00718527
0.00202188
0.00180211
0.00189547
0.00215075
0.00255396
0.00235282
0.00267973
0.0026787
0.00206847
0.00131611
0.00419501
0.00507565
0.00407418
0.00489263
0.00752457
0.00302397
0.00294909
0.00260916
0.00217763
0.00197898
0.00195272
0.00217762
0.00260599
0.00652776
0.00698222
0.00644553
0.00643131
0.0058428
0.00641999
0.00799008
0.00794772
0.00702344
0.00656929
0.00680869
0.00423909
0.00262881
0.00305541
0.00338668
0.00451982
0.00466053
0.00983031
0.00334158
0.00368763
0.00374383
0.0050073
0.00485444
0.00856038
0.0036383
0.00391835
0.00516476
0.00689814
0.0126904
0.00464896
0.00488685
0.00702369
0.00713157
0.00652151
0.00472166
0.00427592
0.00465385
0.00350644
0.00342915
0.00292688
0.00432067
0.00580751
0.00460111
0.0044672
0.0037961
0.00339038
0.00346199
0.0035934
0.00298583
0.00294432
0.00339652
0.00253356
0.0024425
0.00258556
0.000716805
0.000367299
0.000375477
0.000385264
0.000393195
0.000401381
0.000407338
0.000414432
0.000417581
0.000417956
0.000419081
0.000443074
0.000438883
0.000424989
0.000385904
0.000440298
0.000698717
0.000699126
0.000439734
0.000387644
0.000695624
0.00110827
0.00130649
0.00154532
0.00156424
0.00134983
0.00117047
0.000720608
0.000709264
0.000429881
0.000502073
0.000545225
0.000483639
0.000539808
0.000500364
0.000529954
0.000535643
0.000495725
0.000492886
0.000494763
0.00049104
0.000482292
0.000471628
0.000458598
0.000448377
0.000442823
0.000438609
0.000429307
0.000356489
0.000332434
0.000400198
0.000638716
0.000637843
0.000597666
0.000563105
0.000533536
0.000519988
0.000516165
0.000513298
0.000522272
0.000539102
0.000543879
0.000548755
0.000591199
0.000572446
0.000611407
0.000573839
0.000613019
0.000575319
0.000529258
0.000444391
0.000458471
0.000739675
0.000747542
0.00120756
0.00138112
0.00156599
0.00157383
0.00175705
0.00185076
0.00156764
0.00162746
0.00186479
0.00173648
0.0015475
0.00155369
0.00139741
0.00139897
0.00123955
0.000774815
0.000764329
0.000479987
0.000466183
0.000555872
0.000546193
0.000607436
0.000650139
0.000650363
0.000648277
0.000632346
0.000626554
0.000551001
0.000540097
0.000540826
0.000524508
0.000521008
0.000543394
0.000593382
0.00069693
0.000843296
0.000918161
0.000949858
0.000910489
0.00081506
0.000602195
0.000543694
0.000942862
0.000977966
0.00175641
0.00417669
0.00194499
0.00369996
0.00266917
0.000663118
0.000739528
0.000943011
0.00105664
0.00114095
0.0011897
0.00108773
0.000907689
0.000683331
0.000564403
0.000842358
0.000728394
0.000822334
0.000718123
0.000929285
0.0010744
0.00103928
0.00104699
0.000884731
0.000720633
0.000763194
0.000685073
0.000755113
0.000632206
0.00076065
0.000686645
0.000862825
0.00087091
0.000852769
0.00080829
0.000615422
0.000645725
0.000541682
0.00058766
0.000527688
0.000545437
0.000516863
0.000602707
0.000694531
0.000666596
0.000664013
0.00054561
0.000427592
0.000472319
0.000408593
0.000462488
0.000359553
0.000435532
0.000365149
0.000472757
0.00048739
0.000490008
0.000487009
0.000396441
0.000466363
0.000570984
0.000599421
0.000604279
0.000575315
0.000443722
0.000686402
0.000618849
0.000755619
0.000653285
0.000715393
0.000651354
0.000759156
0.000972299
0.00101518
0.00102191
0.000829147
0.000823988
0.00150376
0.083465
0.00135272
0.00159894
0.00164889
0.001643
0.00135835
0.00132502
0.00164141
0.00121393
0.00171949
0.00108271
0.00183444
0.000699303
0.00106313
0.00114143