/*--------------------------------*- C++ -*----------------------------------*\
| =========                 |                                                 |
| \\      /  F ield         | OpenFOAM: The Open Source CFD Toolbox           |
|  \\    /   O peration     | Version:  v2012                                 |
|   \\  /    A nd           | Website:  www.openfoam.com                      |
|    \\/     M anipulation  |                                                 |
\*---------------------------------------------------------------------------*/
FoamFile
{
    version     2.0;
    format      ascii;
    class       volScalarField;
    location    "55";
    object      nut;
}
// * * * * * * * * * * * * * * * * * * * * * * * * * * * * * * * * * * * * * //

dimensions      [0 2 -1 0 0 0 0];


internalField   nonuniform List<scalar> 
18258
(
0.00444445
0.00205844
0.0017886
0.00158964
0.0010423
0.0016439
0.00218176
0.00257881
0.00268443
0.00259727
0.00263048
0.00435192
0.00603484
0.00737395
0.00769876
0.00767955
0.0069331
0.00672748
0.00744163
0.0091058
0.00764002
0.00489398
0.00591262
0.00678984
0.00720232
0.00634994
0.00512835
0.00479293
0.00436408
0.00365678
0.00306674
0.0020468
0.00151149
0.00142936
0.00128333
0.0014595
0.0015852
0.00168405
0.00172311
0.00175228
0.00174075
0.00173114
0.00168275
0.00165469
0.00160334
0.00132673
0.00166633
0.00172378
0.00145153
0.00215675
0.00236829
0.00203097
0.00231064
0.00209128
0.00141128
0.00161892
0.00175714
0.00180199
0.00178851
0.0017234
0.00170585
0.00169106
0.00166976
0.00164272
0.00162777
0.00164837
0.001668
0.00165078
0.00157035
0.00150293
0.00139159
0.00127887
0.00119288
0.00112539
0.00107484
0.00102638
0.000971635
0.00085443
0.000791669
0.00105171
0.00132058
0.00141053
0.0019919
0.00242769
0.00244253
0.00180682
0.00126907
0.00131087
0.00146698
0.0015008
0.00128191
0.00155497
0.00179376
0.0018808
0.00196277
0.002187
0.00236828
0.00225941
0.00249578
0.00255597
0.00254775
0.00252377
0.0023259
0.00300203
0.0030997
0.00302532
0.00288672
0.0028774
0.00294884
0.00324813
0.00276949
0.00254455
0.00249061
0.00248527
0.00221319
0.0022545
0.00202015
0.00181904
0.00196805
0.00245204
0.00233098
0.00256141
0.00264807
0.00247984
0.002876
0.00333005
0.00326185
0.00260605
0.00204672
0.00190834
0.00192629
0.00117615
0.00127086
0.00141543
0.00144936
0.00146476
0.00147933
0.00155825
0.00155453
0.00153564
0.00153432
0.00160064
0.000865336
0.000928791
0.000949616
0.000956342
0.000918974
0.000915486
0.000903066
0.00089024
0.000814759
0.00077664
0.00093282
0.00105002
0.00114523
0.00125268
0.00142414
0.0016308
0.00184369
0.00205532
0.00219244
0.00222632
0.00226176
0.00217438
0.00208687
0.00215626
0.00216622
0.00215159
0.00212434
0.00208853
0.00203724
0.00194112
0.00204777
0.00204414
0.00192283
0.00163153
0.0016667
0.00165984
0.0017011
0.00169059
0.00170852
0.00168845
0.00166671
0.00159488
0.00149648
0.00128963
0.00121305
0.0012456
0.0016158
0.00197435
0.0030654
0.00376085
0.00439309
0.00471265
0.00508491
0.00409029
0.0045412
0.00347443
0.00312493
0.00398649
0.00522093
0.00297178
0.00161185
0.00304866
0.0026881
0.00192101
0.00170012
0.0017392
0.0017467
0.00198863
0.00225277
0.00246372
0.00256075
0.00266504
0.00273549
0.00282524
0.00293992
0.00297184
0.0028721
0.00243705
0.00289816
0.00229693
0.00263062
0.00232423
0.00152127
0.00218945
0.00232908
0.00202869
0.00190885
0.00179857
0.00160625
0.00204081
0.00260957
0.0029818
0.00337121
0.00448418
0.00413109
0.00395092
0.00307505
0.00296363
0.00156537
0.00223669
0.00229008
0.00256135
0.00170228
0.00154172
0.00142869
0.00183419
0.00207484
0.00243167
0.00268977
0.00321791
0.00241359
0.00270649
0.00242001
0.00165066
0.00162545
0.0023632
0.00256722
0.00216609
0.00197693
0.00240027
0.0022547
0.0015875
0.00130962
0.00202004
0.00211843
0.00161777
0.00355475
0.00368264
0.00366348
0.00446358
0.00571769
0.00663083
0.00604162
0.00537119
0.00617431
0.0048184
0.00457947
0.00486979
0.00406289
0.00290228
0.00304345
0.00320936
0.00331938
0.00357573
0.00380507
0.00408175
0.00440299
0.00404128
0.00339642
0.00261005
0.00184531
0.00184622
0.0018349
0.00164492
0.00243439
0.00362849
0.00355316
0.00200338
0.00118267
0.00135491
0.0015296
0.0015053
0.00107047
0.000811208
0.0013974
0.00159353
0.00161625
0.00157389
0.00148441
0.00154957
0.00248798
0.00383296
0.0042123
0.00436216
0.00450285
0.00460099
0.00465351
0.00466737
0.0046737
0.00468319
0.00469245
0.00470846
0.00469452
0.00459532
0.00404204
0.00253925
0.00148728
0.0013864
0.00153172
0.00164806
0.00175142
0.00149317
0.000909173
0.00145433
0.00185928
0.00213164
0.00214778
0.00200317
0.00194212
0.00306137
0.00407078
0.00479816
0.00494315
0.0050046
0.00494382
0.00492925
0.00481248
0.00476761
0.00416955
0.00301598
0.00330367
0.00355123
0.00359888
0.00368763
0.00381905
0.00373286
0.00352375
0.00517035
0.00592702
0.00600999
0.00613938
0.00605477
0.00592465
0.00561918
0.00528233
0.00443883
0.0033244
0.0020925
0.00213336
0.00226897
0.00224522
0.00195343
0.00207
0.00225467
0.00227802
0.00235526
0.00264658
0.00301181
0.00286638
0.00245099
0.0020929
0.00195402
0.00192555
0.0018557
0.00140336
0.00141651
0.00136648
0.00138006
0.00183671
0.00218458
0.00252339
0.00360076
0.0032116
0.00261017
0.00419514
0.00428858
0.00462119
0.00510707
0.00524489
0.0058751
0.00402996
0.00360548
0.00370258
0.00301664
0.00278691
0.0028106
0.00281943
0.00261431
0.00286202
0.00283666
0.00273446
0.00302095
0.00335019
0.00442657
0.00538848
0.00571082
0.00590681
0.00599217
0.00596531
0.00581916
0.00582546
0.00510559
0.00507086
0.00486706
0.00472559
0.00467046
0.00442254
0.00509627
0.00530117
0.00536911
0.00550254
0.00570746
0.00558087
0.00540332
0.00526955
0.00517035
0.00506083
0.00512608
0.0052324
0.00534195
0.00549324
0.005696
0.00574289
0.00553475
0.00537377
0.00525961
0.00515168
0.0051618
0.00525924
0.005371
0.00552298
0.00570767
0.00559464
0.00545773
0.00532542
0.00521389
0.00511342
0.00493467
0.00506062
0.00519628
0.00530477
0.00536557
0.00461899
0.00495158
0.00486986
0.00440743
0.00412179
0.00312823
0.00338587
0.00357142
0.003889
0.00431372
0.00439387
0.00367662
0.00314548
0.00305476
0.00302782
0.0030968
0.00312497
0.00314883
0.00356442
0.00552635
0.00554734
0.00552105
0.00549825
0.00465989
0.00453593
0.00425078
0.00802876
0.00740729
0.00634321
0.0051407
0.00272276
0.00233502
0.00277306
0.00337171
0.00376486
0.00414789
0.00275787
0.00169394
0.00196416
0.00201996
0.00194644
0.00179115
0.00149645
0.00138019
0.0012485
0.00134398
0.00239497
0.00385014
0.00433793
0.00437365
0.0043043
0.00416125
0.00392669
0.00420272
0.00682191
0.00757846
0.00794571
0.00810003
0.00791325
0.00689294
0.00592196
0.00353361
0.00198805
0.00173496
0.00179335
0.00177842
0.00192541
0.00204236
0.00181821
0.00180372
0.00176398
0.00309512
0.0051207
0.00567523
0.00670965
0.00719352
0.00717127
0.00663716
0.00559837
0.00431908
0.00443063
0.00454932
0.00462683
0.00467377
0.00464621
0.00421973
0.00258705
0.00154162
0.00136324
0.0014594
0.00171425
0.00183239
0.00186681
0.00185364
0.00161697
0.00269613
0.00426969
0.00271955
0.0014746
0.00158346
0.00156169
0.0027591
0.0027669
0.00272594
0.00423923
0.00451058
0.00453044
0.00425258
0.00404328
0.00239529
0.00274348
0.00275726
0.00277196
0.00281475
0.00142318
0.00155294
0.001603
0.00172837
0.00149802
0.00186895
0.000484435
0.00067746
0.00078853
0.000868327
0.000937503
0.000918321
0.00177424
0.00181606
0.00172607
0.00164891
0.00209588
0.00225665
0.00229837
0.00210749
0.00194197
0.00206903
0.00208007
0.00196186
0.00185623
0.00192071
0.00191828
0.00183966
0.0015642
0.00146584
0.00160816
0.00159304
0.00158209
0.00283516
0.00283064
0.00267948
0.00440725
0.0043394
0.00485868
0.00481849
0.00478276
0.00473225
0.00478452
0.00484227
0.00488977
0.00492354
0.00491678
0.00486823
0.00700882
0.00478923
0.00417897
0.00241855
0.00233011
0.0016459
0.00144431
0.00170187
0.0018212
0.00197551
0.00193213
0.00203397
0.00203029
0.0021546
0.00199867
0.00177368
0.00271526
0.00290124
0.00283374
0.00288973
0.00282078
0.00280349
0.00278294
0.00274389
0.00269635
0.00160628
0.00157614
0.00184709
0.00194
0.0020851
0.00210307
0.00214892
0.00203676
0.00179026
0.00173276
0.00199662
0.0019693
0.00200874
0.00189289
0.00188416
0.00167792
0.00172103
0.0034807
0.00654135
0.00330267
0.00368155
0.0033347
0.00380918
0.00332196
0.00285674
0.00291953
0.00256904
0.00267924
0.00280937
0.00285984
0.00300538
0.00354266
0.00340443
0.00298823
0.0029026
0.00284719
0.00268774
0.00241944
0.00252825
0.00254539
0.00259765
0.00288761
0.00331759
0.00371067
0.00453794
0.00439574
0.00383679
0.00351113
0.00367366
0.00374722
0.0047377
0.00440869
0.00439507
0.00466713
0.00464864
0.00440753
0.00415986
0.00400595
0.00343076
0.00349441
0.00400559
0.00386674
0.00397847
0.00389915
0.00406342
0.00412727
0.00395075
0.00366229
0.0038856
0.00388844
0.00430809
0.00417427
0.0038681
0.00352024
0.00378362
0.00377297
0.00434363
0.00406814
0.00380727
0.00349704
0.00338507
0.00384398
0.00375826
0.00425033
0.00439216
0.00440359
0.00385041
0.00374256
0.00444057
0.00427306
0.00415446
0.00432823
0.00359978
0.00366346
0.00451737
0.00460854
0.00439021
0.00368995
0.00370667
0.00316505
0.00371842
0.00464512
0.00438838
0.00359809
0.00301917
0.00418976
0.00439994
0.00466486
0.00440616
0.00479654
0.00518714
0.00421059
0.00459556
0.00604372
0.00453914
0.00527004
0.00538359
0.00540713
0.0053972
0.00540108
0.0054069
0.0056678
0.00546256
0.00352945
0.00419853
0.00412988
0.00347836
0.00297617
0.00327458
0.00352861
0.00358447
0.00368089
0.00382497
0.00375427
0.00357883
0.00519313
0.00593321
0.0060621
0.00619382
0.00608573
0.00592781
0.00560067
0.00524877
0.00440679
0.00329848
0.00207561
0.0021191
0.00226037
0.0022433
0.00194975
0.00146682
0.000973017
0.00144622
0.00151826
0.00144863
0.00133932
0.00121248
0.00129648
0.00230345
0.00370077
0.00416981
0.00418163
0.00404376
0.00396429
0.00615168
0.0071696
0.00771952
0.00803533
0.0081965
0.00821417
0.00800512
0.0072229
0.00693032
0.00655764
0.00626405
0.0059121
0.00562454
0.00631963
0.00692084
0.00728279
0.00768228
0.00783923
0.00773739
0.00676719
0.00671424
0.00770754
0.00941184
0.0079301
0.00995504
0.0118402
0.00927985
0.00832583
0.0082645
0.00908335
0.00927526
0.00898888
0.00849601
0.00791315
0.0071651
0.00748778
0.00777971
0.00805752
0.00829205
0.00911525
0.0093163
0.00925591
0.00905418
0.00869858
0.00811495
0.00709389
0.00462192
0.00414942
0.00436693
0.00440286
0.00391382
0.0022013
0.00245639
0.00245095
0.00246818
0.0024268
0.00114685
0.00127328
0.00130242
0.00133328
0.00125389
0.00145199
0.00207023
0.00328603
0.00250656
0.00220663
0.0013083
0.00147702
0.00247566
0.00407559
0.0045178
0.00454894
0.00448118
0.00430503
0.00499823
0.00634883
0.00709038
0.00745415
0.00752324
0.0073122
0.00689659
0.00623627
0.00607143
0.00578437
0.00558416
0.00553436
0.00536437
0.00504402
0.00395584
0.0037586
0.00391978
0.00385686
0.00367782
0.00392876
0.00407088
0.00406743
0.00411234
0.00415211
0.00427536
0.00442045
0.00454689
0.00461362
0.00463884
0.00464723
0.00465731
0.0046653
0.00467997
0.00466476
0.00456397
0.00401027
0.00251502
0.00147177
0.0013608
0.00149163
0.00157734
0.00161398
0.00143518
0.000924613
0.00143523
0.00185753
0.00190151
0.002084
0.00214595
0.0022687
0.00251878
0.00290642
0.00299703
0.00266477
0.00253114
0.00248252
0.00241787
0.00210281
0.00262248
0.00284823
0.00284058
0.00280533
0.0030251
0.00371481
0.00357577
0.00316026
0.00313652
0.00310748
0.00285591
0.00282173
0.00302919
0.00305883
0.00315679
0.00369171
0.00441295
0.00410262
0.00374604
0.00361581
0.00334717
0.00299869
0.00271432
0.00322061
0.00271238
0.00159362
0.001513
0.00130283
0.00127612
0.00124993
0.0014849
0.00156956
0.00162747
0.00152707
0.00167465
0.00183768
0.0017462
0.00193243
0.00191813
0.00175333
0.0016786
0.00174046
0.00179692
0.00191459
0.00200359
0.00332106
0.00352722
0.00274433
0.00386497
0.00426738
0.00402569
0.00433907
0.00367137
0.00338401
0.00398654
0.00447527
0.00493457
0.00399558
0.00384303
0.00385394
0.00181877
0.000958704
0.00135238
0.00168788
0.00191158
0.00186526
0.00175738
0.00148624
0.00263381
0.00267614
0.00417503
0.00466604
0.00471535
0.00468545
0.00462303
0.00461302
0.00516471
0.00598392
0.00661423
0.0067725
0.00648393
0.00581721
0.00521623
0.00530981
0.00521768
0.00516903
0.00519711
0.00449362
0.00393969
0.00421974
0.00412782
0.00426505
0.00432773
0.00437236
0.00441763
0.00449474
0.00458796
0.00467176
0.0047283
0.00476531
0.00479624
0.00482758
0.00485767
0.00488937
0.00490226
0.00484995
0.00438139
0.00264637
0.001585
0.00144969
0.00154725
0.00181751
0.00191397
0.0020581
0.00182981
0.000963158
0.00113038
0.00196617
0.00217433
0.00201079
0.00188247
0.00184344
0.00154529
0.00278243
0.00274103
0.00427718
0.00481479
0.00489064
0.00488641
0.00485774
0.00482327
0.00478844
0.00476036
0.00473865
0.00471518
0.00467967
0.00463573
0.00459513
0.00455326
0.00447836
0.00436966
0.0042241
0.00437073
0.00453095
0.00471547
0.00490488
0.00499486
0.00490185
0.00477378
0.00472574
0.00474836
0.00478116
0.00481513
0.00484498
0.00485395
0.00478725
0.00450338
0.00422728
0.00268795
0.00272164
0.00135133
0.0015036
0.00173314
0.00178903
0.0019472
0.00193856
0.00152916
0.00119398
0.0013443
0.00125243
0.00222916
0.00244651
0.00270242
0.00267454
0.00146303
0.00150083
0.0015618
0.00176301
0.00164668
0.00158616
0.00378225
0.00366034
0.00386315
0.00471778
0.00406749
0.00281705
0.00307628
0.00428047
0.00451326
0.00273187
0.00206463
0.00227471
0.00287219
0.00423449
0.0042854
0.0040712
0.00404847
0.00295773
0.00365084
0.00440258
0.00427414
0.00332549
0.00228879
0.00171868
0.000849664
0.00161521
0.00138171
0.00336943
0.00372586
0.00367904
0.00400832
0.00426786
0.00431084
0.00417946
0.0037224
0.00379752
0.00383059
0.00435229
0.00435847
0.00370926
0.00312896
0.0025546
0.00257141
0.00261469
0.00289088
0.00361514
0.00340948
0.0029935
0.0029094
0.00285319
0.00268923
0.00242896
0.00213625
0.00215008
0.00200098
0.00193647
0.00304986
0.00405555
0.00477973
0.00492004
0.00497419
0.00490372
0.00487628
0.00474549
0.0046832
0.00407906
0.00524081
0.00551264
0.00530145
0.00532598
0.00534485
0.00537099
0.00535823
0.0052505
0.00452236
0.00270575
0.00176919
0.00199692
0.00215614
0.00202605
0.00201331
0.00214419
0.0020331
0.00178531
0.00289092
0.00282283
0.0045053
0.0050912
0.00520883
0.0052331
0.00522865
0.0052284
0.00525023
0.00554281
0.00541934
0.00541155
0.00556539
0.00560963
0.00570077
0.00536741
0.00531532
0.00528883
0.00527383
0.0052362
0.00511199
0.00452308
0.00438219
0.00497508
0.00512411
0.00518275
0.00521979
0.00526697
0.00533841
0.00555273
0.00570375
0.00572359
0.00559485
0.00556207
0.00542816
0.0052313
0.00517808
0.00515391
0.00513497
0.00509097
0.0049494
0.00436158
0.00280803
0.00287818
0.00171405
0.00172673
0.00198972
0.00209151
0.0020555
0.00190434
0.00185743
0.00316763
0.00359912
0.00383778
0.00411182
0.00392645
0.00390655
0.00445685
0.00431497
0.00383801
0.00399456
0.00360241
0.0034365
0.00329258
0.0033015
0.00177483
0.00191392
0.00199488
0.00196005
0.001874
0.00167002
0.00153124
0.00279015
0.00277017
0.00273174
0.00162962
0.0015951
0.00187949
0.00182661
0.00167228
0.00142564
0.00156134
0.00240234
0.00268387
0.00415535
0.00429614
0.00460664
0.00492669
0.00505764
0.00511029
0.00514095
0.00517434
0.00522497
0.00528774
0.00530365
0.00528716
0.0053078
0.00533133
0.00532613
0.00527992
0.0052344
0.00519229
0.00515231
0.00508949
0.00495421
0.00463015
0.00431412
0.00486324
0.00490935
0.00500517
0.0051085
0.00515559
0.00517271
0.0051705
0.00515698
0.00514066
0.00510332
0.00508628
0.00516345
0.00517678
0.0051904
0.0051728
0.00516546
0.00516264
0.00514222
0.00509483
0.00498654
0.00488883
0.00484308
0.00476539
0.00489249
0.00494749
0.00496054
0.00501446
0.00509799
0.00512127
0.00510722
0.00506371
0.00502367
0.00499352
0.00495095
0.00490856
0.0047619
0.00481055
0.00487522
0.00494426
0.00501228
0.0050679
0.00509372
0.00508047
0.0050136
0.00496963
0.00496285
0.00491413
0.00493908
0.00497469
0.00496643
0.00498548
0.0050182
0.00499697
0.00492011
0.00480802
0.00468531
0.00457547
0.00449358
0.00439847
0.00458503
0.00466723
0.00474372
0.00482178
0.00491692
0.00501444
0.00507017
0.00507131
0.0050124
0.00497478
0.00496865
0.00492145
0.00491869
0.00496445
0.00497134
0.00500398
0.00505746
0.00502289
0.00490973
0.00473208
0.00456558
0.00443934
0.00433735
0.00421087
0.00404622
0.00415482
0.00423147
0.00437925
0.00455451
0.00474357
0.00489173
0.00495791
0.00494474
0.00494089
0.00495748
0.00493046
0.00491308
0.00493055
0.00490776
0.00489411
0.00486827
0.00475712
0.00455541
0.00435009
0.00420318
0.00417034
0.00420556
0.00412851
0.00400182
0.00414298
0.00422308
0.00433897
0.00452493
0.00475988
0.00493525
0.00500577
0.00498489
0.00496169
0.00495263
0.00490882
0.00489246
0.00493403
0.00494666
0.00497527
0.00499678
0.00491548
0.00474402
0.00447411
0.00419464
0.00412007
0.00408158
0.00397493
0.00414853
0.00423784
0.00417405
0.00414609
0.00432636
0.00453448
0.00472353
0.0048359
0.0048527
0.00487008
0.00489675
0.00488894
0.00485237
0.00484146
0.00481141
0.00479869
0.0047915
0.00471962
0.00457823
0.00443121
0.00431633
0.00442779
0.00441658
0.00432294
0.00416485
0.00428328
0.00440296
0.00434381
0.00453764
0.00475896
0.00489855
0.00495479
0.00493153
0.00490259
0.00489093
0.00486264
0.0048139
0.00481023
0.00482133
0.00489378
0.00495372
0.0049372
0.00490578
0.00478241
0.00459894
0.00461641
0.00433237
0.00417156
0.00434748
0.00445782
0.00452079
0.00447281
0.00464743
0.00473337
0.00477584
0.00479986
0.00476758
0.0047264
0.00475416
0.00480145
0.0047381
0.00447585
0.00422393
0.00437194
0.00439312
0.00435778
0.00429453
0.00421213
0.00402315
0.0044002
0.00469123
0.00467741
0.00450185
0.00456322
0.0045167
0.00416592
0.00436708
0.00446052
0.00451186
0.0045345
0.00448968
0.00431124
0.00454023
0.00474751
0.00470429
0.00426195
0.00278309
0.0028254
0.00284656
0.00284908
0.0028032
0.00279049
0.00274075
0.0027156
0.00264442
0.00257298
0.00250892
0.00267189
0.00281667
0.00300769
0.00301399
0.00308701
0.0029357
0.00277117
0.00257579
0.00202859
0.00257295
0.00306618
0.00327973
0.00354764
0.00361635
0.00420702
0.00441899
0.00452193
0.00442227
0.00355493
0.00301364
0.00240783
0.0015661
0.000974694
0.00114238
0.00118678
0.00123888
0.00148846
0.00281492
0.00141548
0.00197592
0.0015451
0.00267567
0.00135123
0.000882823
0.000587797
0.000750834
0.00089827
0.000908008
0.000871545
0.000729504
0.000576366
0.000589705
0.000546698
0.000581353
0.000517411
0.000594131
0.000559206
0.000931734
0.00126808
0.00137044
0.00138824
0.00111655
0.0012491
0.00104309
0.00119705
0.00106624
0.00116046
0.00111239
0.00136001
0.00149087
0.00142953
0.00143597
0.00125775
0.000881056
0.00102063
0.000801808
0.000961998
0.000735081
0.000949547
0.000814018
0.00105721
0.00108916
0.00108558
0.00104496
0.000798158
0.00094578
0.00074383
0.000916536
0.000745686
0.000798659
0.000666698
0.000964154
0.000981856
0.000904575
0.000962029
0.0010816
0.00116542
0.00128972
0.00122402
0.00139187
0.00134096
0.00135202
0.00127962
0.00124422
0.00121655
0.00121974
0.00120041
0.00120787
0.00124783
0.00125138
0.00125816
0.00129955
0.00128139
0.00125103
0.00123273
0.00109555
0.000882999
0.00153758
0.00158607
0.0016085
0.00160621
0.00156835
0.00155235
0.00150497
0.00149042
0.00144869
0.00142044
0.00136215
0.00130949
0.00125275
0.00140443
0.000784141
0.000889459
0.000938479
0.000964351
0.000983749
0.000991808
0.000999656
0.000994011
0.000982238
0.000957361
0.000948279
0.000921791
0.00118018
0.0013412
0.0014012
0.00141695
0.00132744
0.00126241
0.00274847
0.0033177
0.00506287
0.00516953
0.00387382
0.00386587
0.00134364
0.00140775
0.000965832
0.00135674
0.00139758
0.00138236
0.00130509
0.00094023
0.0014088
0.000979656
0.00133546
0.00100208
0.00126266
0.00102904
0.00146253
0.00186136
0.00179424
0.00162463
0.00110989
0.000926681
0.000923321
0.000794323
0.000864789
0.000712939
0.000875825
0.000751748
0.0012531
0.00164466
0.0017603
0.00178397
0.00140316
0.00193079
0.00145284
0.00209286
0.00165301
0.00202768
0.00162099
0.00187764
0.00232204
0.0023327
0.00227946
0.00183992
0.00148254
0.0016623
0.00147526
0.00169612
0.00244052
0.0016018
0.00241496
0.00100111
0.00136421
0.00140505
0.00138474
0.00130472
0.000878514
0.00223518
0.00118042
0.00211729
0.0013739
0.00222567
0.00160702
0.00212357
0.00254362
0.00265596
0.00264163
0.00215477
0.0019386
0.00199162
0.00159808
0.00191318
0.00143209
0.00207656
0.00116957
0.00154831
0.00171694
0.00179613
0.00180889
0.0014985
0.00292853
0.00183555
0.0027641
0.00191558
0.00244795
0.0019589
0.00214392
0.00252806
0.00251446
0.0024964
0.00211927
0.00171616
0.00226428
0.00162082
0.0472058
0.109848
0.0433413
0.110578
0.0502155
0.0711595
0.0701334
0.0703135
0.0705964
0.0530606
0.115704
0.136733
0.142633
0.144367
0.143294
0.231691
0.188943
0.284308
0.184743
0.108349
0.0468128
0.0649144
0.167736
0.277165
0.414955
0.525902
0.358092
0.37047
0.236364
0.23303
0.219304
0.177289
0.108268
0.0542658
0.00938903
0.0103081
0.01477
0.0196903
0.0157023
0.00973061
0.00189355
0.0019566
0.00200285
0.00203295
0.00202974
0.00199336
0.00203633
0.00195689
0.00185152
0.00208497
0.00226176
0.00201133
0.00229726
0.00263349
0.0023367
0.00268837
0.00294094
0.00313595
0.00327655
0.00346025
0.0036634
0.00387242
0.0039205
0.00363173
0.00311279
0.00257549
0.0022263
0.00212722
0.00200585
0.00176507
0.00161606
0.00153203
0.00147613
0.00144351
0.0014712
0.00159808
0.00169662
0.0017265
0.00167716
0.00164361
0.00161364
0.00143387
0.00167153
0.0022927
0.00233429
0.00399666
0.00460662
0.00469978
0.0047025
0.00421029
0.00270209
0.0027086
0.00272345
0.00277786
0.00278773
0.00278934
0.00278395
0.00276388
0.00274778
0.00271668
0.00270387
0.00266741
0.00263389
0.00255465
0.00255793
0.00258494
0.00261032
0.00258721
0.00261071
0.00255655
0.00258793
0.00326399
0.00448915
0.00485756
0.00511145
0.00492403
0.00654189
0.00518255
0.00417477
0.00425514
0.00419299
0.00480113
0.00474116
0.00456961
0.00468978
0.00432034
0.00266808
0.00265415
0.00265215
0.00273949
0.00277216
0.00281358
0.00282478
0.00284952
0.00286309
0.00287625
0.00287911
0.00286518
0.00285036
0.0027822
0.00276007
0.00275156
0.00151482
0.00165697
0.00172433
0.00173282
0.00175112
0.00174033
0.00171739
0.00169796
0.00168296
0.00166695
0.00165566
0.0016266
0.00156663
0.00143272
0.00157701
0.0026967
0.00268624
0.00444517
0.00491373
0.00490082
0.00508663
0.00499466
0.00480705
0.00498813
0.0048339
0.00482254
0.00435694
0.00269404
0.00273435
0.00160869
0.00159438
0.00185354
0.00180374
0.00189384
0.00191858
0.00190445
0.001915
0.00194127
0.00196996
0.00203973
0.00205026
0.00202725
0.00202542
0.00189587
0.00163056
0.00165042
0.00195777
0.00207036
0.00190972
0.00186811
0.00185798
0.00179799
0.00176551
0.00173372
0.00177192
0.00192793
0.00195398
0.00192171
0.00185055
0.00179837
0.00157179
0.00151667
0.00268979
0.00271489
0.00441156
0.00460732
0.00442308
0.00460976
0.0049348
0.00565532
0.00464958
0.00400351
0.00460535
0.00520824
0.00386121
0.0032683
0.00191896
0.00150178
0.00183764
0.00173573
0.00179401
0.00186134
0.00163432
0.00175209
0.00160338
0.00145324
0.00143651
0.00143134
0.00146681
0.00148084
0.00150741
0.00151073
0.00155902
0.00155447
0.00155574
0.00157441
0.0015901
0.00175875
0.00192442
0.00161806
0.00136732
0.00132182
0.00124767
0.00118959
0.00122044
0.00118341
0.0011763
0.00115477
0.00113588
0.00108401
0.00113356
0.00120936
0.00142205
0.00136287
0.00109625
0.000974761
0.000665231
0.000675623
0.000680174
0.000701455
0.000708852
0.000718084
0.000721336
0.000733309
0.000735241
0.000739024
0.000738612
0.00076159
0.00075858
0.00074877
0.000743137
0.000746007
0.000748886
0.000748487
0.00109705
0.00122398
0.00135244
0.00160848
0.00189242
0.00163394
0.00138496
0.00118096
0.000756096
0.00076678
0.000784281
0.000791937
0.000811519
0.000827362
0.00084593
0.000856451
0.000864664
0.000871893
0.000880144
0.000881532
0.00087824
0.000858552
0.000847426
0.000866756
0.000949332
0.000997793
0.00105925
0.00108243
0.00109854
0.00110664
0.00110122
0.00111337
0.00109991
0.00109778
0.00107905
0.00107087
0.0010632
0.00105333
0.00104118
0.00101151
0.00100141
0.00105301
0.00178941
0.00234475
0.00270328
0.00298599
0.00276221
0.00224105
0.00235082
0.00415513
0.00392916
0.00230959
0.0021643
0.00200375
0.00178449
0.00142919
0.00134777
0.00175866
0.00204053
0.00229485
0.0025093
0.00265722
0.00281074
0.0029873
0.00332366
0.00338634
0.00310479
0.00256814
0.0022439
0.00214661
0.00208339
0.00195499
0.00181466
0.00184309
0.00185443
0.00179611
0.00171769
0.00168181
0.00170328
0.00171581
0.0016888
0.00168397
0.00149984
0.00150214
0.00255965
0.00264381
0.00406094
0.00426999
0.00430359
0.00277997
0.00273956
0.00160023
0.00148559
0.00162092
0.00168151
0.00168449
0.00169188
0.0016796
0.00165238
0.00163123
0.00160961
0.00159057
0.00157777
0.00154942
0.001497
0.00137741
0.0015102
0.00170682
0.0017765
0.00179104
0.00179296
0.00181747
0.001855
0.00188772
0.00196195
0.00197571
0.00196977
0.0019762
0.00185343
0.00191187
0.00161938
0.00161927
0.00280675
0.00280507
0.00161189
0.00190247
0.00190956
0.00187458
0.00201826
0.00185304
0.00179957
0.00178553
0.00171998
0.00168541
0.00164069
0.00161362
0.00165315
0.00176555
0.00172525
0.00151236
0.00149435
0.00167402
0.00159006
0.00132038
0.00112783
0.00109287
0.00104228
0.00100979
0.0010533
0.00108472
0.00110207
0.00112436
0.00113069
0.00117338
0.00114315
0.00120224
0.00127431
0.00132513
0.00157136
0.00170623
0.00154213
0.00151756
0.0014987
0.00149361
0.00149741
0.00144418
0.0014412
0.00141416
0.00140089
0.00136547
0.00134922
0.00132876
0.00133664
0.00135473
0.00149212
0.00393219
0.00502062
0.00527739
0.00896716
0.00360597
0.00370798
0.00737548
0.00295294
0.0045102
0.00489786
0.00508293
0.00526583
0.00480253
0.0061203
0.00419178
0.00459666
0.005027
0.0048227
0.00159346
0.00147011
0.00123308
0.00107224
0.00100794
0.000717853
0.000972706
0.0010708
0.00113825
0.00117958
0.00120849
0.00124131
0.00126995
0.00129356
0.00130114
0.00127122
0.00123621
0.00115025
0.00112223
0.00116594
0.0012124
0.00107769
0.0010185
0.00103172
0.00105261
0.00106357
0.00106847
0.00108084
0.00108616
0.00110503
0.00109778
0.00110754
0.00109257
0.0011041
0.00108624
0.00104429
0.000993973
0.000901522
0.000877112
0.00126349
0.00134921
0.00141932
0.00160022
0.00184664
0.00197606
0.00176693
0.00161083
0.0015455
0.00172032
0.0016956
0.00306679
0.00590208
0.00263342
0.00299934
0.00871722
0.00341368
0.00269695
0.00274352
0.00277234
0.00277255
0.00161742
0.00191576
0.00184707
0.0018434
0.00156166
0.00130969
0.00118136
0.00105817
0.000716559
0.000713972
0.000719347
0.000729493
0.000732449
0.000705305
0.000705376
0.000702327
0.000701156
0.000688923
0.000685483
0.000675566
0.000669909
0.000655143
0.000647429
0.000631579
0.000626988
0.000601528
0.00059685
0.000594408
0.000883611
0.000972035
0.00105507
0.00126034
0.0034188
0.0037946
0.00515438
0.0051263
0.00825076
0.00506556
0.00383559
0.00350172
0.00519328
0.00523486
0.00519237
0.00763166
0.00510781
0.00327392
0.00306306
0.00321408
0.00490981
0.00490221
0.00467467
0.00493084
0.00462254
0.00169709
0.00157803
0.0017713
0.00194274
0.00228779
0.00175222
0.00214452
0.00184066
0.00143598
0.0014238
0.00453735
0.00599366
0.00424169
0.00434046
0.00627345
0.00279795
0.00275771
0.00253163
0.00211521
0.00193774
0.00187873
0.00207021
0.00245873
0.00668057
0.00657374
0.00361032
0.00488595
0.00464746
0.00627726
0.00689004
0.00767049
0.00691534
0.00650601
0.00478738
0.00277698
0.0030231
0.00332854
0.00364754
0.00488294
0.00510739
0.0107747
0.00359098
0.00399473
0.00404441
0.00549724
0.00520302
0.00945009
0.0038124
0.00413504
0.00549239
0.00711278
0.013837
0.00469632
0.00506123
0.00736981
0.00741532
0.00677239
0.00495143
0.00457812
0.00505787
0.00377171
0.00368244
0.00314537
0.00475876
0.00659346
0.0049558
0.00482801
0.0042379
0.00341805
0.00385294
0.00385636
0.0031224
0.00309673
0.00375395
0.00254215
0.00225548
0.00284649
0.000741166
0.000388097
0.000396616
0.000405021
0.000411725
0.000418478
0.00042404
0.000429607
0.000432704
0.000432186
0.000433023
0.000455595
0.000452568
0.000438033
0.000397886
0.00045425
0.000720948
0.0007218
0.000453702
0.00040056
0.000716893
0.0011412
0.0013386
0.00158737
0.00160894
0.001385
0.00120399
0.000740922
0.000730546
0.000443707
0.000517602
0.000562788
0.000499214
0.000556255
0.000515657
0.000547836
0.000550756
0.000511542
0.000509476
0.000512776
0.000509378
0.000502147
0.000492276
0.000479969
0.000469206
0.000459908
0.000446783
0.000421726
0.000374141
0.000339552
0.000370999
0.000389034
0.00043702
0.000465032
0.000493036
0.000511452
0.000524221
0.000532394
0.000532927
0.000541431
0.000558257
0.00056188
0.000565716
0.000606846
0.000592481
0.000632384
0.000591038
0.000631224
0.00059378
0.00054556
0.000458462
0.000472366
0.000760489
0.000767577
0.0012414
0.00142155
0.00161773
0.00163044
0.00183094
0.00193274
0.00163408
0.00170001
0.00195384
0.00181525
0.0016152
0.0016156
0.00145177
0.00144591
0.00127615
0.000795803
0.000785258
0.00049402
0.00048017
0.000572451
0.000562461
0.000626344
0.000669346
0.000671739
0.00067019
0.000647898
0.000642121
0.000567599
0.000557734
0.000559213
0.000541616
0.00053279
0.000532521
0.00051875
0.00051469
0.000531136
0.000512799
0.000494938
0.000486167
0.000482161
0.000360514
0.000328293
0.000593922
0.000622806
0.000684199
0.00290318
0.000730168
0.00115939
0.00104081
0.000430462
0.000597591
0.000741005
0.000817151
0.000844847
0.000801339
0.000697306
0.000597071
0.000466651
0.000384755
0.000675451
0.000596181
0.00079646
0.000708987
0.000919998
0.00107091
0.00103951
0.00105077
0.000890994
0.000729685
0.000772232
0.000699787
0.000774191
0.000644466
0.000774113
0.000701368
0.000883309
0.000892398
0.000874716
0.000830137
0.000632958
0.000664639
0.000557249
0.000604091
0.000541535
0.000559916
0.000531749
0.000620307
0.000715121
0.000686475
0.00068403
0.00056215
0.0004407
0.000486001
0.000418403
0.000473216
0.000368266
0.000447305
0.000376619
0.000487013
0.000498587
0.00049059
0.00046478
0.000347279
0.000411287
0.000549014
0.000597497
0.000609899
0.00058522
0.000451394
0.000699578
0.000637175
0.000780534
0.000680318
0.000739878
0.000674742
0.0007834
0.00100086
0.00104247
0.00104882
0.000849018
0.000841503
0.00151535
0.0824217
0.0013634
0.00161018
0.00165799
0.00165058
0.00136515
0.00133974
0.00165053
0.00123028
0.00173194
0.00109021
0.0018351
0.000700306
0.00106446
0.00114245
0.00113913
0.00105836