/*--------------------------------*- C++ -*----------------------------------*\
| =========                 |                                                 |
| \\      /  F ield         | OpenFOAM: The Open Source CFD Toolbox           |
|  \\    /   O peration     | Version:  v2012                                 |
|   \\  /    A nd           | Website:  www.openfoam.com                      |
|    \\/     M anipulation  |                                                 |
\*---------------------------------------------------------------------------*/
FoamFile
{
    version     2.0;
    format      ascii;
    class       volScalarField;
    location    "1100";
    object      nut;
}
// * * * * * * * * * * * * * * * * * * * * * * * * * * * * * * * * * * * * * //

dimensions      [0 2 -1 0 0 0 0];


internalField   nonuniform List<scalar> 
18258
(
0.00417971
0.00182079
0.00149143
0.00129197
0.000856749
0.001401
0.00194601
0.0023165
0.00243051
0.00241031
0.0024962
0.00421337
0.00591391
0.00730978
0.0076797
0.00766853
0.00696307
0.00664991
0.00722853
0.00887815
0.00745241
0.00477711
0.00571516
0.00661531
0.00721612
0.00639657
0.00517398
0.00478778
0.00433436
0.00361361
0.00303419
0.00208681
0.00151362
0.00140201
0.00127229
0.00145107
0.00158119
0.0016869
0.00172442
0.00175177
0.00174004
0.00173022
0.00168335
0.001653
0.00160136
0.00132002
0.00157629
0.00166862
0.00182358
0.00250709
0.00268724
0.00225762
0.00249594
0.00222526
0.00146616
0.00167886
0.00182266
0.00186183
0.00183767
0.00176118
0.00173529
0.00171338
0.00168569
0.00165288
0.0016329
0.00164928
0.00166644
0.00164843
0.00156754
0.00150201
0.00139594
0.00128958
0.00121074
0.00114966
0.0011036
0.00105239
0.000994845
0.00087384
0.000809862
0.00107226
0.00134611
0.00143829
0.00203861
0.00248556
0.00250255
0.00187349
0.0013353
0.00138593
0.00154062
0.00155587
0.00131829
0.00156664
0.00177427
0.00183885
0.00191617
0.00214197
0.00243946
0.00237832
0.0021183
0.00195252
0.00190494
0.0021874
0.00208133
0.0026991
0.00271685
0.00236427
0.00219253
0.00246659
0.00318141
0.00342101
0.00265716
0.00249611
0.002447
0.00241521
0.00218491
0.00226207
0.00205481
0.0018515
0.00201739
0.00243722
0.00231156
0.00252433
0.00261617
0.00245455
0.00284422
0.00327958
0.00323241
0.0025866
0.00210975
0.00196662
0.00198145
0.00121185
0.00130862
0.00140958
0.00144412
0.00146843
0.00148904
0.00158748
0.0015839
0.00156054
0.00155709
0.00158409
0.000873141
0.000946012
0.000969581
0.000976381
0.000927563
0.000917972
0.000900787
0.000886848
0.000836534
0.000800467
0.000957743
0.00107541
0.00117131
0.0012835
0.00145062
0.00165505
0.00186987
0.00208695
0.00223051
0.00227145
0.00231271
0.00222928
0.00214491
0.00222148
0.00223443
0.0022201
0.00219042
0.00215292
0.0021023
0.00200938
0.00211756
0.00211157
0.00198339
0.00169985
0.0017379
0.00173492
0.00177998
0.00177062
0.00178825
0.00176258
0.00173225
0.00164848
0.00153107
0.00127354
0.00125279
0.00126672
0.0016245
0.00197063
0.00304217
0.00370726
0.00429919
0.00459638
0.00491316
0.0039805
0.00443317
0.0034209
0.00306986
0.00389999
0.00509938
0.0029101
0.00159163
0.00301964
0.00268209
0.0019498
0.00173622
0.00179018
0.00178663
0.00204055
0.00235393
0.00261726
0.00274502
0.00285674
0.00294649
0.00304498
0.00316959
0.00320396
0.00309529
0.00261944
0.00315886
0.00256878
0.00300321
0.00271989
0.00184493
0.00188326
0.00201694
0.00185366
0.00180576
0.00172402
0.00155947
0.00194362
0.00250613
0.00290735
0.0033244
0.0044347
0.00410267
0.00393365
0.0030453
0.00294511
0.00152794
0.00217852
0.00226308
0.00255118
0.00169515
0.00154861
0.00147167
0.00194065
0.00224818
0.00265262
0.00294428
0.00349799
0.00271622
0.00310503
0.00281358
0.00196597
0.00188671
0.00269715
0.00290222
0.00238422
0.00212716
0.00267224
0.00253205
0.00179804
0.00142465
0.00219155
0.00226473
0.00163088
0.00406976
0.00434995
0.00415505
0.00507647
0.00635042
0.00724707
0.00675878
0.00599217
0.00667939
0.00529166
0.00513457
0.00549043
0.00460745
0.00320804
0.00328744
0.00339799
0.00348854
0.0037442
0.00397649
0.00426061
0.00453176
0.00411997
0.0034223
0.00259094
0.00178242
0.00175763
0.00174849
0.00157008
0.00232688
0.00352153
0.00349874
0.00198882
0.00115899
0.00131016
0.00147915
0.00146456
0.00106325
0.000800081
0.00137816
0.00157585
0.00160137
0.00156167
0.00147451
0.0015409
0.00247469
0.0038126
0.00418937
0.00433923
0.00448109
0.00458139
0.00463733
0.00465525
0.00466533
0.00467762
0.0046884
0.00470468
0.00469022
0.00459041
0.00403767
0.00253857
0.00148383
0.00137826
0.00152112
0.00163475
0.0017339
0.0014754
0.000902251
0.00144088
0.00184516
0.00212082
0.00213895
0.00199619
0.00193642
0.00305352
0.00406002
0.00478567
0.00493277
0.00499842
0.00494385
0.00493716
0.00483001
0.00479738
0.00420786
0.00300745
0.00328718
0.00352921
0.00356916
0.00365128
0.00377485
0.00368758
0.00348516
0.00509004
0.00587601
0.00595173
0.00607847
0.00600692
0.00590398
0.00563677
0.00533109
0.0044883
0.003366
0.00212401
0.00216849
0.00230861
0.00228655
0.00199056
0.00209682
0.00227569
0.00229849
0.00237373
0.00266201
0.00302343
0.00288429
0.00248255
0.00210829
0.00196299
0.00192127
0.00184294
0.00137977
0.00140085
0.0013622
0.00138495
0.00186083
0.00221482
0.00255414
0.00362212
0.00323096
0.00262761
0.00416602
0.00426961
0.00458757
0.00506831
0.00519386
0.00575478
0.00400385
0.00360832
0.00370664
0.00302809
0.00280287
0.00283276
0.00284344
0.00265023
0.00290078
0.00287516
0.00277111
0.00305934
0.00337102
0.0044449
0.00538557
0.00568193
0.00585304
0.00592324
0.00590172
0.00578825
0.00582595
0.00511897
0.00511725
0.00489996
0.00475937
0.00470982
0.0044778
0.00512159
0.00531634
0.00538121
0.00551525
0.00572425
0.00556754
0.00539513
0.00526374
0.00516855
0.00506911
0.00512218
0.00521708
0.0053184
0.0054606
0.00565028
0.00568103
0.00548446
0.00533577
0.00523403
0.00513843
0.00514195
0.00522714
0.00532647
0.00546741
0.00564733
0.00554725
0.00540728
0.00528261
0.00518038
0.00509037
0.00491216
0.00503055
0.00516078
0.00526808
0.00533763
0.00461207
0.00492982
0.00484502
0.00438659
0.00410567
0.00311793
0.00337433
0.0035583
0.00387566
0.00430205
0.00438577
0.00368054
0.00315415
0.00307359
0.00304881
0.00312082
0.00314664
0.0031619
0.00357271
0.00538329
0.00542062
0.00543679
0.00543967
0.00465159
0.00451923
0.00420898
0.00769732
0.00716704
0.00620988
0.00511925
0.00274278
0.00235105
0.00278475
0.00338658
0.00378658
0.004179
0.00277419
0.00171873
0.00200333
0.00207739
0.00202689
0.0018735
0.00156062
0.00144061
0.00130753
0.00140708
0.00249163
0.00397556
0.00447787
0.00452534
0.0044805
0.00439352
0.00428798
0.00414103
0.00408099
0.00513228
0.00693019
0.00785033
0.00782186
0.00672006
0.00547318
0.00308253
0.00158243
0.00115618
0.001259
0.00138326
0.00162658
0.00145
0.00121217
0.00132807
0.00126171
0.00255776
0.00441974
0.00564361
0.00669358
0.00657826
0.00570867
0.0046805
0.00444319
0.0045477
0.0046168
0.00467651
0.00473786
0.00478003
0.00475361
0.00432703
0.00267372
0.00159618
0.00141821
0.00152506
0.00178736
0.00189918
0.00191837
0.00189149
0.00163954
0.00271107
0.00430544
0.00273792
0.00149403
0.00161444
0.00160281
0.00282723
0.00282273
0.00276152
0.00429641
0.00454276
0.00453161
0.00425786
0.0040648
0.00240665
0.00273113
0.00274024
0.00275478
0.00280002
0.00141437
0.00154172
0.00158975
0.00171141
0.00149843
0.00190143
0.000492031
0.000682098
0.000792208
0.000861193
0.000927727
0.00091001
0.00174068
0.00176599
0.00168582
0.00164209
0.002084
0.00223624
0.00228558
0.0021052
0.00194257
0.00206796
0.00207248
0.00195311
0.00185005
0.00191827
0.00191959
0.00183936
0.00156445
0.00146594
0.00160949
0.00159224
0.00157954
0.00283669
0.00283159
0.00267961
0.00440293
0.00433225
0.00485225
0.00482054
0.00481466
0.00479508
0.00484639
0.0048734
0.004894
0.00491804
0.00490838
0.00486117
0.00677458
0.00478034
0.00417148
0.00241236
0.00232379
0.00164117
0.00143824
0.00169357
0.00181133
0.00196373
0.00191932
0.00202335
0.00202106
0.00214441
0.00199037
0.00176733
0.00270701
0.00289192
0.00282452
0.00288042
0.00281266
0.00279617
0.00277553
0.00273604
0.00268849
0.00160075
0.00157023
0.00183875
0.00193016
0.00207399
0.00209277
0.00213819
0.00202786
0.00178348
0.00172638
0.0019882
0.00196137
0.0019995
0.00188517
0.00187737
0.00167252
0.0017149
0.00345964
0.00639193
0.00328657
0.00365095
0.00330711
0.00376168
0.00329457
0.00284103
0.00290777
0.00256107
0.00267156
0.00280236
0.00285306
0.00299859
0.00353453
0.00340316
0.00298734
0.00290063
0.00284345
0.00268092
0.00241305
0.00252801
0.00255093
0.0026057
0.00289585
0.00332231
0.00372452
0.00452633
0.00439246
0.00384783
0.00351786
0.00368958
0.00375293
0.00472477
0.00441444
0.00438809
0.00462833
0.00458205
0.00434917
0.00412115
0.00397794
0.00341465
0.00347069
0.00397271
0.00384419
0.00396178
0.00389258
0.00404639
0.00411986
0.00395466
0.00367532
0.00386234
0.00385383
0.00428046
0.00416344
0.00386174
0.00353409
0.00377625
0.00372973
0.00430943
0.00405719
0.00379459
0.00349225
0.00334459
0.00379618
0.00372718
0.00422702
0.00434882
0.00435075
0.00379237
0.00370463
0.00440671
0.00424
0.00409466
0.00426514
0.00353152
0.00363296
0.00447609
0.00457
0.00433514
0.00361839
0.00367441
0.00315051
0.0037058
0.00461285
0.00435652
0.00357053
0.00296187
0.0041453
0.00436173
0.00461485
0.00436084
0.00475024
0.00511747
0.00417065
0.00453767
0.0059308
0.00452457
0.00525072
0.00536736
0.00539941
0.00540278
0.00542443
0.00545254
0.00574613
0.00559361
0.00355218
0.00424982
0.00412579
0.00344872
0.00293049
0.00322837
0.00347698
0.00352705
0.00361637
0.00375432
0.00369076
0.00357233
0.00522494
0.00595992
0.0060939
0.00621661
0.00611464
0.00596166
0.00561118
0.00518084
0.00429081
0.00319884
0.00199355
0.00203216
0.00216612
0.00214557
0.0018621
0.00140601
0.000923119
0.00137049
0.0014149
0.00133048
0.00121053
0.00106438
0.00109434
0.00201641
0.00415838
0.00551269
0.00604892
0.00649038
0.00697415
0.0074312
0.00777717
0.00802893
0.00820157
0.00830944
0.00833087
0.00816964
0.00746556
0.00714417
0.00674407
0.0064159
0.00595087
0.0055641
0.00628768
0.00689839
0.00727144
0.00769205
0.0078837
0.00779886
0.00677249
0.0065901
0.0075961
0.00934916
0.00795213
0.00998687
0.0117335
0.00915217
0.00821495
0.00819393
0.00914861
0.00932477
0.00899997
0.0084924
0.00791046
0.00717288
0.00754572
0.00787971
0.00819695
0.00848897
0.00926892
0.00941511
0.00934735
0.00920059
0.00900988
0.0087457
0.00832794
0.00774231
0.00707651
0.00643157
0.00568936
0.00417371
0.00185712
0.00220153
0.00215291
0.00243472
0.00230198
0.0010137
0.00109896
0.00111295
0.00111997
0.00106056
0.00120368
0.00174858
0.0028456
0.00204996
0.0016791
0.0011681
0.00138356
0.0023138
0.00394072
0.00445023
0.00452406
0.00458344
0.00607276
0.0068663
0.00728103
0.00760788
0.00781172
0.00770946
0.007467
0.00703511
0.00653067
0.00631788
0.00598165
0.0056625
0.00548447
0.00529528
0.00497622
0.00394192
0.00372828
0.00387909
0.00384124
0.00367951
0.00392676
0.00406554
0.00405967
0.00410274
0.00414072
0.00426193
0.0044051
0.00452994
0.00459562
0.0046203
0.00462856
0.00463888
0.00464737
0.00466261
0.00464783
0.00454698
0.00399336
0.00249756
0.00145799
0.00134803
0.00147807
0.00156307
0.00159946
0.0014203
0.000914082
0.0014206
0.00183871
0.0018857
0.00206874
0.00213415
0.00226307
0.002522
0.00291501
0.00300851
0.00267023
0.00252967
0.00247527
0.00241219
0.00205735
0.00256341
0.00283526
0.00283076
0.00280465
0.00303108
0.00372977
0.00358325
0.00315935
0.00312316
0.00309076
0.00278713
0.00274297
0.00300607
0.00304004
0.00315532
0.00370115
0.00443898
0.00411777
0.00374913
0.00359126
0.00331466
0.00290973
0.00262973
0.00326521
0.00268997
0.00138153
0.00117136
0.00118082
0.00117908
0.00113047
0.00133752
0.00140577
0.00142491
0.00133075
0.001479
0.00164784
0.00159789
0.00181612
0.00178742
0.00159299
0.00157479
0.00171703
0.00182461
0.00187752
0.00191811
0.0031371
0.00322608
0.00250745
0.00363867
0.00419579
0.00420681
0.00445936
0.00365531
0.00326531
0.00387883
0.00450316
0.00520003
0.00409454
0.00386088
0.00396562
0.00180779
0.000950928
0.00134227
0.00166615
0.00185411
0.0017974
0.00169835
0.00143625
0.00255373
0.0026213
0.00416029
0.00466566
0.00472184
0.00468404
0.00473812
0.00523508
0.00612246
0.0068283
0.00702961
0.00692371
0.00663171
0.00609204
0.00557008
0.00551896
0.00532858
0.00517521
0.0051259
0.00447258
0.00392025
0.00416399
0.00411077
0.00424658
0.00430873
0.00435315
0.00439881
0.00447665
0.00457107
0.00465697
0.00471617
0.00475607
0.00479016
0.00482525
0.00486066
0.00489893
0.00492014
0.00487475
0.00440709
0.00264437
0.00157669
0.00143831
0.0015347
0.00180382
0.00189926
0.00204131
0.00181279
0.000954636
0.00112296
0.00195115
0.00216323
0.00200126
0.00187288
0.00183973
0.00154102
0.0027914
0.00275548
0.00432441
0.00486158
0.00492763
0.00491191
0.00487184
0.0048268
0.00478413
0.00474931
0.00472199
0.0046937
0.00465397
0.0046078
0.00456153
0.00451292
0.00443221
0.00431355
0.00421505
0.00440129
0.00450427
0.00469367
0.00492871
0.00505314
0.00495791
0.00480095
0.00471926
0.00474176
0.00478503
0.00483069
0.00487215
0.00489414
0.00484222
0.00456596
0.00428606
0.0027137
0.00274921
0.00135246
0.00150226
0.00173354
0.00179042
0.00194467
0.00193585
0.00152186
0.00118537
0.00133715
0.00125026
0.00223459
0.002457
0.00272475
0.00269763
0.00146472
0.00150223
0.0015612
0.0017611
0.00163682
0.00158245
0.00391869
0.00374778
0.00392027
0.0048141
0.00414547
0.00286177
0.00313813
0.00436594
0.00460509
0.00278446
0.00208714
0.00231687
0.00293483
0.00431902
0.00437349
0.00415536
0.00413145
0.00301702
0.00370676
0.00445911
0.00433839
0.00338368
0.0023322
0.00173598
0.000842706
0.00160312
0.00137104
0.00336037
0.00371897
0.00367589
0.00402111
0.00427101
0.00431488
0.00419389
0.00371772
0.00379169
0.00382931
0.00436428
0.00438515
0.00371001
0.00313083
0.00254128
0.00256439
0.00261463
0.00289837
0.00362979
0.00341943
0.00299652
0.00290522
0.0028421
0.00267318
0.00241199
0.00211598
0.00213065
0.00198318
0.00191935
0.00302596
0.00402846
0.00475097
0.00488786
0.0049375
0.00486168
0.00482702
0.00468855
0.00461663
0.00401032
0.00511793
0.00540929
0.00522077
0.00526033
0.00529398
0.00533502
0.00533642
0.00523641
0.00449898
0.0026865
0.0017547
0.00198067
0.00213786
0.00200739
0.00199618
0.0021277
0.00201899
0.0017734
0.00287322
0.00280808
0.00449006
0.00508536
0.00519355
0.00519888
0.00517725
0.00515904
0.00516502
0.00543671
0.00531488
0.0053975
0.00569533
0.00570266
0.00577033
0.00541688
0.00534716
0.00530235
0.00527223
0.0052237
0.00509506
0.0045085
0.00437101
0.00496416
0.00511753
0.00518585
0.00523335
0.00528989
0.00536377
0.00557628
0.00573464
0.0057957
0.0055509
0.00545652
0.00532827
0.00514785
0.00510555
0.0050978
0.00509429
0.00507041
0.00493992
0.00434861
0.0027963
0.00286568
0.00170478
0.00171596
0.00197651
0.00207597
0.00203891
0.00188817
0.00184096
0.00316921
0.00360851
0.00383685
0.00413527
0.00395032
0.0039266
0.00448862
0.00434406
0.00387348
0.00403025
0.00361239
0.00344164
0.0033319
0.0033507
0.00176001
0.00189913
0.00198091
0.00194803
0.00186259
0.00166124
0.00152329
0.00277982
0.00275952
0.0027239
0.00161978
0.00158435
0.0018667
0.00181289
0.00165848
0.00141364
0.00154968
0.00239265
0.00267606
0.00414859
0.00429703
0.00459938
0.00491752
0.00503738
0.00506959
0.00508923
0.00511102
0.00515933
0.00521676
0.00523436
0.00523652
0.00528792
0.00527925
0.00528126
0.00525471
0.00522345
0.00518642
0.00514644
0.00508052
0.00494488
0.0046204
0.0043024
0.00485071
0.00489556
0.00498698
0.00508131
0.00512138
0.00512728
0.00510788
0.00506951
0.00502364
0.00497136
0.00496821
0.00510538
0.00513919
0.00516308
0.00514649
0.00512785
0.00512193
0.00509926
0.00506306
0.00497053
0.00487768
0.00483817
0.00475774
0.00488362
0.00493931
0.00494696
0.00499363
0.00506902
0.00509088
0.0050906
0.0050532
0.00502257
0.0049826
0.00491604
0.00482674
0.00453827
0.00460275
0.00468257
0.00478752
0.00488875
0.00497054
0.00501682
0.00502078
0.00497536
0.00494462
0.00494582
0.00490397
0.00492566
0.00494798
0.00492261
0.00491911
0.00492167
0.00486358
0.00475977
0.00461598
0.0044646
0.0043415
0.00428255
0.00418136
0.00449907
0.00462996
0.00474491
0.00484579
0.00493681
0.00502903
0.00505618
0.00504526
0.00498997
0.00495878
0.00495823
0.00491131
0.00490787
0.00495309
0.00495427
0.00498044
0.00502806
0.00501616
0.00495116
0.00477729
0.00460938
0.00446357
0.00432328
0.00417234
0.00416204
0.0042303
0.00416468
0.00421442
0.00435802
0.00454157
0.00470147
0.00480561
0.00483938
0.00487044
0.0049153
0.00491071
0.00488391
0.00486902
0.00480847
0.00475541
0.00469034
0.00454968
0.00437224
0.0042184
0.00417527
0.00426465
0.00434914
0.00426939
0.00394445
0.00410152
0.00425027
0.00439619
0.00460513
0.00484756
0.00495036
0.00498645
0.00496192
0.00494295
0.00494078
0.00489788
0.00488187
0.00492153
0.00492483
0.00494468
0.00497653
0.00494899
0.00486662
0.00456948
0.0042155
0.00404684
0.00394713
0.00381272
0.00429014
0.00438097
0.0042724
0.00419889
0.00431054
0.00443836
0.00457193
0.00466115
0.00469677
0.00474808
0.00481572
0.0048484
0.00480031
0.00474435
0.00467567
0.00464096
0.00464275
0.00462229
0.00453708
0.00443545
0.00431392
0.00445907
0.00454573
0.00446294
0.00401976
0.00408549
0.00418584
0.00424058
0.00457544
0.00486707
0.00493203
0.00493093
0.00489869
0.00487757
0.00487783
0.00485281
0.00480505
0.00479603
0.00479197
0.00484986
0.00492597
0.00497109
0.00499376
0.00477524
0.00437912
0.00431995
0.00413515
0.00405208
0.00452302
0.00457518
0.00446646
0.00436897
0.00458099
0.00467004
0.00469365
0.0046732
0.00462201
0.00458799
0.00464645
0.00473935
0.00466863
0.00436568
0.00409681
0.00423644
0.00427179
0.00426234
0.0042054
0.00410883
0.00389795
0.00435491
0.00480307
0.00483669
0.00434286
0.00435008
0.00422046
0.00392196
0.00430356
0.00450546
0.00454882
0.00452867
0.00445671
0.00428612
0.00452758
0.00474054
0.00470047
0.00425429
0.00276062
0.00279869
0.00281837
0.00282108
0.00278522
0.00277558
0.00273623
0.00271628
0.00265496
0.00259288
0.00253303
0.00270092
0.0028433
0.00303641
0.00305326
0.00313368
0.00300559
0.00284896
0.00266318
0.0020783
0.00263613
0.0031431
0.0033371
0.00358772
0.00363931
0.00418725
0.00440063
0.004515
0.00442788
0.00355246
0.00301375
0.00240885
0.00156671
0.000976392
0.0011465
0.00119298
0.00125873
0.00154623
0.00282521
0.00144749
0.00199857
0.00156192
0.00267895
0.001433
0.000895114
0.000592689
0.000755788
0.000896138
0.000903298
0.000864246
0.000719614
0.000562992
0.000575231
0.000536064
0.000569345
0.000514597
0.000589775
0.000552046
0.000758969
0.00110585
0.00129441
0.00132782
0.00107542
0.00121715
0.00101726
0.00117563
0.0010512
0.00114641
0.00110016
0.00134546
0.00147442
0.00141075
0.00141365
0.00123678
0.00086474
0.00100263
0.000787639
0.000946097
0.000723933
0.000934168
0.000801032
0.00104082
0.00107281
0.00106954
0.00102957
0.000786354
0.00093197
0.000734043
0.000902123
0.000742466
0.000790321
0.000657702
0.000956247
0.000974781
0.000898478
0.000958801
0.00107581
0.00115089
0.00126323
0.00119251
0.00136014
0.00131336
0.00133074
0.00126118
0.00122715
0.0011996
0.00120258
0.00118302
0.00118947
0.00122765
0.00122914
0.00123366
0.00127201
0.00125359
0.00122271
0.00120377
0.00106995
0.000864429
0.00150613
0.00155319
0.00157771
0.00157833
0.0015445
0.00152573
0.00146943
0.00145502
0.00140706
0.00138098
0.00131762
0.001268
0.00120967
0.00136112
0.000762533
0.000866108
0.000914365
0.000942346
0.000960856
0.000969708
0.000975986
0.000970194
0.000957601
0.000934585
0.000927505
0.00090213
0.00115309
0.00131141
0.00137195
0.00138855
0.00130127
0.00123973
0.00272212
0.00329844
0.00500014
0.00511122
0.0038447
0.00383067
0.00132192
0.00139907
0.000955094
0.00134206
0.00138397
0.00136971
0.00129349
0.000932679
0.00139998
0.000976377
0.00131116
0.000986589
0.00120808
0.00100586
0.00143539
0.00183311
0.00177204
0.00160604
0.00110123
0.0009134
0.000914597
0.000777597
0.000852021
0.000698943
0.000857616
0.000724324
0.00106162
0.00148536
0.00167588
0.00171225
0.00135165
0.0018667
0.00140428
0.00203592
0.00162086
0.0020028
0.00160955
0.00186029
0.00230211
0.00231268
0.00225746
0.00181902
0.0014552
0.00163435
0.00144681
0.00166769
0.00241284
0.0015806
0.00240626
0.000992658
0.00135348
0.00139549
0.0013766
0.00129803
0.000874037
0.00222428
0.00117707
0.00208797
0.00135124
0.00215774
0.0015733
0.00208887
0.00249647
0.00261481
0.00260773
0.00212885
0.00192223
0.00199234
0.00158746
0.00190553
0.0014157
0.00205565
0.00116883
0.00151649
0.00166799
0.00176009
0.00176489
0.00144687
0.00286299
0.00179986
0.00271718
0.00189265
0.00242617
0.00194554
0.00212528
0.00251076
0.00249434
0.00247237
0.002096
0.00169727
0.00224147
0.00159645
0.0481744
0.110838
0.0443055
0.112098
0.0506973
0.0719919
0.0709139
0.071033
0.0712985
0.0535738
0.116814
0.137926
0.143806
0.145574
0.144519
0.233501
0.19046
0.286038
0.185367
0.109268
0.0475281
0.0653993
0.168436
0.277908
0.41711
0.52924
0.360736
0.373397
0.238278
0.234922
0.221232
0.179071
0.109957
0.055211
0.00938763
0.010236
0.0146659
0.019546
0.0153243
0.00934257
0.00185289
0.0019111
0.0019531
0.00197863
0.00196996
0.0019255
0.00195255
0.00183914
0.00172329
0.00192205
0.00209683
0.00235148
0.00274231
0.00302095
0.00272049
0.00297892
0.00315611
0.00330056
0.00341989
0.00359776
0.00379804
0.00397385
0.00398304
0.00364979
0.00311114
0.00253069
0.00212664
0.00201458
0.00189173
0.00166823
0.00152603
0.00142856
0.00138172
0.0013624
0.00140018
0.00153033
0.00164332
0.00168296
0.00165
0.00161974
0.00159338
0.00141886
0.00165903
0.00227574
0.00229331
0.00392927
0.00452777
0.00462214
0.00462884
0.00410316
0.00262123
0.00262719
0.00264075
0.00269164
0.00270237
0.00271006
0.00270744
0.00269871
0.00268313
0.00265441
0.00263981
0.00259719
0.00256105
0.00247048
0.00247454
0.00250764
0.002533
0.0024916
0.00250227
0.00244858
0.00317742
0.00424892
0.00479656
0.00501308
0.0051997
0.00504706
0.00699074
0.00597764
0.00420488
0.004146
0.00409266
0.0048588
0.00489059
0.00439777
0.00441429
0.00403818
0.00251708
0.00250572
0.00250711
0.00268161
0.00273387
0.00282639
0.00285178
0.00287371
0.00288707
0.00288036
0.00287816
0.00285173
0.00283232
0.00276779
0.00274631
0.00273738
0.00150942
0.00164737
0.00170899
0.00172077
0.00174634
0.00173658
0.0017273
0.00170689
0.00169348
0.00166544
0.0016329
0.00158469
0.00148957
0.00135734
0.00149511
0.00253905
0.00253944
0.00415128
0.00466229
0.00469599
0.00525119
0.00498437
0.00472166
0.00507183
0.0045593
0.00452025
0.00409831
0.00254437
0.00257836
0.00153007
0.00151432
0.00177026
0.00171974
0.00183843
0.00188829
0.00189343
0.00191889
0.00194389
0.00197433
0.00202236
0.00203566
0.00200271
0.00199614
0.00188052
0.00162524
0.0016447
0.00193858
0.00203293
0.00188845
0.00185657
0.00184362
0.00180034
0.00176656
0.00173377
0.00175714
0.00189274
0.00189188
0.00185948
0.0017708
0.0017264
0.0014985
0.00145057
0.002528
0.00254854
0.0041738
0.00430934
0.00429781
0.0049517
0.00551742
0.00627406
0.00535189
0.00433691
0.00443712
0.00506721
0.00375158
0.00310631
0.00184324
0.00142579
0.00171716
0.00167212
0.00173956
0.00180233
0.00159999
0.00171671
0.00158631
0.00144112
0.00143273
0.00143068
0.00146607
0.00148079
0.00150737
0.00151083
0.00154594
0.00154213
0.00154564
0.00156433
0.0015717
0.00173642
0.00188633
0.00158794
0.00134667
0.00131284
0.00123992
0.00118106
0.00121027
0.00118232
0.00117528
0.00115395
0.00113458
0.00108274
0.0011287
0.00119798
0.00140179
0.00134297
0.00108524
0.000969356
0.000662692
0.000675098
0.000679753
0.000700693
0.000708266
0.000717587
0.000721018
0.000732662
0.000734873
0.000738496
0.000738168
0.000755525
0.000752837
0.000743952
0.000738331
0.000741967
0.000745275
0.000744614
0.00109021
0.00121368
0.00132483
0.00157315
0.00185104
0.00159328
0.00135078
0.00116538
0.000749317
0.000760636
0.000774435
0.000781626
0.000798056
0.000813149
0.000829835
0.000840437
0.000848293
0.000856659
0.00086541
0.000869048
0.000866921
0.000850418
0.000840616
0.000862316
0.000947751
0.00099743
0.00106096
0.00108505
0.00110612
0.00111697
0.00111141
0.00112276
0.00110927
0.00110733
0.00108794
0.0010796
0.00107142
0.00106138
0.00104899
0.0010189
0.00100876
0.0010616
0.0017948
0.002346
0.00270266
0.0029773
0.00273649
0.00220456
0.00233568
0.00409129
0.00386095
0.00229482
0.00213453
0.00195963
0.00169719
0.0015311
0.00185338
0.00211066
0.00230636
0.00247973
0.00263835
0.00274609
0.00288454
0.00306499
0.00338403
0.00342384
0.00312292
0.00253031
0.00214125
0.0019991
0.00193107
0.00181325
0.00168458
0.00172691
0.00173945
0.00168777
0.00162359
0.00160548
0.00163213
0.00166635
0.00164648
0.00164588
0.00147049
0.00146995
0.00251192
0.00255868
0.00393611
0.00414753
0.00418814
0.00269224
0.00265565
0.00155112
0.00144077
0.00157183
0.00163195
0.00163549
0.00164237
0.00163437
0.00160595
0.00158527
0.00156094
0.00154126
0.00152375
0.00149356
0.00143591
0.00132657
0.00144569
0.00162052
0.00169229
0.00171091
0.00171993
0.00174699
0.0017917
0.00182717
0.00190966
0.00191757
0.0019166
0.0019232
0.00179727
0.00185326
0.00156835
0.00156589
0.00271414
0.00270639
0.00155485
0.00183598
0.00184876
0.00182793
0.00196826
0.00180108
0.00174415
0.00173542
0.00166221
0.00162326
0.00157094
0.00153989
0.00157003
0.00167028
0.00161734
0.00143375
0.00138201
0.00154997
0.00149096
0.00123688
0.00105664
0.00102754
0.000983575
0.000956896
0.00100296
0.00103901
0.00105953
0.00108553
0.00109319
0.00114084
0.00110978
0.00116423
0.00123464
0.0012907
0.00153083
0.00165916
0.00149888
0.00147024
0.00145204
0.00145091
0.00145565
0.00139586
0.00139195
0.001361
0.00134572
0.00130502
0.00128674
0.00126348
0.00126766
0.00128103
0.00140841
0.00362908
0.00462775
0.00481842
0.00824025
0.00332403
0.00339412
0.00667775
0.00274957
0.00414121
0.00443946
0.00464037
0.0048473
0.00443501
0.00564459
0.0039319
0.00437922
0.00456719
0.00400736
0.00149665
0.00170063
0.00196521
0.00175577
0.00155073
0.00105667
0.00113899
0.00117613
0.00120636
0.00122594
0.00124777
0.00127109
0.00129297
0.00130824
0.00130836
0.00126841
0.00122542
0.00112672
0.00109385
0.00113609
0.00117973
0.00103596
0.000975394
0.000986826
0.00100294
0.00101195
0.00101377
0.00102357
0.00102614
0.00104166
0.00103322
0.00104095
0.00102305
0.0010319
0.00101857
0.000983977
0.000935222
0.000852555
0.000832416
0.00119904
0.00127694
0.00134142
0.00152268
0.00175864
0.00187684
0.0016824
0.00155175
0.0014895
0.00165224
0.00165341
0.00300857
0.0057807
0.00258416
0.00289364
0.00844783
0.00335532
0.0026066
0.00264574
0.00267345
0.00267734
0.00155589
0.00184256
0.00178627
0.00179413
0.00152187
0.00127794
0.00114626
0.00102485
0.000695134
0.000692905
0.000698129
0.000708952
0.00071234
0.000681902
0.000681826
0.000677958
0.000676457
0.000662097
0.000658097
0.000646402
0.000639306
0.000622436
0.000613324
0.00059734
0.000594565
0.000620846
0.000691022
0.000835379
0.000929116
0.00105674
0.00107582
0.0012093
0.00300333
0.00347819
0.00479828
0.00475506
0.00749995
0.004685
0.0035372
0.00319623
0.00467937
0.00483704
0.00449333
0.00608576
0.00420862
0.00278791
0.00420887
0.00350524
0.0041457
0.00406974
0.00431578
0.00684114
0.00718571
0.00202199
0.00180218
0.00189552
0.00215081
0.00255408
0.0023531
0.00268004
0.00267941
0.00206936
0.00131608
0.0041946
0.00507678
0.00407758
0.00489832
0.00752615
0.00302409
0.00294917
0.00260923
0.00217774
0.00197914
0.00195281
0.00217767
0.00260603
0.00652738
0.00698151
0.00644755
0.00643776
0.00584774
0.00642583
0.0079921
0.00794706
0.00702267
0.00656886
0.00680846
0.00424206
0.00262947
0.00305553
0.00338691
0.00452022
0.00466087
0.00983044
0.00334192
0.00368756
0.00374407
0.00500759
0.0048553
0.00856023
0.00363903
0.00391878
0.00516548
0.00689914
0.0126904
0.00465003
0.00488735
0.00702418
0.00713229
0.00652219
0.00472254
0.00427671
0.00465421
0.00350674
0.00342945
0.0029271
0.00432098
0.00580763
0.00460149
0.00446761
0.00379637
0.00339102
0.00346234
0.00359371
0.00298621
0.0029446
0.00339685
0.00253472
0.00244343
0.00258606
0.000716869
0.000367312
0.000375489
0.00038528
0.000393213
0.000401402
0.000407358
0.000414454
0.0004176
0.000417977
0.000419106
0.000443095
0.000438898
0.000425003
0.000385917
0.000440309
0.000698737
0.000699143
0.000439743
0.00038765
0.000695644
0.00110831
0.00130654
0.00154536
0.00156427
0.00134986
0.0011705
0.00072063
0.000709283
0.000429887
0.000502081
0.000545229
0.000483646
0.000539819
0.000500378
0.000529963
0.000535664
0.000495753
0.000492908
0.000494783
0.000491064
0.000482314
0.000471648
0.000458615
0.000448394
0.000442844
0.000438643
0.000429361
0.000356506
0.000332465
0.000400277
0.000638893
0.000638019
0.000597809
0.000563202
0.000533591
0.00052002
0.000516188
0.00051332
0.000522296
0.000539122
0.0005439
0.000548782
0.000591223
0.000572449
0.000611406
0.000573848
0.000613024
0.000575321
0.000529264
0.000444396
0.000458477
0.000739694
0.000747562
0.00120758
0.00138113
0.00156601
0.00157383
0.00175707
0.00185081
0.00156769
0.00162752
0.00186485
0.00173651
0.0015475
0.0015537
0.00139739
0.00139897
0.00123957
0.000774831
0.000764346
0.000479991
0.000466187
0.000555875
0.000546198
0.000607436
0.00065014
0.000650359
0.000648274
0.000632369
0.000626581
0.000551026
0.000540114
0.000540845
0.00052453
0.00052103
0.000543428
0.000593452
0.000697057
0.000843478
0.000918351
0.000950026
0.000910605
0.000815146
0.00060232
0.000543762
0.000943045
0.000978083
0.00175718
0.00417993
0.00194681
0.00370077
0.00266967
0.000663178
0.000739568
0.00094306
0.00105669
0.00114101
0.00118981
0.00108787
0.000907817
0.000683413
0.00056447
0.000842399
0.000728429
0.000822368
0.000718161
0.000929348
0.00107447
0.00103935
0.00104706
0.000884775
0.000720649
0.000763212
0.000685069
0.000755104
0.000632195
0.000760632
0.000686625
0.000862797
0.000870881
0.00085274
0.000808262
0.000615401
0.000645705
0.000541667
0.000587647
0.00052768
0.000545431
0.000516856
0.0006027
0.000694523
0.000666589
0.000664006
0.000545605
0.000427589
0.000472318
0.000408602
0.000462501
0.00035957
0.000435549
0.000365158
0.000472772
0.000487406
0.000490026
0.000487037
0.00039648
0.000466447
0.00057104
0.000599465
0.000604315
0.000575329
0.000443743
0.000686421
0.000618829
0.000755589
0.000653243
0.000715367
0.000651328
0.000759134
0.000972279
0.00101517
0.0010219
0.000829143
0.000823979
0.00150378
0.0834642
0.00135275
0.00159897
0.00164892
0.00164303
0.00135836
0.00132502
0.00164143
0.00121392
0.0017195
0.00108273
0.00183447
0.000699306
0.00106313