/*--------------------------------*- C++ -*----------------------------------*\
| =========                 |                                                 |
| \\      /  F ield         | OpenFOAM: The Open Source CFD Toolbox           |
|  \\    /   O peration     | Version:  v2012                                 |
|   \\  /    A nd           | Website:  www.openfoam.com                      |
|    \\/     M anipulation  |                                                 |
\*---------------------------------------------------------------------------*/
FoamFile
{
    version     2.0;
    format      ascii;
    class       volScalarField;
    location    "1045";
    object      k;
}
// * * * * * * * * * * * * * * * * * * * * * * * * * * * * * * * * * * * * * //

dimensions      [0 2 -2 0 0 0 0];


internalField   nonuniform List<scalar> 
18258
(
0.0333661
0.015727
0.0122769
0.0101287
0.0109656
0.0139505
0.0167424
0.0210984
0.0255101
0.0314486
0.038522
0.0474635
0.0534761
0.0606436
0.0636372
0.0619437
0.0521158
0.0473647
0.0566684
0.0810989
0.0709505
0.0513432
0.0621275
0.0614535
0.0725165
0.0767174
0.0604559
0.0551189
0.0496595
0.0439802
0.037507
0.0236422
0.0239406
0.0286043
0.0318872
0.0356216
0.0385086
0.0408905
0.04252
0.0433377
0.0432524
0.0419597
0.0392685
0.0351782
0.0296561
0.0235715
0.0226713
0.0243467
0.0300678
0.0354646
0.0408173
0.0463592
0.0547366
0.044761
0.0290736
0.0392553
0.0477418
0.0546346
0.0590582
0.0615018
0.0622591
0.0613393
0.0590427
0.0557767
0.0518099
0.047467
0.0434477
0.0394618
0.0342179
0.0309581
0.0268487
0.0235062
0.0210682
0.0193578
0.0182409
0.0172354
0.0163678
0.015633
0.0150162
0.0145915
0.0145011
0.0145294
0.0146321
0.0147307
0.0150789
0.0127252
0.0109494
0.0104821
0.0102256
0.00957141
0.00810837
0.0106602
0.0117643
0.0121796
0.0124493
0.0136299
0.0147896
0.0143638
0.0136402
0.0125324
0.0124782
0.0169673
0.0177675
0.0227959
0.0215924
0.0167326
0.0149082
0.016689
0.0195288
0.0225628
0.0192736
0.0192552
0.0179561
0.0170428
0.0149003
0.0149464
0.0144373
0.0141294
0.0150575
0.0178158
0.0172208
0.0173259
0.0185531
0.0188803
0.0201127
0.0211312
0.0204728
0.0202875
0.0164319
0.0163309
0.0173722
0.0172446
0.0177262
0.0202196
0.0202771
0.0206252
0.0208432
0.0236309
0.0236494
0.0236105
0.0237015
0.0245178
0.0235704
0.0231629
0.0231952
0.0232312
0.0210645
0.0208404
0.020474
0.0205119
0.0183472
0.0176087
0.0183398
0.0193205
0.0212978
0.0250544
0.0314941
0.0404205
0.0505202
0.0607654
0.0685378
0.0728958
0.0772622
0.0767245
0.0774245
0.0795251
0.079898
0.0787592
0.0769088
0.0747462
0.071797
0.0671662
0.0666949
0.0590387
0.0481438
0.0334434
0.0389494
0.0417949
0.0445548
0.0448637
0.045347
0.0441288
0.0423504
0.0387475
0.0335974
0.0246825
0.0260508
0.0304739
0.0350995
0.0388616
0.0430045
0.0465718
0.048326
0.049957
0.0591918
0.0570854
0.0552405
0.0570672
0.0585913
0.0617524
0.0601182
0.0562069
0.0503891
0.0520723
0.0452565
0.0339697
0.0317607
0.029657
0.0271861
0.0377761
0.0496092
0.0613191
0.0677239
0.0739005
0.0787601
0.0827975
0.0873315
0.0818774
0.0767131
0.057929
0.0841503
0.0661516
0.0509354
0.0417286
0.0339884
0.0304151
0.0335632
0.033839
0.0321415
0.0274825
0.0218145
0.0232952
0.0359093
0.0456264
0.0536145
0.0552687
0.0599558
0.0622892
0.0570126
0.0575915
0.0467303
0.0478694
0.0516688
0.046435
0.0441047
0.0355256
0.0278172
0.0337551
0.0502019
0.0688119
0.0848085
0.0998756
0.0664218
0.0506255
0.0415781
0.034841
0.0334797
0.0380319
0.0439477
0.0530749
0.0412758
0.0372607
0.0337977
0.0309668
0.0254885
0.0272685
0.0283703
0.0268241
0.0498325
0.0578668
0.0614749
0.0838679
0.0925084
0.108512
0.107384
0.0928506
0.0963841
0.0690563
0.068912
0.0864278
0.0684156
0.0514648
0.0617163
0.0746268
0.0884867
0.101694
0.113034
0.122126
0.123784
0.112246
0.0813689
0.0468571
0.0213252
0.0186612
0.0181013
0.0173929
0.016506
0.0157187
0.0151073
0.0121611
0.00951693
0.00928366
0.00946155
0.00940593
0.00826971
0.00951709
0.0115784
0.0137737
0.0152842
0.0164953
0.0175169
0.0182524
0.0188418
0.019241
0.0195381
0.0198058
0.020041
0.0202266
0.0203642
0.0204547
0.0204971
0.0204834
0.0204071
0.0202669
0.0200609
0.0197731
0.0193003
0.0177726
0.0159164
0.0150827
0.0151408
0.0148901
0.0145859
0.0119503
0.0123286
0.0143448
0.014979
0.0177749
0.0198135
0.0215189
0.0229747
0.0245037
0.0252819
0.0261135
0.0263824
0.0264391
0.026344
0.0262009
0.0259859
0.0256969
0.0246461
0.0213112
0.0249095
0.0273052
0.0289873
0.0303353
0.0312339
0.0313412
0.0286142
0.036031
0.0385226
0.0394316
0.0396931
0.0388749
0.036877
0.034446
0.0324046
0.0309001
0.029785
0.0276476
0.0254008
0.02309
0.0206715
0.0174438
0.0187093
0.0205494
0.0207603
0.0204705
0.0215182
0.0227789
0.0211261
0.0190415
0.0161443
0.0151432
0.0146434
0.0144463
0.0148412
0.0145076
0.0144171
0.0149225
0.0179477
0.0190435
0.0207486
0.0240029
0.0228653
0.0209165
0.0280897
0.0297126
0.0301626
0.030507
0.0304146
0.0296599
0.0265692
0.0251125
0.0264997
0.0250422
0.0244101
0.0244983
0.0241301
0.0222646
0.0245686
0.0265717
0.0281621
0.0290087
0.0302484
0.0318008
0.0339581
0.0357465
0.037401
0.0384071
0.0383997
0.037889
0.0380924
0.0387753
0.0385248
0.036816
0.0347369
0.0326429
0.0296908
0.0294535
0.0314255
0.0329876
0.0346486
0.0364233
0.0357093
0.0338281
0.0322037
0.0307842
0.0290745
0.0289395
0.0306146
0.0320563
0.03379
0.0358987
0.0360593
0.0339291
0.0321173
0.0306167
0.028916
0.0288751
0.0305729
0.032081
0.0337986
0.0356767
0.0348046
0.0333402
0.0318224
0.0303584
0.0286965
0.0282535
0.0298559
0.0312358
0.0325469
0.0336088
0.0319364
0.0313479
0.030279
0.0288908
0.0271326
0.0258752
0.0263846
0.0277737
0.0278845
0.0283627
0.0294807
0.0293269
0.0290443
0.0289986
0.028717
0.0264697
0.0268773
0.0269269
0.0276195
0.030922
0.0304451
0.0331302
0.0355558
0.0332436
0.031744
0.028157
0.033733
0.0337813
0.0347515
0.0335795
0.0237835
0.0219233
0.0229218
0.0244608
0.0261084
0.0254229
0.0226599
0.0226065
0.0232196
0.0226402
0.0210848
0.0180911
0.0135835
0.0135922
0.0135856
0.0143225
0.0171328
0.0187228
0.018828
0.0186678
0.0183615
0.017887
0.0171686
0.016096
0.0156249
0.0245438
0.0443275
0.0563301
0.0557714
0.042425
0.0354878
0.026143
0.017966
0.0105928
0.0106896
0.0113438
0.0136943
0.0115137
0.0105341
0.014514
0.0118051
0.0197205
0.0228947
0.0303041
0.0412851
0.0397693
0.0301076
0.0204056
0.0184659
0.0193347
0.0198488
0.0202403
0.020626
0.0210164
0.021442
0.0219614
0.0216506
0.0190063
0.0167574
0.0168886
0.0174613
0.0199718
0.0213496
0.0221386
0.0217981
0.0220356
0.0237657
0.0225129
0.021293
0.0210922
0.0203906
0.0232429
0.0235861
0.0229458
0.0229487
0.0232219
0.0231004
0.0232366
0.02405
0.0198485
0.0219545
0.0225021
0.0227843
0.0235812
0.0190692
0.0192573
0.0193196
0.0181587
0.0149589
0.0180625
0.0168162
0.012187
0.0135016
0.0134551
0.0140633
0.0143882
0.0171233
0.016279
0.0155661
0.0163403
0.0223283
0.0231391
0.0233207
0.0206785
0.0194327
0.0219294
0.0225164
0.0220525
0.0211644
0.0213346
0.0203895
0.018478
0.0177568
0.0178939
0.0193117
0.0201111
0.0201779
0.023806
0.0233008
0.0217305
0.0227264
0.0233236
0.0229105
0.022801
0.0227495
0.0223817
0.0219545
0.0223656
0.0225525
0.0226043
0.0221592
0.0224148
0.0250597
0.0214816
0.0212921
0.0202072
0.0195478
0.0179144
0.0176577
0.0177556
0.0177153
0.0176204
0.0167814
0.0186443
0.0179194
0.0200534
0.021671
0.0228264
0.0240038
0.024156
0.0237249
0.0236857
0.0232991
0.0232655
0.0227122
0.0218622
0.0212757
0.020494
0.0192822
0.0192742
0.0192246
0.0190805
0.0204893
0.020388
0.0219591
0.0230852
0.0227988
0.0218282
0.0217194
0.0205374
0.0205145
0.0215606
0.0224549
0.0227059
0.0235761
0.0261297
0.023763
0.0253209
0.0260144
0.0266804
0.0260661
0.0249635
0.0257172
0.0240511
0.0229368
0.0242603
0.0249851
0.026249
0.0270435
0.0250654
0.0240367
0.0228369
0.0219713
0.0209802
0.018452
0.0190704
0.0198653
0.0211
0.022916
0.0256474
0.0283941
0.0313227
0.0313827
0.029077
0.0273738
0.0321933
0.0316594
0.0366451
0.0372566
0.0331165
0.0302946
0.0273708
0.0269503
0.0260295
0.0254936
0.0242071
0.0254577
0.0258878
0.0249404
0.0274232
0.029006
0.0333465
0.0389443
0.0356148
0.0327573
0.0377928
0.0366864
0.0426865
0.0364557
0.034781
0.0286473
0.03324
0.0355793
0.0433692
0.0339491
0.029755
0.0295152
0.0308248
0.0383307
0.0368854
0.0395085
0.044656
0.0439899
0.0390815
0.0358463
0.0416519
0.0316735
0.0370925
0.0391092
0.0324574
0.0322423
0.0391445
0.0397609
0.0399088
0.0337927
0.0330888
0.0250675
0.0336551
0.0401533
0.0400594
0.0332559
0.0260062
0.0359558
0.0315919
0.0313995
0.031394
0.0269929
0.0269247
0.0262115
0.0264685
0.0271891
0.0247319
0.0255471
0.0258164
0.0259902
0.0261346
0.0263437
0.0267104
0.0273886
0.0281909
0.0229745
0.0244637
0.0230615
0.0216629
0.0202405
0.0240361
0.0265127
0.0283144
0.0297617
0.0308946
0.0313935
0.0300664
0.037994
0.0396723
0.0413642
0.0415482
0.0403205
0.0376541
0.0341976
0.0306765
0.0283239
0.026975
0.0244049
0.022293
0.0202471
0.0181147
0.0153531
0.0140763
0.0127616
0.0114598
0.0111296
0.0105903
0.00998224
0.00925927
0.00882908
0.0113434
0.019972
0.0282931
0.033135
0.0383184
0.0448298
0.0514696
0.0568973
0.0608634
0.0636022
0.065262
0.065634
0.062901
0.0523796
0.0475386
0.0428528
0.0380752
0.0331737
0.0323105
0.0414067
0.0496346
0.0565937
0.0628778
0.0669752
0.0653669
0.0499761
0.047061
0.0627004
0.0900748
0.0808228
0.103697
0.120179
0.080009
0.0652482
0.0643945
0.0794487
0.0818825
0.075252
0.0663243
0.0565405
0.0457299
0.0506382
0.0552465
0.059565
0.0638954
0.0768727
0.0795584
0.0785077
0.076228
0.0731626
0.0687659
0.0619782
0.053203
0.0442975
0.0369069
0.0302298
0.0209105
0.0122127
0.0140298
0.0132767
0.016908
0.015403
0.00961722
0.00985001
0.0100709
0.0100252
0.00986281
0.00988718
0.0113024
0.0182201
0.0148118
0.0133813
0.0115061
0.0143868
0.0163299
0.0183346
0.0189221
0.0189808
0.0193699
0.0325195
0.0436475
0.0496291
0.0544631
0.0579162
0.0564007
0.052774
0.0466183
0.0397827
0.0371817
0.0334294
0.0300945
0.0284304
0.0293159
0.0258645
0.016438
0.0145932
0.0156254
0.0153936
0.0144192
0.0163254
0.0175253
0.0182894
0.0189093
0.0193747
0.0197339
0.0199914
0.0201638
0.0202568
0.0202883
0.0202727
0.0202147
0.0201126
0.0199632
0.019755
0.0194575
0.0189441
0.017231
0.015386
0.0146732
0.0147586
0.0145287
0.0141666
0.0122872
0.0125067
0.0143688
0.0149691
0.0145807
0.0151671
0.0156369
0.0168488
0.0190447
0.0211965
0.0230423
0.0217303
0.0210739
0.0210282
0.0206194
0.0173511
0.0206292
0.0236241
0.0241568
0.0244512
0.025276
0.026885
0.0278297
0.026879
0.0263469
0.0257982
0.0225791
0.0241699
0.0278481
0.0282791
0.0289961
0.0296185
0.0302153
0.0314826
0.0308274
0.0298796
0.0292554
0.0262848
0.0254025
0.0317482
0.0205605
0.0140263
0.0100131
0.0106842
0.0107838
0.0103467
0.0110694
0.0115832
0.0118392
0.0113244
0.0123892
0.0132882
0.0126236
0.0151989
0.0144639
0.0133965
0.0128999
0.0138706
0.0147961
0.0152479
0.016117
0.0261139
0.0267872
0.0225487
0.0289138
0.0314829
0.0290064
0.0318074
0.0294155
0.0279717
0.0307206
0.0342391
0.0356934
0.0333267
0.031816
0.03134
0.0208073
0.0201101
0.0194126
0.0175585
0.0177929
0.0173185
0.0168758
0.0164761
0.0190832
0.0204635
0.021685
0.0213679
0.0210337
0.0205713
0.0207464
0.0249873
0.0336156
0.0436468
0.0468254
0.0454885
0.0415834
0.0348161
0.0287476
0.0283247
0.026545
0.0253303
0.0251108
0.0193091
0.0149503
0.0172279
0.0172979
0.0183456
0.0190092
0.0195331
0.0199547
0.0203092
0.0206176
0.0209186
0.0212049
0.0214598
0.0216787
0.0218696
0.0220307
0.0222019
0.0224046
0.0226782
0.0228985
0.0212405
0.0185939
0.0172418
0.0170941
0.0178125
0.0187138
0.0198348
0.019069
0.0153569
0.0154532
0.0218517
0.0223246
0.0209587
0.0195343
0.0197505
0.0189036
0.0227479
0.0225651
0.0233845
0.0231637
0.0228634
0.0225594
0.022255
0.0219399
0.021628
0.0213562
0.0211116
0.0208877
0.0206715
0.020449
0.0201615
0.0197346
0.019042
0.0182053
0.0168675
0.0181099
0.0190673
0.0208194
0.0228034
0.0237532
0.0228454
0.0215538
0.0209767
0.0212137
0.0215495
0.0219114
0.0222973
0.0227436
0.0231866
0.0236016
0.0235535
0.0221889
0.0228406
0.0174573
0.0183064
0.0186126
0.0185729
0.0202314
0.0193745
0.0146424
0.0151376
0.0158595
0.0171603
0.0197779
0.0201506
0.0215273
0.0217589
0.0173127
0.0170042
0.0165711
0.0175791
0.0151835
0.0158373
0.0266777
0.0272459
0.0349682
0.0383708
0.0399268
0.0331258
0.0455347
0.0524057
0.0505474
0.0408528
0.0235107
0.0346187
0.0421331
0.0488109
0.0457668
0.0356197
0.0448841
0.0472938
0.0630563
0.0587542
0.0524158
0.0630579
0.0446397
0.0268912
0.0157896
0.016364
0.0151732
0.0306143
0.0347068
0.0314188
0.0322873
0.039876
0.0408894
0.0361865
0.0344619
0.0362157
0.035766
0.0397263
0.0370563
0.0336414
0.0232753
0.0189938
0.0198426
0.0212652
0.0231132
0.0254696
0.0253587
0.0242011
0.0228226
0.0218348
0.0207727
0.0182697
0.0176092
0.0195697
0.0212009
0.0225817
0.0240986
0.0249279
0.0257759
0.0259409
0.0258298
0.0255
0.0250618
0.0244955
0.0237995
0.0223821
0.0235885
0.0242758
0.0245043
0.0248008
0.0251297
0.0254204
0.0255739
0.025465
0.0244957
0.0236713
0.0224968
0.0213793
0.0197713
0.0176522
0.0183388
0.020102
0.0217064
0.022822
0.0238756
0.0234873
0.0239887
0.0246601
0.0246736
0.0244756
0.0242369
0.0240693
0.0241483
0.0247734
0.0265077
0.0263789
0.0293606
0.0305045
0.0278863
0.0265297
0.0258166
0.0253735
0.0251145
0.024897
0.0246886
0.024134
0.0235919
0.024102
0.0243642
0.0246701
0.0250354
0.0255484
0.0262426
0.0273384
0.0287637
0.0286758
0.0263263
0.0260711
0.0249966
0.0242154
0.0238474
0.0238119
0.0238697
0.0239871
0.0239374
0.0234125
0.0230803
0.0234889
0.0224717
0.0225345
0.021561
0.0201972
0.0187535
0.0173014
0.0166392
0.0351914
0.0351947
0.0456182
0.0423484
0.0370501
0.0470354
0.0599592
0.0519949
0.0625999
0.0663845
0.0539672
0.0500872
0.0278617
0.0244004
0.0173737
0.0189006
0.0202489
0.0214587
0.0212723
0.0221974
0.022077
0.0230524
0.0225089
0.0217315
0.0211663
0.0201472
0.0202044
0.0189302
0.0173833
0.0172488
0.0188993
0.0199641
0.0211501
0.0211398
0.0226074
0.0231036
0.0234965
0.0236377
0.0236172
0.0236996
0.0238568
0.0243015
0.0250111
0.0254921
0.0256724
0.0261422
0.0258733
0.0255711
0.0251421
0.0248492
0.0245399
0.0242622
0.0239642
0.02368
0.0232408
0.0225795
0.0224575
0.0229749
0.0233182
0.0235512
0.0236808
0.0236497
0.023435
0.02309
0.0227333
0.0223528
0.0223921
0.0237022
0.0239736
0.0241068
0.0238904
0.0237097
0.0236919
0.0235665
0.0234711
0.0232504
0.0228888
0.0224244
0.021355
0.0214447
0.0223244
0.0227618
0.023083
0.0233515
0.0233788
0.0233072
0.0229321
0.0226424
0.0222831
0.0216949
0.0208911
0.0184011
0.0189243
0.0195753
0.0204646
0.021356
0.0221141
0.0226007
0.0228104
0.0228206
0.0226522
0.022299
0.0215474
0.0215251
0.0220647
0.0222274
0.0221633
0.0218343
0.0211751
0.0202133
0.0189721
0.0177289
0.0167636
0.0163305
0.0155809
0.0180544
0.019152
0.0201348
0.0210212
0.0218418
0.0227019
0.0230127
0.0230574
0.0229102
0.0226514
0.0222444
0.0214763
0.0214719
0.0221719
0.0225564
0.0227664
0.0228449
0.0225949
0.0219435
0.020391
0.0189603
0.0177603
0.0166435
0.0154806
0.0154517
0.0159594
0.0154382
0.0157828
0.0168764
0.0183556
0.0197344
0.0207638
0.0213923
0.0217004
0.0217427
0.0214182
0.0212329
0.0213511
0.0211373
0.0206235
0.0197381
0.0184417
0.0169806
0.015795
0.0154898
0.0161756
0.0168243
0.0162186
0.0138191
0.0149478
0.0160692
0.0172104
0.0189044
0.0209819
0.0219506
0.0224289
0.0225704
0.022447
0.0220849
0.0214357
0.0213703
0.0219923
0.0223492
0.0224545
0.0223515
0.0219511
0.0211641
0.0186434
0.0158592
0.0145922
0.0138564
0.0129306
0.0163695
0.0170742
0.016248
0.0156964
0.0165415
0.0175415
0.0186536
0.0195183
0.0201542
0.0206639
0.0209509
0.0209894
0.020714
0.0205892
0.0203625
0.0200234
0.0197172
0.0194149
0.0186761
0.0178629
0.0168644
0.0179348
0.018519
0.0177587
0.0144269
0.0149854
0.0158859
0.0164252
0.0191225
0.0215882
0.0221995
0.0223482
0.0224283
0.022284
0.0218874
0.021274
0.0211436
0.02178
0.0222681
0.022587
0.0229093
0.0231994
0.0234162
0.0215344
0.0182142
0.0174166
0.0155572
0.0147211
0.0183218
0.0190016
0.0184869
0.0179226
0.0196375
0.0203366
0.0205602
0.0205208
0.0204107
0.0202953
0.0203121
0.0204324
0.0201326
0.0200034
0.0201099
0.0203444
0.0203268
0.0201281
0.0195737
0.0188076
0.0176787
0.0195598
0.0212814
0.0209911
0.0169564
0.0174961
0.0184928
0.018099
0.0208349
0.0226544
0.0230995
0.0229845
0.0226311
0.0221366
0.0215893
0.0209507
0.0206679
0.021232
0.0217852
0.0218084
0.0218869
0.0218309
0.0212804
0.0211136
0.0205509
0.0202823
0.0195415
0.0189758
0.0182539
0.0203663
0.0235028
0.0256718
0.0272484
0.0291213
0.0277648
0.0243283
0.0221254
0.0153293
0.0153284
0.0155395
0.0148974
0.0145129
0.0143223
0.0186402
0.0213094
0.0239181
0.0255951
0.0232346
0.0232111
0.0231447
0.0230379
0.0229358
0.0228345
0.0226293
0.0232938
0.0406116
0.282524
0.20911
0.234796
0.223645
0.314637
0.078107
0.0386493
0.0428096
0.0496132
0.0570449
0.0554005
0.0517889
0.0452555
0.0410283
0.0406338
0.0402238
0.0400352
0.038846
0.0388712
0.0380287
0.0447731
0.0904756
0.121129
0.134996
0.143678
0.153183
0.148747
0.158027
0.15023
0.150829
0.152459
0.157191
0.14985
0.142477
0.138599
0.134307
0.117074
0.117462
0.0991196
0.102945
0.0858705
0.0902088
0.0940715
0.093408
0.0921855
0.0919435
0.0921934
0.092983
0.0965881
0.091966
0.0978443
0.0907566
0.0726111
0.0702203
0.0722437
0.0665734
0.0583237
0.0658888
0.0806926
0.0960611
0.112374
0.0961173
0.119856
0.113674
0.114407
0.108685
0.102343
0.0985997
0.0978953
0.0985252
0.0996555
0.10229
0.104197
0.105776
0.108651
0.117194
0.119478
0.11801
0.100672
0.0855786
0.0939962
0.0987628
0.102458
0.102779
0.098133
0.0959449
0.0895597
0.0879842
0.0823333
0.0797876
0.0742416
0.0709881
0.0661718
0.0826162
0.0809049
0.087877
0.0941195
0.098434
0.102032
0.103659
0.104868
0.10369
0.101294
0.0964206
0.0944243
0.0897002
0.107967
0.126295
0.129132
0.124564
0.111105
0.105523
0.337001
0.40892
0.410014
0.608314
0.649443
0.839354
0.334079
0.179284
0.191319
0.187979
0.179815
0.176579
0.176274
0.187869
0.196944
0.188162
0.19866
0.176627
0.173083
0.166294
0.19264
0.190523
0.171707
0.150368
0.118027
0.0964845
0.0955362
0.0799035
0.0809762
0.071323
0.0724769
0.0741728
0.0898868
0.164087
0.205447
0.232157
0.258564
0.318392
0.288725
0.436927
0.351046
0.436843
0.302236
0.326446
0.312256
0.303521
0.301447
0.317264
0.339053
0.298355
0.370775
0.297354
0.645236
0.780692
0.495846
0.457429
0.40558
0.391535
0.381688
0.376129
0.367825
0.485106
0.449993
0.550554
0.510601
0.637655
0.560199
0.56685
0.533399
0.570923
0.590005
0.604091
0.482246
0.52503
0.408182
0.442017
0.370878
0.40717
0.291813
0.291365
0.331435
0.369006
0.394132
0.449158
0.707725
0.601762
0.811783
0.582475
0.704463
0.48961
0.535954
0.512104
0.494429
0.495914
0.523784
0.627841
0.607381
0.692605
0.514672
0.526972
0.516671
0.534019
0.523455
0.558449
0.563139
0.56431
0.562273
0.523402
0.534
0.532181
0.531968
0.531988
0.53233
0.509568
0.512741
0.505211
0.510993
0.526919
0.514574
0.5145
0.512359
0.504784
0.502731
0.502249
0.504005
0.503776
0.508906
0.508777
0.509116
0.512171
0.526893
0.51441
1.81881
0.897545
0.426799
0.337221
0.21879
0.133884
0.055121
0.0595041
0.0623774
0.06325
0.0611398
0.0556749
0.0474364
0.0373901
0.0295912
0.0286704
0.0256043
0.0273548
0.0348158
0.0423576
0.0386814
0.0464465
0.0541354
0.0624601
0.0704838
0.0774883
0.0834089
0.086324
0.0832736
0.0705214
0.0528259
0.0353627
0.0250478
0.0226315
0.0209798
0.0189829
0.0168702
0.0151969
0.0141985
0.0130362
0.0124109
0.0123279
0.0125563
0.0128001
0.0132453
0.0147603
0.0160608
0.0172464
0.0182105
0.0184557
0.0179332
0.0184766
0.0190708
0.0194657
0.0198099
0.0196276
0.0196198
0.0198713
0.0198337
0.0200501
0.0199554
0.0199804
0.0198447
0.0196934
0.0194707
0.0190486
0.0187706
0.0182102
0.0178563
0.0169947
0.0170311
0.0174487
0.0177808
0.0167721
0.0167167
0.015952
0.0271338
0.0483236
0.0612463
0.0662545
0.0715379
0.0675018
0.0571988
0.0392688
0.0192854
0.0188755
0.0193493
0.0219185
0.0214204
0.0173513
0.0181344
0.0189379
0.0177165
0.0176523
0.0176831
0.0197425
0.0203468
0.0216784
0.0221691
0.0225046
0.0227146
0.0226067
0.0226824
0.0223525
0.0223353
0.0219242
0.0218979
0.0215766
0.0213513
0.0216471
0.0223648
0.0224711
0.0231731
0.0229075
0.0226673
0.0221197
0.0217452
0.0208989
0.0200019
0.0189765
0.0174189
0.016958
0.0174838
0.0179698
0.0175032
0.0189458
0.0199745
0.0196565
0.0245333
0.0227857
0.0203347
0.0228502
0.0184818
0.0186407
0.0182874
0.0172251
0.0177733
0.0172995
0.017209
0.0175283
0.0178191
0.0189912
0.0199651
0.0205796
0.0214346
0.0220559
0.0227522
0.0239057
0.0241598
0.023099
0.0228751
0.0216748
0.020995
0.0206637
0.0215841
0.0228825
0.0228521
0.0238221
0.0236218
0.022421
0.0216263
0.0207907
0.0198203
0.0191775
0.018399
0.0176499
0.0172448
0.0164225
0.0165205
0.0154455
0.016981
0.0173674
0.0193282
0.0173902
0.0169996
0.0226113
0.0285303
0.0444268
0.0324123
0.0212868
0.0225767
0.0306376
0.0380137
0.026685
0.0260405
0.0151942
0.0171558
0.0154218
0.0156933
0.0167666
0.0170437
0.0182359
0.0192864
0.0195223
0.0202637
0.0206073
0.0213632
0.0216183
0.0223424
0.0225341
0.0237718
0.0238313
0.023852
0.0238215
0.022947
0.0228652
0.0228093
0.0232947
0.0231084
0.02389
0.0239325
0.0240595
0.024007
0.0226989
0.0223784
0.021616
0.021103
0.0202068
0.0196577
0.0189478
0.0185699
0.017926
0.0182348
0.0189486
0.019137
0.0200787
0.0200974
0.0208339
0.0210414
0.021506
0.0216399
0.0222986
0.0224375
0.0227021
0.022758
0.0239415
0.0240528
0.0240754
0.0240402
0.0240438
0.0242519
0.0242363
0.0241747
0.0241349
0.0239459
0.0237557
0.0235477
0.0246126
0.0253232
0.0249718
0.0247548
0.0250159
0.0258463
0.0263959
0.0274533
0.0282929
0.0293267
0.0301935
0.0309789
0.0316251
0.0320715
0.0321704
0.0321857
0.0317276
0.0313459
0.0330255
0.0394624
0.0426667
0.047893
0.050258
0.0522102
0.0529272
0.0517918
0.0525159
0.0512536
0.0515227
0.0503404
0.0499261
0.049113
0.0481307
0.0474172
0.0459746
0.0452461
0.0498201
0.0562699
0.0562981
0.0492163
0.0462752
0.0419021
0.0363441
0.0384229
0.0447289
0.0401149
0.0379323
0.0350772
0.0300105
0.0227924
0.017871
0.0257841
0.0335085
0.0407324
0.0475186
0.0535073
0.057394
0.0595313
0.0610759
0.0627642
0.0607215
0.0532557
0.0415909
0.0316926
0.0277743
0.0262056
0.0237735
0.0203513
0.0184747
0.0174077
0.0162603
0.0149203
0.0140706
0.0138313
0.0140883
0.0142073
0.0155558
0.0168213
0.0168135
0.0179973
0.0177962
0.0183098
0.0189033
0.0193103
0.0199579
0.019933
0.0189685
0.0193254
0.0195907
0.0202767
0.0201823
0.0203618
0.0201606
0.0194474
0.0189415
0.018345
0.017831
0.0173692
0.01679
0.0160558
0.0160533
0.0162437
0.0157813
0.0162033
0.0166512
0.0170647
0.0176904
0.0186048
0.0193577
0.0211875
0.0213051
0.0210454
0.0211262
0.0196848
0.0196136
0.0186354
0.018394
0.019992
0.0198258
0.0181555
0.0195475
0.0195612
0.0213573
0.0213739
0.0206971
0.0209007
0.0208124
0.0189891
0.0181022
0.0170261
0.0162466
0.0156515
0.0152456
0.0147692
0.0154021
0.0141702
0.0136041
0.0140731
0.0140475
0.0141142
0.0145078
0.0149398
0.015685
0.0163922
0.0174473
0.0180898
0.0189895
0.0193206
0.021228
0.0211226
0.0209692
0.0210008
0.0211389
0.0215805
0.0208013
0.0207623
0.0209069
0.0209233
0.0209718
0.0209629
0.0191257
0.018924
0.0180893
0.0177703
0.0168303
0.0164705
0.0158124
0.015495
0.0151002
0.0149025
0.0233106
0.0255166
0.0256638
0.0398567
0.0200305
0.0199931
0.0344774
0.0173616
0.0231191
0.0236606
0.02474
0.0259864
0.0226015
0.0308451
0.0212726
0.023403
0.0241261
0.0252909
0.0129211
0.020119
0.0378191
0.0427766
0.0440792
0.0489896
0.0555992
0.0587697
0.0617943
0.063803
0.066062
0.0684938
0.0708835
0.0726048
0.0727405
0.069032
0.0659576
0.0564384
0.0526142
0.0563351
0.0607337
0.0472418
0.0424594
0.0429876
0.0434306
0.0439413
0.0441269
0.0447836
0.0445712
0.0455291
0.0447894
0.0458549
0.0446972
0.0456758
0.0444776
0.041789
0.0385885
0.0324619
0.0305163
0.0294194
0.0267248
0.0242283
0.0220103
0.0202059
0.019781
0.0182233
0.0168283
0.0165289
0.0152385
0.0155143
0.0167622
0.0199289
0.0168301
0.017651
0.0260625
0.0191379
0.0180199
0.0185609
0.0190765
0.0193171
0.0182079
0.0198281
0.0220865
0.0221064
0.022178
0.0221995
0.0213972
0.0212307
0.0209783
0.0210433
0.0210752
0.0212126
0.0211876
0.0193597
0.0193035
0.0190315
0.018895
0.0181027
0.0179352
0.017347
0.0170144
0.0161657
0.0158704
0.0154221
0.0154897
0.0168301
0.0209112
0.0306218
0.0175608
0.0183229
0.0158265
0.0139933
0.0267378
0.0247961
0.0287137
0.0268339
0.0394841
0.0264759
0.0232147
0.0242214
0.0297708
0.0297329
0.0327299
0.0425305
0.0331351
0.0284123
0.074578
0.0548085
0.0336879
0.047037
0.0590866
0.11011
0.127915
0.0561732
0.0566464
0.062297
0.0632494
0.0631734
0.0536681
0.0494261
0.0417263
0.0322822
0.012888
0.0249958
0.0323792
0.0432998
0.057885
0.0922405
0.052997
0.0598178
0.0657506
0.0648112
0.0678829
0.066067
0.0647211
0.0656877
0.102728
0.111647
0.108354
0.0873509
0.0820453
0.0747448
0.124489
0.139175
0.120094
0.130097
0.136168
0.0830066
0.0306302
0.0249923
0.0238721
0.02646
0.0253968
0.0459687
0.02066
0.0218606
0.0226952
0.0271824
0.0302759
0.0527758
0.0233548
0.0255056
0.032449
0.0349021
0.0457713
0.0275303
0.0281088
0.034388
0.036161
0.0395128
0.0337246
0.0318532
0.0287612
0.0259638
0.024474
0.0255282
0.0319302
0.0463407
0.0279533
0.0283829
0.0301398
0.134728
0.0308127
0.0266932
0.0277866
0.0267881
0.0337423
0.0350722
0.111842
0.035698
0.0167386
0.0154625
0.0159286
0.0167445
0.0173851
0.01801
0.0184539
0.0191006
0.019487
0.0196464
0.0198263
0.0221933
0.0220755
0.0216058
0.0210607
0.0218411
0.0211479
0.0211891
0.0217993
0.0212603
0.0214174
0.022458
0.0236249
0.0231208
0.0236716
0.0250305
0.0238832
0.0222035
0.0219942
0.0221069
0.0228171
0.0239523
0.022771
0.0234326
0.0226227
0.0235345
0.023681
0.0203932
0.0200113
0.0198028
0.0193062
0.0186269
0.0180025
0.0173287
0.0166877
0.0162086
0.0161806
0.0167582
0.0152194
0.0156788
0.01821
0.0402565
0.0332543
0.0271268
0.0225802
0.0197423
0.0184901
0.0183266
0.0187558
0.0194099
0.0199654
0.0201764
0.0207771
0.0246556
0.0245392
0.0257377
0.0246135
0.0259396
0.0248738
0.0235553
0.0226856
0.0238884
0.0232044
0.0236949
0.0252897
0.0261105
0.0237442
0.0240015
0.0214323
0.0200397
0.0184435
0.0187843
0.0202168
0.0208731
0.0232785
0.0233663
0.026775
0.0267735
0.0266548
0.0254412
0.0247721
0.0262073
0.0247289
0.025874
0.0247733
0.0261695
0.0273604
0.0277045
0.0270041
0.0262226
0.0253571
0.0210718
0.0202672
0.0199627
0.0194782
0.0192285
0.0201995
0.024593
0.0340297
0.0463652
0.0585907
0.0679279
0.0672615
0.0604938
0.0412976
0.0420943
0.0392004
0.0425235
0.0608438
0.0879279
0.0617458
0.115149
0.0891606
0.0528775
0.0630655
0.0750748
0.0842384
0.090218
0.0914266
0.0780443
0.0575425
0.0504684
0.0529067
0.0849991
0.0836953
0.0824527
0.0779424
0.0824393
0.0802951
0.0776002
0.0760106
0.0742037
0.0699109
0.0698947
0.0671462
0.0670998
0.0600117
0.0611838
0.0613911
0.0588158
0.056079
0.0537998
0.0516154
0.0492979
0.0454264
0.0441598
0.0417066
0.0399912
0.0366603
0.036126
0.0356445
0.0334818
0.0319417
0.0306979
0.0294474
0.027764
0.0279368
0.026395
0.0262449
0.0214076
0.0210191
0.0199843
0.0196586
0.0194191
0.0196352
0.0209292
0.0236981
0.0440289
0.0332723
0.033064
0.0335962
0.033723
0.0397125
0.0464481
0.0704073
0.0651209
0.0715321
0.0612584
0.0636528
0.0628627
0.0624976
0.0652288
0.0687991
0.0741461
0.0866127
0.333187
0.513775
0.252984
0.237001
0.246666
0.251589
0.258966
0.33875
0.360008
0.355514
0.360419
0.330398
0.318554
0.196604
0.226055
0.238141
0.237039
0.223932
0.202821
0.394382
0.522644
0.518781
0.523653
0.523766
0.518768
0.522589
0.502914
0.514274
0.501758
0.515021
0.502296
0.521643
0.518902
0.504363
0.501138
0.501158
0.500918
0.501381
0.501557
0.504896
0.506057
0.506108
0.505103
0.504124
0.514518
0.438753
0.123602
0.086079
0.143487
0.199486
0.163543
0.235743
0.270761
0.195166
0.111116
0.0909785
0.102668
0.126539
0.127987
0.155083
0.202673
0.18956
0.154779
0.155686
0.156686
0.202019
0.193335
0.219539
0.262128
0.255118
0.190298
0.151672
0.151437
0.229671
0.244089
0.239219
0.124897
0.0451057
0.0220456
0.0230124
0.0329436
0.0166524
0.0168799
0.0225476
0.0593888
0.098575
0.0511411
0.137882
0.139215
0.182546
0.147799
0.178652
0.115886
0.118982
0.0677422
0.0797336
0.0896316
0.0953665
0.0997157
0.0939759
0.217381
0.32153
0.191542
0.562453
0.53852
0.196578
0.217406
0.576044
0.513006
0.503529
0.501786
0.501699
0.50186
0.501817
0.50097
0.500916
0.500729
0.500766
0.500717
0.501164
0.504767
0.520365
0.514585
0.505239
0.501385
0.500825
0.5008
0.500691
0.500731
0.500751
0.500809
0.501018
0.501051
0.501152
0.501671
0.503942
0.512021
0.435179
0.169837
0.182188
0.405879
0.361657
0.511498
0.504622
0.50137
0.500943
0.500856
0.50083
0.500796
0.50097
0.500891
0.501398
0.501232
0.501287
0.502775
0.508252
0.506384
0.442084
0.368486
0.415922
0.329252
0.506659
0.507771
0.503277
0.502901
0.503248
0.503416
0.501515
0.501529
0.500993
0.501061
0.500894
0.501341
0.504755
0.511006
0.345817
0.17071
0.177645
0.257844
0.0878439
0.0908022
0.092749
0.0948592
0.247427
0.442563
0.556603
0.471936
0.475785
0.542954
0.38603
0.364823
0.294459
0.31786
0.402322
0.347423
0.312867
0.250435
0.288761
0.247735
0.303484
0.217901
0.234118
0.221662
0.283018
0.286894
0.287232
0.226668
0.21649
0.271566
0.285736
0.316673
0.21873
0.258873
0.203251
0.192354
0.0871265
0.0893253
0.0812516
0.0713377
0.071067
0.079167
0.0775943
0.0837415
0.0807212
0.0843889
0.0814835
0.079501
0.0727583
0.0748022
0.06862
0.0712812
0.13032
0.166545
0.150384
0.151797
0.179621
0.131116
0.157448
0.153618
0.197667
0.248049
0.227803
0.29412
0.22597
0.275901
0.405945
0.754209
0.442082
0.245571
0.318365
0.339817
0.288674
0.189576
0.449456
0.53817
0.297929
0.359928
1.19486
1.04261
1.78026
0.99258
1.11995
0.671677
0.597889
1.02928
0.654482
0.667084
0.5604
0.574005
0.500218
0.324846
0.324489
0.306217
0.242252
0.281346
0.272017
0.266943
0.296651
0.261857
0.31708
0.352839
0.397607
0.322897
0.285859
0.367587
0.215805
0.291663
0.347124
0.316298
0.260305
0.338906
0.451217
0.423528
0.364671
0.400145
0.510775
0.564666
0.535086
0.454233
0.51658
1.00922
0.96645
0.932448
0.591941
1.93347
1.72069
0.356457
0.140083
0.0976882
0.0369658
0.0225706
0.0182931
0.0179096
0.049161
0.0195569
0.0235816
0.0212749
0.0304109
0.0275084
0.0318166
0.0560978
0.0378984
0.053421
0.0395286
0.0529194
0.0421234
0.0579668
0.0622514
0.0656377
0.0530439
0.0418377
0.0632099
0.0843915
0.0394849
0.101602
0.107393
0.0694086
0.0843696
0.104246
0.053889
0.167073
0.057952
0.0578096
0.0690425
0.129476
0.255582
0.0872856
0.113869
0.590066
1.53251
0.514312
0.204147
0.166951
0.0415863
0.0360514
0.0295333