/*--------------------------------*- C++ -*----------------------------------*\
| =========                 |                                                 |
| \\      /  F ield         | OpenFOAM: The Open Source CFD Toolbox           |
|  \\    /   O peration     | Version:  v2012                                 |
|   \\  /    A nd           | Website:  www.openfoam.com                      |
|    \\/     M anipulation  |                                                 |
\*---------------------------------------------------------------------------*/
FoamFile
{
    version     2.0;
    format      ascii;
    class       volVectorField;
    location    "1045";
    object      U;
}
// * * * * * * * * * * * * * * * * * * * * * * * * * * * * * * * * * * * * * //

dimensions      [0 1 -1 0 0 0 0];


internalField   nonuniform List<vector> 
18258
(
(-0.176481 0.118451 0.136989)
(-0.0517458 0.24645 0.156656)
(-0.104649 0.215309 0.096131)
(-0.0376869 0.0709099 0.0837607)
(-0.225967 0.203841 0.0173057)
(-0.158585 0.362896 0.0156438)
(-0.222291 0.0452619 0.0529948)
(-0.340467 -0.0519237 0.0744837)
(-0.447478 -0.104952 0.107669)
(-0.534263 -0.158946 0.145354)
(-0.62019 -0.216587 0.179618)
(-0.686689 -0.270975 0.309198)
(-0.677941 -0.333747 0.357069)
(-0.621693 -0.445065 0.38577)
(-0.487798 -0.542691 0.369539)
(-0.205359 -0.587143 0.340562)
(0.0731996 -0.374701 0.288819)
(0.0785268 -0.164627 0.298003)
(-0.12702 -0.0783827 0.236617)
(-0.399281 -0.27335 0.116692)
(-0.138274 -0.525678 0.292082)
(-0.197208 -0.365309 0.406797)
(-0.300992 -0.736796 0.300967)
(-0.360681 -0.778592 0.262521)
(-0.131932 -0.707915 0.134492)
(0.0056572 -0.644276 0.184667)
(-0.0162543 -0.338897 0.422199)
(0.174028 -0.112293 0.803227)
(0.298696 -0.0951804 0.890878)
(0.316461 0.0578746 0.910816)
(0.317599 0.183999 0.810362)
(0.167783 0.302196 0.104618)
(0.0789291 0.130015 -0.428901)
(0.0137815 0.0786036 -0.721903)
(-0.065116 0.0761377 -0.896581)
(-0.0553384 0.0719829 -1.0782)
(-0.0687871 0.0710668 -1.21857)
(-0.0966744 0.0892991 -1.31339)
(-0.137535 0.0803104 -1.36143)
(-0.184533 0.0863521 -1.34778)
(-0.234002 0.0725139 -1.26415)
(-0.280178 0.0813741 -1.11081)
(-0.318815 0.0757405 -0.90023)
(-0.349711 0.07632 -0.64571)
(-0.360082 0.0784628 -0.352314)
(-0.343713 0.0730947 -0.154442)
(-0.155925 0.172042 -0.197517)
(0.359387 -0.105611 -0.136703)
(0.618545 -0.133829 -0.158241)
(0.667526 -0.113438 -0.168003)
(0.781512 -0.136001 -0.177023)
(0.810796 -0.13325 -0.194346)
(0.506881 -0.00557335 -0.257654)
(0.259719 -0.138164 -0.218305)
(0.113364 -0.04222 -0.158764)
(0.28242 -0.00956069 -0.169007)
(0.537688 -0.00238382 -0.173601)
(0.792127 -0.0299103 -0.177848)
(1.09271 -0.0345726 -0.175636)
(1.42858 -0.0486997 -0.185082)
(1.7633 -0.0644305 -0.18345)
(2.04756 -0.080996 -0.166532)
(2.24834 -0.0926769 -0.138073)
(2.34867 -0.0987816 -0.102436)
(2.35556 -0.0960902 -0.0678159)
(2.29539 -0.0884047 -0.0411119)
(2.20194 -0.0818986 -0.0244221)
(2.10951 -0.075774 -0.0176297)
(2.04006 -0.0669644 -0.0185945)
(1.99436 -0.0640789 -0.0232294)
(1.96995 -0.0589211 -0.025638)
(1.95933 -0.0500004 -0.0200819)
(1.945 -0.0394757 -0.00304429)
(1.90145 -0.0246309 0.0245608)
(1.81374 -0.00756136 0.0541581)
(1.69261 0.00985845 0.0775062)
(1.57161 0.0220905 0.0803692)
(1.47886 0.0311081 0.0757109)
(1.40071 0.0382362 0.0709816)
(1.3384 0.0511534 0.0635598)
(1.28752 0.0578077 0.0654128)
(1.19388 0.0448095 0.0791257)
(1.09689 0.0194428 0.111025)
(1.01415 0.00113577 0.128696)
(0.907193 -0.0205042 0.121674)
(0.763203 0.0169876 0.146795)
(0.642288 0.0818385 0.133853)
(0.518655 0.100705 0.134865)
(0.381676 0.118277 0.119278)
(0.225031 0.127619 0.0973179)
(0.120256 0.190247 0.0926676)
(0.122616 0.0100146 0.198202)
(0.164279 -0.100811 0.144709)
(0.113309 -0.129559 0.0407547)
(0.104873 -0.11527 -0.141069)
(0.217181 -0.210577 -0.369591)
(0.263283 -0.233447 -0.555137)
(0.204868 -0.140658 -0.729811)
(0.106574 -0.0827585 -0.716784)
(0.0364029 0.0546601 -0.496038)
(-0.0840361 0.228262 -0.174307)
(-0.21448 0.197113 0.177108)
(-0.234195 0.0657097 0.15103)
(-0.339791 0.0164533 0.166935)
(-0.270599 0.141119 0.175181)
(-0.244109 0.287834 -0.0569886)
(-0.106158 0.160417 -0.406998)
(0.0654124 0.00252914 -0.58746)
(0.334929 -0.095144 -0.632441)
(0.497115 -0.230713 -0.489027)
(0.352141 -0.211084 -0.279323)
(0.271999 -0.192076 -0.0997664)
(0.28321 -0.186627 0.0406734)
(0.281068 -0.14005 0.161083)
(0.226112 -0.0990024 0.192347)
(0.39743 -0.0811647 0.181639)
(0.536568 -0.0630658 0.177276)
(0.589007 -0.0517993 0.16525)
(0.701084 -0.0785403 0.161571)
(0.733208 -0.133589 0.133498)
(0.601521 -0.134169 0.136144)
(0.454957 -0.151701 0.140579)
(0.461875 -0.185813 0.0365153)
(0.611326 -0.162816 0.0524838)
(0.736781 -0.162077 0.0500252)
(0.905311 -0.141742 0.0820195)
(1.08877 -0.109948 0.111506)
(1.1899 -0.0777746 0.149093)
(1.20905 -0.0105409 0.140678)
(1.24621 -0.00891201 0.121048)
(1.33609 -0.00683493 0.140571)
(1.37816 -0.00153346 0.130398)
(1.36969 -0.0124036 0.159328)
(1.32919 -0.0481724 0.194645)
(1.32349 -0.0511138 0.191539)
(1.28628 -0.0620409 0.152687)
(1.27961 -0.0602624 0.135858)
(1.25894 -0.0479413 0.10891)
(1.25046 -0.0459043 0.11091)
(1.20221 0.00416075 0.109456)
(1.19515 0.0275347 0.137924)
(1.07821 0.136616 0.271251)
(1.22691 0.0526653 0.253907)
(1.21876 0.0199054 0.158973)
(1.26749 -0.0208831 0.128683)
(1.27952 -0.0250747 0.119595)
(1.28967 -0.0382145 0.144927)
(1.30856 -0.041485 0.184135)
(1.35127 -0.0366896 0.218147)
(1.38712 -0.0366548 0.223097)
(1.42397 -0.0126754 0.18413)
(1.43744 -0.00176744 0.138706)
(1.51366 -0.0064027 0.151841)
(1.61174 -0.016613 0.159902)
(1.75119 -0.0315441 0.1442)
(1.88348 -0.0541475 0.0493588)
(1.96497 -0.0756186 -0.0710544)
(1.98436 -0.0904873 -0.164264)
(1.96688 -0.0965179 -0.200576)
(1.95052 -0.0968644 -0.194583)
(1.96069 -0.0912509 -0.174878)
(2.00772 -0.0827543 -0.144534)
(2.0892 -0.0703347 -0.108025)
(2.20032 -0.0601279 -0.084287)
(2.31439 -0.0597794 -0.11316)
(2.39112 -0.0608623 -0.173468)
(2.39361 -0.0584718 -0.277231)
(2.28761 -0.0502257 -0.392355)
(2.07207 -0.0425601 -0.483679)
(1.77159 -0.0367521 -0.540097)
(1.42766 -0.0315936 -0.548862)
(1.08153 -0.019322 -0.52767)
(0.792895 -0.0243143 -0.459338)
(0.537119 -0.0156558 -0.415436)
(0.283044 -0.0211608 -0.386798)
(0.109047 -0.0400856 -0.360708)
(0.102187 -0.0419162 -0.637168)
(0.0773009 -0.037111 -0.873161)
(0.0505689 -0.0390821 -1.05751)
(0.0116494 -0.0404037 -1.17596)
(-0.0235035 -0.0281124 -1.21553)
(-0.0601452 -0.0156576 -1.16777)
(-0.0938723 0.00341174 -1.03864)
(-0.11925 0.0273325 -0.820972)
(-0.121044 0.0843884 -0.559549)
(-0.146729 0.132132 -0.0353285)
(-0.193674 0.0246962 0.571992)
(-0.209645 -0.0343261 0.757729)
(-0.227982 -0.00291395 0.925787)
(-0.23312 -0.046032 1.0676)
(-0.318781 -0.105763 1.13058)
(-0.371725 -0.112731 1.14329)
(-0.370159 -0.233935 1.0037)
(-0.298713 -0.252721 0.770521)
(-0.459654 -0.668427 0.686841)
(-0.484882 -0.546 0.704315)
(-0.413254 -0.41373 0.831375)
(-0.548279 -0.767422 0.857211)
(-0.682423 -0.83252 0.605258)
(-0.473143 -0.755096 0.798841)
(-0.434135 -0.57513 0.741726)
(-0.782001 -0.525408 0.749024)
(-0.901873 -0.408641 0.858884)
(-0.529969 -0.706989 0.823816)
(-0.439891 -0.577609 0.665309)
(-0.320288 -0.320122 0.40523)
(-0.29948 -0.182494 0.398965)
(-0.282978 -0.146438 0.353222)
(-0.234579 0.110451 0.114017)
(-0.162338 0.297552 -0.417667)
(-0.15206 0.189351 -0.638292)
(-0.132245 0.0288472 -0.913059)
(-0.0872091 -0.0569082 -1.08517)
(-0.0289348 -0.069448 -1.23313)
(0.0380467 -0.101927 -1.2681)
(0.0977487 -0.0986237 -1.23338)
(0.17222 -0.109221 -1.11972)
(0.216335 -0.123499 -0.920061)
(0.260641 -0.146776 -0.705667)
(0.249618 -0.139472 -0.398589)
(0.418762 -0.0502554 -0.637808)
(0.770601 -0.118159 -0.457566)
(0.724371 -0.109404 -0.413207)
(0.62382 -0.0758103 -0.406207)
(0.556515 -0.108125 -0.413408)
(0.125697 -0.108975 -0.523233)
(0.175115 -0.122126 -0.910424)
(0.256609 -0.228271 -1.06138)
(0.342496 -0.285199 -0.948252)
(0.390176 -0.353743 -0.50759)
(0.199462 0.0385193 0.14368)
(0.265249 0.112953 0.180512)
(0.428774 -0.327938 0.334851)
(0.516504 -0.5298 0.505247)
(0.546153 -0.522026 0.552808)
(0.412782 -0.234771 0.677885)
(0.472224 -0.336988 0.565702)
(0.488184 -0.608566 0.548513)
(0.705106 -0.671722 0.319054)
(0.747633 -0.48699 0.45508)
(0.79922 -0.345654 0.598303)
(0.234913 -0.225588 0.574369)
(-0.237611 -0.268119 0.827915)
(-0.175335 -0.191028 0.679185)
(-0.673366 -0.298887 0.818785)
(-0.470649 -0.182093 0.694243)
(-0.32123 -0.00438279 0.542238)
(-0.218693 0.176024 -0.2947)
(-0.192806 -0.0425384 -0.617152)
(-0.0579538 -0.168913 -1.09907)
(0.103871 -0.157907 -1.24926)
(0.275169 -0.0873316 -1.11781)
(0.433835 -0.107498 -0.699785)
(0.502428 -0.0737721 -0.624476)
(0.495886 -0.0440761 -0.614011)
(0.546609 -0.0899731 -0.640076)
(0.590871 -0.122599 -0.73155)
(0.397162 -0.0433895 -0.682145)
(0.356725 -0.0788757 -0.662364)
(0.132428 -0.113219 -0.670524)
(-0.114362 -0.048988 -0.581497)
(0.292342 0.00516889 -0.592171)
(0.350619 0.0141195 -0.611051)
(0.63783 -0.0986249 -0.647098)
(0.572483 -0.098139 -0.37665)
(0.266221 0.0725147 -0.363089)
(0.270225 0.0551537 -0.243194)
(-0.30441 -0.0392847 0.111165)
(-0.308993 0.145069 -0.00876041)
(-0.284273 -0.024681 -0.450282)
(0.085596 -0.200568 -0.576869)
(0.359423 -0.279114 -0.569849)
(0.724205 -0.344756 -0.406545)
(0.809338 -0.417577 -0.378286)
(0.770336 -0.290146 -0.296008)
(0.812054 -0.364489 -0.219971)
(0.826815 -0.485822 -0.284469)
(0.739421 -0.43098 -0.279006)
(0.717259 -0.304874 -0.332275)
(0.744933 -0.251241 -0.342517)
(0.79105 -0.311172 -0.212619)
(0.803784 -0.366998 -0.16104)
(0.892171 -0.464472 -0.156776)
(1.15828 -0.630579 -0.117836)
(1.61727 -0.725969 -0.0990806)
(1.99489 -0.671833 -0.0383115)
(2.15174 -0.489995 0.0472423)
(2.07208 -0.290869 0.0954484)
(1.90675 -0.162568 0.103209)
(1.80897 -0.0939515 0.0996987)
(1.712 0.00172152 0.0992279)
(1.5744 0.0905301 0.0913835)
(1.43697 0.109337 0.0483927)
(1.33237 0.0598182 0.0277041)
(1.24253 -0.00213568 0.022097)
(1.14079 -0.0515581 0.0239081)
(1.05674 -0.0765411 0.0221106)
(0.998936 -0.0605884 0.0178133)
(0.82313 -0.108391 -0.0230087)
(0.717597 0.00447483 0.0110349)
(0.634161 0.0710475 0.00993736)
(0.498402 0.0261862 0.0075915)
(0.360018 -0.0585576 -0.0126024)
(0.139416 -0.145613 -0.0317663)
(0.225908 -0.30752 0.00104745)
(0.353533 -0.0816998 0.012108)
(-0.0022826 -0.229853 -0.00919064)
(0.0432281 -0.545785 -0.0503861)
(0.0122084 -0.712428 -0.0525012)
(-0.00783228 -0.876505 -0.0531326)
(-0.0257869 -1.00664 -0.0648088)
(-0.0358152 -1.1027 -0.0955706)
(-0.0462613 -1.15721 -0.104836)
(-0.0577524 -1.21469 -0.117987)
(-0.0879848 -1.27665 -0.133998)
(-0.113122 -1.3216 -0.149326)
(-0.137139 -1.35559 -0.162258)
(-0.159212 -1.37751 -0.173342)
(-0.178302 -1.38905 -0.183031)
(-0.193761 -1.39081 -0.189777)
(-0.205936 -1.38374 -0.193654)
(-0.215967 -1.36902 -0.193787)
(-0.224507 -1.34714 -0.19187)
(-0.232764 -1.31673 -0.186419)
(-0.240411 -1.2759 -0.17805)
(-0.245853 -1.22168 -0.164994)
(-0.243755 -1.15253 -0.147241)
(-0.190901 -1.073 -0.126838)
(-0.14121 -0.970199 -0.112444)
(-0.165708 -0.869552 -0.0793759)
(-0.1897 -0.755432 -0.081774)
(-0.20489 -0.54381 -0.0853717)
(-0.27347 -0.450832 -0.0918717)
(0.0228598 0.0527882 -0.116032)
(-0.350891 -0.308796 0.0253362)
(-0.231636 -0.617995 -0.0543774)
(-0.27032 -0.099427 -0.0108584)
(-0.457991 -0.182663 0.0646759)
(-0.678813 -0.198816 0.0822831)
(-0.842442 -0.209371 0.114072)
(-0.954045 -0.223208 0.14419)
(-1.035 -0.232596 0.20378)
(-1.1185 -0.244387 0.2453)
(-1.18782 -0.244246 0.302065)
(-1.20153 -0.248435 0.336357)
(-1.17454 -0.250154 0.366291)
(-1.10752 -0.24882 0.394614)
(-0.996554 -0.243095 0.422828)
(-0.841666 -0.230033 0.454302)
(-0.667331 -0.205694 0.493845)
(-0.420198 -0.14659 0.543511)
(-0.135508 -0.119273 0.568207)
(-0.152466 0.0284083 0.823515)
(-0.155425 0.0828985 1.04278)
(-0.155261 0.114977 1.11194)
(-0.156722 0.163832 1.02013)
(-0.161207 0.15315 0.837042)
(-0.149839 0.131276 0.566624)
(-0.124871 0.143323 0.284724)
(-0.225961 0.438597 0.370194)
(-0.50777 0.466796 0.334796)
(-0.693171 0.479981 0.338765)
(-0.918301 0.464913 0.332379)
(-1.10076 0.424448 0.308505)
(-1.22815 0.353152 0.26588)
(-1.28407 0.273333 0.218833)
(-1.26702 0.206157 0.181646)
(-1.23402 0.14793 0.158408)
(-1.19104 0.115231 0.140515)
(-1.10151 0.0925133 0.0903129)
(-0.959593 0.0451535 0.0699586)
(-0.768045 -0.0207168 0.0595417)
(-0.501359 -0.113994 0.0190415)
(-0.253523 -0.207864 -0.0189234)
(-0.274393 -0.197613 -0.0661548)
(-0.318659 -0.177032 0.00838825)
(-0.314871 -0.174234 0.0598103)
(-0.273026 -0.156753 0.151158)
(-0.381303 -0.234083 0.118845)
(-0.423296 -0.297338 0.118975)
(-0.327421 -0.288445 0.177719)
(-0.270368 -0.215604 0.0459647)
(-0.140953 -0.101188 -0.0254215)
(-0.141132 -0.0770789 -0.00669922)
(-0.138617 -0.0744577 -0.0351178)
(-0.169319 -0.0558857 -0.0676865)
(-0.167934 -0.50196 -0.14838)
(-0.126231 -0.48032 -0.137663)
(-0.110792 -0.447707 -0.0948854)
(-0.100601 -0.424627 -0.145115)
(-0.267118 -0.538934 -0.0310279)
(-0.277093 -0.576542 -0.0252206)
(-0.284728 -0.633055 -0.0832298)
(-0.338113 -0.583618 -0.0192834)
(-0.340893 -0.530748 0.0557523)
(-0.302224 -0.359669 0.0860451)
(-0.445251 -0.317449 0.115279)
(-0.362342 -0.432383 0.0407929)
(-0.348345 -0.523445 0.014471)
(-0.378735 -0.509025 -0.0232313)
(-0.429301 -0.39498 0.0325234)
(-0.498097 -0.347039 0.0734765)
(-0.529768 -0.255211 0.164301)
(-0.592117 -0.215745 0.241889)
(-0.68109 -0.197838 0.256505)
(-0.577248 -0.206997 0.212094)
(-0.517505 -0.188002 0.181618)
(-0.545812 -0.18511 0.118168)
(-0.540357 -0.172179 0.0920978)
(-0.496842 -0.184328 0.000846411)
(-0.762697 -0.0867599 0.0646394)
(-0.973075 -0.005388 0.0897268)
(-1.08086 0.0521468 0.103592)
(-1.13011 0.0750625 0.138197)
(-1.16775 0.0358324 0.238036)
(-1.25255 0.0690102 0.267277)
(-1.31862 0.119455 0.349146)
(-1.33217 0.170963 0.431773)
(-1.27476 0.222068 0.524139)
(-1.14972 0.261079 0.603648)
(-0.976949 0.281395 0.64798)
(-0.776493 0.283807 0.656795)
(-0.623298 0.289116 0.643745)
(-0.341716 0.272775 0.643247)
(-0.435029 0.245737 0.87412)
(-0.466993 0.228567 1.00271)
(-0.45999 0.180893 1.081)
(-0.440752 0.124842 1.0129)
(-0.439433 0.0595654 0.797663)
(-0.711187 -0.00454127 0.744052)
(-0.721764 0.0721036 0.944228)
(-0.740384 0.117862 1.02333)
(-0.745204 0.165004 0.979314)
(-0.695235 0.199422 0.872148)
(-0.838752 0.186839 0.862074)
(-0.880316 0.146506 0.964927)
(-0.883027 0.0888013 1.00112)
(-0.873322 0.0424169 0.926232)
(-0.867021 -0.038638 0.706903)
(-1.01055 -0.0600047 0.67583)
(-1.02517 0.0208588 0.901122)
(-1.03825 0.0699022 0.966332)
(-1.04668 0.122431 0.944111)
(-1.02197 0.174299 0.853911)
(-1.1658 0.163172 0.80406)
(-1.16619 0.110863 0.892835)
(-1.14925 0.057397 0.914745)
(-1.13194 0.00670548 0.859568)
(-1.11171 -0.0728579 0.640168)
(-1.17194 -0.0835695 0.595596)
(-1.19768 -0.00605387 0.797048)
(-1.22423 0.0437797 0.840293)
(-1.25383 0.0920016 0.811702)
(-1.27163 0.141488 0.717044)
(-1.32127 0.110928 0.610457)
(-1.29263 0.068933 0.709517)
(-1.25396 0.0250727 0.747502)
(-1.21833 -0.0216523 0.716606)
(-1.18797 -0.0934306 0.539884)
(-1.15471 -0.104723 0.472823)
(-1.18312 -0.0413809 0.621603)
(-1.22221 0.000204209 0.641005)
(-1.27678 0.0391627 0.606748)
(-1.31004 0.0742706 0.509463)
(-1.2269 0.035667 0.41466)
(-1.18995 0.0028218 0.500445)
(-1.13001 -0.0322393 0.531492)
(-1.08753 -0.0601437 0.52045)
(-1.04095 -0.111841 0.386897)
(-0.919886 -0.120243 0.315312)
(-0.924258 -0.109479 0.358294)
(-0.973903 -0.0804696 0.438523)
(-0.95789 -0.0871283 0.425354)
(-0.929127 -0.102754 0.395077)
(-1.00604 -0.0685521 0.381815)
(-0.997779 -0.063145 0.307813)
(-1.00251 -0.0392456 0.28315)
(-1.0457 -0.0272085 0.209388)
(-1.0407 -0.00954329 0.202641)
(-0.807521 -0.105286 0.145552)
(-0.82045 -0.125343 0.158162)
(-0.789403 -0.128588 0.21666)
(-0.825361 -0.14166 0.249854)
(-0.611168 -0.282092 0.133506)
(-0.55799 -0.291892 0.115329)
(-0.504414 -0.327354 0.133044)
(-0.420917 -0.400161 0.116634)
(-0.397469 -0.384545 0.150129)
(-0.488773 -0.284631 0.165901)
(-0.606904 -0.239377 0.184265)
(-0.616438 -0.268179 0.097322)
(-0.514424 -0.378426 0.0445484)
(-0.4403 -0.460821 0.028631)
(-0.397868 -0.527028 0.0584049)
(-0.384388 -0.698735 0.122957)
(-0.387543 -0.664121 0.128602)
(-0.406009 -0.380843 0.107639)
(-0.409104 -0.537154 0.0821339)
(-0.399924 -0.602695 0.0445026)
(-0.216246 -0.789294 -0.157987)
(-0.193795 -0.79516 -0.259186)
(-0.115565 -0.704865 -0.369075)
(-0.078642 -0.624978 -0.385044)
(-0.0452826 -0.589934 -0.34735)
(-0.0139262 -0.557125 -0.301169)
(0.0313271 -0.503094 -0.232087)
(0.12415 -0.45665 -0.108979)
(0.124714 -0.581599 -0.121961)
(0.116798 -0.638294 -0.120265)
(0.0847804 -0.696412 -0.157687)
(0.092133 -0.751162 -0.155742)
(0.100261 -0.807682 -0.174833)
(0.117971 -0.836009 -0.166912)
(0.125983 -0.842806 -0.152758)
(0.126222 -0.829074 -0.130282)
(0.117645 -0.793067 -0.0960739)
(0.104037 -0.736669 -0.0429251)
(0.0384544 -0.657404 0.0326832)
(0.0015502 -0.549149 0.151618)
(0.0141858 -0.304179 0.358325)
(-0.144387 0.00647716 0.448669)
(-0.364015 0.0934089 0.351039)
(-0.39074 -0.0410313 0.256021)
(-0.218683 -0.172283 0.252431)
(-0.178637 -0.188349 0.268664)
(-0.156056 -0.177509 0.213904)
(-0.0883044 -0.141688 0.205276)
(0.00154128 -0.0280974 0.0696226)
(-0.037235 0.11223 0.0804729)
(-0.0811769 0.150102 0.0800528)
(-0.0498921 0.214042 0.169478)
(-0.00796104 0.182765 0.190126)
(0.0145393 0.0427702 0.141934)
(-0.0424687 -0.0262871 0.225931)
(0.0249786 0.0944776 0.321811)
(-0.00123737 -0.0628131 0.285353)
(0.0788486 0.144118 0.245797)
(0.0916588 -0.0270768 0.227611)
(-0.0189743 -0.259156 0.456143)
(0.0527847 -0.363244 0.544129)
(0.1732 -0.509399 0.512535)
(0.164814 -0.69746 0.349364)
(0.0745642 -0.820555 0.142073)
(0.0590116 -0.891928 -0.00873956)
(0.0651683 -0.925833 -0.11995)
(0.0631934 -0.952015 -0.197866)
(0.0600644 -0.966575 -0.24863)
(0.0519312 -0.96468 -0.279152)
(0.0417866 -0.944709 -0.292402)
(0.0292032 -0.90707 -0.289203)
(0.0235082 -0.832431 -0.249619)
(0.00726783 -0.786558 -0.328845)
(0.0434656 -0.705724 -0.225366)
(0.0474645 -0.655446 -0.211521)
(0.0446643 -0.637836 -0.232187)
(0.00454594 -0.703836 -0.325167)
(-0.0225997 -0.743312 -0.382827)
(-0.0574019 -0.778475 -0.41052)
(-0.0733964 -0.845209 -0.401354)
(-0.132361 -0.905711 -0.345411)
(-0.0943042 -0.970314 -0.330918)
(-0.0892497 -0.981101 -0.372466)
(-0.053914 -0.919553 -0.417737)
(-0.0436451 -0.86962 -0.431715)
(-0.0177838 -0.827603 -0.404144)
(-0.00971716 -0.871122 -0.340906)
(-0.0394852 -0.903234 -0.373749)
(-0.0562412 -0.949809 -0.396029)
(-0.0239089 -0.993021 -0.405351)
(-0.0488305 -1.06144 -0.419751)
(-0.0666752 -1.04406 -0.423524)
(-0.0937599 -0.921816 -0.344249)
(-0.187105 -0.762943 -0.223867)
(-0.19934 -0.614437 -0.0401729)
(-0.100526 -0.734591 -0.195976)
(-0.0799731 -0.840829 -0.258424)
(-0.0595292 -0.930213 -0.322356)
(-0.0608201 -0.947552 -0.333113)
(-0.0276139 -0.830551 -0.379564)
(-0.0237653 -0.725603 -0.335746)
(-0.0319195 -0.543232 -0.252098)
(-0.0158178 -0.353796 -0.160852)
(0.0321634 -0.0920396 -0.205638)
(-0.249598 -0.434656 0.0740298)
(-0.330734 -0.462296 0.0267766)
(0.223577 -0.117839 -0.244844)
(-0.1724 -0.247703 0.0443252)
(-0.21819 -0.266881 -0.115683)
(-0.258572 -0.269157 -0.102699)
(-0.208756 -0.281939 -0.0208875)
(0.0813672 0.140491 -0.218777)
(0.102937 0.0592223 -0.231111)
(0.101177 -0.000558557 -0.25963)
(0.096908 6.95732e-05 -0.264954)
(-0.0794453 -0.430429 -0.200262)
(-0.132599 -0.450538 -0.221783)
(-0.185794 -0.458911 -0.20599)
(-0.248856 -0.445629 -0.168901)
(-0.168897 -0.548133 -0.183983)
(-0.126712 -0.56009 -0.256769)
(-0.0960827 -0.566457 -0.290755)
(-0.0603035 -0.554715 -0.290802)
(-0.0504896 -0.743827 -0.348229)
(-0.0815085 -0.758412 -0.331444)
(-0.106315 -0.770645 -0.281374)
(-0.147141 -0.760802 -0.194535)
(-0.134478 -0.822626 -0.182165)
(-0.128781 -0.883665 -0.200134)
(-0.0981596 -0.906422 -0.297119)
(-0.072661 -0.873553 -0.373295)
(-0.0490572 -0.853436 -0.399355)
(-0.0766946 -0.969196 -0.370229)
(-0.112141 -0.99076 -0.335401)
(-0.138115 -1.01096 -0.283304)
(-0.137133 -1.09376 -0.346661)
(-0.0800699 -1.06829 -0.398667)
(-0.0724607 -1.14591 -0.440455)
(-0.049388 -1.12452 -0.473022)
(-0.0270061 -1.1156 -0.458242)
(-0.00342083 -1.04372 -0.415061)
(0.0120064 -1.07587 -0.40631)
(-0.0127448 -1.15419 -0.469277)
(-0.0398179 -1.18116 -0.493843)
(-0.0684794 -1.2092 -0.46268)
(-0.13147 -1.22962 -0.379016)
(-0.134803 -1.16732 -0.36903)
(-0.283508 -1.04739 -0.225321)
(-0.457218 -1.14668 -0.0769563)
(-0.463613 -1.10077 -0.0674729)
(-0.415952 -1.04651 -0.0647289)
(-0.302794 -1.03703 -0.0737627)
(-0.2557 -0.968283 -0.0639566)
(-0.309124 -0.945719 -0.057547)
(-0.342235 -0.849775 -0.0421239)
(-0.37802 -0.714322 -0.0377848)
(-0.473699 -0.627472 -0.0366168)
(-0.409749 -0.401826 -0.0339457)
(-0.464629 -0.661393 -0.00575804)
(-0.316485 -0.458049 0.0246856)
(-0.638339 -0.399117 0.00546223)
(-0.815375 -0.379675 0.0601482)
(-0.917974 -0.384775 0.0846233)
(-0.968091 -0.397557 0.124361)
(-0.980048 -0.525755 0.0977838)
(-0.940309 -0.690004 0.0653856)
(-0.923978 -0.750849 0.0525055)
(-0.874416 -0.84925 0.0364384)
(-0.858774 -0.896476 0.0304522)
(-0.820882 -0.928833 0.00760166)
(-0.703546 -0.968608 -0.0230316)
(-0.592332 -1.00324 -0.0420001)
(-0.626605 -0.953818 -0.0172041)
(-0.484798 -0.972929 -0.0306852)
(-0.50268 -0.894574 -0.0301006)
(-0.530299 -0.798022 -0.0232354)
(-0.559124 -0.73171 -0.0194134)
(-0.686293 -0.713222 -0.00979663)
(-0.674855 -0.598759 -0.00776737)
(-0.824116 -0.577784 0.0303455)
(-0.918558 -0.560104 0.050405)
(-0.88139 -0.697706 0.0231402)
(-0.800356 -0.705311 0.0121938)
(-0.777459 -0.790619 0.00227791)
(-0.660782 -0.799166 -0.010771)
(-0.635616 -0.883637 -0.017037)
(-0.748383 -0.86714 -0.00514114)
(-0.825463 -0.851439 0.00443186)
(-0.863134 -0.773771 0.0135049)
(-0.801626 -0.739661 -0.0117782)
(-0.624283 -0.612853 0.00193642)
(-0.847211 -0.660277 0.0116936)
(-0.86829 -0.518819 0.0520923)
(-0.87072 -0.380073 0.0581884)
(-0.843735 -0.282461 0.121688)
(-0.832632 -0.302482 0.0765959)
(-0.879146 -0.350888 0.0525973)
(-0.875626 -0.204054 0.129106)
(-0.894708 -0.184355 0.174161)
(-0.761191 -0.161654 0.158542)
(-0.767154 -0.129187 0.259299)
(-0.778552 -0.120885 0.302148)
(-0.822422 -0.108767 0.355629)
(-0.830042 -0.119383 0.35302)
(-0.643248 -0.181921 0.251436)
(-0.608166 -0.17385 0.248801)
(-0.568134 -0.180673 0.215855)
(-0.551532 -0.175841 0.189132)
(-0.569056 -0.191384 0.120488)
(-0.338475 -0.195052 0.0771093)
(-0.320438 -0.189566 0.102085)
(-0.32976 -0.192247 0.114741)
(-0.361118 -0.199169 0.124904)
(-0.449966 -0.217147 0.142308)
(-0.405888 -0.253673 0.06021)
(-0.382778 -0.285243 0.0689231)
(-0.41131 -0.341483 0.047478)
(-0.316479 -0.427504 0.0364181)
(-0.312304 -0.394841 0.0497345)
(-0.284045 -0.416822 0.0162246)
(-0.193275 -0.420051 -0.0199333)
(-0.337683 -0.254438 0.0358836)
(-0.403544 -0.331368 0.0414582)
(-0.24865 -0.458026 -0.00623034)
(-0.292124 -0.460446 0.000760166)
(-0.452449 -0.321628 0.0723054)
(-0.525294 -0.299346 0.131576)
(-0.498554 -0.319021 0.136611)
(-0.471312 -0.337163 0.111619)
(-0.458986 -0.351018 0.0944165)
(-0.493257 -0.373518 0.00866053)
(-0.710926 -0.318089 0.0632121)
(-0.717908 -0.530325 0.0389656)
(-0.54901 -0.554943 -0.00174124)
(-0.509863 -0.607714 -0.00397944)
(-0.465584 -0.650059 -0.0174381)
(-0.43684 -0.653318 -0.02106)
(-0.412796 -0.531387 -0.0228775)
(-0.410904 -0.541319 -0.0484166)
(-0.409763 -0.541805 -0.0343281)
(-0.335346 -0.550943 -0.0169179)
(-0.267296 -0.596501 -0.00710484)
(-0.319328 -0.581521 -0.00332091)
(-0.403324 -0.513525 0.00723443)
(-0.331877 -0.535923 -0.00401949)
(-0.438544 -0.631041 -0.0118312)
(-0.292828 -0.473713 -0.00495004)
(-0.210167 -0.540259 -0.0180391)
(-0.28085 -0.525227 -0.0160306)
(-0.394341 -0.436561 -0.000595952)
(-0.413793 -0.363148 -0.010324)
(-0.260465 -0.394616 -0.0108508)
(-0.15682 -0.423438 -0.0360191)
(-0.136163 -0.400043 -0.0222354)
(-0.23811 -0.205653 0.0227363)
(-0.382472 -0.343241 -0.00180293)
(-0.251493 -0.475132 -0.019439)
(-0.218851 -0.468565 -0.0233219)
(-0.121968 -0.393406 -0.0295488)
(-0.219292 -0.194806 0.0396617)
(-0.346802 -0.338339 0.0124561)
(-0.366314 -0.363724 0.0544125)
(-0.195788 -0.511764 -0.0104575)
(-0.174083 -0.468679 0.0191045)
(-0.11003 -0.420834 0.00252938)
(-0.222478 -0.229413 0.0451677)
(-0.325967 -0.342315 0.0526717)
(-0.335337 -0.339408 0.0573762)
(-0.180703 -0.463854 0.0171861)
(-0.109444 -0.40958 0.000717985)
(-0.232238 -0.220808 0.0626862)
(-0.286333 -0.221778 0.07805)
(-0.240755 -0.230617 0.0718413)
(-0.350646 -0.337463 0.0789564)
(-0.18986 -0.465934 0.0489613)
(-0.117943 -0.416208 0.0381543)
(-0.140666 -0.450323 -0.00307389)
(-0.196644 -0.498265 0.0262551)
(-0.382045 -0.351118 0.079524)
(-0.334608 -0.626286 -0.00316931)
(-0.355768 -0.632974 -0.011364)
(-0.499557 -0.512534 0.0580398)
(-0.651622 -0.44524 0.098405)
(-0.667179 -0.287105 0.136482)
(-0.798678 -0.271859 0.17064)
(-0.891413 -0.321078 0.166578)
(-1.02116 -0.48923 0.126022)
(-1.1081 -0.495478 0.167815)
(-1.133 -0.503022 0.193017)
(-1.11298 -0.50528 0.21604)
(-1.04957 -0.501441 0.238938)
(-0.943782 -0.490347 0.260824)
(-0.794547 -0.46682 0.287414)
(-0.639389 -0.431492 0.327045)
(-0.396472 -0.380419 0.396235)
(-0.160218 -0.293772 0.485345)
(0.0488802 -0.150938 0.488101)
(0.342274 -0.15846 0.428096)
(0.342013 -0.214587 0.377007)
(0.205666 -0.128666 0.486454)
(0.273907 -0.00429329 0.766204)
(0.284809 0.0447686 1.03297)
(0.269315 0.0796647 1.14386)
(0.250636 0.132381 1.09391)
(0.212286 0.121941 0.957073)
(0.141555 0.120763 0.705647)
(0.0393258 0.187699 0.40607)
(0.173105 0.513862 0.425261)
(0.42125 0.515512 0.374563)
(0.607819 0.538827 0.375805)
(0.851912 0.497696 0.352091)
(1.00916 0.417086 0.318757)
(1.07232 0.323037 0.275582)
(1.05438 0.254427 0.236171)
(0.99991 0.210957 0.201817)
(1.01558 0.159312 0.16963)
(1.03433 0.118877 0.146308)
(0.975987 0.0923964 0.0917822)
(0.873443 0.0423467 0.0686374)
(0.708649 -0.0231911 0.054591)
(0.4639 -0.110307 0.0212696)
(0.236928 -0.216621 -0.023888)
(0.097776 -0.617464 -0.112124)
(0.173581 -0.380964 -0.0788488)
(-0.180793 -0.169595 0.00440825)
(-0.100404 -0.387951 -0.0409991)
(-0.109818 -0.308939 -0.066852)
(-0.11198 -0.335033 -0.0747577)
(-0.109218 -0.29415 -0.0634321)
(-0.0757388 -0.216585 -0.058519)
(-0.154902 -0.165771 -0.0213097)
(-0.226282 0.237203 0.165414)
(-0.13421 0.478795 0.128392)
(-0.0450533 0.605129 0.0744911)
(0.0256709 0.654601 0.0723386)
(0.108814 0.671066 0.156697)
(0.20404 0.711027 0.275537)
(0.30025 0.746059 0.329268)
(0.387221 0.743557 0.36515)
(0.467248 0.683622 0.373647)
(0.533668 0.547968 0.370984)
(0.584838 0.330348 0.335373)
(0.564959 0.00457508 0.260577)
(0.387211 -0.331031 0.25211)
(0.287358 -0.331895 0.315482)
(0.222575 -0.286842 0.325195)
(0.156361 -0.196545 0.331199)
(0.146217 0.000855927 0.309401)
(0.291011 0.00998307 0.336928)
(0.452117 -0.158556 0.328625)
(0.603355 -0.256186 0.34078)
(0.642459 -0.345232 0.35057)
(0.623447 -0.437036 0.352996)
(0.477033 -0.54134 0.335381)
(0.110641 -0.566955 0.31867)
(-0.168329 -0.301153 0.303542)
(-0.0402654 -0.131059 0.355139)
(0.225616 -0.150823 0.238172)
(0.280216 -0.399883 0.0731841)
(0.00821064 -0.516542 0.237597)
(-0.140528 -0.745369 -0.13928)
(0.202383 -0.720393 -0.479205)
(0.305047 -0.396204 -0.176767)
(0.332493 -0.379594 0.0928032)
(0.347076 -0.551256 0.185055)
(0.330258 -0.892028 0.122052)
(0.531085 -0.873029 0.0657938)
(0.6081 -0.692759 0.0973753)
(0.57259 -0.539081 0.136845)
(0.502468 -0.397191 0.186904)
(0.33465 -0.232099 0.244448)
(0.355976 -0.347819 0.193202)
(0.417433 -0.377972 0.140941)
(0.49796 -0.364225 0.0793938)
(0.602555 -0.291514 -0.0547975)
(0.850852 0.196853 -0.113964)
(0.899732 0.475384 -0.0188477)
(0.846746 0.671532 0.0536083)
(0.746033 0.767621 0.0956604)
(0.613625 0.789821 0.141579)
(0.463356 0.758921 0.156049)
(0.297356 0.698319 0.160658)
(0.126211 0.638528 0.0938936)
(-0.042796 0.603325 0.0479744)
(-0.160655 0.557286 0.0619269)
(-0.280162 0.446263 0.125914)
(-0.404815 0.240289 0.170677)
(-0.287884 -0.119125 0.015937)
(-0.405049 0.00561852 0.0693585)
(-0.487864 0.0571382 0.0962786)
(-0.530214 0.183228 0.135783)
(-0.535831 0.132896 0.104106)
(-0.49506 -0.00895394 0.0237167)
(-0.453049 -0.0762784 0.0137678)
(-0.386025 -0.137294 -0.00906916)
(-0.291141 -0.20364 -0.0233147)
(-0.191637 -0.239317 -0.0378884)
(-0.140709 -0.21186 -0.0302217)
(-0.198771 -0.174974 -0.0223932)
(-0.182001 -0.330647 -0.0371663)
(-0.122205 -0.32612 -0.047235)
(-0.100386 -0.346673 -0.0750646)
(-0.0783748 -0.384064 -0.109352)
(-0.0479625 -0.569488 -0.226851)
(-0.0874243 -0.509627 -0.154982)
(-0.103363 -0.622161 -0.12084)
(-0.148152 -0.631552 -0.08731)
(-0.189418 -0.55042 -0.0779044)
(-0.290294 -0.370357 -0.0423997)
(-0.263508 0.156062 0.109818)
(-0.108278 0.37655 0.273396)
(-0.0107478 0.466318 0.416027)
(0.0644927 0.471086 0.543586)
(0.136422 0.412725 0.616729)
(0.1884 0.305336 0.649356)
(0.239928 0.157305 0.623742)
(0.228368 -0.0154818 0.525112)
(0.0988665 -0.13444 0.42551)
(-0.0162705 -0.101544 0.436897)
(-0.0362746 0.0172556 0.415811)
(-0.0358367 0.140422 0.420281)
(0.0384719 0.246788 0.365252)
(0.201931 0.137532 0.383266)
(0.161331 0.269599 0.44695)
(-0.0531843 0.182712 -0.0411141)
(-0.170952 -0.0777501 -0.637157)
(-0.183125 -0.313052 -0.533339)
(-0.168788 -0.344239 -0.302466)
(-0.145146 -0.302901 -0.0933096)
(-0.0633915 -0.583882 -0.104226)
(-0.028946 -0.860259 -0.0915094)
(0.00129142 -1.01749 -0.0897866)
(0.0315186 -1.14156 -0.0993743)
(0.064564 -1.22547 -0.113874)
(0.0949905 -1.27842 -0.127788)
(0.121686 -1.30501 -0.139704)
(0.145822 -1.3135 -0.151696)
(0.166892 -1.31132 -0.164232)
(0.185288 -1.30207 -0.175102)
(0.200984 -1.28738 -0.183683)
(0.214928 -1.26776 -0.188942)
(0.22726 -1.24292 -0.191765)
(0.238518 -1.2115 -0.190708)
(0.248123 -1.17208 -0.185573)
(0.253926 -1.12234 -0.174783)
(0.251128 -1.05959 -0.158127)
(0.194351 -0.996232 -0.138394)
(0.139502 -0.911202 -0.122332)
(0.16409 -0.827167 -0.0867107)
(0.187343 -0.726677 -0.0879304)
(0.203477 -0.558156 -0.0878382)
(0.246228 -0.44127 -0.0842047)
(0.0719174 -0.0298368 -0.0951641)
(0.365266 -0.297322 0.043573)
(0.245212 -0.549569 -0.0568708)
(0.285381 -0.0942623 -0.0267824)
(0.180093 -0.0365066 -0.147012)
(0.200826 -0.111964 -0.124216)
(0.19354 -0.118905 -0.0802014)