/*--------------------------------*- C++ -*----------------------------------*\
| =========                 |                                                 |
| \\      /  F ield         | OpenFOAM: The Open Source CFD Toolbox           |
|  \\    /   O peration     | Version:  v2012                                 |
|   \\  /    A nd           | Website:  www.openfoam.com                      |
|    \\/     M anipulation  |                                                 |
\*---------------------------------------------------------------------------*/
FoamFile
{
    version     2.0;
    format      ascii;
    class       volScalarField;
    location    "555";
    object      nut;
}
// * * * * * * * * * * * * * * * * * * * * * * * * * * * * * * * * * * * * * //

dimensions      [0 2 -1 0 0 0 0];


internalField   nonuniform List<scalar> 
18258
(
0.00417861
0.00181974
0.00148968
0.00128982
0.000856354
0.00139996
0.00194477
0.00231541
0.0024297
0.00240995
0.00249616
0.00421364
0.00591454
0.00731075
0.00768026
0.00766778
0.00696212
0.00664898
0.00722067
0.00887536
0.00745826
0.0047782
0.0057222
0.00661434
0.00719664
0.00637272
0.00515476
0.00477286
0.00432057
0.00360114
0.00302078
0.00206885
0.00151402
0.00140351
0.00127237
0.0014504
0.00157964
0.00168428
0.00172223
0.00174951
0.00173774
0.00172789
0.00168113
0.0016521
0.00160244
0.00132445
0.00159822
0.0016533
0.00180705
0.00249503
0.00267975
0.00225338
0.00249258
0.00222364
0.00146597
0.00167778
0.00182121
0.00186041
0.00183655
0.00176039
0.00173478
0.00171311
0.00168562
0.00165297
0.00163311
0.00164959
0.00166682
0.00164887
0.00156804
0.00150257
0.00139658
0.00129029
0.00121153
0.00115051
0.00110451
0.00105328
0.000995709
0.000874617
0.000810607
0.00107325
0.00134739
0.0014397
0.00204069
0.00248813
0.00250517
0.00187557
0.00133683
0.00138755
0.0015423
0.00155737
0.00131932
0.0015675
0.00177499
0.00183951
0.00191679
0.00214282
0.00244105
0.00238017
0.0021201
0.0019546
0.00190033
0.00218423
0.00208018
0.00269799
0.00271405
0.00235957
0.0021954
0.0024692
0.0031849
0.00342339
0.00265766
0.00249684
0.00244794
0.00241601
0.0021861
0.00226374
0.00205666
0.00185319
0.00201941
0.00243902
0.0023131
0.00252565
0.00261757
0.00245607
0.00284611
0.00328193
0.00323514
0.00258881
0.00211206
0.00196878
0.00198355
0.00121313
0.00130999
0.00141077
0.00144535
0.00146973
0.00149038
0.00158876
0.00158517
0.00156175
0.00155829
0.00158482
0.000873726
0.000946733
0.000970348
0.000977155
0.000928364
0.000918753
0.000901527
0.000887565
0.000837356
0.000801276
0.000958644
0.00107636
0.00117229
0.00128451
0.00145161
0.00165601
0.00187081
0.00208785
0.00223134
0.00227217
0.00231335
0.00222956
0.00214504
0.0022214
0.0022342
0.00221974
0.00218991
0.00215223
0.00210133
0.00200801
0.00211537
0.00210916
0.00198135
0.00169882
0.00173648
0.0017334
0.00177852
0.0017696
0.00178761
0.00176245
0.00173274
0.00164933
0.00153262
0.00127502
0.0012467
0.00126154
0.00161929
0.00196542
0.00303552
0.00370188
0.00429688
0.00459703
0.00491747
0.00397987
0.0044305
0.00341564
0.00306594
0.00389632
0.00509639
0.00290785
0.00158802
0.00301274
0.00267315
0.00194038
0.00172746
0.00178055
0.00178191
0.00204327
0.00235601
0.00261577
0.00274132
0.00285198
0.0029402
0.00303767
0.00316111
0.00319552
0.00308736
0.00261407
0.00314931
0.00255907
0.00299085
0.00270395
0.00182723
0.00191484
0.0020357
0.00186485
0.00181443
0.00173519
0.00156528
0.00193454
0.00249921
0.00289924
0.00331427
0.00442082
0.00408977
0.00392034
0.00303577
0.0029356
0.00152359
0.00217252
0.00225669
0.00253852
0.00168805
0.00154022
0.0014623
0.00193736
0.00224397
0.0026467
0.00293504
0.00348606
0.00270411
0.00309048
0.00279799
0.00195117
0.00187679
0.00268656
0.00289273
0.00237764
0.00212631
0.00266794
0.0025258
0.00179239
0.00143017
0.00219767
0.00227357
0.00163403
0.00404287
0.0043195
0.00412731
0.00503347
0.00631012
0.00719697
0.00670343
0.00594831
0.00663805
0.00527039
0.00510593
0.00544758
0.00457619
0.00320459
0.00328454
0.00339617
0.00348798
0.00374467
0.00397783
0.00426256
0.00453325
0.0041212
0.00342359
0.00259215
0.00178323
0.00175809
0.00174875
0.00157033
0.00232735
0.00352312
0.0035009
0.00199053
0.00115978
0.00131064
0.00147954
0.00146489
0.0010637
0.000800277
0.00137842
0.00157619
0.00160171
0.00156199
0.00147478
0.00154117
0.00247509
0.00381315
0.00418983
0.00433957
0.00448135
0.00458159
0.00463753
0.00465551
0.00466569
0.0046781
0.00468901
0.00470541
0.00469105
0.00459131
0.00403854
0.00253918
0.00148416
0.00137851
0.00152139
0.00163502
0.00173416
0.00147561
0.000902417
0.00144113
0.0018455
0.0021213
0.0021395
0.00199674
0.00193699
0.00305449
0.00406136
0.0047873
0.00493448
0.00500019
0.00494561
0.00493891
0.00483163
0.00479874
0.0042086
0.00300813
0.00328815
0.00353026
0.0035702
0.00365229
0.00377581
0.00368833
0.00348553
0.00509056
0.00587652
0.00595238
0.00607951
0.00600826
0.00590552
0.00563837
0.00533272
0.00448979
0.00336719
0.0021248
0.00216937
0.00230964
0.00228767
0.00199165
0.00209785
0.00227664
0.00229945
0.00237474
0.00266298
0.00302448
0.00288543
0.00248374
0.002109
0.00196363
0.00192173
0.0018433
0.0013799
0.00140106
0.00136253
0.00138534
0.00186168
0.00221589
0.00255534
0.00362349
0.00323223
0.00262866
0.00416704
0.00427072
0.00458858
0.00506979
0.00519545
0.00575634
0.00400497
0.00360952
0.00370782
0.00302908
0.00280389
0.00283382
0.00284453
0.00265145
0.002902
0.00287629
0.00277215
0.00306047
0.00337203
0.00444611
0.0053868
0.00568309
0.00585412
0.00592408
0.00590209
0.00578799
0.00582522
0.00511707
0.00511503
0.0048986
0.00475858
0.00470956
0.00447791
0.00512263
0.00531705
0.00538143
0.00551499
0.00572352
0.00556732
0.00539525
0.00526428
0.00516953
0.00507045
0.00512364
0.00521819
0.00531912
0.00546099
0.0056505
0.00568161
0.0054851
0.00533664
0.00523521
0.00513994
0.00514348
0.00522839
0.00532746
0.00546823
0.00564815
0.00554821
0.00540825
0.00528373
0.00518169
0.0050919
0.00491367
0.0050319
0.005162
0.00526919
0.00533873
0.00461318
0.00493102
0.00484629
0.00438784
0.00410694
0.00311889
0.00337537
0.00355935
0.00387681
0.0043033
0.00438699
0.00368159
0.00315508
0.00307456
0.0030498
0.00312192
0.00314772
0.00316293
0.00357381
0.00538411
0.00542182
0.00543795
0.00544072
0.00465284
0.00452055
0.00421011
0.00769808
0.00716799
0.00621073
0.00512067
0.00274379
0.00235191
0.00278575
0.00338783
0.00378802
0.0041807
0.00277517
0.00171943
0.00200414
0.00207842
0.00202817
0.00187487
0.00156177
0.00144165
0.00130849
0.00140807
0.00249317
0.00397774
0.00448025
0.0045277
0.00448283
0.00439589
0.00429057
0.00414409
0.00408232
0.00512754
0.0069136
0.00784694
0.00782086
0.00672027
0.00546926
0.00307625
0.00157305
0.00114044
0.0012589
0.00138188
0.00162714
0.00145338
0.00120305
0.00131715
0.00125589
0.0025487
0.00441121
0.00564362
0.00669068
0.00657054
0.00569686
0.00467896
0.00444541
0.00455003
0.0046187
0.00467845
0.00473988
0.00478215
0.00475584
0.00432915
0.00267517
0.0015971
0.00141911
0.00152614
0.00178859
0.00190031
0.00191931
0.00189229
0.00164019
0.00271197
0.00430708
0.00273886
0.0014946
0.00161512
0.00160358
0.00282858
0.00282402
0.00276265
0.00429811
0.00454425
0.00453249
0.00425895
0.00406629
0.00240749
0.00273155
0.00274047
0.00275493
0.00280015
0.00141434
0.00154162
0.00158956
0.00171097
0.00149885
0.0019025
0.000492267
0.000682184
0.000792318
0.000861276
0.000927803
0.000910119
0.00174066
0.00176568
0.00168558
0.00164167
0.00208384
0.00223635
0.00228585
0.00210565
0.00194304
0.00206835
0.00207274
0.00195314
0.00185016
0.00191858
0.00192
0.00183979
0.00156483
0.00146628
0.00160985
0.00159251
0.0015797
0.00283712
0.00283209
0.00268014
0.00440349
0.00433271
0.00485267
0.00482129
0.00481601
0.00479689
0.00484807
0.00487459
0.0048946
0.00491833
0.00490859
0.00486156
0.00676813
0.0047812
0.00417238
0.00241294
0.00232431
0.00164153
0.00143854
0.00169393
0.00181172
0.00196414
0.00191971
0.00202384
0.00202156
0.00214495
0.00199091
0.00176786
0.0027079
0.00289291
0.00282548
0.00288141
0.00281357
0.00279706
0.00277637
0.0027368
0.00268918
0.00160115
0.0015706
0.00183918
0.00193061
0.00207447
0.0020933
0.00213874
0.00202843
0.00178403
0.00172692
0.00198876
0.00196192
0.00200001
0.00188564
0.00187789
0.00167302
0.00171543
0.00346112
0.00639435
0.003288
0.00365259
0.00330841
0.00376322
0.0032958
0.00284198
0.00290868
0.00256184
0.00267234
0.00280321
0.00285394
0.0029995
0.00353561
0.00340424
0.00298828
0.00290153
0.0028443
0.00268168
0.00241369
0.00252874
0.00255175
0.00260657
0.00289687
0.00332336
0.00372587
0.00452757
0.00439365
0.00384911
0.00351885
0.00369041
0.00375381
0.00472574
0.00441528
0.00438913
0.00462946
0.00458331
0.00435046
0.00412247
0.00397922
0.00341579
0.00347196
0.00397446
0.0038457
0.00396316
0.00389372
0.00404725
0.0041204
0.00395528
0.00367615
0.00386269
0.00385415
0.00428097
0.00416432
0.00386238
0.00353521
0.00377681
0.00372998
0.00430991
0.00405812
0.00379559
0.00349277
0.00334484
0.00379645
0.00372767
0.00422781
0.00434926
0.00435112
0.00379257
0.00370511
0.00440744
0.004241
0.00409506
0.00426549
0.00353171
0.00363355
0.00447684
0.00457084
0.00433559
0.00361853
0.00367497
0.00315123
0.00370641
0.00461361
0.00435695
0.00357083
0.00296201
0.00414582
0.0043628
0.00461579
0.00436167
0.00475189
0.00511974
0.00417228
0.00453966
0.00593385
0.00452619
0.00525278
0.0053696
0.00540176
0.00540521
0.00542691
0.00545495
0.0057483
0.00559451
0.00355333
0.00425176
0.00412837
0.00345088
0.00293244
0.00323031
0.00347882
0.00352854
0.00361756
0.00375513
0.00369124
0.00357187
0.00522657
0.00596395
0.00609562
0.00621831
0.00611742
0.00596712
0.00561894
0.00519117
0.00430366
0.00320869
0.00200059
0.00203889
0.00217255
0.00215115
0.00186588
0.00140842
0.0009251
0.00137423
0.00142108
0.00133832
0.00121973
0.00107556
0.00111143
0.00203457
0.00406695
0.00547564
0.00602139
0.00646737
0.00694983
0.00742189
0.00778279
0.00804286
0.00821626
0.00832008
0.00833714
0.00816592
0.00742207
0.00709594
0.00669353
0.00636613
0.00591222
0.00555225
0.00627153
0.00688566
0.00726477
0.00769155
0.00788836
0.00780451
0.00678362
0.00658699
0.00757503
0.00932513
0.00792364
0.00995273
0.011711
0.00912639
0.00820582
0.00819849
0.00915476
0.00933236
0.00899963
0.00848149
0.00788816
0.00714113
0.00750652
0.0078384
0.00815811
0.00845248
0.00928103
0.00943757
0.00937374
0.0092359
0.00904861
0.00877326
0.00833383
0.00772775
0.00705695
0.00640759
0.00565486
0.00409844
0.00188427
0.00216983
0.00211741
0.00235382
0.00225323
0.0010099
0.00111316
0.00112808
0.00113647
0.00107539
0.0012229
0.00177296
0.00289514
0.00207908
0.00170579
0.00118035
0.00139132
0.00232704
0.00396086
0.00447395
0.00455342
0.00460024
0.00587031
0.00683135
0.00727296
0.00760891
0.00784913
0.00774235
0.00748261
0.00702651
0.00647422
0.00626222
0.0059241
0.00562
0.00545775
0.00528525
0.00496638
0.00392298
0.00372175
0.0038772
0.00383303
0.00367079
0.0039211
0.00406302
0.00405994
0.00410536
0.0041452
0.00426811
0.00441278
0.00453888
0.00460547
0.00463075
0.00463936
0.00464984
0.00465834
0.0046735
0.00465846
0.00455709
0.00400179
0.00250183
0.00145993
0.00134954
0.00147975
0.00156481
0.00160116
0.00142163
0.00091493
0.00142199
0.00184062
0.00188788
0.00207158
0.00213746
0.00226729
0.00252667
0.00292018
0.00301338
0.00267377
0.00253223
0.00247751
0.00241459
0.00206005
0.00256775
0.00283804
0.00283339
0.00280761
0.00303498
0.00373547
0.0035876
0.00316285
0.00312631
0.00309398
0.00279273
0.00274973
0.00300994
0.0030438
0.00315913
0.00370561
0.00444535
0.00412262
0.00375378
0.00359636
0.00331995
0.00291821
0.00263731
0.00326068
0.00268219
0.0013926
0.0011805
0.00118484
0.0011859
0.0011409
0.00135187
0.00142212
0.00144215
0.00134521
0.00149304
0.00166188
0.00160975
0.00182252
0.00179686
0.00160609
0.00158913
0.00172616
0.00182885
0.00187987
0.00192252
0.003146
0.00324014
0.00251622
0.003647
0.00420263
0.00419678
0.00444911
0.00365411
0.00326977
0.0038818
0.0044964
0.0051761
0.0040849
0.00385716
0.00395479
0.00180963
0.000952053
0.0013436
0.00166835
0.00185904
0.00180398
0.00170523
0.00144263
0.00256548
0.00263392
0.00418545
0.00469459
0.00475366
0.00471991
0.00472302
0.00515193
0.00593284
0.00679869
0.00705064
0.00694641
0.00663364
0.00605655
0.0054887
0.00545626
0.0052778
0.00514325
0.00510761
0.0044511
0.00390417
0.0041683
0.00410572
0.00424477
0.00431012
0.00435764
0.00440612
0.00448668
0.00458392
0.00467281
0.0047341
0.00477552
0.0048106
0.0048463
0.00488201
0.00492041
0.00494158
0.00489568
0.00442512
0.00265209
0.00158013
0.00144082
0.00153733
0.00180704
0.00190268
0.00204473
0.0018149
0.000955664
0.00112453
0.00195345
0.00216751
0.0020057
0.00187702
0.00184398
0.00154451
0.0028007
0.00276531
0.00434483
0.00488608
0.00495339
0.0049382
0.00489831
0.00485302
0.00480832
0.00477146
0.00474181
0.00471086
0.00466819
0.00461752
0.00456962
0.00452017
0.00443766
0.00432029
0.00419039
0.00436312
0.00450205
0.00470244
0.00491915
0.00502607
0.00493385
0.00479457
0.00473445
0.00476821
0.00481316
0.00485916
0.00490077
0.00492311
0.00486955
0.00458991
0.00430513
0.00272431
0.00276037
0.00135585
0.00150584
0.00173775
0.00179478
0.00194892
0.00193925
0.0015234
0.00118695
0.00133943
0.00125266
0.00223967
0.00246364
0.00273384
0.00270727
0.00146846
0.00150616
0.00156497
0.00176503
0.00163983
0.00158572
0.00393873
0.00376698
0.00393745
0.00483481
0.00416382
0.00287266
0.00314894
0.00438124
0.00462185
0.00279336
0.0020936
0.00232409
0.00294441
0.00433358
0.00438889
0.00417132
0.00414714
0.00302639
0.003718
0.00447493
0.00435449
0.00339356
0.00233903
0.00174115
0.000843765
0.00160508
0.0013724
0.00336676
0.00372656
0.00368434
0.0040309
0.0042809
0.00432473
0.00420409
0.00372535
0.00379959
0.00383775
0.00437506
0.00439672
0.00371802
0.00313731
0.00254547
0.00256895
0.00261952
0.00290367
0.0036361
0.00342564
0.00300203
0.00291041
0.00284694
0.00267729
0.00241547
0.00211852
0.00213339
0.00198579
0.00192189
0.00303008
0.00403398
0.00475733
0.00489397
0.00494319
0.0048668
0.00483167
0.00469271
0.00462042
0.0040133
0.00512317
0.00541572
0.00522746
0.0052675
0.00530163
0.00534321
0.00534507
0.00524523
0.00450626
0.00269051
0.00175715
0.00198341
0.00214071
0.00200985
0.00199878
0.00213071
0.00202202
0.00177612
0.00287778
0.00281295
0.00449856
0.00509547
0.00520366
0.00520858
0.00518646
0.00516784
0.00517345
0.00544495
0.00532216
0.00540286
0.00569742
0.00570399
0.00577243
0.00541918
0.00534959
0.0053048
0.0052746
0.00522594
0.00509709
0.00451013
0.00437246
0.00496594
0.00511944
0.00518781
0.00523524
0.0052916
0.00536513
0.00557719
0.00573493
0.00579703
0.0055575
0.00546544
0.00533769
0.00515764
0.00511561
0.00510826
0.00510512
0.00508159
0.00495088
0.00435785
0.00280176
0.00287097
0.00170777
0.00171876
0.00197962
0.00207902
0.0020417
0.00189061
0.00184322
0.00317894
0.00361935
0.00384673
0.00414873
0.00396353
0.00393999
0.00450369
0.00435839
0.00388427
0.00404244
0.00362357
0.00345007
0.00334609
0.00336688
0.00176236
0.00190185
0.00198396
0.00195126
0.00186576
0.00166426
0.00152613
0.00278553
0.00276522
0.00272983
0.0016226
0.00158693
0.00186967
0.00181558
0.00166074
0.00141556
0.00155202
0.0023977
0.00268194
0.00415894
0.00430824
0.00461026
0.00492951
0.00504972
0.00508164
0.00510101
0.00512243
0.00517049
0.00522739
0.00524426
0.00524345
0.00528777
0.00527801
0.00528046
0.00525458
0.00522387
0.00518728
0.00514758
0.00508181
0.00494623
0.00462163
0.00430338
0.00485154
0.0048964
0.00498765
0.00508166
0.0051213
0.00512665
0.00510652
0.00506728
0.00502037
0.0049674
0.00496506
0.00511217
0.0051498
0.0051753
0.00515955
0.00514117
0.00513539
0.00511271
0.00507652
0.00498363
0.00489021
0.00485101
0.00477006
0.00489667
0.00495289
0.00496051
0.00500751
0.00508326
0.00510522
0.00510493
0.00506715
0.00503555
0.00499391
0.00492494
0.00483053
0.0045295
0.00459405
0.0046752
0.00478193
0.00488471
0.00496779
0.00501505
0.00501984
0.0049751
0.00494481
0.00494628
0.00490463
0.00492604
0.00494792
0.00492194
0.00491758
0.00491894
0.00485924
0.00475403
0.00460874
0.00445614
0.00433288
0.00427529
0.00417588
0.00450121
0.00463686
0.00475508
0.00485864
0.00495124
0.00504385
0.005071
0.00505982
0.00500431
0.00497296
0.00497232
0.00492478
0.00492157
0.00496744
0.00496862
0.00499448
0.00504134
0.00502914
0.00496339
0.00478901
0.00461949
0.00447111
0.00432771
0.0041728
0.0041625
0.00423052
0.00416262
0.00420918
0.00435127
0.00453454
0.00469493
0.00480103
0.00483643
0.00486877
0.00491461
0.00491075
0.00488358
0.00486764
0.00480581
0.0047513
0.00468481
0.0045432
0.00436633
0.00421433
0.00417416
0.00426483
0.00434785
0.00426825
0.00394576
0.00410517
0.00425727
0.00440632
0.00461682
0.00485908
0.00496205
0.00499937
0.00497565
0.00495721
0.00495514
0.00491163
0.00489543
0.00493565
0.00493877
0.0049577
0.00498774
0.00495987
0.00487759
0.0045819
0.00422693
0.00405511
0.00395245
0.00381866
0.00428879
0.00437935
0.00427222
0.00419914
0.0043106
0.00443651
0.00456783
0.00465611
0.00469231
0.0047448
0.00481377
0.00484771
0.00479934
0.00474205
0.0046722
0.00463686
0.00463921
0.00462058
0.00453775
0.00443675
0.00431307
0.00445762
0.00454235
0.00446018
0.00402718
0.00409349
0.00420078
0.00426273
0.00459604
0.00488239
0.00494454
0.00494357
0.00491182
0.00489126
0.00489153
0.00486594
0.00481752
0.00480919
0.00480562
0.00486361
0.0049396
0.00498846
0.00501556
0.00480298
0.00440672
0.00433521
0.00414254
0.00405824
0.00451997
0.00457064
0.004464
0.00436712
0.00458187
0.00467101
0.00469315
0.00467109
0.00461879
0.00458476
0.00464405
0.00473822
0.00466747
0.00436341
0.00409408
0.00423374
0.00426994
0.00426169
0.00420578
0.00410966
0.00389562
0.00435197
0.00479699
0.00483138
0.00434917
0.00435622
0.00423098
0.00394341
0.00432875
0.00452771
0.00456815
0.00454446
0.0044705
0.00429836
0.00453949
0.00475207
0.00471073
0.00426446
0.00276733
0.00280487
0.00282391
0.00282574
0.00278879
0.00277807
0.00273757
0.00271623
0.00265358
0.00258954
0.00252909
0.00269469
0.00283575
0.00302826
0.00304408
0.00312389
0.00299163
0.00283423
0.00264901
0.00206811
0.00262383
0.00312944
0.00332611
0.00357824
0.00363014
0.00417644
0.00438741
0.00449874
0.00440877
0.00354059
0.0030039
0.00240132
0.001562
0.000973513
0.00114278
0.00118873
0.00124701
0.00152361
0.00282027
0.00143672
0.00199007
0.00155576
0.00267509
0.00141223
0.000886605
0.000586987
0.00074619
0.000884044
0.000891587
0.000856417
0.000715317
0.000564339
0.000576917
0.000539657
0.000573633
0.000518194
0.0005939
0.000555284
0.000771336
0.0011465
0.00131083
0.00134133
0.00108481
0.0012246
0.00102328
0.00118082
0.00105487
0.0011498
0.00110306
0.001349
0.00147839
0.00141527
0.00141903
0.00124169
0.000868374
0.00100667
0.000790764
0.000949532
0.000726331
0.000937557
0.000803822
0.00104437
0.00107644
0.00107319
0.00103316
0.000789182
0.000935495
0.00073649
0.000902163
0.000739321
0.000785606
0.000653591
0.000946494
0.000963817
0.000889006
0.000944075
0.00105816
0.00113436
0.00125111
0.00118758
0.00135603
0.00131331
0.00133562
0.00126544
0.00123083
0.00120299
0.00120574
0.00118613
0.00119278
0.00123135
0.00123329
0.0012382
0.00127745
0.001259
0.00122873
0.00121042
0.00107542
0.000868003
0.00151234
0.00155946
0.00158271
0.00158246
0.00154691
0.00152925
0.00147556
0.00146139
0.00141494
0.00138812
0.00132611
0.00127571
0.0012179
0.00136978
0.000766629
0.000870531
0.000919046
0.000946501
0.000965443
0.000974227
0.000981184
0.000975669
0.000963479
0.000939791
0.000931855
0.000905992
0.00115895
0.00131826
0.00137815
0.0013941
0.00130649
0.00124405
0.00272422
0.0032985
0.00501191
0.00512402
0.00384901
0.00383733
0.00132689
0.00140017
0.000956585
0.00134414
0.00138577
0.0013714
0.00129523
0.000933985
0.00140177
0.000976494
0.00131458
0.000984799
0.00121643
0.00100005
0.00141793
0.00180667
0.001743
0.00157886
0.00107498
0.000894698
0.000892224
0.0007646
0.000839082
0.000695391
0.000856379
0.000725718
0.00107545
0.00152404
0.00169428
0.00172932
0.00136411
0.0018823
0.00141543
0.00204983
0.00162856
0.00200906
0.00161303
0.00186622
0.00230918
0.00231946
0.00226422
0.00182467
0.00146172
0.00164102
0.00145351
0.0016744
0.00242031
0.00158583
0.00240723
0.000993987
0.00135477
0.00139622
0.00137682
0.00129788
0.000873951
0.00222584
0.00117684
0.00209469
0.00135529
0.00217541
0.00157657
0.00208232
0.00248894
0.00260055
0.00258945
0.00211507
0.00190446
0.00196328
0.00156691
0.00188047
0.0014064
0.00204465
0.00116684
0.00151774
0.00167777
0.00176749
0.00177434
0.00145782
0.00287969
0.00180861
0.00272992
0.00189897
0.00243308
0.00195058
0.00213323
0.00251939
0.00250352
0.00248224
0.00210471
0.00170296
0.00224809
0.00160308
0.0478973
0.110565
0.0440562
0.111794
0.050635
0.0718788
0.0708225
0.0709601
0.0712236
0.0535238
0.116639
0.137738
0.143636
0.145401
0.144333
0.233223
0.190184
0.285703
0.185166
0.108978
0.0472673
0.0651456
0.168118
0.277618
0.416642
0.528677
0.360312
0.372953
0.237996
0.234637
0.220913
0.178743
0.1096
0.0550164
0.00939521
0.0102461
0.0146769
0.0195527
0.0153901
0.0094247
0.00186604
0.00192605
0.00196999
0.00199777
0.00199158
0.00194978
0.00198054
0.00186894
0.00175542
0.00196243
0.00213998
0.00232275
0.00273101
0.00301577
0.00271821
0.00297806
0.0031553
0.00329992
0.00341989
0.00359859
0.00379966
0.00397558
0.00398483
0.0036515
0.00311293
0.00253172
0.00212668
0.00201429
0.00189125
0.00166776
0.00152544
0.00142741
0.00138071
0.00136159
0.00139954
0.00152987
0.00164324
0.00168305
0.00165032
0.00162001
0.00159361
0.00141905
0.00165929
0.00227607
0.00229314
0.00392889
0.00452697
0.00462116
0.00462776
0.00410111
0.0026195
0.00262545
0.00263902
0.00268992
0.00270074
0.0027088
0.00270633
0.00269814
0.00268271
0.00265445
0.00263995
0.00259749
0.00256108
0.00246883
0.00247289
0.00250451
0.00252965
0.00248765
0.00249753
0.00244542
0.00319783
0.00426641
0.00480055
0.00501585
0.00520138
0.0050481
0.00699983
0.00599418
0.00420984
0.00413947
0.00408773
0.00485119
0.00488295
0.00440083
0.00441814
0.00404149
0.00252374
0.00251897
0.00252062
0.0026963
0.00274943
0.00284024
0.00286562
0.00288602
0.00289917
0.00289074
0.00288818
0.00286064
0.00284088
0.00277555
0.00275392
0.00274451
0.00151322
0.00165164
0.00171382
0.00172588
0.00175217
0.0017423
0.00173349
0.00171302
0.00170054
0.00167236
0.00164057
0.00159169
0.00149639
0.00136278
0.00149946
0.00254314
0.00254209
0.00414207
0.00466155
0.00469678
0.00523893
0.00497349
0.0047111
0.00505437
0.00454995
0.00451147
0.00409216
0.00254249
0.00257669
0.00153031
0.00151716
0.00177477
0.00172609
0.0018446
0.00189504
0.00189971
0.0019254
0.00194933
0.0019798
0.00202848
0.0020422
0.00200847
0.00200146
0.00188499
0.00162885
0.00164787
0.00194264
0.00203781
0.00189359
0.00186226
0.00184893
0.00180488
0.00177101
0.00173883
0.00176209
0.00189814
0.00189616
0.00186217
0.00177214
0.0017255
0.00149522
0.00144455
0.00252313
0.00255958
0.00421764
0.00431605
0.00429033
0.00495068
0.00553001
0.00628664
0.00536562
0.00435315
0.00451153
0.00515711
0.00383479
0.00321332
0.0019065
0.00144273
0.00179085
0.00166949
0.00174016
0.00180278
0.00160067
0.00171995
0.00158973
0.00144458
0.00143617
0.00143443
0.00146939
0.00148423
0.00151083
0.00151443
0.00155025
0.00154659
0.00155024
0.001569
0.0015759
0.001741
0.00189029
0.00159172
0.00135
0.00131658
0.00124344
0.00118437
0.00121345
0.00118489
0.00117769
0.00115625
0.00113669
0.00108491
0.00113064
0.00120001
0.00140412
0.00134394
0.00108604
0.000970157
0.000662997
0.00067628
0.00068095
0.000701739
0.000709426
0.000718819
0.000722349
0.000734006
0.000736295
0.000739984
0.000739695
0.000757355
0.000754743
0.000745949
0.000740344
0.000743887
0.000747176
0.000746536
0.00109315
0.00121692
0.0013279
0.00157664
0.00185426
0.00159642
0.00135371
0.00116808
0.00075102
0.000762272
0.000776004
0.000783164
0.000799594
0.000814668
0.00083134
0.000841868
0.000849656
0.000857874
0.000866527
0.000869915
0.000867652
0.0008508
0.000840838
0.000862338
0.000947974
0.000997777
0.00106163
0.00108581
0.00110635
0.00111668
0.00111137
0.00112306
0.00110979
0.00110804
0.00108902
0.00108101
0.0010732
0.00106355
0.00105139
0.00102168
0.00101164
0.0010645
0.0018012
0.00235444
0.00270799
0.00298062
0.00275613
0.00223698
0.00235
0.00412797
0.00390907
0.00230782
0.00215514
0.00198887
0.00173669
0.00152789
0.00185014
0.00211056
0.00230746
0.00248039
0.00263859
0.00274625
0.00288499
0.00306604
0.00338521
0.00342507
0.00312411
0.00253072
0.00214059
0.00199744
0.00192904
0.00181137
0.00168295
0.00172536
0.001738
0.00168646
0.00162249
0.0016046
0.0016314
0.00166616
0.00164641
0.00164576
0.00147038
0.0014698
0.00251166
0.00255739
0.00393416
0.00414538
0.00418602
0.00269025
0.00265379
0.00154999
0.00143978
0.00157076
0.0016309
0.00163452
0.00164151
0.00163377
0.00160535
0.00158482
0.00156059
0.00154099
0.00152342
0.00149297
0.00143447
0.00132513
0.00144359
0.00161825
0.00169076
0.00170987
0.00171915
0.0017462
0.00179095
0.00182634
0.00190903
0.00191656
0.0019155
0.00192202
0.00179597
0.00185183
0.00156711
0.00156455
0.00271201
0.00270409
0.00155349
0.00183438
0.00184723
0.00182676
0.00196711
0.00179994
0.00174311
0.00173477
0.00166138
0.00162244
0.00156999
0.00153884
0.0015686
0.00166822
0.00161458
0.0014311
0.00137793
0.00154647
0.00148878
0.00123515
0.00105529
0.00102642
0.000982611
0.000956022
0.00100214
0.00103833
0.00105892
0.00108499
0.00109266
0.00114045
0.00110926
0.00116345
0.00123382
0.0012899
0.00152978
0.00165809
0.00149791
0.0014693
0.00145113
0.00145031
0.00145514
0.00139517
0.00139126
0.00136027
0.00134495
0.00130412
0.00128578
0.00126245
0.00126649
0.00127965
0.00140679
0.00361832
0.00461464
0.00480519
0.00821569
0.00331884
0.00338685
0.00666118
0.00274614
0.0041335
0.00442821
0.00462841
0.00483377
0.00442287
0.00563605
0.00392659
0.00437582
0.0045533
0.00398099
0.00150074
0.00172716
0.00198284
0.00176156
0.00155523
0.00105899
0.00114048
0.00117709
0.00120707
0.00122626
0.00124798
0.00127106
0.00129281
0.00130796
0.00130798
0.00126791
0.00122483
0.00112598
0.0010931
0.00113524
0.00117878
0.00103494
0.000974433
0.00098576
0.00100173
0.0010106
0.00101231
0.00102193
0.0010244
0.00103971
0.00103123
0.00103878
0.00102081
0.00102943
0.00101632
0.000981959
0.00093333
0.000851059
0.000831104
0.00119722
0.00127512
0.0013395
0.00152091
0.00175703
0.00187536
0.00168123
0.00155087
0.00148868
0.00165139
0.00165322
0.00301019
0.00577828
0.00258464
0.00289249
0.00844125
0.00335564
0.00260515
0.00264399
0.00267146
0.00267536
0.00155462
0.0018409
0.00178445
0.00179268
0.00152074
0.00127713
0.0011455
0.00102413
0.00069476
0.00069257
0.00069779
0.000708689
0.000712116
0.000681561
0.000681483
0.000677606
0.00067611
0.000661701
0.000657694
0.000645954
0.00063883
0.000621901
0.000612777
0.000596819
0.000594248
0.000623392
0.000696213
0.000842204
0.000933382
0.00106343
0.00108153
0.00120943
0.00298962
0.00346405
0.00477921
0.00474007
0.00747263
0.00467068
0.003527
0.00318355
0.00466016
0.00481752
0.00446749
0.00604974
0.00418344
0.00277641
0.00425256
0.00355073
0.00412895
0.00407498
0.00433126
0.00687506
0.00721085
0.00202544
0.0018046
0.00189721
0.00215324
0.00255736
0.00235892
0.00268554
0.00269113
0.00208402
0.00131346
0.00418355
0.00505905
0.00409356
0.00493712
0.00754432
0.00302628
0.00295058
0.00260995
0.00217825
0.00197929
0.00195346
0.00217881
0.00260745
0.00652184
0.00698107
0.00648759
0.00649429
0.00588993
0.00643089
0.00799552
0.00794199
0.00702283
0.00656734
0.00682277
0.00428416
0.00262084
0.00304431
0.00337843
0.00450907
0.0046501
0.00979795
0.00333874
0.00368056
0.00373756
0.00499406
0.00484723
0.00853395
0.00363661
0.00391383
0.00515818
0.00689658
0.0126608
0.00465277
0.00488395
0.00701572
0.00712526
0.00651525
0.0047186
0.00426859
0.00464133
0.00349835
0.00342144
0.00291806
0.00430471
0.00578198
0.00458894
0.00445535
0.00378233
0.00339109
0.00345033
0.00358532
0.00298022
0.00293734
0.00338354
0.00253274
0.00244803
0.00257678
0.000716541
0.000367097
0.00037518
0.00038497
0.000392913
0.000401136
0.00040709
0.000414229
0.000417352
0.000417761
0.000418938
0.000442924
0.000438667
0.000424782
0.000385709
0.000440037
0.000698297
0.000698663
0.000439432
0.000387356
0.000695191
0.00110751
0.00130562
0.00154406
0.00156282
0.00134875
0.00116959
0.000720175
0.000708795
0.000429561
0.000501718
0.000544826
0.000483314
0.000539495
0.000500099
0.000529605
0.000535435
0.000495561
0.000492646
0.00049449
0.000490789
0.000481997
0.00047134
0.00045834
0.000448266
0.000443049
0.000439412
0.000430882
0.000356532
0.000332994
0.000402491
0.000644107
0.000644825
0.000603263
0.000566844
0.000535446
0.000520666
0.000516189
0.000513066
0.000522016
0.00053881
0.000543608
0.000548571
0.000591007
0.000572019
0.00061094
0.000573484
0.000612601
0.000574868
0.00052886
0.000444052
0.000458121
0.000739173
0.000747055
0.00120659
0.00137978
0.00156432
0.001572
0.0017552
0.00184914
0.00156654
0.00162643
0.00186332
0.00173477
0.0015456
0.00155187
0.00139561
0.00139738
0.00123841
0.000774225
0.000763762
0.000479591
0.000465811
0.000555418
0.000545777
0.000606943
0.000649653
0.000649851
0.000647775
0.000632168
0.000626409
0.000550812
0.00053982
0.000540553
0.000524319
0.000521047
0.00054423
0.000595834
0.00070116
0.000848722
0.00092325
0.000953612
0.0009137
0.0008174
0.00060574
0.000545591
0.000947655
0.000981022
0.00177342
0.00422218
0.00198533
0.00371867
0.00268166
0.000664782
0.000740626
0.000944297
0.00105798
0.00114264
0.00119261
0.00109171
0.00091193
0.00068648
0.000566772
0.000843472
0.00072926
0.000822373
0.000718033
0.000929222
0.0010742
0.00103899
0.00104659
0.000884285
0.000720118
0.000762665
0.000684406
0.000754343
0.000631621
0.000759914
0.000685919
0.000861867
0.000869933
0.000851795
0.000807344
0.000614683
0.000644951
0.000541051
0.00058702
0.000527165
0.000544928
0.000516366
0.000602125
0.000693872
0.000665983
0.000663417
0.00054514
0.000427258
0.000471993
0.00040844
0.000462337
0.000359484
0.000435398
0.000364963
0.000472572
0.000487359
0.000490367
0.000488082
0.000397986
0.00046822
0.000571982
0.000599785
0.000604353
0.000575105
0.000443654
0.000686202
0.000618267
0.000754801
0.000652355
0.000714594
0.000650538
0.000758231
0.000971188
0.00101412
0.00102084
0.000828354
0.00082331
0.00150328
0.0835088
0.00135231
0.00159851
0.00164854
0.00164271
0.00135805
0.00132449
0.00164114
0.00121333
0.00171907
0.00108247
0.00183451
0.000699251
0.00106311
0.00114143