/*--------------------------------*- C++ -*----------------------------------*\
| =========                 |                                                 |
| \\      /  F ield         | OpenFOAM: The Open Source CFD Toolbox           |
|  \\    /   O peration     | Version:  v2012                                 |
|   \\  /    A nd           | Website:  www.openfoam.com                      |
|    \\/     M anipulation  |                                                 |
\*---------------------------------------------------------------------------*/
FoamFile
{
    version     2.0;
    format      ascii;
    class       surfaceScalarField;
    location    "555";
    object      phi;
}
// * * * * * * * * * * * * * * * * * * * * * * * * * * * * * * * * * * * * * //

dimensions      [1 0 -1 0 0 0 0];
oriented        oriented;


internalField   nonuniform List<scalar> 
50655
(
0.00257682
-0.00359728
-0.00142366
-0.00513076
0.00142163
0.00356369
-0.00338403
0.00394659
0.00442116
-0.00249336
-0.00284753
0.00308035
-0.00369568
-0.00379604
0.00264153
-0.00175581
-0.00486392
0.000783478
0.000237313
-0.00473219
0.00156505
-0.00176736
-0.00716918
0.00234947
-0.0104496
0.0027897
0.000391939
-0.0112741
-0.00342503
0.00413951
-0.0120315
-0.00482023
0.00547524
-0.0128951
-0.00562017
0.00637959
-0.0261626
-0.00929825
0.0223719
-0.0486849
-0.0282194
0.0501814
-0.0482862
-0.0526857
0.0515898
-0.0311131
-0.0711017
0.0531508
-0.00462358
-0.078007
0.0507344
0.00779271
-0.0547496
0.0415219
-0.00176333
-0.031468
0.0402512
-0.0210779
-0.0216934
0.0402413
-0.0170352
-0.0512687
0.0465036
-0.00715889
-0.05529
0.0448561
-0.0388795
0.0313916
-0.0413887
0.0188062
-0.0165983
-0.0159918
-0.0756584
0.0497669
0.0201667
-0.0797991
0.0431441
0.0305341
-0.0292152
0.0185408
0.0340884
-0.00389162
0.0365381
0.0178172
-0.0205895
0.0254172
-0.0179341
0.0287791
0.0165147
-0.00949877
0.0182321
0.00362073
-0.00142486
0.0141919
-0.00637081
0.0068284
0.00306786
-0.00539446
0.000250994
-0.00126804
-0.00537088
-0.00119383
0.00115185
-0.00629597
0.000213004
0.000694804
-0.00755951
0.000207152
0.00103979
-0.00869573
9.02141e-05
0.00102888
-0.0090899
-0.000249405
0.000627205
-0.00935776
-0.000667367
0.000918634
-0.00892285
-0.00109389
0.000642691
-0.00830024
-0.00156207
0.000922788
-0.00707657
-0.00201004
0.000769947
-0.00565061
-0.00247469
0.00103186
-0.00377828
-0.00277427
0.000885771
-0.00195176
-0.00296479
0.00112131
0.000972767
-0.00294212
0.000699788
-0.00245098
0.00269832
-0.00568533
0.004992
0.00135134
-0.0111229
0.00471972
0.000661376
-0.0131795
0.00514585
-0.00315628
-0.013012
0.00537254
-0.00560697
-0.00545923
0.00465097
-0.0122602
0.000498542
0.00560388
-0.0116034
0.000598856
0.00357155
-0.00369751
-0.00150464
0.0020859
-0.0029543
0.00214023
-0.000707703
-0.00451502
0.0021873
-0.000642727
-0.00582882
0.00234564
-0.00104822
-0.00709561
0.00230266
-0.00105083
-0.00859754
0.00249497
-0.00100705
-0.0101643
0.00258137
-0.00102805
-0.0114605
0.00237393
-0.00109086
-0.0123637
0.00201254
-0.00112227
-0.0128319
0.00159935
-0.00114425
-0.0131504
0.00143354
-0.00112828
-0.0137546
0.00156074
-0.000970795
-0.0139623
0.00111695
-0.000924298
-0.0136684
0.000891235
-0.0012006
-0.0136589
0.000777232
-0.000802325
-0.0133849
0.000821553
-0.00111165
-0.0131379
0.000896112
-0.00115906
-0.0129934
0.000838997
-0.000999232
-0.0127176
0.000568846
-0.000860252
-0.0121783
0.000119641
-0.000674404
-0.0112764
-0.000457034
-0.000460106
-0.0101547
-0.000917703
-0.000219312
-0.00883654
-0.00101375
-0.000319216
-0.00738764
-0.000764256
-0.000698489
-0.00758396
-0.000695585
0.000879893
-0.0163891
0.000814009
0.00796458
-0.0211666
0.000373425
0.00434348
-0.0226183
0.00112618
0.000260309
-0.0426293
0.016323
0.00357052
-0.0546314
0.00549142
0.00621237
-0.0294885
-0.016447
-0.00900354
-0.0131292
-0.0150176
-0.00147382
-0.0112766
-0.00401964
0.00208903
-0.0100296
-0.00311853
0.00178143
-0.00811248
-0.00347159
0.00145298
-0.00473877
-0.00332897
-0.000140007
-0.00320719
-0.00161689
-0.00448504
0.00461764
-0.00343468
-0.00271773
0.00674337
-0.00862431
0.000857961
0.00622409
-0.00993196
0.0061419
0.00591714
-0.0113459
0.014884
0.00883567
-0.0177589
0.0284542
0.013837
-0.0276898
0.0249407
0.0196958
-0.0164637
0.0166574
0.00643028
0.00166828
0.00814315
5.08285e-05
0.00831612
-0.000855835
-0.00382639
0.0126905
-0.00437492
-0.00671253
0.0101152
-0.00755892
0.00543601
0.00431977
0.00100932
-0.0101958
0.00194817
-0.00810999
0.00365538
-0.00526323
-0.00415091
0.00741014
-0.0125849
0.00197757
0.00526207
-0.0143682
0.00572016
0.00235661
-0.0383938
0.0271031
0.0232936
-0.00725672
-0.0132633
0.0372357
-0.00966693
-0.0394396
-0.00476199
0.00932201
-0.00912218
-0.00050122
0.00898731
-0.007461
0.00270513
0.00961019
-0.00671487
0.0046161
0.00962874
-0.00490628
0.00715463
-0.00134368
0.0113024
-0.00503337
-0.00270319
0.0124812
-0.00195926
-0.00244051
0.00882106
-0.000390089
-0.00422809
-0.00201885
-0.0211165
-0.00221303
0.0295836
-0.0106567
-0.0143529
-0.00175485
-0.00711378
-0.0025788
-0.0073253
0.0159074
0.00122689
-0.0102669
0.0219629
0.00103597
-0.00900253
0.0325471
0.000230455
-0.0132045
0.0833094
-0.00231616
-0.0359851
0.0468533
-0.00191375
0.045549
-0.00235707
0.00752692
-0.00318789
0.0384725
0.00387158
0.0218293
0.00197398
0.02324
-0.000311597
0.0113262
0.0139366
0.00625491
-0.00800319
9.2247e-05
0.00681321
0.00521975
-0.00150282
0.00732347
0.00819094
-0.00154185
0.0071251
-0.0150874
0.00798323
-0.00212331
0.0073723
-0.0153183
0.0085076
-0.001282
0.00743861
-0.0167188
0.00841836
-0.0013255
0.00742231
-0.0160174
0.0086178
-0.000643404
0.00728886
-0.016605
0.00861349
-0.000270717
0.00703788
-0.0159982
0.0085676
0.000701325
0.00624127
-0.0154673
0.00823536
0.00576849
0.00442436
-0.0169609
0.0074549
0.00149357
-0.00415895
0.00568816
0.00273138
0.000809411
0.00538557
-0.00028403
0.000633187
0.00714558
-0.000738841
0.000789085
0.00802244
-0.00115275
0.000946693
0.00832448
-0.00120621
0.00128415
0.00838952
-0.00131792
0.0015083
0.0085638
-0.00136262
0.00150983
0.00871015
-0.00135236
0.00127197
0.00872156
-0.00137093
0.000942104
0.00883712
-0.00119566
0.00731174
-0.000262411
0.00935991
-0.00201102
-0.000815385
0.0110386
-0.00185629
-0.000851595
0.0123231
-0.00155285
-0.000665176
0.0131089
-0.000315709
-0.000942846
0.0135396
0.000849519
-0.00117623
0.0137168
0.00170741
-0.00133171
0.0137153
0.00223642
-0.00141212
0.013774
0.00224943
-0.00142858
0.0137286
0.00182554
-0.000975148
0.0137352
0.00134841
-0.000593795
0.0139171
0.00122806
-0.000534265
0.0133044
0.00114607
0.000568256
0.0124521
0.00243508
0.000231974
-0.000268133
0.0126925
-0.000412779
0.00244006
-0.000847469
0.0123538
-0.000237216
0.00280248
-0.000640413
0.0114796
-7.36304e-05
0.00311485
-0.000167605
0.0102159
4.9843e-05
0.000295985
0.00327849
0.00861624
0.000721244
0.00331574
0.000130528
0.00687025
0.00103958
0.00304919
0.00013837
0.00586508
0.000962613
0.00224118
8.90741e-05
0.00442135
0.00462147
-0.000848496
0.00286728
0.00427771
-0.000552555
0.00142015
-0.000503078
0.00407403
0.00389529
-0.000406172
0.00560449
-0.000514408
-0.00121093
0.00682802
-0.000408823
-0.000831558
0.0077993
-0.000606549
-0.000381215
0.00816369
-0.000472497
9.13841e-05
0.00822057
-0.000605893
0.000532552
0.00753209
-0.000258645
0.000930532
0.00655566
-0.000293704
0.00125358
0.00473768
0.000294677
0.00150622
0.00204123
0.00114574
0.00153359
-0.00173163
0.00205718
0.00169774
-0.00447712
0.000549382
0.00217812
-0.00599603
-0.000884287
0.00238393
-0.00727495
0.000611475
0.000645505
-0.0137261
0.000491936
0.00591431
-0.0248029
-0.0065689
0.0175299
-0.0309597
-0.016141
0.0221326
-0.039101
-0.0260812
0.033956
-0.0316652
0.0236454
0.0161842
-0.0384215
0.00914238
0.0258957
-0.0166527
0.00687275
-0.00457602
0.00433654
-0.0322193
0.02611
0.00148442
-0.0146935
-0.0232892
0.00572817
-0.0374318
0.00603932
0.041133
-0.0573413
-0.000702805
0.0289629
-0.0499386
0.0151448
0.0125719
-0.00996043
0.0169422
-0.0102747
0.0109167
-0.00249696
0.0189231
0.00787288
0.0113041
-0.0125635
0.0134978
0.00531453
-0.00621349
0.00134385
0.0112264
0.00488836
0.00102619
0.00270326
0.00129059
-0.00102416
0.00151175
0.00274348
-0.00487524
0.00382979
0.00205693
-0.00543854
-0.00048295
0.00217102
-0.00957063
0.00198494
0.00242135
-0.00822168
-0.00368713
0.00202439
-0.0118713
0.00195097
0.00142009
-0.00891206
-0.00418246
0.000597563
-0.0112469
0.00214822
-0.000305602
-0.00732656
-0.00320554
-0.00134105
-0.00816466
0.00228702
-0.00187791
-0.00441082
-0.00171954
-0.00256794
0.00129568
-0.00256018
0.0039715
0.0117646
-0.0106155
0.0114148
0.00656741
-0.00941222
0.0128851
0.00891663
-0.00508417
0.00992225
0.0105215
-0.0024825
0.00411556
0.00949396
0.000979952
0.0127155
-0.00234997
-0.00215898
0.000841639
0.0150637
-0.00590653
0.0046446
-0.00326896
0.00210736
0.0149627
-0.00749452
-0.00307545
0.0032326
0.00736499
0.0103301
-0.00789342
-0.00268281
0.00326502
0.0118697
0.00169902
-0.00671397
-0.00198457
0.00113054
0.0161141
-0.000903806
-0.00438478
0.00750579
-0.000379112
-0.00527781
0.0111415
-4.72552e-05
-0.0103674
0.012574
-0.00902074
-0.0142408
-0.0141474
0.00841187
0.00569296
-0.0240977
0.00411553
-0.0185319
0.00623611
-0.0164725
-0.0114057
0.00927729
0.00795027
0.0096291
-0.0340985
-0.0237492
0.00756652
0.0111829
0.00751863
-0.0100323
-0.0325071
-0.00916465
0.00777723
-0.00163469
3.92946e-05
0.00776651
-0.00658895
-0.0104447
0.0114873
-0.00763246
-0.0141535
0.0105539
0.0105282
-0.000841876
-0.00883839
0.0103274
-0.00148942
0.00793741
-0.00783298
0.00393812
0.0010629
0.00457038
-0.00370453
0.00593729
-0.00631894
0.0139806
-0.0121498
-0.00356312
0.0108185
-0.0170352
-0.00264794
0.00572374
-0.016974
-0.00102057
-0.00114827
0.00200763
-0.00821089
0.00830322
0.00969345
-0.00949049
0.0107509
0.0113475
-0.00495878
0.0113906
0.0119841
-0.00218253
0.0107497
0.00415942
-0.0108142
0.0111093
0.00288968
-0.00901545
0.0122531
-0.00215128
-0.00485186
0.0118276
-0.00472725
0.00979563
-0.0060454
0.00211332
0.00386433
0.00109735
0.00783593
0.00762851
-0.0016108
0.0108753
0.00885584
0.000270879
0.00762717
0.00639241
-0.00909225
0.0101536
-0.000219655
-0.00701413
0.00372607
0.00296321
0.000236308
0.00170056
-0.00141197
0.0050329
-0.00666439
-0.00150239
-0.00232216
0.0187726
-0.00341657
-0.0194927
0.016979
-0.00139139
-0.00182204
-0.0162826
-0.0118681
-0.000764083
0.00322034
-0.00868512
-0.0106382
-0.0130474
0.00646841
-0.0059502
-0.00495461
0.000853351
0.00135295
0.000382223
-0.00208921
-0.00424566
-0.000991427
0.00396236
-0.00259029
-0.00041683
0.00179715
-0.00237314
0.00129643
-0.00380466
0.00673495
0.000684564
-0.0110897
0.000647486
-0.00347735
0.0104036
-0.00346026
-0.00446455
-0.0189035
0.0138932
-0.0118032
-0.0193961
-0.0117591
0.00785242
0.00430707
-0.0265912
-0.0153614
0.00258269
0.00932309
0.0105397
-0.0355747
-0.0164417
0.013077
0.00183481
0.0104111
-0.0422884
-0.0146072
0.00984206
8.6531e-05
0.011289
-0.0436631
-0.0107726
0.0032439
-0.0015282
0.0103271
-0.0431621
-0.00615748
-0.00149425
-0.00183949
0.00888037
-0.0394855
-0.00333339
-0.00450264
0.00406531
-0.0347407
-0.00116616
-0.00711466
0.00648142
-0.00305343
-0.0321811
0.00136793
-0.00612046
0.00560469
-0.00351371
-0.0291373
0.00269064
0.00447441
-0.00400168
-0.00630998
-0.0289405
0.00210115
0.00395943
-0.00357684
-0.00279257
-0.02985
0.000239703
0.00179733
-0.00123459
-0.0277961
-0.00155715
0.00134539
-0.00195579
-0.0230108
-0.00259466
0.00152413
-0.00381109
-0.0302075
0.00168573
0.0226573
-0.0172219
-0.0593595
0.0293353
-0.0128686
0.012312
0.00608889
-0.0199423
-0.00127236
-0.0131683
-0.0252164
-0.00927057
-0.0122634
-0.000457054
-0.00877756
-0.0111699
0.000649412
0.000276987
-0.00944232
-0.000543033
0.000500326
-0.0058153
-0.0037322
0.00144787
-0.00311455
-0.00398092
0.00104177
-0.00453475
-0.00026635
-0.00445655
0.00080891
-0.000934354
-0.00684115
0.00205276
0.000268644
-0.0107833
0.00221156
0.00165099
-0.0130968
0.000820855
0.00141405
-0.0133657
-0.000349745
0.000548881
-0.0130765
-0.00174737
0.00140415
-0.0236497
0.00142552
0.00907289
-0.0568542
0.0175146
0.0154832
-0.101305
0.00886464
0.0350133
-0.117972
-0.0058669
0.02184
-0.127335
-0.0115882
0.020177
-0.133774
-0.0164888
0.0220928
-0.137438
-0.0221861
0.0249658
-0.138771
-0.0272668
0.0276889
-0.138694
-0.0307631
0.0297623
-0.137881
-0.0329238
0.0311849
-0.136422
-0.0341725
0.0317975
-0.134278
-0.0348138
0.0317683
-0.130444
-0.035315
0.0306092
-0.122478
0.0278214
-0.0366203
-0.103331
0.020785
-0.0406917
-0.0534896
0.00328922
-0.0537494
-0.0226268
-0.00124164
-0.0298401
-0.0123879
-0.00429065
-0.00602553
-0.0121099
0.00198837
-0.00232145
-0.0112098
0.00432681
-0.00529763
-0.00877307
0.00384065
-0.00635786
-0.00425723
0.00400634
-0.00860655
-0.00479128
0.00347206
-0.00300922
-0.00805923
-6.53017e-05
0.00328243
-0.00782132
0.00235419
-0.00266327
-0.00893061
0.00102147
-0.0138018
0.00698526
-0.00221261
-0.0166376
0.00715205
-0.00442627
-0.0189163
0.007648
-0.00547188
-0.0237754
0.00700646
-0.00225214
-0.0533295
0.0187413
0.0106163
-0.0979688
-0.00807587
0.0521414
-0.110974
-0.031673
0.0439575
-0.112438
-0.0418264
0.0424803
-0.107737
-0.0476686
0.0421449
-0.0989373
-0.0521344
0.0424776
-0.0862192
-0.0543473
0.0408046
-0.06921
-0.0558417
0.0380127
-0.0494182
-0.056811
0.0362532
-0.0237067
-0.0481169
0.0217687
-0.0376534
0.013508
-0.0534888
0.0231795
-0.00781126
-0.0592751
0.0253869
-0.0201033
-0.0593298
0.0267199
-0.0271914
-0.050306
0.0265074
-0.0360575
-0.0402264
0.0244229
-0.0350053
-0.0230546
0.0165856
-0.0342246
0.00939124
-0.0328845
0.0271972
0.0381024
-0.056545
0.0509647
0.0494872
-0.0740207
0.0748522
0.0495899
-0.0742971
0.0950614
0.049826
-0.0708597
0.110838
0.0470396
-0.0636726
0.119081
0.0397267
-0.0487918
0.117057
0.0329612
-0.0317476
0.101351
0.0300876
-0.0151019
0.0545542
0.0398923
0.00633084
0.0254968
0.02507
0.00379108
0.0213844
0.00418329
-0.000175522
0.0194712
0.000591577
0.00121898
0.0158914
0.000300052
0.00316988
0.00914671
-0.000247966
0.0068941
-0.000923101
0.00998204
-0.000964844
-0.00972432
0.00967031
0.000727333
-0.0131168
0.0113157
0.00257436
-0.0142481
0.0122779
0.00408417
-0.0135806
0.0119352
0.00433696
-0.0191786
0.0187479
0.00786803
-0.0286595
0.0248433
0.00384619
0.0236463
-0.0199081
-0.000177654
0.0169191
-0.0130744
-0.000377677
0.00844566
-0.0083813
-0.000537971
0.00775277
-0.00771568
-0.0010835
0.00737898
-0.00694244
0.00632016
-0.00647797
0.00342971
0.0054623
-0.000280202
0.00320269
0.00619949
0.00133446
0.0032962
0.00592387
0.00165766
0.00396257
0.00479023
0.00291084
0.0103217
0.0116235
-0.00116919
0.0194283
-0.00903015
-0.0001219
0.00908803
-0.00421836
0.0145179
-0.0230908
-0.0114329
0.0435419
-0.0155431
-0.00576165
-0.00186452
-0.000983609
0.00358881
0.00487166
-0.00945981
0.00605917
-0.00260301
0.00361233
-0.00178644
-0.00827786
0.000428748
-0.00919245
-0.0102629
-0.0126547
0.0184607
-0.00486112
-0.0307711
0.00323683
0.00367129
0.00406014
-0.0176017
-0.0497222
0.00588924
0.0101613
0.000831174
-0.0582143
-0.0156989
0.0262276
-0.00423971
-0.0204199
0.0061747
-0.00326048
-0.020307
0.00561466
-0.00227716
-0.0206667
0.00531068
-0.00090233
-0.0190455
0.00444131
-0.0150055
0.00403417
-0.0211493
0.00227113
0.00404791
-0.0219655
-0.00134443
0.00263796
-0.017906
8.59887e-05
0.00544513
0.00165394
-0.0466299
0.0354811
0.00831498
0.0080628
-0.115162
0.0350919
0.0515267
0.0209144
-0.125254
0.0473431
-0.008018
-0.126088
0.0548126
-0.0218843
-0.11824
0.0645628
-0.0335607
-0.103278
0.0732024
-0.0420063
-0.0841524
0.0769141
-0.0470818
-0.0615542
0.0746696
-0.0485171
-0.0366828
0.0743136
-0.0505117
0.0504278
-0.0329901
0.0588672
0.0458216
-0.0304455
0.0684519
0.0517268
-0.0354291
0.0687494
0.0528918
-0.0270944
0.0633368
0.0506251
-0.0204331
0.0439249
-0.00609301
-0.0881927
0.0718818
0.00261085
-0.0979925
0.0755105
-0.0159944
-0.0995028
0.0799595
-0.0264996
-0.0881786
0.0791793
-0.0397189
0.0718909
-0.0408429
0.0880027
0.0944864
-0.0368194
0.0976293
0.101684
-0.0330607
0.0944898
0.101109
-0.0189391
0.0819158
0.0960569
-0.00886338
0.0903512
0.00676543
-0.0812631
0.103454
0.0129446
-0.0944769
0.110546
-0.0021968
-0.0983735
0.11603
-0.0119856
-0.0904783
0.11692
-0.0240927
0.11147
-0.0314686
0.0870259
0.124337
-0.027627
0.0946865
0.128363
-0.02008
0.0912633
0.126496
-0.00801993
0.078335
0.120391
0.00214745
0.112139
0.0166339
-0.0724642
0.116718
0.0193399
-0.0844096
0.125494
0.00590473
-0.0867505
0.132096
-0.00423846
-0.0788364
0.134512
-0.015042
0.131456
-0.0223295
0.0682367
0.132153
-0.0150577
0.0761272
0.13488
-0.00923593
0.0750321
0.131269
0.000945417
0.064088
0.124844
0.0106575
0.115529
0.0225831
-0.0525938
0.105808
0.0297874
-0.0646404
0.116396
0.0195512
-0.0642028
0.119999
0.00986876
-0.0562661
0.125438
0.000542191
0.12634
-0.0040534
0.0351829
0.0191912
0.0614209
0.0446981
0.0514705
0.0947963
0.0134788
0.0547727
0.0925487
0.0232732
0.035746
0.0483237
0.0452535
0.0409067
0.04453
0.036536
0.0515207
-0.0123009
0.0268548
0.0153877
0.0143721
-0.0187351
0.0276781
0.0150907
-0.0152952
0.0311568
0.0135237
-0.0135448
0.0290759
0.0142182
-0.0400078
0.0275724
0.0408046
-0.000803071
0.0248906
-0.0284255
-0.00828453
0.0385427
0.00580891
-0.0370701
-0.00680701
0.0299941
0.00549053
-0.0371387
-0.00459579
0.0291127
-0.036591
0.00509717
0.0259027
0.00347624
0.00381815
0.00515617
0.00493373
0.00715965
0.00682036
0.00762138
0.00905411
0.00894363
0.00840461
-0.00416096
-0.0199723
0.0157012
0.00266909
-0.000606692
0.000596523
0.00625453
0.00290253
0.000299679
-0.000537151
0.000357065
0.00409443
-0.00155384
-0.00244137
-0.00132632
0.00412058
-0.00165379
-0.00049154
0.00117466
0.0106091
0.0121037
0.0316533
-0.0532803
0.00539144
0.0178256
-0.00425417
-0.00731148
0.0569065
0.00124591
-0.0150787
0.00285049
0.00351786
-0.00655853
0.005054
0.00399352
-0.00621174
-0.0222322
0.00972502
0.0175209
-0.00939974
-0.012558
-0.000318082
0.0179642
-0.00257442
0.0239396
-0.00791634
0.0463292
-0.0127343
0.0215379
0.0767164
-0.0246437
-0.0327801
0.00454295
0.00706311
0.029807
0.0020866
-0.0175782
0.00801412
0.0136805
-0.00405677
-0.0106671
0.00844884
0.0149882
-0.00405261
-0.0114769
0.00755474
0.0144682
-0.00237641
-0.0113042
0.00612108
0.0128231
-0.010456
-0.00103208
0.00367228
0.0105579
-0.00881816
0.000621735
0.0087567
-0.00792456
0.00275971
0.00846087
-0.00315329
0.00337841
0.00805967
-0.00280214
0.00314828
0.0152334
-0.00810058
0.000849648
0.0393728
-0.0159772
-0.00838105
0.0729988
-0.0389294
0.00468482
0.083098
-0.0276394
0.0167808
0.0846647
-0.0234944
0.0210938
0.082114
-0.0202478
0.021926
0.07693
-0.0158454
0.0201266
0.0700376
-0.00877686
0.0147509
0.0607173
0.00159671
0.0067955
0.0422391
0.0172907
0.000259712
0.0151574
0.0411995
-0.0150358
-0.0050624
0.0551328
-0.0358153
-0.00165225
0.0503181
-0.0546002
0.0122316
0.0392454
-0.0539623
0.0153597
0.0263948
-0.0302813
0.0094415
0.0286617
-0.0233608
0.0020208
0.0112105
-0.00400811
0.000316748
0.00374348
-0.00211639
-0.000526216
0.0017377
-0.000949321
-0.00215443
0.00323058
-0.00167189
0.00312792
-0.00227977
0.00329142
0.0051862
-0.00148819
0.00034792
0.00654154
-0.000442883
0.00223356
-0.000169502
0.00653005
-0.000581664
0.00184161
0.00588673
-0.0039002
0.00258913
0.00579564
0.0061336
0.000951653
0.011812
0.0169974
-0.0110747
0.0157426
-0.0107274
0.0237091
0.0243198
-0.0304738
0.043436
0.0146367
-0.0449727
0.0504814
0.0134005
-0.0632866
0.0461107
0.0263837
-0.0790085
0.0291302
0.0268261
-0.0899699
0.00743717
0.0198424
-0.0954295
-0.00873005
0.0148134
-0.0987949
-0.0209111
0.0145334
-0.100981
-0.0294445
0.0148317
-0.101163
-0.0351707
0.0141674
-0.0977793
-0.0395121
0.0117126
-0.0888954
-0.0439043
0.00647259
-0.0319878
-0.0406687
-0.044739
-0.0114125
-0.0184777
-0.0104207
-0.0192384
0.00260696
-0.0154174
-0.00709865
0.00131813
-0.00578222
0.000259721
-0.00946311
0.000857009
-0.00379108
0.00165612
-0.00747551
0.000985743
-0.0088022
0.0158698
-0.000180952
-0.00794623
0.0158738
-0.00184182
-0.00613898
0.0139567
-0.00216497
-0.00199428
0.019837
0.00568413
0.0204335
0.107203
-0.0444371
-0.00960428
0.00400056
0.0307131
0.00545155
0.00761529
0.0105378
-0.000247873
0.00842643
0.0143163
0.000667644
0.0151795
0.00192792
-0.0162429
-0.0198116
-0.0126608
0.0309053
-0.0203031
0.0463805
-0.0178946
-0.0510394
0.107138
-0.024659
-0.052056
0.122096
-0.015041
-0.104608
-0.0443246
0.125901
-0.0301889
-0.0753753
-0.0285672
-0.0173551
-0.0288744
-0.0142598
-0.00279578
-0.0403779
0.0170374
-0.00205417
-0.0241692
-0.00526029
0.02801
-0.00539658
-0.00853124
0.0163977
-0.00781299
-0.00928305
0.0145345
-0.00615886
-0.00943842
-0.0118408
-0.00269705
0.0502345
-0.0212663
-0.0125953
-0.00607357
0.000617124
-0.0119378
-0.00844489
-0.000107096
-0.00875302
-0.00710419
-0.00156958
-0.00498973
-0.00434129
-0.00157587
-0.000132107
-0.000736722
-0.00372885
-0.000458324
-0.00988731
-3.37988e-06
0.000441367
0.00127831
-0.00169269
0.00137814
-0.0020582
0.00335185
0.00175404
-0.0026338
0.00438024
0.00206239
-0.00196776
0.00372458
0.0017557
0.00267687
0.000706211
0.00449166
0.00264358
-0.00105523
0.00468294
0.00385628
-0.000398755
0.00453512
0.00493186
-0.000484846
0.00482923
-0.000744563
-0.00633235
0.0108875
-0.00417769
-0.00617403
0.0109127
-0.00625079
-0.00531651
0.0100668
-0.00717352
0.00902243
-0.00778024
0.00655599
0.0118843
-0.00566458
0.00797508
0.0136154
-0.0050664
0.00815293
0.0151384
-0.00451012
0.0149435
-0.00311385
-0.009168
0.0168866
-0.00132026
-0.00929793
0.0178929
-0.00273068
-0.00964853
0.01779
-0.00392842
0.0104919
-0.0040058
0.0128739
-0.00041541
0.0102286
-0.00167422
0.00748199
0.0233175
-0.00289419
0.00733105
0.0183285
-0.000374779
0.0173211
0.000744253
-0.00880428
0.0485234
-0.0252272
-0.00517341
0.0422242
-0.0276712
0.04505
-0.0283194
0.0293076
0.117824
-0.0575518
0.127695
-0.0450609
0.0506959
0.135144
-0.0386119
-0.0205797
0.0553339
0.135087
-0.01494
0.0519656
0.130348
-0.00599918
0.115524
-0.0013703
-0.050175
0.119998
0.00516803
-0.0558854
0.13533
-0.000354904
-0.0534242
0.141017
-0.00947442
-0.0447897
-0.0146062
0.140095
-0.128389
-0.0232934
0.133793
-0.0293
-0.0128352
-0.0511348
-0.11455
0.0286252
0.119532
-0.106198
-0.0667696
0.118525
-0.0384526
-0.0495934
-0.0680707
-0.00481755
0.01386
-0.0135209
-0.0193595
-0.0195863
-0.00999785
-0.00603458
-0.0131387
-0.00290799
-0.0140305
-0.00405933
0.00257508
-0.0144045
-0.00817317
0.00316922
-0.0127624
-0.0106117
0.00252515
-0.0098137
-0.0145018
0.00285619
-0.0107427
0.00113979
-0.013787
0.0160719
-0.0137336
0.000609806
-0.00948397
-8.10816e-05
-0.0153528
0.0144872
-0.00158038
-0.016757
0.0116616
-0.00271375
-0.0180408
0.00966517
-0.00145895
0.0149554
-0.025468
0.0110893
0.0252205
0.0187227
0.0207336
-0.0498578
0.018864
0.0161686
0.0178275
-0.0277712
0.0305838
0.0160505
0.0191699
-0.0470759
0.0213743
0.0134241
-0.0227358
0.0183927
0.0392874
-0.0422102
0.00893079
0.0152657
0.0201014
0.0463801
-0.0101185
-0.017177
0.0253819
0.0301495
-0.020263
-0.0152954
-0.0172445
-0.0206246
0.00991015
-0.018276
0.00381822
-0.0127793
-0.0179635
0.00437314
-0.0172517
-0.012287
0.00330462
-0.0161403
-0.0141012
0.00227952
-0.0167736
0.00209645
-0.0176759
-0.0170544
0.0174674
0.000372723
-0.0162676
-0.000772817
-0.018376
0.0156489
-0.00199106
0.0130138
-0.00309183
0.0175507
0.0143353
-0.00279074
0.0174441
-0.00140758
0.0164772
0.0182559
-0.0170286
-0.000365586
0.0184045
0.00133175
-0.0151173
0.00285834
-0.0154819
0.00100927
0.0175149
-0.0154193
-0.00120271
0.0144879
-0.00214703
-0.00753086
-0.0160308
0.0236052
0.0168593
-0.00150878
-0.0143959
-0.0171598
-0.0262219
-0.0242844
-0.00258623
-0.105276
0.103932
0.00754898
0.00121051
0.0182439
0.0127087
0.0239181
0.0146953
-0.0202702
0.0176477
-0.00846506
0.0179654
-0.0122485
-0.00477469
0.00235932
-0.000511894
-0.00555228
0.00485012
-0.00582598
-0.00170882
-0.00210761
-0.00217533
-0.00379269
0.0131647
-0.000991152
-0.00316263
-0.00140383
-0.00338399
0.0163864
-0.0200803
-0.0115693
0.0154793
0.00689028
-0.0116109
0.0176119
0.00912252
-0.0132776
0.0202321
0.00894276
-0.0142152
0.0229912
0.0089266
0.0302235
0.0120094
0.00990204
0.0135062
0.0125142
0.0094972
0.0132898
0.00992699
0.00785884
0.0119364
0.00976326
0.0060821
0.0108101
0.00842451
0.0100034
0.00700687
-0.00221236
0.00342844
-0.00262708
0.00416983
-0.00329717
0.00476613
-0.00393329
0.00541197
0.00652202
0.00166324
0.00290797
0.00142856
0.000512415
0.000411059
0.00139651
-0.000146786
0.00198942
-0.00155041
-3.09071e-05
-0.000931981
0.00195511
0.000962857
-0.000328764
0.000790495
-0.000431435
0.00183026
-0.00111748
0.00121657
-0.000533634
0.000312243
-3.62864e-06
0.00202737
-0.00174883
3.04084e-05
0.00379698
-0.000557458
-0.00359882
0.0111673
-0.00639708
0.0035896
-0.0180496
0.0033559
0.0170831
0.00389855
-0.0181538
0.0204573
0.00715644
0.00294363
0.00677555
-0.017086
0.020871
0.000293463
0.00596423
0.0198164
-0.0148525
-0.0136302
0.0142031
0.00503381
0.0109922
-0.00739419
0.0171997
-0.00766352
0.0172926
0.0109116
-0.000414024
0.020001
0.00718196
0.00333806
-0.00115366
0.00152975
-0.00352313
0.000372651
-0.00229366
0.0126124
0.00135515
-0.00233876
0.000786315
0.000620141
-0.00077778
0.00151095
-0.000568383
0.00155948
-0.000393307
-0.00124248
0.00106613
-0.00207086
0.000898294
-0.000210972
-0.000224581
-0.0016368
-0.000454466
-0.00209726
0.000247806
-0.00185792
0.00140399
-0.00138217
0.000391041
0.000112147
-0.00188662
0.000171133
-0.00141831
-0.000659961
-0.0012681
-0.00240759
0.00114993
0.00124009
0.000226336
0.000471533
-0.00130034
0.000447879
-0.00168356
-0.000479949
0.000537593
0.000388719
0.000109952
6.79318e-05
-0.000659185
0.00104448
0.000303833
0.000311932
-0.00089346
-0.0016135
0.00281549
-0.000776092
0.0002687
0.000180441
-0.00089101
-0.00113217
0.00380617
0.00137592
-0.000362082
-0.0030346
0.0122931
-0.00265218
-0.00129658
-0.00174978
7.68574e-06
-0.000830969
0.000257508
-0.000726051
0.000330548
-4.26739e-05
-0.00112121
-4.64313e-05
0.00188426
-0.000308066
-0.00162594
-0.00132483
0.00321245
-0.000895524
-0.000174937
-0.0012488
0.00111799
0.00204513
0.000343956
0.000324934
0.000922257
-0.000131773
0.0019172
-0.00142156
-0.000174059
-0.00137264
0.00320453
8.0942e-05
-0.000649872
0.000196316
0.00286545
-0.00405904
0.0133248
-0.00111819
-0.0180661
0.000731079
0.00705564
0.0245801
-0.0164934
0.0219318
0.00640645
-0.0177805
0.0226157
-0.00211025
-0.0149085
-0.004399
-0.0206969
-0.0218751
-0.00632468
-0.0219063
-0.00574017
0.0151734
-0.0026201
0.0198044
0.0318074
0.037473
-0.0236209
-0.101167
0.0666424
-0.0967752
0.0701037
-0.107862
0.0713153
-0.0171158
-0.110106
0.0687252
-0.0248766
-0.106639
0.067469
-0.0296811
-0.0981422
0.0662938
-0.0332146
-0.0860231
0.0636111
-0.0358197
-0.0685714
0.0576308
-0.0379534
-0.0487362
0.0531887
-0.0376709
-0.0385867
0.0425756
-0.0317037
0.00450022
-0.0299902
0.0171812
0.0321601
-0.0455085
0.0147684
0.0448186
-0.0430733
-0.00707264
0.0479101
-0.0264804
-0.0342053
0.0266939
-0.0509862
-0.0129408
0.0292546
-0.0597366
-0.0245076
0.0327551
-0.0621225
-0.0309991
0.0328588
-0.0557626
-0.0381894
0.0313032
-0.0477533
-0.0352637
0.0267517
-0.0303495
-0.0335567
0.0156857
0.00323673
-0.034025
0.0201319
0.0445464
-0.0620784
0.0429026
0.0555666
-0.0791034
0.0681503
0.0548398
-0.0809074
0.0881364
0.0523907
-0.0732014
0.0991674
0.0478006
-0.0596882
0.0999115
0.0401362
-0.0417025
0.0939058
0.034268
-0.0290729
0.0819001
0.031083
-0.0197975
0.0463275
0.0378275
-0.00282841
0.0223507
0.0228373
0.000943025
0.0192387
0.00393376
-0.000926518
0.0178822
0.000527844
0.00072584
0.0147118
0.000153933
0.0029062
0.00846746
1.77585e-05
0.00612762
0.00902922
-0.000649378
0.00709649
0.00353286
-0.00167076
0.004493
0.00387756
-0.00132118
0.00470463
0.00174404
-0.00201849
0.00565124
0.00195008
-0.00297553
0.00534346
0.00312491
-0.00289495
0.00420652
0.00338395
-0.00231656
0.00320874
0.00271712
-0.00177394
0.0052621
0.00166424
-0.00379462
0.010222
0.00240281
-0.0075812
-0.0237558
0.0330213
0.000338587
-0.0506917
0.0236613
0.00251544
-0.0635275
0.0117456
0.000256397
-0.0671415
0.000973175
0.00176791
-0.0691652
-0.0129848
0.014104
-0.0733036
-0.0282442
0.0314606
-0.0743363
-0.0436202
0.0437159
-0.0716778
-0.0576338
0.0540303
-0.0618201
-0.070315
0.0595053
-0.0442569
-0.0804072
0.0618869
-0.0169803
-0.0869215
0.0586817
0.0167542
-0.0829081
0.0482128
0.0321844
-0.0574171
0.0410256
0.031344
-0.0442785
0.0441965
0.0237458
-0.0347821
0.0414769
0.00977281
-0.0258934
0.0390392
-0.000715588
-0.0231164
0.032803
-0.0349737
0.0335088
-0.0504168
-0.0196958
0.034341
-0.0575395
-0.0344696
0.0407816
-0.0579916
-0.0492779
0.0488554
-0.0494807
-0.064307
0.054921
-0.0256451
-0.0818237
0.0570893
0.00439964
-0.0833536
0.0524329
0.00990194
-0.0475908
0.0412232
-0.00741184
-0.0268421
0.0433461
-0.0206924
-0.0285116
0.0410064
-0.00462886
-0.0602525
0.0434508
-0.052094
0.0430043
-0.0149422
-0.0688607
0.00179151
0.0183168
-0.0550061
-0.0393902
0.0283714
-0.0397487
0.000307165
0.0322086
-0.0483507
0.0167772
0.0306875
-0.0783217
0.0313279
0.041271
-0.126837
0.0319608
0.054443
-0.123625
0.0276838
0.0569942
-0.0964208
0.0286314
0.0519138
-0.0729334
0.0278303
0.0413789
-0.052024
0.0272293
-0.0304326
0.0281767
-0.0371669
-0.0468553
0.0268252
-0.0392075
-0.0562376
0.0225669
-0.03348
-0.0672452
0.0162688
-0.00497351
-0.0826184
-0.00430319
0.03541
-0.117983
-0.00631382
0.0605792
-0.124437
0.0113404
0.0751235
-0.117934
0.0219809
0.0817273
-0.103224
0.0253094
0.0807981
-0.084254
0.0265595
0.0768541
-0.0632275
0.0225689
0.0700292
-0.0412935
0.0189025
0.0659584
-0.0195831
0.00971094
0.060685
0.000641292
0.00466379
0.0485729
0.0160578
0.00687336
0.0250143
0.0327234
0.0135803
-0.00791412
0.00260274
0.046047
0.0163142
0.00842147
-0.00300487
-0.00888995
-0.00459464
0.0152754
-0.00214219
-0.00224547
0.0107589
-0.00169945
0.00573292
0.000354736
0.0151344
-0.000207479
-0.00740237
0.00313306
-0.00659321
0.0269166
0.00339751
-0.00868715
-0.00766438
-0.000701274
0.00151533
-0.00793941
-0.00296749
0.00146791
-0.00657966
-0.00421923
0.000634965
-0.00491386
-0.00512745
0.000375352
0.0020019
-0.003735
-0.000517885
0.0046447
-0.00100185
-0.00189468
-0.000322521
-0.000348078
-0.00122801
-0.000718782
-0.000607631
-0.00057301
-0.000556861
0.000408523
-0.00107977
-0.00331653
0.013051
-0.00545543
-0.0117859
0.0029977
0.0227565
-0.00766262
-0.0097956
0.0654868
-0.031294
-0.0291762
0.0170961
0.064031
-0.0248264
0.0278898
0.0499178
-0.0197031