/*--------------------------------*- C++ -*----------------------------------*\
| =========                 |                                                 |
| \\      /  F ield         | OpenFOAM: The Open Source CFD Toolbox           |
|  \\    /   O peration     | Version:  v2012                                 |
|   \\  /    A nd           | Website:  www.openfoam.com                      |
|    \\/     M anipulation  |                                                 |
\*---------------------------------------------------------------------------*/
FoamFile
{
    version     2.0;
    format      ascii;
    class       surfaceScalarField;
    location    "285";
    object      phi;
}
// * * * * * * * * * * * * * * * * * * * * * * * * * * * * * * * * * * * * * //

dimensions      [1 0 -1 0 0 0 0];
oriented        oriented;


internalField   nonuniform List<scalar> 
63799
(
0.00326591
-0.00546235
0.00429949
-0.00835493
-0.00580229
0.00882377
-0.00502152
-0.0084144
0.0104919
0.00612301
0.00621797
-0.00779319
-0.00352558
0.00379446
0.00325612
-0.000895748
0.00430936
0.00173052
-0.00229278
0.00547792
0.00294235
-0.00418181
0.00149281
0.00389725
0.00294317
-0.00642297
0.00487359
0.00447305
-0.00591068
0.00427062
0.00535503
-0.00449148
0.00350698
0.006429
-0.00307109
0.00189293
0.0122028
-0.0051541
-0.000812882
0.0141798
-0.0116205
0.00908722
0.01521
-0.0132415
0.0115178
0.0183967
-0.0124043
0.00844194
0.0181656
-0.00985372
0.00930382
0.0130862
-0.00760416
0.0118728
-0.00405715
-0.00721199
0.0235789
-0.0194903
-0.0159538
0.0306248
-0.0172035
-0.0299593
0.0269804
-0.006676
-0.0334947
0.0224147
-0.0146333
0.00760065
-0.0486757
0.0313811
0.0023206
-0.0540576
-0.0221325
0.0269629
-0.0628949
-0.0123514
0.0206367
-0.0442792
-0.0333685
0.0144103
-0.0556965
0.0110588
-0.0894008
0.0072056
0.0259426
-0.109283
0.0145704
0.00461431
-0.122924
0.00832515
0.00454534
-0.129043
0.00280201
0.00251497
-0.130541
-0.00114803
0.00179298
-0.129182
-0.00495168
0.00273537
-0.12557
-0.00970683
0.00521867
-0.118713
-0.0164877
0.00877696
-0.105716
-0.0268728
0.0130207
-0.083646
-0.0393159
0.0164504
-0.0512091
-0.0508609
0.0176356
-0.0617901
0.00983363
-0.103204
0.0033208
0.0372909
-0.131667
-0.000609712
0.0282426
-0.150015
-0.00290268
0.0203425
-0.158569
-0.00463016
0.0122568
-0.158269
-0.00735589
0.00608944
-0.149807
-0.0111847
0.00175751
-0.132797
-0.0159973
-0.0019815
-0.106899
-0.0210143
-0.00584555
-0.0703092
-0.0253919
-0.0121546
-0.0413734
-0.0180031
-0.0118823
0.0153308
-0.0145667
-0.043079
0.0818808
-0.0182029
-0.0492736
0.119368
-0.00363758
-0.0347587
0.141627
0.00312661
-0.0262628
0.151176
0.00842143
-0.0188085
0.140853
0.0161563
-0.00659578
0.0817111
0.0368044
0.0217157
0.0343768
0.0174856
0.0296287
0.0193182
0.0114451
0.00353586
0.0198485
0.000757062
-0.00134279
0.019668
-0.00104481
0.00115427
0.0167288
0.000215394
0.00264289
0.0109762
0.00091046
0.00475744
0.0064181
0.000782591
0.00370392
0.00557871
0.000408478
0.00037986
-0.00254371
0.00629324
0.00175771
-0.000673658
-0.00195822
0.00658727
0.000109021
-0.00746897
0.0125158
0.00252754
-0.00856645
0.0176584
0.0021378
-0.00738345
0.0240389
-0.00087913
-0.00560647
0.0573397
-0.0171406
-0.0163573
0.111888
-0.0114969
-0.0436254
0.134204
0.00286658
-0.0259026
0.143537
0.00447939
-0.0146186
0.145905
0.00404085
-0.0072219
0.143196
0.00427906
-0.0024085
0.135443
0.00514561
0.0018103
0.120182
0.00685166
0.00763114
0.0983444
0.00613561
0.0149968
0.0613805
0.00748758
0.0289158
0.0500351
0.0109854
0.0801575
0.014176
-0.0446412
0.0758707
0.00891533
-0.00518021
0.0518878
0.0162959
0.00713522
-0.00140495
0.0533386
-0.000388764
-0.00597915
0.00421432
0.0111376
0.0174499
-0.0351271
0.0108086
0.0283678
-0.0287438
0.00180238
0.0319698
-0.0237412
0.0016203
0.0309661
-0.0315806
0.0147633
0.0343761
-0.0483577
0.0299436
0.0397722
-0.0557647
0.0429572
0.0423042
-0.0561237
0.045748
0.0437751
-0.0472848
0.0247675
0.0467763
-0.0263697
0.0126274
0.0210703
-0.00912704
0.0122892
0.00611262
-0.0058795
0.0122064
0.00565791
-0.00567808
0.0109144
0.00631275
-0.00513102
0.00710913
0.00539161
-0.00168528
0.00196242
0.00505859
0.00307925
0.00347629
-0.00466455
0.00270044
0.00277297
-0.00244517
0.00182423
0.00411729
-0.00331257
0.00261192
0.00469522
-0.00556757
0.00216839
0.00430933
-0.00394657
0.00181364
0.00397116
-0.00368742
0.00211537
0.00198824
-0.00234528
0.00328485
0.00186631
-0.00311335
-0.00185766
0.0105725
-0.00564972
-0.0123263
0.0343357
-0.024488
-0.0120342
0.0328437
-0.033898
-0.0123505
0.0346812
-0.0352019
-0.0143874
0.0371942
-0.036033
-0.0132832
0.0365403
-0.0385507
-0.0110074
0.0369177
-0.0401154
-0.0069771
0.0374262
-0.0423882
0.00180236
0.0430389
-0.0527503
0.00633637
0.0486206
-0.0540769
0.00492945
0.0516039
-0.0511037
0.00332058
0.0525798
-0.051847
0.00899864
0.048398
-0.0549133
0.0190618
0.0457335
-0.0565591
0.0164736
0.0479467
-0.0459792
0.0055053
0.0186872
-0.00793839
0.00370607
0.00645949
-0.00473765
0.00555763
0.00257779
-0.00448424
0.00732026
0.00394076
-0.00577332
0.00453952
-0.00509068
-0.00808265
0.00949217
-0.00536997
-0.00561772
0.00763749
-0.00623754
-0.00118541
-0.0018762
0.00736698
-0.00212171
-0.00589447
0.0121812
0.00697202
-0.00600522
-0.00541489
0.0162444
0.00179101
-0.000635369
0.0747869
0.0148898
-0.0474958
0.0175384
0.0713452
-0.0446966
0.0260226
0.0711387
-0.0321492
0.022514
0.0736139
-0.0184655
0.0151362
0.0697113
-0.0116863
0.0105125
0.0634719
-0.0111965
0.0102849
0.0533103
-0.0110195
0.00732707
0.041387
-0.00197837
0.00253958
0.0406917
4.50871e-05
-0.00468294
0.0441244
-0.00131772
-0.014129
0.0477444
-0.00204354
-0.0172089
0.0450752
-0.00823803
-0.0153306
0.0467088
-0.0166544
-0.00981251
0.0527732
-0.00497123
-0.0199709
-0.00600299
0.0106671
-0.00407659
-0.00753943
0.00901761
-0.00515691
-0.00243796
-0.00454724
-0.00115488
-0.00167633
-0.000904488
-0.00266173
0.00860667
-0.00372691
-0.00305354
0.0085982
-0.00398473
-0.00173799
0.00890388
-0.00561576
-0.0026346
0.00695316
-0.00200843
-0.00264434
0.00474752
-0.00201114
-0.00219378
0.00649178
-0.0035288
0.0101611
-0.0073924
0.0147624
-0.00777308
0.00306236
0.0191001
-0.00789042
0.00342913
0.0238952
-0.0083238
0.00339272
0.0341188
-0.0124547
0.0020525
0.0462868
-0.0190029
0.00654892
0.0342604
-0.000126604
0.0118684
0.0248825
-0.000844199
0.0100424
0.0208934
-0.00190788
0.00576088
0.0172744
-0.00102669
0.00452211
0.013043
0.000335013
0.00378699
0.00772138
0.00183262
0.00339295
0.0036143
0.00401897
0.00287201
0.00616239
-0.00549151
0.00277668
0.00394152
-0.00389718
0.00558902
0.00168025
-0.00456406
0.00753195
0.00237873
-0.00440629
0.00873201
0.00288482
-0.00416559
0.00852875
0.00337884
-0.00324652
0.00814217
0.00301217
-0.00268083
0.0150892
0.00094341
-0.00796788
0.0391739
-0.006751
-0.017553
0.0691177
0.0131196
-0.0436804
0.0766024
0.0246281
-0.0328685
0.0746603
0.0291536
-0.0280382
0.0665971
0.030829
-0.0236217
0.0532184
0.0304255
-0.0179151
0.0258667
0.0284898
-0.00199998
-0.0151026
0.0254465
0.014666
-0.0398353
0.032013
-0.00813741
-0.0497795
0.0370644
-0.0279822
-0.0555095
0.0392722
-0.0344093
-0.0569599
0.0387055
-0.0381076
-0.0527505
0.036097
-0.0411278
-0.0421028
0.0324785
-0.043877
-0.0208398
0.0265582
-0.0484364
-0.00718543
0.00277607
-0.0166495
-0.00347724
0.00279367
-0.0065794
-0.00403971
0.00359968
-0.00309252
-0.00374923
0.00472188
-0.00508309
-0.00222532
0.00444226
-0.00604539
-0.000534291
0.00435902
-0.00613018
0.000614911
0.0019073
-0.0031201
0.000630841
0.00275067
-0.0028143
-0.000631221
0.00539542
-0.00420382
0.00560497
-0.00632287
0.0095489
0.00212044
-0.00616361
0.0122014
0.00385297
-0.00661333
0.0145009
0.00373484
-0.0061408
0.0162025
0.00398172
-0.00578645
0.0172534
0.00420528
-0.00535651
0.016982
0.00454304
-0.00436567
0.0119444
0.00626431
-0.00130386
0.00553978
-0.000126687
0.00650112
0.00539228
-0.000773333
0.000907337
0.00645222
-0.000854527
-0.000220075
0.00748139
-0.000932789
-0.000111907
0.00831371
-0.000655462
-0.000192598
0.00881985
-2.78855e-05
-0.000493697
0.00891472
0.000615933
-0.000726229
0.00873136
0.00106365
-0.000895645
0.0084066
0.00126313
-0.000953741
0.00805858
0.00128576
-0.000953159
0.00771326
0.00122849
-0.000898635
0.00738224
0.00115232
-0.000836823
0.0070367
0.00109011
-0.000760028
0.00668577
0.00104664
-0.000711307
0.00615467
0.000962891
-0.00044699
0.00542644
0.000736407
-2.23877e-05
0.00579389
0.000610408
-0.000990651
0.0123601
-0.000822667
-0.00577175
0.0175282
-0.00318908
-0.00204778
0.0183812
-0.000897968
-3.74296e-05
0.0177448
-0.000195352
0.000749352
0.015606
0.000384872
0.00167115
0.00957263
0.0021304
0.0038339
0.00390463
0.00388912
0.00175078
0.00322162
0.000282771
0.000387611
0.00299941
-0.000330444
0.000539003
0.00234699
4.92118e-05
0.000589656
0.000994529
0.000416587
0.000924727
0.000363151
0.000428908
0.00019701
0.000144677
0.000215367
9.46071e-05
0.000126683
-7.8309e-05
7.43502e-05
6.32459e-05
-4.37063e-05
0.000125074
2.49213e-05
-7.62926e-05
0.000212148
2.93796e-05
-0.000117359
0.000326119
3.58767e-05
-0.000151029
0.000543415
4.67747e-05
-0.000265337
0.000501628
-1.11403e-05
5.18958e-05
0.000739658
-0.000358658
0.000119866
0.00122005
-0.000734614
0.000253034
0.00188385
-0.000934877
0.000269845
0.00254222
-0.00104578
0.000386145
0.00298483
-0.000958582
0.000514727
0.00309146
-0.000754917
0.000647027
0.00301712
-0.000631397
0.000704481
0.00260556
-0.000287814
0.000698127
0.00167051
0.000234141
0.00069966
0.00014763
0.000796612
0.000725036
-0.00144456
0.001391
0.000200008
-0.00223419
0.000626634
0.000162237
-0.0021598
1.42183e-05
-8.96298e-05
-0.00134014
-0.000796678
-2.42379e-05
-0.000813293
-0.00054824
2.02193e-05
-0.000445262
-0.000404786
3.58575e-05
-0.000249364
-0.000262563
6.6024e-05
-0.000304096
-0.000147358
0.00020138
-0.000470309
-0.000128819
0.000293359
0.00036531
-0.000838683
0.000244389
-0.000612988
0.000730372
2.64879e-05
-0.000399556
0.00061435
-0.000281712
-0.000241734
0.000546817
-0.00055379
-0.000258479
0.00052757
-0.000719763
-0.000348623
0.000511606
-0.000861773
-0.000344296
0.000483418
-0.000879296
-0.000460582
0.000475272
-0.000923929
-0.000412184
0.000454049
-0.000875392
-0.000506935
0.00045568
-0.000879169
-0.000441438
0.000442518
-0.000807885
-0.000521251
0.000447332
-0.000797673
-0.000443961
0.00043109
-0.000719888
-0.000504064
0.000423748
-0.000700303
-0.000409655
0.000387465
-0.000614406
-0.000459576
0.000371331
-0.00052981
-0.000421245
0.000334135
-0.000546684
-0.000489832
0.000504335
-0.00130609
-0.000300071
0.00105423
-0.00147476
-0.00058594
0.000748113
-0.00266406
-0.00035336
0.00152995
-0.00481914
-0.00410027
0.00621986
-0.0107275
-0.0174559
0.0232392
-0.0157312
-0.0220109
0.0268441
-0.0174586
-0.0349642
0.0363765
-0.0152588
-0.046129
0.0435864
-0.0504806
0.0459076
0.0156414
-0.0811964
0.021752
0.0247739
-0.0819971
0.0261737
0.0217464
-0.0748421
0.00548612
0.0367525
0.0125889
-0.0232936
0.0102815
0.00490348
-0.0249171
0.0123415
0.00262748
0.00240909
0.00325304
-0.00488674
0.00280554
0.00166422
-0.00369171
0.0016121
0.0019316
0.000515784
0.00107888
0.000263834
0.000736953
-4.10974e-05
0.000381093
0.000348332
8.73136e-05
-0.00017477
3.24619e-05
-0.00115774
0.000819265
0.000162095
-0.00170195
0.000500875
0.00219346
-0.00403136
0.00178583
0.00096348
0.00135365
-0.00436734
0.00207659
0.00215007
0.000817083
0.000540461
0.00115164
0.000555635
0.000968621
-0.000803296
0.000572834
0.00135204
-0.00145443
0.000563163
0.00108502
-0.000777789
0.00059704
0.00145208
-0.00147279
0.000580653
0.00112551
-0.000735593
0.000616875
0.00145061
-0.00144145
0.000605519
0.0010623
-0.000685793
0.000657982
0.00126394
-0.00133257
0.000666347
0.00081616
-0.000635801
0.000735236
0.000800591
-0.00110182
0.000764666
0.000443216
-0.00074702
0.000841791
0.000352665
-0.00102105
0.00086574
9.63172e-05
-0.00106928
0.000921866
-0.000241296
-0.0012497
0.000969584
-0.00201264
0.000927315
-0.00435112
0.000586512
0.00174123
-0.0051735
-0.000182539
0.00099228
-0.00518629
-0.000235774
0.000235744
-0.00591352
-0.000271331
0.000987816
-0.0136481
0.00088707
0.00682275
-0.0203665
0.00588394
0.000782707
-0.0245238
0.0023532
0.00174263
-0.0475112
0.0066334
0.0162588
-0.0492463
0.0043823
-0.00285161
-0.0274239
-0.00404395
-0.0178723
-0.0243882
-0.00139831
-0.00169734
-0.0185078
-0.00494533
-0.000985665
-0.00852622
-0.00124814
-0.00875802
-0.00794448
0.000381177
-0.000973709
-0.00904477
0.000208944
0.000878258
-0.00943958
8.51151e-05
0.000296218
-0.00900815
-0.000551988
0.000107041
-0.00872624
-0.000483631
0.000189045
-0.00862932
-0.000333813
0.000224105
-0.00882956
-0.000124324
0.000311315
-0.00938942
7.21907e-05
0.00047323
-0.0096947
-0.000359912
0.000649891
-0.00958041
-0.000906896
0.000776812
-0.00910922
-0.00137443
0.000887369
-0.00841004
-0.00168276
0.000967826
-0.00777866
-0.00164083
0.000993626
-0.00702213
-0.00153612
0.000764216
-0.00604884
-0.00130771
0.000319705
-0.00617002
-0.00119998
0.00130784
-0.0134468
-0.000694726
0.00794046
-0.0184396
0.00810677
-0.00318973
-0.0208231
0.00540345
-0.00310709
-0.0418777
0.0127304
0.0081522
-0.05433
0.0250192
-0.0130148
-0.0357189
0.00930735
-0.0284723
-0.0331818
-0.00310636
-0.0513863
-0.0254684
0.0429907
-0.0592452
-0.0391012
0.046204
-0.0571955
-0.0501915
0.0473189
-0.0453365
-0.0578751
0.0451794
-0.0278577
-0.061321
0.0430365
-0.0624515
0.0436364
0.0193924
-0.104273
0.024927
0.0383536
-0.103333
0.0221923
0.0521183
-0.0969044
0.0243766
0.0547469
-0.083806
0.0301058
0.0461126
-0.0653792
0.0340855
0.0261635
-0.0430222
0.0367543
-0.0144092
0.0367894
-0.0290733
-0.0292107
0.043115
-0.0401703
-0.0373909
0.0476153
-0.0455475
-0.0459353
0.0504035
-0.0439415
-0.0551749
0.052616
-0.0365577
-0.0630123
0.0546768
-0.0244654
-0.0696844
0.0566461
-0.00662833
-0.0745755
0.055817
0.0111172
-0.0718416
0.0532025
0.0100239
-0.0547155
0.0549367
0.00457327
-0.0577993
0.0623851
0.00972293
-0.0687874
0.062772
0.0182655
-0.0708779
0.0614648
0.0277388
-0.0678227
0.0574924
0.0347044
-0.0613841
0.0535912
0.0346996
-0.0514101
0.0506587
0.0147735
-0.0343735
0.0536827
0.0061472
-0.0106388
0.0190461
0.00327022
-0.00119751
0.00399721
0.00276196
-0.0030091
0.00346253
0.001572
-0.00417337
0.0052935
0.000102516
-0.00386885
0.00526022
-0.00100174
-0.00466153
0.00568659
0.000538533
-0.00405643
0.00245308
0.00140658
-0.00460316
0.0036878
-0.00119316
-0.00520751
0.0077363
0.00838115
-0.00966233
0.013918
-0.00963809
0.00400188
0.0170141
-0.00994428
0.0067375
0.0191679
-0.00819908
0.00594225
0.0224967
-0.00883526
0.00540176
0.0507315
-0.0306737
0.00224403
0.107524
-0.000846971
-0.0565076
0.133241
0.0162329
-0.0426407
0.145936
0.0235974
-0.0370582
0.152109
0.0262937
-0.0332108
0.151417
0.0288344
-0.0288965
0.136418
0.0338178
-0.0194822
0.079173
0.0490049
0.00771355
0.0363982
0.0190904
0.0235078
0.0293073
0.00630321
0.000697014
0.0188058
0.0103062
0.000123328
0.0078473
0.0103067
0.000622252
0.00690791
0.00164658
-0.000719576
0.00687721
0.000634
-0.000616946
0.00572166
0.00160182
-0.000459505
0.00259379
0.00248332
0.000633605
0.00106927
0.00126327
0.000255877
0.000432731
0.000633475
0.000257724
-0.000759296
0.000930756
3.21534e-05
-0.000593277
0.00081573
-0.000120717
-0.000649142
0.000798885
-0.000265923
-0.000614339
0.00075655
-0.000324049
-0.00065662
0.000711748
-0.000397999
-0.000579841
0.000650895
-0.000381045
-0.000641027
0.000621233
-0.000398766
-0.000563781
0.000578726
-0.000340591
-0.000628678
0.000567779
-0.000333604
-0.000554659
0.000544968
-0.000272092
-0.000611949
0.000547794
-0.000267051
-0.000538884
0.000531173
-0.000234311
-0.000561541
0.000526257
-0.000242474
-0.000489502
0.00049504
-0.000190764
-0.000519102
0.000465019
-6.16053e-05
-0.000477608
0.000345946
-2.88433e-06
-0.000436104
0.000375054
-0.000398198
-0.000691772
0.00108179
-0.000650209
0.000872583
-0.000627163
-0.0013417
0.0013664
-0.000687658
-0.00254419
0.00553734
-0.00437064
-0.00916314
0.0249237
-0.0184317
-0.0161536
0.0303211
-0.0235064
-0.0205734
0.0407361
-0.0366367
-0.0164815
0.0447991
-0.0492346
0.0493305
-0.055203
0.0192035
0.0712479
-0.0272559
0.0260551
0.0636367
-0.0259558
-0.0184513
0.049832
-0.00540865
0.0269982
-0.0047793
0.0338894
-0.00206581
-0.00488265
0.000150948
0.0451392
-0.0114415
0.0649438
-0.0150277
-0.0121322
0.051266
-0.00102586
-0.0283089
0.0545826
-0.0293541
0.069868
0.0104856
0.0638973
-0.0135596
0.0163113
0.0360714
0.0273388
0.00933796
0.00853325
0.0678025
-0.00579977
-0.00586456
-0.0123387
0.0840471
-0.0179478
0.00155156
-0.0024415
0.0129414
-0.0257544
-0.00337634
0.0100603
-0.0102345
0.00119909
-0.0307338
-0.00895622
0.0228057
0.00657917
0.00432471
-0.00693417
0.0062396
0.0145191
0.0221289
-0.013762
0.00863845
0.00349395
-0.00593928
2.17091e-05
0.0161523
0.00386074
0.00312273
0.0115162
0.0013505
0.00327854
0.0106476
-2.58645e-05
0.000883803
-0.00928738
-0.000376852
0.0202983
-0.0192663
0.00100618
0.00420106
0.00354253
0.00543742
-0.00478515
0.0072575
-0.000440102
0.00466104
0.00256646
-0.00468114
0.00896113
0.00175742
0.010768
0.00361432
-0.0118454
-0.000804831
-0.00564634
-0.00243913
-0.00295551
0.0307527
-0.0101886
-0.00250704
0.000925947
0.00972073
0.00426083
0.00267463
-0.0337766
0.00348737
-0.0023068
0.000568972
-0.00111428
0.00308432
-0.00443511
0.00292657
-0.00451284
0.00314953
-0.0115179
-0.0133293
0.00633324
0.0108287
0.00341164
-0.00819114
-0.010884
0.00709032
0.0117006
-0.00293523
0.00224549
-0.012531
0.0190599
-0.00256216
-0.00282305
-0.00278318
0.00571437
0.000645023
-0.00260828
-0.00208586
0.00182167
-0.000710489
0.000409983
0.00298463
-0.00247034
-0.00211443
0.0018324
0.00053013
0.00254251
0.00189748
-0.00251486
-0.00204804
0.000437191
-0.00255117
-0.0020689
0.00215914
0.0025509
0.00067147
-0.00262888
-0.00203647
0.00199482
0.00243339
0.000665026
-0.00229981
-0.00204097
0.00182419
0.00252023
0.00104388
-0.00256016
-0.00191835
0.00162601
0.00247092
0.000975669
-0.00232424
-0.00198634
0.00176412
0.00261205
0.00142181
-0.00287639
0.00265839
0.00179171
-0.00202238
0.00133545
-0.0026951
0.00202665
0.00307816
-0.00232595
0.00162042
-0.00268137
-0.00354424
0.00347397
0.00246394
0.00121935
-0.003652
0.00324556
-0.00319075
0.00399537
0.00103902
-0.00451166
-0.00346693
0.00379586
0.00435999
0.000436263
-0.00438103
0.00513715
0.00364265
-0.00379895
5.18088e-05
0.00416727
-0.00483622
0.00556315
-0.00451291
6.94883e-05
-0.00190041
0.00242668
0.00179055
-0.00233579
0.00179967
-0.00110316
0.00122455
-0.00185232
0.00226315
0.00213391
0.000341132
-0.00293945
0.00208149
-0.000878735
0.000643814
0.000415619
0.00213347
-0.00164463
0.00134977
0.000241713
0.00174443
-0.00109049
0.00119816
0.000280256
0.00134865
-0.000655178
0.000769677
0.000280203
0.000647784
-3.88332e-05
0.000325675
0.000412971
-0.000351335
0.000508039
-8.52089e-05
0.000575224
-0.00104446
0.000560174
-0.000483789
0.000615672
-0.00125093
0.00075232
-0.00107667
0.000529767
-0.00124822
0.000965122
-0.00150335
0.000534447
-0.00113221
0.00100507
-0.00154832
0.000426122
-0.000924468
0.000927231
-0.00136577
0.000229638
-0.000783875
0.00037701
-0.000487118
-3.14477e-05
-0.000427943
0.000577827
0.000110186
-0.00104487
-0.000154723
0.000272239
-0.000577892
3.16891e-05
-0.00056727
0.000662328
-0.00056144
0.000310173
-0.0012011
0.00156219
0.00134691
6.09415e-05
-0.00235414
-0.00262692
0.00266373
-0.00217886
0.000918752
-0.00354387
0.000127802
0.0021635
0.00042294
-0.00261441
0.000706295
-0.0016696
-0.000529236
-0.00524551
0.00379829
-0.00244882
0.00200822
-0.00513452
0.00382719
-0.00678911
-0.000850688
-0.0040413
0.009116
-0.025908
-0.0098933
-0.0186273
-0.00697774
0.0537951
-0.0427948
-0.0203638
0.0253752
0.0110795
-0.0494742
-0.0292862
0.0463357
-0.0111908
-0.0494542
-0.031047
0.0512863
-0.0210886
-0.0464686
-0.0320769
0.0535553
-0.0252969
-0.0415089
-0.029999
0.0526355
-0.0284135
-0.0121161
-0.0231357
0.0472826
-0.0164643
-0.0379263
0.0164761
-0.00726892
-0.00961831
-0.0118402
0.0136386
0.0260162
-0.0101704
-0.0131387
0.0217272
0.0166121
-0.014108
-0.010727
0.0123129
0.0345477
-0.0112866
-0.0139738
0.0052994
0.0277222
-0.00811325
-0.0126946
-0.00657337
0.0394211
-0.0104859
-0.0171625
-0.0125416
0.0402275
-0.0144796
-0.0199069
-0.00759527
0.0292764
-0.0138232
-0.0205354
-0.00888216
0.0333243
-0.0132287
-0.0189625
-0.0106483
-0.00503722
-0.00739548
-0.00233279
-0.00926599
0.00588678
-0.00105873
-0.00991146
0.00641641
-0.00247257
-0.00868072
0.00449581
-0.0029286
-0.00626877
0.00288085
-0.0030047
0.0019906
-0.00270023
-0.00913659
0.00587069
0.0101347
-0.00497463
-0.00432139
0.00658145
-0.00533463
0.00614095
-0.00654225
0.00682132
-0.00665654
0.00586597
0.00727381
-0.00589917
0.00534401
0.00724124
-0.00476694
0.00469494
0.0121733
-0.0126741
0.00754736
0.022429
-0.0339535
0.0318926
-0.0401525
0.0398657
-0.0408158
0.0460179
-0.0379422
0.0470313
-0.0310534
0.0451772
-0.0191727
0.0312061
0.00355145
0.016259
0.0139198
0.015518
0.00265864
0.0121264
0.00279053
0.00503051
0.0059188
0.00114755
0.00440992
0.000793374
-0.000185164
0.0042258
0.000272675
-0.000102185
0.00337892
0.000872535
-3.88816e-05
0.00144708
0.000605856
0.00131505
0.000537789
0.000240904
0.000663018
0.000445396
8.93283e-05
0.000307616
4.5822e-05
9.02817e-05
0.000224543
-4.70378e-05
0.0001294
0.00034415
-0.000127761
7.51173e-06
0.000571475
-0.000182354
-4.5868e-05
0.00079437
-0.000179143
-4.49233e-05
0.00106359
-4.53804e-05
-0.000225096
0.000887633
-6.09648e-05
0.000235899
0.0013082
-4.43187e-05
0.00218013
5.41147e-05
0.00307742
0.000106552
0.00376848
0.000272816
0.00406111
0.00045845
0.00398726
0.000632765
0.00377213
0.000721917
0.0030268
0.000705254
0.00173635
0.000634021
1.92002e-05
0.000625436
-0.00181659
0.00018998
-0.00290116
0.000205071
-0.00275228
-9.39752e-05
-5.59257e-05
-0.00172164
-1.69785e-05
-0.00101492
-0.00105029
3.98204e-05
-0.00071234
-0.000579353
5.59317e-05
-0.000527767
-0.000327502
8.90109e-05
-0.000341504
-0.000403647
0.000263832
-0.000188398
-0.000146293
0.000374444
-0.000646513
0.000458499
4.12696e-05
-0.000241442
0.000301016
0.000555465
0.000454527
-0.00212114
0.000611596
0.000812329
0.00113041
-0.00273829
0.000949803
0.00111092
0.00115827
-0.00247526
0.00123633
0.00120923
0.00206478
-0.00383158
0.00134404
0.0015791
0.001956
-0.00286217
0.00142015
0.00154895
0.00430066
-0.00534973
0.0029011
0.00504938
0.00412417
0.00297097
-0.00206148
0.00397528
0.00178748
-0.000996202
0.0048059
0.00162659
-0.00110934
0.00485824
0.00235223
-0.00120811
0.00460721
0.00201479
-0.000995747
0.0041112
0.00102919
-0.000209055
0.00330355
0.000247181
0.000473694
0.0024357
-0.000378059
0.000760563
0.00163586
-0.00160525
0.00132687
0.000936888
-0.00276378
0.00195775
0.000120328
-0.00289692
0.00216344
-0.000850823
-0.00245404
0.00205751
-0.00103219
-0.00068554
0.000378355
-0.000640879
0.000665023
-0.000479847
0.000654765
-0.000362494
0.00408403
-0.00245717
-0.0032712
-0.00124163
0.00418931
0.00449966
-0.00146493
0.00259209
0.00627722
-0.000725243
0.00158796
0.0198201
-0.00529409
-0.0120626
0.00383838
0.0156996
-0.00727471
0.00603851
0.0114832
-0.00672134
0.00571589
-0.00986819
-0.00144848
0.0253526
-0.00848955
-0.0168029
-0.0100552
0.0160849
-0.0181251
-0.0395307
0.0590383
-0.0291288
0.0270312
0.0426416
-0.0500841
0.0589233
0.00745056
-0.0575914
0.0667091
-0.00883683
-0.0590282
0.0702615
-0.0161995
-0.0565698
0.0704426
-0.0212011
0.064416
-0.0320067
0.0694704
0.0835971
-0.0274409
0.0687899
0.0841405
-0.0140442
0.0640167
0.0813238
-0.00730062
0.0509471
0.0775836
0.00119515
0.0174663
0.0711847
0.0202206
-0.0379071
0.0322296
0.0491627
-0.0366923
-0.0465789
-0.0222724
0.0484756
0.0139987
-0.0192666
-0.0116789
-0.0198668
-0.0186486
-0.0155022
0.0074786
-0.0243889
-0.00740754
0.00558923
-0.0224698
0.00634034
-0.0272574
-0.00841797
0.0058264
-0.0119604
-0.0151894
-0.00714918
0.00164772
0.00401485
-0.0116256
-0.00423796
-0.000134765
-0.00996276
0.00116631
-0.00982843
-0.00395734
0.00233819
-0.00369978
-0.00687307
-0.00418732
0.00245672
0.00320492
-0.00474009
-0.0031527
0.000984274
0.00211415
-0.00372941
0.00154541
-0.00146469
0.00164862
-0.00339026
-0.00347998
0.00294782
-0.00516236
-0.00318014
0.00205244
-0.00728378
-0.00311576
0.00247037
-0.00908573
-0.00227227
0.00246603
-0.0100756
-0.00181209
0.00242094
-0.0115923
-0.0010727
0.00283354
-0.011804
-0.000545516
0.00178343
-0.0111673
0.000923975
0.000451116
-0.0102751
0.00183824
-0.000381136
-0.00922451
0.00297163
-0.00239928
-0.00896378
0.0027531
-0.00122941
0.0101857
0.00622216
-0.016141
-0.00122675
0.00945638
0.0032477
0.000231166
0.0111933
0.00266175
-0.00143066
0.012391
0.000801185
-0.000163641
0.0124874
-0.000310312
0.00113477
0.0114709
-0.00115675
0.0016247
0.0106071
-0.00195515
0.00174352
0.00966791
-0.00271563
0.00183988
0.00871423
-0.00323816
0.00191662
0.00712296
-0.00343971
0.00191207
0.00574354
-0.00339776
0.001594
-0.00381274
0.00234331
-0.00673194
-0.00379127
0.0019667
-0.00779237
-0.00474044
0.00239959
-0.00875425
-0.0043165
0.0018355
-0.00974099
-0.00409031
0.00183586
-0.0107607
-0.00351338
0.00181454
-0.0114248
-0.00288941
0.0015954
-0.0120114
-0.00162127
0.00104801
-0.0124526
-0.000170237
0.000297989
-0.0117501
0.00138778
-0.00129266
-0.00970807
0.00143452
-0.000818427
-0.00931451
0.00217774
0.000672567
0.0118411
0.0031157
-0.0188152
0.000748192
0.00904035
0.00461451
0.000360029
0.0129349
-0.00166275
-0.00080116
0.0116193
0.00357302
-0.000873673
0.0158459
-0.00353723
-0.000863686
0.0122946
0.0015943
0.000331587
0.015114
-0.00562823
-8.4791e-05
0.0110393
-0.000648491
0.00120572
0.0128584
-0.00673803
0.000824401
0.0085307
-0.00196318
0.00197031
0.00842471
-0.00645189
0.0018134
0.00527452
-0.00218141
0.00153643
-0.00535108
0.00059588
0.0113826
-0.00735304
-0.0139233
0.00234422
0.0118055
-0.00599725
0.00137032
-0.0050478
0.00125076
0.0125964
-0.0051123
-0.0130146
0.00046326
-0.00566202
-0.00119176
0.0137989
-0.00436419
-0.013378
-0.00174153
0.0296024
-0.0047676
-0.0189325
0.000646659
-0.00773951
0.00443615
0.0249232
-0.00661758
-0.0301117
0.00397763
-0.0067171
0.00489561
0.012272
-0.00312688
-0.0185194
0.00261147
-0.0298397
-0.0162409
-0.0228603
-0.0185728
0.00837196
0.00485087
-0.0397224
0.0025336
0.00935983
-0.023191
0.00283533
0.00630294
-0.00581493
-0.0277716
0.00401446
-0.0315314
0.00286683
0.00804674
-0.000168447
-0.0324119
-0.00637462
-0.000719262
-0.0134546
-0.00181794
0.00469049
-0.0185647
0.000229101
-0.0141234
0.000303585
0.00558789
-0.0156181
-0.00513416
0.00102186
-0.0143522
0.000909954
-0.0167876
-0.00634719
0.00141159
0.00773277
-0.0200544
-0.00632929
0.00184564
-0.0181206
0.00349905
-0.0215081
-0.00642716
0.00241246
-0.0224221
-0.00362086
0.000485235
-0.0208849
-0.000464984
-0.00105237
-0.0192745
0.00229581
-0.000971451
-0.0187521
0.00375105
-0.00117453
-0.00504275
0.00435982
-0.0173205
-0.000768227
-0.00641605
-0.0165966
-0.000865184
-0.00744011
-0.0150265
-0.000109845
-0.0058043
-0.0115882
0.00172254
-0.00390482
-0.00925989
0.0010382
-0.00688703
0.000591655
-0.00930424
0.00433783
-0.000335884
-0.00668342
-0.0013326
-0.0006695
-0.00471648
-0.000324392
0.00560536
-2.3266e-05
0.0151059
0.0097868
-0.0309418
0.0108166
-0.000605589
-0.00457172
0.00702604
0.00104115
0.000274939
-0.00431583
0.00468591
-0.00791738
0.00902698
-0.00122337
-0.0017157
0.00637937
-0.00136806
-0.00796562
-0.00117725
0.0053007
-0.00631359
-0.00191123
0.00565153
0.00189656
-0.00683071
-0.0023437
0.00559084
-0.00699045
0.00181452
-0.00253115
0.0054784
-0.00701802
0.00170911
-0.00250735
0.00535747
-0.00695543
0.00155609
-0.00238008
0.00526766
-0.00689089
0.00147792
-0.0022946
0.00514776
-0.00670564
0.00145435
-0.00225408
0.00507545
-0.0065619
0.00142796
-0.00212628
0.00473362
-0.00619302
0.00131431
-0.0020078
0.00407649
-0.00493595
0.000725514
-0.00177696
0.00524976
-0.00773829
0.00223406
-0.0116682
0.00366791
-0.0260692
0.01368
-0.0220298
-0.024851
0.0115425
-0.0275345
0.00507587
-0.0780661
0.0411733
-0.0178364
-0.0877824
0.0282759
-0.0890984
0.0230105
-0.11709
0.0201957
0.0131512
-0.13053
0.0156943
0.00378387
-0.137722
0.0146058
-0.00310888
-0.14005
0.0146328
-0.00888816
-0.137486
0.0160327
-0.01542
-0.129158
0.0196867
-0.0243949
-0.114196
0.0236912
-0.0366385
-0.0458087
-0.0400595
0.0253151
-0.066032
-0.00665259
0.00980789
-0.0283516
-0.0208294
-0.0176523
-0.00620598
-0.0161312
-0.00243823
-0.0131728
0.00861246
-0.0095478
-0.00433523
0.00493859
-0.011374
0.000483001
0.00168906
-0.00649547
0.00140318
-0.00297458
0.00593902
0.00183642
-0.00648171
0.00980975
0.00197462
-0.00596908
0.0127523
0.00168062
-0.00475947
0.0201645
0.00359576
-0.011188
0.034731
0.015263
-0.0301146
0.0300456
0.032249
-0.0278525
0.0250639
0.021353
-0.0165574
0.0227984
0.0155699
-0.0134531
0.0195826
0.0135126
-0.0104328
0.0157769
0.0120956
-0.00840702
0.00952448
-0.00350799
-0.0147151
0.0142951
0.000208192
-0.0183133
-0.00254247
0.0181216
-0.0207551
0.0196838
-0.00385644
-0.02154
0.02137
-0.00514987
-0.0159413
0.0218035
-0.00618793
-0.0553379
0.0382123
0.0567459
-0.0239088
-0.0218141
-0.020151
-0.0451857
0.0464793
-0.0191617
-0.00724615
0.0256669
-0.0212641
-0.015551
-0.0075914
0.0196626
-0.0158618
-0.0100375
-0.00723055
0.0183142
-0.0167686
-0.00617037
0.0161989
-0.0152822
0.00586212
-0.00862006
0.00992889
-0.00944792
0.0125809
-0.00869608
-0.0113589
-0.00367074
-0.00282763
-0.0027183
-0.00215212
-0.0011059
-0.00140345
-0.00116387
-0.00199652
0.00211626
-0.00122877
0.0024733
-0.00253787
-0.00193639
0.00278062
-0.00171408
-0.00446532
0.000583102
0.0038237
0.00317797
0.00532934
-0.0155244
0.00294038
-0.000375715
-0.00780159
0.0050894
-0.00564171
-0.000784096
-0.00717881
0.000144714
0.0271142
-0.00881897
-0.0132515
-0.00593687
0.00671198
0.0139702
0.00639046
0.0377652
0.00673289
-0.0378558
0.00906977
-0.00160397
0.0302209
-0.0186789
-0.00242281
0.000334488
-0.00675849
0.00799897
-0.000916826
0.00283531
-0.00321839
0.0159909
-0.00645139
0.00414035
0.0102218
0.00970072
-0.010674
-0.0105866
-0.00679433
-0.00751062
0.00817684
-0.0101014
-0.00217267
-0.00660725
-0.0314258
-0.0189684
0.0413835
0.00641902
-0.000160348
-0.00250271
-0.0686918
0.0333315
-0.00785302
-0.0214192
0.00652797
-0.0201329
0.00394703
0.00317334
-0.000597323
0.00322163
-0.00145134
-0.00260499
-0.000971447
-0.000352766
-0.00219915
0.00146785
0.0025294
0.00165819
-0.0290469
0.0151774
-0.0109652
-0.0109484
-0.0102584
0.0793653
0.0470273
0.0338364
-0.0158807
-0.0150255
-0.0141699
0.0226901
0.0270792