/*--------------------------------*- C++ -*----------------------------------*\
| =========                 |                                                 |
| \\      /  F ield         | OpenFOAM: The Open Source CFD Toolbox           |
|  \\    /   O peration     | Version:  v2012                                 |
|   \\  /    A nd           | Website:  www.openfoam.com                      |
|    \\/     M anipulation  |                                                 |
\*---------------------------------------------------------------------------*/
FoamFile
{
    version     2.0;
    format      ascii;
    class       volScalarField;
    location    "45";
    object      epsilon;
}
// * * * * * * * * * * * * * * * * * * * * * * * * * * * * * * * * * * * * * //

dimensions      [0 2 -3 0 0 0 0];


internalField   nonuniform List<scalar> 
22960
(
0.0277457
0.019997
0.0166041
0.0134299
0.0167243
0.0118645
0.00680797
0.00906928
0.00972819
0.0102732
0.0102135
0.00850985
0.00783065
0.00751945
0.0073484
0.0069731
0.00663776
0.00861363
0.0149659
0.0192176
0.0222889
0.016562
0.0243186
0.0243827
0.0133617
0.009741
0.0119565
0.010215
0.00970613
0.010032
0.0101039
0.0102642
0.0103673
0.0106187
0.0108894
0.0114089
0.0119298
0.0127835
0.0136837
0.0156345
0.01723
0.0185198
0.0193366
0.0202141
0.0209415
0.0217174
0.0224727
0.0231225
0.0233978
0.0273348
0.0307186
0.0281442
0.0261516
0.0247773
0.0240694
0.025925
0.0378547
0.0576288
0.0562857
0.0466779
0.0385399
0.0310647
0.0252618
0.0291457
0.0136426
0.00876687
0.0131049
0.0150408
0.017156
0.0185984
0.0148834
0.012135
0.0103246
0.00993979
0.00974574
0.00979923
0.00974575
0.00982421
0.00962918
0.0102809
0.0122476
0.010227
0.00886857
0.00892971
0.00977497
0.00728566
0.0120511
0.0112795
0.0107842
0.0125072
0.0169546
0.0202302
0.0221946
0.022837
0.0238576
0.0280404
0.0347756
0.027127
0.0200974
0.0151317
0.0114635
0.0141376
0.0167019
0.0101777
0.0115553
0.0114053
0.0121264
0.0124421
0.0138193
0.0118794
0.0128581
0.0122537
0.011563
0.0111188
0.0110294
0.0109655
0.0107766
0.0118701
0.0127999
0.0135677
0.0152229
0.0172478
0.0188447
0.0201737
0.024155
0.0307878
0.0276897
0.0234073
0.0198058
0.0223847
0.0251109
0.0285966
0.0330273
0.0330969
0.022411
0.0184933
0.0169323
0.0152303
0.013328
0.0115176
0.0104432
0.00927559
0.00809347
0.00811462
0.00847382
0.00893617
0.00960179
0.0103271
0.0109847
0.0132515
0.0184441
0.0168083
0.0150084
0.01487
0.0144397
0.0145455
0.0118259
0.024086
0.0225287
0.0127862
0.0133472
0.0139318
0.0139805
0.0135753
0.0130122
0.0123926
0.0129849
0.0133016
0.012711
0.0113993
0.0100338
0.00788219
0.0091465
0.010401
0.00651164
0.00648562
0.00718768
0.00789759
0.00874875
0.00918175
0.00726053
0.00555708
0.00511215
0.00501969
0.00488193
0.00461295
0.00414412
0.00361286
0.00504709
0.00607265
0.00655057
0.00673114
0.00681324
0.00686668
0.00725554
0.0082852
0.0100035
0.00918663
0.00920071
0.00854275
0.00761611
0.00534922
0.00686034
0.0068909
0.00677529
0.00643175
0.0068695
0.00750798
0.007863
0.00822474
0.0086685
0.0095551
0.0125092
0.0185643
0.0186543
0.0190025
0.021593
0.0245219
0.0306794
0.0409701
0.0545968
0.0694817
0.0828241
0.0929982
0.0989765
0.10152
0.0999161
0.0985937
0.10446
0.0927329
0.0673122
0.052163
0.0434876
0.0384662
0.0365505
0.0425086
0.0505851
0.0385978
0.0284988
0.0250492
0.0220254
0.01501
0.0109224
0.012923
0.0136685
0.0135313
0.0159957
0.0196849
0.0267073
0.0605383
0.0920697
0.169628
0.277346
0.389403
0.489348
0.586031
0.601189
0.572347
0.485902
0.198802
0.264772
0.177669
0.114823
0.090878
0.0730665
0.0691926
0.0594248
0.0410084
0.0475005
0.0364519
0.0326335
0.0248434
0.0257506
0.0288381
0.0303089
0.0320289
0.0315459
0.0319305
0.030627
0.0303606
0.0288232
0.0283567
0.027408
0.0278352
0.0278419
0.0269068
0.0275116
0.0278825
0.0259634
0.020563
0.0158738
0.0144335
0.0136697
0.0135711
0.0133536
0.0119151
0.0118849
0.012733
0.014809
0.0165777
0.023852
0.0328592
0.0314754
0.0276604
0.0274337
0.0248909
0.0290214
0.0349451
0.0350281
0.0322381
0.033869
0.0315814
0.0311602
0.0305543
0.0320222
0.0319336
0.0339718
0.0336923
0.0357289
0.0348345
0.0364277
0.0346318
0.0353582
0.0350162
0.0367707
0.0399938
0.0406939
0.0569772
0.0568492
0.0586075
0.0736555
0.0887617
0.0750769
0.0648947
0.0707967
0.048908
0.0450546
0.0543346
0.055649
0.0510869
0.0460505
0.0440783
0.0412151
0.036546
0.0351128
0.0357656
0.0353936
0.0335321
0.030661
0.0296959
0.0293824
0.0291222
0.0289675
0.0290078
0.0294297
0.0322263
0.0336469
0.0253379
0.0202106
0.0193594
0.0129743
0.0100519
0.00915049
0.0109082
0.0130932
0.0138128
0.0141313
0.0144793
0.0144779
0.0142345
0.0166939
0.0170441
0.0168286
0.0164357
0.0157858
0.0145037
0.0111699
0.0125099
0.0140314
0.0155331
0.0171464
0.0187366
0.0204969
0.0224972
0.0248075
0.0285747
0.0296116
0.029889
0.0272283
0.0241008
0.0215524
0.0196112
0.0189496
0.0232134
0.0244991
0.0204533
0.0163225
0.0126995
0.0114769
0.0103329
0.0153524
0.013389
0.0131758
0.0131569
0.0144716
0.0165091
0.0179626
0.0137842
0.0116853
0.0102791
0.0101583
0.010068
0.0103127
0.0105529
0.012131
0.0161261
0.0255547
0.0268911
0.0343317
0.0443482
0.0409839
0.0358201
0.0382052
0.04228
0.0395176
0.031072
0.0298088
0.0296028
0.0288339
0.0289674
0.028024
0.028411
0.0274043
0.0277215
0.0266198
0.0268344
0.0256454
0.0256224
0.0249109
0.0257923
0.0256797
0.023688
0.0219795
0.0203887
0.0202286
0.0180452
0.0144424
0.0135403
0.0128961
0.0131527
0.0133276
0.0130065
0.0139047
0.0155774
0.0125314
0.0182738
0.0275029
0.0192081
0.016301
0.0140016
0.01811
0.0157871
0.0139621
0.0150876
0.0205998
0.0218813
0.0257896
0.036064
0.0207552
0.0264374
0.0278049
0.0380209
0.0526308
0.045939
0.0368413
0.0411754
0.0429553
0.0403281
0.0773784
0.0811909
0.0678402
0.0500994
0.0304326
0.0567944
0.050264
0.0181638
0.0340826
0.0518148
0.0703375
0.0493169
0.0557001
0.0614037
0.075531
0.0604237
0.0627521
0.064223
0.0631354
0.0573082
0.0556355
0.0455934
0.0505903
0.0547526
0.0737072
0.100554
0.160931
0.197447
0.228508
0.22732
0.12692
0.155103
0.172347
0.196926
0.18562
0.325901
0.48622
0.720621
1.16226
1.17118
0.910598
0.651427
0.43539
0.235723
0.0992102
0.0318472
0.0307304
0.0200146
0.014713
0.0133168
0.0137951
0.0226078
0.0230136
0.0136938
0.00791083
0.00555562
0.00621678
0.00670255
0.00703792
0.00726996
0.00805704
0.0127079
0.0134955
0.0137484
0.0137616
0.0137136
0.01357
0.0124679
0.0119302
0.0107614
0.00887581
0.0101391
0.0106218
0.00939024
0.00882704
0.00804218
0.00781797
0.0111314
0.00870671
0.00765312
0.00815707
0.00909122
0.00899854
0.00743871
0.00750606
0.00737727
0.00740996
0.00719159
0.0068898
0.00642277
0.00656074
0.00819216
0.0129816
0.0132306
0.0164876
0.0207019
0.0185096
0.0156391
0.0158874
0.0163023
0.0133244
0.0116257
0.0164494
0.0172538
0.0180017
0.0200977
0.0218789
0.0327589
0.0972196
0.169426
0.286367
0.423851
0.563135
0.699707
0.815535
0.832944
0.794766
0.657966
0.183348
0.2531
0.164146
0.101459
0.0823027
0.067555
0.064598
0.0556051
0.036385
0.0576674
0.056557
0.0656306
0.0624118
0.0663475
0.0684373
0.0754128
0.0759359
0.106568
0.271273
0.534218
0.583299
0.802634
1.2
1.40995
1.50121
1.33922
0.938576
0.605878
0.432442
0.261888
0.136792
0.0464378
0.0243743
0.122282
0.0687294
0.0372866
0.047244
0.0380589
0.0372506
0.0225271
0.0275001
0.0129136
0.00615221
0.00601781
0.006583
0.00703117
0.00742395
0.00844395
0.00852173
0.00733471
0.00690385
0.00645279
0.0059237
0.00668747
0.0113629
0.0235522
0.0260999
0.0398118
0.043244
0.0431056
0.0523187
0.0698302
0.0763763
0.0973338
0.119468
0.160057
0.183824
0.211293
0.241481
0.304106
0.369109
0.46091
0.521228
0.539808
0.509003
0.445581
0.36624
0.281356
0.176056
0.0900173
0.11048
0.190886
0.226869
0.246668
0.26442
0.274475
0.269564
0.249989
0.227313
0.215583
0.201874
0.181626
0.182167
0.190297
0.199093
0.20631
0.206417
0.203107
0.191977
0.180458
0.138581
0.0852722
0.0623916
0.0719271
0.102377
0.126761
0.140147
0.145685
0.143763
0.15146
0.1463
0.152213
0.146186
0.148153
0.128701
0.105219
0.0923951
0.0829916
0.0701354
0.0641077
0.0566115
0.0439262
0.0384518
0.0341488
0.0361055
0.0349469
0.0201458
0.0175901
0.0192903
0.0339993
0.0348077
0.0356722
0.0396926
0.0472574
0.0485068
0.0605627
0.062819
0.0743983
0.0765258
0.0767199
0.111478
0.110696
0.104032
0.0934557
0.0711262
0.0550817
0.0439083
0.0452425
0.0462785
0.0467922
0.043069
0.0411695
0.0349736
0.033459
0.0347071
0.0339291
0.0312015
0.0339387
0.0350052
0.0300023
0.0354193
0.0354998
0.0348963
0.0337999
0.0329872
0.032262
0.0316739
0.0311362
0.0313025
0.0319868
0.0359814
0.0236974
0.0152065
0.0135619
0.0115778
0.0112718
0.0116388
0.010865
0.0114647
0.0117579
0.0119028
0.0120313
0.0123419
0.0130624
0.01587
0.0204432
0.0196521
0.0207504
0.0197755
0.0206485
0.0279547
0.0118091
0.013295
0.0140203
0.01368
0.0145762
0.0167704
0.0186372
0.0206055
0.0206912
0.019246
0.0174298
0.015992
0.0152437
0.0172029
0.0193667
0.0210301
0.0206971
0.0183969
0.0204556
0.0231539
0.0258789
0.025761
0.0241197
0.0303652
0.0316596
0.0324213
0.0298424
0.044133
0.0495951
0.0461522
0.0438567
0.0484054
0.0408576
0.0348173
0.0387217
0.0274424
0.0929518
0.0341884
0.0267898
0.0231207
0.024456
0.0245766
0.0265344
0.0278451
0.0273746
0.0211514
0.0215894
0.025794
0.0232919
0.0230018
0.0178018
0.0154571
0.0217416
0.0291024
0.0308543
0.0332499
0.0346689
0.0321139
0.0394236
0.0364994
0.0393229
0.0416997
0.0308854
0.0171951
0.0273433
0.0289009
0.0219248
0.025222
0.0277444
0.0292433
0.0335224
0.0398635
0.0486164
0.0598361
0.0654266
0.0682286
0.0575373
0.0454502
0.0367627
0.030479
0.0258442
0.0225858
0.0204306
0.018736
0.0182519
0.0174176
0.015826
0.0172818
0.0189745
0.0208763
0.0229251
0.025198
0.0277745
0.0311685
0.0401948
0.0402485
0.0384277
0.0341182
0.0297333
0.026322
0.0237351
0.0227784
0.0314443
0.0392794
0.0363588
0.0300667
0.0234644
0.019883
0.0171199
0.0153503
0.0239219
0.0259822
0.019753
0.0219841
0.0257151
0.0296577
0.0362178
0.0477272
0.0338342
0.0381235
0.0264635
0.0264994
0.0294246
0.0335049
0.03925
0.0458746
0.0506
0.0531241
0.0377886
0.0321582
0.028707
0.025803
0.0232738
0.02104
0.0190924
0.0200211
0.0220278
0.0245286
0.0280824
0.0330667
0.0407278
0.0530333
0.0756541
0.0663248
0.0538299
0.0435885
0.0361114
0.0310705
0.0278027
0.0267042
0.0247608
0.0361173
0.0387189
0.0608239
0.0540549
0.0420889
0.0367102
0.0311312
0.0275285
0.0255182
0.0325963
0.0360117
0.0468579
0.031989
0.0316983
0.031297
0.0357431
0.0523654
0.0460713
0.0407383
0.0332261
0.0299546
0.0362948
0.0278347
0.0242769
0.0237103
0.0237381
0.0238496
0.0259775
0.0289127
0.0271538
0.0275874
0.026725
0.0239257
0.0314957
0.0339136
0.0313629
0.0308714
0.0300927
0.0257959
0.0248823
0.0284664
0.0308689
0.0350307
0.031062
0.0294043
0.0329777
0.0424506
0.0235195
0.0212489
0.0316018
0.0377931
0.0374963
0.0372058
0.0342788
0.0323341
0.0313906
0.0291993
0.0310238
0.0267797
0.0279876
0.0281464
0.0260646
0.0227477
0.0242452
0.0240707
0.0248641
0.0254687
0.0247286
0.0236778
0.0238357
0.019582
0.0232151
0.0252832
0.0232913
0.0312463
0.0302588
0.0310688
0.0344373
0.0354235
0.0291183
0.0286894
0.0293792
0.0257844
0.0321754
0.0316448
0.0330515
0.0358866
0.026167
0.0238544
0.0249374
0.0123753
0.0156068
0.0167734
0.019078
0.0216361
0.0183644
0.0115078
0.00974735
0.00932474
0.00910935
0.00904039
0.00917731
0.0105992
0.0166212
0.0167268
0.0162329
0.0164332
0.0163758
0.0162812
0.0167776
0.0165723
0.0174684
0.0182839
0.0186038
0.0191108
0.0197873
0.0199189
0.0192266
0.0123728
0.0109588
0.00898341
0.00629546
0.00586944
0.00632595
0.00669485
0.00703378
0.00761653
0.00795863
0.00729038
0.00613133
0.00665658
0.00682731
0.00670697
0.00654775
0.00626973
0.00592427
0.0058336
0.00549413
0.00631043
0.00784403
0.00822671
0.0127374
0.0114107
0.0106682
0.0106464
0.00992687
0.0105426
0.0103699
0.00920975
0.00902501
0.00903532
0.00919498
0.00955577
0.0109294
0.0176331
0.0206855
0.017716
0.0161958
0.0150304
0.0140537
0.0158591
0.016318
0.0165473
0.0168431
0.0195613
0.0171229
0.0179188
0.0116115
0.00995289
0.00948833
0.00929191
0.00926527
0.00940593
0.00946379
0.00944212
0.00955087
0.00987098
0.0105066
0.0119519
0.0139383
0.0181973
0.0193159
0.0231087
0.0200125
0.0179571
0.0185598
0.01895
0.0197806
0.0255283
0.0250094
0.0240042
0.022136
0.0186825
0.020018
0.0206269
0.0241832
0.0208002
0.0363454
0.0334478
0.0325844
0.0347317
0.0367313
0.0326474
0.0360301
0.0370934
0.025762
0.0231494
0.0210946
0.0222394
0.023853
0.0247509
0.0233766
0.0245805
0.0141187
0.0249354
0.0280546
0.027785
0.029677
0.0259864
0.0265175
0.0253664
0.0181925
0.0198964
0.0209699
0.0200703
0.018257
0.0191786
0.0218744
0.01537
0.0168258
0.0185093
0.01965
0.0185431
0.0176986
0.0151147
0.0159748
0.0189136
0.020472
0.020924
0.0246064
0.022701
0.0208381
0.0203009
0.0196537
0.0244099
0.0212325
0.0184323
0.0137089
0.0119188
0.0132436
0.0139599
0.0198977
0.0194806
0.0180432
0.0162538
0.0170476
0.0171897
0.0172058
0.0170225
0.0169998
0.0161368
0.0135741
0.0130246
0.013532
0.0153266
0.0129082
0.0122861
0.0119164
0.011715
0.011448
0.0135955
0.0112793
0.0144759
0.0167614
0.0175138
0.0186787
0.0225277
0.019524
0.0171935
0.0158401
0.0332173
0.0371349
0.0301233
0.0180429
0.0179985
0.0171887
0.0191469
0.017782
0.017282
0.0167051
0.0173703
0.0169182
0.0127943
0.0162616
0.016829
0.0176588
0.0189243
0.0176242
0.0164537
0.0162121
0.0183321
0.0173341
0.024146
0.0212029
0.0241665
0.0251318
0.0257227
0.0257873
0.0230796
0.0210676
0.0240169
0.0268594
0.0321243
0.0274252
0.0239649
0.0236388
0.0291329
0.0223709
0.0227074
0.0237737
0.0230894
0.0211464
0.014843
0.0162189
0.0155856
0.0152752
0.0164473
0.0190694
0.022673
0.0231265
0.0194407
0.0210212
0.0207451
0.0231024
0.0228563
0.0198632
0.0199687
0.0240491
0.025295
0.021515
0.0220073
0.0244785
0.0230449
0.0208374
0.0165354
0.0167893
0.0226248
0.0202615
0.0233138
0.023229
0.0246691
0.0254648
0.0246264
0.0257969
0.0220202
0.0239316
0.0256073
0.0237312
0.0174171
0.0179302
0.0148969
0.0131271
0.0145179
0.0160766
0.0148277
0.013373
0.0120825
0.0133579
0.0109962
0.012394
0.00999232
0.0119512
0.0111563
0.0102475
0.0120663
0.0145335
0.0148696
0.0181029
0.0174973
0.0121229
0.0107045
0.014088
0.0219541
0.0148068
0.014391
0.0309622
0.0306145
0.0285379
0.0334871
0.010289
0.0137157
0.0180252
0.0192384
0.0213808
0.0246837
0.020762
0.0195223
0.0186046
0.0174908
0.0134122
0.0174625
0.016357
0.016012
0.0134207
0.0119586
0.0109082
0.0102688
0.00986852
0.00962114
0.0094944
0.00942523
0.00920166
0.00869836
0.00817969
0.0057606
0.00679004
0.00790511
0.00695312
0.00576727
0.00581862
0.0060538
0.0062914
0.00640255
0.0064452
0.00643388
0.00615482
0.00567645
0.00532328
0.00594796
0.00670282
0.00679368
0.00691792
0.00693603
0.00684214
0.00663617
0.00703247
0.00683333
0.00660456
0.0065156
0.00648336
0.00629144
0.00596051
0.00679149
0.00795579
0.00912879
0.00967142
0.0101044
0.0107235
0.0116213
0.0129883
0.0147229
0.0173023
0.0190387
0.0169143
0.0159047
0.0139644
0.0127616
0.0117935
0.0107422
0.0084395
0.00632273
0.00590861
0.00714868
0.0072744
0.00769749
0.00800378
0.00829884
0.00972724
0.0186635
0.019967
0.0195311
0.0143924
0.00883355
0.0129921
0.0140337
0.019635
0.0208363
0.0175501
0.0157162
0.013337
0.0191425
0.0229384
0.0218732
0.0213004
0.0190934
0.0165877
0.0148014
0.0127197
0.0118153
0.0107679
0.0106247
0.0106384
0.0106779
0.0100276
0.00657306
0.00610181
0.00557773
0.00461887
0.00353296
0.00420471
0.00487647
0.00570962
0.00888382
0.0100967
0.0103051
0.0101478
0.0104858
0.0105343
0.010649
0.010609
0.0106936
0.0105482
0.0105383
0.010317
0.0100643
0.0102361
0.0103768
0.0138878
0.0196257
0.0180419
0.0175474
0.0174314
0.017266
0.0170643
0.0169732
0.016709
0.0165766
0.0162576
0.0159132
0.0156656
0.0157891
0.0167114
0.0144449
0.00869563
0.00790895
0.00487011
0.00749407
0.0121253
0.0130903
0.0116193
0.01295
0.0127919
0.0134219
0.0148459
0.0156362
0.0158821
0.0161552
0.0163108
0.0160012
0.0159348
0.0156219
0.0168767
0.018757
0.0186419
0.0170772
0.0150152
0.0168482
0.0197171
0.0216728
0.0219782
0.0217706
0.0214417
0.021081
0.0207096
0.0203844
0.0200799
0.0197439
0.0190564
0.0167845
0.0138782
0.0118052
0.0115899
0.010691
0.00951826
0.0107078
0.00657503
0.00406115
0.0062145
0.00971166
0.00840879
0.00918807
0.0105492
0.0130012
0.013881
0.013207
0.0158904
0.0174806
0.0201621
0.0219514
0.0220658
0.0226436
0.0232952
0.0240467
0.0247439
0.0252032
0.0258715
0.0242332
0.0214826
0.0201855
0.0174828
0.0158274
0.0203816
0.0227895
0.0247094
0.027944
0.0450695
0.0430421
0.0416702
0.0424607
0.0443748
0.0441982
0.0436888
0.0435313
0.0421262
0.0401025
0.0373673
0.0312592
0.0335326
0.0361917
0.0392433
0.0409049
0.0430512
0.0439619
0.0447172
0.0461259
0.0449706
0.0452091
0.0449818
0.044291
0.0438122
0.0427614
0.0419259
0.0403276
0.0393216
0.0379576
0.0374034
0.0364758
0.0358926
0.0349354
0.0344368
0.0340107
0.0336589
0.0314289
0.0213486
0.0186374
0.0167073
0.0138433
0.0115197
0.0107353
0.0125588
0.00792936
0.00500049
0.00751475
0.0115773
0.00975281
0.0103568
0.0120257
0.0108275
0.011222
0.0124641
0.0150812
0.0160043
0.0168147
0.0189285
0.021744
0.0321032
0.0340758
0.0341102
0.0344081
0.0346919
0.035547
0.0359145
0.0366702
0.036975
0.0379609
0.0386269
0.0396069
0.0398981
0.0402694
0.0403487
0.0407623
0.0406268
0.0412143
0.0776486
0.0741028
0.0757913
0.0749991
0.0769475
0.0740162
0.0734501
0.0681892
0.0663599
0.0631111
0.061712
0.0598868
0.057923
0.056758
0.0565835
0.060035
0.0525919
0.0318979
0.0318281
0.0510496
0.0554425
0.0296195
0.0189665
0.0293773
0.0498948
0.0448252
0.0435527
0.0484765
0.0453762
0.0484934
0.0483863
0.0487168
0.0502199
0.0523414
0.0553502
0.060718
0.0639441
0.069803
0.0711303
0.0747453
0.0735306
0.0754383
0.0731659
0.0779604
0.079344
0.0755907
0.0773286
0.074504
0.0808599
0.0773648
0.0703236
0.0641025
0.0597234
0.0546149
0.0524516
0.0510983
0.0459893
0.0458137
0.043631
0.0434952
0.0411689
0.0412942
0.0419749
0.0472965
0.0278908
0.0174362
0.0273436
0.046145
0.0408433
0.0392477
0.0388165
0.0401319
0.0412656
0.043155
0.0436006
0.0470958
0.0524621
0.0464546
0.107415
0.0571943
0.0693193
0.052934
0.0616232
0.0439627
0.0368738
0.0373063
0.0372022
0.0452391
0.0531776
0.0570167
0.0632339
0.0617107
0.067318
0.0611379
0.0619303
0.0531234
0.0571383
0.0604321
0.0636807
0.0851738
0.08991
0.109202
0.119202
0.125551
0.124291
0.120997
0.0898446
0.0777237
0.0892155
0.0903134
0.106491
0.140133
0.121988
0.137822
0.106924
0.172943
0.081654
0.0831539
0.0811683
0.0720204
0.0648155
0.0594067
0.0540313
0.0515077
0.108381
0.107443
0.12365
0.303646
0.170614
0.178179
0.151052
0.152747
0.106911
0.0798825
0.0835438
0.0863708
0.138321
0.159543
3.51796
0.206026
2.71273
2.28698
2.34331
2.37411
2.66723
4.01612
3.4808
3.96068
3.7035
6.05666
2.51713
1.92727
2.08099
1.99327
0.116033
0.138993
0.155648
0.166755
0.158978
0.152986
0.299785
5.98766
0.263735
0.209212
0.198592
0.203672
0.261791
0.207236
0.0790687
0.0489335
0.0415167
0.144792
11.7754
3.92064
0.324195
0.132565
0.740382
0.52372
5.88537
0.213119
0.104743
0.0367889
0.0190932
0.0264003
0.0407658
0.0805571
0.214316
0.092149
0.225899
0.0833306
0.201443
0.158002
0.0605867
0.0318942
0.0413127
0.0267712
0.0430566
0.0264833
0.0205263
0.0173992
0.0150356
0.0223704
0.0559343
0.215964
10.3624
1.67279
0.565004
6.10648
8.72936
0.810556
0.362927
4.96519
0.206242
0.0530824
0.0199358
0.0160465
0.0151032
0.0159055
0.0176739
0.0207101
0.0187767
0.0225956
0.0217464
0.0303069
0.0579428
0.158775
0.152097
0.0578106
0.0304418
0.0222047
0.0186393
0.0183797
0.0168011
0.0169656
0.0153796
0.0147756
0.0146907
0.0157974
0.0245561
0.131616
3.97203
0.298596
0.36503
3.95527
0.135828
0.0231905
0.015072
0.0143913
0.0146775
0.0152687
0.0153209
0.0166611
0.0180286
0.0206165
0.0253791
0.0387183
0.0731361
0.221217
3.97204
4.0105
3.8914
4.03126
0.224255
0.0868621
0.0447215
0.0277133
0.0221684
0.0192868
0.0163697
0.0153464
0.0146571
0.0143442
0.0144026
0.021412
0.138048
3.97657
0.36836
0.399316
4.54883
0.238955
0.0572522
0.0145089
0.0145558
0.0163043
0.0171239
0.0310137
0.0343191
0.0403213
0.0547715
0.0932597
0.235553
3.41208
2.38173
2.17996
0.162868
0.15263
0.148608
0.147834
0.22715
0.0567997
0.233599
0.058205
0.238875
6.43934
6.40253
0.440632
0.403399
0.635108
7.50492
6.12367
0.497081
0.790994
7.5485
4.21019
0.288867
0.236527
3.47501
2.72069
0.157329
0.135103
2.6144
2.39614
0.119419
0.105672
0.113059
0.144161
0.16505
0.180358
0.179688
0.213696
0.23649
0.0665139
0.0467578
0.0395723
0.0594916
0.140165
0.120626
0.207253
0.250178
0.38004
0.245974
0.183771
0.34262
1.78601
0.342528
0.121207
0.126543
1.48756
0.0587833
0.0342775
0.0264359
0.0279776
0.0296189
0.0365573
0.0460807
0.0359272
0.0452022
0.0319563
0.0412963
0.0536372
0.15434
0.159296
0.207198
0.123127
0.0952462
0.154324
0.269841
0.33171
0.209233
0.107969
0.65778
0.104353
1.64466
1.50106
2.22617
11.0202
2.94813
1.42594
1.23722
1.33503
2.76655
11.0966
5.71012
0.397948
0.069788
1.53287
0.182933
0.104123
0.190786
0.29342
1.56864
0.0916208
0.050313
0.0319855
0.0220561
0.0253189
0.0345749
0.0431226
0.0401438
0.0400936
0.0269194
0.0302693
0.03416
0.0422303
0.0420535
0.0470461
0.0352147
0.0417567
0.0491955
0.112602
0.0743624
0.0448295
0.0561855
0.176211
0.283094
0.138195
0.0774558
0.176233
0.571672
0.666692
0.32788
2.60243
0.123221
0.451218
0.758713
1.47596
7.23689
1.21975
0.390653
0.0734338
0.0282355
0.0453849
0.0859055
0.0527226
0.033217
0.0290928
0.0353223
0.0375103
0.0318043
0.0287158
0.0241755
0.0296394
0.0279538
0.0221824
0.0288624
0.0253712
0.0261191
0.028506
0.0310025
0.0286719
0.029252
0.0278786
0.0321974
0.0334047
0.0903328
0.0412371
0.0301582
0.0822629
0.0484419
0.124272
0.0382951
0.0680199
0.0443718
0.0444692
0.155168
0.0689042
0.053281
0.142587
0.0665965
0.0519386
0.0993475
0.0547079
0.0442629
0.0590788
0.0399763
0.0471273
0.0526852
0.0685752
0.0661557
0.0720497
0.0705053
0.0586591
0.137303
0.0502991
0.0439388
0.0766612
0.0799807
0.0781804
0.074245
0.0784414
0.0779593
0.0784337
0.0755525
0.0803796
0.0796672
0.0796626
0.0793127
0.0797384
0.0796001
0.0744595
0.0789752
0.0797155
0.0756435
0.0802422
0.08128
0.0827792
0.0842909
0.539901
1.93939
0.997472
0.529499
0.657063
1.35056
2.22625
0.866388
0.635669
0.191904
0.370501
0.234511
0.320536
0.207427
0.123421
0.0949103
0.142166
0.101696
0.106552
0.109593
0.301075
0.144753
0.156438
0.114732
0.201472
0.337965
0.765073
0.41605
0.237333
0.261697
0.504196
0.73055
0.35768
0.0883128
0.0865901
0.0807239
0.0761497
0.0789728
0.0754424
0.0740591
0.0793344
0.0886978
0.0859521
0.0752038
0.0681187
0.0684805
0.0591176
0.0591833
0.0681065
0.0829614
0.0712424
0.0563602
0.0484249
0.0492853
0.0557462
0.0549247
0.0632475
0.076381
0.0831648
0.0920374
0.0901455
0.0893576
0.0824556
0.0818087
0.0767135
0.0705271
0.0647807
0.060789
0.0573588
0.0529322
0.0506515
0.0488424
0.045391
0.0450019
0.0454288
0.0479198
0.0499872
0.0538222
0.0290708
0.0186564
0.0160444
0.0134504
0.0123317
0.0147844
0.0141963
0.0130175
0.0137354
0.0160177
0.0257672
0.0441537
0.0395956
0.0375383
0.03859
0.0397867
0.0665254
0.0390145
0.027508
0.031671
0.0397952
0.0981289
0.127182
0.047312
0.0422339
0.0291467
0.0404357
0.08991
0.152732
0.0957416
0.0554414
0.0874155
0.140873
0.233876
0.166913
1.47847
0.0632111
0.0698926
0.283297
1.43884
3.84785
0.244309
0.0360165
0.0268448
0.0211301
0.0242753
0.0302686
0.037125
0.0363245
0.0362242
0.0224194
0.024853
0.0279073
0.0348806
0.0369687
0.0416703
0.0282318
0.0328146
0.0400008
0.0950562
0.0731113
0.0425529
0.0471652
0.0302008
0.0455751
0.0546512
0.15112
0.181989
0.0962903
0.0592734
0.110896
0.0208604
0.0196629
0.020317
0.0220419
0.0111085
0.025515
0.0284589
0.0184229
0.0285142
0.0329982
0.025942
0.0246408
0.02126
0.0210241
0.0245144
0.0361699
0.0177766
0.0686341
0.366192
0.275766
0.263691
2.18396
2.32988
2.2718
1.40334
0.286891
0.465441
0.752229
0.622329
0.46838
0.27249
0.220099
0.309478
0.236439
0.0910747
0.101154
0.108984
0.0985336
0.0796659
0.0776438
0.078877
0.0818801
0.0849748
0.113411
0.098451
0.11414
0.0903366
0.0976702
0.132501
0.245604
0.205518
0.126991
0.20331
0.115369
0.268542
0.40675
0.642903
1.12479
0.676839
0.385177
0.235854
0.394723
0.368919
0.663164
0.962966
0.842535
0.862074
0.553996
0.385541
0.69643
0.298047
0.0958403
0.12475
0.13878
0.175751
0.882708
0.359445
0.386616
0.154173
0.31995
1.07049
0.14012
0.0928652
0.0786987
0.0705792
0.0716053
0.0498175
0.0611058
0.0401989
0.045384
0.0460143
0.0941012
0.0537566
0.0614526
0.0566814
0.0603186
0.205876
0.0722171
0.0945846
0.0724822
0.0822585
0.451761
0.120706
0.159342
0.0990671
0.0725548
0.344325
0.11837
0.083517
0.0551849
0.0510168
0.0621146
0.0607243
0.0702138
0.0747974
0.0814692
0.0817689
0.0856471
0.0834097
0.077677
0.0794125
0.0770041
0.0698385
0.0670336
0.0621588
0.0591158
0.0544018
0.0517062
0.0499736
0.0489585
0.0484595
0.0482268
0.0518655
0.0313578
0.0311093
0.0306068
0.0272117
0.0114248
0.0207267
0.0440748
0.0488739
0.028872
0.026875
0.0168994
0.0161002
0.0150744
0.0240526
0.0252655
0.0430377
0.0383925
0.0361113
0.0378258
0.0362106
0.0352581
0.0367506
0.0411868
0.0406559
0.0238096
0.02525
0.042665
0.0376137
0.0360718
0.0353374
0.0363772
0.036495
0.0357289
0.0361206
0.0384366
0.0432181
0.02546
0.0264855
0.0448082
0.040069
0.0383462
0.0404431
0.0376832
0.0775961
0.0340274
0.0427089
0.0660016
0.116177
0.102355
0.0660966
0.0354286
0.0584283
0.0901229
0.0944589
0.0472873
0.0358819
0.0457181
0.0373249
0.0256616
0.031979
0.0387875
0.0621467
0.453776
0.0898858
0.0622465
0.131331
0.0750693
0.0754568
0.0668713
0.0442908
0.0611548
0.0285567
0.0585329
0.036974
0.0274615
0.0322067
0.0382061
0.0785163
0.0322376
0.0319425
0.0231562
0.0270877
0.024201
0.0211162
0.0331587
0.0219161
0.024334
0.026597
0.0341675
0.0345103
0.0202447
0.0187862
0.0182494
0.0103145
0.0203165
0.020972
0.01018
0.0257986
0.0273674
0.030297
0.0255644
0.0231754
0.0200076
0.0191359
0.0187043
0.0189867
0.0105499
0.0202261
0.020001
0.0101687
0.0245118
0.0281021
0.0316984
0.0240192
0.0241933
0.0225483
0.022935
0.012403
0.020195
0.0202063
0.0225272
0.0264736
0.0278329
0.0215081
0.0157415
0.0210973
0.0198295
0.0221731
0.0222663
0.0223349
0.0234965
0.0157921
0.02238
0.0287378
0.0267426
0.0235237
0.0220434
0.0400583
0.0410027
0.0456688
0.0243088
0.0127027
0.0214565
0.0221552
0.0233898
0.0234251
0.0213471
0.0237203
0.0390638
0.0377556
0.036033
0.0342985
0.0255963
0.0167738
0.0126025
0.0115799
0.0123795
0.018717
0.0137126
0.0120854
0.0108682
0.0140228
0.0487192
0.655491
1.86951
2.76108
4.21116
0.382234
0.176332
0.0649519
0.0873065
0.0668751
0.0773861
0.0749383
0.153261
0.175134
0.171318
0.110138
0.10631
0.077435
0.11407
0.116181
0.193449
0.371332
4.68138
3.92889
1.73786
0.820635
0.175735
0.134691
0.185102
0.273543
0.0850984
3.2698
1.33656
0.357584
1.40587
0.43084
0.0368894
0.0224432
0.0123052
0.0113616
0.0186176
0.0184222
0.0182208
0.0180038
0.0178177
0.0176684
0.0173604
0.0169385
0.0150997
0.0086465
0.00785233
0.00855956
0.00871731
0.00906316
0.00966542
0.0101851
0.0109003
0.0119976
0.0125783
0.0138309
0.0249209
0.016795
0.0198736
0.0168112
0.0193898
0.0345368
0.0231274
0.0268496
0.0194193
0.0183046
0.0166406
0.016032
0.0202086
0.0232924
0.027217
0.0274001
0.0233635
0.0205195
0.0193712
0.0175995
0.0149317
0.0143083
0.0129602
0.0138824
0.0191705
0.0165835
0.0152112
0.00946997
0.00959361
0.00852086
0.00731145
0.00608307
0.00621276
0.00638971
0.00693991
0.00760067
0.00869726
0.00962949
0.0104355
0.0111404
0.0119113
0.00964849
0.00918191
0.0096358
0.00714146
0.00762441
0.00762386
0.00788017
0.00835093
0.010733
0.0126999
0.0131802
0.0125101
0.0120956
0.0109283
0.0101487
0.00910689
0.0089838
0.00886529
0.00973444
0.00992145
0.0107374
0.0107384
0.011117
0.0106348
0.0123446
0.0151182
0.015259
0.0146159
0.0133606
0.0140119
0.0150716
0.0154568
0.0151446
0.0130181
0.0126796
0.0131085
0.0126975
0.0128908
0.0123176
0.0125055
0.0118372
0.0121866
0.0118457
0.0128163
0.0132029
0.015621
0.0158327
0.0146103
0.0129404
0.0137516
0.0147346
0.015136
0.0153284
0.0150333
0.0145325
0.0174468
0.0180151
0.0373067
0.0495225
0.0769706
0.133678
0.22543
0.0985293
0.127673
0.2887
0.223805
0.0893503
0.0463427
0.0305626
0.0306322
0.0246938
0.0236527
0.0238159
0.0275831
0.0213237
0.0274807
0.0319323
0.0484657
0.0661366
0.0882644
0.0503166
0.0302226
0.0186132
0.0200961
0.0354241
0.0405469
0.0328948
0.0277381
0.0295189
0.0215605
0.0253042
0.0261436
0.029051
0.029626
0.0297317
0.030306
0.0310082
0.031812
0.0327172
0.0338102
0.0336118
0.0313452
0.0321089
0.0320312
0.0313121
0.0310312
0.0300678
0.03015
0.0291346
0.0293102
0.0283115
0.0284688
0.0275482
0.0276816
0.0272325
0.0278349
0.0288786
0.0320427
0.0282124
0.0235058
0.0258662
0.0324849
0.0327605
0.0327158
0.0322573
0.0312037
0.0308896
0.0342032
0.036749
0.0355046
0.037548
0.0268211
0.0249858
0.0262331
0.026473
0.0282539
0.0287127
0.0303098
0.0303048
0.031508
0.031448
0.0325513
0.0325901
0.0337412
0.0341311
0.0351824
0.0360397
0.0371805
0.0838183
0.0828328
0.0821465
0.0767359
0.0735124
0.0678067
0.0663662
0.0626735
0.0631208
0.0597223
0.0597533
0.0559403
0.0547528
0.0507857
0.0473349
0.0567118
0.0476209
0.0642728
0.0531012
0.0899874
0.110389
0.0756224
0.0772071
0.059867
0.0628622
0.0649831
0.0682495
0.0693134
0.0723399
0.0732221
0.0775921
0.0822829
0.0910769
0.100073
0.108786
0.111216
0.117916
0.108698
0.083692
0.0765987
0.0848158
0.0844897
0.0742511
0.085623
0.065601
0.0791124
0.077159
0.0749726
0.0687657
0.0754982
0.0904662
0.0834847
0.0994874
0.100016
0.0635022
0.0736782
0.0684169
0.0503019
0.0497493
0.0436368
0.0323233
0.0284863
0.039348
0.0384865
0.0375657
0.036801
0.0362553
0.0356699
0.0357689
0.0365372
0.0414358
0.0283828
0.0176754
0.0136063
0.0141973
0.0112539
0.0103881
0.010959
0.0111979
0.0113588
0.011655
0.0121195
0.0115914
0.0113476
0.0112252
0.0110157
0.0108545
0.0109975
0.0109969
0.0111388
0.0108593
0.0108049
0.0109144
0.0108533
0.011079
0.0110144
0.0108316
0.0107446
0.0108962
0.0119689
0.0125197
0.0128009
0.0164598
0.0154896
0.0150865
0.0149424
0.0146385
0.013995
0.0091438
0.00922942
0.00936551
0.00929342
0.00996704
0.010242
0.0145996
0.0160957
0.0160434
0.0176509
0.0178318
0.0276001
0.0259056
0.0245608
0.0284218
0.0340322
0.0345755
0.0264167
0.0292708
0.0188198
0.0326953
0.0312637
0.0327626
0.0328602
0.0322401
0.0328662
0.0328584
0.0198812
0.0193551
0.0191266
0.0188494
0.0199792
0.0174
0.0108221
0.0117022
0.0110387
0.011504
0.0120228
0.0156597
0.0129227
0.0137801
0.0270574
0.0275109
0.024524
0.0277686
0.0333409
0.0422781
0.0507617
0.060218
0.0681098
0.0722292