/*--------------------------------*- C++ -*----------------------------------*\
| =========                 |                                                 |
| \\      /  F ield         | OpenFOAM: The Open Source CFD Toolbox           |
|  \\    /   O peration     | Version:  v2012                                 |
|   \\  /    A nd           | Website:  www.openfoam.com                      |
|    \\/     M anipulation  |                                                 |
\*---------------------------------------------------------------------------*/
FoamFile
{
    version     2.0;
    format      ascii;
    class       volScalarField;
    location    "45";
    object      k;
}
// * * * * * * * * * * * * * * * * * * * * * * * * * * * * * * * * * * * * * //

dimensions      [0 2 -2 0 0 0 0];


internalField   nonuniform List<scalar> 
22960
(
0.0345889
0.0218224
0.0183251
0.0154097
0.0132174
0.0134572
0.0108835
0.0136942
0.0138982
0.0133628
0.0127296
0.014873
0.0170318
0.0183018
0.0183284
0.017849
0.0171633
0.0204418
0.0292306
0.034593
0.0355367
0.0244302
0.0346948
0.0386026
0.0258567
0.0189157
0.0196647
0.0211338
0.02195
0.0224078
0.0226943
0.0228974
0.023132
0.0234693
0.0239584
0.0246485
0.0256258
0.0268002
0.0280787
0.0316966
0.0339653
0.035426
0.0365985
0.0375872
0.0385463
0.0394773
0.0404095
0.0411947
0.0415455
0.0461227
0.0499636
0.047257
0.0451979
0.0436509
0.0423983
0.0412341
0.0400355
0.0384275
0.0366654
0.0345195
0.0320525
0.0290681
0.0243031
0.0190627
0.0149267
0.0129206
0.0175077
0.018615
0.0188795
0.019099
0.0218357
0.0228086
0.0226118
0.0224244
0.0223182
0.022269
0.0222229
0.0221002
0.0218238
0.0212056
0.0199768
0.0195462
0.0196737
0.0197639
0.0189648
0.0141305
0.0235752
0.0242517
0.0235178
0.0262444
0.0320947
0.0363176
0.0383095
0.0383868
0.0357948
0.0333076
0.028989
0.0256247
0.0225831
0.0192697
0.0154508
0.0152866
0.0131516
0.013257
0.0150347
0.0142326
0.0140529
0.0134035
0.0148321
0.0184877
0.0258336
0.0270304
0.0262623
0.0255563
0.0253089
0.0251477
0.0248169
0.0264685
0.0278791
0.0290558
0.0315086
0.0342819
0.0360056
0.0348638
0.0296686
0.025296
0.0227225
0.0215611
0.0201272
0.0228628
0.0242437
0.0240648
0.0252973
0.0262682
0.0273612
0.0330148
0.033403
0.0314458
0.0287767
0.026043
0.0243451
0.0224676
0.0205155
0.0205763
0.0212246
0.0220453
0.0231218
0.0240256
0.0233321
0.0192776
0.0177957
0.0161227
0.015652
0.0171004
0.0171009
0.0177591
0.0145107
0.0160354
0.0200318
0.016806
0.0177008
0.0182723
0.0187991
0.0195723
0.020323
0.0195498
0.0188936
0.018183
0.0171841
0.0159305
0.0142956
0.0120353
0.011433
0.00958984
0.00984256
0.0102285
0.0104617
0.0105587
0.0105984
0.0112871
0.0133025
0.0147695
0.0150512
0.014961
0.0145591
0.0137614
0.0125655
0.0113222
0.0141479
0.0162048
0.0173663
0.0179941
0.018276
0.0182514
0.0176387
0.0145124
0.0119736
0.0108866
0.0115603
0.01148
0.0108929
0.00833954
0.00733284
0.00930518
0.0107023
0.0110565
0.0115732
0.011911
0.0122045
0.0124443
0.0125803
0.0124206
0.012272
0.0123391
0.0128285
0.0138712
0.0153998
0.0169621
0.0198422
0.0242019
0.0293787
0.0344993
0.0386878
0.0415524
0.0429855
0.0431869
0.0418802
0.0388222
0.0389171
0.0465748
0.0454511
0.0411488
0.0372326
0.0335266
0.0301005
0.027475
0.0240568
0.0208886
0.0181981
0.0154226
0.0121645
0.00837827
0.0065718
0.00531905
0.00559276
0.006144
0.00689238
0.00789617
0.00812234
0.0113016
0.0191598
0.02997
0.041786
0.0523436
0.061109
0.0689128
0.0699159
0.0677222
0.0604291
0.0319859
0.0301832
0.0285608
0.0254518
0.0218256
0.0188008
0.0163901
0.0146142
0.0157457
0.018074
0.0167884
0.0152463
0.0125737
0.0129138
0.0138628
0.0143649
0.0149044
0.0147781
0.0149165
0.0144947
0.0144212
0.0138097
0.0136078
0.0128794
0.0127422
0.0120876
0.0115619
0.0117043
0.0133878
0.0150311
0.0174744
0.0191947
0.0201118
0.0205536
0.0211733
0.0211334
0.0233284
0.0231001
0.02253
0.0218402
0.0208495
0.0193178
0.0178379
0.0166774
0.0157506
0.0149653
0.0140339
0.0139165
0.0161493
0.0172282
0.0183968
0.0190193
0.0162507
0.0167782
0.0169067
0.017754
0.0178398
0.0186499
0.0185595
0.0192802
0.0189425
0.0194764
0.0188192
0.0190625
0.0189532
0.0196113
0.0208789
0.0216826
0.0228984
0.0265261
0.0293453
0.0318421
0.0348581
0.0374745
0.039738
0.0426159
0.0457028
0.047033
0.0490692
0.0364231
0.0341631
0.0273777
0.0216686
0.021349
0.0211892
0.0208896
0.0204236
0.0200696
0.0197989
0.0195922
0.0193924
0.0192219
0.01905
0.0188731
0.0187006
0.018552
0.0184019
0.0183373
0.0182848
0.0185584
0.0189516
0.0196692
0.0203923
0.0210047
0.0209295
0.0252943
0.027516
0.0285568
0.0290156
0.0291506
0.0288216
0.0329943
0.033334
0.0329262
0.0321739
0.0308003
0.0281682
0.0225851
0.0257927
0.0286305
0.0312418
0.0334481
0.0355352
0.0374679
0.0393246
0.0412612
0.0448591
0.0459799
0.0468888
0.0449397
0.0422099
0.0395218
0.0368842
0.0334479
0.0288732
0.0217133
0.0185676
0.0169537
0.0149637
0.014324
0.0129383
0.0124832
0.0145969
0.0169211
0.0175891
0.0181776
0.0184223
0.018669
0.0207411
0.0221993
0.0225238
0.0227098
0.0228458
0.0229325
0.0229549
0.0229011
0.0229096
0.0226802
0.0224075
0.0222954
0.0221478
0.0217455
0.0212431
0.0203639
0.0187753
0.0159877
0.0150941
0.0143542
0.0141318
0.0139238
0.013903
0.0136313
0.0137578
0.0134524
0.0135725
0.0131986
0.0132797
0.0127719
0.0127163
0.0120804
0.0121018
0.0114654
0.0106234
0.0100929
0.0109058
0.0127109
0.016007
0.0182143
0.019159
0.0197722
0.0207919
0.0211096
0.0223902
0.0224859
0.0215869
0.0200214
0.0219978
0.02797
0.0246538
0.0258254
0.0245176
0.0298582
0.0272462
0.0244631
0.0245152
0.0254488
0.0264858
0.0271757
0.0229061
0.022204
0.0234155
0.0191637
0.0223601
0.0228902
0.0232427
0.0237442
0.0237633
0.0237169
0.0322236
0.0411972
0.0434674
0.0407853
0.0360593
0.0347806
0.0402784
0.0381989
0.0288421
0.0366661
0.0413961
0.0488971
0.0443477
0.0464217
0.0471632
0.0500818
0.0470892
0.0475859
0.0482351
0.0475682
0.045263
0.0445243
0.0402242
0.0434122
0.0459886
0.054942
0.0650037
0.0825266
0.0907007
0.0943891
0.0907591
0.0412113
0.0279247
0.0314829
0.0368103
0.0389161
0.0562189
0.0729787
0.0938199
0.128424
0.129081
0.109658
0.0886918
0.0681935
0.0456367
0.0233062
0.0102136
0.00949022
0.0100517
0.0110808
0.0124752
0.0133623
0.0208276
0.020243
0.0190795
0.0186329
0.0161403
0.0176112
0.0185615
0.0190962
0.0192518
0.0188363
0.0190574
0.0196476
0.020165
0.01997
0.0198519
0.019774
0.0187411
0.0181463
0.0160308
0.0139038
0.012404
0.011774
0.0120719
0.0121243
0.0120466
0.0118336
0.0149787
0.0128752
0.012232
0.0123793
0.0123631
0.0117715
0.0137477
0.0165263
0.018055
0.0184026
0.0182556
0.0175257
0.0164854
0.0152013
0.0145852
0.0144389
0.0139653
0.0136729
0.0133274
0.0128
0.0122254
0.0113451
0.0099464
0.00774497
0.00680939
0.00621703
0.00650394
0.00740225
0.0079959
0.00844354
0.00927299
0.0154859
0.0287583
0.0424812
0.0554328
0.0669372
0.077561
0.0859003
0.0868966
0.0842915
0.073969
0.0303129
0.029306
0.0271534
0.0234806
0.0204683
0.0178774
0.0156834
0.0140045
0.014569
0.0174796
0.0182072
0.0209365
0.0210997
0.0223857
0.0229378
0.0241572
0.0244519
0.0305492
0.0526074
0.084289
0.103947
0.130521
0.172084
0.186499
0.18959
0.175694
0.142184
0.109113
0.086421
0.0609481
0.0339887
0.0162192
0.0114252
0.0431808
0.0327107
0.0250842
0.032796
0.0306737
0.0281703
0.0277838
0.0314738
0.0260343
0.0171199
0.0170921
0.0182085
0.0189489
0.0193482
0.0195511
0.0194085
0.0190093
0.0185833
0.017843
0.0167895
0.0179738
0.0237425
0.0287504
0.0309485
0.0290711
0.0306811
0.0333253
0.035826
0.0389771
0.0410423
0.0433202
0.0462228
0.0518806
0.0570683
0.0606276
0.0717172
0.083591
0.0963591
0.109274
0.115668
0.118401
0.116749
0.109247
0.0946208
0.0794106
0.0536852
0.0352047
0.0406417
0.0591454
0.0669021
0.0712907
0.0721843
0.0722425
0.0713784
0.0695334
0.0675108
0.0646644
0.0613953
0.0543273
0.0556377
0.0569162
0.0577077
0.0586146
0.0586349
0.0584815
0.0572514
0.0552906
0.0453645
0.0340956
0.0299759
0.0316776
0.0384621
0.0450559
0.0487383
0.050373
0.0498695
0.0516348
0.0505149
0.0514976
0.0495454
0.0492046
0.046688
0.0426826
0.0410421
0.0394662
0.0355829
0.037146
0.034583
0.0326216
0.0310095
0.0283727
0.0270796
0.0251983
0.0259588
0.0237418
0.0248466
0.0260841
0.0268225
0.0293938
0.0299956
0.0324112
0.0308732
0.0327708
0.0330081
0.0362664
0.0366781
0.0366896
0.043751
0.0435193
0.0417549
0.0388982
0.0328754
0.0290714
0.0258167
0.0259944
0.0251294
0.0239637
0.0226846
0.0212364
0.0220241
0.0222652
0.0222698
0.0223229
0.0230245
0.0232766
0.0228556
0.0289803
0.0256588
0.0210451
0.0208811
0.0205538
0.0203093
0.0200586
0.0198103
0.0194912
0.0192562
0.0189909
0.0188069
0.0193338
0.0196663
0.020564
0.0211982
0.0223397
0.022967
0.0239192
0.0245279
0.0249669
0.0252213
0.0254266
0.0257363
0.0262265
0.0268467
0.0268691
0.0248769
0.0243879
0.0246792
0.026227
0.0312301
0.0159383
0.0176545
0.0183483
0.0185297
0.0204102
0.0239263
0.025845
0.0259945
0.0252488
0.023716
0.0219631
0.0197526
0.0209174
0.0231775
0.0248701
0.0260112
0.0268107
0.0278799
0.0299353
0.0312829
0.0313191
0.0311424
0.0297925
0.0336693
0.0343582
0.0347015
0.0342795
0.0471513
0.0511852
0.0480717
0.0468771
0.0506221
0.0453124
0.0398774
0.042296
0.0261781
0.0248873
0.0307265
0.0302381
0.0331667
0.0323319
0.0290457
0.0281265
0.0335485
0.0325624
0.03196
0.0326594
0.0336266
0.0337553
0.0334075
0.0301695
0.0286607
0.0318529
0.0353185
0.0371232
0.0394268
0.0405635
0.0381552
0.0433292
0.0414078
0.0440365
0.0455036
0.0362328
0.0297169
0.032656
0.0311066
0.0344793
0.0394383
0.0438643
0.0475305
0.0527802
0.0594654
0.0678745
0.0778466
0.0825183
0.0848049
0.0756961
0.0646974
0.0561627
0.0495645
0.0444279
0.0406497
0.0380135
0.0357281
0.0350032
0.0335818
0.0308967
0.0334066
0.0358729
0.0383092
0.0407839
0.0433145
0.0459183
0.0491755
0.0579538
0.058062
0.0567235
0.0529768
0.0487977
0.0451319
0.0417441
0.0378839
0.0342661
0.0294339
0.0269589
0.0248749
0.0231665
0.0211231
0.0196751
0.0171212
0.0161298
0.0189567
0.0203315
0.0232341
0.0250098
0.0269343
0.0303009
0.0328311
0.0364732
0.0392725
0.0410973
0.0446084
0.0484932
0.052995
0.0587196
0.064839
0.0689589
0.0711787
0.0568384
0.0511981
0.0475474
0.0442859
0.0413313
0.0386264
0.0360883
0.0374622
0.039958
0.0429018
0.0469507
0.0523801
0.0601837
0.0717042
0.0908118
0.0832343
0.0725565
0.0631615
0.0557258
0.050201
0.0459603
0.0427655
0.0389929
0.0377295
0.0394803
0.036338
0.0354558
0.0328381
0.0306539
0.0282026
0.0262794
0.0233536
0.0230172
0.0262855
0.029076
0.0318162
0.0334139
0.0347247
0.0375565
0.0347787
0.0326734
0.0311622
0.0288928
0.0269657
0.0295429
0.0308964
0.0288374
0.0286765
0.0291102
0.029566
0.0264505
0.0293447
0.0321641
0.0321128
0.0291952
0.0271231
0.0318741
0.0327543
0.0349552
0.0342884
0.0331227
0.0306919
0.0262077
0.0292732
0.0340608
0.0356428
0.0299203
0.0277301
0.0309979
0.0215561
0.0220611
0.0190476
0.0302202
0.0367969
0.0379881
0.0410807
0.03882
0.0373746
0.0364857
0.0319924
0.0316908
0.0282226
0.0340874
0.0339621
0.0297899
0.0281411
0.0308441
0.029603
0.0334729
0.0342033
0.032686
0.0311884
0.0254272
0.0281524
0.0311404
0.0329223
0.030775
0.0337916
0.0312848
0.0304553
0.035221
0.0356698
0.0323126
0.0296099
0.027415
0.0229748
0.0305505
0.0315175
0.0353038
0.0360753
0.030122
0.025215
0.0261871
0.0156821
0.0187056
0.0198645
0.0203752
0.0199908
0.0243634
0.0238909
0.023408
0.0230354
0.0227739
0.0226048
0.0225545
0.0226455
0.0226862
0.0225942
0.0225492
0.0226163
0.0226098
0.0225489
0.0226391
0.0228193
0.0232668
0.023955
0.0241953
0.024633
0.0252506
0.0253949
0.0251949
0.0251712
0.0230854
0.0211813
0.0173132
0.0166738
0.0175885
0.018197
0.018528
0.0187729
0.0185947
0.0175081
0.016994
0.0178303
0.0181014
0.0180355
0.017923
0.0174594
0.0167634
0.0164934
0.0157408
0.0172182
0.0199822
0.0206899
0.0255231
0.0237183
0.0228022
0.022644
0.0226389
0.0225853
0.022492
0.0224033
0.0223939
0.0224879
0.0226599
0.0228941
0.0232217
0.0234852
0.0190607
0.0191637
0.0190605
0.0183642
0.017136
0.0176984
0.0184538
0.0187246
0.0183802
0.0183018
0.0233442
0.0238131
0.0238543
0.0232992
0.0229713
0.0227528
0.0226227
0.022563
0.0227193
0.0228918
0.0231474
0.0235726
0.0242105
0.0253495
0.0270145
0.024046
0.0249443
0.0190871
0.0183382
0.0186702
0.0194427
0.0197558
0.0197076
0.0210543
0.0214223
0.0207101
0.0195885
0.0245385
0.0256166
0.0247194
0.0270898
0.0199848
0.0325011
0.0356865
0.0357626
0.0375637
0.0339893
0.0344798
0.0313316
0.0321373
0.0305397
0.0288619
0.0269422
0.0281695
0.0298539
0.0309515
0.029091
0.0299065
0.0270761
0.0311446
0.0332917
0.0319527
0.0344851
0.0323415
0.0324429
0.0307757
0.0325563
0.0304355
0.0299513
0.0287696
0.0291053
0.0297594
0.0312086
0.0215823
0.0234903
0.0250326
0.0260815
0.0269792
0.0261767
0.0264205
0.0274112
0.0287767
0.0286893
0.0285816
0.0289935
0.0274172
0.0307602
0.0323521
0.0318927
0.029327
0.0295281
0.0307962
0.0264992
0.0250966
0.0268667
0.0275243
0.0256255
0.0248491
0.0235519
0.0216656
0.0213847
0.0227417
0.0239495
0.0249116
0.0253547
0.0258948
0.0247701
0.0253458
0.0259984
0.0268512
0.025957
0.0251685
0.0246629
0.0243291
0.0240005
0.0242046
0.0250508
0.0278645
0.029185
0.0286207
0.0236268
0.0204867
0.0205305
0.0203694
0.0192041
0.0339592
0.0399331
0.0323421
0.0284634
0.0285656
0.0283714
0.0284064
0.0267888
0.0277791
0.0287597
0.0288533
0.0284758
0.0266734
0.0276612
0.0281772
0.0296795
0.0304131
0.030652
0.0282428
0.0273285
0.0299456
0.0298939
0.0338573
0.0305782
0.033777
0.0350104
0.0330604
0.0322241
0.0287157
0.0243648
0.0272284
0.0297264
0.0320021
0.0311972
0.0320385
0.0338099
0.0328814
0.0323547
0.0325974
0.0331867
0.0325549
0.0325696
0.0287436
0.0295266
0.029715
0.0292218
0.0301996
0.0316336
0.0340417
0.033231
0.0313904
0.0330389
0.0327482
0.0339199
0.0328434
0.0317042
0.0305134
0.031224
0.0325896
0.0321038
0.0331346
0.033152
0.0324719
0.0324692
0.0301472
0.029899
0.0331739
0.0300691
0.033718
0.0340978
0.03326
0.0329983
0.0305664
0.0319518
0.0318453
0.0340293
0.0329801
0.0316998
0.0269525
0.0271598
0.0267039
0.0259204
0.0270013
0.0289245
0.0281802
0.0271526
0.0256202
0.0268253
0.0242178
0.0260719
0.0231758
0.0254635
0.0243868
0.0227124
0.0250409
0.0269063
0.0278922
0.0281695
0.0299589
0.0253852
0.0224544
0.0274406
0.0344825
0.0279686
0.0282633
0.0354159
0.0351751
0.0326758
0.0365823
0.0221758
0.0282771
0.0306906
0.0316374
0.0310672
0.0338619
0.0330499
0.0319944
0.0308514
0.0291462
0.0286228
0.0337723
0.0299986
0.0322247
0.0284549
0.026302
0.0249423
0.0241931
0.0236244
0.0231605
0.0228201
0.0225567
0.0221393
0.0214073
0.0206107
0.0164607
0.0183681
0.0202215
0.0184375
0.0162266
0.0163795
0.0168752
0.0173386
0.0175118
0.0174842
0.0173904
0.0170206
0.0163343
0.0156111
0.0161415
0.0165767
0.0168372
0.0169873
0.0170295
0.0168807
0.0166404
0.0172316
0.0177318
0.0179706
0.0179684
0.0179086
0.0173967
0.0167508
0.0181492
0.020107
0.0221145
0.0230609
0.0237783
0.0246972
0.0259013
0.0277773
0.0304427
0.0343378
0.0365096
0.0323992
0.0294894
0.0272195
0.0255509
0.0242587
0.0228033
0.0195334
0.0160507
0.0160908
0.0176091
0.0191371
0.0200991
0.0206293
0.0208954
0.021624
0.0249423
0.026291
0.0259725
0.0212031
0.0153004
0.0197854
0.0208465
0.0260583
0.0270283
0.0239188
0.0222157
0.0199234
0.0253353
0.028806
0.0279909
0.0275221
0.02556
0.0232697
0.0215729
0.0194909
0.018527
0.0173841
0.0171544
0.0170101
0.0169846
0.016305
0.0166051
0.0170633
0.0161365
0.0142609
0.0119281
0.0133678
0.0146941
0.0151335
0.0150532
0.0163401
0.0163378
0.016437
0.0165521
0.0165813
0.0166972
0.0166587
0.0167429
0.016598
0.0166303
0.0164328
0.0164284
0.0163694
0.0168224
0.0204667
0.0172917
0.0172314
0.0171314
0.0170291
0.0167536
0.0165478
0.0164634
0.0162898
0.016219
0.0160641
0.0159801
0.0158227
0.0156719
0.0154325
0.0147912
0.0148804
0.0140842
0.0138464
0.0136212
0.01338
0.0140283
0.0142147
0.0149858
0.0151792
0.0153807
0.0155277
0.0157274
0.0158729
0.0160563
0.0161851
0.0163437
0.0172902
0.0173967
0.0179598
0.0176935
0.0178249
0.0184396
0.0170298
0.0167528
0.0164164
0.0162493
0.0161981
0.016113
0.0159715
0.0158026
0.0156182
0.0154447
0.0152686
0.0150765
0.0149039
0.0147369
0.0146977
0.0144699
0.0136582
0.0134564
0.0124355
0.0123226
0.0124947
0.0122993
0.0120332
0.0115434
0.0114385
0.0114778
0.012601
0.0129528
0.0136372
0.0139832
0.0142651
0.0143903
0.0145775
0.0148139
0.0150823
0.0153637
0.0156713
0.0159974
0.0162806
0.0164674
0.0165275
0.0164853
0.0165207
0.0167507
0.0168845
0.0168561
0.0176265
0.0169198
0.0167241
0.0168217
0.0179449
0.017398
0.0169808
0.0171322
0.0177199
0.0178111
0.017723
0.0176808
0.0172899
0.0167352
0.0159635
0.0141705
0.0148411
0.0156049
0.0164203
0.0167587
0.0172735
0.0175869
0.0178327
0.0181989
0.0178911
0.017897
0.0179027
0.0178361
0.0177387
0.0174417
0.0172375
0.0168456
0.0166105
0.0162247
0.0160219
0.0157104
0.0155222
0.0152552
0.0150822
0.0148593
0.0147017
0.0140879
0.0140537
0.0137974
0.0136287
0.0135162
0.0133626
0.0134779
0.0137074
0.0141545
0.014128
0.0136573
0.012978
0.012626
0.0124273
0.0122689
0.0114452
0.0117304
0.0125737
0.0127035
0.013199
0.0138033
0.0139907
0.0142283
0.0142636
0.0147862
0.0148383
0.0150223
0.0151277
0.0153502
0.0154682
0.0157209
0.0158437
0.0161145
0.0162365
0.0164637
0.0165341
0.0166734
0.0166851
0.0167001
0.0166224
0.0168482
0.0173596
0.0177591
0.0182524
0.0181287
0.0183517
0.0178973
0.0179354
0.0171639
0.016871
0.0162594
0.0159265
0.0155964
0.015313
0.0150842
0.0148513
0.0146296
0.0144545
0.0142523
0.0142275
0.0141814
0.0138953
0.0134732
0.0134526
0.0134576
0.0136996
0.0139904
0.014257
0.0143762
0.0146422
0.0147206
0.0150271
0.0153426
0.0156995
0.0161871
0.0168015
0.0176813
0.0182595
0.0194514
0.019579
0.0202015
0.0200219
0.0201253
0.0193346
0.0187821
0.0199538
0.0205369
0.0211641
0.0209198
0.0208996
0.0204521
0.0199347
0.0188898
0.0181446
0.0172508
0.0164124
0.0158772
0.0154047
0.0150151
0.014961
0.0145852
0.0144399
0.0140866
0.0137254
0.0133984
0.0131025
0.0129201
0.0129668
0.0132266
0.0135348
0.0138822
0.0141949
0.0144565
0.0147718
0.0150834
0.0153457
0.0157505
0.0158453
0.0154639
0.0147955
0.0143936
0.0140862
0.0137569
0.0135117
0.0132898
0.0133855
0.0133651
0.0135117
0.0137288
0.0145282
0.0149184
0.0158676
0.0158669
0.0163412
0.0163557
0.0165764
0.0171495
0.0177715
0.0184523
0.0193579
0.020506
0.0213681
0.022584
0.0248275
0.025104
0.0253181
0.0251756
0.0219608
0.0220964
0.0239144
0.0243401
0.0242649
0.0233991
0.0242212
0.02228
0.0220426
0.0203475
0.0212517
0.0214321
0.0207258
0.0199714
0.0190315
0.0182344
0.0174011
0.0166315
0.0275249
0.0266664
0.0304378
0.0285178
0.0303733
0.0256522
0.0278142
0.0241328
0.0232601
0.0227539
0.0238386
0.024093
0.0280721
0.0313782
0.245442
0.503639
0.188215
0.191222
0.195242
0.194717
0.180928
0.190835
0.206404
0.175018
0.21678
0.183259
0.215615
0.177317
0.194319
0.195513
0.0314678
0.0355169
0.0382605
0.0406148
0.0369702
0.0357793
0.0549857
0.248298
0.518348
0.511279
0.511246
0.5059
0.501845
0.506047
0.512534
0.506752
0.507647
0.511358
0.400905
0.239298
0.0560454
0.0330145
0.0521323
0.065236
0.302785
0.529402
0.543031
0.514331
0.504004
0.502434
0.503621
0.509695
0.507551
0.511069
0.509806
0.51166
0.508215
0.510073
0.511166
0.50344
0.503933
0.501737
0.503458
0.501511
0.501233
0.501722
0.503864
0.510656
0.506839
0.536017
0.336463
0.11451
0.0679397
0.3065
0.321591
0.0735902
0.0534817
0.281051
0.533345
0.505299
0.502514
0.502596
0.501578
0.501029
0.500928
0.5011
0.501112
0.501648
0.501676
0.503575
0.511882
0.5106
0.508668
0.511207
0.503363
0.501566
0.501029
0.50112
0.50093
0.500937
0.500845
0.500986
0.501297
0.501552
0.502602
0.519708
0.280443
0.0555388
0.0645153
0.282578
0.522537
0.502436
0.501207
0.500958
0.500816
0.500787
0.500742
0.500831
0.500867
0.501018
0.501538
0.503593
0.51037
0.504365
0.248085
0.249008
0.252548
0.241095
0.503931
0.508538
0.503182
0.501605
0.501367
0.501317
0.500831
0.500802
0.500752
0.500798
0.500799
0.501811
0.519234
0.282459
0.0642145
0.0579239
0.272834
0.52556
0.502408
0.500184
0.500596
0.50031
0.501064
0.503835
0.504309
0.504367
0.505123
0.509329
0.505352
0.251137
0.168036
0.183046
0.50693
0.511058
0.513042
0.513322
0.516424
0.502365
0.517998
0.50169
0.520273
0.349335
0.366442
0.0618735
0.0565726
0.0755149
0.378718
0.348212
0.0661636
0.0853806
0.366621
0.294373
0.0484764
0.0395748
0.216361
0.212281
0.0358332
0.0330901
0.209875
0.197977
0.0304711
0.0274717
0.0241766
0.0301201
0.0300083
0.0332526
0.0324952
0.0365634
0.0541393
0.0267094
0.0211831
0.0205538
0.0265001
0.0445629
0.0418569
0.0576458
0.0633778
0.0798725
0.0654875
0.0568516
0.0743902
0.148896
0.071722
0.0441946
0.0447831
0.141191
0.0334125
0.0196322
0.0159966
0.0169648
0.0175976
0.0173184
0.0217758
0.0201947
0.0233224
0.0184857
0.0194551
0.0241002
0.043687
0.0499931
0.0571053
0.0413813
0.0369836
0.0530393
0.066283
0.0751022
0.0610815
0.0415764
0.0991691
0.0417554
0.148432
0.146113
0.257331
1.12948
0.744492
0.665471
0.67237
0.673781
0.749455
1.24449
0.556067
0.0667263
0.0286582
0.109881
0.044738
0.0379141
0.0532745
0.0631149
0.125775
0.0338496
0.0275054
0.0180344
0.0138606
0.0151749
0.0188437
0.0201806
0.0172181
0.0164422
0.0158307
0.0171034
0.0187834
0.0200042
0.0177508
0.0198338
0.0188536
0.0212636
0.0217928
0.0321785
0.023794
0.0154444
0.0236964
0.04457
0.0593559
0.0407867
0.0306254
0.0490408
0.0912624
0.0993865
0.0587463
0.150599
0.0385886
0.0807406
0.110446
0.151548
0.70615
0.179054
0.0743184
0.027312
0.0161991
0.0203565
0.029397
0.0197161
0.0170093
0.0167688
0.0189388
0.0189791
0.0172008
0.0153252
0.0149921
0.0171559
0.0164624
0.0141422
0.0147711
0.0147026
0.0150221
0.0164318
0.0167348
0.0150428
0.0155358
0.0157863
0.0174912
0.0174811
0.0306762
0.0181634
0.0177634
0.0292076
0.0219961
0.0375214
0.019231
0.0282252
0.0196771
0.0190263
0.0435816
0.0241597
0.0204367
0.0438735
0.0241408
0.0205522
0.0395161
0.0225434
0.0190079
0.034058
0.0173231
0.0234568
0.0241268
0.0278371
0.0253694
0.0269155
0.0282621
0.0258458
0.0465097
0.0244183
0.0196934
0.018591
0.0177381
0.0184787
0.0195778
0.0210884
0.0214768
0.0219796
0.0217373
0.0215957
0.0218777
0.0223807
0.022725
0.0224009
0.0218032
0.0201042
0.0188544
0.0190382
0.0204024
0.0223506
0.0232118
0.0233669
0.0231657
0.0695295
0.171069
0.122787
0.0829593
0.0962444
0.147634
0.178883
0.10098
0.0799531
0.0459839
0.0669418
0.0522809
0.0589786
0.0451793
0.0375733
0.0330169
0.0407808
0.0344577
0.0355367
0.0331078
0.0572503
0.0414863
0.0439499
0.03734
0.0477041
0.0626945
0.101115
0.0778307
0.0564132
0.0610479
0.0873283
0.100177
0.0609788
0.024057
0.0237386
0.0226106
0.0204381
0.0189104
0.018342
0.0200898
0.0224435
0.0238786
0.0237085
0.0215694
0.0190882
0.0172142
0.0156157
0.017416
0.0199177
0.0228887
0.0209397
0.0177771
0.0151951
0.0138211
0.0149842
0.0164441
0.0192544
0.0216776
0.0229682
0.0246979
0.0246499
0.0244209
0.0232366
0.0227964
0.0215349
0.0203757
0.0194238
0.0183998
0.0176999
0.0169755
0.0163393
0.0159458
0.0155348
0.0150675
0.0146174
0.0142402
0.0139589
0.0136018
0.0132922
0.0132854
0.0131882
0.013211
0.0124771
0.0125218
0.0122082
0.01153
0.0119502
0.0122304
0.0124641
0.0128368
0.0132216
0.0135765
0.0138597
0.0141438
0.0220796
0.0172961
0.0158364
0.0174142
0.0182784
0.0303039
0.0363962
0.0210537
0.0183976
0.0164089
0.0203146
0.0326784
0.0448775
0.0334152
0.0247241
0.0332808
0.044379
0.0537423
0.0406704
0.0996859
0.0259838
0.028234
0.0535802
0.110799
0.429598
0.0479442
0.0227222
0.0160046
0.0133288
0.014611
0.0171744
0.0181955
0.0161332
0.0153653
0.0139864
0.0149698
0.0163684
0.0175003
0.0162064
0.018184
0.0162813
0.0181548
0.0190966
0.0305352
0.0234582
0.0147832
0.0197738
0.016938
0.0219853
0.0231914
0.040774
0.0500207
0.0347144
0.0262654
0.0369622
0.0133277
0.0129873
0.0128695
0.013197
0.0150785
0.0142013
0.0144456
0.0191725
0.0158732
0.0162791
0.0162426
0.0142282
0.0137079
0.0136143
0.0148603
0.0247726
0.0183802
0.0349236
0.0700022
0.0598807
0.0601937
0.205176
0.212996
0.209343
0.155531
0.0576505
0.0876423
0.125039
0.115945
0.0911226
0.0617209
0.0582724
0.0703569
0.0579516
0.0304926
0.0319348
0.0328293
0.0301556
0.0276162
0.0274475
0.0276647
0.0282318
0.0277466
0.0337882
0.0319072
0.0350162
0.0300343
0.0303165
0.0373178
0.0516993
0.0497696
0.0361124
0.0470544
0.0310519
0.0566446
0.0756634
0.102801
0.137224
0.10009
0.066641
0.0463844
0.0651631
0.0694518
0.102239
0.119233
0.103011
0.112906
0.0807833
0.069519
0.103162
0.0572774
0.0316068
0.0356749
0.0379145
0.0398766
0.11355
0.0637077
0.0669538
0.0404814
0.0569466
0.125399
0.0346644
0.0324832
0.0298139
0.0290738
0.0300962
0.024024
0.0353304
0.0176026
0.0229485
0.0233511
0.0422171
0.0255582
0.0285018
0.0271733
0.0275652
0.0639183
0.0313656
0.0365891
0.0297678
0.0313384
0.112196
0.0419229
0.0486537
0.0338758
0.0276915
0.0913256
0.04027
0.0336095
0.0242492
0.023979
0.0160904
0.0175516
0.0205583
0.0211304
0.0230824
0.0224615
0.0239211
0.0227311
0.0222207
0.0213204
0.0210658
0.0198064
0.0191956
0.0180229
0.0174304
0.0167026
0.0162134
0.0157945
0.0154461
0.0150458
0.0146522
0.0143043
0.0140693
0.014001
0.0138158
0.0129893
0.0145373
0.0131964
0.0138037
0.0134831
0.0132828
0.0127569
0.0126392
0.0122656
0.0117429
0.0119018
0.0122958
0.0126198
0.0129699
0.0132845
0.0135339
0.0133224
0.0130209
0.012655
0.0122685
0.0121696
0.0118213
0.0122916
0.0125584
0.0128461
0.012524
0.0128643
0.0132078
0.0134069
0.0131245
0.0132594
0.012968
0.0126496
0.0123515
0.0126728
0.0129454
0.0133079
0.0137406
0.0142116
0.0135425
0.0240137
0.0175556
0.020331
0.0266342
0.0350503
0.0304506
0.0248862
0.0189323
0.0256047
0.0317061
0.0323779
0.0233088
0.0193229
0.0194131
0.0167027
0.015577
0.0178863
0.020631
0.0329155
0.0759054
0.0297163
0.0238846
0.0363124
0.0266899
0.0267681
0.0246062
0.0194269
0.0235495
0.0158602
0.0203643
0.0168775
0.0154381
0.0170881
0.0178667
0.0265229
0.0160131
0.0149108
0.0138427
0.0155148
0.014609
0.013013
0.0144957
0.013609
0.0145937
0.0155389
0.0164464
0.0153882
0.0129255
0.0124084
0.0125865
0.0138599
0.0128152
0.0132918
0.0136716
0.0137396
0.013777
0.0139195
0.0135351
0.0128833
0.01247
0.0121924
0.0123351
0.0124825
0.0139074
0.0123951
0.0127813
0.0134183
0.0132356
0.013248
0.0141513
0.0128985
0.0125281
0.0125646
0.0121634
0.0154408
0.0122448
0.0126105
0.0136663
0.0148606
0.0156217
0.0133925
0.017921
0.0127634
0.0127547
0.0123156
0.011871
0.0121017
0.012274
0.017984
0.013419
0.0158244
0.0151097
0.0146467
0.0137519
0.0139398
0.0134622
0.0130602
0.0124726
0.0157975
0.0134677
0.0133391
0.012277
0.0126926
0.0130675
0.0206101
0.0249598
0.0250655
0.024742
0.0234556
0.0196416
0.0162249
0.0143185
0.0137542
0.0143756
0.017654
0.0156212
0.0146128
0.0151848
0.018688
0.0278128
0.120368
0.300173
0.414973
0.586688
0.0796659
0.0464227
0.0248883
0.0292193
0.0242908
0.0272989
0.0263403
0.0417586
0.0454288
0.0440396
0.0313014
0.0310315
0.0269761
0.0342691
0.0339414
0.0487043
0.0774002
0.606561
0.507686
0.253548
0.142518
0.0503077
0.0451625
0.0531197
0.0648098
0.0294692
0.410847
0.204489
0.0795441
0.232366
0.10331
0.0350846
0.0261592
0.0213518
0.0203488
0.0160647
0.0159625
0.0158516
0.0157248
0.01561
0.0155103
0.0153601
0.0152393
0.0150257
0.0147093
0.0155957
0.0164689
0.0172477
0.0178649
0.0195688
0.0208791
0.0229134
0.0253424
0.0268554
0.0267237
0.0440687
0.0301929
0.0366854
0.0334334
0.0380661
0.049672
0.0411774
0.0438697
0.018375
0.0193151
0.0180964
0.0166919
0.0173584
0.0169867
0.0173966
0.0172037
0.0169992
0.0175649
0.0310489
0.0303788
0.0296449
0.0307101
0.028818
0.031084
0.0458536
0.0435553
0.0422768
0.0298962
0.0210125
0.0277852
0.0230069
0.0233067
0.0218652
0.0205475
0.0213659
0.0182461
0.0198686
0.0212847
0.0226545
0.0238613
0.0251837
0.0218637
0.021378
0.0202454
0.0139213
0.0144156
0.013923
0.0134257
0.0126507
0.0113229
0.00932797
0.00814819
0.0069326
0.00679483
0.0064793
0.00650309
0.00617799
0.00632347
0.00629168
0.00675499
0.00683579
0.0072124
0.00720394
0.00736015
0.00714534
0.00787309
0.00905375
0.00908524
0.00892552
0.00859888
0.0106604
0.0109014
0.0110107
0.0108422
0.00979426
0.00963216
0.00985433
0.00966642
0.0097715
0.00948851
0.00957887
0.00920531
0.00932325
0.00898935
0.00927985
0.00908535
0.00944203
0.0101446
0.00982834
0.00907199
0.00845873
0.010854
0.0109659
0.0109533
0.0109171
0.0107684
0.0144718
0.00936298
0.0163355
0.017838
0.023037
0.02944
0.0369184
0.0235407
0.0264908
0.0332937
0.0393564
0.0299421
0.0218231
0.0178114
0.0160751
0.0165019
0.0164722
0.0178324
0.0213712
0.0191496
0.0226081
0.0235947
0.0266944
0.0276671
0.0271947
0.0215686
0.0143603
0.0122373
0.0155095
0.0245346
0.0237776
0.0199006
0.0154221
0.0165896
0.0180622
0.0195643
0.0199466
0.0171687
0.0173886
0.0178084
0.0181967
0.0184883
0.0187637
0.0190555
0.019451
0.0197616
0.0182343
0.0180492
0.0178967
0.0175961
0.0174765
0.0171282
0.0171703
0.0168146
0.0168946
0.016525
0.0165751
0.0161624
0.0161061
0.0156502
0.0155524
0.0152259
0.0151334
0.0136841
0.0135543
0.0145111
0.0163416
0.0174781
0.0171343
0.0172917
0.0175369
0.0172602
0.0228492
0.0222302
0.0146955
0.0119588
0.0101785
0.0108926
0.0108103
0.010776
0.0113225
0.0114448
0.0118833
0.0118897
0.0122188
0.012216
0.0125121
0.0125417
0.012865
0.0130412
0.0134116
0.0138074
0.014447
0.0191547
0.0189354
0.0188207
0.0179021
0.0173314
0.0163929
0.0161474
0.015536
0.0156026
0.0150245
0.0150161
0.014355
0.0141187
0.0133759
0.0131395
0.0166768
0.0162762
0.0206053
0.0206286
0.0248629
0.0266382
0.0208725
0.0210786
0.0170362
0.017667
0.0181147
0.0187456
0.0189651
0.019541
0.0197196
0.0205047
0.0213241
0.0228326
0.0243728
0.0258572
0.0261782
0.0270231
0.024867
0.0187596
0.017086
0.0260361
0.025951
0.0235325
0.0186296
0.0169794
0.022835
0.0239307
0.0256442
0.0236114
0.0256662
0.0339939
0.0206402
0.0213041
0.0197762
0.0222385
0.0286875
0.0375381
0.0285663
0.030998
0.0289845
0.0243896
0.0223024
0.0217984
0.0215448
0.0213567
0.021138
0.0209355
0.0206497
0.0204937
0.0202805
0.020179
0.0203764
0.0208948
0.0212982
0.0219628
0.0222597
0.0231215
0.0236296
0.0239432
0.0242559
0.0246857
0.0252486
0.0244419
0.0240966
0.0239858
0.0238501
0.0237252
0.0237253
0.0236362
0.0238509
0.0234121
0.0232814
0.0235006
0.0236018
0.0234561
0.0232568
0.0230212
0.0230998
0.022842
0.0226707
0.0229458
0.0232407
0.0231004
0.0230138
0.0227225
0.0226081
0.022377
0.0223652
0.0210371
0.0207537
0.0204077
0.0203029
0.020878
0.0208703
0.0226786
0.022692
0.0226214
0.022789
0.0227514
0.0228503
0.0228064
0.0229066
0.0233718
0.0239434
0.0238534
0.0307952
0.0310616
0.0250276
0.0232315
0.0225831
0.0226517
0.0224915
0.0226519
0.0227937
0.0226802
0.0227924
0.0228033
0.0226263
0.0222915
0.0220895