/*--------------------------------*- C++ -*----------------------------------*\
| =========                 |                                                 |
| \\      /  F ield         | OpenFOAM: The Open Source CFD Toolbox           |
|  \\    /   O peration     | Version:  v2012                                 |
|   \\  /    A nd           | Website:  www.openfoam.com                      |
|    \\/     M anipulation  |                                                 |
\*---------------------------------------------------------------------------*/
FoamFile
{
    version     2.0;
    format      ascii;
    class       volScalarField;
    location    "45";
    object      nut;
}
// * * * * * * * * * * * * * * * * * * * * * * * * * * * * * * * * * * * * * //

dimensions      [0 2 -1 0 0 0 0];


internalField   nonuniform List<scalar> 
22960
(
0.00388079
0.0021433
0.0018202
0.00159133
0.00094013
0.00137373
0.0015659
0.001861
0.00178701
0.00156435
0.0014279
0.00233947
0.00333401
0.00400908
0.00411433
0.00411192
0.00399412
0.00436612
0.00513823
0.0056043
0.00509928
0.00324329
0.00445483
0.0055004
0.00450326
0.00330586
0.0029108
0.00393511
0.00446749
0.0045046
0.0045876
0.00459719
0.00464517
0.00466842
0.0047441
0.00479267
0.00495409
0.00505672
0.00518556
0.00578342
0.00602599
0.00609888
0.00623432
0.00629024
0.00638558
0.00645846
0.00653964
0.00660528
0.00663918
0.00700415
0.00731389
0.00714143
0.00703042
0.0069211
0.0067216
0.0059025
0.00381077
0.00230615
0.0021496
0.00229753
0.00239914
0.00244799
0.00210427
0.00112211
0.00146986
0.0017138
0.00210507
0.00207347
0.00186984
0.00176518
0.00288321
0.00385836
0.00445696
0.0045531
0.00459987
0.00455462
0.00456068
0.00447444
0.00445159
0.00393654
0.00293255
0.00336215
0.00392791
0.00393688
0.00331151
0.00246655
0.00415074
0.00469283
0.00461581
0.00495625
0.00546789
0.00586782
0.00595124
0.00580721
0.00483343
0.00356078
0.00217487
0.0021785
0.00228386
0.00220854
0.00187426
0.00148761
0.000932034
0.00155413
0.00176057
0.00159847
0.0014657
0.00129952
0.00143272
0.00258949
0.00467127
0.0053664
0.0053683
0.00528662
0.00522683
0.00519052
0.00514345
0.00531187
0.00546504
0.00560018
0.00586954
0.0061325
0.00619145
0.0054226
0.00327966
0.00187054
0.00167817
0.00178745
0.00184084
0.00210159
0.00210658
0.00182261
0.00174389
0.00187637
0.00300644
0.00530452
0.00593058
0.00584331
0.00559191
0.00529986
0.00510778
0.00489796
0.0046803
0.00469578
0.00478457
0.00489467
0.00501109
0.00503049
0.0044603
0.00252398
0.00154531
0.00139186
0.00146909
0.00176988
0.00182274
0.00195144
0.00160245
0.000960817
0.00160305
0.00198806
0.00211271
0.00215686
0.00227506
0.00253967
0.00285671
0.00277565
0.00247419
0.00223701
0.00209083
0.00200366
0.00183309
0.0016539
0.00128619
0.000795771
0.00133896
0.00145183
0.00137044
0.00127049
0.00115552
0.00124877
0.00219353
0.00353285
0.00398821
0.00401316
0.00390767
0.00369481
0.003429
0.00319338
0.00356931
0.00389179
0.00414358
0.00432924
0.00441216
0.00436607
0.00385926
0.00228779
0.00128985
0.00116111
0.00130725
0.00138844
0.00140216
0.00117013
0.000705409
0.00113088
0.00152149
0.00171062
0.00175477
0.00170066
0.00170487
0.00169458
0.00164316
0.00145308
0.00108354
0.000738125
0.000793986
0.000911295
0.000988468
0.00105596
0.00115498
0.00128669
0.00142279
0.00154167
0.00162642
0.00167094
0.00168017
0.00165346
0.00157988
0.00137579
0.00130489
0.00210529
0.00276209
0.00292143
0.00286896
0.00262992
0.00223099
0.00159824
0.00102966
0.00101742
0.00104585
0.000854606
0.000604653
0.000420894
0.000355871
0.000197038
0.000205955
0.000251075
0.000267286
0.000285064
0.000222318
0.000189886
0.000358847
0.000476561
0.000566607
0.000633242
0.000686806
0.000729327
0.000731784
0.000721183
0.000676374
0.000463169
0.00030967
0.000413209
0.00050775
0.000471756
0.000435391
0.00034942
0.000323465
0.000544123
0.000618943
0.000695895
0.000641076
0.000572738
0.000582858
0.00059976
0.000612746
0.000624208
0.000623074
0.000627149
0.000617386
0.000616505
0.000595479
0.000587711
0.000544697
0.000524972
0.000472304
0.000447138
0.000448148
0.000578538
0.000783181
0.00133648
0.00208892
0.00252215
0.00278137
0.00297307
0.0030101
0.0041107
0.00404089
0.00358785
0.00289889
0.00235999
0.00140811
0.000871508
0.000795291
0.000807198
0.000734735
0.000712132
0.000600602
0.000671686
0.000762612
0.000944834
0.000961237
0.000752588
0.000813082
0.000841952
0.000885902
0.000896961
0.000921459
0.000920119
0.000936371
0.000927064
0.000937189
0.00092039
0.000924937
0.000923288
0.000941353
0.000980991
0.00103976
0.00082823
0.00111395
0.00132241
0.00123891
0.00123204
0.00168348
0.00219
0.00230873
0.00384369
0.00441885
0.00398826
0.00214555
0.00205612
0.00146488
0.000958695
0.000995269
0.00110569
0.00111851
0.00104964
0.00102423
0.00105211
0.00112674
0.00113975
0.00113174
0.00112153
0.00110667
0.00108503
0.00105254
0.000945707
0.000899435
0.00118755
0.00153371
0.00166972
0.00268368
0.00372326
0.00433942
0.00361416
0.00439785
0.00493321
0.00519373
0.00523308
0.00528244
0.00525216
0.00586898
0.00586736
0.005798
0.0056684
0.00540861
0.00492359
0.00410995
0.0047861
0.00525772
0.00565533
0.00587233
0.00606554
0.00616413
0.00618645
0.00617653
0.00633814
0.00642564
0.00662018
0.00667547
0.00665334
0.00652259
0.00624337
0.00531349
0.00323217
0.00173199
0.00151702
0.00158484
0.00158685
0.00160895
0.00145804
0.000913525
0.00143223
0.00195579
0.0021163
0.00205495
0.00185016
0.00174628
0.00280884
0.00379559
0.00444192
0.00456929
0.00466565
0.00458959
0.00449388
0.00389097
0.00292919
0.00181162
0.00168043
0.0013031
0.000995465
0.00103841
0.00113383
0.000976885
0.000750383
0.000582136
0.00065991
0.000622094
0.000607163
0.000605136
0.000600548
0.000596746
0.000599592
0.000594324
0.000598061
0.000588973
0.000591462
0.000572462
0.000567997
0.000527252
0.000511036
0.000460714
0.000428787
0.000417118
0.000525014
0.000718829
0.00127791
0.00206743
0.00243984
0.0027283
0.00295814
0.0030092
0.00346895
0.00327265
0.00269232
0.00287894
0.00238326
0.00256005
0.00284792
0.00368232
0.00386385
0.00443049
0.00423206
0.00385758
0.00358503
0.00282953
0.00288534
0.00257726
0.00130939
0.00213785
0.00186652
0.00118872
0.0011835
0.000895989
0.00105836
0.00137729
0.00123429
0.00117853
0.0023173
0.00197405
0.00209442
0.0022068
0.00233585
0.00357749
0.00257088
0.00261269
0.00412184
0.00355009
0.00297651
0.00305929
0.00358913
0.003482
0.00326028
0.00298866
0.00330276
0.00324766
0.00326046
0.00322555
0.00321745
0.00320689
0.00319386
0.00335273
0.00347646
0.00368588
0.00378198
0.00380882
0.00374984
0.00350902
0.00326126
0.00120433
0.000452477
0.000517593
0.000619266
0.000734306
0.000872813
0.000985829
0.00109932
0.00127713
0.00128039
0.00118849
0.00108678
0.000961281
0.000795188
0.000492754
0.0002948
0.000263771
0.000454332
0.000751074
0.00105181
0.00116488
0.00172689
0.00160253
0.00239249
0.00394985
0.00422022
0.00449011
0.00462626
0.0046633
0.00458831
0.00396331
0.00257217
0.00257436
0.00266186
0.00260814
0.0025864
0.0025933
0.00253534
0.00248412
0.00214923
0.0019602
0.00136573
0.00117461
0.00139676
0.00149878
0.00162403
0.00161206
0.00181402
0.00171356
0.00175955
0.00169083
0.00151312
0.0013859
0.00228669
0.00327479
0.00397689
0.00411323
0.00417073
0.00401225
0.00380821
0.00316996
0.00233707
0.00144539
0.00132668
0.00102048
0.000772183
0.000796645
0.000860118
0.000729131
0.000546165
0.000405166
0.000358953
0.000211474
0.000220653
0.000273941
0.000286307
0.000293268
0.00023624
0.000222003
0.000439329
0.000567169
0.000652473
0.000716085
0.000773773
0.000814309
0.000815891
0.000804583
0.000748408
0.000451047
0.000305395
0.000404261
0.000489069
0.000458134
0.000425791
0.000342692
0.000317443
0.000525026
0.000476841
0.000527525
0.000601097
0.000641992
0.000679767
0.000691918
0.000696452
0.000708632
0.000788159
0.000918184
0.00119692
0.00166714
0.00191022
0.00222098
0.00222018
0.00215493
0.00207445
0.00193854
0.00176852
0.00155437
0.00127658
0.000760062
0.000509836
0.000481988
0.00137234
0.00140113
0.00151877
0.00204898
0.00222494
0.00191731
0.00308404
0.00324196
0.00472375
0.00428757
0.00436911
0.00453279
0.00459605
0.00453825
0.00407418
0.00397832
0.00443395
0.00450191
0.00444047
0.00428279
0.00434773
0.00446484
0.00315863
0.00330281
0.00191053
0.0019591
0.00231876
0.00220792
0.00195802
0.00198494
0.00173524
0.00160955
0.00151348
0.00159452
0.00156567
0.00191693
0.00206793
0.00226398
0.00233164
0.00231017
0.0023373
0.00241007
0.00241064
0.00220014
0.00201718
0.00147333
0.00123913
0.00134556
0.00164934
0.0017756
0.00185436
0.00177351
0.0017113
0.00170104
0.00174064
0.00180453
0.00174566
0.00168048
0.00146252
0.00152937
0.00153208
0.00150541
0.00149877
0.00149903
0.0015155
0.00153662
0.00152465
0.0013365
0.00122696
0.00129617
0.00125561
0.00130048
0.00144132
0.00152545
0.00156755
0.00155691
0.00158428
0.00156978
0.00156807
0.00151128
0.00147077
0.0015243
0.0015583
0.00164079
0.00168911
0.00162475
0.00193712
0.00190136
0.00218036
0.00225069
0.00212163
0.00182791
0.00163522
0.00301042
0.00288403
0.0028803
0.00180104
0.00186022
0.00217984
0.00204008
0.00200062
0.0017685
0.00159593
0.00156096
0.00159106
0.00158216
0.00157914
0.00154536
0.00153984
0.00150831
0.00145712
0.00136759
0.00138091
0.00136614
0.00134417
0.00122808
0.00110453
0.00107532
0.000985893
0.00124824
0.00133347
0.00128604
0.00132182
0.00152913
0.00143677
0.00134306
0.00251939
0.00167292
0.00112284
0.00112453
0.00112489
0.00112535
0.00112242
0.00111513
0.00109813
0.00106612
0.00101476
0.000884702
0.00141963
0.00228907
0.00280632
0.00349313
0.00398479
0.00407888
0.00473921
0.00472281
0.00477132
0.00480983
0.00483625
0.00483008
0.00473912
0.00408741
0.00317832
0.00283418
0.00257967
0.00277191
0.00299813
0.00314003
0.00193602
0.00210993
0.00216111
0.00225888
0.00257213
0.00307221
0.00322564
0.00295136
0.00277292
0.00263017
0.00249081
0.00219577
0.00258325
0.00281042
0.00287437
0.00289549
0.00312572
0.0038026
0.00394275
0.00380394
0.00341126
0.00338832
0.00331195
0.00335995
0.0033558
0.00334278
0.00354387
0.00453385
0.00475436
0.0045064
0.0045095
0.00476461
0.00452277
0.00411057
0.00415803
0.00224748
0.000599708
0.00248536
0.00307173
0.004282
0.00384697
0.00308947
0.00268327
0.00363782
0.00348601
0.00434626
0.00444651
0.00394539
0.00440272
0.00436685
0.00460168
0.00478286
0.00419999
0.00385762
0.00401993
0.0042076
0.00427144
0.00407996
0.00428595
0.00422785
0.00443837
0.00446891
0.00382554
0.00462215
0.00351009
0.00301326
0.00488004
0.00555008
0.00624152
0.00695281
0.00747909
0.00798354
0.0085285
0.00911504
0.00936675
0.00948676
0.00896271
0.00828858
0.00772203
0.0072541
0.00687371
0.00658447
0.00636557
0.00613176
0.00604158
0.00582725
0.00542868
0.00581189
0.00610389
0.00632697
0.00652993
0.00670106
0.00683232
0.0069827
0.00752033
0.00753834
0.0075357
0.00740334
0.00720773
0.00696451
0.00660757
0.00567061
0.0033607
0.00198506
0.00179902
0.00185216
0.00205851
0.00201965
0.00203504
0.00171867
0.000978828
0.00124478
0.00188342
0.00220997
0.00218915
0.00220149
0.00228156
0.00203257
0.00353863
0.00364105
0.0057441
0.00675832
0.00719273
0.00754403
0.00790622
0.0082479
0.0084581
0.00858323
0.00769424
0.00733598
0.00708776
0.00684077
0.00660593
0.00638211
0.00613927
0.00630872
0.00652348
0.00675338
0.00706468
0.00746764
0.00800403
0.00872535
0.00981058
0.00940092
0.0088018
0.00823713
0.00773946
0.00729993
0.00683786
0.00616383
0.0055265
0.00354723
0.00362309
0.00195385
0.00209305
0.00230584
0.0023037
0.00229945
0.00225783
0.00192353
0.00146278
0.00172676
0.00162378
0.00284799
0.00317002
0.00346751
0.00355158
0.00207886
0.00208545
0.00214533
0.00226122
0.00218475
0.00216423
0.00308654
0.00308291
0.00312147
0.00321284
0.00329873
0.00242389
0.00268048
0.00342891
0.00336425
0.00287043
0.00276731
0.00290314
0.00284712
0.0035063
0.00342753
0.0032812
0.00328654
0.00248433
0.00270925
0.00338244
0.0032639
0.00259385
0.00235361
0.00262232
0.000985139
0.00186239
0.00153669
0.0026009
0.00322442
0.00346376
0.00408233
0.00395666
0.00388808
0.0038167
0.00315474
0.0029135
0.00267689
0.0037365
0.00368815
0.00306429
0.00313319
0.00353151
0.00327663
0.0040556
0.00413401
0.00388838
0.00369731
0.00244124
0.00364263
0.00375942
0.00385825
0.00365969
0.00328899
0.0029111
0.00268684
0.00324204
0.00323261
0.00322716
0.0027504
0.0023024
0.00184242
0.0026107
0.00282517
0.00339386
0.00326386
0.00312073
0.00239879
0.00247494
0.00178854
0.00201777
0.00211728
0.00195845
0.00166236
0.00290899
0.00446392
0.00505925
0.00512148
0.00512424
0.00508696
0.00498879
0.00435443
0.00278677
0.00274678
0.0028191
0.00280134
0.00280952
0.00281063
0.00274935
0.0028279
0.00278909
0.00282466
0.00283207
0.00285758
0.00290001
0.00291386
0.00297143
0.00460874
0.00437677
0.00449475
0.00428517
0.004263
0.00440122
0.00445144
0.0043925
0.00416435
0.00391007
0.00378418
0.00423917
0.00429842
0.00431933
0.00436488
0.00441544
0.00437577
0.00426908
0.00419685
0.00405879
0.00422823
0.00458129
0.0046831
0.00460287
0.00443705
0.00438638
0.00433455
0.00464665
0.00435458
0.0043906
0.00490477
0.00500097
0.00503728
0.00502584
0.00493656
0.00444054
0.00281515
0.00158072
0.00186566
0.00201886
0.00201937
0.0018805
0.00177759
0.00187821
0.00190695
0.00180518
0.0015411
0.00286434
0.00284816
0.00441049
0.0049088
0.00500521
0.00501427
0.00497132
0.0048712
0.00490873
0.00499497
0.00504897
0.00506638
0.00502097
0.00483887
0.00471224
0.0028597
0.00289914
0.00141889
0.00151237
0.00174704
0.00183308
0.00185363
0.00176714
0.0015628
0.00165148
0.00160813
0.00156007
0.00290071
0.0029503
0.00266615
0.00273112
0.00172813
0.00261571
0.00342675
0.00353257
0.0036564
0.00283067
0.00327736
0.00245212
0.00250591
0.00325832
0.00323856
0.00309696
0.00321129
0.00336281
0.0034835
0.0032582
0.00327479
0.00467328
0.00350099
0.00355559
0.0033071
0.00360649
0.00362256
0.00357231
0.00336047
0.0052435
0.00419014
0.00385016
0.00371156
0.00417599
0.00415599
0.00400731
0.0027275
0.00295152
0.00304694
0.00311563
0.00353278
0.00348443
0.00415647
0.00423317
0.00394049
0.00361846
0.00351376
0.00307466
0.00298019
0.0040866
0.00464016
0.00465779
0.00317111
0.00369583
0.00463081
0.00461005
0.00475598
0.00490531
0.0048842
0.00297019
0.00285274
0.00276681
0.00259912
0.00241427
0.00270783
0.00300026
0.00328112
0.00340342
0.00373982
0.00406807
0.00443904
0.00449547
0.00423374
0.00469769
0.00464027
0.00459394
0.00454727
0.0045285
0.00387833
0.0050073
0.00482724
0.00457353
0.00420942
0.00268971
0.00167676
0.00194299
0.00217188
0.00209543
0.00312459
0.00386478
0.0031252
0.00404118
0.00408031
0.00421466
0.00379294
0.00363219
0.0040187
0.00445617
0.00431347
0.0043136
0.00500476
0.00423469
0.00424601
0.00448945
0.0043989
0.00479789
0.00436311
0.00414605
0.00440247
0.00463987
0.00427268
0.00396891
0.00424884
0.00438948
0.00382422
0.00362408
0.00321554
0.00253601
0.00277825
0.00296094
0.00286923
0.00319393
0.0038549
0.00435215
0.00334011
0.00421146
0.00421154
0.00416939
0.00413107
0.00451471
0.00500962
0.00483781
0.00509881
0.00503118
0.00499058
0.00472283
0.00459998
0.00429752
0.00456168
0.00467344
0.00465265
0.00448224
0.0042475
0.00455438
0.00419637
0.00364855
0.00377891
0.00431136
0.00448993
0.00404088
0.00411797
0.00455345
0.00494679
0.00479207
0.00437776
0.00401616
0.00438888
0.00450469
0.00403584
0.00384844
0.00341453
0.00356176
0.00414488
0.00435487
0.00382281
0.00381096
0.00375376
0.00370264
0.00430821
0.00460633
0.00451968
0.00468362
0.00482011
0.00496176
0.00488936
0.00484833
0.00480032
0.00493598
0.00483779
0.00488278
0.00479769
0.00453053
0.00467701
0.00448313
0.00470879
0.00394507
0.00461661
0.00478406
0.00423913
0.0048104
0.00487443
0.00475471
0.00499571
0.00364592
0.00363735
0.00336723
0.00359673
0.00430159
0.00524679
0.00470298
0.00468248
0.00406278
0.00418076
0.00473492
0.0047191
0.00460439
0.00437116
0.00549753
0.00587837
0.00495155
0.0058368
0.00542975
0.0052064
0.00513291
0.00512989
0.00508992
0.00501776
0.00493639
0.00485851
0.00479407
0.00474163
0.00467404
0.00423322
0.00447196
0.00465542
0.00440013
0.00410889
0.00414979
0.00423364
0.00430055
0.00431075
0.00426873
0.00423046
0.00423622
0.00423027
0.0041203
0.00394242
0.0036896
0.00375558
0.00375418
0.003763
0.00374827
0.00375536
0.00380004
0.00414109
0.00440074
0.0044597
0.00445208
0.00432939
0.00423673
0.00436509
0.00457355
0.00482153
0.00494884
0.00503607
0.0051192
0.00519556
0.00534652
0.00566522
0.00613317
0.00630115
0.00558544
0.00492095
0.00477509
0.00460413
0.00449092
0.00435656
0.00406896
0.00366713
0.00394377
0.00390383
0.00453104
0.00472329
0.00478537
0.00473506
0.0043264
0.00300001
0.00311562
0.00310845
0.0028113
0.00238514
0.00271178
0.00278699
0.00311245
0.00315544
0.00293388
0.00282628
0.00267862
0.00301785
0.00325572
0.00322377
0.00320051
0.00307951
0.00293791
0.0028298
0.00268799
0.0026146
0.00252591
0.00249275
0.00244783
0.00243144
0.00238611
0.00377533
0.00429446
0.00420151
0.00396278
0.00362447
0.00382494
0.00398497
0.00361006
0.00229562
0.00237997
0.0023312
0.00239617
0.00235151
0.00234896
0.00235625
0.00235422
0.00235929
0.00235059
0.00236197
0.00235566
0.00241353
0.00235599
0.00245446
0.0027146
0.00137118
0.00148115
0.00150527
0.00149725
0.00146307
0.00144422
0.00143721
0.00142929
0.00142821
0.00142856
0.00144426
0.00143832
0.00139999
0.00128263
0.00136312
0.00229177
0.00225731
0.00354306
0.0022282
0.00132881
0.00135303
0.00156508
0.00156075
0.00162108
0.00158628
0.00146168
0.00142372
0.00142774
0.00143621
0.00144543
0.00150242
0.00168849
0.00174358
0.00172011
0.00150212
0.00153394
0.00179196
0.00173832
0.00149922
0.00123014
0.00109647
0.00107443
0.00107331
0.00107071
0.00106613
0.00106006
0.00105318
0.00104492
0.00103612
0.00104907
0.00116451
0.0014009
0.00159625
0.0014486
0.00152433
0.00146222
0.00127628
0.00213696
0.00335237
0.002097
0.00123485
0.00140039
0.00129043
0.00135467
0.00116141
0.0012058
0.00133245
0.00115254
0.00106617
0.000948584
0.000899747
0.000927815
0.000938188
0.000948823
0.000957819
0.000964087
0.000968357
0.000950246
0.00100931
0.00114344
0.00125104
0.00146761
0.00161565
0.00137194
0.00113058
0.00101875
0.000911374
0.000643043
0.00063292
0.000622778
0.000622133
0.000636834
0.00064598
0.000647065
0.000646318
0.000638667
0.000628542
0.00061377
0.000578139
0.000591165
0.000605558
0.000618359
0.000617944
0.000623761
0.000633201
0.000640029
0.000646231
0.000640604
0.000637642
0.000641273
0.00064644
0.000646388
0.000640281
0.000637836
0.000633309
0.000631507
0.000624162
0.000617678
0.000608994
0.000604153
0.000599535
0.000594493
0.000584281
0.000577931
0.000568333
0.000832635
0.000919286
0.00100056
0.00118771
0.00139502
0.0015229
0.00134649
0.00227402
0.00359247
0.00223389
0.00130934
0.0014711
0.00134206
0.00112654
0.00108883
0.00110356
0.00114158
0.00096306
0.000979684
0.00101981
0.000930685
0.000837935
0.000570365
0.000577443
0.000580931
0.000590275
0.000593691
0.000596582
0.000599585
0.000606576
0.000611011
0.000615661
0.000614242
0.000615928
0.000616669
0.00062132
0.000620971
0.000615777
0.000612092
0.000619874
0.000349291
0.000383047
0.000395606
0.000394384
0.000393912
0.000389487
0.000394161
0.000388831
0.000386026
0.000377002
0.000369924
0.00036556
0.000364342
0.000360792
0.000350816
0.000320852
0.000357546
0.00057313
0.000572387
0.000354558
0.000313426
0.000551574
0.000858748
0.000554834
0.000338536
0.000392987
0.000420033
0.000383706
0.000425233
0.000402169
0.00042002
0.000434873
0.000441712
0.000450539
0.00045901
0.000463399
0.000469269
0.000487833
0.000485028
0.000491387
0.000490666
0.000483211
0.000459835
0.000407246
0.000451628
0.000502162
0.000521319
0.000528662
0.000486165
0.000486603
0.000508581
0.000500985
0.000496128
0.0004904
0.000462195
0.000443999
0.000464401
0.000442897
0.000461706
0.000440172
0.00045583
0.000432477
0.000403926
0.0003416
0.000553979
0.000861631
0.000553417
0.000341203
0.000403671
0.000441919
0.000467189
0.000468682
0.000475904
0.000474472
0.000486094
0.000474075
0.000430721
0.000463287
0.000183415
0.000326008
0.000257619
0.000321772
0.000266636
0.000361571
0.000437314
0.00043093
0.000441663
0.000374965
0.000357222
0.000351303
0.000358354
0.000367168
0.000357011
0.000393794
0.000399318
0.000498263
0.000497466
0.000507077
0.000529605
0.000444323
0.000457052
0.000420352
0.000465398
0.000451758
0.000464156
0.000471442
0.000483113
0.000565369
0.000576926
0.000590383
0.000497605
0.000351641
0.000432829
0.000324156
0.000408973
0.000215458
0.0004978
0.000497154
0.000476297
0.000498432
0.000502934
0.00050372
0.000504374
0.000483317
0.000629133
0.000595652
0.000674334
0.00024105
0.000486645
0.000332379
0.000460946
0.00034315
0.000455453
0.000583313
0.000612193
0.000604866
0.000512749
0.000555419
0.00154117
0.110805
0.00117529
0.00143898
0.00146406
0.00143731
0.00110457
0.000816119
0.00110154
0.000696043
0.00114201
0.000499046
0.00166224
0.00146825
0.00163306
0.00172596
0.000768058
0.000816805
0.000846447
0.000890289
0.000773765
0.000753104
0.00090768
0.000926684
0.0916891
0.112453
0.118452
0.113094
0.0865819
0.111214
0.299009
0.47231
0.558655
0.162536
0.00122842
0.00131451
0.000872
0.000739987
0.00033037
0.000731338
0.00140196
0.118356
0.253378
0.647159
1.19738
0.860581
0.559957
0.290242
0.10818
0.2551
0.103547
0.282749
0.115395
0.148198
0.388141
0.715198
0.553227
0.846303
0.529822
0.854735
1.10157
1.30209
1.51966
1.04912
0.413337
0.119735
0.000983235
0.000705492
0.000735257
0.00138457
0.00106627
0.000601312
0.000709306
0.00143178
0.124131
0.432901
1.14
1.41677
1.49917
1.42043
1.27779
1.09121
1.20363
1.00234
1.0416
0.753059
0.40699
0.147783
0.153106
0.406845
0.74909
1.01966
1.2121
1.22967
1.34418
1.33119
1.46793
1.52879
1.53954
1.43314
0.925829
0.184694
0.00178205
0.000929717
0.00102622
0.00181695
0.18092
0.979704
1.50005
1.56945
1.53797
1.47824
1.47295
1.35494
1.25235
1.09581
0.892018
0.589503
0.320539
0.103494
0.00139453
0.00139146
0.00147511
0.00129771
0.101916
0.267953
0.509538
0.817105
1.02051
1.17275
1.37906
1.47085
1.53971
1.5736
1.56721
1.05844
0.175768
0.0018057
0.00100748
0.00075621
0.00147279
0.104033
0.396793
1.55191
1.54947
1.38172
1.31955
0.736658
0.666959
0.567807
0.419259
0.250349
0.0975755
0.00166359
0.00106697
0.00138329
0.142005
0.154008
0.159407
0.160416
0.105668
0.399885
0.103378
0.389183
0.101984
0.00170563
0.00188756
0.000781944
0.000714036
0.000808091
0.00172
0.00178205
0.000792599
0.000829446
0.00160256
0.00185241
0.00073216
0.000595935
0.0012124
0.00149068
0.000734522
0.000729413
0.00151632
0.00147218
0.000699757
0.000642769
0.000465295
0.000566382
0.000491031
0.000551771
0.000528885
0.00056304
0.00111546
0.000965294
0.000863707
0.000960805
0.00106238
0.00127512
0.00130718
0.00144303
0.001445
0.0015108
0.00156917
0.00158289
0.00145365
0.00111718
0.00135161
0.00145029
0.00142638
0.00120609
0.00170926
0.00101198
0.00087117
0.000925823
0.000940984
0.000738386
0.00092613
0.00102163
0.001083
0.000962407
0.00082489
0.000974578
0.00111293
0.00141207
0.00141647
0.00125169
0.00129245
0.00164061
0.00146535
0.00153034
0.00160484
0.00144092
0.0013456
0.0015037
0.00120566
0.00128004
0.00267713
0.0104187
0.0169206
0.0279511
0.032886
0.0306047
0.0182724
0.0125614
0.00487361
0.00100696
0.00105915
0.000708899
0.0009847
0.00124251
0.00133886
0.00122184
0.00090762
0.00112553
0.00135332
0.000915151
0.00078393
0.000818558
0.000924307
0.000849976
0.000664656
0.00060686
0.000837867
0.000869767
0.000929554
0.00085283
0.000674335
0.000752542
0.00090846
0.00097452
0.000868845
0.000827609
0.000685213
0.000478874
0.000899462
0.0010146
0.00112006
0.00108339
0.00108981
0.00122821
0.00131123
0.00133344
0.000947301
0.000784351
0.00108761
0.00130029
0.00144699
0.00140044
0.00620132
0.00236558
0.00127246
0.000914228
0.00083643
0.000821749
0.000905375
0.000663569
0.000783892
0.000869885
0.0009139
0.000864257
0.000837248
0.000736098
0.000836746
0.000893712
0.00087255
0.00081146
0.00068036
0.000766818
0.000777586
0.000852469
0.000812997
0.0007103
0.000742601
0.000804514
0.000855188
0.000823329
0.00093756
0.000720025
0.000941654
0.000933321
0.000898903
0.00101959
0.000869168
0.0010541
0.000785337
0.00073264
0.00110166
0.000762394
0.000705492
0.00121497
0.000787581
0.000731926
0.0014146
0.000836047
0.000734634
0.00176705
0.000675598
0.00105077
0.000994384
0.001017
0.000875583
0.000904929
0.0010196
0.00102491
0.00141791
0.00106688
0.000794393
0.000405764
0.000354056
0.000393086
0.000464626
0.000510254
0.000532491
0.000554346
0.000562865
0.000522192
0.000540714
0.000565893
0.000586014
0.000566378
0.000537489
0.000488536
0.000405114
0.000409216
0.000495261
0.000560296
0.000596592
0.00059364
0.000572996
0.000805873
0.00135807
0.00136033
0.00116979
0.00126878
0.00145246
0.00129362
0.00105926
0.00090507
0.000991677
0.00108855
0.00104898
0.000976685
0.00088564
0.00102947
0.00103372
0.00105283
0.00105078
0.00106668
0.000900163
0.000979769
0.0010701
0.00111126
0.00109372
0.00101658
0.00104672
0.00120274
0.00131038
0.00120683
0.0012817
0.0013613
0.00123631
0.000935633
0.000589796
0.000585712
0.000569987
0.000493689
0.000407537
0.000401348
0.000490475
0.000571429
0.000578557
0.000588564
0.000556772
0.0004814
0.000389446
0.000371237
0.000461252
0.000524243
0.00056834
0.000553916
0.000504653
0.000429122
0.00034883
0.000362491
0.000443092
0.000527543
0.000553708
0.000570895
0.000596481
0.000606638
0.000600667
0.00058934
0.000571708
0.000544072
0.000529798
0.000524161
0.000501237
0.000491566
0.00048997
0.000474367
0.000468529
0.000478505
0.000454042
0.000423305
0.000380852
0.00035082
0.000309368
0.000546993
0.000851459
0.000975634
0.00116783
0.00113618
0.000954494
0.000944874
0.000919124
0.000935732
0.000840472
0.000542623
0.000335881
0.000397338
0.00044192
0.000447997
0.000452518
0.000659532
0.000690098
0.000820536
0.000861758
0.000755594
0.000842253
0.000937409
0.000843196
0.00072128
0.000831401
0.000918529
0.00106895
0.00118678
0.00104961
0.000992318
0.00114036
0.00125826
0.00111145
0.000891888
0.00060492
0.000961293
0.00102649
0.00091203
0.00076789
0.00431668
0.000846789
0.00129016
0.000858757
0.000756703
0.000791471
0.000877025
0.000802607
0.000644888
0.00058658
0.000785289
0.000811514
0.000864044
0.000790228
0.000639413
0.000714154
0.000845049
0.000903975
0.000820517
0.000882804
0.000677404
0.000462223
0.000746107
0.000854967
0.000954509
0.000885724
0.000990118
0.00123737
0.00112637
0.00104749
0.00110877
0.000766349
0.00077203
0.000733677
0.000711118
0.00184206
0.000711378
0.000659928
0.00179573
0.000795258
0.000722786
0.000915274
0.000739418
0.000795462
0.00079344
0.000810726
0.001527
0.00171038
0.00159934
0.00120436
0.00117024
0.00123666
0.0017348
0.00175248
0.00173617
0.00155136
0.00104263
0.00148527
0.0018706
0.00194415
0.0015955
0.00125822
0.00138851
0.00143955
0.00127836
0.000918825
0.000907375
0.000890023
0.000830603
0.000861581
0.000873256
0.000873263
0.000876073
0.000815404
0.000905978
0.000930681
0.000966815
0.000898697
0.00084691
0.000945923
0.000979436
0.00108473
0.000924235
0.000980132
0.000752195
0.00107534
0.00126674
0.00147942
0.00150673
0.00133212
0.00103768
0.000820998
0.000968174
0.00117673
0.00141857
0.00132869
0.0011335
0.00133087
0.00106018
0.00112818
0.00137533
0.000990659
0.000938114
0.000918179
0.000932237
0.000814295
0.00131461
0.00101623
0.00104355
0.000956631
0.000912213
0.00132206
0.000771809
0.0010226
0.00101651
0.00107787
0.00113846
0.00104268
0.00183847
0.00069372
0.00104435
0.00106651
0.00170461
0.00109363
0.00118973
0.00117243
0.00113374
0.00178602
0.00122605
0.00127387
0.00110028
0.00107452
0.00250778
0.00131043
0.00133704
0.00104254
0.000951193
0.00218001
0.001233
0.00121729
0.000958994
0.00101436
0.000375133
0.000456576
0.000541745
0.000537246
0.000588586
0.000555307
0.000601303
0.000557529
0.000572093
0.000515163
0.000518662
0.000505545
0.000494712
0.000470317
0.000462543
0.000461527
0.000457558
0.000449275
0.000438586
0.000420429
0.000400647
0.000355059
0.000568126
0.000567114
0.000561274
0.000558033
0.0016648
0.000756175
0.000389086
0.000334769
0.000549977
0.000544985
0.000850769
0.000840986
0.000823286
0.000530036
0.000538553
0.000333042
0.000394338
0.000439832
0.000435816
0.000441138
0.000432781
0.000392198
0.000328905
0.000327845
0.000528229
0.000538511
0.000332689
0.000394855
0.000391348
0.000421484
0.000431595
0.000443266
0.000433896
0.000438063
0.000393769
0.000333219
0.000539295
0.000545733
0.000336602
0.000397792
0.000443128
0.000449454
0.000438021
0.000668839
0.00081517
0.000871048
0.000967318
0.000951709
0.000815315
0.000843294
0.000910537
0.00100986
0.00100391
0.000998841
0.00103404
0.000936509
0.000741901
0.000672689
0.000850989
0.000900363
0.000987621
0.00156901
0.00114274
0.000884182
0.000824829
0.000903619
0.000854032
0.000854632
0.000814875
0.000766894
0.000816157
0.000792782
0.000637646
0.000693365
0.000781101
0.000815992
0.000751963
0.000806352
0.00071586
0.000626436
0.000744763
0.000799761
0.000793688
0.000721747
0.000570327
0.000760558
0.000787699
0.000817053
0.000712473
0.000617547
0.000742721
0.00073762
0.000781277
0.00167615
0.000727512
0.00075818
0.00165245
0.000658558
0.00062419
0.000575558
0.000644955
0.000644573
0.000699488
0.000699151
0.000732121
0.000738578
0.00165001
0.000683648
0.000735093
0.00159358
0.000643211
0.000562083
0.000568585
0.000623389
0.000583877
0.000630122
0.000580564
0.00173004
0.000668189
0.000708308
0.000746173
0.000750765
0.000789119
0.000750528
0.00183621
0.000694943
0.000738359
0.000615643
0.000569594
0.000590132
0.00057705
0.00184322
0.000724136
0.000784235
0.000768332
0.000820761
0.000772123
0.000436577
0.0003978
0.000336142
0.000575958
0.00176817
0.000760796
0.000722799
0.000579958
0.000618965
0.000719929
0.0016117
0.00143532
0.00149766
0.00152901
0.00144364
0.00135649
0.00141246
0.00146414
0.00147031
0.00150242
0.00149862
0.0016016
0.0015902
0.00190942
0.00224149
0.001429
0.0019893
0.00433769
0.00561309
0.00735624
0.00149437
0.00109995
0.000858302
0.000880108
0.000794078
0.000866699
0.000833262
0.001024
0.00106056
0.00101889
0.000800631
0.000815221
0.000845792
0.000926567
0.000892416
0.00110359
0.00145199
0.00707322
0.00590424
0.00332927
0.00222759
0.00129614
0.00136289
0.00137196
0.00138197
0.000918454
0.00464603
0.00281574
0.0015925
0.00345653
0.00222951
0.00300314
0.00274413
0.00333443
0.00328006
0.00124757
0.00124481
0.00124114
0.00123608
0.00123082
0.00122543
0.00122312
0.00123395
0.00134569
0.00225209
0.00278776