/*--------------------------------*- C++ -*----------------------------------*\
| =========                 |                                                 |
| \\      /  F ield         | OpenFOAM: The Open Source CFD Toolbox           |
|  \\    /   O peration     | Version:  v2012                                 |
|   \\  /    A nd           | Website:  www.openfoam.com                      |
|    \\/     M anipulation  |                                                 |
\*---------------------------------------------------------------------------*/
FoamFile
{
    version     2.0;
    format      ascii;
    class       volScalarField;
    location    "695";
    object      alphat;
}
// * * * * * * * * * * * * * * * * * * * * * * * * * * * * * * * * * * * * * //

dimensions      [1 -1 -1 0 0 0 0];


internalField   nonuniform List<scalar> 
18258
(
0.00485792
0.00211037
0.00172882
0.00149762
0.000992045
0.00162337
0.00225465
0.00268432
0.00281649
0.00279263
0.00289153
0.0048792
0.00684719
0.0084621
0.00888867
0.00887365
0.00805351
0.00768948
0.00834411
0.010268
0.00864287
0.00553509
0.00663501
0.00766332
0.00832883
0.00737281
0.00595896
0.00552087
0.00499928
0.00416678
0.00349128
0.00237209
0.00175596
0.00162932
0.00147542
0.0016813
0.00183062
0.00195106
0.0019956
0.00202723
0.00201332
0.00200182
0.00194775
0.00191539
0.00186014
0.00154152
0.00187913
0.00189444
0.00207424
0.00287395
0.00309187
0.00260287
0.00288266
0.00257207
0.00169547
0.00194077
0.00210681
0.00215231
0.00212464
0.00203644
0.0020067
0.00198151
0.0019496
0.00191171
0.00188863
0.00190756
0.00192734
0.00190642
0.00181276
0.00173687
0.00161406
0.00149093
0.00139965
0.00132893
0.00127562
0.00121647
0.00114999
0.00101015
0.000936204
0.00123959
0.00155613
0.00166263
0.00235646
0.00287297
0.00289241
0.0021649
0.00154279
0.00160109
0.00177993
0.00179785
0.00152365
0.00181159
0.00205212
0.00212705
0.00221677
0.00247766
0.00282125
0.00275071
0.00244976
0.00225727
0.00221401
0.00253657
0.00241136
0.00312761
0.00315054
0.00274854
0.0025337
0.00285115
0.00367718
0.00395559
0.00307394
0.00288728
0.00283013
0.00279391
0.00252687
0.00261535
0.00237519
0.00214017
0.00233162
0.00281813
0.00267293
0.00291942
0.00302541
0.00283842
0.00328907
0.00379287
0.00373785
0.00299113
0.00243844
0.00227301
0.00229033
0.00140075
0.00151265
0.00163007
0.00167
0.00169802
0.00172182
0.00183616
0.00183202
0.00180514
0.00180116
0.00183277
0.00101003
0.00109429
0.00112148
0.00112933
0.00107261
0.00106154
0.0010417
0.00102559
0.000967025
0.000925282
0.00110714
0.00124318
0.00135405
0.00148366
0.00167707
0.00191374
0.00216251
0.00241394
0.0025803
0.00262778
0.00267567
0.00257883
0.00248122
0.00256972
0.00258455
0.00256774
0.00253319
0.00248957
0.00243069
0.00232283
0.00244775
0.00244102
0.00229321
0.00196496
0.00200895
0.00200528
0.00205739
0.00204678
0.00206744
0.00203823
0.00200409
0.00190787
0.00177384
0.00147742
0.00143727
0.00145619
0.00187088
0.002272
0.00351039
0.00428362
0.00497542
0.0053259
0.00570279
0.00461153
0.00513115
0.00395359
0.00355006
0.0045129
0.00590564
0.00336882
0.00183806
0.00348533
0.00309018
0.00223986
0.00199313
0.00205313
0.00205794
0.00236611
0.00272744
0.00302593
0.00317105
0.00329971
0.00340241
0.00351562
0.00365912
0.00369812
0.00357278
0.00302394
0.00364438
0.00295736
0.00345034
0.00311312
0.00209704
0.00224678
0.00237644
0.00217182
0.00211099
0.00202266
0.00181703
0.00223001
0.00289713
0.0033631
0.00384442
0.00512371
0.00474033
0.00454791
0.00352202
0.00340563
0.00176888
0.00252447
0.00261165
0.002935
0.00195171
0.00177957
0.00168766
0.00223786
0.00259352
0.00306205
0.00339681
0.0040362
0.00312624
0.00356556
0.003223
0.00224317
0.00216211
0.00309893
0.00334005
0.00274929
0.00245983
0.00308429
0.00291775
0.00206921
0.00166228
0.00255287
0.00264518
0.00189519
0.00470669
0.00500405
0.0047997
0.00585724
0.00733623
0.00835777
0.00777581
0.00689458
0.00770862
0.00612515
0.00592789
0.00631884
0.00529942
0.00370354
0.00379853
0.00392895
0.00403483
0.00433159
0.00460145
0.00493135
0.00524611
0.00476894
0.00395981
0.00299665
0.00206167
0.00203376
0.00202361
0.00181713
0.00269296
0.00407404
0.00404642
0.00229901
0.00134005
0.00151559
0.00171137
0.00169459
0.0012296
0.000925526
0.00159446
0.00182328
0.00185284
0.00180692
0.0017061
0.00178288
0.00286321
0.00441102
0.00484688
0.00502012
0.00518404
0.00529981
0.0053642
0.00538454
0.00539573
0.00540942
0.00542135
0.00543964
0.00542241
0.00530654
0.00466716
0.00293413
0.00171518
0.00159337
0.00175852
0.00188991
0.00200463
0.00170572
0.0010429
0.0016658
0.00213294
0.00245145
0.00247224
0.00230719
0.00223806
0.0035289
0.00469189
0.00553018
0.0056997
0.00577492
0.00571109
0.00570232
0.00557726
0.00553771
0.00485524
0.00347606
0.00380093
0.00408138
0.00412877
0.00422458
0.00436825
0.00426691
0.00403028
0.00589219
0.00679786
0.00688478
0.00703121
0.00694777
0.00682735
0.00651666
0.00616184
0.00518715
0.00388983
0.00245421
0.0025053
0.00266691
0.00264127
0.00229914
0.00242273
0.00262935
0.00265568
0.00274259
0.00307568
0.00349346
0.00333238
0.00286754
0.00243534
0.00226765
0.00222025
0.00213042
0.00159578
0.00161945
0.00157403
0.00159987
0.00214914
0.00255793
0.00294988
0.00418414
0.0037326
0.00303567
0.00481297
0.00493109
0.00529672
0.00585061
0.00599571
0.00664202
0.00462606
0.00416971
0.00428338
0.00349888
0.00323867
0.00327324
0.00328558
0.00306219
0.00335157
0.00332209
0.0032021
0.00353535
0.00389579
0.00513733
0.00622545
0.00656904
0.00676781
0.00684915
0.00682317
0.00668944
0.00673072
0.00591094
0.0059033
0.00565408
0.00549149
0.00543357
0.00516351
0.00591189
0.00613762
0.00621303
0.00636811
0.00660973
0.00643154
0.00623142
0.00607923
0.00596891
0.0058536
0.00591636
0.00602646
0.00614397
0.00630905
0.00652977
0.00656698
0.00633822
0.0061654
0.00604719
0.00593624
0.00594114
0.00604011
0.00615558
0.00631939
0.00652863
0.00641275
0.00625015
0.00610536
0.00598662
0.00588215
0.00567661
0.00581375
0.00596467
0.00608913
0.00616994
0.00533069
0.00569783
0.00559962
0.00506958
0.00474481
0.0036033
0.00389957
0.00411215
0.0044789
0.00497176
0.00506861
0.00425332
0.00364496
0.00355184
0.00352316
0.0036061
0.00363598
0.0036536
0.00412839
0.00621964
0.00626159
0.00627909
0.0062813
0.00537141
0.0052197
0.00486336
0.00888639
0.0082732
0.00716946
0.00590998
0.00316846
0.00271604
0.00321753
0.00391259
0.00437416
0.00482685
0.00320469
0.00198473
0.00231282
0.00239771
0.00233866
0.00216158
0.00180084
0.00166229
0.00150865
0.00162361
0.00287549
0.00458957
0.00517039
0.00522599
0.00517489
0.00507493
0.00495324
0.00478355
0.00472078
0.00595057
0.00805338
0.00908966
0.00905326
0.00777814
0.00633888
0.00357186
0.00183568
0.0013437
0.00146032
0.00160339
0.00188474
0.00168169
0.00140668
0.00154184
0.00146286
0.00296458
0.00511953
0.00652307
0.00774716
0.00762377
0.00662725
0.00541886
0.00513547
0.00525513
0.00533515
0.00540342
0.00547352
0.00552138
0.00548989
0.00499612
0.00308595
0.00184215
0.00163661
0.00175967
0.00206237
0.00219164
0.00221432
0.00218381
0.00189341
0.00313198
0.0049731
0.00316288
0.00172548
0.0018641
0.00185026
0.00326387
0.00325917
0.0031894
0.0049624
0.00524766
0.00523497
0.00491847
0.00469482
0.00277969
0.00315516
0.00316594
0.00318274
0.00323492
0.00163432
0.00178149
0.00183699
0.00197775
0.00172777
0.0021955
0.000568179
0.000787697
0.000915039
0.000995124
0.00107224
0.00105192
0.00201267
0.00204229
0.00194859
0.00189731
0.00240789
0.00258383
0.00264087
0.0024324
0.00224445
0.00238901
0.00239426
0.00225648
0.00213743
0.00221607
0.00221765
0.00212535
0.00180778
0.00169399
0.00185957
0.00183953
0.00182487
0.00327658
0.00327081
0.00309581
0.005086
0.00500445
0.00560555
0.00556916
0.00556228
0.00553908
0.00559913
0.00563073
0.00565452
0.00568212
0.00567131
0.00561595
0.00779206
0.00552589
0.00482157
0.00278837
0.00268602
0.0018971
0.00166268
0.0019578
0.0020939
0.00227005
0.00221871
0.00233888
0.00233603
0.00247872
0.00230058
0.0020427
0.00312841
0.00334198
0.00326409
0.00332862
0.00325044
0.0032313
0.00320771
0.00316229
0.00310746
0.00185044
0.00181522
0.00212559
0.00223124
0.00239746
0.00241906
0.00247154
0.00234385
0.00206124
0.00199527
0.00229803
0.00226706
0.00231129
0.00217917
0.00217002
0.00193307
0.00198199
0.00399325
0.00735659
0.00379491
0.0042145
0.00381973
0.00434313
0.00380533
0.0032828
0.00336007
0.00295989
0.00308754
0.00323848
0.003297
0.00346511
0.00408453
0.0039324
0.0034518
0.00335168
0.00328578
0.00309834
0.002789
0.00292133
0.00294744
0.00301061
0.00334602
0.00383747
0.00430112
0.00522438
0.0050698
0.0044426
0.00406153
0.00425851
0.00433347
0.00545305
0.00509402
0.00506418
0.00534243
0.00528963
0.00501943
0.00475593
0.00459061
0.00394272
0.00400745
0.0045842
0.00443618
0.00457185
0.004492
0.00467038
0.00475532
0.00456389
0.00424203
0.0044607
0.00445195
0.00494314
0.00480691
0.00445985
0.00407895
0.00436161
0.00430952
0.00497696
0.00468424
0.00438118
0.00403422
0.00386505
0.00438596
0.00430572
0.00488074
0.00502284
0.00502495
0.00438178
0.00427978
0.00508786
0.0048939
0.00472855
0.00492525
0.00407996
0.0041961
0.00516726
0.00527519
0.00500539
0.00418013
0.00424384
0.00363894
0.00427885
0.00532403
0.00502839
0.00412214
0.00342119
0.0047851
0.005034
0.0053231
0.00503149
0.00547767
0.0058996
0.00481223
0.00523446
0.00683456
0.00522825
0.00606613
0.00619975
0.00623547
0.00623785
0.00626105
0.00629128
0.00662663
0.00644304
0.00410116
0.00490251
0.00476575
0.00398915
0.00339512
0.00373878
0.00402656
0.00408469
0.00418824
0.00434738
0.00427199
0.00412743
0.00604553
0.00690016
0.00704767
0.00718675
0.00706942
0.00689646
0.00649597
0.00600771
0.00499567
0.003727
0.00232811
0.00237338
0.00252922
0.00250523
0.00217315
0.00163903
0.00107747
0.0015986
0.00165413
0.00155948
0.00142355
0.00126028
0.00131
0.00237613
0.00437796
0.00623178
0.00691818
0.00747362
0.00805735
0.00860717
0.00902296
0.00932588
0.00953101
0.00965638
0.00968121
0.00949286
0.00861727
0.00822807
0.00774715
0.00735297
0.00681406
0.00640583
0.00724405
0.00796167
0.00840548
0.00890344
0.00913462
0.00903865
0.00785134
0.00760399
0.00874876
0.0107854
0.00916729
0.0115249
0.0135509
0.0105481
0.00948356
0.00948041
0.0106027
0.010809
0.0104234
0.00982111
0.00912897
0.00825407
0.00868936
0.00908737
0.00947397
0.00983055
0.0107954
0.0109619
0.0108796
0.0107099
0.0104826
0.0101587
0.00965415
0.00895495
0.00814865
0.00734986
0.00642261
0.00446088
0.00222184
0.00249657
0.00246042
0.00251293
0.00250537
0.00119366
0.00131859
0.00133526
0.00134354
0.00126666
0.00144277
0.00208584
0.00338102
0.00243005
0.00200447
0.00137995
0.00161502
0.00269534
0.00456519
0.00515634
0.00526209
0.00536231
0.00696663
0.00793241
0.00842937
0.00881512
0.00908916
0.0089763
0.00868325
0.00816417
0.00749894
0.00724873
0.0068366
0.00647896
0.00628436
0.00608938
0.00570829
0.00446401
0.00431906
0.00450182
0.00444266
0.0042513
0.00454463
0.00471007
0.00470705
0.00476013
0.00480644
0.00494885
0.00511629
0.00526198
0.00533844
0.00536679
0.00537564
0.00538649
0.00539494
0.00541109
0.00539239
0.00527396
0.00463065
0.00289538
0.00169001
0.00156209
0.00171263
0.00181099
0.00185296
0.00164547
0.00105935
0.00164611
0.00213076
0.00218566
0.00239865
0.00247494
0.00262421
0.00292218
0.00337627
0.00348378
0.00309131
0.00292776
0.00286567
0.00279315
0.00239088
0.00298063
0.0032849
0.00327824
0.00324688
0.0035094
0.00431876
0.00414866
0.00365843
0.00361804
0.0035818
0.00324223
0.00319401
0.0034859
0.00352411
0.00365509
0.00428562
0.00513924
0.00476819
0.00434318
0.00416486
0.00384662
0.00338945
0.00306422
0.00376013
0.00308217
0.00163692
0.00139526
0.00138243
0.00138949
0.00134339
0.00159312
0.00167629
0.00169847
0.00157797
0.00175001
0.00194668
0.00188222
0.00212865
0.00210186
0.00188385
0.0018669
0.00201466
0.00212204
0.00217734
0.00223981
0.00366732
0.00379018
0.00293319
0.00424075
0.00488268
0.00483529
0.00512975
0.00422446
0.00379035
0.00449826
0.00519305
0.00594889
0.0047055
0.00445308
0.00455301
0.00209406
0.001102
0.0015544
0.00193017
0.00215315
0.00209005
0.00197487
0.00167027
0.00296239
0.00304258
0.00482495
0.00541324
0.00548513
0.0054529
0.00550601
0.00600912
0.00689606
0.00787199
0.00816032
0.00804593
0.00768517
0.00701483
0.00633786
0.00629961
0.00608034
0.00592204
0.00587484
0.00509441
0.00452051
0.00484757
0.00476209
0.00492372
0.0049995
0.00505466
0.0051107
0.00520372
0.00531583
0.00541791
0.00548727
0.00553325
0.00557167
0.00561074
0.00564983
0.00569203
0.00571429
0.00565909
0.00511361
0.00306665
0.00182818
0.0016675
0.0017792
0.00209109
0.00220178
0.00236634
0.00210081
0.00110646
0.00130054
0.00226056
0.00250734
0.00232011
0.00217144
0.00213252
0.00178653
0.00323688
0.00319495
0.00501668
0.00564341
0.00572354
0.00570879
0.0056657
0.00561664
0.00556855
0.00552894
0.00549707
0.00546308
0.0054149
0.00535585
0.00530178
0.0052472
0.0051535
0.00502082
0.00485868
0.0050486
0.00523459
0.00545604
0.00568891
0.00580452
0.00570196
0.00555079
0.00548702
0.00552379
0.00557147
0.00562022
0.00566399
0.00568535
0.00562088
0.00529622
0.00496808
0.00314595
0.00318701
0.00156793
0.00174157
0.00200944
0.00207535
0.00225356
0.00224241
0.00176266
0.00137429
0.00155083
0.0014495
0.00258945
0.00284774
0.00315823
0.00312717
0.00169815
0.00174196
0.00181039
0.00204173
0.00189867
0.001835
0.00452655
0.00433732
0.00453963
0.00556831
0.00479675
0.00331154
0.00362647
0.00504697
0.00532352
0.0032174
0.00241521
0.00267617
0.00338894
0.00499096
0.00505362
0.00480195
0.004774
0.00348335
0.00428357
0.00515755
0.00501684
0.003908
0.00269204
0.00200745
0.000976875
0.00185804
0.00158837
0.00389227
0.00430748
0.00425768
0.0046556
0.00494629
0.00499678
0.00485529
0.00430623
0.00439179
0.00443512
0.00505335
0.00507577
0.00429726
0.00362633
0.00294622
0.00297259
0.0030301
0.00335743
0.00420372
0.00396071
0.00347166
0.00336651
0.00329401
0.00309838
0.00279611
0.00245249
0.0024695
0.00229859
0.00222455
0.00350663
0.00466765
0.00550421
0.00566259
0.00572011
0.00563267
0.00559327
0.00543384
0.00535162
0.00464954
0.00593865
0.00627724
0.00605672
0.00610069
0.00613795
0.00618397
0.00618414
0.00606727
0.00521372
0.00311362
0.0020338
0.00229558
0.00247767
0.00232655
0.00231341
0.00246574
0.00233981
0.00205532
0.00333002
0.00325493
0.00520452
0.00589418
0.00602127
0.00602955
0.00600619
0.0059869
0.00599502
0.00630988
0.0061636
0.00623839
0.00656093
0.00657383
0.00665476
0.00624888
0.00617026
0.00612045
0.00608739
0.00603294
0.00588578
0.00520946
0.00505071
0.00573456
0.00591016
0.00598758
0.00604113
0.00610541
0.00619033
0.0064358
0.00661771
0.00668532
0.00642384
0.00633107
0.00618652
0.00597814
0.00592854
0.00591788
0.00591224
0.00588255
0.00572893
0.00504249
0.00324207
0.0033219
0.00197612
0.00198894
0.00229074
0.00240591
0.00236291
0.00218811
0.00213336
0.0036713
0.00417884
0.00444458
0.00478765
0.00457327
0.00454651
0.00519581
0.00502865
0.00448067
0.00466277
0.00418359
0.00398664
0.00385537
0.0038772
0.00203968
0.00220101
0.00229588
0.00225789
0.00215913
0.00192589
0.00176615
0.00322337
0.00319974
0.00315799
0.00187786
0.00183662
0.00216371
0.0021012
0.00192211
0.00163849
0.00179627
0.00277377
0.00310235
0.0048111
0.0049837
0.00533485
0.00570615
0.00584781
0.00588708
0.00591099
0.00593757
0.00599331
0.0060585
0.00607515
0.00606942
0.00611312
0.00610335
0.00610383
0.00607053
0.00603289
0.00598955
0.00594363
0.00586833
0.00571284
0.00533919
0.00497234
0.00560669
0.00565786
0.0057627
0.00587133
0.00591778
0.00592566
0.00590534
0.00586411
0.00581541
0.00575836
0.00575767
0.00592614
0.00596615
0.00599583
0.00597865
0.00595861
0.00595173
0.00592507
0.00588171
0.00577164
0.00566126
0.00561398
0.00551965
0.00566789
0.00573412
0.00574502
0.00580188
0.00589233
0.00591821
0.00591713
0.00587298
0.00583547
0.00578773
0.00571082
0.00561111
0.00527351
0.00534086
0.00543016
0.00554662
0.00565922
0.00575029
0.00580139
0.00580462
0.00575126
0.00571572
0.00571743
0.00566942
0.00569518
0.00572094
0.00569182
0.0056886
0.00569345
0.00562971
0.00551271
0.00534956
0.00517659
0.00503265
0.00495758
0.00483719
0.00523069
0.00537964
0.0055129
0.00563157
0.00573871
0.00584587
0.00587905
0.00586706
0.00580026
0.0057616
0.00575869
0.0057022
0.00570023
0.00575493
0.00575848
0.00579079
0.00584817
0.00583195
0.00575306
0.00555176
0.00535565
0.00518508
0.00502229
0.00484866
0.00479131
0.00486956
0.00480662
0.00487697
0.00504809
0.0052614
0.00544536
0.00556213
0.00559873
0.0056332
0.00568431
0.00567867
0.00564848
0.0056319
0.0055629
0.00550291
0.00542924
0.0052677
0.00506095
0.00487773
0.00481748
0.00491437
0.00501233
0.00492194
0.00458024
0.00476255
0.00493504
0.00510726
0.00535059
0.00563059
0.0057537
0.00579747
0.0057691
0.0057463
0.00574213
0.00569029
0.00567286
0.0057206
0.00572552
0.00574848
0.00578479
0.00574804
0.00564647
0.00530326
0.00489453
0.00469833
0.0045828
0.00442655
0.00494683
0.00504951
0.0049246
0.00484043
0.00497173
0.00512556
0.00528542
0.00539202
0.00543454
0.00549362
0.00557109
0.00560814
0.0055531
0.00548899
0.0054097
0.00536833
0.00536609
0.00533767
0.00523437
0.00511381
0.00497616
0.00514445
0.00524226
0.00514851
0.00466869
0.00474593
0.00486079
0.00492844
0.00531134
0.00564582
0.00572552
0.00572896
0.0056938
0.0056703
0.00567007
0.00563974
0.00558443
0.00557498
0.00557076
0.0056368
0.00572285
0.00577096
0.00579466
0.00554478
0.00508673
0.005009
0.00480194
0.00470409
0.0052179
0.00527667
0.00515655
0.00504426
0.00528652
0.00539004
0.00541951
0.00539914
0.00534418
0.00530769
0.00537589
0.005483
0.00540153
0.00505132
0.00473967
0.00489924
0.00493744
0.00492432
0.00485716
0.0047457
0.00450361
0.00502836
0.00553903
0.00558154
0.00504234
0.00505039
0.00488732
0.00454936
0.00499427
0.00523049
0.00528272
0.00526196
0.00518018
0.00498257
0.00526258
0.00550919
0.00546173
0.00494394
0.00320903
0.00325312
0.00327653
0.00327954
0.00323628
0.0032241
0.00317691
0.00315241
0.0030792
0.00300453
0.00293369
0.00312857
0.00329666
0.0035222
0.00354075
0.00363392
0.00347739
0.00329225
0.00307424
0.00239428
0.00303793
0.00362346
0.0038513
0.00414293
0.00420306
0.00485091
0.00510501
0.0052431
0.00514313
0.00412756
0.0035018
0.00279855
0.00182002
0.00113394
0.0013309
0.00138411
0.00145345
0.00177605
0.00328767
0.00167307
0.00232373
0.0018163
0.00313361
0.00164962
0.00103098
0.00068456
0.000874592
0.0010401
0.00104996
0.00100454
0.000837246
0.000656753
0.000671316
0.000624976
0.00066396
0.000597164
0.000684175
0.000639704
0.000894942
0.00134915
0.00152866
0.00156196
0.00126215
0.0014226
0.00118841
0.00137005
0.00122301
0.00133263
0.00127801
0.00156306
0.00171292
0.00164007
0.00164479
0.00143938
0.00100687
0.00116701
0.000916965
0.00110087
0.000842607
0.00108844
0.000933383
0.00121289
0.0012505
0.00124709
0.00120098
0.000917743
0.00108886
0.000857187
0.00105401
0.000862969
0.00092109
0.000767438
0.00111406
0.00113497
0.00104474
0.00111587
0.00125567
0.00134928
0.00148721
0.00140374
0.00159769
0.00153939
0.00155701
0.00147372
0.00143173
0.00139868
0.00140113
0.00137783
0.00138517
0.00142962
0.00143166
0.00143713
0.00148243
0.00146057
0.00142554
0.00140463
0.00124798
0.00100693
0.00175389
0.00180888
0.00183569
0.00183514
0.00179372
0.00177409
0.00171402
0.00169792
0.00164553
0.00161426
0.00154353
0.00148476
0.00141814
0.00159354
0.0008914
0.00101192
0.00106813
0.00109944
0.00112142
0.00113132
0.0011395
0.001133
0.00111891
0.00109103
0.00108133
0.0010511
0.00134481
0.00152941
0.00159841
0.00161684
0.00151576
0.0014435
0.00315283
0.00381477
0.00580619
0.00593396
0.00445235
0.00444025
0.00153882
0.00162258
0.00110968
0.00155949
0.00160814
0.00159202
0.00150433
0.00108546
0.0016296
0.00113548
0.00153393
0.00115164
0.00143136
0.00118182
0.00168644
0.00215003
0.00207587
0.0018801
0.00128917
0.00107348
0.00107705
0.000919623
0.00100673
0.000823283
0.00100628
0.000847921
0.00125837
0.00178629
0.00197325
0.00201237
0.00158643
0.00218821
0.00164497
0.00238086
0.00188916
0.00232906
0.00186804
0.00216227
0.00267526
0.00268712
0.0026234
0.0021146
0.00169564
0.00190281
0.00168632
0.00194162
0.00280666
0.00183983
0.0027895
0.00115295
0.00157156
0.0016199
0.00159779
0.00150673
0.00101557
0.00258726
0.00136847
0.00244108
0.0015814
0.00254284
0.00184473
0.00244802
0.00293029
0.00306524
0.00305529
0.00249176
0.00224621
0.00232432
0.00185607
0.00222734
0.00165599
0.00240109
0.00135626
0.00176113
0.00194902
0.00205122
0.00205985
0.00169366
0.00334334
0.00209867
0.00316751
0.00220173
0.0028206
0.00226018
0.00247297
0.00292003
0.00290197
0.00287779
0.00244042
0.00197477
0.00260648
0.00186003
0.0553436
0.127943
0.050886
0.129292
0.0585644
0.0831109
0.0818938
0.0820651
0.0823622
0.0618197
0.13488
0.159412
0.166265
0.168287
0.167031
0.269931
0.220095
0.330721
0.214402
0.126123
0.054653
0.0753866
0.194644
0.321488
0.482371
0.612044
0.417054
0.431688
0.275471
0.271597
0.255648
0.206704
0.126499
0.0634022
0.0109252
0.0119757
0.0170921
0.0227245
0.0179216
0.0109974
0.00217275
0.00224259
0.00229384
0.00232657
0.00232056
0.00227442
0.00231489
0.00219167
0.0020665
0.00231473
0.00252323
0.0026624
0.00314633
0.00348127
0.00313843
0.00344189
0.00364866
0.00381668
0.00395506
0.00416117
0.00439342
0.00459819
0.00460925
0.00422321
0.00359908
0.00292802
0.00246181
0.00233257
0.00219057
0.00193176
0.00176721
0.00165512
0.00160065
0.00157792
0.00162139
0.00177181
0.00190215
0.00194779
0.00190926
0.00187428
0.00184376
0.0016418
0.00191957
0.00263312
0.00265402
0.00454696
0.00523945
0.00534838
0.00535582
0.00474802
0.00303303
0.00303962
0.00305515
0.00311319
0.00312532
0.00313301
0.00312972
0.00311857
0.0031004
0.00306658
0.00304969
0.0030004
0.0029588
0.0028547
0.00285931
0.00289535
0.00292429
0.00287625
0.00288781
0.00282794
0.00367659
0.00491618
0.00555008
0.00580124
0.00601741
0.00584048
0.00809048
0.00691694
0.00485833
0.00478359
0.00472446
0.00560235
0.00564149
0.00510083
0.00512198
0.0046676
0.00291408
0.00290654
0.00290853
0.00311159
0.00317308
0.00328109
0.00331108
0.0033373
0.00335313
0.00334651
0.00334438
0.00331436
0.00329202
0.00321715
0.00319228
0.00318152
0.00175396
0.00191443
0.00198627
0.00199965
0.00202889
0.00201659
0.00200471
0.00198051
0.0019649
0.00193177
0.00189362
0.00183694
0.0017268
0.00157285
0.00173081
0.0029369
0.00293572
0.00478407
0.00540574
0.00544555
0.00605349
0.00574693
0.00544253
0.0058392
0.0052687
0.0052272
0.00472773
0.00293535
0.00297557
0.00176607
0.00175123
0.00204784
0.00199179
0.0021286
0.00218718
0.00219396
0.00222449
0.00225318
0.00228918
0.00234748
0.00236475
0.00232751
0.00232033
0.00218525
0.00188804
0.00191028
0.00225256
0.00236323
0.00219446
0.00215638
0.00213965
0.00208691
0.002047
0.00200895
0.00203493
0.00219087
0.00218782
0.00214857
0.00204415
0.0019899
0.00172438
0.00166489
0.00291142
0.00295859
0.0048996
0.00500398
0.00496038
0.00571646
0.00638296
0.00726239
0.00619912
0.00504458
0.00528134
0.00604
0.0044973
0.00376943
0.00224416
0.00167636
0.00210394
0.00192435
0.00200723
0.00207957
0.00184701
0.00198516
0.00183572
0.00166828
0.00165909
0.00165726
0.00169818
0.00171549
0.00174672
0.00175101
0.00179376
0.00178978
0.00179497
0.00181688
0.00182629
0.00201783
0.00219291
0.00184573
0.00156482
0.00152467
0.00143972
0.00137066
0.001404
0.00136997
0.0013615
0.00133638
0.0013136
0.00125342
0.00130602
0.00138574
0.00162107
0.0015514
0.00125398
0.00112051
0.00076582
0.000781345
0.000786755
0.000810949
0.000819876
0.000830826
0.000834928
0.000848579
0.000851261
0.000855607
0.000855292
0.000876265
0.000873302
0.0008633
0.000856821
0.000860966
0.000864935
0.00086434
0.00126574
0.00140945
0.00153967
0.00182876
0.00215208
0.00185258
0.00157018
0.00135326
0.000869853
0.000882898
0.000899032
0.000907334
0.000926703
0.000944289
0.000963953
0.000976319
0.000985626
0.000995308
0.00100554
0.00100957
0.00100707
0.000987534
0.000976042
0.00100075
0.00109991
0.00115753
0.00123152
0.00125945
0.00128304
0.00129463
0.0012887
0.00130234
0.00128723
0.00128521
0.00126352
0.00125435
0.00124566
0.00123461
0.00122079
0.00118642
0.00117503
0.00123613
0.00209444
0.00274037
0.0031561
0.00347672
0.00322116
0.00262022
0.00274614
0.00483042
0.00457918
0.0026965
0.00252111
0.00233153
0.00204404
0.00176887
0.00213342
0.00243674
0.00266632
0.00286753
0.00305147
0.00317624
0.00333636
0.00354534
0.00391509
0.00396158
0.00361352
0.00292848
0.00247965
0.00231659
0.00223842
0.00210177
0.00195236
0.00200113
0.00201545
0.00195532
0.00188061
0.00185923
0.00188988
0.00192887
0.00190571
0.001905
0.00170189
0.0017013
0.00290703
0.00296214
0.00455636
0.0048007
0.00484702
0.00311655
0.00307367
0.00179525
0.00166721
0.00181878
0.00188801
0.00189185
0.00189938
0.00188958
0.00185641
0.00183219
0.00180401
0.00178111
0.00176093
0.00172603
0.00165953
0.00153269
0.00167014
0.00187305
0.00195613
0.00197775
0.00198809
0.00201955
0.002071
0.00211232
0.00220819
0.00221816
0.00221744
0.00222535
0.00208002
0.00214523
0.00181553
0.00181303
0.00314259
0.00313422
0.00180046
0.00212615
0.00214041
0.00211585
0.00227773
0.00208425
0.00201802
0.00200704
0.00192184
0.00187656
0.00181625
0.00178017
0.00181493
0.00193055
0.00186906
0.00165628
0.00159643
0.00179094
0.00172315
0.00142966
0.00122149
0.00118792
0.00113716
0.0011064
0.00115971
0.00120126
0.00122497
0.00125509
0.00126404
0.00131945
0.00128384
0.00134737
0.00142888
0.00149385
0.00177206
0.00192021
0.00173472
0.00170133
0.00168022
0.00167823
0.00168349
0.00161395
0.00160934
0.00157345
0.00155577
0.00150889
0.00148769
0.00146071
0.00146548
0.00148088
0.00162798
0.00419571
0.00534868
0.00556913
0.00950319
0.00384282
0.00392358
0.00768291
0.00318448
0.00478487
0.00512594
0.0053615
0.00559968
0.00512401
0.0065021
0.00454512
0.00506361
0.00527845
0.00462173
0.00173091
0.0019722
0.00227337
0.00203028
0.00179339
0.00122244
0.00131811
0.00136123
0.00139627
0.00141891
0.00144419
0.00147122
0.00149663
0.00151444
0.00151472
0.00146869
0.00141907
0.00130503
0.00126706
0.00131613
0.00136688
0.00120053
0.00113037
0.00114376
0.00116265
0.00117325
0.00117556
0.00118713
0.00119028
0.00120853
0.00119883
0.00120805
0.00118743
0.00119797
0.00118227
0.00114188
0.00108527
0.000988957
0.000965377
0.00139048
0.00148063
0.0015554
0.00176486
0.00203765
0.00217428
0.00194863
0.00179674
0.00172465
0.00191317
0.00191378
0.0034771
0.00667685
0.00298897
0.00335005
0.00977087
0.00388182
0.00301788
0.00306372
0.00309601
0.00310029
0.00180169
0.00213408
0.00206937
0.00207758
0.00176202
0.00147931
0.00132672
0.00118619
0.0008043
0.000801626
0.000807679
0.000820013
0.000823843
0.000788519
0.000788423
0.00078391
0.000782141
0.000765529
0.000760892
0.000747397
0.000739201
0.000719778
0.000709237
0.000690733
0.000687488
0.000717422
0.000797941
0.000964546
0.00107337
0.00122015
0.0012423
0.00139867
0.00346499
0.00401985
0.00553846
0.00549441
0.00866624
0.00541494
0.00409024
0.00369573
0.00540765
0.00558616
0.00518083
0.00701971
0.00485775
0.00321579
0.00483754
0.00402577
0.00476259
0.00467214
0.0049584
0.00788367
0.00831363
0.00233955
0.00208558
0.00219399
0.00248906
0.00295515
0.00272222
0.00310052
0.0031002
0.0023949
0.00152064
0.00484554
0.00583786
0.00469101
0.00563841
0.00871472
0.00349896
0.00341254
0.0030197
0.00252052
0.00229079
0.00226025
0.00252027
0.00301562
0.00755941
0.00808173
0.00745411
0.0074256
0.00673334
0.00739783
0.00924098
0.00920212
0.00813321
0.00761073
0.00788101
0.00487842
0.00303139
0.00353256
0.00391559
0.00522503
0.00538685
0.0113789
0.0038596
0.00426329
0.00433025
0.00579395
0.00560817
0.00991918
0.00419996
0.00452994
0.00596988
0.0079822
0.0147272
0.0053687
0.00565697
0.00814026
0.00826463
0.00755237
0.00545321
0.00494009
0.00538435
0.00405612
0.00396501
0.00338395
0.00499637
0.00672848
0.00531937
0.00516531
0.00439427
0.00391017
0.00400614
0.00415767
0.00345296
0.00340495
0.00393001
0.00291508
0.00282119
0.00298589
0.000828891
0.000424812
0.000434281
0.000445552
0.000454717
0.000464152
0.000471063
0.000479249
0.000482962
0.000483358
0.000484579
0.000512517
0.000507795
0.000491747
0.000446519
0.000509548
0.00080863
0.000809202
0.000509004
0.000448735
0.000805161
0.00128307
0.00151279
0.00178972
0.00181198
0.00156341
0.00135538
0.000834161
0.000821064
0.000497665
0.000581218
0.000631172
0.000559801
0.000624739
0.000579027
0.000613319
0.000619618
0.000573219
0.000570042
0.000572245
0.000567856
0.000557761
0.00054542
0.00053039
0.000518579
0.000512161
0.000507219
0.000496342
0.000412278
0.000384364
0.00046251
0.000737942
0.000736922
0.000690652
0.000650944
0.000616967
0.000601403
0.000596969
0.000593636
0.000603985
0.00062353
0.000629047
0.00063456
0.000683818
0.000662587
0.00070772
0.00066419
0.000709623
0.000666083
0.000612749
0.0005145
0.000530846
0.000856402
0.000865523
0.0013986
0.00160013
0.00181449
0.00182388
0.00203583
0.00214392
0.00181538
0.00188475
0.00216021
0.00201203
0.00179366
0.00180062
0.00161982
0.00162127
0.00143602
0.00089735
0.00088514
0.000555879
0.000539828
0.000643688
0.000632404
0.000703327
0.000752682
0.000752899
0.000750452
0.000731429
0.00072464
0.000637203
0.000624711
0.000625532
0.000606605
0.000602635
0.000628593
0.000686365
0.000805843
0.000974776
0.00106132
0.00109824
0.00105311
0.00094288
0.000696025
0.000628796
0.00109002
0.00113114
0.00202674
0.0047996
0.00223688
0.00427407
0.00308555
0.000767199
0.000855877
0.00109142
0.00122297
0.00132049
0.00137639
0.00125811
0.00104986
0.000790529
0.000652774
0.000974642
0.000842743
0.000951738
0.000831207
0.00107581
0.00124389
0.00120335
0.00121244
0.00102468
0.000834724
0.000883971
0.000793648
0.000874772
0.000732319
0.000881076
0.000795556
0.000999738
0.00100911
0.000988109
0.000936597
0.000713141
0.000748217
0.000627593
0.000680799
0.00061119
0.000631692
0.00059856
0.00069805
0.000804362
0.000771952
0.000768917
0.000631765
0.000495016
0.000546714
0.000472708
0.000535
0.00041577
0.000503667
0.000422398
0.000546812
0.000563746
0.000566882
0.000563456
0.000458608
0.000539126
0.00066035
0.000693169
0.000698772
0.000665657
0.00051308
0.000793965
0.000716716
0.000875143
0.000757066
0.00082865
0.000754662
0.000879645
0.00112657
0.00117621
0.00118406
0.000960641
0.000954473
0.00174144
0.0964985
0.00156646
0.00185138
0.00190905
0.00190213
0.00157267
0.0015345
0.00190044
0.00140603
0.00199091
0.0012536
0.00212307
0.000809365
0.00123023
0.00132079
0.00131796
0.00122486
0.000821371
0.00242929
0.119224
0.308091
0.334291