/*--------------------------------*- C++ -*----------------------------------*\
| =========                 |                                                 |
| \\      /  F ield         | OpenFOAM: The Open Source CFD Toolbox           |
|  \\    /   O peration     | Version:  v2012                                 |
|   \\  /    A nd           | Website:  www.openfoam.com                      |
|    \\/     M anipulation  |                                                 |
\*---------------------------------------------------------------------------*/
FoamFile
{
    version     2.0;
    format      ascii;
    class       volScalarField;
    location    "750";
    object      k;
}
// * * * * * * * * * * * * * * * * * * * * * * * * * * * * * * * * * * * * * //

dimensions      [0 2 -2 0 0 0 0];


internalField   nonuniform List<scalar> 
18258
(
0.0334469
0.0157675
0.0123083
0.0101578
0.0109854
0.0139878
0.0167856
0.021153
0.0255736
0.0315148
0.0385862
0.0475215
0.0535267
0.0606839
0.0636567
0.0619317
0.0520646
0.047309
0.0564661
0.0809709
0.0710672
0.0513905
0.0623234
0.0614861
0.0722476
0.0763393
0.0600762
0.0548542
0.0494383
0.0437548
0.0371916
0.0230349
0.0240845
0.0288415
0.0320507
0.035757
0.038614
0.0409438
0.0426114
0.0434348
0.0433413
0.0420418
0.039346
0.0353081
0.0298565
0.0238924
0.0236151
0.0237215
0.0294133
0.0350493
0.0405234
0.0461469
0.0546025
0.044682
0.0290462
0.0392052
0.0476866
0.0545805
0.0590045
0.061449
0.0622085
0.0612918
0.0589993
0.0557383
0.0517774
0.0474404
0.0434266
0.0394459
0.0342082
0.0309499
0.0268431
0.0235024
0.0210653
0.0193552
0.018238
0.0172332
0.0163663
0.015632
0.0150158
0.0145913
0.0144999
0.0145261
0.0146264
0.0147222
0.0150648
0.0127181
0.0109462
0.010478
0.0102206
0.00956658
0.00810689
0.0106565
0.0117575
0.0121731
0.0124419
0.0136201
0.0147833
0.0143621
0.0136361
0.0125217
0.0125652
0.0170306
0.0178092
0.0228509
0.0216714
0.0168601
0.0148848
0.016671
0.019508
0.0225398
0.0192502
0.0192314
0.0179373
0.0170293
0.0148892
0.0149332
0.0144246
0.0141187
0.0150413
0.0177921
0.0172001
0.0173074
0.0185294
0.0188541
0.0200815
0.0210996
0.0204472
0.0202655
0.0164196
0.0163201
0.0173614
0.0172355
0.0177154
0.0202024
0.0202601
0.0206083
0.020826
0.0236096
0.0236281
0.0235928
0.023684
0.024523
0.0235598
0.023147
0.0231762
0.023212
0.0210483
0.0208243
0.0204579
0.0204953
0.0183361
0.0176006
0.0183309
0.0193101
0.0212844
0.0250351
0.0314688
0.0403878
0.0504802
0.0607192
0.0684888
0.072847
0.0772086
0.0766849
0.077385
0.0794838
0.0798496
0.0787017
0.0768505
0.0746845
0.0717331
0.0671049
0.0666447
0.0590027
0.048112
0.0334011
0.0389045
0.041737
0.044486
0.0447825
0.0452579
0.0440445
0.0422903
0.0387185
0.0336308
0.0247552
0.0257329
0.0301797
0.0348435
0.0386299
0.0427906
0.0464202
0.048276
0.0499929
0.059351
0.0570773
0.055166
0.0568598
0.0584235
0.0616272
0.0600639
0.0561219
0.0501563
0.051798
0.0449151
0.0335783
0.0313705
0.029256
0.026984
0.0378323
0.0496065
0.0611406
0.0674874
0.073664
0.0785254
0.0825816
0.0871337
0.0816777
0.0765335
0.0577841
0.0839209
0.0657843
0.0504695
0.0411371
0.0332018
0.031662
0.0344005
0.0344326
0.0326116
0.0280455
0.0220513
0.0229857
0.0358082
0.0455912
0.0535907
0.0551705
0.0598618
0.0622748
0.0570056
0.0575786
0.0467573
0.0479569
0.0513808
0.0459801
0.0437228
0.0351171
0.0274195
0.0335703
0.0499417
0.0685621
0.0845254
0.0996493
0.0660469
0.050124
0.0410252
0.0341995
0.033055
0.0376734
0.0436159
0.0528111
0.0411843
0.0371277
0.0336217
0.0307557
0.0258328
0.0275535
0.0287718
0.0269349
0.0497867
0.0573283
0.0611772
0.0838181
0.0926894
0.108704
0.107336
0.092826
0.0965749
0.0692378
0.068911
0.0862925
0.0682977
0.0513328
0.0616351
0.0745741
0.0883858
0.101536
0.112839
0.121932
0.123644
0.112153
0.0812995
0.0468078
0.021295
0.0186369
0.01808
0.0173735
0.0164892
0.0157021
0.0150861
0.0121497
0.00951379
0.00928259
0.00945957
0.00940342
0.00826789
0.00951534
0.0115773
0.0137707
0.0152799
0.01649
0.017511
0.0182461
0.0188351
0.019234
0.0195309
0.0197991
0.0200351
0.0202219
0.020361
0.0204529
0.0204965
0.0204835
0.0204074
0.0202666
0.0200594
0.0197699
0.0192945
0.0177619
0.0159083
0.0150803
0.0151393
0.0148896
0.0145875
0.0119521
0.0123252
0.0143457
0.0149785
0.0177701
0.019806
0.0215091
0.0229629
0.0244891
0.025265
0.0260921
0.0263564
0.0264072
0.026305
0.0261524
0.0259251
0.0256186
0.0245491
0.0212931
0.0248968
0.0272912
0.0289803
0.0303331
0.0312381
0.0313403
0.0285887
0.0360732
0.0385295
0.0394329
0.0396996
0.0388827
0.0368771
0.0344345
0.0323841
0.0308778
0.0297612
0.0276191
0.0253724
0.0230638
0.0206485
0.0174264
0.0186968
0.0205324
0.0207426
0.0204521
0.0214968
0.0227565
0.0211027
0.0190127
0.0161218
0.0151238
0.014633
0.0144433
0.0148492
0.0145052
0.0144041
0.0149026
0.0179166
0.0190114
0.0207124
0.0239695
0.0228364
0.0208922
0.0280643
0.0296761
0.0301238
0.030472
0.0303806
0.0296249
0.0265463
0.0250891
0.0264753
0.0250176
0.0243871
0.0244763
0.0241089
0.0222462
0.0245463
0.0265467
0.0281373
0.0289851
0.0302227
0.0317766
0.0339365
0.0357295
0.0373879
0.0383895
0.0383641
0.0378232
0.038
0.0386413
0.0383211
0.0366352
0.0345662
0.0324819
0.0295269
0.0293517
0.0313179
0.0328732
0.0345279
0.0362993
0.0356195
0.0337353
0.0321148
0.0307015
0.0289986
0.0288796
0.0305494
0.031987
0.0337211
0.0358389
0.0360209
0.0338794
0.032064
0.0305645
0.0288676
0.0288356
0.0305309
0.0320396
0.0337613
0.0356492
0.0347802
0.0333095
0.0317885
0.0303239
0.028664
0.0282265
0.0298267
0.0312066
0.0325191
0.0335842
0.0319106
0.0313212
0.0302523
0.028865
0.0271098
0.0258543
0.0263629
0.0277488
0.0278596
0.0283379
0.0294549
0.0293005
0.0290178
0.0289732
0.0286916
0.026446
0.0268532
0.0269018
0.0275936
0.030891
0.0304123
0.0330828
0.0354934
0.0331858
0.0316987
0.0281328
0.0336915
0.0337342
0.0346932
0.0335204
0.0237504
0.0218968
0.022898
0.0244309
0.0260709
0.0253843
0.0226314
0.0225618
0.0231639
0.0225776
0.0210177
0.0180368
0.0135553
0.0135645
0.0135564
0.0142907
0.0170951
0.018695
0.0188074
0.0186527
0.0183502
0.0178783
0.0171615
0.0160905
0.0156275
0.024607
0.0445313
0.0563874
0.0558069
0.0424419
0.0355104
0.0261451
0.0179317
0.0105295
0.0107314
0.011371
0.0137302
0.0115801
0.0105043
0.0144764
0.0117872
0.0196995
0.0228831
0.0302543
0.0412947
0.0398271
0.0302022
0.0204297
0.0184626
0.0193283
0.0198425
0.0202307
0.0206124
0.0209975
0.0214155
0.0219232
0.0215932
0.0189586
0.0167172
0.0168436
0.0174148
0.0199169
0.0212956
0.0220888
0.0217587
0.0220108
0.0237343
0.0224874
0.0212581
0.021049
0.0203434
0.023186
0.0235338
0.0229082
0.022918
0.0231967
0.0230776
0.0232087
0.0240143
0.0198152
0.0219266
0.0224762
0.0227596
0.0235543
0.0190528
0.0192407
0.0193029
0.0181452
0.014891
0.0180237
0.0167806
0.0121621
0.0134785
0.0134423
0.0140537
0.0143795
0.017123
0.0162845
0.0155597
0.0163212
0.0223037
0.0231141
0.0232939
0.0206527
0.019409
0.0218987
0.022487
0.0220261
0.0211399
0.0213066
0.0203627
0.0184586
0.0177389
0.0178762
0.0192888
0.020087
0.020154
0.0237692
0.0232679
0.0217041
0.0227043
0.0232985
0.0228912
0.0227828
0.0227298
0.0223587
0.0219376
0.0223503
0.0225381
0.0225899
0.0221481
0.0223989
0.0250408
0.0214784
0.0212861
0.0201987
0.0195385
0.0179063
0.0176528
0.0177511
0.0177108
0.0176158
0.0167767
0.0186382
0.0179109
0.020047
0.0216623
0.0228159
0.0239901
0.0241414
0.0237122
0.0236731
0.0232886
0.0232553
0.0227036
0.0218544
0.0212679
0.020489
0.0192775
0.0192699
0.0192201
0.0190756
0.0204836
0.020382
0.0219502
0.0230738
0.0227886
0.0218201
0.021712
0.020532
0.0205094
0.0215541
0.0224465
0.0226962
0.0235602
0.0260958
0.023747
0.0253002
0.0259978
0.0266609
0.0260487
0.0249507
0.0256995
0.0240359
0.022922
0.0242407
0.0249638
0.0262248
0.0270195
0.0250416
0.0240132
0.0228161
0.0219532
0.020967
0.0184412
0.0190539
0.019844
0.0210759
0.0228917
0.0256137
0.0283505
0.031271
0.0313268
0.0290283
0.027329
0.0321275
0.0316035
0.0365768
0.0371753
0.033054
0.0302527
0.0273414
0.0269168
0.0259976
0.0254623
0.0241855
0.0254366
0.0258635
0.0249161
0.0273855
0.0289572
0.0332879
0.0388513
0.0355173
0.0326858
0.0377368
0.0366496
0.042617
0.0364003
0.0347385
0.0286025
0.0332027
0.0355546
0.043303
0.0338991
0.0297166
0.0294882
0.0308089
0.0382936
0.0368388
0.0394402
0.044594
0.043931
0.0390488
0.0358167
0.0415826
0.0316258
0.0370501
0.0390598
0.0324331
0.0322009
0.0390812
0.0396975
0.0398529
0.0337652
0.0330469
0.0250357
0.0335919
0.0400759
0.0399786
0.0331943
0.0259878
0.0358994
0.0315457
0.031347
0.0313463
0.0269546
0.0268896
0.026181
0.0264382
0.0271522
0.0247146
0.0255213
0.0257824
0.0259461
0.026078
0.0262709
0.0266161
0.0272608
0.0279893
0.0229059
0.0243554
0.0229954
0.0216436
0.0202798
0.0240606
0.0265359
0.0283409
0.0297938
0.0309277
0.0314102
0.0299917
0.0379644
0.0396868
0.0413176
0.0414788
0.0402564
0.0376252
0.0342103
0.0307546
0.0285363
0.0272021
0.0246835
0.0225518
0.0204773
0.0183219
0.0155214
0.0142101
0.0129051
0.0115728
0.0112578
0.0107348
0.010146
0.00947308
0.00911545
0.011525
0.0185042
0.0277633
0.0328045
0.0381235
0.0446896
0.0514495
0.0570189
0.0611207
0.0639539
0.065665
0.0660772
0.0633741
0.0524546
0.0474587
0.0426077
0.0377032
0.032759
0.0320864
0.0411682
0.0494657
0.0565075
0.0628749
0.0670413
0.065435
0.049961
0.0467741
0.0622958
0.0897579
0.0804306
0.103408
0.119915
0.0795993
0.0649163
0.0641914
0.079524
0.0820059
0.0753278
0.0663022
0.0563943
0.0454479
0.050437
0.0551844
0.0597073
0.0642395
0.0776363
0.0802399
0.0791071
0.0767639
0.0735661
0.0689467
0.0619584
0.0530591
0.0440907
0.0365433
0.0296466
0.0196428
0.0125969
0.0134985
0.0129607
0.0148735
0.0143607
0.00989365
0.0102291
0.0104498
0.0103969
0.0101754
0.0102286
0.0116221
0.0183162
0.0150037
0.0136255
0.0117301
0.0145045
0.0164183
0.0183655
0.0189825
0.0191335
0.0196033
0.0316998
0.0434047
0.0495307
0.0544038
0.0582054
0.0568202
0.0531679
0.0469006
0.0396017
0.0369552
0.0330255
0.0297206
0.0280749
0.0290494
0.0255325
0.0158792
0.014639
0.0157074
0.0154051
0.0144146
0.0163636
0.017586
0.018364
0.0189934
0.0194642
0.0198267
0.0200858
0.0202582
0.0203494
0.0203775
0.0203571
0.0202929
0.0201837
0.0200267
0.0198112
0.0195069
0.0189877
0.0172715
0.0154257
0.0147065
0.01479
0.014558
0.0141933
0.0123139
0.0125395
0.0143991
0.0150028
0.0146144
0.0152084
0.0156825
0.016896
0.0190735
0.0212132
0.0230507
0.0217372
0.0210768
0.0210427
0.0206385
0.017447
0.0207553
0.0236634
0.0241822
0.0244605
0.0252837
0.0268865
0.0278361
0.0268962
0.0263854
0.0258496
0.0227299
0.0243594
0.0279223
0.0283412
0.0290243
0.0296267
0.0302059
0.0314893
0.0308549
0.0299578
0.029357
0.0264991
0.0256205
0.0316568
0.0206543
0.0144229
0.0103119
0.0107954
0.0109853
0.0106384
0.011411
0.011957
0.01221
0.0116059
0.0126859
0.0136047
0.0129143
0.0154424
0.0147359
0.0137165
0.0132472
0.0140955
0.0148912
0.0152873
0.0163054
0.0264043
0.0271857
0.0227508
0.0292576
0.0318394
0.0290399
0.0319118
0.0295449
0.0281933
0.0309801
0.0343937
0.0356795
0.0333221
0.0319174
0.031304
0.0208395
0.0201534
0.0194367
0.0175867
0.0178606
0.0174021
0.0169514
0.0165493
0.0191039
0.0205006
0.0217225
0.0214228
0.0211237
0.0207117
0.0208022
0.0246661
0.032622
0.0431449
0.0469322
0.0457356
0.0417714
0.0347542
0.0283343
0.0279882
0.0261679
0.0250082
0.0247943
0.0188807
0.0148805
0.0174051
0.017359
0.01843
0.0191084
0.0196441
0.0200736
0.0204344
0.0207487
0.0210549
0.0213399
0.0215891
0.0217985
0.0219774
0.0221252
0.0222828
0.0224724
0.0227334
0.022942
0.0212878
0.0186432
0.0172891
0.0171412
0.01786
0.0187659
0.0198931
0.0191313
0.0154038
0.0154904
0.021911
0.0223779
0.021011
0.0195849
0.0197884
0.0189448
0.0227865
0.0225946
0.023413
0.0232113
0.0229311
0.0226479
0.0223643
0.0220686
0.0217685
0.0215051
0.0212646
0.0210409
0.0208217
0.0205875
0.0203028
0.0198843
0.0191871
0.0183764
0.0168785
0.0180077
0.0192583
0.0209866
0.0228393
0.0236909
0.0227916
0.0215941
0.0211178
0.0213736
0.0216944
0.022034
0.022395
0.022815
0.0232313
0.0236198
0.0235538
0.0222034
0.0228525
0.0174889
0.0183417
0.018643
0.0186019
0.020262
0.0193941
0.0146614
0.015179
0.0159093
0.017204
0.0198083
0.0201782
0.0215448
0.0217763
0.0173443
0.0170408
0.0166122
0.0176144
0.0152346
0.0158829
0.0266791
0.0272709
0.0350264
0.0384071
0.0399936
0.0331756
0.0456342
0.0525077
0.050646
0.0409372
0.0235388
0.0346945
0.0422176
0.0488895
0.0458387
0.0356793
0.0450006
0.0474355
0.0633597
0.0590317
0.0526639
0.0633973
0.044805
0.0269675
0.0158308
0.0164008
0.0151982
0.0306915
0.0348032
0.0315107
0.0323677
0.0399978
0.0410095
0.0362774
0.0345638
0.0363219
0.0358698
0.0398417
0.0371517
0.0337404
0.023323
0.0190376
0.0198832
0.0212989
0.0231318
0.0254762
0.0253726
0.024225
0.0228544
0.0218734
0.0208133
0.0183115
0.0176488
0.0196116
0.021243
0.0226226
0.0241348
0.0249575
0.0257997
0.0259633
0.025853
0.0255274
0.0250963
0.0245391
0.0238534
0.0224439
0.0236871
0.0243655
0.0245744
0.0248535
0.0251676
0.0254462
0.0255904
0.0254776
0.0245219
0.0237061
0.0225353
0.0214173
0.019809
0.0176894
0.018374
0.0201365
0.0217399
0.022855
0.0239068
0.0235187
0.0240143
0.0246761
0.0246968
0.0245124
0.0242879
0.0241378
0.0242328
0.0248686
0.0265903
0.026319
0.0291498
0.0303288
0.027761
0.0264318
0.0257401
0.0253151
0.0250703
0.0248644
0.0246652
0.0241185
0.0235794
0.0240818
0.0243347
0.0246296
0.0249828
0.0254831
0.0261659
0.0272513
0.028653
0.0285402
0.0263269
0.0261767
0.0251124
0.0243212
0.023938
0.0238832
0.023926
0.0240291
0.0239686
0.0234456
0.0231142
0.0235189
0.0225047
0.0225682
0.0215948
0.0202322
0.0187886
0.0173357
0.016673
0.0353498
0.0353299
0.0458196
0.0425104
0.0371842
0.047257
0.0602541
0.0522322
0.0629236
0.0667271
0.0542394
0.050333
0.0279468
0.024456
0.017409
0.0189363
0.0202845
0.0214927
0.0213091
0.022233
0.0221151
0.0230877
0.0225443
0.0217633
0.0212054
0.0201866
0.0202417
0.0189674
0.01742
0.017287
0.0189385
0.0200001
0.0211824
0.0211799
0.0226432
0.0231417
0.0235422
0.0236964
0.0236918
0.0237891
0.0239665
0.0244239
0.025143
0.0256122
0.0257497
0.0261192
0.0258526
0.0255451
0.0251057
0.0248099
0.0245028
0.0242311
0.0239407
0.0236638
0.0232311
0.022573
0.0224536
0.0229683
0.0233077
0.0235379
0.0236655
0.0236363
0.0234295
0.0230986
0.0227641
0.0224003
0.0224625
0.0238299
0.0240916
0.0242307
0.0240138
0.0238296
0.0237981
0.0236601
0.0235499
0.0233142
0.0229423
0.0224732
0.0214039
0.021503
0.0223851
0.0228288
0.0231616
0.023447
0.0234859
0.0234217
0.0230545
0.0227625
0.0224027
0.0218195
0.0210506
0.018537
0.0190124
0.0196507
0.0205169
0.0213871
0.0221295
0.0226063
0.0228113
0.0228178
0.0226494
0.0222973
0.0215462
0.021525
0.0220649
0.0222285
0.022168
0.0218482
0.0212071
0.0202579
0.0190286
0.0177913
0.0168105
0.0163321
0.0155619
0.0181817
0.0192576
0.0202421
0.0211363
0.0219627
0.0228175
0.0231254
0.0231639
0.0230002
0.0227299
0.0223158
0.021544
0.0215485
0.0222526
0.0226436
0.0228633
0.022957
0.0227044
0.0220465
0.0204976
0.0190562
0.0178467
0.0167258
0.0155718
0.0153005
0.0158063
0.0153675
0.0157861
0.0169089
0.0183984
0.0197772
0.0207867
0.0214029
0.0217047
0.0217442
0.0214188
0.0212331
0.0213527
0.0211423
0.0206344
0.0197566
0.0184658
0.016995
0.0157803
0.015416
0.016055
0.0166927
0.0160935
0.0138709
0.0150053
0.016133
0.0172909
0.018998
0.0210747
0.0220528
0.0225302
0.0226667
0.0225389
0.0221728
0.0215202
0.0214614
0.022086
0.0224451
0.0225518
0.0224547
0.0220398
0.021233
0.0187122
0.0159147
0.0146425
0.0139039
0.0129671
0.0162471
0.016942
0.0161339
0.015599
0.0164548
0.0174863
0.0186278
0.0195108
0.0201556
0.0206654
0.0209508
0.0209885
0.020711
0.0205859
0.0203578
0.020011
0.0196786
0.019353
0.0185884
0.0177582
0.0167778
0.0178366
0.0183973
0.0176448
0.0144671
0.0150341
0.0159117
0.0164657
0.0191779
0.0216414
0.022272
0.0224357
0.0225221
0.0223823
0.0219855
0.0213703
0.0212439
0.0218828
0.0223715
0.0226837
0.0229996
0.0232638
0.0234604
0.0215782
0.0182128
0.0173912
0.0155978
0.0147531
0.0182057
0.0188849
0.0184127
0.0178592
0.0195538
0.020257
0.0204921
0.0204657
0.020378
0.0202822
0.0203047
0.0204269
0.0201251
0.0199938
0.0200956
0.0203189
0.0202905
0.0200845
0.0195228
0.0187512
0.0176343
0.0194842
0.0211508
0.0208759
0.0169914
0.0175318
0.0184268
0.0180574
0.0208403
0.0226884
0.0231557
0.0230666
0.0227303
0.0222438
0.0216956
0.0210538
0.0207718
0.0213404
0.0219114
0.0219453
0.0220438
0.0219978
0.0214394
0.0212762
0.0207041
0.0204347
0.0196729
0.0190912
0.0183443
0.0205085
0.0237256
0.025941
0.0275298
0.0294261
0.0279667
0.0244259
0.022149
0.0152602
0.0152686
0.0154914
0.0148652
0.0144898
0.014305
0.0187277
0.0214614
0.0241279
0.0258265
0.0233905
0.0233503
0.0232597
0.0231423
0.0230252
0.0229114
0.0226913
0.0233148
0.0405649
0.282501
0.208434
0.234536
0.223737
0.315159
0.0784495
0.0386586
0.0430799
0.0502913
0.0578961
0.0561376
0.0521021
0.0454201
0.0406981
0.0403008
0.0395423
0.039322
0.0380252
0.0380668
0.0374705
0.0453274
0.0965771
0.124555
0.138067
0.146474
0.155322
0.150725
0.159586
0.151372
0.151752
0.153258
0.157976
0.150571
0.143228
0.139414
0.135106
0.117792
0.118135
0.0996947
0.103487
0.0863733
0.0908737
0.094749
0.0940869
0.0928873
0.092679
0.0929727
0.093818
0.0976001
0.0928984
0.0990738
0.0914416
0.0732776
0.070939
0.0731127
0.0673843
0.058833
0.0671078
0.0827089
0.0990327
0.116269
0.0986595
0.122814
0.1157
0.115763
0.109817
0.103201
0.0993586
0.0985668
0.099155
0.100273
0.102917
0.104863
0.106478
0.109418
0.118004
0.120421
0.119095
0.101625
0.0863045
0.0947671
0.0996084
0.103278
0.103533
0.0987822
0.0967003
0.0906379
0.0890876
0.083618
0.0810003
0.0755776
0.072232
0.0674261
0.0840284
0.0821326
0.089141
0.0954405
0.0996464
0.103307
0.104875
0.106161
0.104958
0.102567
0.0975148
0.0953466
0.0904984
0.10898
0.127375
0.130037
0.125324
0.111811
0.106152
0.339109
0.411448
0.412824
0.613006
0.654953
0.847196
0.335925
0.179532
0.191964
0.188626
0.180433
0.177254
0.177076
0.188879
0.19801
0.189002
0.200909
0.178838
0.177732
0.170342
0.198446
0.196052
0.176623
0.154548
0.122013
0.0998687
0.0995948
0.0828315
0.0835579
0.0723628
0.0730449
0.0746965
0.0924605
0.172208
0.210286
0.23694
0.263323
0.32374
0.293328
0.442799
0.35431
0.439545
0.303265
0.328019
0.313651
0.304789
0.302741
0.318725
0.341523
0.3002
0.373498
0.299109
0.648026
0.784668
0.496182
0.458735
0.406628
0.392428
0.382505
0.376933
0.368902
0.486753
0.45134
0.555189
0.516192
0.648363
0.568227
0.576039
0.543005
0.581779
0.602335
0.615246
0.49226
0.538035
0.419028
0.453428
0.377631
0.413491
0.292755
0.292505
0.335325
0.372145
0.398183
0.455356
0.715329
0.607096
0.818593
0.585885
0.707819
0.491507
0.538872
0.5145
0.496815
0.49848
0.526562
0.630628
0.609758
0.696764
0.514713
0.526981
0.516713
0.534053
0.523495
0.558443
0.563138
0.564324
0.56231
0.523426
0.534031
0.532201
0.531978
0.531997
0.532345
0.509586
0.512769
0.505229
0.51101
0.526916
0.514595
0.514511
0.512372
0.504798
0.502742
0.502257
0.504017
0.503785
0.50892
0.50879
0.50913
0.51219
0.526897
0.514422
1.82504
0.903134
0.430569
0.340341
0.220218
0.135186
0.0559546
0.0604391
0.0634062
0.0643734
0.0623635
0.0570077
0.0488479
0.0388166
0.0310003
0.0301716
0.0269029
0.0266403
0.0344701
0.0421525
0.0385601
0.0463804
0.0540929
0.0624188
0.0704108
0.0773732
0.0832585
0.086197
0.0831596
0.0704243
0.0527469
0.0353029
0.0250041
0.0225939
0.0209476
0.0189546
0.0168485
0.0151872
0.0141906
0.0130298
0.0124059
0.012324
0.0125524
0.0127961
0.0132409
0.0147547
0.0160543
0.0172394
0.0182034
0.0184482
0.0179241
0.0184663
0.0190605
0.0194559
0.019801
0.0196178
0.0196094
0.0198584
0.0198195
0.0200288
0.0199331
0.0199512
0.0198144
0.0196584
0.0194343
0.0190073
0.0187277
0.0181627
0.0178097
0.0169553
0.0169907
0.0173849
0.0177092
0.0167024
0.0166399
0.0158955
0.0271649
0.0483295
0.0611879
0.0662153
0.0714997
0.0674622
0.057177
0.039267
0.0192452
0.0187817
0.0192656
0.021784
0.0212961
0.0173641
0.018157
0.0188271
0.0176431
0.0176136
0.0176473
0.0197386
0.020353
0.021704
0.0222011
0.0225521
0.0227674
0.0226789
0.0227615
0.022444
0.022432
0.0220257
0.0220018
0.0216806
0.0214483
0.0217479
0.0224711
0.0225664
0.0232543
0.0229715
0.0227034
0.0221455
0.0217589
0.0209033
0.0199897
0.0189503
0.0173742
0.0169064
0.0174133
0.0178777
0.0174043
0.0187829
0.0199879
0.0196724
0.0243792
0.0226502
0.0202077
0.0226683
0.0184194
0.018589
0.0181451
0.0170899
0.0176421
0.0171789
0.0171222
0.0174462
0.0177568
0.0189385
0.0199263
0.020559
0.0214271
0.0220592
0.022769
0.0239707
0.0242502
0.0232136
0.0230061
0.0217864
0.0210926
0.0207636
0.021705
0.0230286
0.0229653
0.0239067
0.0236799
0.0224295
0.0216196
0.0207717
0.0197859
0.0191244
0.0183217
0.017558
0.0171266
0.0162837
0.0163529
0.0152488
0.0168105
0.017336
0.019565
0.0174192
0.0169347
0.0225406
0.0285251
0.0444357
0.0324696
0.0214619
0.0232928
0.0316635
0.0395575
0.0280369
0.0275613
0.0154354
0.0182151
0.0152626
0.0155795
0.0166518
0.0169448
0.0181653
0.019238
0.0194811
0.0202323
0.0205824
0.0213469
0.0216068
0.0223434
0.0225398
0.0238258
0.0238919
0.0239342
0.0239079
0.0230625
0.0229859
0.0229687
0.0234449
0.0232357
0.0239789
0.0240127
0.0241205
0.0240575
0.0227007
0.0223729
0.0215979
0.0210771
0.0201712
0.0196128
0.0188934
0.0185065
0.0178459
0.0181632
0.0188869
0.0190745
0.0200401
0.0200592
0.0208014
0.0210128
0.0214836
0.0216203
0.0222889
0.0224308
0.0227016
0.0227592
0.0239857
0.0241017
0.0241337
0.0240996
0.0241015
0.0243179
0.0243112
0.0242562
0.0242316
0.0241012
0.0239265
0.023738
0.0248185
0.0255175
0.0250907
0.024852
0.0251122
0.0259678
0.0265217
0.0276154
0.0284708
0.0295422
0.0304289
0.0312456
0.0319097
0.0323785
0.0324855
0.0325127
0.0320498
0.0316711
0.0333528
0.0398586
0.0430887
0.0483738
0.0507557
0.0527136
0.0534012
0.0522833
0.0530221
0.0517791
0.0520523
0.0508988
0.050493
0.0497088
0.0487297
0.0480346
0.0465866
0.0458681
0.0504978
0.0571764
0.0572734
0.0500674
0.0470626
0.0429182
0.0375687
0.0392833
0.0459091
0.0413336
0.038706
0.0359638
0.031009
0.0238856
0.0179102
0.0256791
0.0334473
0.040703
0.0474845
0.0534694
0.0573429
0.0594588
0.0609833
0.0626769
0.0606358
0.0531789
0.04153
0.0316502
0.027749
0.026191
0.0237617
0.0203385
0.018464
0.0173968
0.0162506
0.0149124
0.0140647
0.0138271
0.0140838
0.0142028
0.0155505
0.0168143
0.0168056
0.0179875
0.0177872
0.0182995
0.0188942
0.019301
0.0199548
0.0199273
0.0189665
0.0193183
0.0195814
0.0202613
0.0201644
0.0203411
0.0201306
0.0194215
0.0189103
0.0183155
0.0177973
0.0173336
0.0167537
0.0160239
0.0160138
0.016199
0.0157508
0.0161726
0.0166229
0.0170371
0.0176668
0.018574
0.0193301
0.0211547
0.0212853
0.0210282
0.0211112
0.0196791
0.0196117
0.0186375
0.0183988
0.0199926
0.0198297
0.0181586
0.0195495
0.0195614
0.0213473
0.0213581
0.0206867
0.0208877
0.0207845
0.018964
0.018075
0.0170049
0.0162216
0.0156238
0.0152133
0.0147344
0.0153566
0.014123
0.0135653
0.0140392
0.0140169
0.014088
0.014483
0.0149169
0.0156635
0.0163722
0.0174216
0.0180631
0.018962
0.0192949
0.021198
0.0211033
0.0209631
0.020994
0.0211297
0.0215758
0.0207927
0.0207544
0.0208974
0.020913
0.0209477
0.0209332
0.0191002
0.0188971
0.0180625
0.0177435
0.0168098
0.0164483
0.0157885
0.0154695
0.0150733
0.0148725
0.0232683
0.0254684
0.025624
0.0397848
0.019985
0.0199571
0.0343537
0.0173364
0.0230567
0.0236049
0.0246852
0.0259216
0.0225427
0.0307419
0.0212081
0.0233449
0.024077
0.025226
0.0129211
0.0202726
0.037907
0.0427722
0.0440793
0.0490048
0.0556245
0.0588009
0.0618282
0.0638356
0.0660958
0.0685327
0.0709279
0.0726562
0.0727951
0.0690865
0.0660088
0.0564777
0.052644
0.0563826
0.060802
0.0472826
0.0424844
0.0430231
0.0434788
0.0440037
0.0442028
0.0448795
0.0446778
0.045661
0.0449245
0.0460155
0.0448625
0.045871
0.0446525
0.0419409
0.0387235
0.03255
0.0305844
0.0294788
0.0267682
0.0242613
0.0220234
0.0202022
0.0197712
0.0182133
0.0168214
0.0165237
0.0152334
0.0155084
0.0167431
0.0198936
0.0168178
0.0176391
0.0260105
0.0191175
0.0180115
0.0185547
0.0190732
0.019315
0.0182048
0.0198285
0.022099
0.0221079
0.0221783
0.0221928
0.021391
0.021227
0.0209657
0.0210262
0.0210584
0.0211859
0.0211558
0.0193356
0.0192793
0.0190063
0.0188683
0.018078
0.0179098
0.0173235
0.0169912
0.016148
0.0158527
0.0154044
0.0154731
0.0168277
0.020908
0.0306171
0.017551
0.0183054
0.015806
0.0139849
0.0266705
0.0247358
0.0286315
0.0267785
0.0393911
0.02642
0.0231714
0.0241671
0.0296944
0.0296553
0.0326379
0.0423837
0.0330227
0.02832
0.0744031
0.0547956
0.0336453
0.0469225
0.0588538
0.109806
0.127947
0.0561788
0.056668
0.0623334
0.0632621
0.0631621
0.0536714
0.0494148
0.0417454
0.0323276
0.012851
0.0249356
0.0322637
0.0432527
0.0578194
0.0921224
0.0529602
0.0597848
0.0657519
0.0648265
0.0679101
0.0660951
0.0647311
0.065675
0.102665
0.111538
0.108322
0.0872528
0.0818556
0.0743618
0.124205
0.139048
0.120072
0.130167
0.136243
0.0828385
0.0305215
0.0249237
0.0238138
0.0263936
0.0253337
0.045958
0.0205994
0.0218236
0.0226583
0.0271414
0.0301794
0.0528364
0.0232717
0.0254633
0.0323961
0.0348609
0.045861
0.0274553
0.0280822
0.0343831
0.0361567
0.0394894
0.0336415
0.0317505
0.0287054
0.0259083
0.0244144
0.02546
0.0318383
0.046267
0.027879
0.0283076
0.0300671
0.134068
0.0307349
0.02664
0.0277217
0.0267218
0.0336532
0.035067
0.111723
0.0355799
0.0167214
0.015453
0.0159175
0.0167276
0.0173668
0.0179885
0.0184343
0.0190775
0.0194698
0.0196243
0.0197951
0.0221647
0.0220596
0.0215927
0.0210494
0.0218354
0.0211413
0.0211858
0.0217989
0.0212634
0.021412
0.0224567
0.0236251
0.0231288
0.0236861
0.0250413
0.023888
0.0221979
0.0219918
0.0221113
0.0228193
0.0239573
0.0227713
0.0234265
0.0226125
0.0235282
0.0236511
0.0203621
0.0199911
0.0197868
0.0192844
0.0186085
0.0179843
0.0173155
0.0166791
0.0162076
0.0161851
0.0167678
0.0152127
0.0156742
0.0182209
0.040295
0.0333113
0.0271832
0.0226219
0.0197654
0.0184972
0.0183194
0.0187408
0.0193896
0.0199501
0.0201588
0.0207475
0.0246193
0.024539
0.0257399
0.0246109
0.0259426
0.0248835
0.0235616
0.0226922
0.0238964
0.0232045
0.0236942
0.0253008
0.0261338
0.0237666
0.0240292
0.0214434
0.0200376
0.0184342
0.0187726
0.0202092
0.020877
0.0233036
0.0233907
0.0268173
0.0268085
0.0266762
0.0254501
0.0247786
0.0262225
0.0247403
0.025888
0.0247819
0.0261826
0.0273697
0.0277134
0.0270099
0.0261863
0.0253146
0.0210448
0.0202526
0.0199488
0.019463
0.0192267
0.0202208
0.0246497
0.0341127
0.0464526
0.0586699
0.0679984
0.0673266
0.0605397
0.0413158
0.0421129
0.0392059
0.0425303
0.0608498
0.0876637
0.0617137
0.115155
0.0892026
0.0529109
0.063116
0.0751498
0.0843418
0.0903474
0.0915458
0.0781708
0.0576733
0.0506225
0.0530237
0.0851104
0.0837946
0.0825472
0.0780403
0.0825504
0.0804053
0.077707
0.0761181
0.0743138
0.0700249
0.0700071
0.0672726
0.0672296
0.0601165
0.0612932
0.0615105
0.058934
0.0561902
0.053906
0.0517176
0.0493963
0.0455131
0.0442405
0.0417753
0.0400466
0.0367015
0.0361659
0.0356829
0.0335159
0.0319712
0.0307238
0.0294689
0.0277768
0.0279431
0.0263736
0.0262211
0.0213781
0.0209973
0.0199769
0.0196494
0.0194164
0.0196532
0.0209708
0.023758
0.0440775
0.0332911
0.0330458
0.0335595
0.033724
0.0396464
0.0464109
0.070533
0.0652351
0.071732
0.0613579
0.0637815
0.0629845
0.0626064
0.0653296
0.0689077
0.0742501
0.0867351
0.333402
0.513792
0.253117
0.237104
0.246742
0.251642
0.259036
0.338997
0.36006
0.355841
0.360533
0.330456
0.31842
0.196631
0.226048
0.238131
0.237036
0.223952
0.202801
0.394479
0.522646
0.518783
0.523655
0.523768
0.518767
0.522597
0.502913
0.514275
0.501758
0.515027
0.502297
0.521662
0.518921
0.504364
0.501138
0.501157
0.500917
0.50138
0.501557
0.504895
0.506056
0.506108
0.505103
0.504124
0.514518
0.438815
0.123736
0.0862458
0.143576
0.199531
0.163559
0.235798
0.270833
0.195294
0.111244
0.0910412
0.102704
0.126531
0.127992
0.155119
0.202735
0.189674
0.154881
0.155798
0.156729
0.202081
0.193453
0.219649
0.262191
0.255158
0.190418
0.151792
0.151468
0.229706
0.244111
0.239281
0.124884
0.0450875
0.0220248
0.0229981
0.032831
0.0166391
0.0168724
0.0225359
0.0593741
0.0982989
0.0511273
0.137851
0.139202
0.182663
0.147896
0.178709
0.115982
0.119121
0.0678013
0.0798214
0.0897561
0.0954942
0.0998445
0.0941068
0.217582
0.321731
0.19171
0.5626
0.538688
0.196748
0.217577
0.576255
0.513006
0.503529
0.501786
0.501698
0.501859
0.501816
0.50097
0.500916
0.500728
0.500765
0.500716
0.501164
0.504767
0.520384
0.514599
0.50524
0.501385
0.500824
0.5008
0.500691
0.500731
0.500751
0.500808
0.501018
0.50105
0.501151
0.501671
0.503943
0.512023
0.435422
0.170034
0.18243
0.406105
0.361865
0.5115
0.504622
0.50137
0.500943
0.500856
0.50083
0.500795
0.50097
0.50089
0.501398
0.501232
0.501287
0.502776
0.508256
0.50639
0.442674
0.368999
0.416576
0.329672
0.506666
0.507775
0.503277
0.502901
0.503247
0.503415
0.501514
0.501528
0.500993
0.501061
0.500893
0.501341
0.504755
0.511008
0.346017
0.170944
0.177885
0.258201
0.0879748
0.0909363
0.0928846
0.0949881
0.247649
0.442792
0.556875
0.472221
0.476062
0.543214
0.386291
0.365066
0.294669
0.318125
0.402606
0.347723
0.313185
0.250714
0.28904
0.248025
0.303803
0.218159
0.234419
0.22197
0.283363
0.28723
0.287573
0.22697
0.216799
0.271913
0.286107
0.317065
0.219021
0.259212
0.203537
0.192606
0.0872557
0.0894551
0.0813462
0.0714003
0.0711277
0.0792614
0.0776849
0.083865
0.0808351
0.0845144
0.0816073
0.0796109
0.0728352
0.0748853
0.0686759
0.0713424
0.130462
0.166686
0.150569
0.15199
0.179742
0.131255
0.157615
0.153766
0.197867
0.248291
0.227886
0.293979
0.225993
0.276079
0.406186
0.754662
0.441961
0.24552
0.318541
0.3401
0.288925
0.189798
0.449773
0.538578
0.298199
0.360224
1.19555
1.04324
1.78077
0.993015
1.12024
0.67197
0.598207
1.02949
0.654759
0.667396
0.560709
0.574292
0.500419
0.325083
0.324721
0.306491
0.242502
0.281531
0.272191
0.267167
0.296895
0.26212
0.317364
0.353116
0.397887
0.323148
0.286107
0.367854
0.216055
0.291821
0.347353
0.316557
0.260521
0.339169
0.451459
0.423717
0.364814
0.400375
0.510983
0.564894
0.535272
0.454376
0.516597
1.00946
0.966606
0.932618
0.592116
1.93394
1.72152
0.356414
0.139919
0.0977147
0.0369453
0.0225464
0.0182778
0.0178864
0.0489908
0.0195461
0.0235595
0.021249
0.0303957
0.0274875
0.0317925
0.0561004
0.0378831
0.0534419
0.0395685
0.0529583
0.0421516
0.0580024
0.0622816
0.0656685
0.0531066
0.0418637
0.0632461
0.0843901
0.0395151
0.101592
0.107376
0.0694819
0.0844054
0.104229
0.0539743
0.166976
0.0578237
0.0576743
0.0688901
0.129218
0.255361
0.0870706
0.113695
0.590288
1.53338
0.514347
0.20395
0.16654
0.0414489
0.0359299
0.0294352
0.0355558
0.0313193
0.0635371