/*--------------------------------*- C++ -*----------------------------------*\
| =========                 |                                                 |
| \\      /  F ield         | OpenFOAM: The Open Source CFD Toolbox           |
|  \\    /   O peration     | Version:  v2012                                 |
|   \\  /    A nd           | Website:  www.openfoam.com                      |
|    \\/     M anipulation  |                                                 |
\*---------------------------------------------------------------------------*/
FoamFile
{
    version     2.0;
    format      ascii;
    class       volScalarField;
    location    "1125";
    object      epsilon;
}
// * * * * * * * * * * * * * * * * * * * * * * * * * * * * * * * * * * * * * //

dimensions      [0 2 -3 0 0 0 0];


internalField   nonuniform List<scalar> 
18258
(
0.0241355
0.0123318
0.00919117
0.0072312
0.0127006
0.0126025
0.0130602
0.0174175
0.0242577
0.0371272
0.0537191
0.0482573
0.0436102
0.0453385
0.0474839
0.0450199
0.0350314
0.0302872
0.0397639
0.0665294
0.060976
0.0497617
0.0611118
0.0514671
0.0653114
0.0823294
0.0630609
0.0567894
0.0509639
0.0479066
0.0412853
0.023153
0.0345105
0.0533958
0.0727671
0.0794711
0.0850883
0.0897003
0.094958
0.097075
0.0972763
0.0920366
0.0828623
0.0679179
0.0501002
0.0388511
0.0314434
0.0305751
0.0430127
0.0442399
0.0550742
0.0849169
0.107426
0.0807009
0.0517632
0.0823795
0.112246
0.143934
0.170435
0.192899
0.200665
0.1973
0.185828
0.169147
0.14774
0.12278
0.101803
0.0848904
0.0671133
0.0573177
0.0463687
0.0384573
0.0328898
0.0292283
0.0270256
0.0253029
0.0241401
0.0250709
0.0249574
0.0177998
0.0140005
0.0131493
0.00940515
0.00781561
0.00812914
0.00773233
0.00803279
0.00709064
0.00607261
0.00527225
0.00447184
0.00651146
0.00700584
0.0072477
0.00726803
0.00778919
0.00804713
0.00778739
0.00788159
0.00720729
0.00750805
0.0119825
0.0137419
0.0174407
0.0156044
0.0108758
0.00906324
0.0101099
0.0107278
0.0133372
0.0125572
0.0133342
0.0118252
0.0108026
0.00911968
0.00885121
0.00908272
0.00965514
0.0100543
0.0116648
0.0114973
0.0106669
0.011796
0.0130138
0.0127402
0.0121964
0.0116122
0.0142531
0.0114513
0.0121353
0.0136331
0.0219675
0.0214942
0.0259893
0.0255116
0.0259525
0.0261352
0.031539
0.0316609
0.0320436
0.0323632
0.034107
0.057113
0.0508818
0.0497639
0.0495679
0.0428638
0.0423977
0.0417063
0.0425203
0.0360325
0.0346859
0.0314555
0.031094
0.0346931
0.0438084
0.0612804
0.088523
0.122453
0.158779
0.18904
0.210019
0.231745
0.237098
0.250979
0.255674
0.256573
0.250895
0.242476
0.232998
0.220115
0.20151
0.188556
0.148228
0.104973
0.0590595
0.0783793
0.0903933
0.10013
0.102046
0.103226
0.0991956
0.0930323
0.0818948
0.0664487
0.0432705
0.0478462
0.0650371
0.067536
0.0683998
0.0543495
0.0524479
0.0488606
0.0489587
0.0645053
0.0737673
0.0619115
0.0853459
0.100375
0.087881
0.0638051
0.0976421
0.142861
0.0802984
0.0680503
0.0524041
0.0513636
0.0433375
0.0368159
0.0630919
0.0941382
0.128808
0.149646
0.171264
0.1886
0.201706
0.215604
0.187383
0.170253
0.114691
0.200559
0.151844
0.076601
0.0563028
0.0542513
0.0469268
0.052184
0.057118
0.0526852
0.0407296
0.0279428
0.0245941
0.0462696
0.0646223
0.0780915
0.0620406
0.0789507
0.0891548
0.0964712
0.101784
0.129355
0.0954675
0.105532
0.0752021
0.102197
0.0723081
0.0464443
0.0523315
0.100052
0.159776
0.218641
0.255379
0.144833
0.0731512
0.054127
0.0539033
0.0523317
0.0475222
0.0591995
0.105597
0.0718488
0.0464755
0.0402232
0.0474099
0.0418005
0.0309899
0.0326661
0.0399848
0.0549777
0.068276
0.081146
0.124624
0.121729
0.146872
0.153865
0.12976
0.125697
0.0813369
0.0832533
0.122414
0.0913929
0.0738453
0.103791
0.146911
0.20108
0.247386
0.287814
0.313719
0.303231
0.274402
0.173617
0.0760237
0.0228921
0.0178009
0.0168496
0.017324
0.0105265
0.00629877
0.00584816
0.00665972
0.00701141
0.00591438
0.00544437
0.00543554
0.0057802
0.010184
0.00875423
0.0108306
0.0131216
0.0156702
0.0187151
0.0194431
0.0129008
0.00873221
0.00819445
0.00813014
0.00806124
0.0080318
0.00804331
0.00808334
0.00809856
0.00806526
0.00798541
0.00784705
0.00771025
0.00765159
0.00828582
0.0111718
0.0153368
0.0148386
0.0135499
0.0121956
0.0110366
0.00870869
0.0151424
0.0128435
0.0109328
0.0133845
0.0164836
0.0208274
0.0244665
0.0176436
0.0141226
0.0127775
0.0126477
0.0125288
0.0125684
0.0124395
0.0124959
0.0122876
0.0128695
0.0135481
0.0169468
0.0189724
0.0211608
0.0226668
0.0232567
0.0239674
0.0211059
0.0229962
0.0227297
0.0235076
0.0233267
0.0226386
0.0207159
0.0189177
0.0176904
0.0191016
0.0236604
0.0322922
0.0266903
0.020712
0.0167577
0.0137063
0.0149796
0.0166497
0.0168238
0.0158359
0.0156037
0.015395
0.013874
0.0130806
0.0110806
0.0104733
0.0100199
0.0101775
0.0143731
0.0135074
0.0136943
0.0144162
0.0154995
0.0146605
0.0150905
0.0142539
0.0145037
0.0149269
0.0169994
0.0185513
0.017796
0.016487
0.0159887
0.0137201
0.0158219
0.0156786
0.0169988
0.0185815
0.0190738
0.0190115
0.0183755
0.0167822
0.0186712
0.0220363
0.0256874
0.0246908
0.0243659
0.0204295
0.0192335
0.0202091
0.0214837
0.0223863
0.0224446
0.0222483
0.0223131
0.0262709
0.025854
0.024669
0.0226007
0.0201554
0.0175095
0.0151172
0.0165882
0.0180663
0.0194545
0.0207224
0.0205114
0.0189807
0.0176227
0.0163937
0.0149048
0.0146286
0.0160791
0.0173006
0.0187343
0.020457
0.0205487
0.0188251
0.0173254
0.0160421
0.01457
0.014528
0.0160273
0.0173274
0.0187495
0.0202431
0.0196134
0.0184519
0.0171973
0.0159531
0.0145014
0.0145726
0.0158935
0.0169636
0.0180498
0.0190041
0.0198545
0.0178918
0.0169802
0.0170703
0.0160838
0.0192637
0.0185077
0.0194475
0.0179983
0.0167783
0.0177844
0.0209733
0.0240038
0.0245581
0.0242785
0.0201484
0.0206035
0.0205778
0.0191607
0.0159438
0.0153468
0.0181078
0.0208339
0.0212946
0.0199946
0.0169054
0.0132699
0.0142873
0.017438
0.0197447
0.0184864
0.0183312
0.0169225
0.0158395
0.0161326
0.0138518
0.0165898
0.026617
0.0240745
0.022052
0.0195788
0.015593
0.0105687
0.0114635
0.0126138
0.0130261
0.0105283
0.00788975
0.00708819
0.00689861
0.0067436
0.00652778
0.00616192
0.005607
0.00538409
0.0106687
0.0260296
0.0365389
0.0358797
0.0241563
0.0208253
0.0201444
0.0187332
0.00910686
0.00825137
0.00845656
0.010438
0.00826893
0.00844948
0.0146752
0.0101079
0.013865
0.0107631
0.0146139
0.0229898
0.0218297
0.0145206
0.00803971
0.00688836
0.00737291
0.00765642
0.00785675
0.0080499
0.00827949
0.00866053
0.00997246
0.0156628
0.0202234
0.0176923
0.0167007
0.0152348
0.0187609
0.0212408
0.0231809
0.025949
0.0160576
0.0117519
0.0165929
0.0271795
0.0246597
0.0231978
0.0170819
0.0176263
0.0170716
0.0109785
0.0106382
0.0105575
0.011366
0.0127449
0.0146659
0.0158293
0.0165794
0.0169088
0.0178162
0.0230923
0.0216091
0.0210978
0.0173308
0.0133199
0.0153484
0.0514229
0.0195213
0.0206334
0.0188772
0.0191557
0.0204443
0.0151628
0.0135235
0.012933
0.0146182
0.021486
0.0214945
0.0213553
0.0182219
0.0174371
0.0208532
0.0219435
0.0223478
0.0217281
0.0212807
0.0194219
0.0166554
0.0180852
0.0196005
0.020784
0.0227858
0.023128
0.0179037
0.0171838
0.0158012
0.0105166
0.0112581
0.00970165
0.00967223
0.00963732
0.00936148
0.00891677
0.0092061
0.00932351
0.0093212
0.00897764
0.00927039
0.00833701
0.0086689
0.00975639
0.0151959
0.0147646
0.0175645
0.0194793
0.0167264
0.0155679
0.0142064
0.0131846
0.0154317
0.0142678
0.0168429
0.0211847
0.0264618
0.0190955
0.0180976
0.0178737
0.0174667
0.0173108
0.0173613
0.0166732
0.0156762
0.015112
0.0235643
0.021271
0.0181501
0.0172015
0.0157691
0.018016
0.0174595
0.0213465
0.0268138
0.0270175
0.0215135
0.0215908
0.0189447
0.020049
0.0222295
0.0270532
0.0269756
0.0144181
0.0095869
0.0154185
0.0157575
0.0183665
0.0169853
0.0185108
0.0196891
0.0204116
0.0202692
0.0176734
0.0188427
0.019629
0.0206127
0.0185637
0.0165606
0.0173478
0.0161287
0.015232
0.0147372
0.0126679
0.0129077
0.0138737
0.0153207
0.0162625
0.0177527
0.0194034
0.0194355
0.0201
0.0196945
0.0190983
0.0251787
0.0239419
0.0254834
0.0281829
0.0224071
0.0177888
0.0146725
0.0149823
0.014749
0.0146569
0.0154041
0.016761
0.0151402
0.0145242
0.0170261
0.0193774
0.0246368
0.0329613
0.0286914
0.0261507
0.0331772
0.0313631
0.0381797
0.028633
0.0281189
0.0208264
0.0262668
0.0304978
0.0391538
0.0254806
0.0209325
0.0224001
0.0255326
0.0347596
0.0327578
0.033104
0.0411492
0.0399215
0.0361858
0.0311646
0.0353076
0.0212191
0.0301697
0.0321947
0.0268057
0.0256781
0.0307036
0.0310362
0.0329799
0.0283606
0.0267454
0.0178903
0.0273958
0.0313315
0.0330238
0.0277759
0.0205214
0.0279824
0.0205245
0.0191616
0.0202745
0.0137589
0.0127088
0.0147787
0.0138511
0.0111823
0.0121215
0.0111346
0.0111144
0.0111877
0.0112939
0.0114158
0.0116589
0.0116097
0.0125841
0.0132663
0.0125297
0.0115098
0.0122049
0.0126167
0.016122
0.0182118
0.0204837
0.0220814
0.0229212
0.0240506
0.0226678
0.0248236
0.0237598
0.0252036
0.0249017
0.0238454
0.0213515
0.0187414
0.0163969
0.0170499
0.0207882
0.0274754
0.0225158
0.0174325
0.0141055
0.0116798
0.0129659
0.0162792
0.00880762
0.0080609
0.00778696
0.00764092
0.00756966
0.00681108
0.00592347
0.00703994
0.0124806
0.0160177
0.0202813
0.0260537
0.0322842
0.0377118
0.0418702
0.0448577
0.046713
0.0472222
0.0443985
0.0335254
0.0286883
0.0244938
0.0201486
0.0163592
0.016696
0.0243471
0.0320194
0.0395996
0.0462967
0.0513133
0.049405
0.0331267
0.0298805
0.0460738
0.0776722
0.0735122
0.0966338
0.110303
0.0622877
0.0461702
0.0452363
0.0622144
0.0648963
0.0567981
0.0467115
0.0363498
0.0260806
0.0305818
0.0350867
0.0394968
0.0441769
0.0585883
0.0614662
0.0601156
0.0573912
0.0537766
0.0487883
0.0416074
0.0329876
0.0248134
0.018617
0.0137329
0.00793841
0.00768856
0.00780468
0.00734036
0.00814286
0.00814221
0.00887163
0.00860318
0.00885102
0.00867958
0.00876322
0.00779574
0.00694294
0.0103585
0.00973991
0.00979035
0.0105614
0.0136372
0.0104328
0.00761898
0.00719205
0.00718375
0.00755788
0.0165102
0.0251288
0.0305386
0.035189
0.0388183
0.0374959
0.03401
0.0282591
0.0218956
0.0197001
0.0166105
0.0141664
0.0130027
0.0143692
0.0118012
0.00577597
0.00519404
0.00573725
0.00557369
0.00509421
0.00614574
0.00685113
0.00747729
0.00791073
0.00822808
0.0082914
0.00823014
0.00813897
0.00809313
0.00807065
0.00803883
0.00796946
0.00786874
0.00772095
0.00757939
0.00751133
0.00810396
0.0107266
0.0146672
0.0144261
0.0133069
0.0121926
0.0113271
0.00960407
0.0154746
0.0131298
0.0110112
0.0101863
0.0100506
0.0103552
0.0113259
0.0129501
0.0138618
0.015864
0.0159031
0.0157921
0.0160937
0.0158856
0.0133382
0.0151384
0.0177713
0.0185852
0.0191836
0.0189565
0.0174131
0.0194392
0.0205895
0.020053
0.0194517
0.0166887
0.0194647
0.0233302
0.0237643
0.0240056
0.0213199
0.0184689
0.0216493
0.0228313
0.0224733
0.023382
0.0216952
0.0224461
0.0277439
0.0144883
0.0135477
0.00825392
0.00895138
0.00926774
0.00905374
0.00878086
0.00915346
0.0094039
0.00909104
0.00977068
0.0100738
0.00932894
0.0118389
0.0109461
0.0106293
0.0100241
0.0104066
0.0109316
0.01121
0.0125032
0.0199588
0.0205168
0.018499
0.0211783
0.0217443
0.0181508
0.0206916
0.0215801
0.0219448
0.0223216
0.0237599
0.0222385
0.0245434
0.0238451
0.0223602
0.0216101
0.0384093
0.0253141
0.0166884
0.0154521
0.0151173
0.0151732
0.0170883
0.0127817
0.0143346
0.0100908
0.00874776
0.00839783
0.00813244
0.00836045
0.0109112
0.0165759
0.0250542
0.0281318
0.027066
0.0236481
0.0179893
0.0132291
0.0129587
0.0116897
0.0109443
0.0108238
0.00719455
0.00512178
0.00655105
0.00660498
0.007201
0.0076236
0.00796913
0.00822936
0.00837349
0.00844808
0.00853144
0.00864824
0.00877298
0.00887774
0.00895706
0.00901111
0.009068
0.00918218
0.00948289
0.0106825
0.0153514
0.0197752
0.0186577
0.0171891
0.0158739
0.0166415
0.0174001
0.0181324
0.0223345
0.0191822
0.0220958
0.0207659
0.0197823
0.0183691
0.0190921
0.0208942
0.0166519
0.0165823
0.0113261
0.0098982
0.00952911
0.00932365
0.00916555
0.00900886
0.00885065
0.00870774
0.0085705
0.00844923
0.00835227
0.00825603
0.00811515
0.0078726
0.00747145
0.00704402
0.00612101
0.0066934
0.00741425
0.00841586
0.00951688
0.0100347
0.0094757
0.00875542
0.00846496
0.00860249
0.0087755
0.00896396
0.00917974
0.0094821
0.00994178
0.0109063
0.0115692
0.0162529
0.0169885
0.0202887
0.0200917
0.0179855
0.017336
0.0189401
0.0174459
0.0127032
0.0174683
0.017
0.0212486
0.015748
0.0148527
0.0152535
0.0157349
0.0184228
0.0173341
0.0158543
0.0158082
0.0127319
0.0143054
0.0163029
0.0177964
0.0280607
0.0274903
0.0346269
0.0345271
0.0597137
0.0567892
0.0500722
0.0541744
0.0238433
0.0467628
0.0546704
0.0497712
0.0431975
0.0275319
0.0440795
0.0671645
0.0975171
0.0702702
0.057488
0.107028
0.0774998
0.0376756
0.0267255
0.0150823
0.0151524
0.0251865
0.0292644
0.0242637
0.0234068
0.0336568
0.0350246
0.0281959
0.0288803
0.0312656
0.0301969
0.0326857
0.0282867
0.0275831
0.0156113
0.0128109
0.0138439
0.0155766
0.0165751
0.0160575
0.0169035
0.0175828
0.0161432
0.0151185
0.0145589
0.0124931
0.0132353
0.016226
0.0204508
0.0239638
0.0172989
0.0138944
0.0125903
0.012395
0.0121683
0.0120506
0.0117323
0.0115494
0.0110832
0.0112943
0.0098465
0.00986206
0.0103961
0.0105539
0.0107529
0.0109061
0.0110248
0.0111343
0.0120068
0.0187954
0.0260078
0.0208115
0.0164966
0.014014
0.0152018
0.017125
0.0210311
0.026462
0.0178702
0.0176923
0.0115335
0.0107509
0.0105469
0.0103815
0.0102353
0.0101441
0.0102101
0.0102122
0.0119359
0.0115173
0.0133989
0.0144866
0.011986
0.0115698
0.0111127
0.0108388
0.0106915
0.0106161
0.0107134
0.0115812
0.011416
0.0104805
0.0103783
0.0104902
0.010696
0.0110121
0.0114551
0.0119578
0.012863
0.0126254
0.0112011
0.011261
0.0106183
0.0103125
0.0100765
0.0100474
0.010091
0.010225
0.0104404
0.0113487
0.0171564
0.0173343
0.0266812
0.0266622
0.021195
0.0177173
0.0155604
0.0143062
0.0135739
0.0353945
0.0310659
0.0491855
0.0392481
0.0314235
0.0510639
0.0726838
0.0564291
0.0920001
0.0993809
0.073141
0.0662077
0.0210475
0.0160209
0.0154768
0.0169671
0.0186611
0.0212993
0.0218961
0.0267217
0.0288323
0.0172166
0.0165351
0.0156048
0.024933
0.0231036
0.0197175
0.0178307
0.0164438
0.0189981
0.0207941
0.0150022
0.0150449
0.00969901
0.0107027
0.0104505
0.0101169
0.0100072
0.00993946
0.00998022
0.0100832
0.0103685
0.0108621
0.0112302
0.0113527
0.0115977
0.0113855
0.0111069
0.0107757
0.0105802
0.010389
0.0102361
0.0101211
0.0101609
0.0104838
0.0106331
0.00933332
0.00967442
0.00977854
0.00978827
0.00982033
0.00978977
0.00966205
0.00946928
0.00928864
0.00909383
0.00914564
0.00997598
0.0101191
0.0101852
0.0100381
0.00992628
0.00991748
0.00985174
0.00983309
0.00981645
0.00968532
0.00936533
0.00863775
0.00849388
0.009103
0.00945612
0.00964451
0.00973683
0.00972177
0.00966215
0.0094252
0.00924195
0.00902656
0.00868652
0.00824984
0.0068437
0.00709937
0.00744784
0.00793033
0.00842869
0.00886631
0.00915964
0.00931357
0.00940054
0.00931882
0.00902967
0.00850514
0.00845329
0.00884259
0.00902229
0.00898358
0.00872786
0.00832956
0.00777513
0.00708278
0.00640856
0.00588641
0.0056292
0.00523091
0.00661385
0.00719556
0.0077452
0.00826101
0.00875278
0.00927779
0.00948778
0.00954817
0.00951856
0.00935319
0.00901339
0.00847891
0.00848928
0.00897301
0.00929265
0.0094268
0.0094171
0.0092248
0.00880457
0.00788662
0.00706851
0.00640871
0.0058213
0.00523742
0.0050612
0.00531295
0.00510685
0.00533482
0.00592411
0.00672944
0.00750621
0.0081029
0.0085223
0.008702
0.00864974
0.00839844
0.0083023
0.00842607
0.00837093
0.0080693
0.00750626
0.0067642
0.00596089
0.00532071
0.00512164
0.00543631
0.00576858
0.0054634
0.00439645
0.0049418
0.00550047
0.00610121
0.00702615
0.0082154
0.0088194
0.00914234
0.00929997
0.00922891
0.00893199
0.00848511
0.00846737
0.00889729
0.00918582
0.00923792
0.00910141
0.00880604
0.00829853
0.00685795
0.00538412
0.00475476
0.00440439
0.00396576
0.00554134
0.00589938
0.00547988
0.00520933
0.00564939
0.00620392
0.00684291
0.00736718
0.00779942
0.00810491
0.00820681
0.00817508
0.0080433
0.0080465
0.00799018
0.00778036
0.00751954
0.00729572
0.00684796
0.00639023
0.00586897
0.00642137
0.00670726
0.00628459
0.00468178
0.00497181
0.00541552
0.00570476
0.0071653
0.00859917
0.00900997
0.00915732
0.00929504
0.00922081
0.00889518
0.00844658
0.00843053
0.00896132
0.00937232
0.00951671
0.00962345
0.00972964
0.00982568
0.00866988
0.00674626
0.00626628
0.00528819
0.00483231
0.00660151
0.00702369
0.00683436
0.00657061
0.0075035
0.00789885
0.00804956
0.00807444
0.00810096
0.00808364
0.0079956
0.00792723
0.00781287
0.00825259
0.00888674
0.00878379
0.00867829
0.00851227
0.00814703
0.00769507
0.00718395
0.0078497
0.00839362
0.00812175
0.00598289
0.00635602
0.00721212
0.00741373
0.00897609
0.0101813
0.0105227
0.0105132
0.0103906
0.0103554
0.00932996
0.00839383
0.0082417
0.00960722
0.0156059
0.0154427
0.015476
0.0154022
0.0148178
0.0146439
0.0140675
0.0138057
0.0130953
0.0126335
0.011944
0.013988
0.0177602
0.019869
0.0222508
0.0247642
0.0233668
0.0188436
0.0165916
0.0101298
0.0079899
0.00688953
0.00597128
0.00527581
0.00507048
0.00754664
0.0094267
0.0116224
0.0136018
0.0139293
0.0163793
0.0203529
0.0309867
0.0492338
0.0415461
0.0391916
0.0394468
0.0974936
2.5465
2.72096
2.48662
2.89358
3.33667
0.392711
0.151958
0.284226
0.30416
0.343302
0.323727
0.294199
0.269493
0.28284
0.271646
0.28241
0.263098
0.266663
0.232115
0.234423
0.243565
0.724602
1.05908
1.27277
1.77213
1.76675
1.99132
1.93632
1.95161
1.8012
1.91656
1.66557
1.38139
1.30644
1.23516
1.3265
1.44299
1.252
1.13571
1.01924
0.928051
0.795995
1.00973
0.766455
0.724657
0.72348
0.75614
1.0077
0.91825
1.05696
0.988242
1.03199
0.633127
0.713896
0.521976
0.434556
0.359989
0.434222
0.586477
0.784149
0.977989
0.748455
1.00698
0.923097
0.904502
0.860019
0.782665
0.742605
0.729508
0.750594
0.763381
0.778943
0.807241
0.828838
0.848044
1.00021
1.06607
1.05723
0.865544
0.772725
0.534479
0.572466
0.606106
0.609042
0.56687
0.549241
0.499597
0.487221
0.443126
0.423906
0.386303
0.36694
0.335053
0.462228
0.789137
0.818428
0.888572
0.940795
0.991486
1.01304
1.03094
1.01385
0.980834
0.909597
0.87772
0.81379
0.923519
1.1104
1.10842
1.01878
0.865709
0.819536
3.82071
4.64499
3.07579
6.63081
10.0805
16.9097
7.67745
2.08066
3.48564
2.39571
2.12648
2.07363
2.19064
3.45436
2.52781
3.30597
2.76661
2.92292
2.33768
2.63208
2.51149
1.92378
1.61809
1.37141
1.27054
1.04584
1.05247
0.868733
0.811112
0.731974
0.595755
0.716038
0.721374
1.73645
2.33815
2.91
4.55844
4.99557
5.45376
8.58909
6.92675
8.64876
5.13176
5.19062
3.83704
3.60895
3.64926
5.02175
7.19824
4.95565
8.66018
4.82322
15.645
35.0142
9.22564
19.1153
11.0222
9.9615
9.59772
9.8869
14.0612
9.5989
15.6034
13.2258
17.6336
17.3315
18.3919
14.3427
10.6644
11.7041
12.5798
16.1435
11.5142
13.3615
10.2396
10.0204
9.34368
7.6692
6.66479
5.08727
6.02092
7.04024
8.02679
12.77
15.9664
18.3144
22.0658
16.2556
18.5243
11.1454
12.2513
9.45993
8.87946
9.01835
11.8719
21.0549
14.9107
27.3088
0.499421
0.226438
0.547432
0.230169
0.488249
0.391487
0.404064
0.405013
0.400748
0.462713
0.22077
0.185491
0.17766
0.175495
0.177016
0.100367
0.124625
0.0805136
0.12704
0.229637
0.505463
0.36625
0.140674
0.0826753
0.0546593
0.0429982
0.0635472
0.0613456
0.0981081
0.0994774
0.105841
0.132483
0.229021
0.435432
31.9425
7.15088
1.13839
0.534154
0.28398
0.17447
0.151225
0.170963
0.183964
0.186949
0.175916
0.150009
0.108295
0.0724573
0.0492255
0.0417112
0.0304195
0.027439
0.0390702
0.0529304
0.0491208
0.0648734
0.0832666
0.106
0.130197
0.149512
0.164083
0.168132
0.156167
0.122258
0.0804548
0.0443583
0.0265352
0.0228884
0.0209594
0.0194611
0.0168129
0.0146105
0.0131812
0.011261
0.00992491
0.00895445
0.00864116
0.00876422
0.00956539
0.0120997
0.0145619
0.0188553
0.0179763
0.0134599
0.0126186
0.00781713
0.00722805
0.00737691
0.00762916
0.00845442
0.0132259
0.0135324
0.0134093
0.0134327
0.013249
0.0132258
0.0130547
0.0128804
0.0126602
0.0122358
0.0119453
0.0114233
0.0111422
0.0104815
0.0105081
0.0108664
0.0111658
0.0101037
0.00999232
0.00931049
0.0205564
0.0489819
0.0701886
0.0786404
0.0883965
0.0810908
0.0419832
0.0230626
0.0078947
0.00767593
0.00817663
0.00880633
0.00836385
0.00617655
0.00672303
0.00788655
0.0110811
0.0110455
0.0110798
0.0129387
0.0134856
0.0148572
0.0154094
0.0158018
0.0160346
0.0159754
0.0161106
0.0158297
0.0159264
0.0157231
0.0158137
0.0154083
0.0273526
0.0257603
0.0264911
0.0265208
0.0277153
0.0271872
0.0266765
0.0256792
0.0249582
0.0234178
0.0218185
0.0202204
0.0180968
0.0188246
0.018158
0.0112976
0.0107146
0.00766799
0.00772519
0.00742963
0.0102182
0.00929296
0.00780749
0.0091617
0.0067243
0.00690762
0.00724629
0.0103363
0.0108681
0.0173325
0.0173594
0.0153964
0.0163916
0.0174371
0.0187818
0.0199504
0.0213865
0.0223965
0.0234995
0.0254138
0.0258506
0.0241083
0.0237705
0.0226491
0.0245751
0.0235412
0.0218133
0.0233921
0.0250294
0.0275561
0.0272138
0.0250185
0.0236848
0.0222626
0.0199296
0.0172829
0.0158865
0.0148635
0.0148664
0.0138096
0.0160849
0.0144836
0.0100824
0.0105633
0.00816349
0.00633662
0.00601383
0.00921516
0.0131904
0.0282021
0.0176174
0.00948558
0.0108266
0.0174554
0.0365134
0.021876
0.0356107
0.0148234
0.0165315
0.012545
0.0125349
0.0138167
0.0161107
0.0172191
0.0208909
0.0235725
0.0255781
0.0265023
0.0278335
0.0282302
0.0296584
0.0301097
0.0328534
0.0331178
0.0331769
0.0327122
0.0303292
0.0272708
0.0250895
0.0310328
0.0359402
0.0392207
0.0416403
0.0440874
0.042796
0.0390395
0.0381535
0.0362151
0.0350846
0.0336659
0.0305409
0.0267001
0.0218938
0.0212795
0.0272776
0.0330199
0.049291
0.053317
0.0530534
0.0553654
0.0558827
0.0576502
0.0580995
0.0607678
0.0613527
0.0625281
0.0628705
0.0681718
0.0690732
0.0700889
0.0704187
0.0701143
0.0710841
0.0711115
0.0483373
0.0433368
0.0393013
0.0326278
0.0273156
0.034668
0.0432038
0.0484083
0.0738804
0.074335
0.078062
0.0806796
0.08565
0.089345
0.0942486
0.098736
0.103142
0.106538
0.108585
0.108872
0.109324
0.108322
0.107009
0.115739
0.150351
0.166948
0.197735
0.212842
0.225283
0.229099
0.220528
0.224427
0.216459
0.219079
0.212995
0.211115
0.205976
0.199692
0.196198
0.189896
0.18586
0.214104
0.162154
0.124484
0.0827871
0.0665436
0.0598604
0.056508
0.0588746
0.0457562
0.0392052
0.058307
0.0539372
0.0434756
0.0295634
0.018829
0.0319251
0.047559
0.0644767
0.081675
0.0973719
0.107622
0.110182
0.109124
0.104429
0.0966419
0.0815285
0.0614472
0.0422713
0.0348773
0.0321885
0.0282107
0.0222415
0.0178715
0.0157459
0.0141536
0.0123806
0.011127
0.0105724
0.010728
0.0110384
0.0132368
0.0173194
0.0173103
0.0116034
0.011156
0.00767488
0.00776279
0.00801949
0.0133426
0.0134856
0.0209122
0.0233528
0.0219924
0.0226763
0.0224061
0.0226938
0.0223283
0.0211377
0.0202985
0.0193338
0.0184908
0.0177486
0.0169253
0.0161206
0.0174273
0.0163773
0.0138155
0.0139375
0.0145533
0.0151985
0.0160853
0.0173378
0.0184148
0.0211124
0.0212939
0.0207999
0.0208972
0.0194313
0.0187211
0.0199767
0.0195065
0.0132895
0.0131157
0.0191448
0.0187963
0.0186784
0.0224943
0.0209045
0.0214259
0.022551
0.0224309
0.0194872
0.0181278
0.0165813
0.0153995
0.0140219
0.0125073
0.0121255
0.0148578
0.0130764
0.0107427
0.0119418
0.0143482
0.0169599
0.0184225
0.0204084
0.0231241
0.0240942
0.026328
0.0277472
0.0298419
0.0306817
0.0355014
0.0361736
0.0340416
0.0321968
0.0312029
0.0274362
0.0235014
0.0259187
0.0267832
0.0271585
0.0272573
0.0271296
0.0235436
0.0231107
0.0215949
0.021078
0.019511
0.0189508
0.0177877
0.0170263
0.0160035
0.0141755
0.0134569
0.0126433
0.012291
0.0173489
0.0108295
0.0105794
0.0159765
0.00983952
0.0115776
0.0113287
0.0118507
0.0125062
0.0103414
0.0151278
0.0103143
0.0112124
0.0114499
0.0143743
0.00996496
0.0208507
0.0641484
0.0929375
0.111854
0.203222
0.243568
0.263872
0.284579
0.298711
0.314703
0.332244
0.349952
0.36304
0.364517
0.338865
0.320357
0.255341
0.228629
0.252502
0.282789
0.195011
0.167304
0.169614
0.170496
0.173112
0.174405
0.178096
0.176088
0.181216
0.176873
0.184217
0.178211
0.184752
0.177289
0.161848
0.145171
0.112479
0.10168
0.0655785
0.0507774
0.0397208
0.028821
0.0209915
0.0188346
0.0178201
0.0164593
0.0165424
0.0126769
0.0131076
0.00839763
0.00616882
0.00986317
0.00970064
0.00722072
0.00983139
0.0112316
0.011748
0.0122863
0.0125783
0.0192377
0.0192778
0.0247017
0.0245944
0.0291681
0.0347739
0.0360106
0.0396586
0.0570091
0.0575156
0.0572602
0.0570655
0.0566315
0.0493972
0.0491151
0.0480071
0.0474189
0.0444784
0.0439236
0.0418472
0.0407113
0.0377735
0.0369502
0.0358209
0.0362708
0.0405042
0.0555704
0.0983881
0.0293961
0.0279609
0.0205425
0.0145462
0.0213542
0.0158882
0.0154266
0.0136037
0.0186784
0.0134406
0.0136908
0.0164944
0.0170128
0.0164152
0.0214195
0.0266793
0.0233975
0.0258442
0.116472
0.0750297
0.0244566
0.0482282
0.0716885
0.157635
0.204208
0.139878
0.159796
0.183968
0.166957
0.140126
0.109491
0.0816053
0.0579022
0.0446365
0.0113474
0.0133642
0.0185201
0.0409273
0.060728
0.101318
0.0833853
0.108992
0.148979
0.173492
0.209543
0.201048
0.17289
0.148754
0.145367
0.160574
0.162767
0.105335
0.102259
0.0774818
0.173806
0.219216
0.184585
0.231855
0.244575
0.143319
0.0317497
0.018349
0.0151047
0.0139038
0.012425
0.0193753
0.011444
0.0116348
0.0123485
0.0132645
0.0169305
0.0293988
0.0134201
0.0149099
0.0183351
0.0158886
0.0149374
0.0146247
0.0145406
0.0151703
0.0165361
0.0215698
0.0216429
0.0212799
0.0159689
0.0172601
0.0156754
0.0199773
0.0211761
0.0332609
0.0152382
0.0161793
0.0214615
0.477085
0.0245968
0.0178039
0.0231921
0.0218578
0.0300698
0.044056
0.458342
0.0440453
0.0350823
0.0585691
0.0608323
0.0654813
0.0691486
0.0726568
0.0751789
0.0791254
0.081791
0.0830194
0.0842425
0.0999576
0.0999672
0.0989045
0.103503
0.0976466
0.0576848
0.0579051
0.0974771
0.105216
0.0594531
0.041061
0.0385569
0.0312525
0.0323905
0.0419425
0.0440075
0.0616932
0.0615228
0.10261
0.0935682
0.0949668
0.0967006
0.0916877
0.0921469
0.0942154
0.0941695
0.075361
0.0730597
0.0713005
0.0682429
0.0647044
0.0618051
0.0589066
0.0558452
0.0532635
0.0534098
0.0582396
0.0583647
0.0661318
0.0733088
0.222577
0.151145
0.10791
0.0799965
0.0650826
0.058915
0.0584627
0.0616309
0.0648595
0.0665209
0.0673261
0.0706814
0.0924499
0.0948975
0.0977689
0.0952069
0.0990436
0.0971079
0.0946432
0.104553
0.112399
0.0656952
0.067778
0.0478618
0.0446658
0.0325903
0.033159
0.0236559
0.0196085
0.0195836
0.019564
0.0197998
0.0226963
0.0317368
0.0318357
0.0465271
0.0464226
0.0518506
0.0754696
0.0725145
0.129315
0.1185
0.108814
0.101466
0.101843
0.103961
0.106553
0.101537
0.0977796
0.0922209
0.0724245
0.0684292
0.0662924
0.0650387
0.0637803
0.0672906
0.0907721
0.147106
0.225236
0.331027
0.432081
0.442803
0.400945
0.250374
0.290454
0.144484
0.164992
0.187047
0.162235
0.171356
0.320067
0.266269
0.376998
0.482473
0.536458
0.60305
0.640209
0.628369
0.499015
0.324304
0.331833
0.4416
0.769822
0.86337
0.744842
0.762759
0.659361
0.541285
0.5229
0.498279
0.562326
0.613444
0.578914
0.596022
0.540134
0.515772
0.445696
0.497373
0.363413
0.327322
0.307687
0.298828
0.358074
0.289731
0.326311
0.268175
0.274384
0.222931
0.228442
0.190716
0.146001
0.138404
0.128299
0.143631
0.162793
0.149124
0.153492
0.134016
0.114508
0.0911919
0.0984568
0.0735459
0.0695705
0.0706778
0.0805535
0.126308
0.369389
0.173486
0.163565
0.167673
0.177994
0.319171
0.28277
0.724904
0.508171
0.711085
0.475037
0.5639
0.471844
0.363998
0.379588
0.419548
0.600285
0.823845
6.65912
0.28484
4.26699
3.16728
3.32553
3.47097
4.44882
7.81336
7.11266
9.39788
6.80804
9.08305
4.97519
4.97652
4.32584
4.47113
4.43882
4.26205
5.19404
6.63525
0.238599
0.0909763
0.0854252
0.0856077
0.0873839
0.197731
0.0525632
0.202014
0.0539676
0.213478
0.0495251
0.246679
0.196907
0.0382395
0.0192586
0.0200909
0.0168075
0.0203756
0.016923
0.025047
0.0235421
0.0236993
0.0265864
0.0762572
0.292043
13.7988
1.6594
0.692112
0.791542
1.18494
0.805344
1.20569
1.67458
1.12669
0.562355
0.368355
0.434381
0.525081
0.501477
0.640019
0.921481
0.901793
0.709007
0.713146
0.628398
0.887111
0.896079
1.06234
1.24069
1.13563
0.88984
0.7011
0.592707
1.02162
1.02723
0.960581
0.406703
0.114648
0.0468853
0.049129
0.0356956
0.0376894
0.0348056
0.0550405
0.160858
0.221101
0.133248
0.430344
0.415367
0.565674
0.40379
0.413665
0.326667
0.350886
0.535096
0.58458
0.644363
0.675646
0.72628
0.67049
1.28729
2.20342
2.49244
12.8461
17.4212
3.20237
3.09771
13.9523
0.315036
0.0838963
0.0233163
0.0174311
0.0162171
0.01613
0.0150011
0.0155386
0.0160002
0.0169642
0.0188301
0.023198
0.0458392
0.201501
0.203475
0.064356
0.0324353
0.0229729
0.0196177
0.0170472
0.0163877
0.0155322
0.0154598
0.0150085
0.0156582
0.0174648
0.0237827
0.077449
0.271136
11.3352
2.43936
2.25819
8.38744
5.79806
0.206803
0.0438043
0.0200962
0.0169277
0.0158846
0.0167549
0.0162665
0.0182123
0.0184034
0.0230183
0.0250245
0.0317727
0.0570944
0.110229
0.315723
9.59744
8.66748
8.39087
7.82585
0.31035
0.115261
0.0544133
0.0382389
0.0346296
0.0338237
0.0226513
0.0236765
0.0189839
0.0216441
0.018297
0.0226868
0.0483239
0.211975
5.35563
1.5729
1.70377
1.21087
0.613747
0.656374
0.670299
0.689864
1.77584
4.06057
4.9935
3.43028
3.36352
4.7104
3.17309
2.48345
1.83045
1.74907
2.54798
1.96507
1.8272
1.35797
1.46771
1.06895
1.46872
0.812184
0.978052
1.07417
1.5329
1.39904
1.41198
0.909599
1.05171
1.47691
1.72728
1.65124
0.844984
1.22846
1.01516
0.655611
0.607981
0.634543
0.604355
0.579019
0.575796
0.580207
0.559087
0.576484
0.556702
0.588795
0.548464
0.533564
0.507701
0.527384
0.544859
0.577504
0.360269
0.422686
0.427158
0.441648
0.454196
0.37518
0.451335
0.442206
0.659654
0.995781
0.834886
1.15226
0.67974
1.00451
2.00931
5.21256
2.34705
0.820323
1.34912
1.58502
1.14026
0.628882
2.55459
3.5621
1.23149
1.78633
10.3885
8.43633
16.5205
10.9714
18.6308
6.03606
4.63627
17.805
6.67522
6.91069
4.51553
4.52222
2.9601
1.58594
1.62946
1.74213
1.22773
1.30044
1.21059
1.13462
1.47533
1.4405
1.88682
2.03608
2.57857
1.81261
1.77632
2.59889
1.06434
1.40064
1.83845
1.83026
1.36077
2.34299
3.15811
2.96881
2.13956
2.33741
3.50529
4.8191
4.57733
3.16898
3.96668
10.1327
13.5218
13.6897
4.22479
19.3237
18.31
2.07771
0.565994
0.324111
0.0894405
0.0445014
0.0366462
0.0386936
0.143605
0.0458162
0.0570526
0.0455211
0.0730473
0.0698163
0.0872174
0.21798
0.126504
0.215992
0.155536
0.189859
0.121144
0.193721
0.227118
0.237042
0.188799
0.115832
0.213315
0.307146
0.106146
0.35495
0.390323
0.26056
0.332813
0.396446
0.19682
0.994864
0.185242
0.127137
0.14679
0.393281
1.2598
0.218462
0.461422
4.47858
14.7216
3.68102
0.938041
0.680188
0.0554876
0.0301145
0.0317868
0.0278625
0.0193969
0.0839634
0.098634
0.404913
0.208446
0.278517
0.662565
2.93192
2.40164
1.12708
5.4928
10.2823