/*--------------------------------*- C++ -*----------------------------------*\
| =========                 |                                                 |
| \\      /  F ield         | OpenFOAM: The Open Source CFD Toolbox           |
|  \\    /   O peration     | Version:  v2012                                 |
|   \\  /    A nd           | Website:  www.openfoam.com                      |
|    \\/     M anipulation  |                                                 |
\*---------------------------------------------------------------------------*/
FoamFile
{
    version     2.0;
    format      ascii;
    class       volScalarField;
    location    "30";
    object      alphat;
}
// * * * * * * * * * * * * * * * * * * * * * * * * * * * * * * * * * * * * * //

dimensions      [1 -1 -1 0 0 0 0];


internalField   nonuniform List<scalar> 
18258
(
0.00531355
0.0024805
0.00217144
0.00189449
0.00123983
0.00194816
0.00256935
0.00303567
0.00315446
0.00304237
0.00307154
0.00506681
0.00701224
0.00854559
0.00890678
0.00886701
0.00792668
0.00765318
0.0083971
0.0103873
0.00880921
0.00565488
0.00695449
0.00798655
0.00816828
0.00710527
0.00569767
0.00536992
0.00491534
0.00412631
0.00343165
0.00229498
0.00181513
0.00171367
0.00150016
0.00170442
0.00184781
0.00195616
0.00198581
0.0020229
0.00201246
0.00201489
0.00195936
0.00194103
0.00189121
0.00158611
0.00218658
0.00231373
0.0019417
0.00230824
0.00269518
0.00236238
0.00271877
0.00246354
0.00165696
0.0018817
0.00203635
0.00208317
0.00206033
0.00197815
0.00195168
0.00192947
0.00190092
0.00186746
0.00184947
0.00187379
0.00189941
0.00188385
0.00179417
0.00171929
0.00159326
0.00146356
0.001364
0.00128553
0.00122683
0.00116983
0.00110612
0.000971956
0.000900212
0.00119434
0.0014984
0.00159859
0.00225634
0.00274693
0.00275859
0.00205473
0.00144915
0.00149663
0.00167252
0.00170936
0.00146699
0.00178276
0.00204177
0.00212934
0.0022142
0.0024604
0.0026533
0.0025721
0.00296867
0.00301383
0.00299729
0.00296941
0.00273683
0.00353185
0.00364548
0.00355681
0.003405
0.00342555
0.00339469
0.00358593
0.00309898
0.00286065
0.00280946
0.00281225
0.00251088
0.00255622
0.00229262
0.00206526
0.00222883
0.00274825
0.00262059
0.00288811
0.00297719
0.00277923
0.0032116
0.00370873
0.00363379
0.00290681
0.00231496
0.00216
0.00218027
0.00133335
0.00143967
0.00158292
0.001621
0.0016418
0.00166111
0.00176479
0.00176121
0.00175612
0.00175819
0.00191556
0.00100919
0.00106565
0.00107735
0.00108259
0.00103398
0.00102743
0.00101144
0.000996945
0.000923136
0.000881732
0.00105877
0.00119262
0.00130393
0.00143108
0.00163192
0.00187106
0.00211417
0.00235289
0.00250294
0.00253691
0.00256957
0.00248319
0.00237518
0.00245239
0.00246257
0.00244973
0.00242602
0.00239158
0.00233955
0.00223649
0.00236407
0.00236331
0.00222716
0.00190566
0.0019471
0.00194095
0.00199557
0.00199281
0.0020217
0.00200726
0.00199318
0.0019216
0.00182355
0.00163011
0.00131397
0.00131659
0.00173928
0.00215958
0.00339971
0.00423412
0.00500828
0.00542694
0.00596223
0.00473702
0.00521287
0.00396206
0.00358634
0.00460109
0.00608347
0.0034399
0.00182879
0.00343161
0.00296559
0.00200411
0.00172979
0.00174811
0.00208294
0.00246039
0.00269828
0.00290134
0.00299031
0.00310727
0.00317846
0.00327998
0.00340962
0.00344224
0.00333261
0.00283611
0.0033725
0.00262972
0.00293752
0.00247151
0.00214823
0.00299235
0.00333062
0.00282366
0.00260002
0.00241548
0.00210572
0.00242423
0.00299845
0.00343171
0.00388642
0.00512848
0.00471573
0.00455834
0.00354527
0.00340356
0.00179596
0.00256994
0.00259643
0.00285556
0.00188479
0.0016239
0.00156583
0.00221047
0.00245326
0.00281407
0.00309903
0.00371961
0.00277252
0.00303247
0.00257359
0.00226629
0.00211752
0.00257688
0.0029326
0.00254291
0.00236608
0.00281968
0.00252724
0.00198624
0.00162005
0.00235767
0.00260062
0.00202445
0.00394915
0.00424047
0.00435588
0.0053062
0.00662792
0.00769551
0.00689429
0.00614124
0.00717296
0.00564275
0.00532472
0.00551433
0.00461039
0.00344076
0.00360027
0.00378836
0.00391147
0.00421045
0.00447865
0.00480066
0.00518276
0.00476431
0.00400265
0.00304159
0.00207593
0.0020646
0.00205458
0.00184426
0.00273162
0.0040768
0.00399761
0.00227173
0.00134845
0.00154622
0.00174736
0.0017216
0.00122385
0.000928645
0.00160199
0.00182652
0.0018523
0.00180324
0.00169996
0.00177332
0.00284563
0.00438179
0.00481266
0.00498065
0.00513777
0.00524608
0.00530194
0.00531349
0.00531657
0.00532395
0.00533214
0.00534921
0.00533347
0.00522206
0.00459581
0.00289225
0.00169699
0.0015839
0.00174949
0.00188218
0.00200009
0.00170619
0.00103751
0.00165898
0.00211821
0.00242639
0.00244385
0.00227874
0.00220889
0.00348136
0.00462964
0.00545625
0.00562119
0.00569188
0.00562426
0.00560979
0.00547875
0.0054274
0.00474399
0.00345755
0.00379922
0.00409014
0.00415028
0.0042563
0.00441318
0.00431746
0.00408828
0.00594358
0.00678634
0.00689049
0.00705625
0.00696583
0.0068165
0.00646889
0.00608746
0.00512101
0.00383915
0.00241926
0.00247111
0.00263429
0.00261427
0.00228393
0.00240907
0.00260896
0.00263385
0.00272124
0.00303976
0.00344675
0.00328525
0.00281771
0.0023715
0.00221345
0.00218227
0.00211049
0.00159648
0.00160554
0.00154427
0.00155741
0.00209871
0.00250638
0.00288318
0.00409011
0.00366238
0.00298884
0.00472034
0.00481564
0.00511846
0.0056381
0.00578944
0.00640369
0.00455616
0.00411367
0.00422909
0.00345555
0.00320407
0.00324012
0.00325311
0.00303682
0.00331614
0.00328209
0.00316126
0.00349034
0.00385018
0.00508026
0.0061686
0.00653139
0.00675456
0.00685113
0.00681155
0.00662767
0.00663172
0.00582346
0.00576249
0.00553987
0.00538109
0.00532005
0.00502436
0.00580373
0.00603943
0.00610863
0.00625335
0.0064842
0.00633967
0.0061338
0.00598715
0.00588305
0.00576138
0.00583146
0.00594829
0.00606662
0.00623786
0.00647999
0.00653985
0.00628786
0.00610283
0.00597675
0.00585749
0.00586718
0.00597533
0.00610006
0.00627524
0.00650094
0.00637248
0.00620155
0.00604994
0.00592393
0.0058114
0.00560814
0.00575057
0.00590576
0.00603344
0.0061169
0.00527454
0.00563674
0.00553775
0.00500977
0.00468456
0.00355487
0.00384856
0.00405924
0.00442144
0.00491007
0.00500743
0.00420312
0.0036021
0.00351098
0.00348259
0.0035669
0.00359585
0.00361131
0.00407839
0.00612233
0.00615667
0.00613904
0.00610741
0.00523751
0.00511587
0.00479969
0.0085668
0.00793734
0.00692317
0.005733
0.00310995
0.00267364
0.00317297
0.00384352
0.0042845
0.00467828
0.00311193
0.00191369
0.00221137
0.00228797
0.00222608
0.00206401
0.00172739
0.00158319
0.00142956
0.00152914
0.00270672
0.00433058
0.00487449
0.00490758
0.00481428
0.00461508
0.00440337
0.00692842
0.00830642
0.00893105
0.0092674
0.00942137
0.00923507
0.00832026
0.00715856
0.00428865
0.00241633
0.00211265
0.00219082
0.00218363
0.00238355
0.00250826
0.00222379
0.00219923
0.00217552
0.0037829
0.00629307
0.0069944
0.0079194
0.00836692
0.00849336
0.00812136
0.0071423
0.00571646
0.00486828
0.00507685
0.0051838
0.00524468
0.00521761
0.00474044
0.00291754
0.00174622
0.00154647
0.00167038
0.00196141
0.00208309
0.00210914
0.00208763
0.00182381
0.00303783
0.00480115
0.00305924
0.00166058
0.00178318
0.00176164
0.0031023
0.00311109
0.00306885
0.0047528
0.00505573
0.00505834
0.00475415
0.00454306
0.00269009
0.00305709
0.00307105
0.00309016
0.00314229
0.00159428
0.00173306
0.0017765
0.00189755
0.00162851
0.00213351
0.000553778
0.000766292
0.000886617
0.000977715
0.00106071
0.00104383
0.00201907
0.00204808
0.00192528
0.00182243
0.00233625
0.00253457
0.00259795
0.00239663
0.0022086
0.00234078
0.00234193
0.00219573
0.00208365
0.00216667
0.00217346
0.00209314
0.00178031
0.00166848
0.00182394
0.00179983
0.00178054
0.00318341
0.00318825
0.00303071
0.00495852
0.00485459
0.00543863
0.005382
0.00535518
0.00530684
0.00536474
0.00542265
0.00546473
0.00551511
0.00553524
0.00547742
0.00751447
0.00543129
0.00474149
0.00275058
0.00265214
0.00187659
0.00164746
0.00194066
0.00207647
0.00225231
0.00220352
0.00231742
0.00231293
0.00245335
0.00227403
0.00201674
0.00308437
0.00329331
0.00321456
0.00327613
0.00319747
0.00317636
0.00315542
0.00311411
0.00306299
0.00182802
0.00179574
0.00210414
0.00220993
0.00237538
0.00239387
0.00244669
0.00231631
0.00203407
0.0019682
0.00227031
0.00223856
0.00228597
0.00215403
0.00214166
0.00190482
0.00195388
0.00392099
0.00709033
0.00373949
0.0041536
0.00378871
0.00430743
0.0037733
0.00325589
0.00332448
0.00292151
0.00304618
0.00319219
0.00325091
0.00341687
0.00403096
0.00387482
0.00339811
0.00329972
0.00323491
0.00305567
0.00275031
0.0028705
0.00289263
0.00295533
0.00329477
0.0037549
0.00420785
0.00504988
0.00489481
0.00432649
0.00394105
0.00409261
0.00420512
0.00525005
0.00487167
0.00487389
0.00517387
0.00515699
0.00488488
0.00463653
0.00448105
0.0038858
0.00395148
0.00450603
0.00436438
0.0044886
0.00440213
0.00458061
0.00465868
0.004465
0.00415049
0.00439592
0.00439939
0.00486419
0.00471954
0.00438236
0.00399387
0.00428583
0.00427027
0.0049027
0.00460004
0.00430793
0.00396581
0.0038358
0.00433908
0.00424766
0.00479842
0.00495263
0.00494617
0.00433496
0.00421561
0.0049864
0.00477737
0.00463849
0.00481233
0.00400991
0.00411127
0.00504018
0.00513022
0.00487208
0.00409574
0.00414705
0.00355755
0.0041537
0.00515116
0.00483849
0.00396991
0.00332663
0.00463735
0.00489602
0.00514678
0.00490178
0.00531665
0.00573005
0.00469835
0.00511557
0.00666463
0.00515048
0.00597224
0.00609885
0.00612643
0.00611716
0.00612338
0.00612969
0.0064179
0.00615081
0.00403738
0.00479252
0.00482471
0.00406668
0.0034815
0.00381805
0.00410738
0.00416705
0.00427369
0.00443199
0.00433677
0.00409853
0.00598112
0.00683154
0.00698276
0.00716274
0.00706308
0.00690563
0.00656525
0.00619326
0.00521259
0.00390927
0.00246813
0.00252622
0.00270072
0.00268726
0.00234554
0.00176538
0.00117681
0.00174439
0.00184412
0.00176408
0.00163372
0.00148532
0.00159084
0.00278585
0.00442806
0.0049898
0.00503365
0.00495083
0.00476726
0.00452742
0.00630922
0.00837917
0.00908032
0.00941718
0.00949902
0.00927309
0.0081281
0.00774644
0.00730025
0.006968
0.0066597
0.00643239
0.00723259
0.00795582
0.00840659
0.0088878
0.00907227
0.00894122
0.00779913
0.00750481
0.00847242
0.0105391
0.0088202
0.0112085
0.0134292
0.0103998
0.00942189
0.00947372
0.010462
0.0107269
0.0103911
0.00978499
0.00905028
0.00812088
0.00844978
0.00875782
0.00907248
0.00936335
0.0105831
0.0108113
0.0106935
0.01033
0.00966087
0.00846291
0.00511818
0.00487917
0.00510065
0.00521845
0.0051732
0.00455925
0.00260152
0.00283811
0.002843
0.00285895
0.00275935
0.00133229
0.00148823
0.00152517
0.0015961
0.0015191
0.00176836
0.00249645
0.00363806
0.00297619
0.00273773
0.00159253
0.00177798
0.00295893
0.00482805
0.005335
0.00537546
0.00532166
0.00521999
0.00501941
0.00544223
0.00705909
0.00822429
0.00864538
0.00853087
0.00806279
0.00695957
0.00673898
0.0064206
0.00623549
0.00625501
0.00613124
0.00571685
0.00437958
0.00438707
0.00457793
0.00446619
0.00424865
0.00454409
0.00471069
0.00470595
0.00475509
0.00479988
0.00494323
0.00511334
0.00526323
0.00534569
0.00538092
0.00539654
0.00541317
0.00542591
0.00544487
0.00542792
0.00531101
0.00466803
0.00293322
0.00171735
0.00158411
0.0017346
0.00183273
0.00187319
0.00166702
0.00107619
0.00166483
0.0021558
0.00220614
0.00242408
0.00250156
0.00266649
0.00295551
0.00339797
0.00349498
0.0031181
0.0029755
0.00292604
0.00285024
0.00250732
0.00311926
0.00335445
0.00334131
0.00328667
0.0035303
0.00432082
0.00416781
0.00369478
0.00368437
0.00365515
0.00339233
0.00335004
0.00355932
0.00359007
0.00368498
0.00429814
0.00511643
0.00477015
0.00436423
0.00423905
0.0039297
0.00355553
0.00322158
0.00374627
0.00321041
0.0019634
0.001901
0.00162012
0.00152271
0.00145836
0.00173681
0.00181368
0.00192228
0.00183614
0.00200178
0.00218181
0.00210048
0.00228563
0.00224793
0.00205571
0.0019284
0.00201887
0.00215171
0.00230698
0.00239756
0.00398923
0.00426131
0.00340664
0.00462831
0.00494387
0.00458571
0.00497625
0.00432553
0.00403559
0.00471202
0.00517588
0.00559895
0.00466077
0.00449092
0.00446005
0.00214806
0.00113304
0.00160056
0.00200535
0.00227915
0.00222376
0.00208866
0.00176292
0.00310609
0.00314065
0.00486715
0.00544068
0.00550356
0.0054781
0.00542351
0.00535689
0.00530348
0.00588575
0.00689718
0.00759527
0.00765574
0.00700434
0.00576201
0.00584088
0.00580209
0.00579164
0.00586266
0.00495441
0.00459726
0.00493191
0.00478142
0.00494301
0.00501612
0.00506637
0.00511658
0.00520388
0.00531029
0.00540534
0.00546949
0.00551172
0.00554675
0.00558127
0.00561372
0.00564774
0.00566067
0.00559874
0.00505963
0.00307442
0.00184844
0.00169364
0.00180817
0.00212332
0.00223853
0.00240898
0.0021353
0.00112448
0.0012932
0.00226937
0.00252601
0.002342
0.00219474
0.00212964
0.00179
0.00321826
0.00315547
0.00490965
0.00553368
0.00562935
0.00563324
0.00560957
0.00557939
0.00554611
0.00551701
0.00549292
0.00546513
0.00542358
0.00537637
0.0053355
0.00529142
0.00521283
0.00510557
0.0047269
0.00507161
0.00534534
0.00558048
0.00574769
0.00570556
0.00556511
0.00548181
0.00548456
0.00551169
0.00554283
0.00557201
0.00559493
0.00559116
0.00550432
0.00517316
0.00486808
0.00308549
0.00311969
0.00155712
0.00173257
0.00199015
0.00205217
0.00223947
0.0022154
0.00174984
0.00138443
0.00156819
0.00147159
0.00261201
0.00284859
0.00311969
0.00307905
0.00168705
0.00173791
0.00182143
0.00202787
0.0019169
0.00186733
0.00425035
0.00409085
0.004379
0.00534442
0.00459438
0.00315742
0.00346602
0.00480077
0.0050826
0.00308158
0.00233083
0.00258027
0.00324582
0.00475323
0.00483415
0.00462728
0.00457742
0.00336058
0.0041896
0.00506901
0.00490876
0.00379183
0.00258552
0.00196014
0.000984152
0.00186872
0.00159346
0.00389525
0.004308
0.00428307
0.00463843
0.00492911
0.00497086
0.00482512
0.00430115
0.00438454
0.00441894
0.00500946
0.0050143
0.00427718
0.00361547
0.00297194
0.00299409
0.00304624
0.0033673
0.00420242
0.0039577
0.00347596
0.00337965
0.00331464
0.00312424
0.00282331
0.00248137
0.00249781
0.00232463
0.00224977
0.00354241
0.00470868
0.00554768
0.00571253
0.00577972
0.00570459
0.00568182
0.00554139
0.005484
0.00479218
0.00622452
0.00648673
0.00620594
0.00621296
0.00621803
0.00623498
0.00621104
0.00608313
0.00524566
0.0031411
0.00205462
0.00231924
0.00250456
0.00235375
0.00233842
0.00248996
0.00236027
0.00207219
0.00335464
0.003275
0.00522319
0.00589661
0.00603604
0.00607552
0.00608526
0.00610268
0.00614681
0.00651356
0.00639747
0.00635913
0.00632257
0.00637984
0.00647395
0.00608668
0.00602193
0.00598699
0.00596693
0.00592247
0.00578424
0.00512471
0.00496179
0.00562713
0.00579501
0.00586696
0.00591802
0.00598708
0.00608952
0.00636389
0.00655898
0.00655651
0.00653544
0.00650376
0.00633842
0.00610395
0.00603749
0.00599965
0.00596667
0.00590453
0.00573772
0.00505877
0.00325814
0.00333837
0.00198924
0.00200431
0.00231017
0.0024288
0.00238737
0.00221297
0.00215893
0.00369974
0.0041842
0.00444795
0.00475786
0.004548
0.00453262
0.00515858
0.00498901
0.00443108
0.00461837
0.00419056
0.00400975
0.00376155
0.00376695
0.00206314
0.00222342
0.00231688
0.00227574
0.00217665
0.0019388
0.00177813
0.00323739
0.00321498
0.00317029
0.00189354
0.00185437
0.00218378
0.00212307
0.00194489
0.00165932
0.00181606
0.00279198
0.00311581
0.00482647
0.00498
0.0053438
0.00571272
0.0058626
0.00592864
0.00596351
0.00599482
0.00603467
0.0060831
0.00608931
0.00608036
0.00622218
0.00626817
0.00622923
0.00611246
0.00601235
0.00592576
0.00585609
0.00576798
0.00560825
0.00524233
0.00488545
0.0055099
0.00556498
0.00568254
0.00582203
0.00591051
0.00597448
0.00603289
0.00608029
0.00613369
0.0061233
0.00608756
0.00583572
0.00583041
0.00587494
0.00590095
0.00593067
0.0059522
0.00594041
0.00588888
0.00577292
0.0056659
0.00561495
0.00553296
0.0056777
0.00572994
0.00573505
0.00578328
0.00585817
0.00587355
0.00583646
0.00575116
0.00565555
0.00556473
0.00548264
0.00545562
0.00578837
0.0058615
0.00591345
0.00592585
0.00594027
0.00593114
0.0059011
0.00583306
0.00571843
0.00564689
0.00562899
0.00557348
0.00560536
0.00565351
0.00566505
0.00572419
0.00582161
0.00586589
0.00584762
0.00579644
0.00570917
0.0056237
0.00551569
0.0053903
0.00499986
0.00508591
0.00520207
0.00534853
0.0055229
0.00568419
0.0057771
0.00579529
0.00575447
0.00573155
0.00574283
0.00570608
0.00569451
0.00572122
0.0057023
0.00571344
0.00574181
0.00568295
0.00551106
0.00523989
0.004975
0.00476438
0.00464137
0.00450674
0.00494213
0.00512808
0.00527368
0.0054194
0.0055981
0.00573519
0.00582002
0.00581023
0.00571679
0.00566059
0.00564824
0.00560177
0.00559054
0.00563454
0.00565014
0.00570022
0.00576725
0.005742
0.00558725
0.00537925
0.00516262
0.00499821
0.00484843
0.00465672
0.00455993
0.00466141
0.00467583
0.0047601
0.00499714
0.00532007
0.00556307
0.0056588
0.00566425
0.00566567
0.00568825
0.00567193
0.00564005
0.00564689
0.00562584
0.00563357
0.00566372
0.00558278
0.00537852
0.00507402
0.00473349
0.00470422
0.0046782
0.00455874
0.0045162
0.0046709
0.00474276
0.00493865
0.0052699
0.00552405
0.00570035
0.00574797
0.00568425
0.00563039
0.00561269
0.00557289
0.00554065
0.0055619
0.00557301
0.00561881
0.00567145
0.00562642
0.00543919
0.00518556
0.00488722
0.00485581
0.00486245
0.00475383
0.00474133
0.00487431
0.00495565
0.00493876
0.00526369
0.00549088
0.00562539
0.00565038
0.00559003
0.00556371
0.00558111
0.00559273
0.00552511
0.00547675
0.00546844
0.00556749
0.00566699
0.00568402
0.00565184
0.00549798
0.00512436
0.00506957
0.00491794
0.00473696
0.00477545
0.00492808
0.00494612
0.0049717
0.00528175
0.00546781
0.00558069
0.00560879
0.00554421
0.00546699
0.00546657
0.00548985
0.00542268
0.00514833
0.00487857
0.00506557
0.00510655
0.00505798
0.00492803
0.00472378
0.00441236
0.00482876
0.00520662
0.00515941
0.00510075
0.00517708
0.00491841
0.00455884
0.0049689
0.00509869
0.00516076
0.00516554
0.00509344
0.00488289
0.0051589
0.00543952
0.00538432
0.0048356
0.00313487
0.00317337
0.00318276
0.00317309
0.00312828
0.00310971
0.00306059
0.00302658
0.00295757
0.00287388
0.00281549
0.00296771
0.00311284
0.00331492
0.00329579
0.0033728
0.00318412
0.0030111
0.00279596
0.00227568
0.00288298
0.00342907
0.00370723
0.00404498
0.00415182
0.00484174
0.00506067
0.00516255
0.00504826
0.00408881
0.00346943
0.00278056
0.00181205
0.00112846
0.0013232
0.00137683
0.00143333
0.00164
0.0032559
0.00160612
0.0022843
0.00178802
0.00313529
0.00148357
0.00103328
0.000690072
0.000877385
0.00104663
0.00105124
0.00100702
0.000842483
0.000659241
0.00067541
0.000622207
0.000662441
0.000593428
0.000686135
0.000657897
0.00122519
0.0015386
0.00164624
0.00166195
0.00133402
0.00148536
0.00123897
0.0014171
0.00125913
0.00136907
0.00131233
0.00160641
0.0017625
0.00169262
0.00170175
0.00149146
0.00104432
0.00120891
0.000949446
0.0011368
0.000869199
0.00112756
0.000966342
0.00125592
0.00129582
0.00129366
0.00124784
0.00095589
0.00114589
0.000897298
0.00109743
0.000866722
0.000923805
0.000775938
0.00111511
0.00113602
0.00104576
0.00111515
0.00125578
0.00136575
0.0015289
0.00144941
0.00167531
0.00162927
0.00166138
0.00155699
0.00148464
0.00144841
0.00144771
0.00142215
0.00142977
0.00147634
0.00148177
0.00149122
0.00154345
0.00152268
0.00149134
0.00147525
0.00131505
0.00105795
0.001847
0.00190753
0.00193229
0.0019255
0.00187285
0.00185643
0.00180563
0.00178588
0.0017392
0.00170267
0.00163488
0.0015681
0.00149937
0.00168006
0.000935532
0.00106243
0.00112271
0.00115232
0.00117735
0.00118692
0.00119842
0.00119242
0.00117971
0.00114908
0.00113725
0.00110505
0.00141559
0.00160213
0.00166703
0.00168082
0.00157329
0.00149335
0.00316765
0.00381494
0.00586316
0.00599954
0.00446322
0.00445977
0.00158263
0.00164543
0.00112785
0.00158667
0.00163497
0.0016191
0.00153182
0.00110543
0.00168774
0.00117444
0.00165891
0.00122732
0.00153506
0.00122803
0.00171779
0.00218455
0.00210702
0.00192031
0.00132
0.00104401
0.00102278
0.000883331
0.000960179
0.000807914
0.00100843
0.000898637
0.00159267
0.00198025
0.00210892
0.00213374
0.00167995
0.00230169
0.00173127
0.00247525
0.00194826
0.00237592
0.00190271
0.00221298
0.00273919
0.00275191
0.00269119
0.00217252
0.0017577
0.00196765
0.00174753
0.00200453
0.00287316
0.00188899
0.00280393
0.00116813
0.00159108
0.00163742
0.00161312
0.00152043
0.00102714
0.00263744
0.00139751
0.00257545
0.00167189
0.00272696
0.00191581
0.00251277
0.00302396
0.00315004
0.00311442
0.00253284
0.00223609
0.00225727
0.00181394
0.00216735
0.00163966
0.00238761
0.00135301
0.00182234
0.00201667
0.00211092
0.00213627
0.0017851
0.00346471
0.00216693
0.00325713
0.00224931
0.0028693
0.00229821
0.002527
0.00297854
0.00296586
0.00294833
0.00250513
0.00202453
0.0026654
0.00191827
0.0529431
0.12554
0.0486743
0.126119
0.0577426
0.0814983
0.0803221
0.0805328
0.0806387
0.0599878
0.131001
0.156196
0.16347
0.165584
0.164392
0.265984
0.216781
0.326673
0.212453
0.123563
0.052582
0.0735787
0.192002
0.318737
0.476989
0.604588
0.411224
0.425079
0.27116
0.267019
0.250317
0.200794
0.120372
0.0591369
0.0109186
0.0121697
0.0170814
0.0224933
0.0183974
0.0117386
0.00226076
0.00234622
0.00241335
0.0024643
0.00248058
0.00246399
0.00255348
0.00249815
0.00238756
0.00270647
0.0029361
0.00280255
0.00267492
0.00313236
0.00284074
0.00322434
0.00349015
0.00369672
0.0038501
0.00406178
0.0042961
0.00453447
0.00458164
0.0042304
0.00359793
0.00293193
0.0024925
0.00238277
0.00225245
0.00198702
0.00182784
0.00174545
0.00168577
0.0016548
0.00169243
0.00184043
0.00195107
0.00198332
0.00192306
0.00188562
0.00185123
0.00164399
0.00191402
0.00262466
0.00267978
0.00458448
0.00528089
0.0053848
0.00538517
0.00484148
0.00312052
0.00312978
0.00314949
0.00321874
0.00323296
0.00324217
0.00323547
0.00320912
0.00318415
0.00312041
0.00309281
0.00299793
0.00294925
0.00281192
0.00281317
0.00285006
0.00287926
0.00285793
0.00288324
0.00282182
0.00291583
0.00385486
0.00524358
0.00562705
0.00593046
0.00574499
0.0076734
0.00608634
0.00460397
0.00469416
0.00461315
0.00533085
0.00521826
0.00513501
0.00528843
0.00468264
0.00289592
0.00290211
0.00290066
0.003097
0.00314819
0.00320945
0.00322364
0.00325489
0.00326995
0.0032755
0.00327572
0.00325061
0.00323164
0.00315126
0.00312588
0.00311399
0.0017132
0.00187327
0.00194961
0.00196137
0.00198419
0.0019789
0.00195079
0.00193013
0.00190593
0.00188673
0.0018617
0.00181652
0.00170277
0.00155751
0.0017008
0.0029194
0.00289368
0.00473251
0.00550356
0.00547185
0.0056013
0.00554721
0.00526174
0.0053961
0.00522315
0.00521888
0.00463671
0.00286963
0.00291844
0.00169835
0.00170843
0.00197863
0.00194255
0.00208256
0.00213052
0.00213412
0.00215207
0.0021948
0.00222865
0.00231242
0.00231353
0.00228628
0.0022824
0.0021363
0.00183965
0.00185677
0.0021992
0.00232976
0.00214757
0.00210255
0.0021015
0.00203053
0.00199012
0.00194042
0.00197218
0.00212345
0.00211885
0.00206395
0.00194362
0.00187236
0.00163439
0.00158119
0.00288428
0.00334751
0.00540788
0.00531178
0.00486353
0.00515603
0.00573047
0.00674707
0.00568476
0.00508951
0.00582971
0.00652343
0.00481746
0.00447159
0.00261292
0.00214288
0.0028497
0.00186682
0.00217111
0.00197786
0.00175906
0.00190932
0.0017748
0.00161237
0.00160113
0.00159838
0.00164889
0.00166718
0.00170082
0.00170482
0.00176178
0.00175467
0.00174833
0.00176866
0.00178478
0.00197491
0.00215842
0.00181194
0.00153353
0.00148249
0.00140004
0.0013406
0.00137829
0.0013349
0.00132643
0.00129838
0.00127309
0.00120599
0.00125663
0.00133323
0.00155942
0.00148303
0.00119808
0.00107221
0.000732253
0.000750656
0.000755804
0.000784174
0.000793765
0.000806577
0.000810777
0.000826582
0.00082891
0.000833561
0.000833014
0.000860624
0.000856451
0.000843659
0.000837279
0.000839746
0.000841126
0.000839544
0.00122982
0.00137138
0.00151397
0.00179654
0.00210816
0.00181666
0.00154484
0.00132007
0.00084679
0.000858887
0.000876695
0.000885613
0.000904712
0.000921518
0.000939026
0.000949023
0.000955024
0.000960763
0.000967072
0.000966158
0.000960479
0.000937054
0.00092354
0.00094289
0.00103166
0.00108504
0.00114975
0.00117655
0.00118937
0.00120198
0.0011973
0.00121388
0.0012013
0.00120196
0.00118537
0.00118119
0.00117656
0.00117141
0.00116112
0.00113434
0.0011255
0.0011857
0.00203813
0.00268482
0.00309466
0.00342988
0.00323918
0.00272044
0.00276052
0.00492303
0.00476642
0.00269524
0.00258761
0.00248378
0.00231001
0.00208575
0.00182605
0.00216881
0.0024789
0.00273215
0.00295497
0.00310494
0.00327222
0.00347269
0.00385477
0.00391725
0.00357599
0.00292757
0.0025325
0.00242012
0.00235557
0.00221378
0.00205885
0.0020957
0.00210862
0.00204647
0.0019655
0.00193487
0.0019638
0.00197559
0.00194282
0.00193738
0.00172415
0.00172739
0.00293883
0.00304053
0.00466558
0.00490568
0.00494558
0.00319297
0.00315107
0.00185059
0.00171835
0.00187397
0.00194183
0.0019472
0.00195854
0.00194256
0.00191482
0.00188473
0.00184905
0.00181587
0.00177793
0.00173511
0.00165881
0.00152148
0.00167266
0.0018982
0.00198742
0.00201736
0.00204174
0.002085
0.00213577
0.0021799
0.00225033
0.00227148
0.0022626
0.00226693
0.00213753
0.00220178
0.00187244
0.0018707
0.00321894
0.00321745
0.00185966
0.00218364
0.00219506
0.00213977
0.00230711
0.00212856
0.00206931
0.00204775
0.00198503
0.00193962
0.00188156
0.00183699
0.00186435
0.00197739
0.00192163
0.00167765
0.00165691
0.0018672
0.00178265
0.00148777
0.00127613
0.00124311
0.00118875
0.00115646
0.00120827
0.00124609
0.00126681
0.00129397
0.00130165
0.00134107
0.00130954
0.00138078
0.00146335
0.00151654
0.0017945
0.00195678
0.00176962
0.00174386
0.0017215
0.00171107
0.00171361
0.00166427
0.00166029
0.00162635
0.00160992
0.00156576
0.00154485
0.00151358
0.00151967
0.00153051
0.00168343
0.00442067
0.00568332
0.00601831
0.010826
0.00392771
0.00415104
0.00889827
0.00312749
0.00508325
0.00564536
0.00571724
0.00593378
0.0055378
0.00743889
0.00473015
0.00530918
0.00584059
0.00552247
0.00178081
0.00165079
0.00138767
0.00116262
0.00107436
0.000733532
0.00108053
0.00120453
0.00128609
0.00133505
0.00136864
0.0014078
0.00144168
0.00146707
0.00147556
0.00144221
0.00140251
0.00130611
0.00127329
0.0013245
0.00137803
0.00122654
0.00115801
0.00117535
0.0012006
0.00121684
0.00122446
0.00124376
0.00125126
0.00127861
0.00126965
0.00128523
0.0012691
0.00128626
0.00126255
0.0012103
0.00114993
0.00103995
0.00100689
0.00144667
0.00154127
0.00161978
0.00182339
0.00210176
0.00224325
0.00201377
0.00185218
0.00178045
0.00198255
0.00195183
0.0033688
0.00628509
0.00298228
0.00335535
0.00903753
0.00373399
0.0030992
0.00314697
0.00317834
0.00317965
0.00185939
0.00219036
0.0021056
0.00209916
0.00177926
0.00149225
0.00135402
0.00121496
0.000822713
0.000818742
0.000824861
0.000834685
0.000837296
0.00081258
0.000812701
0.000809013
0.0008073
0.000792671
0.000788583
0.000776908
0.000770347
0.000752664
0.000743884
0.000724588
0.000719254
0.000689626
0.000683346
0.000679618
0.00100876
0.00110583
0.00119545
0.00142282
0.00382905
0.00426414
0.00582551
0.00580408
0.00977878
0.00572698
0.00430392
0.00391801
0.00587879
0.00591839
0.0058524
0.00886639
0.0057486
0.00365109
0.00328127
0.00356313
0.00551967
0.00543801
0.00506838
0.00486202
0.00456311
0.00189943
0.00176529
0.00200045
0.00220059
0.00260249
0.00193886
0.00242247
0.00213732
0.00165381
0.00157918
0.00518248
0.00691723
0.00430188
0.00432135
0.00658381
0.00324103
0.00316871
0.00288503
0.0024012
0.00219527
0.00212558
0.00234794
0.00280178
0.00724898
0.0070898
0.00360659
0.00490665
0.00475745
0.00648589
0.00705671
0.00795452
0.00745444
0.00705278
0.00473176
0.00291133
0.00332786
0.00366319
0.00400403
0.00534627
0.00557707
0.0121399
0.00391565
0.0044717
0.00447977
0.00606465
0.00560187
0.0103795
0.0041561
0.00456945
0.00597161
0.00736134
0.0145625
0.00498796
0.00544965
0.00776405
0.0077355
0.00711137
0.00529746
0.00497023
0.0055714
0.00413292
0.00402262
0.00343155
0.00525728
0.00767945
0.00546899
0.00531064
0.00478433
0.00360322
0.00433363
0.00423914
0.00340933
0.00337438
0.00422279
0.00272162
0.00237044
0.00310855
0.000836295
0.000447195
0.000456872
0.000466666
0.000474388
0.000482138
0.00048893
0.000495308
0.000499601
0.000498418
0.000499274
0.000519666
0.000518568
0.000502382
0.000457681
0.000522118
0.000828343
0.000829483
0.000521832
0.000461658
0.000822943
0.00130423
0.00151951
0.00180419
0.0018268
0.00156944
0.00137065
0.000850117
0.000837311
0.000510978
0.000594594
0.000645785
0.00057328
0.000637422
0.000590862
0.000627675
0.000625984
0.000589773
0.000588144
0.000592834
0.000587769
0.000579376
0.000567843
0.000553839
0.000541645
0.000531028
0.000516213
0.000486701
0.000430768
0.00039058
0.000426919
0.000446387
0.000503233
0.000536642
0.000569178
0.000590598
0.000605282
0.000614474
0.000615019
0.000624807
0.000645358
0.000649372
0.00065246
0.000688195
0.000679159
0.000724222
0.000676539
0.000722282
0.00068155
0.000626886
0.000528311
0.000543224
0.000869406
0.000876408
0.00140914
0.00161108
0.0018388
0.00185439
0.00208891
0.00220353
0.00187002
0.00193823
0.00221996
0.00206913
0.00184009
0.00183902
0.00165043
0.00164081
0.00144696
0.000905462
0.000894253
0.000566557
0.00055202
0.000657161
0.000645564
0.000718472
0.000765884
0.000770262
0.000767739
0.000734442
0.000727767
0.000654992
0.000645078
0.000646215
0.000624852
0.0006147
0.000614284
0.000597299
0.000588118
0.000598672
0.00056671
0.000532907
0.000506784
0.000480525
0.000409789
0.000366486
0.000676509
0.000671147
0.000739005
0.00300831
0.000813501
0.00105448
0.000920347
0.000433824
0.000656907
0.000805195
0.00086149
0.000868893
0.000824386
0.000732781
0.000649807
0.000514688
0.000420515
0.000731862
0.000649147
0.000897705
0.000802377
0.00104174
0.0012143
0.00118051
0.00119529
0.00101552
0.000835381
0.00088398
0.000803824
0.000889644
0.000741148
0.000890059
0.000806497
0.00101579
0.00102635
0.0010062
0.000955243
0.000728614
0.00076516
0.000641426
0.000693713
0.000621435
0.000643074
0.000611842
0.000712946
0.000821844
0.000788989
0.000786103
0.000645787
0.000506143
0.000557
0.000475983
0.000539004
0.00042371
0.000516043
0.000436246
0.000562622
0.000575189
0.000565984
0.000536052
0.000400016
0.000466573
0.000624658
0.000679241
0.000693488
0.000669894
0.000513659
0.000801485
0.000740594
0.000904095
0.00079506
0.000854823
0.000780424
0.000901297
0.00114809
0.00119167
0.0011976
0.000968177
0.00096617
0.00174457
0.0954155
0.00156808
0.00185343
0.00190861
0.00189926
0.00157266
0.00154837
0.00190091
0.00142574
0.00199915
0.00125227
0.00210742
0.000808151
0.00123038
0.00132053
0.00131675
0.00122368
0.000791525
0.00220988
0.138372
0.318776
0.334339
0.333106