/*--------------------------------*- C++ -*----------------------------------*\
| =========                 |                                                 |
| \\      /  F ield         | OpenFOAM: The Open Source CFD Toolbox           |
|  \\    /   O peration     | Version:  v2012                                 |
|   \\  /    A nd           | Website:  www.openfoam.com                      |
|    \\/     M anipulation  |                                                 |
\*---------------------------------------------------------------------------*/
FoamFile
{
    version     2.0;
    format      ascii;
    class       volScalarField;
    location    "30";
    object      epsilon;
}
// * * * * * * * * * * * * * * * * * * * * * * * * * * * * * * * * * * * * * //

dimensions      [0 2 -3 0 0 0 0];


internalField   nonuniform List<scalar> 
18258
(
0.0391062
0.0200258
0.0182162
0.0146408
0.0247788
0.0217765
0.019321
0.0251877
0.0340764
0.0480018
0.0643852
0.0540277
0.0468237
0.0466748
0.0477515
0.0448925
0.0333762
0.0298271
0.040463
0.0687824
0.064516
0.0530192
0.0703272
0.0582178
0.0615371
0.0736095
0.0550378
0.0521839
0.0483824
0.0464795
0.0391661
0.0209296
0.0380263
0.0619771
0.0763001
0.0826042
0.0873354
0.0902692
0.0934761
0.0964012
0.0971301
0.0938456
0.0843491
0.0706717
0.0526304
0.0422853
0.0495457
0.0556166
0.0352611
0.0228991
0.0364275
0.0634284
0.0900764
0.0708128
0.0481998
0.0749404
0.101193
0.130331
0.155221
0.176571
0.184355
0.181901
0.172003
0.157436
0.138533
0.116204
0.0973022
0.0817982
0.0649839
0.0555232
0.0445425
0.0363311
0.0304004
0.0264228
0.0240106
0.0224732
0.0214534
0.0223041
0.0221591
0.0159004
0.0124835
0.0116739
0.00824735
0.00682438
0.00704615
0.00660316
0.00664756
0.0057826
0.00503078
0.00452497
0.00398517
0.00620035
0.00689593
0.00726705
0.00723992
0.00762409
0.00668798
0.00636035
0.0140139
0.0171363
0.0186573
0.0192324
0.0200899
0.0251173
0.0241852
0.0236034
0.0219728
0.0175173
0.00843222
0.00992987
0.0128654
0.0129672
0.0115643
0.0110131
0.00894265
0.00825899
0.00816172
0.00866925
0.00877628
0.0108154
0.0108312
0.0103239
0.011238
0.012214
0.0118601
0.0114026
0.0106668
0.0130777
0.00978943
0.0104039
0.0117504
0.0189287
0.0185153
0.0237896
0.0233221
0.0234494
0.0234575
0.0279965
0.0281236
0.0294959
0.0300938
0.0389247
0.0569517
0.0469773
0.0441052
0.0436528
0.0383807
0.0384244
0.0381601
0.0390404
0.0313211
0.0299876
0.0274863
0.02743
0.0309575
0.039286
0.056425
0.0826742
0.114344
0.146932
0.172423
0.188846
0.20511
0.211551
0.22001
0.222075
0.221763
0.217686
0.21279
0.206353
0.196083
0.179708
0.169796
0.134442
0.0960611
0.0537534
0.0712136
0.0817785
0.0911254
0.0938862
0.0961866
0.0943836
0.0911612
0.0833568
0.0719367
0.0579541
0.0365176
0.0480342
0.0542237
0.0586991
0.0493348
0.0506169
0.0498008
0.051767
0.0736966
0.0799166
0.0648762
0.0858434
0.103432
0.0930876
0.0697241
0.103919
0.140635
0.076602
0.0601206
0.0375286
0.033568
0.0267409
0.0381129
0.0706973
0.0908341
0.113185
0.125169
0.142705
0.153533
0.163656
0.174403
0.15108
0.138168
0.0945547
0.15906
0.106774
0.0472006
0.0281383
0.0582748
0.111052
0.143768
0.125579
0.0984484
0.0693518
0.0434349
0.031553
0.051297
0.0686502
0.0806576
0.0621759
0.0776785
0.0897372
0.0983701
0.101564
0.135377
0.10071
0.103635
0.0692238
0.0919944
0.0549249
0.037098
0.0503185
0.0845242
0.123845
0.165987
0.200104
0.101071
0.0449336
0.0275213
0.0555419
0.0491363
0.0272933
0.0400021
0.0834544
0.0638349
0.0354622
0.0261214
0.0419298
0.0387068
0.0244098
0.0310274
0.0487025
0.0411479
0.0518201
0.0651203
0.0971395
0.106426
0.131182
0.131556
0.112742
0.112609
0.0713443
0.0729178
0.100809
0.0755132
0.0591839
0.0883991
0.131782
0.183231
0.227105
0.265112
0.289036
0.292082
0.273346
0.179155
0.0794378
0.0233652
0.0186234
0.0176377
0.0181141
0.0109875
0.00631045
0.00563773
0.00641961
0.00713505
0.00627394
0.00579049
0.00569553
0.00569247
0.0102766
0.0088703
0.010881
0.0131031
0.0155678
0.0185076
0.019126
0.0126604
0.00855689
0.0080199
0.0079378
0.00784513
0.00778754
0.00776354
0.00776404
0.00774319
0.00768424
0.00759243
0.00745662
0.00733123
0.00728593
0.00790494
0.0106914
0.0148404
0.0145606
0.013328
0.0120336
0.0109496
0.0087049
0.0148921
0.0126727
0.0106956
0.0129658
0.0159067
0.0200482
0.0235019
0.0169254
0.0135563
0.0122619
0.0121225
0.0119864
0.0119941
0.0118341
0.0118359
0.0115586
0.011995
0.0133194
0.0169124
0.0190846
0.0214832
0.0231718
0.0239719
0.0248184
0.0220162
0.0235889
0.0225982
0.0235496
0.0235624
0.0228042
0.0206081
0.0184965
0.0170492
0.0183695
0.0227334
0.0309123
0.0255931
0.0199434
0.0162335
0.0134204
0.0147159
0.0162536
0.0164005
0.0154585
0.0150544
0.0147778
0.013286
0.012403
0.0102243
0.00973236
0.0095067
0.00988656
0.0143812
0.0131521
0.0129222
0.0132886
0.0144245
0.0137823
0.0140815
0.0133071
0.0136934
0.0142377
0.016295
0.0176265
0.0167801
0.0155189
0.0151914
0.0130731
0.0152608
0.0150483
0.0163536
0.0178901
0.0184587
0.0184292
0.0178254
0.0163572
0.0180718
0.0212348
0.0247005
0.0237446
0.0235091
0.0197481
0.0187056
0.0198577
0.0213513
0.0223969
0.0223186
0.0216241
0.0213285
0.0251027
0.0240304
0.0231919
0.0212542
0.0189092
0.0161218
0.0142945
0.015797
0.0171626
0.0184121
0.0195519
0.019633
0.018093
0.016826
0.0156885
0.0142035
0.0139998
0.015454
0.016648
0.0180987
0.0199825
0.0202877
0.0183736
0.0167968
0.0154809
0.0139898
0.0139844
0.0155105
0.0168572
0.0183543
0.0199813
0.0192415
0.0180205
0.016728
0.0154507
0.0139768
0.014044
0.0153748
0.0164605
0.0175545
0.0185135
0.0192278
0.0173173
0.0164178
0.0164662
0.0154702
0.0184866
0.0177806
0.018697
0.0173063
0.0161548
0.0171418
0.0202301
0.023156
0.0237074
0.0234366
0.019486
0.0199165
0.0198601
0.0184631
0.0153391
0.0147524
0.01721
0.0195505
0.020061
0.0190469
0.0163785
0.0126307
0.0135264
0.0164313
0.0186653
0.0174722
0.0174749
0.0162199
0.0150086
0.0151539
0.0126074
0.0151839
0.0238503
0.0210348
0.0191511
0.0168745
0.0135639
0.00931372
0.00988877
0.0107169
0.0108693
0.00877387
0.00662273
0.00593453
0.00570784
0.00542485
0.00490479
0.00432514
0.0170134
0.029324
0.0361004
0.0397415
0.040697
0.0380858
0.0295686
0.030008
0.034919
0.042895
0.0357038
0.0278544
0.0213644
0.0211028
0.0273936
0.0335694
0.0428137
0.0333515
0.0288806
0.0200205
0.0180153
0.0245666
0.0288849
0.0306203
0.0270723
0.0185198
0.00948453
0.00581459
0.00651308
0.00683442
0.00709244
0.00743141
0.00851533
0.0132316
0.0172138
0.0149136
0.014272
0.0130932
0.016098
0.018346
0.0202428
0.0231815
0.0146464
0.0105706
0.0150084
0.0242156
0.0215763
0.0200113
0.0146658
0.0153283
0.0152032
0.00964244
0.00950956
0.00952074
0.0102602
0.0115433
0.0132847
0.0143913
0.0151259
0.0154687
0.0163219
0.0214213
0.0198812
0.0190685
0.0152945
0.011141
0.0140746
0.0475836
0.0179527
0.0187546
0.0178887
0.018529
0.0199617
0.0152921
0.0136256
0.0124618
0.0129427
0.0196106
0.0202724
0.0203147
0.0174145
0.0166002
0.0195999
0.0205203
0.0205769
0.0201149
0.0198738
0.0182683
0.015895
0.0172575
0.018712
0.0195958
0.0213249
0.0214682
0.0164113
0.015905
0.0148152
0.00973905
0.0102719
0.00885614
0.00872591
0.00859702
0.0082296
0.00783991
0.00821934
0.00841231
0.00851886
0.00834128
0.00859538
0.00785362
0.00822523
0.00927131
0.0145753
0.014202
0.0169864
0.0189324
0.0162761
0.0151683
0.0138634
0.012904
0.0149982
0.0138369
0.0163164
0.0204424
0.0254452
0.0182849
0.0173041
0.0170582
0.0166397
0.0164647
0.0164771
0.015858
0.014959
0.0144614
0.0226986
0.0205754
0.0175901
0.0166982
0.0153239
0.0174434
0.016923
0.0205853
0.0257458
0.0259111
0.0207266
0.0207691
0.0183124
0.0193461
0.0213511
0.0258629
0.0258229
0.0137856
0.00911899
0.0147809
0.0151494
0.0177974
0.0164886
0.017937
0.0191077
0.0197109
0.0194763
0.0169599
0.0180343
0.0188057
0.0197524
0.0178339
0.0158346
0.0165401
0.0153793
0.0145248
0.0141256
0.0121397
0.0122377
0.0131058
0.0144837
0.0155183
0.0168474
0.0183379
0.0183072
0.0188193
0.0185059
0.0177552
0.0230404
0.0221866
0.0236813
0.025725
0.0207285
0.0168704
0.0140442
0.0142679
0.014024
0.0139219
0.0147839
0.0161307
0.0145533
0.0139532
0.0161253
0.0182039
0.0230855
0.0304492
0.0261811
0.0243323
0.0315121
0.0301509
0.0359358
0.0269881
0.0267302
0.0197276
0.0249918
0.029585
0.0370084
0.0240579
0.019873
0.0213825
0.0248986
0.0333782
0.0311581
0.0311526
0.0390722
0.0377306
0.0347696
0.0297809
0.0330452
0.0200088
0.0286878
0.0304366
0.0257675
0.0242118
0.0288774
0.0289825
0.0308927
0.0270025
0.0250512
0.0168388
0.0252221
0.0291164
0.0302885
0.0255368
0.0197393
0.0261611
0.0193946
0.0179533
0.0191072
0.0130024
0.0121008
0.0141089
0.0132937
0.0107457
0.0115788
0.0106174
0.0105726
0.0106031
0.0106432
0.0106717
0.0107761
0.01054
0.01094
0.0126476
0.0116967
0.0119304
0.0129196
0.0135918
0.0171568
0.0193171
0.021733
0.0234436
0.0242658
0.0251378
0.0221674
0.0240172
0.0230325
0.0244853
0.0246234
0.023753
0.0214101
0.0193218
0.0179397
0.0193539
0.0239762
0.0327309
0.0271487
0.0212219
0.0174085
0.0146851
0.0161997
0.021206
0.0114361
0.0111629
0.0112673
0.0115493
0.0124029
0.0122282
0.00955343
0.00708664
0.00636302
0.00615388
0.00589577
0.00540473
0.0047039
0.0128989
0.0303781
0.0388039
0.0433549
0.044647
0.041448
0.0281965
0.0239842
0.0205225
0.0171591
0.0152691
0.0168907
0.0242253
0.031945
0.039611
0.0460461
0.0502578
0.0478047
0.0324354
0.0286833
0.0417866
0.0724008
0.0653987
0.0888551
0.107348
0.0597255
0.0452401
0.0450899
0.0597471
0.0634285
0.0562849
0.046215
0.0354338
0.024848
0.0281479
0.0314522
0.0347535
0.0382676
0.0552746
0.0590089
0.057104
0.051484
0.0420628
0.0281919
0.00620046
0.00534244
0.00608294
0.00663948
0.00711868
0.00826019
0.0123811
0.0115264
0.0113959
0.0118094
0.0108163
0.0123901
0.0124218
0.0132389
0.0145953
0.0151452
0.0143875
0.0119293
0.0132024
0.0139536
0.0141977
0.0162411
0.0181765
0.0137811
0.00898307
0.00793511
0.00763036
0.00739143
0.00708177
0.00638456
0.0082266
0.0180822
0.0287339
0.0334876
0.0322635
0.027258
0.0175391
0.0158563
0.01377
0.0126292
0.0128116
0.0146514
0.0118353
0.00543618
0.00544354
0.00603295
0.00565857
0.00507967
0.00613976
0.00685066
0.00746937
0.00788331
0.00819228
0.00826094
0.00821352
0.008142
0.00812285
0.00813054
0.00812811
0.00808276
0.00799844
0.00785916
0.00772219
0.00766208
0.00829168
0.011138
0.0153688
0.0150231
0.0138052
0.0126182
0.0116849
0.00997054
0.0162012
0.013565
0.0113884
0.0104631
0.0103618
0.0106806
0.0118666
0.0133802
0.0141119
0.0159966
0.0162977
0.0165543
0.01711
0.0168573
0.0153749
0.0173413
0.0189024
0.0196544
0.0198718
0.0192723
0.0174178
0.019685
0.021183
0.0211512
0.020648
0.0191043
0.0224481
0.0248114
0.0250981
0.0245725
0.0214829
0.0182045
0.0216539
0.0231416
0.0236738
0.024909
0.0250302
0.0260737
0.0270331
0.0189872
0.0234184
0.0209581
0.0144285
0.0122216
0.0116165
0.0114072
0.0116198
0.0136572
0.014336
0.0146314
0.0141849
0.0129581
0.0146628
0.0133989
0.0138264
0.0110643
0.010474
0.0113866
0.0133215
0.0153368
0.0256006
0.0287231
0.0246418
0.0302533
0.027551
0.020266
0.0247136
0.0264688
0.0288296
0.0295504
0.0292228
0.0255573
0.0281113
0.0287844
0.0245243
0.0232924
0.0416917
0.027597
0.018686
0.0182994
0.0181811
0.0179221
0.0200595
0.0147006
0.0157331
0.010327
0.00885455
0.00845666
0.00822035
0.00801885
0.00779347
0.00762617
0.0104978
0.0169793
0.0227576
0.0233771
0.0179319
0.00996304
0.0103409
0.0101577
0.0102304
0.0107428
0.00660252
0.00538947
0.00690156
0.00668276
0.00728348
0.00769769
0.00802253
0.00825554
0.00837159
0.00841848
0.00846826
0.0085597
0.00866535
0.00875246
0.00880885
0.00883048
0.00884778
0.00891458
0.0091695
0.0103315
0.0154432
0.0204065
0.0195188
0.0180142
0.0165926
0.0174605
0.0183279
0.0190069
0.023411
0.018814
0.0223154
0.0211977
0.0203131
0.0189348
0.0189829
0.0209815
0.0163382
0.0159458
0.0105965
0.00931538
0.00905124
0.00894457
0.00888323
0.00881945
0.00873469
0.00864389
0.00854505
0.00845401
0.00838883
0.00834848
0.00826891
0.00807247
0.00773268
0.00740844
0.00563659
0.00678421
0.0078956
0.00900038
0.00980858
0.00952984
0.0088117
0.00843229
0.00844618
0.008536
0.00862841
0.00872087
0.00883185
0.00900048
0.00931693
0.0101425
0.0108625
0.0153031
0.0159023
0.0198366
0.0197483
0.0174427
0.0167331
0.0185565
0.0167972
0.0124109
0.0178356
0.0175537
0.0222024
0.0161356
0.01484
0.0146743
0.014991
0.018032
0.0171825
0.0161174
0.0154631
0.0130818
0.0150491
0.0165844
0.0178217
0.0286236
0.0283905
0.0356486
0.0337707
0.0625794
0.0603743
0.0537532
0.0562691
0.0238165
0.0498209
0.0581467
0.0534975
0.0468293
0.0295806
0.0488377
0.071854
0.110769
0.0816676
0.066596
0.120187
0.0805703
0.0398435
0.0272943
0.0153256
0.0152809
0.0262899
0.0307233
0.0257339
0.0247412
0.0358371
0.0371878
0.0300548
0.0307082
0.0330027
0.0317572
0.0346244
0.0300278
0.028868
0.0160925
0.0131342
0.0141288
0.0158065
0.0167003
0.0160237
0.0168436
0.0176257
0.0163122
0.0153857
0.0149093
0.0128473
0.0136919
0.0167709
0.0211315
0.024764
0.0178163
0.0142499
0.0128788
0.0127143
0.0125416
0.0125076
0.0122884
0.0122398
0.0119179
0.0123582
0.0113338
0.0108779
0.0111779
0.0111408
0.0111723
0.0111706
0.0111609
0.0112124
0.0122177
0.0192799
0.026791
0.0214403
0.0170206
0.0144949
0.0156825
0.0176149
0.0215654
0.0270938
0.0182531
0.0180064
0.0116484
0.010756
0.0106178
0.0106146
0.0106392
0.0107385
0.0109998
0.011228
0.013341
0.0121903
0.0119845
0.0132353
0.0110286
0.0106847
0.0103227
0.0101373
0.0100614
0.0100357
0.0101603
0.0110159
0.0108145
0.00989417
0.0097753
0.0098608
0.0100474
0.0103764
0.0108971
0.0115546
0.0125174
0.0119028
0.0117857
0.0122002
0.0114126
0.0109706
0.0106363
0.010464
0.0103668
0.0103343
0.0104816
0.0114504
0.0173994
0.017579
0.0271923
0.0272606
0.0217171
0.0182076
0.01603
0.014781
0.0140507
0.0406512
0.0348924
0.0556348
0.0440544
0.0352557
0.0592698
0.0846408
0.0650336
0.105785
0.114973
0.0841534
0.0762024
0.0234046
0.0173009
0.0159969
0.0174701
0.0191568
0.021787
0.0224123
0.0272397
0.0293981
0.0174291
0.0167591
0.0157733
0.0255394
0.0237555
0.0202497
0.0183717
0.0170138
0.0197077
0.0214641
0.0152817
0.0152259
0.00978206
0.0106697
0.0104957
0.0101459
0.010078
0.010146
0.0102424
0.0103706
0.0105766
0.010986
0.0113
0.0114048
0.0122245
0.0123294
0.011801
0.0109948
0.0104659
0.0100535
0.00978294
0.00960303
0.00960511
0.00991528
0.0100775
0.00885164
0.00919879
0.00936928
0.00953728
0.00977824
0.0100287
0.0102977
0.0105532
0.0108986
0.0109359
0.0108101
0.00952028
0.00943681
0.00957283
0.00964334
0.00977944
0.00991315
0.00992322
0.00986469
0.00981825
0.00970341
0.00936334
0.00869241
0.00853132
0.00907767
0.00940273
0.00954871
0.00956537
0.00949872
0.00926605
0.00884357
0.00840609
0.00801686
0.00768237
0.00758146
0.00905815
0.00939171
0.00962437
0.00967343
0.00974803
0.00972777
0.00963678
0.00944678
0.00923525
0.00898046
0.00861133
0.00807513
0.00805469
0.00852889
0.00889144
0.00915027
0.00932922
0.00942296
0.00928276
0.00901504
0.00860384
0.00822085
0.00775803
0.00724256
0.00577763
0.00607913
0.00650432
0.00707173
0.00779564
0.00852278
0.00899828
0.00919983
0.00929278
0.00920486
0.00893511
0.00849063
0.00845937
0.00881369
0.00902223
0.00905371
0.00891265
0.00853321
0.00773532
0.00662704
0.00566341
0.00497106
0.00459573
0.00420787
0.00555132
0.00620132
0.00674477
0.00732368
0.00808424
0.0087212
0.00916885
0.00923826
0.0090726
0.00882747
0.00848278
0.00805775
0.00804637
0.00843617
0.008771
0.00897081
0.00900133
0.0087659
0.00802491
0.0071385
0.00630213
0.00571686
0.00521906
0.00462498
0.0043409
0.00463611
0.00467877
0.00493825
0.00572075
0.00692615
0.00796997
0.00850174
0.00880259
0.0088461
0.00868169
0.00840003
0.00831919
0.0085578
0.00871578
0.00869658
0.00854313
0.00806623
0.00716748
0.00600222
0.00486848
0.00477305
0.00468759
0.00433324
0.00421394
0.00466705
0.0048924
0.00553013
0.00672563
0.00776625
0.00858723
0.00892886
0.00892819
0.00872714
0.00839183
0.00801997
0.00798847
0.00837247
0.00873867
0.00892472
0.00888045
0.00854474
0.00768014
0.00665844
0.00555682
0.00539742
0.00534998
0.00494495
0.00490525
0.00538848
0.00573712
0.00573503
0.00696445
0.00790193
0.00854118
0.00878495
0.00879755
0.00871254
0.00848394
0.00823597
0.00816429
0.00849737
0.00886754
0.00917104
0.00934217
0.00928756
0.00910319
0.00843645
0.00688747
0.006493
0.00568326
0.0049358
0.00505787
0.00571899
0.00602925
0.00628836
0.0074781
0.00824072
0.00878715
0.00905318
0.00904843
0.00883693
0.00840911
0.00795707
0.0079058
0.00874009
0.00969524
0.00971235
0.00960135
0.00922158
0.00850388
0.00758452
0.00675371
0.00694845
0.00696728
0.00641174
0.00619481
0.0068496
0.00734703
0.00744936
0.00882266
0.00941625
0.00979914
0.0099405
0.00987734
0.00974853
0.00879105
0.00807944
0.00789642
0.0089912
0.0145538
0.0143405
0.0141919
0.0139586
0.0133897
0.0131459
0.0125823
0.012221
0.011605
0.0110559
0.0105551
0.0119356
0.0149463
0.0165566
0.017935
0.0197888
0.0179252
0.0144022
0.0124663
0.00868555
0.00681917
0.00583128
0.00531964
0.00490516
0.00488241
0.0074986
0.0091772
0.0110902
0.0128601
0.0135378
0.0159267
0.0199602
0.0305781
0.0485184
0.0408275
0.0385766
0.0378566
0.0768674
2.47134
2.4092
2.36214
2.76422
3.34039
0.286108
0.153097
0.29173
0.307846
0.348703
0.321066
0.289992
0.267209
0.272064
0.262848
0.262968
0.246328
0.250782
0.225112
0.249773
0.615537
1.07187
1.32183
1.5324
2.0916
2.00994
2.255
2.14041
2.12659
1.94908
2.07016
1.80351
1.50066
1.43166
1.36337
1.47031
1.60334
1.38595
1.25523
1.11739
1.01453
0.881376
1.11588
0.8474
0.803147
0.804572
0.845166
1.13503
1.06832
1.20993
1.10864
1.03561
0.625976
0.722738
0.513729
0.428241
0.354258
0.430114
0.583236
0.808112
1.05717
0.815605
1.15625
1.09029
1.09775
1.01217
0.869418
0.821318
0.801108
0.821488
0.835428
0.853533
0.890518
0.921335
0.952315
1.12787
1.21556
1.22071
1.01017
0.894589
0.623329
0.670513
0.706318
0.703054
0.645152
0.629393
0.584483
0.567415
0.523815
0.498015
0.459576
0.432689
0.396293
0.54222
0.912988
0.948071
1.0328
1.08392
1.14793
1.17007
1.19921
1.18141
1.14879
1.06151
1.01955
0.943996
1.07437
1.27202
1.25205
1.1391
0.963315
0.903069
4.33495
5.26539
3.49918
7.60865
11.7761
19.9597
8.31936
2.16041
3.64106
2.51012
2.22329
2.17035
2.30187
3.63249
2.79735
3.64464
3.49848
3.53842
2.88577
2.93434
2.64202
2.00956
1.68669
1.4554
1.34428
0.930729
0.864135
0.725723
0.660185
0.651557
0.572125
0.829299
1.44462
2.36131
2.85133
3.46581
5.40895
5.80796
6.35131
9.63778
7.58479
9.16327
5.41031
5.55021
4.10728
3.86462
3.92658
5.4266
7.98886
5.45847
9.60178
5.28638
16.7347
37.7811
9.34063
19.8019
11.3921
10.2475
9.83804
10.1199
14.4959
10.145
16.5894
15.5492
20.8875
21.4488
20.6365
15.5086
11.7231
12.7221
13.3754
16.978
11.3191
12.1647
9.42744
9.08324
8.89088
7.41826
6.57114
5.61633
6.65898
7.66382
8.94357
14.9368
17.7486
20.1374
23.9615
17.3091
19.4707
11.6971
13.0452
10.0166
9.45532
9.67206
12.8052
22.6198
15.8998
29.8644
0.52255
0.230812
0.572839
0.236176
0.495554
0.398992
0.411793
0.41278
0.409783
0.476882
0.227718
0.189524
0.18081
0.178442
0.179961
0.101931
0.126648
0.0815625
0.128286
0.234339
0.525627
0.375476
0.142674
0.083432
0.055301
0.0435477
0.0644817
0.0623284
0.0997298
0.101246
0.108179
0.136541
0.241065
0.4677
34.8282
7.62971
1.30349
0.630511
0.304808
0.184287
0.169938
0.195269
0.213673
0.221578
0.21439
0.190439
0.145284
0.107364
0.0760008
0.0667515
0.0479741
0.0319758
0.0239797
0.0385063
0.0363835
0.0533047
0.07289
0.0963706
0.120156
0.139054
0.153347
0.161137
0.153269
0.122793
0.0803251
0.0445319
0.0275543
0.0244141
0.0228026
0.0211945
0.0186165
0.0171509
0.0154097
0.0129957
0.0112918
0.0100373
0.00932424
0.00925043
0.00976999
0.0123167
0.014736
0.0189272
0.0178157
0.0133271
0.0129919
0.00801352
0.00740252
0.00753012
0.0077565
0.00896696
0.0144099
0.0147788
0.0146963
0.014851
0.0146698
0.0146581
0.0144233
0.0140314
0.0137096
0.0128846
0.0124524
0.0113888
0.0110291
0.0100142
0.0100043
0.0103611
0.0106552
0.00990995
0.00994374
0.00924808
0.0102194
0.0235746
0.0591687
0.0717732
0.0846655
0.0772284
0.0358015
0.0156896
0.00670838
0.0072514
0.0076103
0.00758364
0.00661605
0.00630338
0.00740445
0.00795997
0.0108675
0.01098
0.010975
0.0127361
0.013147
0.013885
0.0142004
0.0146435
0.0148548
0.014971
0.0151313
0.0149325
0.0150664
0.0147797
0.0148507
0.0144513
0.0254947
0.0241391
0.0250532
0.0250237
0.0259094
0.0256733
0.0245571
0.0237445
0.0227492
0.0217893
0.0207015
0.0195258
0.0173298
0.0182586
0.0172137
0.0110913
0.0102571
0.00742293
0.00815827
0.00754011
0.00808911
0.00835344
0.00705183
0.00722674
0.00655282
0.00687967
0.00683725
0.00965631
0.0102526
0.0154054
0.0161054
0.0138736
0.0151879
0.0163096
0.0173361
0.0183404
0.0193433
0.0206805
0.0216644
0.0242716
0.0241915
0.0228469
0.0226265
0.0211662
0.022739
0.0216243
0.020306
0.0224166
0.0234565
0.0255284
0.0257625
0.023025
0.0217451
0.020041
0.0181229
0.0157178
0.0144154
0.0131636
0.0127684
0.0114967
0.0136909
0.0124064
0.00980655
0.0153044
0.0109776
0.00758638
0.00566737
0.006755
0.00953091
0.0225911
0.0135712
0.00973691
0.0145657
0.0219767
0.0448084
0.0364399
0.0560745
0.030949
0.0409496
0.0114527
0.0158717
0.0118782
0.0139073
0.0153053
0.0188609
0.0212593
0.0229674
0.0237535
0.025456
0.0258879
0.0273562
0.0277638
0.0310986
0.0311793
0.0306375
0.0301584
0.0283037
0.0255648
0.0239305
0.0293597
0.0338229
0.0360338
0.0382666
0.0412138
0.0404497
0.0360838
0.0352484
0.0331832
0.0319098
0.0299598
0.027181
0.0237567
0.0194717
0.0185732
0.0237707
0.0289094
0.0430594
0.0472379
0.0469959
0.0500208
0.0506706
0.0527046
0.0531573
0.0561161
0.0565973
0.0577681
0.058034
0.0645285
0.0650937
0.0653595
0.0656547
0.0650062
0.0653294
0.0651246
0.04431
0.0398987
0.0373621
0.030935
0.025686
0.0326956
0.041143
0.0449137
0.0681262
0.0684045
0.0723594
0.0749939
0.0796697
0.0830104
0.0871037
0.0906672
0.0938196
0.0958214
0.0965942
0.0954285
0.094852
0.0925586
0.0906662
0.0968179
0.124082
0.13752
0.160909
0.173527
0.179473
0.18338
0.176875
0.181742
0.175939
0.179201
0.175838
0.176246
0.173496
0.17048
0.168704
0.165847
0.163188
0.188793
0.149299
0.116974
0.0780011
0.0638549
0.0608108
0.0631599
0.0597446
0.0483834
0.0441736
0.0581553
0.058268
0.0525457
0.0426887
0.0308398
0.0199957
0.0334995
0.0517794
0.0706356
0.0884556
0.100594
0.103997
0.102573
0.0996863
0.0934319
0.0790075
0.0614014
0.0450636
0.0398101
0.0375574
0.0330042
0.0261123
0.0205486
0.0180504
0.0162419
0.0141451
0.0125484
0.011867
0.0115274
0.0116955
0.0139244
0.0180102
0.0181223
0.0119908
0.0120726
0.00824481
0.00828757
0.00852255
0.0143569
0.014538
0.0229155
0.0255784
0.0240657
0.0246804
0.0244381
0.0248842
0.0242597
0.0231911
0.0220886
0.0208087
0.0195851
0.0182595
0.017187
0.0160959
0.0170423
0.0164482
0.0143778
0.0146137
0.0154406
0.0164562
0.0176943
0.0190103
0.0202358
0.022345
0.0228707
0.022104
0.0220995
0.0210974
0.0202507
0.0219242
0.0214386
0.0142917
0.0141996
0.0211077
0.0203757
0.020157
0.0232765
0.021733
0.0228292
0.0243193
0.0238243
0.02147
0.0200125
0.0184295
0.0169166
0.015195
0.0134378
0.0131768
0.0154393
0.014625
0.0121759
0.0132202
0.0161664
0.0193345
0.0211054
0.0233065
0.0263996
0.0272412
0.0293789
0.0306806
0.0326954
0.0334967
0.0372737
0.0383907
0.0366424
0.0345902
0.0326562
0.0285021
0.0248777
0.027523
0.0288479
0.029215
0.0288895
0.0286115
0.0258109
0.025371
0.023841
0.0233499
0.0217947
0.0212138
0.0197837
0.0189806
0.0176628
0.0156703
0.0128519
0.0122157
0.0123546
0.0179574
0.0106114
0.0103722
0.0163049
0.00929992
0.0112303
0.0113561
0.0116656
0.0116972
0.010205
0.0150564
0.009981
0.0105977
0.0107377
0.0126387
0.0108289
0.0121319
0.0145101
0.0173993
0.0239969
0.0438734
0.134132
0.18281
0.222388
0.248873
0.267931
0.291217
0.312936
0.330174
0.337129
0.321022
0.309436
0.256132
0.232174
0.257511
0.289936
0.208111
0.180015
0.184204
0.187893
0.193291
0.197251
0.204993
0.204737
0.214792
0.210299
0.222037
0.217786
0.228916
0.216119
0.192883
0.17285
0.130895
0.115456
0.0739107
0.0573211
0.0449018
0.0318131
0.0230575
0.0207043
0.0196844
0.018042
0.0182116
0.0141143
0.0139072
0.00867841
0.00600659
0.010275
0.0105021
0.00714698
0.0106187
0.0121723
0.0127418
0.0133036
0.0135794
0.0211585
0.0208589
0.0260403
0.0253831
0.0300445
0.0357054
0.0382868
0.0426217
0.0610154
0.0612798
0.0609944
0.0601813
0.0594474
0.0540492
0.053784
0.0527579
0.0521326
0.049367
0.0488833
0.0469902
0.0460652
0.0431792
0.0426221
0.0413371
0.0415146
0.0358868
0.0347808
0.0342796
0.0243397
0.0207515
0.0182555
0.0152951
0.0159686
0.0137212
0.0130653
0.012434
0.0171556
0.0124102
0.013086
0.0143509
0.0140621
0.013455
0.0159319
0.021138
0.0172102
0.0174328
0.0276073
0.0214972
0.0167178
0.0221919
0.0279021
0.0742101
0.11288
0.0748165
0.0968503
0.139426
0.115346
0.0956698
0.0395063
0.0388827
0.0189408
0.0146488
0.0127078
0.011246
0.014863
0.018866
0.0256152
0.0819132
0.0662606
0.0872684
0.129958
0.150053
0.184479
0.167244
0.139813
0.119304
0.136832
0.16477
0.0533499
0.0530613
0.0421063
0.0515769
0.128677
0.181364
0.175285
0.213467
0.144982
0.0322877
0.0197173
0.0158874
0.0143377
0.0133077
0.0125347
0.0203164
0.0116724
0.0116346
0.0128567
0.0136396
0.0164588
0.0290859
0.0137049
0.0154922
0.0184225
0.0162806
0.0153547
0.0152421
0.0153478
0.0157148
0.0173103
0.0218911
0.0210644
0.0198018
0.0154201
0.0164907
0.014855
0.0172979
0.0176349
0.0304978
0.0138767
0.0146552
0.0186838
0.356193
0.0216568
0.017125
0.0207961
0.0191712
0.0248811
0.0492704
0.350149
0.0306072
0.0368968
0.0682842
0.0707993
0.0752136
0.0784932
0.0814122
0.0840397
0.0873282
0.0905208
0.0910052
0.0921206
0.104189
0.106462
0.105462
0.111457
0.105052
0.0620117
0.0623772
0.105044
0.114581
0.0634876
0.0431367
0.0390875
0.0320319
0.033209
0.0424487
0.0455247
0.065313
0.06526
0.111078
0.100188
0.101721
0.103858
0.097386
0.0979141
0.100985
0.0970883
0.0820587
0.0802236
0.0792566
0.0756548
0.0724994
0.06972
0.0670393
0.0635906
0.0593057
0.0562085
0.0547807
0.0665138
0.0692843
0.0574766
0.0490771
0.0479454
0.0504444
0.0533303
0.0569819
0.0599937
0.0637149
0.0685036
0.0717761
0.0737314
0.0740432
0.0768085
0.0942143
0.102194
0.104761
0.100616
0.104438
0.104036
0.101357
0.113214
0.120464
0.06875
0.0703843
0.0489688
0.0456131
0.0339393
0.0348747
0.0255752
0.0213077
0.0214197
0.0212931
0.0215074
0.0247055
0.0342931
0.033941
0.0492488
0.0481508
0.0530667
0.0775598
0.0748001
0.136943
0.126735
0.115806
0.107945
0.10857
0.109526
0.114086
0.108707
0.0989606
0.0933893
0.0786354
0.0753183
0.0730611
0.0710535
0.0676429
0.062725
0.0597026
0.0570319
0.0520275
0.0502599
0.0492547
0.049263
0.0530078
0.0509259
0.0573592
0.0344238
0.0343918
0.0346645
0.0384281
0.0337012
0.0560456
0.0543519
0.0681242
0.218099
0.215437
0.210847
0.18243
0.134957
0.0984864
0.076761
0.0913943
0.117829
0.325731
0.394326
0.62489
0.685944
0.598636
0.503534
0.493653
0.477421
0.547394
0.614856
0.578866
0.61919
0.568092
0.534505
0.459346
0.518124
0.381165
0.344357
0.324888
0.317039
0.381924
0.309875
0.348373
0.28372
0.288387
0.235166
0.243966
0.20318
0.155721
0.147763
0.137089
0.153403
0.173987
0.157665
0.156639
0.136989
0.121133
0.0980332
0.108417
0.080068
0.0738398
0.0702676
0.0692537
0.083646
0.239098
0.146707
0.153793
0.163811
0.181353
0.320136
0.290777
0.799682
0.560242
0.823678
0.521518
0.623744
0.507739
0.385385
0.394883
0.434244
0.614709
0.854658
6.70149
0.288819
4.28376
3.18014
3.32565
3.45783
4.45266
8.0347
7.12487
9.80917
6.89926
9.06213
4.86871
4.95488
4.32706
4.46788
4.42551
4.24832
4.64629
4.99302
0.205837
0.0880208
0.0854493
0.0858038
0.0873691
0.195695
0.0520306
0.202882
0.0540877
0.215967
0.0495746
0.251043
0.199842
0.0381845
0.0191938
0.0200001
0.0167839
0.020313
0.0168966
0.0249701
0.0235038
0.0235404
0.0254142
0.059303
0.222499
8.4595
0.383998
0.212817
0.248149
0.383324
0.222169
0.278482
0.458114
0.282153
0.142482
0.0991028
0.121377
0.118874
0.0978743
0.11356
0.179703
0.177837
0.140439
0.138785
0.106061
0.18309
0.175253
0.24913
0.309478
0.304966
0.191707
0.139925
0.099395
0.245615
0.274897
0.244137
0.0648978
0.0385352
0.0345454
0.0324088
0.0241125
0.0363573
0.0350534
0.0333748
0.0348565
0.0511345
0.0363422
0.0628824
0.0598241
0.237477
0.204256
0.210478
0.180239
0.272911
0.350745
0.382782
0.429676
0.475742
0.399973
0.267858
0.513081
0.744869
0.804766
8.47616
12.6262
1.47808
2.32131
12.4531
0.278867
0.0723835
0.0218362
0.0171192
0.0161416
0.0161037
0.0149912
0.0155297
0.0160016
0.0169599
0.0188577
0.0232447
0.0460297
0.204268
0.206254
0.0649517
0.032698
0.0230557
0.0196491
0.0170593
0.0163945
0.0155327
0.0154606
0.0149848
0.0155844
0.0172267
0.0230605
0.0747662
0.277273
11.7179
2.27028
2.19862
8.5012
5.85644
0.208888
0.0440853
0.0200854
0.0169169
0.0158817
0.0167734
0.0162756
0.018225
0.0184187
0.0230508
0.0250907
0.0319865
0.0578333
0.111391
0.322963
9.96027
9.04364
8.8384
8.1155
0.317937
0.117184
0.0549575
0.0384057
0.0347163
0.0338548
0.0226683
0.0237081
0.0190139
0.0217404
0.0183493
0.0228317
0.0487363
0.21372
5.3837
1.54176
1.66167
1.22367
0.567816
0.587551
0.57594
0.557056
1.30623
2.5926
3.49424
2.40076
2.69383
3.68614
2.51376
1.99515
1.43296
1.41845
2.07498
1.68985
1.6324
1.16091
1.23517
0.971298
1.38345
0.768478
0.964989
1.03498
1.42762
1.34235
1.37053
0.900807
1.02054
1.39124
1.7405
1.71009
0.829643
1.23465
0.980499
0.633704
0.530202
0.528625
0.486658
0.451524
0.481965
0.49877
0.494813
0.516203
0.507492
0.553948
0.525781
0.49727
0.45944
0.471539
0.475628
0.498602
0.332946
0.399795
0.403559
0.413729
0.427345
0.326901
0.411304
0.359474
0.536517
0.774911
0.258833
0.32044
0.227102
0.621239
1.26738
4.21278
0.707512
0.237883
0.902127
1.65876
1.09037
0.587574
2.4879
3.75169
1.2534
1.92814
11.4227
9.02488
17.7115
9.73693
15.5975
4.31978
4.17848
16.1792
5.54196
5.23393
3.3916
3.78822
1.86852
0.944741
0.87317
0.947678
0.668088
0.639698
0.599669
0.854242
1.02477
0.841265
1.08312
1.26381
1.70205
1.36836
1.11468
1.50981
0.61161
0.652334
0.921943
0.93571
0.694877
1.11928
1.60707
1.11202
0.72555
1.18091
2.01507
2.83661
2.16842
1.4462
1.79182
7.00056
9.52229
10.4481
2.57262
19.9807
17.0017
0.929903
0.199278
0.0632595
0.0405855
0.0358369
0.0378144
0.0409349
0.108542
0.0478219
0.0535144
0.0413218
0.0450862
0.0558356
0.0695834
0.138902
0.0979982
0.138473
0.116748
0.0881689
0.0662838
0.0862399
0.0986359
0.0869833
0.06855
0.0554293
0.0806139
0.0923905
0.0511622
0.0764992
0.0852712
0.0783866
0.105062
0.0994678
0.0649701
0.626376
0.113327
0.054205
0.0444594
0.0938073
0.457263
0.0683946
0.216946
3.09485
13.9102
2.40075
0.468104
0.289147
0.0402807
0.0229798
0.0215375
0.0202534
0.0159712
0.0317873
0.0388433
0.161387