/*--------------------------------*- C++ -*----------------------------------*\
| =========                 |                                                 |
| \\      /  F ield         | OpenFOAM: The Open Source CFD Toolbox           |
|  \\    /   O peration     | Version:  v2012                                 |
|   \\  /    A nd           | Website:  www.openfoam.com                      |
|    \\/     M anipulation  |                                                 |
\*---------------------------------------------------------------------------*/
FoamFile
{
    version     2.0;
    format      ascii;
    class       surfaceScalarField;
    location    "330";
    object      phi;
}
// * * * * * * * * * * * * * * * * * * * * * * * * * * * * * * * * * * * * * //

dimensions      [1 0 -1 0 0 0 0];
oriented        oriented;


internalField   nonuniform List<scalar> 
63799
(
0.00326588
-0.00546223
0.0042991
-0.0083543
-0.0058025
0.00882363
-0.00502147
-0.00841304
0.0104917
0.00612177
0.00621669
-0.00779193
-0.00352551
0.00379351
0.00325625
-0.000896218
0.00430855
0.0017309
-0.00229328
0.00547746
0.00294264
-0.00418245
0.00149191
0.00389769
0.00294183
-0.00642265
0.00487371
0.00447145
-0.00591057
0.00427077
0.00535329
-0.00449157
0.00350722
0.00642709
-0.00307133
0.00189332
0.0121992
-0.00515439
-0.000810867
0.014175
-0.0116218
0.00908982
0.0152071
-0.0132445
0.0115189
0.0183988
-0.0124079
0.00844059
0.0181729
-0.00985555
0.00930044
0.0131094
-0.00760807
0.0118608
-0.00402878
-0.00720337
0.0235651
-0.0194777
-0.015941
0.0306277
-0.0171982
-0.0299527
0.0269811
-0.00667299
-0.0334899
0.0224121
-0.0146243
0.00759468
-0.0486755
0.0313913
0.00231914
-0.0540684
-0.0221191
0.0269604
-0.0629053
-0.0123434
0.0206283
-0.0442814
-0.0333768
0.0144104
-0.0556992
0.0110592
-0.0894042
0.00720604
0.0259429
-0.109287
0.0145699
0.00461486
-0.122927
0.0083244
0.00454591
-0.129046
0.0028015
0.00251535
-0.130544
-0.00114821
0.00179324
-0.129185
-0.00495204
0.00273576
-0.125573
-0.00970798
0.00521953
-0.118715
-0.0164899
0.00877849
-0.105717
-0.0268764
0.0130225
-0.0836454
-0.0393186
0.0164517
-0.0512077
-0.0508621
0.017636
-0.0617885
0.00983339
-0.103203
0.00332042
0.0372916
-0.131667
-0.000610839
0.0282446
-0.150016
-0.00290459
0.0203457
-0.158571
-0.00463262
0.0122607
-0.158272
-0.00735834
0.0060926
-0.14981
-0.0111868
0.00175988
-0.1328
-0.0159989
-0.00198008
-0.106901
-0.0210153
-0.00584503
-0.0703112
-0.0253925
-0.0121545
-0.0413741
-0.0180036
-0.0118832
0.0153312
-0.0145687
-0.0430782
0.0818819
-0.0182043
-0.0492729
0.11937
-0.00363849
-0.0347582
0.141629
0.00312623
-0.0262628
0.151179
0.00842136
-0.0188088
0.140855
0.0161564
-0.00659594
0.0817127
0.0368049
0.021716
0.0343775
0.0174858
0.0296294
0.0193186
0.0114453
0.00353595
0.019849
0.000757028
-0.0013428
0.0196685
-0.00104493
0.00115435
0.0167293
0.000215288
0.00264303
0.0109765
0.000910369
0.00475766
0.00641834
0.000782523
0.0037041
0.00557886
0.000408447
0.000379976
-0.00254401
0.00629365
0.00175775
-0.000673475
-0.0019587
0.00658781
0.000108713
-0.00746902
0.0125165
0.00252734
-0.00856644
0.0176592
0.0021376
-0.00738332
0.0240398
-0.00087945
-0.00560626
0.0573414
-0.0171418
-0.016357
0.11189
-0.0114993
-0.0436233
0.134205
0.00286468
-0.0258999
0.143537
0.00447786
-0.0146164
0.145905
0.0040397
-0.00722036
0.143196
0.00427815
-0.00240747
0.135443
0.0051449
0.00181093
0.120182
0.00685122
0.00763142
0.0983448
0.00613547
0.0149966
0.0613808
0.00748776
0.0289157
0.050035
0.0109859
0.0801571
0.0141767
-0.0446417
0.0758709
0.00891684
-0.00518247
0.05189
0.0162972
0.00713213
-0.00140361
0.0533388
-0.000388155
-0.00597988
0.0042164
0.0111371
0.0174517
-0.0351291
0.0108085
0.0283691
-0.0287455
0.00180186
0.0319714
-0.0237424
0.00161948
0.030968
-0.0315822
0.0147631
0.0343774
-0.0483597
0.0299443
0.0397731
-0.0557666
0.0429585
0.042305
-0.0561251
0.0457496
0.0437758
-0.0472858
0.0247686
0.0467772
-0.0263701
0.012628
0.0210709
-0.00912715
0.0122897
0.00611277
-0.00587959
0.012207
0.00565798
-0.00567816
0.0109149
0.00631283
-0.00513108
0.00710947
0.00539165
-0.00168518
0.00196275
0.0050586
0.00307948
0.00347629
-0.00466446
0.00270057
0.00277299
-0.00244509
0.0018243
0.00411736
-0.00331258
0.00261196
0.00469531
-0.00556764
0.00216834
0.00430941
-0.00394655
0.0018135
0.00397124
-0.00368741
0.00211522
0.00198828
-0.00234529
0.0032845
0.00186649
-0.00311334
-0.00185872
0.0105729
-0.0056494
-0.0123285
0.0343368
-0.0244879
-0.012038
0.032845
-0.0338978
-0.0123548
0.034682
-0.0352021
-0.0143914
0.0371943
-0.0360334
-0.0132865
0.0365401
-0.0385512
-0.0110097
0.0369178
-0.0401165
-0.00697792
0.0374257
-0.0423892
0.00180364
0.0430377
-0.0527512
0.00633987
0.0486192
-0.0540777
0.00493475
0.0516019
-0.0511034
0.00332573
0.0525781
-0.0518451
0.00900185
0.0483965
-0.0549098
0.0190625
0.0457317
-0.0565547
0.0164724
0.0479446
-0.0459753
0.00550442
0.0186861
-0.00793759
0.00370544
0.00645899
-0.0047374
0.00555683
0.00257764
-0.00448392
0.00731917
0.00394068
-0.00577295
0.00453946
-0.00509045
-0.00808142
0.009492
-0.00536974
-0.00561688
0.00763746
-0.00623719
-0.00118484
-0.00187609
0.00736694
-0.0021216
-0.00589312
0.0121807
0.00697063
-0.00600472
-0.00541323
0.0162435
0.00179046
-0.000634181
0.0747832
0.0148875
-0.0474914
0.0175368
0.0713413
-0.0446916
0.0260181
0.0711352
-0.0321443
0.0225077
0.0736107
-0.0184623
0.0151307
0.0697083
-0.0116861
0.0105096
0.0634693
-0.0111979
0.0102849
0.0533081
-0.0110213
0.00732939
0.0413863
-0.00198041
0.00254444
0.0406915
4.27958e-05
-0.0046771
0.0441236
-0.00131807
-0.0141238
0.0477446
-0.00204299
-0.0172055
0.0450766
-0.00823676
-0.0153291
0.0467103
-0.0166526
-0.00981217
0.0527737
-0.00497109
-0.0199693
-0.00600278
0.0106673
-0.00407623
-0.00753955
0.00901776
-0.00515686
-0.00243782
-0.00454716
-0.00115489
-0.00167622
-0.000904492
-0.00266173
0.00860685
-0.00372689
-0.00305362
0.00859833
-0.00398469
-0.00173805
0.00890401
-0.00561582
-0.0026347
0.00695326
-0.00200841
-0.00264453
0.0047476
-0.00201109
-0.00219413
0.00649185
-0.00352872
0.0101611
-0.00739276
0.0147625
-0.00777354
0.00306281
0.0191001
-0.00789093
0.00342967
0.0238952
-0.00832439
0.00339331
0.0341187
-0.0124554
0.00205338
0.0462866
-0.0190041
0.00655023
0.0342602
-0.000127758
0.0118696
0.0248822
-0.000845056
0.0100433
0.0208932
-0.00190851
0.00576143
0.0172743
-0.00102721
0.00452257
0.013043
0.000334581
0.00378736
0.00772137
0.00183234
0.00339319
0.00361444
0.00401883
0.00287211
0.00616245
-0.00549153
0.00277675
0.00394158
-0.00389722
0.00558914
0.00168031
-0.00456416
0.00753206
0.00237874
-0.00440629
0.0087321
0.00288482
-0.00416557
0.00852883
0.00337882
-0.00324649
0.00814225
0.00301216
-0.00268082
0.0150893
0.000943367
-0.00796792
0.0391744
-0.00675126
-0.017553
0.0691185
0.0131191
-0.0436803
0.0766033
0.0246278
-0.0328682
0.0746615
0.0291532
-0.028038
0.066599
0.0308285
-0.0236219
0.0532213
0.0304248
-0.0179155
0.0258716
0.0284886
-0.00200076
-0.0150987
0.0254436
0.01467
-0.0398342
0.0320096
-0.0081312
-0.049779
0.0370618
-0.027979
-0.0555098
0.0392701
-0.0344064
-0.0569612
0.0387036
-0.0381049
-0.0527531
0.0360953
-0.0411249
-0.0421064
0.0324768
-0.0438743
-0.0208426
0.0265554
-0.0484344
-0.00718675
0.00277447
-0.0166494
-0.00347801
0.00279338
-0.00657967
-0.00404048
0.00359948
-0.00309231
-0.00375002
0.00472151
-0.0050827
-0.00222601
0.0044419
-0.00604513
-0.00053483
0.00435845
-0.00612976
0.000614418
0.00190713
-0.00311998
0.000630081
0.00275066
-0.00281402
-0.000631959
0.00539518
-0.00420359
0.00560431
-0.00632294
0.00954793
0.00212088
-0.00616374
0.0122004
0.00385327
-0.00661357
0.0144998
0.00373509
-0.00614096
0.0162013
0.00398191
-0.00578659
0.0172523
0.00420542
-0.00535666
0.0169809
0.00454313
-0.00436586
0.0119437
0.00626425
-0.00130418
0.0055395
-0.000126808
0.00650084
0.00539205
-0.000773347
0.000907311
0.00645198
-0.000854545
-0.000220055
0.00748116
-0.0009328
-0.000111907
0.00831349
-0.000655465
-0.000192603
0.00881962
-2.78757e-05
-0.000493702
0.00891448
0.000615947
-0.000726233
0.00873111
0.00106367
-0.000895648
0.00840634
0.00126314
-0.000953742
0.00805831
0.00128576
-0.000953158
0.00771299
0.0012285
-0.00089863
0.00738197
0.00115231
-0.000836814
0.00703642
0.00109011
-0.000760016
0.00668549
0.00104662
-0.000711291
0.0061544
0.000962873
-0.00044698
0.00542619
0.000736393
-2.23954e-05
0.00579359
0.000610393
-0.000990596
0.0123594
-0.000822623
-0.00577138
0.017527
-0.00318871
-0.00204769
0.0183798
-0.000897711
-3.74328e-05
0.0177432
-0.000195154
0.000749362
0.0156043
0.000384948
0.00167118
0.0095713
0.00213012
0.00383378
0.00390404
0.00388846
0.00175071
0.00322106
0.000282677
0.000387664
0.00299882
-0.000330472
0.00053907
0.00234645
4.9083e-05
0.000589725
0.000994291
0.000416324
0.00092469
0.00036307
0.000428895
0.000196865
0.000144629
0.000215334
9.45745e-05
0.00012665
-7.82911e-05
7.43202e-05
6.32211e-05
-4.36841e-05
0.00012501
2.4913e-05
-7.62507e-05
0.000212025
2.93769e-05
-0.000117297
0.000325908
3.58735e-05
-0.000150937
0.000543078
4.6791e-05
-0.000265227
0.000501346
-1.11422e-05
5.1843e-05
0.000739767
-0.000358994
0.00011981
0.00122046
-0.000734865
0.00025298
0.00188438
-0.00093492
0.000269764
0.00254274
-0.0010457
0.000386083
0.00298525
-0.000958444
0.000514689
0.00309179
-0.000754797
0.000647002
0.00301741
-0.000631345
0.000704458
0.00260572
-0.000287679
0.000698134
0.0016705
0.00023431
0.000699649
0.000147531
0.00079673
0.000725011
-0.0014447
0.00139107
0.000199975
-0.00223437
0.00062668
0.000162233
-0.00215996
1.42247e-05
-8.96527e-05
-0.00134025
-0.000796713
-2.42607e-05
-0.000813356
-0.000548264
2.02023e-05
-0.000445296
-0.000404803
3.58466e-05
-0.000249386
-0.000262576
6.60242e-05
-0.000304127
-0.000147363
0.000201394
-0.000470346
-0.000128802
0.000293348
0.000365277
-0.000838687
0.000244292
-0.000612955
0.000730402
2.62673e-05
-0.000399452
0.00061437
-0.000281933
-0.00024177
0.000546852
-0.000553967
-0.00025858
0.000527628
-0.000719893
-0.000348712
0.000511648
-0.000861884
-0.000344349
0.000483451
-0.000879394
-0.000460623
0.0004753
-0.000924022
-0.000412212
0.000454073
-0.000875479
-0.000506962
0.000455701
-0.000879257
-0.000441457
0.000442536
-0.00080797
-0.00052127
0.000447348
-0.00079776
-0.000443972
0.000431103
-0.000719971
-0.000504078
0.000423759
-0.000700383
-0.000409667
0.000387474
-0.000614473
-0.000459599
0.00037134
-0.000529872
-0.000421262
0.000334147
-0.00054675
-0.000489856
0.000504362
-0.0013062
-0.00030005
0.00105425
-0.00147486
-0.000585949
0.000748114
-0.00266425
-0.000353309
0.00152998
-0.00481954
-0.00410023
0.00622003
-0.0107282
-0.0174557
0.0232393
-0.0157321
-0.0220106
0.0268441
-0.0174597
-0.0349641
0.0363766
-0.0152598
-0.0461293
0.0435865
-0.0504815
0.0459079
0.0156425
-0.0811979
0.0217519
0.0247754
-0.0819979
0.026174
0.0217472
-0.0748428
0.00548698
0.0367531
0.0125896
-0.0232935
0.0102816
0.00490385
-0.0249171
0.0123418
0.00262784
0.00240929
0.00325325
-0.00488673
0.0028056
0.00166441
-0.00369175
0.0016121
0.00193171
0.00051579
0.00107898
0.00026383
0.000736983
-4.10382e-05
0.000381109
0.000348379
8.73174e-05
-0.000174748
3.24624e-05
-0.00115781
0.000819369
0.00016209
-0.00170198
0.000500883
0.00219368
-0.00403143
0.00178583
0.000963493
0.00135371
-0.00436743
0.00207682
0.00215007
0.000817177
0.000540469
0.00115177
0.000555637
0.000968727
-0.000803286
0.000572838
0.00135218
-0.00145449
0.000563167
0.00108514
-0.000777783
0.000597049
0.00145224
-0.00147286
0.000580661
0.00112564
-0.000735596
0.00061689
0.00145079
-0.00144154
0.000605533
0.00106245
-0.000685813
0.000658004
0.00126414
-0.00133269
0.000666369
0.000816325
-0.000635852
0.000735268
0.000800801
-0.00110199
0.000764699
0.000443326
-0.000747066
0.000841836
0.000352775
-0.00102114
0.000865786
9.64138e-05
-0.00106922
0.000921921
-0.000241224
-0.00124969
0.000969634
-0.00201264
0.000927382
-0.00435117
0.000586432
0.00174136
-0.00517357
-0.000182616
0.000992382
-0.00518636
-0.000235842
0.00023581
-0.00591359
-0.000271382
0.000987874
-0.0136483
0.000886979
0.00682293
-0.0203667
0.00588425
0.000782498
-0.0245241
0.0023534
0.00174247
-0.0475118
0.00663374
0.0162587
-0.0492468
0.00438279
-0.00285218
-0.0274242
-0.00404384
-0.0178726
-0.0243885
-0.00139825
-0.00169743
-0.018508
-0.0049453
-0.000985769
-0.00852631
-0.00124818
-0.00875809
-0.00794456
0.000381167
-0.000973711
-0.00904485
0.00020893
0.000878277
-0.00943966
8.51003e-05
0.000296234
-0.00900822
-0.000552008
0.000107054
-0.00872631
-0.000483649
0.000189059
-0.00862939
-0.00033383
0.000224119
-0.00882963
-0.00012434
0.000311332
-0.00938949
7.2173e-05
0.00047325
-0.00969477
-0.000359934
0.000649914
-0.00958048
-0.000906928
0.00077684
-0.00910928
-0.00137447
0.000887402
-0.00841009
-0.00168281
0.000967862
-0.00777871
-0.00164087
0.000993662
-0.00702217
-0.00153616
0.000764251
-0.00604887
-0.00130775
0.000319732
-0.00617005
-0.00120001
0.00130787
-0.0134468
-0.000694781
0.00794055
-0.0184397
0.00810697
-0.00318988
-0.0208232
0.00540361
-0.00310721
-0.0418781
0.0127307
0.00815213
-0.0543306
0.0250198
-0.0130152
-0.0357193
0.00930767
-0.0284728
-0.0331822
-0.00310634
-0.0513868
-0.0254689
0.0429913
-0.0592458
-0.0391018
0.0462047
-0.057196
-0.0501921
0.0473195
-0.0453369
-0.0578755
0.0451797
-0.027858
-0.0613211
0.0430364
-0.0624516
0.043636
0.0193919
-0.104274
0.0249276
0.0383534
-0.103334
0.0221925
0.0521183
-0.0969053
0.0243769
0.0547471
-0.0838072
0.0301063
0.0461128
-0.0653804
0.034086
0.0261635
-0.0430232
0.0367549
-0.0144096
0.0367899
-0.0290746
-0.0292107
0.0431158
-0.0401723
-0.037391
0.0476161
-0.0455499
-0.0459356
0.0504042
-0.0439439
-0.0551754
0.0526165
-0.03656
-0.063013
0.0546773
-0.0244672
-0.0696855
0.0566467
-0.00662961
-0.0745768
0.0558178
0.0111168
-0.0718436
0.0532036
0.0100247
-0.0547179
0.0549379
0.00457495
-0.0578013
0.0623862
0.00972538
-0.0687891
0.0627729
0.0182681
-0.0708789
0.0614656
0.0277412
-0.0678234
0.0574932
0.0347067
-0.0613849
0.0535921
0.0347014
-0.0514108
0.0506599
0.0147746
-0.0343739
0.0536836
0.00614772
-0.0106389
0.0190468
0.00327056
-0.00119744
0.00399732
0.00276236
-0.00300921
0.00346258
0.00157252
-0.00417356
0.00529358
0.00010297
-0.00386892
0.00526035
-0.0010015
-0.00466148
0.00568676
0.000538698
-0.00405646
0.00245317
0.00140676
-0.0046032
0.00368782
-0.0011931
-0.00520753
0.00773644
0.00838139
-0.00966251
0.0139184
-0.00963824
0.0040019
0.0170145
-0.00994438
0.00673757
0.0191684
-0.00819913
0.00594227
0.0224972
-0.00883535
0.00540177
0.0507326
-0.030674
0.0022438
0.107525
-0.000847627
-0.0565073
0.133242
0.0162325
-0.0426401
0.145936
0.0235972
-0.0370575
0.15211
0.0262934
-0.0332101
0.151417
0.0288341
-0.0288958
0.136418
0.0338173
-0.0194816
0.079173
0.0490044
0.00771398
0.0363982
0.0190902
0.0235079
0.0293073
0.00630309
0.000697101
0.0188059
0.0103061
0.000123435
0.00784733
0.0103067
0.000622297
0.00690794
0.00164656
-0.00071956
0.00687724
0.000633978
-0.000616926
0.00572169
0.0016018
-0.000459483
0.00259381
0.0024833
0.000633633
0.00106928
0.00126326
0.000255897
0.000432743
0.000633471
0.00025775
-0.000759308
0.000930755
3.21936e-05
-0.000593291
0.00081573
-0.000120674
-0.000649142
0.000798882
-0.000265877
-0.000614338
0.000756547
-0.000324006
-0.000656614
0.000711743
-0.000397955
-0.000579838
0.000650891
-0.000381001
-0.000641023
0.000621229
-0.00039872
-0.000563779
0.000578722
-0.000340545
-0.000628673
0.000567774
-0.000333556
-0.000554657
0.000544963
-0.000272046
-0.000611943
0.000547789
-0.000267004
-0.000538879
0.000531167
-0.000234272
-0.000561528
0.000526251
-0.00024244
-0.000489492
0.000495035
-0.000190741
-0.000519087
0.000465016
-6.159e-05
-0.000477597
0.000345943
-2.8737e-06
-0.000436093
0.000375049
-0.000398192
-0.000691775
0.0010818
-0.000650216
0.000872593
-0.000627158
-0.00134173
0.00136641
-0.000687646
-0.00254427
0.00553736
-0.00437061
-0.00916337
0.0249237
-0.0184315
-0.016154
0.030321
-0.0235062
-0.020574
0.0407361
-0.0366365
-0.0164822
0.044799
-0.0492344
0.0493305
-0.0552033
0.0192043
0.0712479
-0.0272559
0.0260556
0.0636365
-0.0259554
-0.018451
0.0498321
-0.00540848
0.0269983
-0.00477921
0.033889
-0.00206548
-0.00488257
0.00015071
0.045139
-0.0114414
0.0649434
-0.0150275
-0.0121335
0.0512662
-0.00102552
-0.0283084
0.0545823
-0.0293555
0.0698685
0.0104849
0.0638978
-0.01356
0.0163123
0.0360722
0.0273388
0.00933909
0.0085332
0.067803
-0.00579924
-0.00586473
-0.0123391
0.0840484
-0.0179475
0.00155173
-0.00244157
0.0129415
-0.0257542
-0.00337613
0.0100605
-0.0102342
0.0011994
-0.0307337
-0.00895609
0.0228055
0.00657932
0.00432485
-0.00693385
0.00623959
0.014519
0.0221288
-0.0137616
0.00863842
0.00349396
-0.00593929
2.17293e-05
0.0161522
0.00386078
0.00312276
0.0115161
0.00135047
0.00327855
0.0106474
-2.58265e-05
0.000883863
-0.00928726
-0.000376787
0.0202979
-0.0192661
0.00100624
0.0042011
0.00354247
0.00543735
-0.00478499
0.0072574
-0.000440056
0.00466096
0.00256648
-0.00468106
0.00896103
0.00175749
0.0107678
0.00361438
-0.0118451
-0.000804856
-0.00564614
-0.00243905
-0.00295545
0.0307521
-0.0101885
-0.00250702
0.00092591
0.00972089
0.00426077
0.00267456
-0.0337759
0.00348731
-0.00230681
0.000569
-0.00111429
0.00308431
-0.00443504
0.00292658
-0.0045128
0.0031495
-0.0115179
-0.0133291
0.00633323
0.0108286
0.00341146
-0.00819099
-0.0108839
0.00709031
0.0117005
-0.00293528
0.00224535
-0.0125309
0.0190597
-0.00256235
-0.00282288
-0.00278312
0.00571442
0.000644996
-0.00260819
-0.00208581
0.00182136
-0.000710359
0.000409986
0.00298465
-0.00247028
-0.0021144
0.00183225
0.000530122
0.00254252
0.00189742
-0.00251482
-0.00204803
0.00043718
-0.00255115
-0.00206889
0.00215912
0.00255089
0.000671447
-0.00262887
-0.00203646
0.00199481
0.00243338
0.000665005
-0.00229981
-0.00204096
0.00182419
0.00252023
0.00104386
-0.00256015
-0.00191834
0.00162601
0.00247091
0.000975648
-0.00232424
-0.00198633
0.00176412
0.00261205
0.00142178
-0.00287638
0.00265838
0.0017917
-0.00202237
0.00133543
-0.0026951
0.00202665
0.00307815
-0.00232594
0.00162039
-0.00268136
-0.00354423
0.00347396
0.00246394
0.00121934
-0.00365201
0.00324556
-0.00319073
0.00399535
0.00103901
-0.00451165
-0.00346691
0.00379586
0.00435997
0.000436256
-0.00438104
0.00513712
0.00364266
-0.00379893
5.18016e-05
0.00416728
-0.00483623
0.00556311
-0.00451289
6.94889e-05
-0.00190042
0.00242666
0.00179055
-0.00233577
0.00179968
-0.00110317
0.00122454
-0.00185231
0.00226316
0.0021339
0.000341131
-0.00293944
0.00208151
-0.000878704
0.000643778
0.000415618
0.0021335
-0.0016446
0.00134972
0.00024171
0.00174447
-0.00109048
0.00119814
0.000280256
0.0013487
-0.000655181
0.00076967
0.000280205
0.000647856
-3.88464e-05
0.000325667
0.000412969
-0.000351256
0.000508023
-8.52067e-05
0.000575231
-0.0010444
0.000560178
-0.000483777
0.000615676
-0.00125087
0.000752307
-0.00107665
0.000529767
-0.00124818
0.000965107
-0.00150333
0.000534451
-0.00113217
0.00100506
-0.00154831
0.000426129
-0.000924437
0.000927216
-0.00136576
0.000229648
-0.000783819
0.00037696
-0.000487094
-3.14461e-05
-0.000427869
0.000577899
0.000110191
-0.00104496
-0.000154653
0.000272258
-0.00057792
3.17012e-05
-0.00056693
0.000662196
-0.00056145
0.000310043
-0.00120018
0.00156226
0.00134676
6.06441e-05
-0.00235435
-0.00262558
0.00266408
-0.00217919
0.000918325
-0.00353564
0.000127666
0.0021625
0.000422429
-0.00261396
0.000700606
-0.00165969
-0.000524711
-0.00524986
0.00379642
-0.00244157
0.00201124
-0.00513703
0.00382936
-0.00678038
-0.000847021
-0.00404368
0.00911323
-0.0258986
-0.00989249
-0.0186293
-0.00697918
0.053797
-0.0427903
-0.0203662
0.0253827
0.0110793
-0.0494711
-0.0292874
0.0463394
-0.0111919
-0.0494512
-0.0310475
0.0512874
-0.021089
-0.0464657
-0.0320775
0.0535562
-0.0252971
-0.0415063
-0.0299998
0.0526366
-0.0284134
-0.0121152
-0.0231367
0.0472835
-0.0164636
-0.0379252
0.0164765
-0.00726917
-0.00961803
-0.0118397
0.0136388
0.0260157
-0.0101703
-0.0131383
0.0217275
0.0166115
-0.0141077
-0.0107268
0.0123131
0.0345475
-0.0112865
-0.0139736
0.00529976
0.0277218
-0.00811319
-0.0126945
-0.0065732
0.0394216
-0.010486
-0.0171626
-0.0125414
0.0402278
-0.0144797
-0.0199072
-0.00759515
0.0292769
-0.0138233
-0.0205357
-0.00888201
0.0333246
-0.0132288
-0.0189627
-0.0106483
-0.00503726
-0.00739556
-0.00233281
-0.00926609
0.00588676
-0.0010587
-0.00991158
0.00641637
-0.00247252
-0.00868085
0.00449578
-0.00292857
-0.00626886
0.00288082
-0.00300469
0.00199064
-0.00270025
-0.00913687
0.0058707
0.010135
-0.00497456
-0.00432157
0.00658141
-0.00533463
0.00614069
-0.00654232
0.00682092
-0.00665657
0.00586614
0.00727332
-0.00589924
0.00534417
0.00724063
-0.00476696
0.00469509
0.0121719
-0.0126736
0.0075477
0.0224258
-0.0339528
0.0318892
-0.040153
0.0398626
-0.0408167
0.0460151
-0.0379431
0.0470281
-0.0310542
0.0451717
-0.0191727
0.0311996
0.00355324
0.0162555
0.0139205
0.0155161
0.00266012
0.0121269
0.00279259
0.00503066
0.00591855
0.00114816
0.00440997
0.000793257
-0.000184939
0.0042256
0.000272687
-0.000101959
0.00337858
0.000872492
-3.87003e-05
0.00144674
0.000605915
0.00131499
0.00053755
0.000240884
0.000662941
0.000445426
8.9058e-05
0.000307662
4.60058e-05
9.00822e-05
0.00022457
-4.69496e-05
0.000129331
0.000344182
-0.000127687
7.43239e-06
0.000571515
-0.00018224
-4.59902e-05
0.000794413
-0.000179026
-4.50443e-05
0.0010636
-4.54755e-05
-0.000224967
0.000887605
-6.10416e-05
0.000236014
0.00130816
-4.43561e-05
0.0021801
5.40882e-05
0.00307739
0.00010654
0.00376844
0.000272812
0.00406106
0.000458447
0.00398721
0.000632764
0.00377207
0.000721916
0.00302672
0.000705252
0.00173628
0.000634018
1.91262e-05
0.000625443
-0.00181662
0.000189969
-0.00290116
0.000205067
-0.00275227
-9.39745e-05
-5.59321e-05
-0.00172163
-1.69752e-05
-0.00101493
-0.00105028
3.9824e-05
-0.000712342
-0.000579349
5.59347e-05
-0.000527768
-0.0003275
8.90121e-05
-0.000341504
-0.000403643
0.000263831
-0.000188399
-0.000146299
0.000374449
-0.000646516
0.000458497
4.12693e-05
-0.000241452
0.000301013
0.000555466
0.00045452
-0.00212115
0.000611598
0.000812338
0.0011304
-0.00273829
0.000949806
0.00111093
0.00115826
-0.00247527
0.00123634
0.00120924
0.00206476
-0.00383158
0.00134404
0.00157911
0.00195598
-0.00286219
0.00142016
0.00154896
0.00430065
-0.00534974
0.0029011
0.00504933
0.00412419
0.00297093
-0.00206147
0.0039753
0.00178743
-0.000996196
0.00480592
0.0016265
-0.0011093
0.00485827
0.00235218
-0.00120809
0.00460725
0.00201476
-0.000995738
0.00411124
0.00102917
-0.000209046
0.0033036
0.000247163
0.000473714
0.00243576
-0.00037804
0.000760534
0.00163594
-0.00160521
0.00132684
0.000936963
-0.00276375
0.00195774
0.000120399
-0.0028969
0.00216344
-0.000850767
-0.00245402
0.00205752
-0.00103211
-0.000685518
0.000378336
-0.0006408
0.000665156
-0.000479911
0.000654746
-0.000362508
0.00408427
-0.00245719
-0.00327123
-0.00124169
0.00418929
0.00450007
-0.00146509
0.00259214
0.00627786
-0.000725392
0.00158822
0.019821
-0.00529549
-0.0120629
0.00383966
0.0156999
-0.00727695
0.00603697
0.0114833
-0.00672278
0.00571504
-0.00987002
-0.00145091
0.0253506
-0.0084909
-0.016802
-0.0100546
0.0160845
-0.0181272
-0.0395294
0.059036
-0.0291283
0.0270453
0.0426341
-0.0500829
0.0589301
0.00744675
-0.057589
0.0667107
-0.00883842
-0.0590258
0.0702626
-0.0161999
-0.0565677
0.0704437
-0.0212008
0.0644171
-0.0320058
0.069469
0.0835982
-0.02744
0.0687882
0.0841416
-0.0140439
0.0640163
0.0813246
-0.00730149
0.0509505
0.0775841
0.00119244
0.0174797
0.0711891
0.0202129
-0.0378904
0.0322517
0.0491515
-0.036688
-0.0465732
-0.0222681
0.048476
0.0140002
-0.0192652
-0.0116792
-0.0198651
-0.0186477
-0.0155016
0.00747966
-0.024388
-0.00740841
0.00558901
-0.0224688
0.00633994
-0.0272568
-0.00841934
0.00582592
-0.0119602
-0.0151894
-0.00715021
0.00164775
0.00401533
-0.0116256
-0.00423828
-0.000134793
-0.00996289
0.00116648
-0.00982851
-0.00395759
0.00233824
-0.00369977
-0.00687307
-0.00418746
0.00245676
0.00320493
-0.00474009
-0.00315273
0.000984287
0.00211415
-0.00372943
0.00154543
-0.00146476
0.00164865
-0.00339034
-0.00347997
0.00294786
-0.00516244
-0.00318013
0.00205245
-0.00728386
-0.00311574
0.00247037
-0.00908578
-0.00227225
0.00246602
-0.0100757
-0.00181208
0.00242092
-0.0115923
-0.00107272
0.00283354
-0.011804
-0.000545548
0.00178344
-0.0111673
0.000923928
0.000451122
-0.0102751
0.00183817
-0.00038113
-0.00922451
0.00297154
-0.00239926
-0.00896378
0.00275304
-0.00122939
0.0101857
0.00622204
-0.016141
-0.00122669
0.00945637
0.00324762
0.000231174
0.0111933
0.00266167
-0.00143066
0.012391
0.000801125
-0.000163641
0.0124873
-0.000310362
0.00113477
0.0114709
-0.00115679
0.00162471
0.010607
-0.00195517
0.00174352
0.00966789
-0.00271564
0.00183988
0.00871423
-0.00323816
0.00191662
0.00712297
-0.00343971
0.00191208
0.00574356
-0.00339776
0.00159401
-0.00381275
0.00234333
-0.00673193
-0.00379129
0.00196671
-0.00779236
-0.00474045
0.00239961
-0.00875423
-0.00431651
0.0018355
-0.00974096
-0.00409032
0.00183586
-0.0107607
-0.0035134
0.00181454
-0.0114248
-0.00288944
0.0015954
-0.0120113
-0.0016213
0.00104801
-0.0124526
-0.000170287
0.000297991
-0.01175
0.00138772
-0.00129266
-0.00970805
0.00143446
-0.000818422
-0.00931451
0.00217768
0.000672572
0.0118411
0.00311556
-0.0188152
0.000748221
0.00904033
0.00461443
0.000360042
0.0129348
-0.00166281
-0.000801144
0.0116192
0.00357294
-0.000873657
0.0158458
-0.00353727
-0.000863675
0.0122945
0.00159424
0.000331597
0.015114
-0.00562825
-8.47814e-05
0.0110392
-0.000648531
0.00120573
0.0128584
-0.00673805
0.000824413
0.00853068
-0.00196322
0.00197032
0.00842469
-0.00645192
0.00181342
0.00527451
-0.00218146
0.00153645
-0.00535113
0.000595897
0.0113825
-0.00735319
-0.0139233
0.00234427
0.0118054
-0.00599742
0.00137032
-0.00504804
0.00125076
0.0125963
-0.00511255
-0.0130145
0.000463247
-0.00566243
-0.00119174
0.0137986
-0.00436445
-0.0133779
-0.0017415
0.0296017
-0.00476854
-0.0189323
0.000646734
-0.00774061
0.00443608
0.0249219
-0.00661854
-0.0301107
0.00397773
-0.00671774
0.00489551
0.0122707
-0.00312744
-0.0185181
0.00261135
-0.0298377
-0.0162388
-0.0228583
-0.0185741
0.00837268
0.00485175
-0.0397193
0.0025306
0.009361
-0.0231897
0.00283532
0.00630379
-0.00581564
-0.0277706
0.00401463
-0.0315306
0.002867
0.00804703
-0.000168101
-0.0324114
-0.00637539
-0.000718774
-0.0134545
-0.00181785
0.00469072
-0.0185645
0.000229154
-0.0141232
0.000303571
0.00558809
-0.0156179
-0.00513435
0.00102186
-0.0143521
0.000909995
-0.0167875
-0.00634738
0.00141164
0.00773289
-0.0200543
-0.00632945
0.00184568
-0.0181205
0.0034991
-0.021508
-0.00642728
0.00241249
-0.022422
-0.00362098
0.00048528
-0.0208848
-0.000465123
-0.00105233
-0.0192745
0.00229564
-0.000971404
-0.0187521
0.00375089
-0.0011745
-0.0050426
0.00435966
-0.0173205
-0.000768204
-0.00641592
-0.0165966
-0.000865158
-0.00744
-0.0150265
-0.00010981
-0.00580423
-0.0115882
0.00172257
-0.00390478
-0.00925992
0.00103823
-0.00688707
0.00059169
-0.00930428
0.00433777
-0.000335854
-0.00668344
-0.00133266
-0.000669479
-0.00471652
-0.000324386
0.00560529
-2.325e-05
0.0151059
0.00978683
-0.0309418
0.0108163
-0.000605478
-0.00457164
0.0070259
0.00104118
0.00027497
-0.0043158
0.00468586
-0.00791739
0.00902701
-0.00122333
-0.00171568
0.00637941
-0.00136802
-0.00796565
-0.00117721
0.00530073
-0.00631362
-0.00191117
0.00565155
0.00189654
-0.00683074
-0.00234363
0.00559084
-0.00699045
0.00181451
-0.00253108
0.0054784
-0.00701802
0.0017091
-0.00250727
0.00535746
-0.00695542
0.00155608
-0.00238
0.00526763
-0.00689087
0.00147792
-0.00229452
0.00514772
-0.00670559
0.00145435
-0.00225402
0.0050754
-0.00656185
0.00142797
-0.00212624
0.00473359
-0.00619298
0.00131432
-0.00200778
0.00407646
-0.00493592
0.000725525
-0.00177694
0.00524972
-0.00773823
0.00223404
-0.0116682
0.00366788
-0.0260689
0.01368
-0.0220298
-0.0248507
0.0115424
-0.0275347
0.00507601
-0.0780653
0.0411728
-0.0178367
-0.0877817
0.0282755
-0.0890986
0.0230103
-0.117089
0.0201955
0.0131506
-0.13053
0.0156937
0.00378375
-0.137721
0.0146048
-0.00310875
-0.140049
0.0146315
-0.00888754
-0.137486
0.0160309
-0.0154186
-0.129159
0.0196843
-0.0243929
-0.114199
0.0236884
-0.0366365
-0.04581
-0.0400612
0.0253126
-0.066031
-0.00665186
0.00980722
-0.0283528
-0.0208295
-0.0176528
-0.0062059
-0.0161321
-0.0024382
-0.0131736
0.00861222
-0.00954783
-0.00433563
0.00493815
-0.0113742
0.00048287
0.00168861
-0.00649559
0.00140266
-0.00297468
0.00593857
0.00183695
-0.00648232
0.00980921
0.00197511
-0.00596948
0.0127516
0.00168101
-0.00475971
0.0201638
0.00359639
-0.0111886
0.0347306
0.0152642
-0.0301162
0.0300456
0.0322499
-0.0278538
0.025064
0.0213536
-0.0165581
0.0227986
0.0155703
-0.0134536
0.0195828
0.013513
-0.0104332
0.0157771
0.0120959
-0.00840738
0.00952472
-0.00350819
-0.0147152
0.0142954
0.000208139
-0.0183134
-0.00254263
0.018122
-0.0207551
0.0196842
-0.0038566
-0.0215399
0.0213706
-0.00515005
-0.015941
0.021804
-0.00618822
-0.0553371
0.0382121
0.0567476
-0.0239098
-0.0218132
-0.0201507
-0.0451866
0.046481
-0.0191611
-0.00724673
0.025668
-0.0212644
-0.0155504
-0.00759197
0.0196635
-0.0158621
-0.0100371
-0.00723122
0.0183152
-0.0167689
-0.00617099
0.0161998
-0.0152824
0.00586173
-0.00862021
0.00992844
-0.00944802
0.0125804
-0.00869616
-0.0113591
-0.00367074
-0.00282764
-0.00271837
-0.0021522
-0.00110593
-0.00140346
-0.00116383
-0.00199656
0.0021162
-0.00122871
0.00247337
-0.00253805
-0.00193631
0.00278062
-0.00171403
-0.00446544
0.000583012
0.00382392
0.00317803
0.00532937
-0.0155248
0.00294035
-0.000375757
-0.00780202
0.00508891
-0.00564142
-0.000784433
-0.0071789
0.000144705
0.0271148
-0.00881993
-0.0132516
-0.0059368
0.00671157
0.0139711
0.00639062
0.0377659
0.00673309
-0.0378572
0.00907074
-0.0016039
0.0302207
-0.0186793
-0.00242296
0.000334462
-0.00675877
0.00799909
-0.000916685
0.00283509
-0.00321828
0.0159912
-0.00645171
0.0041407
0.0102218
0.00970103
-0.010674
-0.0105867
-0.00679437
-0.00751102
0.00817674
-0.0101017
-0.00217273
-0.00660684
-0.0314266
-0.0189684
0.0413843
0.00641865
-0.000160058
-0.00250249
-0.0686938
0.0333319
-0.00785321
-0.0214189
0.00652812
-0.0201329
0.00394713
0.00317333
-0.000597257
0.00322163
-0.00145131
-0.00260507
-0.000971418
-0.000352711
-0.00219918
0.00146789
0.00252947
0.0016582
-0.0290477
0.0151779
-0.0109656
-0.0109481
-0.0102587
0.0793646
0.0470281
0.0338371
-0.0158811
-0.0150258
-0.0141701
0.0226908
0.0270801
-0.0156119