/*--------------------------------*- C++ -*----------------------------------*\
| =========                 |                                                 |
| \\      /  F ield         | OpenFOAM: The Open Source CFD Toolbox           |
|  \\    /   O peration     | Version:  v2012                                 |
|   \\  /    A nd           | Website:  www.openfoam.com                      |
|    \\/     M anipulation  |                                                 |
\*---------------------------------------------------------------------------*/
FoamFile
{
    version     2.0;
    format      ascii;
    class       volScalarField;
    location    "940";
    object      epsilon;
}
// * * * * * * * * * * * * * * * * * * * * * * * * * * * * * * * * * * * * * //

dimensions      [0 2 -3 0 0 0 0];


internalField   nonuniform List<scalar> 
18258
(
0.0241399
0.0123335
0.0091925
0.00723212
0.0127027
0.0126037
0.0130611
0.0174177
0.0242568
0.0371249
0.053716
0.0482555
0.0436089
0.0453367
0.0474821
0.0450185
0.0350315
0.0302832
0.0397476
0.066499
0.0609598
0.0497596
0.0610957
0.0514536
0.0652953
0.0823275
0.0630545
0.0567852
0.0509679
0.0479136
0.0412918
0.0231637
0.0344905
0.0533532
0.072707
0.0794111
0.0850472
0.0896964
0.0950063
0.0971757
0.0974188
0.0921964
0.0830107
0.0680301
0.0501633
0.0388747
0.0314601
0.0305712
0.0429949
0.0442089
0.0550267
0.0848621
0.107421
0.0806775
0.0517519
0.08237
0.112268
0.143996
0.170507
0.192964
0.20071
0.197325
0.185836
0.169145
0.147734
0.122775
0.101801
0.0848915
0.0671174
0.0573215
0.0463721
0.0384598
0.0328915
0.0292296
0.0270263
0.0253027
0.0241392
0.0250693
0.0249552
0.0177979
0.013999
0.013148
0.00940425
0.00781497
0.00812879
0.00773181
0.00803215
0.00709018
0.00607233
0.00527207
0.00447169
0.00651145
0.00700575
0.00724755
0.00726776
0.00778886
0.00804679
0.00778673
0.00788092
0.0072069
0.00750653
0.0119835
0.0137431
0.0174412
0.0156045
0.0108733
0.00906229
0.0101087
0.010727
0.0133364
0.0125559
0.0133334
0.0118247
0.0108021
0.0091194
0.00885102
0.00908248
0.00965478
0.0100541
0.0116645
0.011497
0.0106666
0.0117955
0.0130132
0.0127396
0.012196
0.0116117
0.0142524
0.0114507
0.0121347
0.0136324
0.0219664
0.0214932
0.0259879
0.0255103
0.0259515
0.0261343
0.0315364
0.0316582
0.0320407
0.0323603
0.0341066
0.0571095
0.0508777
0.0497601
0.0495642
0.0428624
0.0423959
0.0417044
0.0425184
0.0360313
0.0346844
0.0314549
0.0310944
0.0346946
0.0438129
0.0612881
0.0885348
0.122472
0.158808
0.189079
0.210065
0.231792
0.237188
0.251064
0.255757
0.256645
0.250957
0.242544
0.233079
0.220225
0.201659
0.188789
0.148395
0.105033
0.0590482
0.0783649
0.0903466
0.100035
0.101905
0.103051
0.0990131
0.0928618
0.0817761
0.0663859
0.0432414
0.0478672
0.0650646
0.0675598
0.0684196
0.0543622
0.052456
0.0488631
0.0489597
0.0644986
0.073755
0.0619027
0.0853346
0.100358
0.0878625
0.0638029
0.0976335
0.142848
0.0803048
0.0680699
0.0524243
0.0513855
0.0433563
0.0368032
0.0629901
0.0939151
0.128476
0.149312
0.170958
0.188386
0.201626
0.215678
0.18748
0.17038
0.11473
0.200757
0.151825
0.0764914
0.0562234
0.0542053
0.0470058
0.0522544
0.0571649
0.0527023
0.0407207
0.0279334
0.0246095
0.0462775
0.0646293
0.0780995
0.0620442
0.0789486
0.0891578
0.0964782
0.101793
0.129374
0.0954758
0.10552
0.0752037
0.102205
0.072323
0.0464531
0.0522812
0.0998835
0.159526
0.218552
0.255717
0.144838
0.0730311
0.0540451
0.0538571
0.0523026
0.0474651
0.0590955
0.105414
0.0717172
0.0464221
0.040202
0.0474044
0.0418051
0.030989
0.0326565
0.0399604
0.0549755
0.0682208
0.0810515
0.124601
0.121656
0.146864
0.153806
0.129739
0.125676
0.0812815
0.083164
0.122314
0.091333
0.0738304
0.103865
0.147107
0.201274
0.247464
0.287728
0.313491
0.303145
0.274347
0.173576
0.0760086
0.0228938
0.0178026
0.0168508
0.0173248
0.0105267
0.00629879
0.00584837
0.00665967
0.00701128
0.00591425
0.00544433
0.00543552
0.00578024
0.010184
0.00875411
0.0108305
0.0131214
0.01567
0.018715
0.0194431
0.0129008
0.00873225
0.00819452
0.00813024
0.00806133
0.00803187
0.00804331
0.00808326
0.0080984
0.008065
0.00798507
0.00784668
0.00770988
0.00765123
0.0082855
0.0111717
0.0153367
0.0148385
0.0135497
0.0121955
0.0110364
0.00870857
0.0151423
0.0128431
0.0109324
0.013384
0.0164829
0.0208264
0.0244652
0.0176427
0.0141218
0.0127767
0.0126468
0.0125278
0.0125673
0.0124384
0.0124948
0.0122865
0.0128683
0.0135475
0.0169467
0.0189726
0.0211618
0.0226687
0.0232598
0.0239714
0.0211091
0.0229941
0.0227283
0.0235061
0.023325
0.0226372
0.0207149
0.0189169
0.0176898
0.0191008
0.0236594
0.0322906
0.0266891
0.0207114
0.0167576
0.0137066
0.01498
0.0166499
0.0168239
0.0158362
0.0156039
0.015395
0.0138741
0.013081
0.0110804
0.0104731
0.0100196
0.0101772
0.0143723
0.0135068
0.0136938
0.0144158
0.0154998
0.0146609
0.0150911
0.0142545
0.0145042
0.0149271
0.0169992
0.0185509
0.0177957
0.0164867
0.0159885
0.0137201
0.0158218
0.0156785
0.0169986
0.0185815
0.0190738
0.0190114
0.0183755
0.0167823
0.0186709
0.0220355
0.0256862
0.0246897
0.0243649
0.0204287
0.0192325
0.0202079
0.0214823
0.0223845
0.0224427
0.0222469
0.0223115
0.0262685
0.0258511
0.0246663
0.0225979
0.0201528
0.0175073
0.0151155
0.0165863
0.0180641
0.0194523
0.0207204
0.0205093
0.0189784
0.0176204
0.0163916
0.0149032
0.014627
0.0160771
0.0172981
0.0187318
0.0204547
0.0205464
0.0188226
0.0173231
0.0160402
0.0145685
0.0145267
0.0160256
0.0173254
0.0187474
0.0202411
0.0196118
0.0184502
0.0171957
0.0159517
0.0145003
0.0145718
0.0158926
0.0169625
0.0180485
0.0190029
0.0198536
0.017891
0.0169794
0.0170696
0.0160831
0.0192631
0.0185071
0.019447
0.0179978
0.016778
0.0177839
0.0209728
0.0240031
0.0245572
0.0242777
0.020148
0.0206031
0.0205776
0.0191604
0.0159437
0.0153469
0.0181081
0.0208344
0.0212951
0.0199948
0.0169053
0.0132699
0.0142874
0.0174385
0.0197455
0.0184873
0.0183316
0.0169227
0.0158401
0.0161336
0.0138523
0.01659
0.0266182
0.024076
0.0220539
0.0195811
0.0155943
0.0105685
0.011463
0.0126132
0.0130255
0.010528
0.00788918
0.00708747
0.00689779
0.00674275
0.00652697
0.00616117
0.0056063
0.00538285
0.0106676
0.0260248
0.0365387
0.03588
0.0241582
0.0208269
0.0201462
0.0187317
0.00910464
0.00825398
0.00845829
0.0104404
0.00827278
0.00845336
0.014672
0.0101106
0.0138667
0.0107649
0.0146162
0.0229918
0.021831
0.0145205
0.00803926
0.00688781
0.00737227
0.00765566
0.00785598
0.00804913
0.00827879
0.00865998
0.00997225
0.0156636
0.0202239
0.0176921
0.0167011
0.0152353
0.0187621
0.0212421
0.0231821
0.0259497
0.0160574
0.0117519
0.0165926
0.0271796
0.0246603
0.0231985
0.0170829
0.0176271
0.0170719
0.0109782
0.0106379
0.0105572
0.0113659
0.0127452
0.014666
0.0158292
0.0165795
0.0169089
0.0178164
0.0230923
0.0216091
0.0210977
0.0173304
0.0133216
0.015349
0.0514245
0.0195231
0.0206334
0.0188766
0.0191553
0.0204442
0.0151625
0.0135231
0.0129327
0.014618
0.0214862
0.0214946
0.0213556
0.0182224
0.0174375
0.0208538
0.0219439
0.0223482
0.0217284
0.021281
0.0194222
0.0166556
0.0180854
0.0196006
0.0207841
0.0227859
0.0231282
0.0179041
0.0171839
0.0158012
0.0105163
0.011258
0.0097013
0.00967184
0.00963686
0.009361
0.00891617
0.00920557
0.00932305
0.00932077
0.00897717
0.00926995
0.00833655
0.00866843
0.00975592
0.0151954
0.0147643
0.0175643
0.0194789
0.0167261
0.0155675
0.0142061
0.0131843
0.0154313
0.0142676
0.0168422
0.0211837
0.0264603
0.0190945
0.0180966
0.0178726
0.0174656
0.0173097
0.0173602
0.0166722
0.0156754
0.0151113
0.0235632
0.0212703
0.0181495
0.0172009
0.0157686
0.0180153
0.0174588
0.0213454
0.0268123
0.027016
0.0215124
0.0215896
0.0189438
0.0200481
0.0222283
0.0270516
0.026974
0.0144173
0.0095865
0.0154178
0.0157568
0.0183656
0.0169844
0.0185101
0.0196882
0.0204109
0.0202684
0.0176729
0.0188423
0.0196286
0.0206124
0.0185634
0.0165605
0.0173476
0.0161286
0.0152318
0.0147368
0.0126676
0.0129075
0.0138736
0.0153207
0.0162625
0.0177529
0.0194036
0.0194357
0.0201002
0.0196946
0.0190981
0.0251785
0.0239422
0.0254836
0.0281829
0.022407
0.0177888
0.0146723
0.0149822
0.0147488
0.0146567
0.0154037
0.0167605
0.0151397
0.0145237
0.017026
0.0193776
0.024637
0.0329626
0.0286933
0.0261518
0.0331772
0.0313624
0.0381795
0.0286326
0.0281183
0.0208266
0.0262662
0.0304968
0.0391534
0.0254801
0.0209321
0.0223995
0.0255317
0.0347588
0.0327572
0.0331039
0.0411483
0.0399202
0.0361842
0.0311626
0.0353067
0.0212188
0.0301687
0.0321938
0.0268047
0.0256778
0.0307031
0.031035
0.0329786
0.0283591
0.0267445
0.0178901
0.0273961
0.0313314
0.0330237
0.0277758
0.0205203
0.0279818
0.0205241
0.0191614
0.0202742
0.0137586
0.0127084
0.0147783
0.0138507
0.0111819
0.0121208
0.0111338
0.0111134
0.0111865
0.0112926
0.0114145
0.0116576
0.0116086
0.0125826
0.0132653
0.012529
0.01151
0.0122056
0.0126186
0.0161245
0.0182143
0.0204858
0.0220829
0.0229221
0.0240511
0.0226683
0.0248252
0.02376
0.0252046
0.0249026
0.0238456
0.0213511
0.0187406
0.0163951
0.0170472
0.0207864
0.0274732
0.022516
0.0174339
0.0141071
0.0116817
0.0129686
0.0162812
0.00880944
0.00806274
0.00778884
0.00764277
0.00757111
0.00681178
0.00592202
0.00704459
0.0124828
0.0160238
0.0202881
0.0260545
0.0322801
0.0377063
0.041866
0.0448569
0.0467156
0.0472266
0.0444031
0.033531
0.0286942
0.0244987
0.0201523
0.0163614
0.0166972
0.0243505
0.0320241
0.0396049
0.0463019
0.0513166
0.0494042
0.0331204
0.0298753
0.0460713
0.0777151
0.0735065
0.0966908
0.110478
0.0623847
0.0461607
0.0452132
0.0622054
0.0649024
0.0568078
0.0467205
0.0363571
0.0260858
0.0305881
0.0350937
0.0395038
0.0441795
0.0585896
0.0614696
0.0601162
0.0573859
0.0537654
0.0487751
0.0415981
0.0329859
0.0248183
0.0186214
0.0137323
0.00793251
0.0076866
0.00780179
0.0073393
0.00816375
0.00814972
0.00887711
0.00860745
0.00885405
0.00868138
0.00876414
0.00779603
0.00694248
0.0103625
0.00974414
0.00979278
0.0105613
0.0136375
0.0104326
0.00761802
0.0071898
0.0071801
0.00755269
0.0164802
0.0251243
0.0305312
0.0351721
0.0388101
0.0374957
0.0340144
0.0282645
0.0218999
0.019704
0.0166131
0.0141676
0.0130037
0.0143701
0.0118014
0.00577817
0.00519453
0.00573772
0.00557412
0.00509455
0.00614612
0.00685153
0.00747768
0.00791104
0.00822832
0.00829156
0.00823024
0.008139
0.00809311
0.00807056
0.00803867
0.00796922
0.00786841
0.00772055
0.00757892
0.0075108
0.00810334
0.0107258
0.0146663
0.0144255
0.0133063
0.012192
0.0113266
0.00960374
0.0154742
0.0131296
0.011011
0.010186
0.0100501
0.0103547
0.0113253
0.0129496
0.0138616
0.0158642
0.0159034
0.0157925
0.0160945
0.015887
0.0133398
0.01514
0.0177724
0.0185861
0.0191843
0.0189569
0.0174134
0.0194397
0.0205902
0.0200538
0.0194526
0.0166901
0.0194655
0.0233309
0.023765
0.0240063
0.0213205
0.0184695
0.0216497
0.0228317
0.0224733
0.0233818
0.0216946
0.0224461
0.0277539
0.0144916
0.0135466
0.00825538
0.00895581
0.00927255
0.00905909
0.0087846
0.00915589
0.00940507
0.00909254
0.00977206
0.0100748
0.00933032
0.0118388
0.0109468
0.0106305
0.0100249
0.0104069
0.0109322
0.0112127
0.012504
0.019957
0.0205127
0.0184991
0.0211732
0.0217378
0.018148
0.0206877
0.0215786
0.0219418
0.0223175
0.0237559
0.022234
0.0245432
0.0238435
0.0223592
0.0216093
0.0384081
0.0253134
0.016688
0.0154508
0.0151164
0.0151729
0.0170881
0.012782
0.0143342
0.01009
0.00874645
0.00839645
0.0081313
0.00835523
0.0109045
0.0165542
0.0250497
0.0281298
0.0270681
0.0236529
0.017993
0.0132301
0.0129598
0.01169
0.0109439
0.0108233
0.00719394
0.00512199
0.00655115
0.0066054
0.0072014
0.00762396
0.00796939
0.00822951
0.00837352
0.00844799
0.00853125
0.00864798
0.00877266
0.00887734
0.00895653
0.00901039
0.00906702
0.0091809
0.00948127
0.0106804
0.0153487
0.0197726
0.0186558
0.0171874
0.0158722
0.0166396
0.0173981
0.0181313
0.0223336
0.0191801
0.022094
0.020763
0.0197794
0.0183665
0.0190892
0.0208913
0.0166485
0.0165788
0.0113235
0.00989624
0.00952755
0.00932242
0.00916461
0.00900812
0.00884987
0.00870703
0.0085699
0.00844878
0.008352
0.008256
0.00811525
0.00787281
0.00747161
0.00704401
0.00611965
0.00669348
0.00741521
0.00841674
0.00951806
0.0100357
0.00947555
0.00875451
0.00846417
0.0086015
0.0087744
0.00896275
0.00917839
0.00948068
0.00993993
0.010904
0.0115669
0.0162495
0.0169848
0.0202861
0.0200889
0.0179829
0.0173335
0.0189372
0.0174436
0.0127024
0.0174673
0.0169988
0.0212473
0.0157467
0.0148508
0.0152508
0.0157319
0.0184203
0.0173319
0.0158525
0.0158062
0.0127308
0.0143042
0.0163017
0.0177952
0.0280599
0.0274899
0.0346259
0.0345259
0.0597144
0.0567899
0.0500727
0.0541744
0.0238426
0.0467626
0.05467
0.0497719
0.0431984
0.0275307
0.0440781
0.0671633
0.0975166
0.0702684
0.0574858
0.107026
0.0774972
0.0376747
0.0267242
0.0150816
0.015152
0.025186
0.0292639
0.0242627
0.0234059
0.0336561
0.0350243
0.0281957
0.0288802
0.0312653
0.0301963
0.032685
0.028286
0.0275824
0.0156106
0.0128103
0.0138432
0.015576
0.0165749
0.0160576
0.0169034
0.0175826
0.0161428
0.015118
0.0145585
0.0124926
0.013235
0.0162257
0.0204508
0.0239639
0.0172992
0.0138948
0.012591
0.0123959
0.0121694
0.0120521
0.0117339
0.0115513
0.0110852
0.0112965
0.00984832
0.00986416
0.0103982
0.0105559
0.0107546
0.0109075
0.0110259
0.011135
0.0120071
0.0187956
0.026008
0.0208114
0.0164963
0.0140137
0.0152013
0.0171246
0.0210309
0.0264621
0.0178704
0.0176924
0.0115336
0.0107514
0.0105478
0.0103827
0.0102368
0.0101457
0.0102118
0.010214
0.0119379
0.0115182
0.0133984
0.0144856
0.0119849
0.0115685
0.0111114
0.0108375
0.0106904
0.0106152
0.0107126
0.0115805
0.0114152
0.0104797
0.0103774
0.0104892
0.0106949
0.0110111
0.011454
0.0119567
0.0128619
0.0126248
0.0112018
0.0112623
0.0106196
0.0103137
0.0100777
0.0100484
0.0100919
0.0102256
0.0104407
0.0113486
0.0171563
0.0173343
0.026681
0.0266622
0.0211947
0.0177168
0.0155598
0.0143055
0.0135734
0.0353937
0.0310654
0.0491874
0.0392478
0.0314225
0.051063
0.0726836
0.0564292
0.0920021
0.0993822
0.0731418
0.0662125
0.0210463
0.01602
0.015476
0.0169664
0.0186605
0.0212989
0.0218957
0.0267214
0.028832
0.0172165
0.0165348
0.0156041
0.0249325
0.0231028
0.0197169
0.0178299
0.016443
0.0189971
0.0207932
0.0150009
0.0150438
0.0096983
0.0107022
0.0104505
0.0101171
0.0100076
0.00994005
0.00998091
0.0100839
0.0103693
0.010863
0.0112313
0.0113532
0.0115971
0.0113845
0.0111061
0.010775
0.0105795
0.0103883
0.0102353
0.0101204
0.0101602
0.010483
0.0106324
0.00933275
0.00967381
0.00977796
0.00978775
0.0098199
0.00978942
0.00966176
0.00946894
0.00928816
0.00909313
0.00914522
0.00997665
0.0101201
0.010186
0.0100387
0.00992664
0.0099178
0.00985201
0.00983326
0.00981653
0.00968521
0.00936494
0.00863716
0.0084934
0.00910271
0.00945605
0.00964457
0.00973675
0.00972171
0.00966218
0.00942539
0.00924242
0.00902738
0.0086876
0.00825076
0.00684393
0.00709936
0.00744801
0.00793061
0.00842896
0.00886647
0.00915965
0.00931341
0.00940026
0.00931841
0.00902921
0.00850468
0.00845291
0.0088423
0.00902217
0.0089837
0.00872819
0.00833002
0.00777574
0.00708341
0.00640902
0.00588647
0.00562876
0.0052306
0.00661481
0.00719662
0.00774603
0.00826146
0.00875287
0.00927763
0.00948749
0.0095479
0.00951861
0.0093532
0.00901322
0.00847853
0.00848902
0.00897298
0.00929276
0.00942682
0.00941643
0.00922405
0.00880399
0.00788652
0.00706896
0.00640955
0.00582231
0.00523827
0.00506023
0.00531176
0.00510604
0.00533472
0.00592457
0.00673013
0.0075069
0.00810362
0.00852282
0.00870222
0.00864968
0.00839818
0.00830221
0.00842627
0.00837147
0.00807013
0.00750719
0.006765
0.00596136
0.00532066
0.00512103
0.00543518
0.0057673
0.00546226
0.00439705
0.00494264
0.00550109
0.00610148
0.00702587
0.00821455
0.00881844
0.00914203
0.00930008
0.00922913
0.00893208
0.00848497
0.00846732
0.00889747
0.00918609
0.00923789
0.00910035
0.0088046
0.00829688
0.0068569
0.0053841
0.00475522
0.00440503
0.00396622
0.00554016
0.00589802
0.00547858
0.00520843
0.00564919
0.00620424
0.00684356
0.00736802
0.00780034
0.00810565
0.00820723
0.00817517
0.00804355
0.00804709
0.00799101
0.00778122
0.00752019
0.0072961
0.00684801
0.00638986
0.00586799
0.00641998
0.0067059
0.00628347
0.00468221
0.00497244
0.00541604
0.0057046
0.00716377
0.00859686
0.00900802
0.00915642
0.00929493
0.00922107
0.0088954
0.0084466
0.00843058
0.00896152
0.00937248
0.00951633
0.00962169
0.0097273
0.00982262
0.00866758
0.00674591
0.00626678
0.00528877
0.0048326
0.00660039
0.0070222
0.00683278
0.0065695
0.00750301
0.00789869
0.00804966
0.00807491
0.00810173
0.00808448
0.00799627
0.00792759
0.0078133
0.00825333
0.00888761
0.00878445
0.00867847
0.00851195
0.0081464
0.00769456
0.00718295
0.00784808
0.0083921
0.00812064
0.00598289
0.00635632
0.00721302
0.00741353
0.00897393
0.0101784
0.0105202
0.0105115
0.01039
0.0103555
0.0093301
0.00839388
0.00824176
0.00960734
0.0156053
0.015442
0.0154747
0.0154007
0.0148172
0.0146437
0.0140675
0.0138059
0.0130956
0.0126339
0.0119445
0.0139886
0.017761
0.0198697
0.0222519
0.0247655
0.0233689
0.0188452
0.0165934
0.0101298
0.00799
0.00688991
0.00597154
0.00527605
0.00507074
0.00754656
0.00942646
0.0116221
0.0136016
0.0139296
0.0163803
0.0203548
0.0309898
0.0492389
0.0415509
0.0391968
0.0394547
0.0975163
2.54681
2.72201
2.48765
2.89494
3.33849
0.391895
0.151887
0.283912
0.3028
0.337891
0.314748
0.283157
0.257996
0.263925
0.253191
0.261703
0.243588
0.252842
0.2211
0.228805
0.239649
0.724257
1.06116
1.27559
1.77624
1.77085
1.99574
1.93988
1.95437
1.80264
1.91711
1.66577
1.38105
1.30553
1.23374
1.32424
1.43941
1.24896
1.13247
1.01629
0.925534
0.79369
1.00643
0.763856
0.722288
0.721182
0.753812
1.00474
0.916468
1.05447
0.975195
1.01305
0.610766
0.687638
0.503148
0.419494
0.347279
0.423536
0.571958
0.76336
0.954668
0.728384
0.990113
0.911739
0.902503
0.857718
0.779788
0.739629
0.726314
0.747185
0.759861
0.775328
0.803586
0.825173
0.844476
0.996512
1.06319
1.05546
0.865041
0.772987
0.53493
0.573078
0.607023
0.610112
0.568145
0.550622
0.501102
0.48874
0.444575
0.425245
0.38745
0.367918
0.335798
0.463593
0.791436
0.821019
0.891505
0.943815
0.994576
1.01592
1.03365
1.01616
0.982741
0.910917
0.878535
0.814212
0.923049
1.10858
1.10538
1.0151
0.862247
0.816282
3.81195
4.63747
3.06761
6.61895
10.0713
16.8981
7.65749
2.07369
3.46978
2.38451
2.11644
2.06385
2.18048
3.439
2.51717
3.29066
2.7572
2.90668
2.32005
2.5746
2.45076
1.87647
1.57867
1.33609
1.21486
0.976793
0.968395
0.784202
0.729086
0.667278
0.55521
0.687332
0.709569
1.7366
2.34172
2.91512
4.56709
5.00408
5.46293
8.59854
6.93273
8.65166
5.13185
5.18978
3.83545
3.60605
3.64474
5.01279
7.1833
4.94416
8.63964
4.81083
15.6167
34.946
9.20673
19.0571
10.9878
9.93065
9.56791
9.8561
14.018
9.58067
15.5739
13.2343
17.6568
17.3647
18.351
14.2174
10.5604
11.5879
12.472
15.9578
11.3065
13.0454
9.8971
9.65915
9.00465
7.44148
6.59055
5.06537
6.01847
7.04407
8.03299
12.7838
15.9793
18.3281
22.0787
16.2626
18.5279
11.1455
12.2498
9.45618
8.87373
9.01008
11.8571
21.0191
14.8857
27.2564
0.498846
0.226275
0.546728
0.229977
0.487571
0.391061
0.403645
0.404614
0.400384
0.462191
0.220642
0.185397
0.177567
0.175397
0.176908
0.10031
0.124545
0.0804658
0.126969
0.22949
0.504976
0.366046
0.140603
0.0826315
0.0546292
0.0429781
0.0635125
0.0613142
0.098056
0.0994282
0.105793
0.132435
0.229001
0.435367
31.9478
7.14426
1.13833
0.534912
0.283441
0.173978
0.15091
0.170603
0.183598
0.186633
0.175727
0.149998
0.10842
0.0725789
0.0492993
0.0417633
0.0304439
0.0274266
0.0390373
0.0528871
0.0490907
0.0648677
0.0833181
0.106119
0.130333
0.149603
0.164092
0.168101
0.15612
0.122209
0.0804206
0.0443507
0.0265379
0.0228914
0.0209622
0.0194638
0.0168151
0.014612
0.0131824
0.0112619
0.00992555
0.00895485
0.00864133
0.0087643
0.00956533
0.0120997
0.0145618
0.0188554
0.0179763
0.0134599
0.0126191
0.00781747
0.00722845
0.00737734
0.0076296
0.00845518
0.0132271
0.0135336
0.0134104
0.0134336
0.0132497
0.0132259
0.0130547
0.0128797
0.0126593
0.0122346
0.0119441
0.0114222
0.0111411
0.0104801
0.0105067
0.0108644
0.0111638
0.0101019
0.00999044
0.00931032
0.020571
0.0490007
0.0701671
0.0786481
0.0884534
0.0811474
0.0419825
0.0230629
0.00789437
0.00767464
0.00817518
0.00880491
0.0083627
0.00617649
0.00672344
0.00788787
0.0110817
0.0110447
0.0110788
0.0129354
0.013482
0.014853
0.0154051
0.015798
0.0160309
0.0159727
0.016108
0.0158284
0.0159254
0.0157228
0.0158137
0.0154082
0.0273519
0.0257591
0.0264887
0.0265175
0.0277099
0.0271819
0.0266699
0.0256728
0.0249511
0.0234111
0.0218127
0.0202155
0.0180948
0.0188235
0.0181575
0.0112987
0.0107155
0.00766923
0.00772533
0.00742917
0.010215
0.0092907
0.00780621
0.00915968
0.00672421
0.00690821
0.00724723
0.0103369
0.0108692
0.0173323
0.017359
0.0153949
0.0163899
0.0174331
0.0187768
0.0199447
0.0213802
0.0223905
0.0234931
0.025408
0.0258444
0.0241044
0.0237676
0.0226475
0.0245741
0.0235399
0.0218115
0.0233891
0.0250255
0.0275499
0.0272077
0.0250123
0.0236789
0.0222566
0.0199244
0.0172787
0.0158832
0.0148608
0.0148653
0.0138084
0.0160845
0.0144829
0.0100832
0.0105615
0.00816376
0.00633733
0.00601384
0.00921422
0.01319
0.0281966
0.0176147
0.00948537
0.0108278
0.017456
0.0365075
0.0218683
0.0356043
0.0148214
0.0165287
0.0125438
0.0125331
0.0138144
0.0161077
0.0172153
0.0208857
0.0235666
0.0255716
0.0264955
0.0278268
0.0282234
0.0296514
0.0301026
0.0328461
0.0331102
0.0331693
0.0327047
0.030324
0.0272666
0.0250857
0.031027
0.0359331
0.0392114
0.0416304
0.0440768
0.0427864
0.0390306
0.0381448
0.0362068
0.0350763
0.0336576
0.0305334
0.0266937
0.0218887
0.0212747
0.0272714
0.0330122
0.0492794
0.0533041
0.0530406
0.0553525
0.0558697
0.0576371
0.0580863
0.0607543
0.0613389
0.0625139
0.0628562
0.0681568
0.0690576
0.070072
0.0704016
0.0700972
0.0710661
0.0710936
0.0483254
0.0433262
0.0392925
0.0326209
0.0273108
0.0346599
0.0431928
0.0483954
0.0738616
0.0743157
0.0780413
0.0806586
0.0856276
0.089322
0.0942237
0.0987101
0.103114
0.106509
0.108555
0.108842
0.109294
0.108294
0.106983
0.115706
0.150296
0.166882
0.197653
0.212755
0.225196
0.229013
0.220462
0.224367
0.216414
0.21904
0.212967
0.211094
0.205961
0.199683
0.196191
0.189896
0.185862
0.214096
0.162156
0.124497
0.0828011
0.0665514
0.0598591
0.0565041
0.0588732
0.045748
0.0392036
0.058293
0.0539354
0.0434846
0.0295708
0.0188242
0.031912
0.0475416
0.0644686
0.0817009
0.0974462
0.107729
0.110282
0.10918
0.104467
0.0966558
0.081522
0.061446
0.0422761
0.0348833
0.0321928
0.028214
0.0222443
0.0178737
0.0157477
0.014155
0.0123817
0.0111278
0.010573
0.0107282
0.0110386
0.013237
0.0173198
0.0173109
0.0116038
0.011157
0.00767562
0.00776352
0.00802022
0.0133437
0.0134868
0.0209136
0.0233545
0.0219939
0.0226776
0.022407
0.0226941
0.0223281
0.021136
0.0202964
0.0193313
0.0184883
0.0177464
0.016923
0.0161183
0.0174245
0.0163747
0.0138136
0.0139355
0.0145513
0.0151963
0.0160831
0.0173356
0.0184131
0.0211128
0.0212946
0.020801
0.0208986
0.0194326
0.0187223
0.0199779
0.0195078
0.0132907
0.0131169
0.0191462
0.0187978
0.0186798
0.0224961
0.0209062
0.021427
0.0225517
0.0224311
0.0194858
0.0181257
0.0165792
0.0153974
0.0140201
0.0125057
0.012124
0.0148554
0.0130735
0.0107413
0.0119409
0.0143468
0.0169581
0.0184205
0.0204062
0.0231213
0.0240917
0.0263253
0.0277448
0.0298402
0.0306804
0.0355022
0.0361744
0.0340428
0.032198
0.031205
0.0274381
0.0235027
0.02592
0.0267841
0.0271594
0.0272578
0.0271301
0.0235423
0.0231092
0.0215928
0.0210758
0.0195088
0.0189485
0.0177854
0.0170241
0.0160016
0.0141738
0.0134584
0.0126442
0.0122911
0.0173495
0.0108287
0.0105787
0.015976
0.0098387
0.0115771
0.0113285
0.0118506
0.0125073
0.0103417
0.0151288
0.0103141
0.011213
0.0114512
0.0143745
0.00996901
0.0209025
0.0642674
0.0929852
0.111908
0.203306
0.243611
0.263923
0.284643
0.298795
0.3148
0.332361
0.350078
0.363172
0.364645
0.338976
0.320458
0.255418
0.228697
0.25256
0.282832
0.195043
0.167332
0.169637
0.170512
0.173123
0.174411
0.178095
0.176082
0.181202
0.176857
0.184192
0.178186
0.184719
0.177261
0.161825
0.145154
0.112474
0.101679
0.065579
0.0507794
0.039723
0.0288236
0.0209939
0.0188366
0.0178218
0.0164607
0.0165436
0.0126777
0.0131079
0.00839783
0.00616866
0.00986352
0.00970145
0.00722078
0.00983225
0.0112327
0.0117492
0.0122876
0.0125796
0.0192394
0.0192796
0.0247036
0.0245965
0.0291702
0.0347765
0.0360124
0.0396601
0.05701
0.0575166
0.0572612
0.0570664
0.0566324
0.0493949
0.0491127
0.0480043
0.0474158
0.0444746
0.0439194
0.0418427
0.0407064
0.0377692
0.0369456
0.0358173
0.0362703
0.0405533
0.0557037
0.098645
0.0294385
0.0280181
0.0205789
0.0145481
0.0213617
0.0158897
0.0154289
0.0136056
0.0186792
0.0134421
0.013692
0.0164967
0.0170152
0.0164177
0.0214232
0.0266784
0.0234027
0.025862
0.116569
0.0751574
0.0244722
0.0482629
0.0717185
0.15765
0.204198
0.139897
0.159814
0.184015
0.166993
0.140145
0.109515
0.0816171
0.05793
0.0446772
0.0113463
0.0133652
0.0185187
0.040936
0.0607396
0.10131
0.083381
0.108997
0.149019
0.173557
0.209621
0.201106
0.172933
0.148771
0.145345
0.16052
0.16275
0.105347
0.102271
0.0774765
0.173775
0.219167
0.184565
0.231823
0.244549
0.143444
0.0317791
0.0183518
0.015106
0.0139047
0.0124248
0.0193772
0.011443
0.0116342
0.0123477
0.0132645
0.0169306
0.0294035
0.0134192
0.0149096
0.018336
0.01589
0.0149392
0.0146254
0.0145415
0.0151717
0.0165376
0.0215723
0.0216451
0.0212813
0.01597
0.0172618
0.015677
0.0199808
0.0211791
0.0332636
0.0152397
0.0161814
0.0214677
0.477414
0.0246037
0.0178054
0.0231966
0.0218622
0.0300778
0.0440591
0.458613
0.0440745
0.0350869
0.0585649
0.0608255
0.0654729
0.0691407
0.0726495
0.0751721
0.0791198
0.0817859
0.0830147
0.0842382
0.0999565
0.0999657
0.0989055
0.103504
0.0976472
0.0576861
0.0579068
0.0974795
0.105218
0.0594556
0.0410632
0.0385597
0.0312548
0.0323927
0.0419453
0.0440098
0.0616964
0.0615256
0.102612
0.0935704
0.0949662
0.0967004
0.0916879
0.0921476
0.0942112
0.0941662
0.0753566
0.0730551
0.0712959
0.0682376
0.0646982
0.0617988
0.058902
0.0558449
0.0532733
0.0534367
0.0582984
0.0583698
0.0661642
0.0734316
0.22323
0.151612
0.108206
0.0801553
0.0651552
0.0589426
0.0584684
0.0616278
0.0648547
0.0665166
0.0673218
0.0706771
0.0924452
0.0948914
0.0977616
0.0952068
0.0990431
0.097107
0.094645
0.104555
0.112401
0.0656985
0.0677817
0.0478644
0.0446684
0.0325925
0.033161
0.023658
0.0196105
0.0195856
0.019566
0.0198018
0.0226986
0.0317391
0.031838
0.046529
0.0464248
0.0518532
0.0754736
0.0725183
0.129318
0.118502
0.108815
0.101468
0.101842
0.10396
0.106546
0.10153
0.0977738
0.0922158
0.0724201
0.068425
0.0662889
0.0650375
0.063791
0.0673394
0.0909301
0.147481
0.225865
0.331868
0.432961
0.443358
0.401291
0.250846
0.29072
0.144678
0.165091
0.187187
0.162475
0.171628
0.320158
0.266346
0.377241
0.482652
0.536671
0.60334
0.640656
0.629068
0.499843
0.324989
0.332536
0.442424
0.770354
0.863913
0.745077
0.763019
0.659641
0.541494
0.523066
0.498398
0.562413
0.613463
0.578936
0.596001
0.540113
0.51574
0.445661
0.497326
0.363377
0.32729
0.307659
0.298802
0.358044
0.289712
0.326292
0.268165
0.274379
0.222928
0.228438
0.190713
0.145999
0.138402
0.128297
0.143628
0.162785
0.149118
0.153484
0.134011
0.114504
0.0911884
0.0984524
0.0735448
0.0695774
0.0707074
0.0806319
0.126512
0.370162
0.17366
0.163634
0.1677
0.178008
0.319166
0.28276
0.724842
0.508106
0.710966
0.474985
0.563847
0.471823
0.363987
0.379581
0.419538
0.600272
0.823817
6.65919
0.284839
4.26707
3.16733
3.32561
3.47108
4.4489
7.81338
7.11274
9.39771
6.80801
9.08326
4.97533
4.97673
4.32586
4.47117
4.43896
4.2624
5.19691
6.63981
0.238691
0.0909871
0.0854265
0.0856078
0.0873842
0.197733
0.0525641
0.202015
0.053968
0.213478
0.0495258
0.246679
0.196907
0.0382398
0.0192587
0.020091
0.0168075
0.0203757
0.016923
0.0250471
0.0235422
0.0236996
0.0265884
0.076283
0.292147
13.8093
1.66261
0.693846
0.793226
1.18737
0.807107
1.20755
1.67698
1.12853
0.563457
0.369226
0.435441
0.52635
0.502567
0.641197
0.923016
0.903239
0.710146
0.714236
0.629539
0.888465
0.897415
1.06366
1.24204
1.13665
0.890969
0.702108
0.593771
1.02289
1.02813
0.961417
0.407366
0.114894
0.0469365
0.0492013
0.0357228
0.0377152
0.0348162
0.0551504
0.16118
0.221465
0.133532
0.430829
0.415652
0.565763
0.403792
0.4136
0.326697
0.350895
0.535255
0.584766
0.6446
0.67587
0.726553
0.671002
1.28825
2.2055
2.49505
12.8517
17.425
3.20426
3.09889
13.9539
0.315068
0.0839081
0.0233181
0.0174315
0.0162172
0.01613
0.0150011
0.0155386
0.0160002
0.0169642
0.01883
0.0231979
0.0458393
0.201501
0.203474
0.0643557
0.032435
0.0229727
0.0196176
0.0170472
0.0163877
0.0155321
0.0154598
0.0150085
0.0156583
0.0174651
0.0237834
0.0774529
0.271144
11.3355
2.44009
2.25896
8.38822
5.79865
0.206813
0.0438055
0.0200963
0.0169277
0.0158846
0.0167548
0.0162664
0.0182122
0.0184033
0.0230181
0.0250243
0.0317723
0.0570936
0.110228
0.31572
9.59733
8.6672
8.39051
7.82536
0.310343
0.115259
0.0544122
0.0382384
0.0346292
0.0338234
0.0226511
0.0236763
0.0189838
0.0216439
0.0182969
0.0226867
0.0483248
0.211984
5.35612
1.57333
1.70433
1.21109
0.61402
0.656692
0.670589
0.690144
1.77667
4.06296
4.9957
3.43169
3.36451
4.71195
3.17424
2.4843
1.8311
1.74952
2.54868
1.9655
1.82765
1.35838
1.46804
1.06905
1.46887
0.812221
0.978183
1.0744
1.53325
1.39927
1.41221
0.909733
1.05196
1.47726
1.72764
1.65143
0.845111
1.22867
1.01543
0.655687
0.608293
0.634817
0.604569
0.579197
0.57601
0.580462
0.559355
0.576791
0.556965
0.589011
0.548611
0.533764
0.507921
0.527637
0.545104
0.577745
0.360302
0.422678
0.427203
0.441672
0.454137
0.375183
0.451322
0.442183
0.659642
0.995793
0.835297
1.15318
0.679886
1.00454
2.00937
5.21277
2.3491
0.820561
1.34912
1.58487
1.14023
0.628896
2.5546
3.5621
1.23146
1.78624
10.3881
8.43603
16.5194
10.9726
18.6343
6.03755
4.6367
17.8064
6.67685
6.913
4.51706
4.52323
2.9606
1.58632
1.63
1.74297
1.22816
1.30086
1.21094
1.13466
1.47571
1.44113
1.88775
2.03689
2.57969
1.81314
1.7772
2.60043
1.06464
1.40122
1.83916
1.83115
1.36134
2.34433
3.15949
2.97106
2.14128
2.33835
3.50637
4.82062
4.58006
3.17102
3.96958
10.1355
13.5258
13.6917
4.22578
19.3223
18.3116
2.07966
0.567001
0.324781
0.0896068
0.0445318
0.0366495
0.0386946
0.14367
0.0458179
0.0570648
0.0455414
0.0731511
0.0698684
0.0872975
0.218357
0.126649
0.216375
0.155758
0.190291
0.121433
0.194181
0.227652
0.237627
0.189269
0.116136
0.213821
0.307805
0.106418
0.355632
0.391122
0.261212
0.333594
0.39735
0.197307
0.995996
0.185472
0.127358
0.147051
0.394005
1.26166
0.218893
0.462192
4.48183
14.7235
3.68444
0.939395
0.681256
0.0555234
0.0301235
0.0318145
0.0278697
0.019399
0.0840048
0.0987261
0.405136
0.208505
0.278466
0.662406
2.9312
2.40139
1.12805
5.49556
10.2826
15.1614
9.14106
2.23608
9.77264