/*--------------------------------*- C++ -*----------------------------------*\
| =========                 |                                                 |
| \\      /  F ield         | OpenFOAM: The Open Source CFD Toolbox           |
|  \\    /   O peration     | Version:  v2012                                 |
|   \\  /    A nd           | Website:  www.openfoam.com                      |
|    \\/     M anipulation  |                                                 |
\*---------------------------------------------------------------------------*/
FoamFile
{
    version     2.0;
    format      ascii;
    class       surfaceScalarField;
    location    "940";
    object      phi;
}
// * * * * * * * * * * * * * * * * * * * * * * * * * * * * * * * * * * * * * //

dimensions      [1 0 -1 0 0 0 0];
oriented        oriented;


internalField   nonuniform List<scalar> 
50655
(
0.00258004
-0.00360894
-0.00139952
-0.00513011
0.00134406
0.00362493
-0.00340908
0.00390833
0.0044927
-0.00249837
-0.00281584
0.00302643
-0.0036985
-0.00377865
0.00268627
-0.00178625
-0.00483473
0.000832853
0.000176134
-0.00469444
0.00162202
-0.00183288
-0.00720015
0.00241817
-0.0104914
0.00284939
0.000343119
-0.0113148
-0.00346873
0.00418213
-0.0120656
-0.004848
0.00549639
-0.0129249
-0.00564085
0.00639595
-0.0262099
-0.00932461
0.0224157
-0.048734
-0.0282833
0.0502471
-0.0483056
-0.0527549
0.0516293
-0.0310716
-0.071151
0.0531391
-0.00453736
-0.078006
0.0506888
0.00789867
-0.0546796
0.0414322
-0.00163185
-0.0314687
0.0402263
-0.0208339
-0.0217366
0.0401719
-0.0166973
-0.0512699
0.0464109
-0.00688532
-0.0550598
0.0446901
-0.0386041
0.0313897
-0.0409065
0.0188314
-0.0168302
-0.015584
-0.0755077
0.0496904
0.0203368
-0.0797427
0.0433254
0.0305648
-0.0290725
0.0185375
0.0339942
-0.00376679
0.0364048
0.0179438
-0.0206769
0.0252327
-0.0179348
0.0288311
0.0162952
-0.00948424
0.0182526
0.00319167
-0.00130777
0.0142843
-0.0065642
0.00671657
0.00294402
-0.00543204
1.21329e-05
-0.00118499
-0.00539615
-0.00127693
0.00122265
-0.00632123
0.000276661
0.000631132
-0.00759375
0.000267582
0.000988336
-0.00874796
0.000145574
0.000991505
-0.00914954
-0.000199406
0.00058462
-0.00942161
-0.000614448
0.000869924
-0.00898423
-0.00103916
0.0005855
-0.0083609
-0.00150283
0.000862826
-0.00713569
-0.00194633
0.00070469
-0.005713
-0.00240549
0.000965934
-0.00383457
-0.002706
0.000811387
-0.00199369
-0.00289961
0.00104178
0.000879224
-0.00289051
0.000629552
-0.00257023
0.00279426
-0.00534332
0.0050511
0.000880004
-0.010767
0.00480441
0.000562717
-0.0129584
0.00521526
-0.0030908
-0.0128734
0.00541494
-0.00556691
-0.00538834
0.00467499
-0.0122165
0.000517259
0.00561912
-0.0115665
0.000602868
0.00357679
-0.00368804
-0.00150251
0.00208779
-0.00294844
0.00214228
-0.000713481
-0.00450677
0.00218952
-0.000647346
-0.0058196
0.00234772
-0.00105128
-0.00708613
0.00230461
-0.00105303
-0.00858769
0.00249628
-0.00100874
-0.0101541
0.00258222
-0.00102925
-0.01145
0.00237446
-0.00109166
-0.0123528
0.00201253
-0.00112278
-0.0128198
0.00159864
-0.00114461
-0.0131365
0.00143204
-0.00112861
-0.0137383
0.00155878
-0.000971268
-0.0139445
0.00111611
-0.000924912
-0.0136507
0.000891903
-0.00120111
-0.0136417
0.000779138
-0.000803819
-0.0133688
0.000824328
-0.0011134
-0.0131229
0.000899459
-0.0011612
-0.0129795
0.000842706
-0.00100195
-0.0127046
0.000573071
-0.000863485
-0.0121662
0.00012436
-0.000678222
-0.0112661
-0.000450825
-0.000464562
-0.0101463
-0.000910337
-0.000224757
-0.00882971
-0.00100616
-0.000325234
-0.00738216
-0.000756763
-0.000704642
-0.00757993
-0.000689534
0.000875303
-0.0163837
0.000824568
0.00795267
-0.0211543
0.000402528
0.00430745
-0.0225985
0.00114973
0.000229233
-0.0425781
0.0163458
0.00351644
-0.0545612
0.00559594
0.00608885
-0.0294585
-0.0163067
-0.0091036
-0.0131128
-0.0149513
-0.00152657
-0.0112553
-0.00398893
0.00205336
-0.0100012
-0.003078
0.00173384
-0.00808312
-0.00342788
0.00140833
-0.00472093
-0.00329142
-0.000166045
-0.0031762
-0.00163004
-0.00444133
0.00458952
-0.00341928
-0.00266382
0.00673025
-0.00862139
0.000921614
0.00620848
-0.0099261
0.00621121
0.00589834
-0.0113328
0.0149738
0.00879013
-0.0177338
0.0285096
0.01377
-0.0275884
0.0248707
0.0196595
-0.016302
0.0164746
0.00637413
0.00183729
0.00771791
7.41482e-05
0.00853516
-0.00118315
-0.00402408
0.0127902
-0.00449092
-0.0068235
0.0100149
-0.00757866
0.00540846
0.0044207
0.000982835
-0.0102303
0.00216234
-0.00826366
0.00358483
-0.00501059
-0.0043439
0.00736696
-0.0124443
0.00203305
0.00534199
-0.0143165
0.00569713
0.0024123
-0.0384609
0.0269492
0.0232355
-0.00696225
-0.0133103
0.037097
-0.00976013
-0.039295
-0.00481985
0.00928261
-0.00911745
-0.000563025
0.00896525
-0.00745381
0.00265124
0.00958503
-0.00671323
0.00457282
0.00960337
-0.00490463
0.00712191
-0.00134481
0.0112661
-0.00496941
-0.00271987
0.0124434
-0.00190274
-0.00245494
0.00882018
-0.000396359
-0.0041513
-0.00203018
-0.0210775
-0.00213969
0.0295547
-0.0106633
-0.0143224
-0.00168303
-0.00712052
-0.00250328
-0.00733175
0.0158773
0.00130902
-0.0102686
0.0219259
0.00111398
-0.00900182
0.0324783
0.000330221
-0.0131991
0.0832217
-0.00218145
-0.0359897
0.0468003
-0.00193989
0.045524
-0.00223602
0.00744996
-0.00312653
0.0384473
0.00385933
0.0217908
0.00195823
0.0232313
-0.000317867
0.0113153
0.0139353
0.0062329
-0.00794857
0.000101118
0.00680845
0.00521532
-0.00148555
0.00731931
0.00818541
-0.00152844
0.00712056
-0.0150737
0.00797792
-0.00210328
0.00736813
-0.0153154
0.00850227
-0.00126826
0.007435
-0.0167052
0.00841466
-0.00130791
0.00741888
-0.0160139
0.00861389
-0.000634154
0.00728319
-0.0165863
0.00860873
-0.000261282
0.00703189
-0.0159865
0.00856176
0.000704198
0.00623489
-0.0154491
0.00823017
0.00576214
0.00442083
-0.0169449
0.00745162
0.00149251
-0.00415688
0.00567878
0.0027334
0.000807251
0.00538047
-0.000281361
0.00062796
0.00713925
-0.000735824
0.00078168
0.00801623
-0.00115035
0.000937035
0.00831896
-0.00120409
0.00127375
0.00838581
-0.0013169
0.00149725
0.00856027
-0.00136206
0.00149921
0.00870504
-0.00135184
0.00126206
0.00871606
-0.00137067
0.000934464
0.008831
-0.00119598
0.00730653
-0.000263545
0.00935332
-0.0019999
-0.000817639
0.0110302
-0.00184511
-0.000853387
0.0123129
-0.00154204
-0.000666773
0.0130976
-0.000307224
-0.000944037
0.0135269
0.000856544
-0.00117722
0.0137035
0.00171294
-0.00133232
0.0137012
0.00224108
-0.00141233
0.0137587
0.0022538
-0.0014284
0.0137123
0.00182925
-0.000975067
0.0137184
0.00135059
-0.000593527
0.0139001
0.00122757
-0.000532985
0.0132895
0.00114267
0.000568798
0.0124402
0.00243089
0.000229875
-0.000266873
0.0126819
-0.000411314
0.00243666
-0.000848336
0.012344
-0.000235746
0.00279999
-0.000640856
0.01147
-7.23726e-05
0.00311305
-0.000167353
0.0102063
5.10584e-05
0.000296825
0.00327707
0.00860678
0.000722495
0.0033146
0.000131088
0.00686136
0.00104114
0.00304842
0.000138328
0.00585612
0.000964627
0.00224166
8.85962e-05
0.00441286
0.0046241
-0.00084951
0.00286102
0.00428097
-0.000555822
0.00141754
-0.000507646
0.004077
0.00389751
-0.000409115
0.00560782
-0.000518321
-0.00120813
0.00683208
-0.000411717
-0.000829389
0.00780557
-0.000609877
-0.000380109
0.00817182
-0.000474399
9.14395e-05
0.00823189
-0.000608406
0.00053187
0.00754669
-0.000260826
0.000929431
0.00657635
-0.000299067
0.00125284
0.00477181
0.000281745
0.00150572
0.00211484
0.00110128
0.00153856
-0.00164383
0.00204895
0.00169178
-0.00441895
0.000601138
0.00215599
-0.0059472
-0.00085338
0.00236236
-0.00722836
0.000623915
0.000635308
-0.0136522
0.000508774
0.00587024
-0.0246645
-0.00654481
0.0174413
-0.0308167
-0.0160623
0.0220493
-0.0390395
-0.0258911
0.0338474
-0.0314589
0.0234987
0.0161721
-0.0382588
0.0092234
0.0257809
-0.0166388
0.00696144
-0.00456667
0.00440249
-0.0321363
0.0259719
0.001549
-0.0146249
-0.0233486
0.00580193
-0.0374721
0.00616212
0.0410681
-0.0572349
-0.000826133
0.028861
-0.0497952
0.0150965
0.0125462
-0.0100107
0.0169329
-0.0103132
0.0108734
-0.00245424
0.0188062
0.00792115
0.0111704
-0.0125628
0.013538
0.00520418
-0.00615938
0.00130141
0.0112082
0.00479556
0.00102108
0.0026506
0.00128136
-0.00105582
0.00157426
0.00271172
-0.00489469
0.00380099
0.00206529
-0.00545693
-0.00054598
0.00218854
-0.00958715
0.00196351
0.00242797
-0.00823347
-0.00369989
0.00202705
-0.0118852
0.00194908
0.00142193
-0.00892049
-0.00419278
0.000599887
-0.0112564
0.00214443
-0.000302656
-0.00733155
-0.00321758
-0.00133683
-0.00817148
0.00228021
-0.00187217
-0.00441452
-0.00173365
-0.00256087
0.00128799
-0.0025539
0.00391688
0.0117836
-0.0105864
0.011293
0.00662361
-0.00937721
0.0126697
0.00900596
-0.00503746
0.00958969
0.0106301
-0.0024046
0.00389004
0.0095911
0.000860464
0.0128442
-0.002785
-0.00211808
0.00094071
0.0153319
-0.00568906
0.00415669
-0.00323433
0.00220356
0.015261
-0.00734856
-0.00304161
0.00333118
0.00705658
0.0106267
-0.00783247
-0.00265716
0.00334962
0.0117002
0.00182414
-0.00667869
-0.00197506
0.00121434
0.016157
-0.0010552
-0.00421763
0.00751783
-0.000520659
-0.00522032
0.0109372
-0.000163686
-0.0103349
0.0126522
-0.0089568
-0.0142387
-0.0141176
0.00842699
0.00569969
-0.0240984
0.00411151
-0.0185174
0.00622761
-0.0164217
-0.011424
0.00925924
0.00799522
0.00961026
-0.0340738
-0.0236908
0.00755237
0.0112168
0.00757029
-0.00999628
-0.0325702
-0.00912096
0.0077713
-0.00160874
8.40472e-05
0.00773325
-0.00654439
-0.010457
0.011413
-0.00760545
-0.0141
0.0106044
0.0104604
-0.000921746
-0.00881551
0.0102851
-0.00143921
0.00787013
-0.00795614
0.00414036
0.0010524
0.00438972
-0.00380618
0.00616282
-0.00633155
0.013974
-0.0121719
-0.00363433
0.0108147
-0.0170564
-0.00263935
0.00569965
-0.0169902
-0.00104151
-0.00114651
0.00196789
-0.00818721
0.00819827
0.0097656
-0.00944123
0.0105926
0.0114665
-0.00493506
0.0111304
0.0121333
-0.00212116
0.0108989
0.00406469
-0.0106421
0.0112848
0.00283715
-0.00891071
0.0124283
-0.00210991
-0.00479211
0.0119712
-0.0047069
0.00988659
-0.00602542
0.0020988
0.00405442
0.00102134
0.00772219
0.00798222
-0.00172173
0.0107673
0.00912473
0.000171394
0.00788962
0.00625846
-0.00919088
0.0101289
0.000201403
-0.00721047
0.00353245
0.00352344
0.000163084
0.00157493
-0.00105574
0.00489789
-0.00683677
-0.00157291
-0.00232465
0.0187251
-0.00325875
-0.0196663
0.0168801
-0.00135298
-0.00183633
-0.0164071
-0.011878
-0.000729792
0.00316675
-0.0087582
-0.0106167
-0.0129747
0.00637206
-0.0059391
-0.00496508
0.000806763
0.00132583
0.000378625
-0.00209194
-0.00422824
-0.000992787
0.00394723
-0.00257741
-0.00041314
0.00178058
-0.00236161
0.0012811
-0.00378837
0.00668928
0.000668964
-0.0110542
0.000654394
-0.00347041
0.0102975
-0.00346059
-0.00449011
-0.0187872
0.0137536
-0.0117618
-0.0193164
-0.0117659
0.00788099
0.00432199
-0.0265414
-0.015378
0.00259576
0.00932956
0.0105666
-0.0355267
-0.0164511
0.0130836
0.00184184
0.0104086
-0.0422417
-0.0146106
0.00985082
8.93488e-05
0.011282
-0.0436171
-0.0107734
0.00325344
-0.00152679
0.0103177
-0.0431127
-0.00616429
-0.00148488
-0.0018357
0.00887055
-0.0394452
-0.00335199
-0.00447665
0.00406713
-0.0347087
-0.00119833
-0.00708908
0.00648296
-0.0030401
-0.0321519
0.0013191
-0.00609656
0.00561312
-0.00349446
-0.029109
0.00262401
0.00448892
-0.00397577
-0.00628279
-0.0289163
0.00201661
0.00398127
-0.00354199
-0.0027607
-0.0298226
0.000148195
0.00185733
-0.00120627
-0.0277671
-0.00165668
0.00141153
-0.001924
-0.0229558
-0.00269652
0.00157043
-0.00378153
-0.0301323
0.00173117
0.0226259
-0.0172561
-0.0592526
0.0293215
-0.0129855
0.0124092
0.00596726
-0.0198882
-0.00141154
-0.013256
-0.0251831
-0.00912416
-0.01225
-0.00050918
-0.00873755
-0.0111493
0.000585666
0.000297893
-0.00942106
-0.000629132
0.000538187
-0.00579609
-0.00380081
0.00147388
-0.00309321
-0.00401857
0.00105125
-0.00453884
-0.00025408
-0.00445971
0.000796368
-0.000922748
-0.00684848
0.00204562
0.000279966
-0.0107886
0.00220003
0.00166045
-0.0130998
0.000810482
0.00142211
-0.0133663
-0.000358962
0.000555669
-0.0130752
-0.00175365
0.0014086
-0.0236465
0.00141865
0.00907792
-0.0568477
0.017495
0.0154994
-0.101269
0.00879602
0.035052
-0.117907
-0.0059412
0.0218855
-0.12724
-0.0116683
0.0202266
-0.133645
-0.0165689
0.0221397
-0.137278
-0.0222602
0.0250088
-0.138592
-0.0273241
0.0277268
-0.138506
-0.0308042
0.0297948
-0.137692
-0.0329543
0.0312145
-0.136234
-0.0342022
0.0318279
-0.134086
-0.0348521
0.0318028
-0.130244
-0.0353629
0.0306497
-0.122275
0.0278713
-0.0366739
-0.103143
0.0208498
-0.0407415
-0.0533795
0.00339207
-0.0537742
-0.0225867
-0.00119168
-0.02982
-0.0123682
-0.00426884
-0.00602697
-0.01209
0.00199698
-0.0023303
-0.0111904
0.00433828
-0.00530858
-0.00875661
0.00385443
-0.00636872
-0.00424112
0.00402226
-0.0086221
-0.00478262
0.00349041
-0.00302014
-0.00805106
-5.11255e-05
0.00326875
-0.00781206
0.00237173
-0.0026819
-0.00894118
0.00104131
-0.0138119
0.00697554
-0.00220336
-0.0166413
0.0071437
-0.00442426
-0.0189149
0.0076433
-0.00547232
-0.0237691
0.00700394
-0.00225445
-0.0533034
0.0187362
0.0106016
-0.0978954
-0.00810508
0.0521234
-0.110881
-0.031689
0.0439542
-0.112348
-0.0418371
0.042493
-0.107667
-0.0476775
0.0421746
-0.0989061
-0.0521435
0.0425254
-0.0862429
-0.0543588
0.0408711
-0.0693076
-0.0558555
0.0381002
-0.0496034
-0.0568331
0.0363629
-0.0239282
-0.0481048
0.0217929
-0.0375588
0.013192
-0.0534207
0.0235423
-0.00814754
-0.0592927
0.0258425
-0.0204733
-0.0594017
0.0271685
-0.0275858
-0.0504289
0.026927
-0.0364261
-0.0403844
0.0247471
-0.0352944
-0.0231951
0.0167214
-0.0343778
0.00921126
-0.032845
0.026988
0.0382733
-0.0566867
0.050742
0.049658
-0.0741779
0.074596
0.0497431
-0.0744169
0.0947813
0.0499511
-0.0709608
0.110529
0.047134
-0.0637378
0.118762
0.0397896
-0.0488452
0.116737
0.0329938
-0.031779
0.101076
0.0300884
-0.0151478
0.0544127
0.0398446
0.00624511
0.0254318
0.025022
0.00376258
0.0213311
0.00417902
-0.000183026
0.0194248
0.000595204
0.00120849
0.0158516
0.000301413
0.00316195
0.00912062
-0.000247419
0.00687984
-0.000926711
0.00995956
-0.000967863
-0.00970829
0.0096537
0.000719241
-0.0130912
0.0112951
0.00255834
-0.0142188
0.0122565
0.0040598
-0.0135506
0.0119135
0.004302
-0.0191345
0.0187144
0.00781
-0.0285834
0.0247903
0.00379091
0.0235806
-0.0198452
-0.000221918
0.0168665
-0.0130328
-0.000418362
0.00842169
-0.0083609
-0.000580858
0.00773484
-0.00769555
-0.00111571
0.00736432
-0.00693845
0.00631103
-0.00648121
0.00345793
0.00545427
-0.000291986
0.00323836
0.00618804
0.0013238
0.00332992
0.00591147
0.00165409
0.00398431
0.00478166
0.00290741
0.0103279
0.0115803
-0.00116304
0.0193749
-0.00897781
-0.000114625
0.00910643
-0.00419175
0.0144195
-0.0229999
-0.0113967
0.0434332
-0.0155235
-0.0057486
-0.00180636
-0.000977248
0.00357301
0.00486683
-0.00943281
0.00604627
-0.00259864
0.00362303
-0.00178344
-0.00824894
0.000446675
-0.00915529
-0.0102475
-0.0126331
0.0184039
-0.00480402
-0.030702
0.00322522
0.00365947
0.00405683
-0.0175539
-0.0495916
0.00587987
0.0101243
0.000834628
-0.0580712
-0.0156637
0.0261698
-0.00422501
-0.0203742
0.00616183
-0.00324868
-0.0202633
0.00560394
-0.00226979
-0.020624
0.0053017
-0.000898645
-0.0190081
0.0044332
-0.0149794
0.00402826
-0.0211056
0.00226786
0.00403496
-0.0219163
-0.00133482
0.00262661
-0.0178605
8.52941e-05
0.00545105
0.00164558
-0.0465106
0.0354006
0.00831411
0.00803079
-0.114856
0.0350782
0.0514067
0.0208134
-0.124912
0.0473432
-0.00805274
-0.125736
0.0548435
-0.0218925
-0.117894
0.0646221
-0.0335511
-0.102957
0.0732892
-0.0419749
-0.0838729
0.0770269
-0.0470271
-0.0614041
0.0748006
-0.0483655
-0.0367203
0.0744567
-0.0502965
0.0505964
-0.0328896
0.0589945
0.0459849
-0.0302433
0.0685536
0.0519665
-0.0352236
0.0688569
0.0531594
-0.0269192
0.0634065
0.0509033
-0.0202179
0.0441449
-0.00586843
-0.088297
0.0719552
0.00283962
-0.0981031
0.0755797
-0.0157789
-0.0995892
0.0800088
-0.0263055
-0.0882868
0.0791837
-0.039462
0.0718233
-0.040577
0.0880961
0.0942645
-0.0366275
0.0976883
0.101525
-0.0328625
0.0945525
0.101012
-0.0187968
0.0819716
0.0960021
-0.00873241
0.0903294
0.00690258
-0.0813024
0.103365
0.01304
-0.0945236
0.110407
-0.00210544
-0.0984284
0.115836
-0.0118801
-0.090564
0.116666
-0.0239667
0.111171
-0.0313654
0.0870978
0.123996
-0.0275689
0.0947349
0.128049
-0.0199973
0.0912981
0.126239
-0.0079433
0.0783597
0.120191
0.00221877
0.112001
0.0166982
-0.0724833
0.116554
0.0193766
-0.0844376
0.125263
0.00594435
-0.0867897
0.131808
-0.00419587
-0.0788884
0.134175
-0.0150067
0.131102
-0.0223095
0.0682675
0.131802
-0.0150613
0.0761528
0.134543
-0.00923003
0.0750518
0.130972
0.000959093
0.0641048
0.124604
0.01067
0.115359
0.0225951
-0.0526109
0.105653
0.0297737
-0.0646491
0.116166
0.0195332
-0.0642156
0.119723
0.00985282
-0.0562793
0.125129
0.000514849
0.126012
-0.00408892
0.0351995
0.0190951
0.0612781
0.0445787
0.0514697
0.0945623
0.0134213
0.0547562
0.0923358
0.0232255
0.0357567
0.0482358
0.0451484
0.0408417
0.0444737
0.0364723
0.0514666
-0.0123021
0.0268167
0.0153702
0.0143726
-0.0187328
0.027631
0.0150705
-0.0152907
0.0310906
0.0134998
-0.0135526
0.029008
0.0141933
-0.0399815
0.0275326
0.0407281
-0.000824365
0.0248159
-0.0283941
-0.00828183
0.0384512
0.00578963
-0.0369834
-0.00680391
0.0299263
0.00547044
-0.0370512
-0.00459683
0.0290485
-0.0365066
0.00508113
0.0258472
0.00345984
0.00381268
0.00514028
0.00492477
0.00714174
0.00680884
0.00759978
0.00903205
0.00890697
0.00837792
-0.00413663
-0.0199115
0.0156574
0.00266154
-0.000610287
0.000588328
0.0062372
0.00289456
0.000296981
-0.000534029
0.000352881
0.00408406
-0.00154725
-0.00243506
-0.00132111
0.00410487
-0.00165285
-0.000488872
0.0011762
0.0105821
0.0120688
0.0315595
-0.0531157
0.00538924
0.0177503
-0.00422983
-0.0072785
0.0567437
0.00123305
-0.0150543
0.00283337
0.003531
-0.00654059
0.00504119
0.00397374
-0.00619627
-0.0221806
0.00968199
0.0174996
-0.00939372
-0.0125137
-0.000316886
0.0179076
-0.00256478
0.0239068
-0.00788201
0.0462099
-0.0126908
0.0215779
0.0765116
-0.0248516
-0.0325935
0.0046098
0.00708146
0.0297314
0.00213757
-0.0175319
0.00803066
0.0136442
-0.0040459
-0.0106399
0.00846588
0.0149417
-0.00404095
-0.0114426
0.00756927
0.0144153
-0.00235966
-0.0112656
0.00612431
0.0127704
-0.0104159
-0.00100811
0.00366866
0.0105113
-0.0087818
0.000638821
0.0087125
-0.00788896
0.0027647
0.00841535
-0.00315299
0.00337943
0.00801346
-0.00279746
0.00314429
0.0151494
-0.00807394
0.000860791
0.0391671
-0.015944
-0.00829258
0.0726408
-0.0388856
0.0047934
0.0826896
-0.0276449
0.0168366
0.0842334
-0.023504
0.0211263
0.0816613
-0.0202406
0.0219403
0.0764744
-0.0158014
0.0200854
0.0694735
-0.00869824
0.0147808
0.0600143
0.00177382
0.00675732
0.04147
0.0176848
-6.84201e-05
0.0140162
0.0416361
-0.0151002
-0.00588036
0.0553391
-0.0363449
-0.00197147
0.0502775
-0.0550583
0.0121514
0.0392662
-0.0542221
0.0155137
0.0263207
-0.0304414
0.0096179
0.0288824
-0.0236039
0.00212631
0.011326
-0.00405268
0.000409601
0.00382556
-0.00218581
-0.000411296
0.00177694
-0.00101062
-0.00207958
0.00327269
-0.00167393
0.00316178
-0.00229271
0.00321306
0.0052495
-0.00147753
0.000205277
0.00662629
-0.000421247
0.00214317
-0.000182526
0.00654792
-0.000607843
0.00171698
0.00596545
-0.00380015
0.00255286
0.00562146
0.00623195
0.00101832
0.0118148
0.0171503
-0.0108251
0.0153838
-0.0102683
0.0234327
0.0240657
-0.029747
0.0433408
0.014485
-0.0440115
0.0506072
0.0129997
-0.0623487
0.0464697
0.0262542
-0.078347
0.0295339
0.0271354
-0.0893855
0.00776491
0.0199859
-0.094957
-0.00856164
0.0149341
-0.098392
-0.0208345
0.014605
-0.100585
-0.0294158
0.0148536
-0.100781
-0.0351873
0.0142055
-0.0974125
-0.0395556
0.0117617
-0.0885518
-0.0439567
0.00654279
-0.0318449
-0.0405352
-0.0447838
-0.0112569
-0.0183983
-0.0104222
-0.0191402
0.00262213
-0.0153528
-0.00710592
0.00132504
-0.0057444
0.0002637
-0.00942046
0.000856868
-0.00380426
0.00166564
-0.0074907
0.000999601
-0.00881727
0.0158102
-0.000174421
-0.00796368
0.0158229
-0.001835
-0.00615966
0.0139185
-0.00215978
-0.0020883
0.0197904
0.00572843
0.0205032
0.10692
-0.0446542
-0.00947263
0.00401726
0.0306789
0.00549217
0.00762507
0.010505
-0.000246403
0.00843357
0.0142671
0.000668589
0.0151216
0.00192624
-0.0162554
-0.0197249
-0.0126687
0.0307759
-0.0202277
0.0462473
-0.0178361
-0.0511668
0.106811
-0.0245114
-0.0522302
0.121764
-0.0149454
-0.104342
-0.0445077
0.125597
-0.0301418
-0.0751809
-0.0286455
-0.0174819
-0.0288149
-0.0143535
-0.00294218
-0.04026
0.0170081
-0.0021515
-0.0241303
-0.00526623
0.0279343
-0.00547092
-0.00855688
0.0163418
-0.00787322
-0.0093209
0.014425
-0.00619759
-0.00947292
-0.0118212
-0.00275361
0.0501216
-0.021226
-0.0125636
-0.00612351
0.000616292
-0.011906
-0.00850899
-0.000103396
-0.00873335
-0.00717598
-0.00155993
-0.00495611
-0.0044533
-0.00157514
-1.51396e-06
-0.000774852
-0.00379991
-0.000446107
-0.00984443
2.48444e-05
0.000449751
0.00126958
-0.00171224
0.00136794
-0.00208772
0.00336086
0.00174645
-0.00265969
0.00436864
0.00205796
-0.00198586
0.00370934
0.00175171
0.00266527
0.000705852
0.00452379
0.0026282
-0.00106523
0.00472864
0.00383306
-0.00040434
0.00458559
0.00491448
-0.000483832
0.004826
-0.000752917
-0.00640367
0.0108633
-0.00419743
-0.00622475
0.0108882
-0.0062643
-0.00535076
0.0100435
-0.00718994
0.00900402
-0.00779554
0.00658266
0.0118611
-0.00567265
0.00801525
0.0135861
-0.00507383
0.00820865
0.0151061
-0.00451786
0.0149122
-0.00312278
-0.00921616
0.0168517
-0.00133265
-0.00933227
0.0178576
-0.0027415
-0.00966672
0.0177548
-0.00393874
0.0104703
-0.00401418
0.0128637
-0.000418136
0.0102411
-0.00167515
0.00750967
0.0232748
-0.00290179
0.00736982
0.0182933
-0.000385944
0.0172872
0.000732122
-0.00886842
0.0484524
-0.0251825
-0.00521196
0.0421198
-0.0276276
0.0449749
-0.0282756
0.0294494
0.117603
-0.0575487
0.127435
-0.0450264
0.0508421
0.134868
-0.0387265
-0.020595
0.0554769
0.134771
-0.0149245
0.0520784
0.130002
-0.00595527
0.115179
-0.00129292
-0.0502616
0.119639
0.00522603
-0.0559965
0.134979
-0.000324451
-0.0535322
0.140699
-0.00947501
-0.0448743
-0.0146284
0.139818
-0.128152
-0.0233296
0.133558
-0.0293349
-0.0128498
-0.0511829
-0.114323
0.0286459
0.119312
-0.106019
-0.0668409
0.118352
-0.0383696
-0.0495292
-0.0681317
-0.00474877
0.0138806
-0.0135363
-0.0193273
-0.0195407
-0.00996968
-0.00602202
-0.0131187
-0.00290134
-0.0140056
-0.00407564
0.00257768
-0.0143792
-0.00819318
0.0031779
-0.0127408
-0.0106285
0.0025347
-0.00979796
-0.0145196
0.00286426
-0.0107579
0.00114615
-0.0137646
0.0160478
-0.0137521
0.000614782
-0.00950234
-6.8727e-05
-0.0153641
0.0144698
-0.00157843
-0.016762
0.0116501
-0.00271329
-0.0180422
0.00965931
-0.0014592
0.0149496
-0.025467
0.0110875
0.0252064
0.0187256
0.0207324
-0.0498511
0.0188512
0.0161754
0.017834
-0.0277857
0.0305614
0.0160586
0.0191785
-0.047083
0.0213608
0.0134348
-0.0227668
0.0184042
0.0392777
-0.042234
0.00893878
0.0152776
0.0201091
0.0463271
-0.0101049
-0.0171549
0.0254013
0.0300827
-0.0202316
-0.0152717
-0.017216
-0.0205848
0.00992548
-0.0182467
0.00381484
-0.0127921
-0.0179305
0.00437141
-0.0172219
-0.0123069
0.00330752
-0.0161126
-0.014121
0.00228479
-0.0167924
0.00210113
-0.0176535
-0.0170707
0.017442
0.000373232
-0.0162816
-0.000772278
-0.0183845
0.0156322
-0.0019913
0.0130035
-0.00309308
0.017562
0.0143225
-0.00279268
0.0174235
-0.00140867
0.0164945
0.0182325
-0.0170414
-0.000367362
0.0183764
0.00133205
-0.0151345
0.00285684
-0.0154953
0.00100621
0.0174908
-0.0154041
-0.00120571
0.0144729
-0.00214941
-0.00752632
-0.0160151
0.0235803
0.0168702
-0.00150335
-0.0143712
-0.01713
-0.0261887
-0.0242537
-0.00256239
-0.105243
0.103762
0.0075457
0.00121446
0.0182401
0.0127123
0.0239116
0.0146943
-0.0202535
0.0176567
-0.00845964
0.0179682
-0.0122424
-0.00477206
0.00236033
-0.00051116
-0.00555122
0.00484856
-0.00582421
-0.00170688
-0.00210713
-0.00217543
-0.00379063
0.0131622
-0.000990714
-0.00316268
-0.00140273
-0.00338258
0.0163741
-0.0200691
-0.0115647
0.0154701
0.0068821
-0.0116066
0.0175875
0.00910921
-0.0132688
0.0201949
0.00892825
-0.0142039
0.0229389
0.00891009
0.0301489
0.0119876
0.00988467
0.0134659
0.012488
0.0094811
0.013256
0.00990727
0.00784908
0.0119106
0.00974559
0.00607621
0.0107988
0.00840749
0.0100024
0.00699479
-0.00219919
0.00342027
-0.00261118
0.00415975
-0.00327635
0.00475553
-0.00391243
0.00539854
0.0065071
0.00166192
0.00290023
0.00142305
0.000512071
0.000410674
0.00139271
-0.000143928
0.00198384
-0.00154797
-2.81544e-05
-0.00093026
0.00194662
0.000964045
-0.000332242
0.000791897
-0.00043345
0.00182721
-0.00111425
0.00121464
-0.000536955
0.000311844
-5.50826e-06
0.00202177
-0.00174129
2.80651e-05
0.00379291
-0.000560913
-0.00358893
0.0111418
-0.00637755
0.00357661
-0.018004
0.00335541
0.0170443
0.00388554
-0.0181158
0.0204168
0.0071391
0.00293537
0.00676502
-0.0170612
0.0208343
0.000288525
0.00596345
0.0197833
-0.014839
-0.0136303
0.0141824
0.00503954
0.0109772
-0.00738956
0.0172044
-0.00765782
0.0172698
0.0109154
-0.000404929
0.0199726
0.00717701
0.00334234
-0.00114894
0.00152952
-0.00351415
0.000376463
-0.00229178
0.0125928
0.00135521
-0.00233628
0.000797026
0.000618307
-0.000777388
0.00151245
-0.000568069
0.00156114
-0.000391767
-0.00124504
0.00106746
-0.00206992
0.000899279
-0.000211269
-0.000226325
-0.00163381
-0.000456742
-0.0020928
0.000247362
-0.00185503
0.00139992
-0.00138028
0.000392395
0.000112207
-0.00188614
0.000170412
-0.00141325
-0.000661695
-0.00126263
-0.00240637
0.00114928
0.00124328
0.000230736
0.000477944
-0.00129457
0.000448099
-0.00168409
-0.000480144
0.000535212
0.000391515
0.000108943
7.02132e-05
-0.000660652
0.00104466
0.000305825
0.00031521
-0.000889005
-0.0016129
0.00281371
-0.000775618
0.000275476
0.0001786
-0.000886412
-0.00113142
0.00380221
0.00137738
-0.000359618
-0.00302369
0.0122682
-0.00264396
-0.00129284
-0.0017475
1.25803e-05
-0.000829679
0.000261678
-0.000727769
0.000328988
-4.02251e-05
-0.00112081
-4.42519e-05
0.00188105
-0.000307022
-0.0016216
-0.00132145
0.00321075
-0.00089363
-0.000169277
-0.00124342
0.00111789
0.00204096
0.000343014
0.000324051
0.000920254
-0.000128986
0.00191351
-0.00142151
-0.000171309
-0.00136999
0.00319314
8.59989e-05
-0.00065383
0.000200918
0.00285941
-0.00405196
0.0132986
-0.00113526
-0.0180418
0.000751
0.00704767
0.0245347
-0.0164858
0.0218912
0.00640816
-0.0177689
0.0225772
-0.00209968
-0.0148867
-0.0043938
-0.0206818
-0.0218537
-0.00631945
-0.0218857
-0.0057381
0.0151566
-0.00261106
0.0197803
0.031775
0.0374412
-0.0236058
-0.101064
0.0665696
-0.0967395
0.0700667
-0.107812
0.0712926
-0.0171105
-0.110059
0.0687261
-0.0248615
-0.106614
0.0674982
-0.0296595
-0.0981564
0.0663567
-0.03319
-0.086095
0.0637142
-0.0357987
-0.0687232
0.0577917
-0.037947
-0.0490038
0.0534286
-0.0376853
-0.0389232
0.0427557
-0.0317906
0.00374583
-0.0298884
0.0160834
0.0324958
-0.0455008
0.0140867
0.0444937
-0.0431644
-0.00725807
0.0475449
-0.0266115
-0.0343695
0.0266728
-0.0511268
-0.0128581
0.0291483
-0.0597546
-0.0245188
0.0326438
-0.0620254
-0.0310841
0.0328286
-0.0555514
-0.0383501
0.0313498
-0.0474694
-0.0354516
0.0268668
-0.0300671
-0.0337011
0.0158316
0.00340529
-0.0339111
0.0203806
0.0443034
-0.0619154
0.0432244
0.0553827
-0.0789926
0.0684406
0.0546376
-0.0806738
0.0883998
0.0522412
-0.0730249
0.0995448
0.0476884
-0.05969
0.10059
0.0400277
-0.0418953
0.0952021
0.0341078
-0.0295302
0.0834674
0.0307595
-0.0197451
0.0470823
0.0377562
-0.00194471
0.0226553
0.0229569
0.00127371
0.0194508
0.0039151
-0.000815346
0.0180614
0.000494937
0.000791607
0.0149063
0.000140401
0.00290444
0.00862802
1.20963e-05
0.0061672
0.00911753
-0.000577119
0.00721493
0.00344712
-0.00161514
0.0045995
0.00389787
-0.00132955
0.00482475
0.00169533
-0.00198338
0.00583765
0.0018919
-0.00298364
0.00559797
0.00307395
-0.00291207
0.0045045
0.00335775
-0.00233384
0.00355707
0.00272965
-0.00183683
0.00588258
0.00165991
-0.00406244
0.0126171
0.00157311
-0.00852614
-0.0155772
0.0311341
-0.00355774
-0.0456778
0.0254052
0.00393638
-0.0604882
0.0121998
0.0017767
-0.0657853
0.000900021
0.00352414
-0.0691576
-0.0133957
0.0158635
-0.0738103
-0.0286773
0.0324079
-0.0748299
-0.0438451
0.0439276
-0.0720897
-0.0577124
0.0540273
-0.0621603
-0.0702787
0.0593973
-0.0445714
-0.0803081
0.0617621
-0.0173206
-0.0868134
0.0585993
0.0163852
-0.0828667
0.0482002
0.0317978
-0.0571594
0.0407856
0.030802
-0.0440385
0.044112
0.0231661
-0.0345361
0.0412686
0.00910518
-0.0256409
0.0388747
-0.00110378
-0.0229167
0.0323238
-0.0347826
0.0329296
-0.0501161
-0.0193411
0.0338766
-0.057226
-0.0341097
0.0404089
-0.0576568
-0.0489499
0.048506
-0.0491803
-0.0640335
0.0546818
-0.025313
-0.0817111
0.0569451
0.00477335
-0.0834151
0.0524527
0.0102452
-0.0476118
0.0412746
-0.00729183
-0.0265903
0.0433175
-0.0208508
-0.028007
0.0407802
-0.00477075
-0.0600633
0.0432451
-0.0519247
0.0428179
-0.014758
-0.0686234
0.00168203
0.0185111
-0.0545287
-0.0396884
0.0283981
-0.0389667
0.000197325
0.0320174
-0.0479367
0.016833
0.0302761
-0.0781843
0.0313896
0.0408269
-0.126808
0.0319037
0.0540222
-0.123346
0.0274942
0.0565634
-0.0959652
0.0284593
0.0515172
-0.0724236
0.0276142
0.0410108
-0.0514713
0.0270081
-0.0298973
0.0278277
-0.0366021
-0.0465364
0.0267294
-0.0386441
-0.0559289
0.0225054
-0.0330478
-0.0669685
0.0163633
-0.00461226
-0.0824227
-0.00417031
0.0356671
-0.117973
-0.00617919
0.0608397
-0.124312
0.0113208
0.0754466
-0.117795
0.0218783
0.0821812
-0.103185
0.0251757
0.0813941
-0.0843684
0.0264533
0.0774924
-0.0635457
0.0226199
0.0702028
-0.0418659
0.0195064
0.0647671
-0.020195
0.0112768
0.0578377
0.000502666
0.00638522
0.0439371
0.0167131
0.00846081
0.0183885
0.0352686
0.0147689
-0.00973779
-0.000803444
0.0469227
0.0121555
0.00822335
-0.00367124
-0.00878195
-0.00566182
0.0147317
-0.00323599
-0.00421231
0.0104056
-0.0027776
0.00858235
-0.00160681
0.013384
-0.00112867
-0.0030898
0.00113869
-0.00668093
0.0268963
0.00195151
-0.00888349
-0.00772195
-0.00159777
0.00146048
-0.00799057
-0.00393969
0.00135555
-0.00672365
-0.00510127
0.000516026
-0.00499643
-0.00575548
0.000275593
0.00236689
-0.0041211
-0.000566814
0.00511093
-0.00110741
-0.00215015
-0.000311296
-0.000488782
-0.001354
-0.000759825
-0.000660922
-0.000563506
-0.000600502
0.000401617
-0.00117122
-0.00348339
0.0132987
-0.00551751
-0.0120258
0.00296045
0.0227116
-0.007917
-0.0101935
0.063399
-0.0314156
-0.0296738
0.0158619
0.0612878
-0.0230605
0.0282003
0.045918
-0.0173764
0.0336014
0.00882834
-0.0086824