/*--------------------------------*- C++ -*----------------------------------*\
| =========                 |                                                 |
| \\      /  F ield         | OpenFOAM: The Open Source CFD Toolbox           |
|  \\    /   O peration     | Version:  v2012                                 |
|   \\  /    A nd           | Website:  www.openfoam.com                      |
|    \\/     M anipulation  |                                                 |
\*---------------------------------------------------------------------------*/
FoamFile
{
    version     2.0;
    format      ascii;
    class       surfaceScalarField;
    location    "295";
    object      phi;
}
// * * * * * * * * * * * * * * * * * * * * * * * * * * * * * * * * * * * * * //

dimensions      [1 0 -1 0 0 0 0];
oriented        oriented;


internalField   nonuniform List<scalar> 
63799
(
0.00326585
-0.00546228
0.00429932
-0.00835466
-0.00580231
0.00882364
-0.00502146
-0.00841382
0.0104917
0.00612248
0.00621742
-0.00779264
-0.00352552
0.00379406
0.00325613
-0.000895914
0.004309
0.00173065
-0.00229293
0.00547766
0.00294244
-0.004182
0.00149241
0.00389738
0.00294262
-0.00642281
0.00487359
0.00447244
-0.00591061
0.00427061
0.00535441
-0.00449149
0.00350701
0.00642836
-0.00307117
0.00189302
0.0122018
-0.00515426
-0.000812273
0.014179
-0.0116212
0.00908773
0.0152108
-0.0132428
0.0115175
0.0184007
-0.0124057
0.00844025
0.0181727
-0.00985402
0.00930091
0.0131036
-0.00760591
0.0118643
-0.00403728
-0.00720532
0.0235698
-0.0194817
-0.0159447
0.0306269
-0.0171999
-0.0299547
0.0269808
-0.00667432
-0.0334913
0.0224132
-0.0146279
0.00759699
-0.0486759
0.0313875
0.00231969
-0.0540648
-0.0221241
0.0269615
-0.0629018
-0.0123465
0.0206314
-0.0442806
-0.0333744
0.0144106
-0.0556984
0.0110592
-0.0894032
0.00720569
0.025943
-0.109286
0.0145705
0.00461421
-0.122926
0.00832527
0.00454511
-0.129045
0.0028024
0.00251451
-0.130543
-0.00114746
0.00179239
-0.129184
-0.00495134
0.00273487
-0.125571
-0.00970706
0.00521855
-0.118714
-0.0164887
0.00877738
-0.105716
-0.0268747
0.0130214
-0.0836453
-0.0393172
0.0164509
-0.051208
-0.0508613
0.0176356
-0.0617887
0.00983331
-0.103203
0.00332065
0.0372911
-0.131666
-0.000610238
0.0282436
-0.150015
-0.00290365
0.0203442
-0.158569
-0.00463145
0.0122589
-0.15827
-0.00735719
0.00609115
-0.149809
-0.0111858
0.00175876
-0.132798
-0.0159981
-0.00198083
-0.106899
-0.0210148
-0.00584549
-0.0703092
-0.0253922
-0.0121548
-0.0413729
-0.0180035
-0.0118826
0.0153312
-0.0145672
-0.0430784
0.0818811
-0.0182032
-0.0492731
0.119369
-0.00363785
-0.0347584
0.141628
0.00312652
-0.0262628
0.151177
0.00842148
-0.0188087
0.140853
0.0161564
-0.00659601
0.0817116
0.0368046
0.0217156
0.034377
0.0174857
0.0296289
0.0193183
0.0114452
0.00353587
0.0198487
0.000757055
-0.00134281
0.0196682
-0.00104485
0.00115428
0.016729
0.000215364
0.00264292
0.0109763
0.000910435
0.00475751
0.0064182
0.000782586
0.00370397
0.00557881
0.000408499
0.000379839
-0.00254377
0.00629338
0.00175773
-0.000673623
-0.00195831
0.00658746
0.000108992
-0.0074691
0.012516
0.00252757
-0.00856656
0.0176587
0.00213781
-0.0073835
0.0240392
-0.000879177
-0.00560647
0.0573403
-0.0171409
-0.0163573
0.111888
-0.0114975
-0.0436247
0.134204
0.00286618
-0.0259018
0.143537
0.00447912
-0.014618
0.145905
0.00404071
-0.00722158
0.143195
0.00427901
-0.00240839
0.135442
0.00514565
0.00181021
0.120182
0.00685181
0.00763089
0.0983443
0.00613584
0.0149964
0.0613805
0.00748779
0.0289155
0.050035
0.0109855
0.0801569
0.0141761
-0.0446408
0.0758702
0.00891605
-0.005181
0.051889
0.0162968
0.00713253
-0.00140386
0.0533382
-0.000388261
-0.00597978
0.00421603
0.0111373
0.0174512
-0.0351287
0.0108092
0.0283684
-0.0287453
0.00180343
0.0319707
-0.0237426
0.00162125
0.0309676
-0.0315821
0.0147641
0.0343776
-0.0483591
0.0299445
0.0397733
-0.0557661
0.0429582
0.0423052
-0.0561248
0.045749
0.0437759
-0.0472857
0.0247681
0.0467772
-0.0263702
0.0126277
0.0210707
-0.00912719
0.0122895
0.00611274
-0.0058796
0.0122067
0.00565799
-0.00567817
0.0109147
0.00631283
-0.0051311
0.00710935
0.00539166
-0.00168524
0.00196262
0.00505861
0.00307938
0.0034763
-0.0046645
0.00270052
0.00277299
-0.00244514
0.00182427
0.00411733
-0.00331257
0.00261192
0.00469527
-0.00556758
0.00216832
0.00430936
-0.00394653
0.00181352
0.00397118
-0.00368739
0.00211525
0.00198825
-0.00234528
0.00328462
0.00186641
-0.00311334
-0.00185824
0.0105726
-0.00564949
-0.0123273
0.0343359
-0.0244877
-0.0120356
0.0328438
-0.0338978
-0.0123518
0.0346812
-0.0352019
-0.0143885
0.0371941
-0.0360331
-0.013284
0.0365402
-0.0385509
-0.011008
0.0369178
-0.0401157
-0.00697727
0.0374261
-0.0423885
0.00180304
0.0430385
-0.0527508
0.00633826
0.0486201
-0.0540776
0.00493244
0.0516031
-0.0511039
0.00332366
0.0525791
-0.0518464
0.00900075
0.0483974
-0.0549117
0.0190625
0.0457327
-0.0565569
0.0164732
0.0479457
-0.0459772
0.00550498
0.0186867
-0.00793791
0.00370583
0.00645927
-0.00473751
0.00555731
0.00257772
-0.00448409
0.0073198
0.0039407
-0.00577312
0.00453947
-0.00509054
-0.00808213
0.00949203
-0.00536982
-0.00561738
0.00763742
-0.00623735
-0.0011852
-0.00187614
0.00736692
-0.00212165
-0.00589394
0.0121809
0.00697145
-0.00600497
-0.00541428
0.016244
0.00179084
-0.000635175
0.074785
0.0148888
-0.0474935
0.017537
0.0713434
-0.044694
0.0260198
0.0711371
-0.0321468
0.0225103
0.0736126
-0.0184641
0.0151331
0.06971
-0.0116865
0.0105108
0.0634709
-0.0111974
0.0102845
0.0533097
-0.0110205
0.00732763
0.0413869
-0.0019793
0.00254093
0.0406919
4.41877e-05
-0.00468122
0.0441242
-0.00131794
-0.0141274
0.0477442
-0.00204346
-0.0172075
0.0450752
-0.00823779
-0.0153295
0.0467089
-0.016654
-0.00981217
0.0527733
-0.00497098
-0.0199703
-0.0060028
0.0106671
-0.00407634
-0.00753944
0.00901766
-0.00515681
-0.00243791
-0.00454714
-0.00115488
-0.00167624
-0.000904488
-0.00266169
0.00860671
-0.00372687
-0.00305356
0.00859825
-0.00398468
-0.00173803
0.00890394
-0.00561576
-0.00263467
0.00695322
-0.00200841
-0.00264446
0.00474757
-0.00201112
-0.002194
0.00649184
-0.00352875
0.0101611
-0.00739264
0.0147625
-0.00777338
0.00306264
0.0191002
-0.00789075
0.00342947
0.0238952
-0.00832418
0.00339309
0.0341189
-0.0124551
0.00205301
0.0462869
-0.0190037
0.00654968
0.0342604
-0.000127281
0.0118691
0.0248824
-0.0008447
0.010043
0.0208934
-0.00190826
0.00576123
0.0172744
-0.00102701
0.0045224
0.0130431
0.000334753
0.00378723
0.00772142
0.00183245
0.00339312
0.00361442
0.00401889
0.00287209
0.00616246
-0.00549153
0.00277675
0.00394157
-0.00389722
0.0055891
0.00168028
-0.0045641
0.00753201
0.00237874
-0.00440627
0.00873205
0.00288482
-0.00416557
0.00852877
0.00337883
-0.00324649
0.0081422
0.00301216
-0.00268082
0.0150892
0.000943391
-0.00796789
0.0391741
-0.00675109
-0.017553
0.0691179
0.0131195
-0.0436804
0.0766024
0.0246281
-0.0328683
0.0746603
0.0291535
-0.0280379
0.066597
0.0308289
-0.0236215
0.0532182
0.0304251
-0.0179147
0.0258662
0.0284891
-0.0019989
-0.0151033
0.0254455
0.0146673
-0.0398357
0.0320118
-0.00813651
-0.0497797
0.0370634
-0.0279813
-0.0555097
0.0392712
-0.0344083
-0.0569603
0.0387046
-0.0381065
-0.0527513
0.0360961
-0.0411265
-0.0421041
0.0324776
-0.0438757
-0.0208409
0.0265568
-0.0484353
-0.00718595
0.00277539
-0.0166493
-0.00347755
0.00279353
-0.00657948
-0.00404003
0.00359958
-0.00309242
-0.00374956
0.0047217
-0.0050829
-0.00222563
0.00444208
-0.00604523
-0.000534544
0.00435876
-0.00612997
0.000614692
0.00190722
-0.00312006
0.000630546
0.00275065
-0.0028142
-0.000631441
0.00539525
-0.00420372
0.00560467
-0.00632279
0.00954845
0.00212052
-0.00616354
0.0122009
0.003853
-0.00661331
0.0145004
0.00373487
-0.00614078
0.0162019
0.00398174
-0.00578644
0.0172528
0.0042053
-0.00535652
0.0169814
0.00454304
-0.00436571
0.0119441
0.00626424
-0.00130399
0.00553962
-0.000126738
0.00650095
0.00539215
-0.000773335
0.000907319
0.00645208
-0.000854531
-0.000220067
0.00748126
-0.00093279
-0.000111909
0.00831358
-0.00065546
-0.000192602
0.00881971
-2.78792e-05
-0.0004937
0.00891458
0.00061594
-0.000726231
0.00873122
0.00106366
-0.000895646
0.00840645
0.00126313
-0.00095374
0.00805843
0.00128576
-0.000953157
0.00771311
0.00122849
-0.00089863
0.00738209
0.00115231
-0.000836816
0.00703654
0.00109011
-0.000760019
0.00668561
0.00104663
-0.000711296
0.00615451
0.000962878
-0.000446982
0.0054263
0.000736395
-2.23903e-05
0.00579372
0.000610397
-0.000990619
0.0123598
-0.000822651
-0.00577154
0.0175276
-0.00318885
-0.00204776
0.0183804
-0.00089779
-3.74682e-05
0.0177439
-0.000195199
0.000749314
0.015605
0.000384964
0.00167112
0.00957189
0.0021303
0.00383379
0.00390431
0.00388877
0.00175073
0.00322132
0.000282725
0.000387631
0.0029991
-0.000330455
0.000539027
0.00234671
4.91493e-05
0.000589682
0.000994406
0.000416457
0.000924701
0.000363108
0.000428898
0.00019694
0.000144653
0.000215349
9.45909e-05
0.000126666
-7.82999e-05
7.43356e-05
6.32335e-05
-4.36955e-05
0.000125043
2.4917e-05
-7.62722e-05
0.000212089
2.93778e-05
-0.000117329
0.000326018
3.58743e-05
-0.000150985
0.000543257
4.67812e-05
-0.000265286
0.000501501
-1.11438e-05
5.18687e-05
0.000739732
-0.000358829
0.000119836
0.00122028
-0.000734744
0.000253004
0.00188415
-0.000934901
0.000269799
0.00254253
-0.00104574
0.000386109
0.00298509
-0.000958516
0.000514705
0.00309168
-0.000754856
0.000647013
0.00301732
-0.00063137
0.000704471
0.00260568
-0.00028774
0.000698129
0.00167054
0.000234239
0.000699651
0.0001476
0.000796685
0.000725023
-0.00144463
0.00139105
0.000199993
-0.00223429
0.000626669
0.000162235
-0.00215989
1.42242e-05
-8.9643e-05
-0.0013402
-0.000796696
-2.42512e-05
-0.00081333
-0.000548253
2.02092e-05
-0.000445282
-0.000404795
3.58509e-05
-0.000249377
-0.00026257
6.6024e-05
-0.000304114
-0.000147361
0.000201388
-0.000470331
-0.000128808
0.000293352
0.000365288
-0.000838683
0.000244329
-0.000612967
0.000730389
2.63539e-05
-0.000399495
0.000614362
-0.000281843
-0.000241761
0.00054684
-0.000553892
-0.000258543
0.000527606
-0.000719835
-0.000348679
0.000511632
-0.000861832
-0.00034433
0.000483439
-0.000879347
-0.000460608
0.00047529
-0.000923977
-0.000412202
0.000454064
-0.000875436
-0.000506953
0.000455694
-0.000879213
-0.000441451
0.00044253
-0.000807926
-0.000521263
0.000447342
-0.000797715
-0.000443969
0.000431099
-0.000719927
-0.000504073
0.000423755
-0.000700339
-0.000409663
0.000387471
-0.000614433
-0.00045959
0.000371336
-0.000529832
-0.000421256
0.00033414
-0.000546705
-0.000489842
0.000504344
-0.00130613
-0.000300062
0.00105423
-0.00147479
-0.00058594
0.000748109
-0.00266412
-0.000353334
0.00152995
-0.00481929
-0.00410022
0.00621989
-0.0107278
-0.0174556
0.0232391
-0.0157316
-0.0220105
0.0268439
-0.0174592
-0.0349637
0.0363763
-0.0152594
-0.0461287
0.0435861
-0.0504808
0.0459076
0.0156418
-0.0811967
0.0217518
0.0247745
-0.0819968
0.0261736
0.0217466
-0.0748418
0.00548658
0.0367525
0.0125892
-0.0232934
0.0102815
0.00490365
-0.0249169
0.0123416
0.00262767
0.00240918
0.00325314
-0.0048867
0.00280556
0.00166432
-0.00369172
0.00161209
0.00193164
0.000515784
0.00107893
0.000263831
0.000736964
-4.1068e-05
0.000381099
0.000348352
8.73147e-05
-0.000174761
3.24618e-05
-0.00115778
0.000819317
0.000162092
-0.00170196
0.000500877
0.00219358
-0.00403139
0.00178582
0.000963488
0.00135368
-0.00436739
0.00207672
0.00215006
0.000817132
0.000540462
0.00115171
0.000555634
0.000968678
-0.000803291
0.000572834
0.00135212
-0.00145446
0.000563164
0.00108509
-0.000777787
0.000597044
0.00145217
-0.00147283
0.000580656
0.00112558
-0.000735597
0.000616883
0.00145071
-0.0014415
0.000605527
0.00106239
-0.000685808
0.000657994
0.00126406
-0.00133264
0.000666359
0.000816258
-0.000635836
0.000735255
0.000800718
-0.00110193
0.000764685
0.000443284
-0.000747051
0.000841818
0.000352732
-0.00102111
0.000865767
9.63759e-05
-0.00106925
0.000921899
-0.000241251
-0.00124969
0.000969613
-0.00201263
0.000927355
-0.00435114
0.000586461
0.00174131
-0.00517354
-0.00018259
0.000992345
-0.00518632
-0.00023582
0.000235788
-0.00591355
-0.000271365
0.000987853
-0.0136482
0.000887004
0.00682286
-0.0203666
0.00588414
0.000782558
-0.024524
0.00235333
0.00174251
-0.0475115
0.00663362
0.0162587
-0.0492465
0.00438265
-0.00285202
-0.0274241
-0.00404386
-0.0178725
-0.0243883
-0.00139827
-0.0016974
-0.0185078
-0.0049453
-0.000985732
-0.00852625
-0.00124816
-0.00875805
-0.00794451
0.00038117
-0.000973709
-0.0090448
0.000208935
0.000878266
-0.00943961
8.51066e-05
0.000296226
-0.00900817
-0.000551998
0.000107048
-0.00872626
-0.000483641
0.000189052
-0.00862934
-0.000333823
0.000224112
-0.00882957
-0.000124334
0.000311323
-0.00938943
7.21777e-05
0.00047324
-0.00969471
-0.000359927
0.000649903
-0.00958042
-0.000906916
0.000776828
-0.00910922
-0.00137445
0.000887388
-0.00841004
-0.00168279
0.000967847
-0.00777865
-0.00164085
0.000993648
-0.00702211
-0.00153614
0.000764238
-0.00604883
-0.00130774
0.000319725
-0.00617
-0.0012
0.00130786
-0.0134467
-0.000694772
0.00794048
-0.0184396
0.00810689
-0.00318985
-0.020823
0.00540357
-0.0031072
-0.0418777
0.0127306
0.00815202
-0.05433
0.0250196
-0.0130152
-0.0357189
0.00930778
-0.0284727
-0.0331822
-0.00310598
-0.0513868
-0.0254684
0.0429908
-0.0592458
-0.0391013
0.0462041
-0.057196
-0.0501916
0.047319
-0.0453369
-0.0578751
0.0451793
-0.027858
-0.0613209
0.0430362
-0.0624515
0.0436359
0.0193923
-0.104273
0.0249271
0.0383538
-0.103333
0.0221922
0.0521186
-0.0969045
0.0243766
0.0547472
-0.0838062
0.0301059
0.0461129
-0.0653794
0.0340856
0.0261636
-0.0430223
0.0367545
-0.0144087
0.0367895
-0.0290732
-0.0292107
0.0431153
-0.0401705
-0.0373909
0.0476157
-0.045548
-0.0459354
0.0504039
-0.0439422
-0.0551751
0.0526163
-0.0365586
-0.0630124
0.0546771
-0.0244662
-0.0696846
0.0566463
-0.00662925
-0.0745756
0.0558172
0.0111161
-0.0718417
0.0532028
0.0100226
-0.0547156
0.054937
0.00457237
-0.0577999
0.0623854
0.00972279
-0.0687885
0.0627724
0.0182657
-0.0708786
0.0614652
0.0277391
-0.0678231
0.0574926
0.0347048
-0.0613845
0.0535915
0.0347
-0.0514104
0.050659
0.0147738
-0.0343737
0.0536829
0.00614736
-0.0106389
0.0190463
0.00327033
-0.0011975
0.00399724
0.00276211
-0.00300914
0.00346254
0.00157221
-0.00417344
0.00529352
0.000102714
-0.00386888
0.00526025
-0.00100163
-0.00466149
0.00568664
0.000538596
-0.00405641
0.00245311
0.00140664
-0.00460316
0.0036878
-0.00119317
-0.00520751
0.00773637
0.00838123
-0.00966242
0.0139181
-0.00963817
0.00400192
0.0170142
-0.00994435
0.00673756
0.0191681
-0.00819912
0.00594228
0.0224969
-0.0088353
0.00540178
0.0507319
-0.0306738
0.00224397
0.107524
-0.000847206
-0.0565075
0.133242
0.0162327
-0.0426406
0.145936
0.0235973
-0.037058
0.152109
0.0262935
-0.0332105
0.151417
0.0288343
-0.0288962
0.136418
0.0338176
-0.019482
0.0791731
0.0490047
0.00771377
0.0363982
0.0190903
0.0235079
0.0293073
0.00630316
0.000697057
0.0188059
0.0103062
0.000123381
0.00784733
0.0103067
0.000622275
0.00690793
0.00164658
-0.00071957
0.00687723
0.000633991
-0.000616938
0.00572168
0.00160181
-0.000459496
0.00259381
0.00248331
0.000633618
0.00106928
0.00126327
0.000255887
0.000432739
0.000633474
0.000257739
-0.000759303
0.000930757
3.21747e-05
-0.000593284
0.000815731
-0.000120696
-0.000649141
0.000798884
-0.000265902
-0.000614337
0.000756548
-0.00032403
-0.000656616
0.000711745
-0.00039798
-0.000579838
0.000650893
-0.000381027
-0.000641024
0.000621231
-0.000398747
-0.000563779
0.000578724
-0.000340573
-0.000628675
0.000567776
-0.000333586
-0.000554656
0.000544965
-0.000272076
-0.000611945
0.000547791
-0.000267035
-0.000538879
0.000531169
-0.0002343
-0.000561532
0.000526254
-0.000242468
-0.000489493
0.000495036
-0.000190765
-0.000519091
0.000465015
-6.16142e-05
-0.000477598
0.000345944
-2.89685e-06
-0.000436102
0.000375056
-0.000398234
-0.000691757
0.0010818
-0.000650254
0.000872589
-0.000627161
-0.00134178
0.00136642
-0.000687644
-0.00254435
0.00553743
-0.00437066
-0.00916338
0.0249238
-0.0184317
-0.0161539
0.0303212
-0.0235065
-0.0205737
0.0407363
-0.036637
-0.0164817
0.0447993
-0.0492348
0.0493306
-0.0552032
0.0192037
0.0712479
-0.0272558
0.0260553
0.0636368
-0.0259559
-0.0184513
0.0498323
-0.00540866
0.0269984
-0.00477933
0.0338895
-0.00206567
-0.00488269
0.000150873
0.0451394
-0.0114416
0.0649441
-0.0150278
-0.0121331
0.0512674
-0.00102549
-0.0283089
0.0545818
-0.0293549
0.0698685
0.0104851
0.0638974
-0.0135596
0.0163121
0.0360718
0.0273386
0.00933873
0.00853346
0.0678028
-0.00579968
-0.00586422
-0.0123382
0.0840483
-0.0179482
0.00155163
-0.00244119
0.0129415
-0.0257546
-0.00337624
0.0100604
-0.0102344
0.00119912
-0.030734
-0.0089562
0.0228059
0.00657917
0.00432484
-0.00693415
0.00623968
0.0145192
0.022129
-0.013762
0.00863849
0.003494
-0.00593932
2.17345e-05
0.0161524
0.00386078
0.00312277
0.0115163
0.00135048
0.00327856
0.0106476
-2.58528e-05
0.000883819
-0.00928742
-0.000376841
0.0202983
-0.0192663
0.0010062
0.00420109
0.00354252
0.00543743
-0.00478513
0.0072575
-0.000440094
0.00466105
0.00256647
-0.00468114
0.00896115
0.00175745
0.010768
0.00361433
-0.0118454
-0.000804789
-0.00564631
-0.00243914
-0.00295552
0.0307527
-0.0101886
-0.00250705
0.000925928
0.00972082
0.00426081
0.0026746
-0.0337765
0.00348737
-0.00230682
0.00056896
-0.00111429
0.0030843
-0.0044351
0.00292655
-0.00451287
0.0031495
-0.011518
-0.0133292
0.00633328
0.0108287
0.0034116
-0.00819118
-0.010884
0.00709037
0.0117006
-0.00293523
0.00224545
-0.012531
0.0190599
-0.00256217
-0.00282307
-0.00278319
0.0057144
0.000645014
-0.00260827
-0.00208587
0.00182166
-0.000710485
0.000409975
0.00298464
-0.00247034
-0.00211444
0.0018324
0.000530117
0.00254251
0.00189748
-0.00251486
-0.00204805
0.00043718
-0.00255117
-0.00206891
0.00215914
0.0025509
0.000671456
-0.00262888
-0.00203647
0.00199482
0.00243339
0.000665015
-0.00229981
-0.00204097
0.00182419
0.00252024
0.00104387
-0.00256016
-0.00191835
0.00162601
0.00247092
0.00097566
-0.00232424
-0.00198634
0.00176412
0.00261205
0.0014218
-0.00287638
0.00265839
0.00179171
-0.00202238
0.00133544
-0.0026951
0.00202665
0.00307816
-0.00232595
0.00162041
-0.00268137
-0.00354424
0.00347397
0.00246394
0.00121935
-0.00365201
0.00324557
-0.00319075
0.00399537
0.00103902
-0.00451166
-0.00346692
0.00379586
0.00435999
0.000436261
-0.00438104
0.00513714
0.00364266
-0.00379895
5.18061e-05
0.00416728
-0.00483623
0.00556314
-0.00451291
6.94888e-05
-0.00190042
0.00242667
0.00179055
-0.00233579
0.00179968
-0.00110317
0.00122455
-0.00185232
0.00226316
0.00213391
0.000341132
-0.00293945
0.0020815
-0.00087872
0.000643797
0.000415619
0.00213349
-0.00164461
0.00134974
0.000241711
0.00174445
-0.00109048
0.00119815
0.000280255
0.00134867
-0.000655182
0.000769676
0.000280204
0.000647824
-3.88444e-05
0.000325674
0.000412971
-0.000351291
0.000508027
-8.52058e-05
0.000575229
-0.00104442
0.000560175
-0.000483781
0.000615674
-0.0012509
0.000752311
-0.00107665
0.000529767
-0.0012482
0.000965112
-0.00150334
0.00053445
-0.00113219
0.00100506
-0.00154831
0.000426126
-0.000924451
0.000927221
-0.00136577
0.000229644
-0.000783841
0.000376977
-0.000487102
-3.14476e-05
-0.000427895
0.000577875
0.000110189
-0.00104493
-0.000154676
0.000272252
-0.000577911
3.16961e-05
-0.000567041
0.000662239
-0.000561447
0.000310085
-0.00120046
0.00156222
0.0013468
6.07409e-05
-0.00235428
-0.00262597
0.00266397
-0.0021791
0.000918449
-0.00353828
0.000127799
0.0021628
0.000422583
-0.00261414
0.000702443
-0.00166274
-0.000526302
-0.00524833
0.0037969
-0.00244366
0.00201031
-0.00513633
0.00382862
-0.00678298
-0.000847874
-0.0040432
0.00911412
-0.0259014
-0.00989209
-0.0186292
-0.00697982
0.0537973
-0.042792
-0.020365
0.0253792
0.0110805
-0.0494727
-0.029287
0.0463379
-0.011191
-0.0494531
-0.0310474
0.0512873
-0.0210887
-0.0464676
-0.0320774
0.0535561
-0.025297
-0.0415081
-0.0299996
0.0526363
-0.0284135
-0.0121158
-0.0231363
0.0472832
-0.0164641
-0.037926
0.0164763
-0.00726905
-0.00961826
-0.0118401
0.0136387
0.0260162
-0.0101704
-0.0131386
0.0217274
0.016612
-0.014108
-0.010727
0.012313
0.0345479
-0.0112866
-0.0139738
0.00529947
0.0277223
-0.00811328
-0.0126947
-0.00657338
0.0394214
-0.010486
-0.0171626
-0.0125416
0.0402277
-0.0144797
-0.0199071
-0.00759526
0.0292766
-0.0138232
-0.0205356
-0.00888211
0.0333244
-0.0132287
-0.0189626
-0.0106483
-0.00503724
-0.0073955
-0.0023328
-0.00926602
0.00588677
-0.00105872
-0.00991152
0.0064164
-0.00247255
-0.00868079
0.00449581
-0.00292858
-0.00626884
0.00288084
-0.00300469
0.00199062
-0.00270025
-0.00913681
0.00587074
0.0101349
-0.00497461
-0.00432155
0.00658148
-0.00533466
0.00614082
-0.00654237
0.00682114
-0.00665661
0.00586611
0.0072736
-0.00589925
0.00534412
0.00724098
-0.00476697
0.00469503
0.0121727
-0.012674
0.00754755
0.0224277
-0.0339534
0.0318913
-0.040153
0.0398644
-0.0408163
0.0460165
-0.0379427
0.0470294
-0.0310536
0.0451737
-0.0191722
0.031202
0.00355327
0.0162569
0.0139206
0.0155169
0.00265971
0.0121268
0.00279193
0.00503064
0.00591868
0.00114797
0.00440997
0.000793304
-0.000185015
0.00422568
0.000272689
-0.000102037
0.00337871
0.000872512
-3.87634e-05
0.00144686
0.000605898
0.00131501
0.000537632
0.000240893
0.000662968
0.000445416
8.9151e-05
0.000307646
4.59429e-05
9.01509e-05
0.000224561
-4.69797e-05
0.000129355
0.000344172
-0.000127712
7.45945e-06
0.000571502
-0.00018228
-4.59486e-05
0.0007944
-0.000179067
-4.50033e-05
0.0010636
-4.54438e-05
-0.000225011
0.000887618
-6.10166e-05
0.000235975
0.00130818
-4.43454e-05
0.00218012
5.40949e-05
0.00307741
0.000106542
0.00376846
0.000272812
0.00406108
0.000458448
0.00398724
0.000632764
0.0037721
0.000721916
0.00302676
0.000705252
0.00173631
0.000634018
1.91583e-05
0.000625439
-0.00181661
0.000189974
-0.00290116
0.000205069
-0.00275228
-9.39751e-05
-5.59292e-05
-0.00172163
-1.6977e-05
-0.00101493
-0.00105029
3.98222e-05
-0.000712342
-0.000579352
5.59334e-05
-0.000527768
-0.000327501
8.90118e-05
-0.000341504
-0.000403646
0.000263832
-0.000188399
-0.000146297
0.000374448
-0.000646516
0.000458499
4.12695e-05
-0.000241447
0.000301015
0.000555467
0.000454524
-0.00212115
0.000611598
0.000812334
0.0011304
-0.00273829
0.000949806
0.00111092
0.00115827
-0.00247527
0.00123634
0.00120924
0.00206477
-0.00383159
0.00134404
0.00157911
0.00195599
-0.00286218
0.00142016
0.00154896
0.00430066
-0.00534974
0.0029011
0.00504937
0.00412419
0.00297096
-0.00206148
0.00397529
0.00178745
-0.000996201
0.00480592
0.00162654
-0.00110932
0.00485826
0.00235221
-0.00120811
0.00460724
0.00201478
-0.000995745
0.00411123
0.00102919
-0.000209053
0.00330359
0.000247174
0.000473703
0.00243574
-0.000378045
0.000760543
0.00163592
-0.00160522
0.00132685
0.00093694
-0.00276376
0.00195774
0.000120378
-0.0028969
0.00216344
-0.000850788
-0.00245402
0.00205752
-0.00103214
-0.000685521
0.000378341
-0.000640829
0.000665111
-0.000479891
0.000654751
-0.000362504
0.00408426
-0.0024572
-0.00327126
-0.0012417
0.0041893
0.00450001
-0.00146506
0.00259212
0.00627776
-0.000725347
0.00158812
0.019821
-0.00529497
-0.0120629
0.00383917
0.0157002
-0.00727621
0.00603751
0.0114835
-0.00672239
0.00571536
-0.00986972
-0.00145042
0.0253517
-0.00849063
-0.0168026
-0.010055
0.0160855
-0.0181276
-0.0395304
0.0590369
-0.0291282
0.0270385
0.0426383
-0.0500837
0.0589274
0.00744892
-0.0575907
0.0667104
-0.00883751
-0.0590276
0.0702625
-0.0161997
-0.0565694
0.0704434
-0.021201
0.0644167
-0.0320065
0.0694705
0.0835978
-0.0274407
0.0687898
0.0841413
-0.014044
0.0640172
0.0813246
-0.00730093
0.0509494
0.0775843
0.00119391
0.0174736
0.0711877
0.0202167
-0.0378983
0.0322413
0.0491568
-0.03669
-0.0465758
-0.0222714
0.0484756
0.0139999
-0.0192659
-0.0116793
-0.019866
-0.0186483
-0.0155021
0.00747939
-0.0243886
-0.0074082
0.00558913
-0.0224695
0.00634014
-0.0272573
-0.00841892
0.00582611
-0.0119604
-0.0151896
-0.00714985
0.00164769
0.00401517
-0.0116257
-0.00423817
-0.000134813
-0.00996295
0.0011664
-0.00982858
-0.00395751
0.00233821
-0.00369982
-0.00687312
-0.00418742
0.00245673
0.00320494
-0.00474013
-0.00315273
0.000984279
0.00211416
-0.00372946
0.00154542
-0.00146476
0.00164864
-0.00339034
-0.00347998
0.00294785
-0.00516243
-0.00318014
0.00205245
-0.00728385
-0.00311575
0.00247037
-0.00908578
-0.00227226
0.00246602
-0.0100757
-0.00181208
0.00242092
-0.0115923
-0.0010727
0.00283354
-0.011804
-0.00054553
0.00178343
-0.0111673
0.000923955
0.000451117
-0.0102751
0.00183821
-0.000381135
-0.00922452
0.00297159
-0.00239927
-0.00896379
0.00275307
-0.0012294
0.0101857
0.00622211
-0.016141
-0.00122672
0.00945639
0.00324767
0.000231168
0.0111933
0.00266171
-0.00143066
0.012391
0.000801157
-0.000163644
0.0124874
-0.000310335
0.00113477
0.011471
-0.00115677
0.0016247
0.0106071
-0.00195516
0.00174352
0.00966793
-0.00271563
0.00183988
0.00871426
-0.00323816
0.00191662
0.007123
-0.00343971
0.00191207
0.00574359
-0.00339776
0.00159401
-0.00381276
0.00234333
-0.00673197
-0.00379129
0.00196671
-0.0077924
-0.00474046
0.00239961
-0.00875427
-0.00431651
0.0018355
-0.009741
-0.00409032
0.00183586
-0.0107607
-0.00351339
0.00181453
-0.0114248
-0.00288942
0.0015954
-0.0120114
-0.00162128
0.00104801
-0.0124526
-0.000170258
0.000297987
-0.01175
0.00138775
-0.00129266
-0.00970807
0.0014345
-0.000818427
-0.00931452
0.00217772
0.000672569
0.0118411
0.00311564
-0.0188152
0.000748204
0.00904035
0.00461448
0.000360034
0.0129349
-0.00166278
-0.000801155
0.0116193
0.00357299
-0.000873669
0.0158459
-0.00353725
-0.000863684
0.0122946
0.00159428
0.000331588
0.015114
-0.00562825
-8.47901e-05
0.0110393
-0.000648506
0.00120572
0.0128584
-0.00673805
0.000824403
0.00853073
-0.0019632
0.00197032
0.00842474
-0.00645192
0.00181341
0.00527455
-0.00218144
0.00153644
-0.00535113
0.000595883
0.0113826
-0.00735314
-0.0139234
0.00234423
0.0118056
-0.00599737
0.0013703
-0.00504797
0.00125074
0.0125964
-0.00511246
-0.0130147
0.000463235
-0.00566229
-0.00119178
0.0137988
-0.00436436
-0.0133781
-0.00174153
0.0296023
-0.00476821
-0.0189325
0.000646672
-0.00774028
0.00443612
0.0249226
-0.00661827
-0.0301113
0.00397772
-0.00671761
0.00489559
0.0122713
-0.0031273
-0.0185188
0.0026114
-0.0298389
-0.0162398
-0.0228593
-0.018574
0.00837257
0.00485151
-0.0397208
0.0025316
0.0093607
-0.0231903
0.00283534
0.00630354
-0.00581546
-0.0277712
0.00401459
-0.0315312
0.00286696
0.00804695
-0.00016826
-0.0324118
-0.00637513
-0.000718967
-0.0134546
-0.00181791
0.00469064
-0.0185647
0.000229117
-0.0141234
0.000303569
0.00558802
-0.0156181
-0.00513428
0.00102186
-0.0143522
0.000909956
-0.0167876
-0.0063473
0.0014116
0.00773284
-0.0200544
-0.00632938
0.00184565
-0.0181206
0.00349907
-0.0215081
-0.00642722
0.00241247
-0.0224221
-0.00362092
0.000485247
-0.0208849
-0.000465047
-0.00105236
-0.0192746
0.00229574
-0.000971434
-0.0187521
0.00375098
-0.00117452
-0.00504269
0.00435975
-0.0173205
-0.000768215
-0.006416
-0.0165966
-0.000865172
-0.00744007
-0.0150265
-0.00010983
-0.00580428
-0.0115882
0.00172255
-0.00390481
-0.00925991
0.00103822
-0.00688706
0.00059167
-0.00930427
0.00433781
-0.000335872
-0.00668344
-0.00133263
-0.000669492
-0.00471651
-0.00032439
0.00560534
-2.32583e-05
0.0151059
0.00978683
-0.0309418
0.0108165
-0.000605536
-0.00457169
0.00702599
0.00104116
0.000274953
-0.00431583
0.0046859
-0.00791739
0.00902701
-0.00122335
-0.00171569
0.0063794
-0.00136805
-0.00796565
-0.00117723
0.00530072
-0.00631361
-0.0019112
0.00565154
0.00189655
-0.00683073
-0.00234368
0.00559084
-0.00699046
0.00181452
-0.00253112
0.0054784
-0.00701803
0.00170911
-0.00250732
0.00535747
-0.00695543
0.00155609
-0.00238005
0.00526765
-0.00689089
0.00147793
-0.00229457
0.00514774
-0.00670563
0.00145436
-0.00225406
0.00507543
-0.00656188
0.00142797
-0.00212627
0.00473361
-0.00619301
0.00131432
-0.0020078
0.00407649
-0.00493595
0.000725525
-0.00177697
0.00524977
-0.0077383
0.00223406
-0.0116683
0.00366796
-0.0260692
0.0136801
-0.02203
-0.0248511
0.0115425
-0.0275348
0.00507597
-0.0780663
0.0411733
-0.0178367
-0.0877826
0.0282759
-0.0890986
0.0230104
-0.11709
0.020196
0.0131509
-0.13053
0.0156945
0.00378369
-0.137722
0.0146058
-0.00310893
-0.14005
0.0146327
-0.00888802
-0.137486
0.0160324
-0.0154195
-0.129159
0.0196862
-0.0243943
-0.114197
0.0236906
-0.0366379
-0.0458092
-0.0400601
0.0253145
-0.0660317
-0.0066525
0.00980778
-0.028352
-0.0208294
-0.0176526
-0.00620597
-0.0161315
-0.00243823
-0.0131731
0.00861251
-0.00954786
-0.00433537
0.00493858
-0.0113741
0.000482965
0.00168901
-0.00649555
0.00140309
-0.00297462
0.00593893
0.00183656
-0.00648186
0.00980962
0.00197476
-0.00596919
0.0127521
0.00168074
-0.00475953
0.0201643
0.00359594
-0.0111882
0.0347309
0.0152633
-0.0301151
0.0300457
0.0322492
-0.0278528
0.0250639
0.0213532
-0.0165576
0.0227985
0.01557
-0.0134532
0.0195827
0.0135127
-0.0104329
0.015777
0.0120957
-0.00840712
0.00952455
-0.00350804
-0.0147152
0.0142952
0.000208187
-0.0183134
-0.00254251
0.0181217
-0.0207551
0.0196839
-0.00385648
-0.02154
0.0213702
-0.00514992
-0.0159413
0.0218036
-0.006188
-0.0553378
0.0382123
0.0567463
-0.023909
-0.0218139
-0.0201509
-0.045186
0.0464797
-0.0191616
-0.00724631
0.0256673
-0.0212642
-0.0155509
-0.00759157
0.0196628
-0.0158619
-0.0100375
-0.00723076
0.0183145
-0.0167687
-0.00617056
0.0161992
-0.0152823
0.00586206
-0.0086201
0.0099288
-0.00944794
0.0125808
-0.00869609
-0.0113589
-0.00367074
-0.00282763
-0.00271832
-0.00215213
-0.00110591
-0.00140345
-0.00116386
-0.00199653
0.00211625
-0.00122876
0.00247332
-0.00253791
-0.00193637
0.00278063
-0.00171407
-0.00446536
0.00058308
0.00382378
0.00317799
0.00532935
-0.0155246
0.00294036
-0.000375719
-0.00780173
0.00508929
-0.00564166
-0.000784192
-0.00717886
0.000144713
0.0271144
-0.00881923
-0.0132516
-0.00593687
0.00671189
0.0139705
0.00639051
0.0377654
0.00673295
-0.0378562
0.00907003
-0.00160395
0.0302209
-0.018679
-0.00242285
0.000334486
-0.00675857
0.00799902
-0.000916794
0.00283527
-0.00321837
0.015991
-0.00645147
0.00414045
0.0102219
0.00970082
-0.010674
-0.0105866
-0.00679436
-0.00751072
0.00817685
-0.0101015
-0.00217269
-0.00660716
-0.0314261
-0.0189684
0.0413838
0.00641892
-0.00016028
-0.00250267
-0.0686924
0.0333317
-0.00785309
-0.0214192
0.00652802
-0.0201329
0.00394706
0.00317334
-0.000597312
0.00322163
-0.00145134
-0.00260502
-0.000971445
-0.000352757
-0.00219916
0.00146787
0.00252943
0.00165819
-0.0290472
0.0151776
-0.0109653
-0.0109484
-0.0102585
0.0793654
0.0470275
0.0338366
-0.0158808
-0.0150256
-0.01417
0.0226903