/*--------------------------------*- C++ -*----------------------------------*\
| =========                 |                                                 |
| \\      /  F ield         | OpenFOAM: The Open Source CFD Toolbox           |
|  \\    /   O peration     | Version:  v2012                                 |
|   \\  /    A nd           | Website:  www.openfoam.com                      |
|    \\/     M anipulation  |                                                 |
\*---------------------------------------------------------------------------*/
FoamFile
{
    version     2.0;
    format      ascii;
    class       volScalarField;
    location    "875";
    object      epsilon;
}
// * * * * * * * * * * * * * * * * * * * * * * * * * * * * * * * * * * * * * //

dimensions      [0 2 -3 0 0 0 0];


internalField   nonuniform List<scalar> 
18258
(
0.0240625
0.0122964
0.00915631
0.00720276
0.0126821
0.0125762
0.0130361
0.0173873
0.0242185
0.037081
0.0536715
0.0482289
0.0435934
0.045331
0.0474816
0.0450164
0.0350386
0.0303001
0.0397875
0.0665208
0.0609487
0.0497487
0.0610853
0.051453
0.0652912
0.0823058
0.0630718
0.0567865
0.0509501
0.0478871
0.0412777
0.0232163
0.034436
0.0532685
0.0726115
0.0792956
0.0848991
0.0895124
0.0947599
0.0968943
0.0971294
0.0919256
0.0827755
0.0678291
0.0499927
0.0387014
0.0311786
0.0307446
0.0432365
0.0444013
0.0552149
0.0850571
0.107519
0.0807355
0.0517736
0.0823741
0.112247
0.143956
0.170479
0.192958
0.200731
0.197369
0.185899
0.169218
0.147811
0.122849
0.101871
0.0849573
0.0671756
0.0573824
0.0464329
0.0385206
0.0329524
0.0292907
0.027088
0.0253614
0.0241962
0.0251296
0.0250173
0.0178419
0.014034
0.0131814
0.00942826
0.00783465
0.00814826
0.00775416
0.00805757
0.00711286
0.00608956
0.00528449
0.00448021
0.00651822
0.00700903
0.0072501
0.00726901
0.00779158
0.00805585
0.00779733
0.00789192
0.00721899
0.00747199
0.0119482
0.0137195
0.0174136
0.0155667
0.0108282
0.00908225
0.0101287
0.0107512
0.0133544
0.0125534
0.0133347
0.0118303
0.0108044
0.00912586
0.00886282
0.00909983
0.00967442
0.0100764
0.0116793
0.0115097
0.0106743
0.0118051
0.0130259
0.0127525
0.0122088
0.0116293
0.0142752
0.0114809
0.0121674
0.0136677
0.0220242
0.0215482
0.0260314
0.0255536
0.0259992
0.0261833
0.0315764
0.0316979
0.0320776
0.0323976
0.0341407
0.0571712
0.0509344
0.0498201
0.0496256
0.0429386
0.0424698
0.0417731
0.0425866
0.0361171
0.034773
0.031529
0.031163
0.0347675
0.0439052
0.0614015
0.088676
0.12264
0.158992
0.18926
0.210231
0.231955
0.237276
0.251124
0.255782
0.256666
0.250985
0.242559
0.233089
0.220218
0.201608
0.188613
0.1482
0.104903
0.0590483
0.0783303
0.0903186
0.10003
0.101965
0.103165
0.0991715
0.0930414
0.0819344
0.0664892
0.04326
0.0479006
0.0650815
0.0675606
0.0684091
0.0543473
0.0524392
0.0488448
0.0489372
0.064454
0.0737147
0.0618803
0.0853018
0.1003
0.0878003
0.0637341
0.0975493
0.142761
0.0802793
0.0680411
0.0524061
0.0513802
0.0433624
0.0368288
0.0631172
0.0941375
0.128742
0.149503
0.171027
0.188306
0.201385
0.215282
0.187176
0.170126
0.114668
0.200482
0.151869
0.0767262
0.0564907
0.054524
0.0466653
0.0520018
0.0569679
0.0525658
0.0406193
0.0278923
0.0246372
0.0461916
0.0645125
0.0779615
0.0619683
0.078852
0.088978
0.0962951
0.101594
0.129064
0.0951832
0.105439
0.0751176
0.102129
0.0722272
0.0463996
0.0523643
0.100062
0.159635
0.218327
0.255074
0.144706
0.0732356
0.0542887
0.0541302
0.0525075
0.0476444
0.0592698
0.105502
0.0718633
0.0465444
0.0403119
0.0475259
0.0418157
0.0309969
0.0326499
0.0399503
0.0549472
0.0683833
0.0811876
0.124587
0.121774
0.146869
0.153927
0.129811
0.125703
0.0813955
0.0833548
0.122511
0.0914816
0.0739449
0.103909
0.147138
0.201511
0.247963
0.288449
0.314282
0.303703
0.274759
0.173836
0.0761104
0.0228985
0.0177912
0.0168348
0.0173099
0.0105196
0.00629972
0.00585152
0.0066707
0.00702088
0.0059165
0.00544387
0.00543384
0.00578314
0.0101835
0.0087525
0.0108294
0.0131207
0.0156695
0.0187147
0.0194432
0.0129009
0.00873233
0.00819459
0.00813049
0.00806201
0.00803318
0.00804557
0.00808675
0.00810329
0.00807129
0.00799257
0.00785507
0.00771885
0.00766059
0.00829568
0.0111828
0.0153477
0.0148472
0.0135579
0.0122027
0.0110425
0.00871204
0.0151505
0.0128507
0.01094
0.0133963
0.0165005
0.0208518
0.0244988
0.0176696
0.0141444
0.0127984
0.0126696
0.0125518
0.0125926
0.0124646
0.0125219
0.0123133
0.0128952
0.0135646
0.0169644
0.0189877
0.0211718
0.0226739
0.0232607
0.0239705
0.0211115
0.0229959
0.022733
0.0235098
0.0233289
0.022643
0.0207226
0.0189262
0.0177002
0.019113
0.0236753
0.0323135
0.0267094
0.0207286
0.0167731
0.0137212
0.0149944
0.0166647
0.0168389
0.0158516
0.0156184
0.0154106
0.0138907
0.0130997
0.0110935
0.0104851
0.0100286
0.0101847
0.0143782
0.013515
0.0137061
0.014431
0.0155217
0.0146822
0.0151128
0.0142725
0.0145224
0.0149452
0.0170159
0.0185695
0.0178128
0.0165008
0.0160038
0.0137352
0.0158386
0.0156956
0.0170147
0.0185973
0.01909
0.0190265
0.0183899
0.0167968
0.0186856
0.0220518
0.0257043
0.0247068
0.0243808
0.0204411
0.0192427
0.0202168
0.0214895
0.02239
0.022448
0.0222549
0.0223229
0.0262845
0.0258728
0.0246874
0.0226227
0.0201823
0.0175412
0.0151438
0.0166114
0.018085
0.0194697
0.0207354
0.0205219
0.0189949
0.017641
0.0164164
0.0149309
0.0146533
0.0161006
0.0173176
0.0187467
0.0204648
0.0205559
0.0188369
0.0173418
0.0160626
0.0145936
0.0145505
0.0160472
0.0173437
0.0187617
0.0202513
0.019623
0.0184648
0.0172136
0.0159724
0.0145229
0.0145935
0.0159126
0.0169801
0.0180634
0.0190149
0.0198674
0.0179064
0.016997
0.0170904
0.0161058
0.0192893
0.0185317
0.0194707
0.0180193
0.0167956
0.0177999
0.0209889
0.024021
0.024574
0.0242943
0.0201627
0.0206182
0.0205937
0.0191759
0.0159574
0.0153612
0.0181257
0.0208554
0.021317
0.0200147
0.0169214
0.0132832
0.0143029
0.0174578
0.0197671
0.0185056
0.0183497
0.0169401
0.0158577
0.0161515
0.0138728
0.016611
0.0266506
0.0241042
0.0220818
0.0196108
0.0156213
0.0105888
0.0114862
0.0126402
0.0130534
0.0105492
0.00790614
0.0071034
0.0069135
0.00675798
0.00654155
0.00617519
0.00561983
0.00538288
0.0106316
0.0258444
0.0364793
0.0358465
0.0241294
0.0207663
0.020036
0.0184949
0.00885601
0.00822933
0.00842465
0.0104219
0.00828186
0.00830981
0.0144215
0.00999893
0.0137488
0.0107043
0.0146057
0.0229503
0.0217471
0.0144301
0.00802934
0.0068988
0.0073867
0.00766968
0.00787104
0.00806513
0.00829556
0.0086774
0.00999129
0.0156894
0.0202582
0.0177252
0.016733
0.0152629
0.0187922
0.0212718
0.0232121
0.025983
0.0160779
0.011771
0.0166165
0.0272158
0.024694
0.0232326
0.0171088
0.017654
0.0170975
0.0109974
0.0106561
0.0105747
0.0113832
0.0127655
0.014683
0.0158446
0.0165942
0.0169251
0.0178349
0.0231038
0.0216176
0.0211027
0.0173261
0.0133353
0.0153726
0.0514989
0.0195289
0.020646
0.0188867
0.0191634
0.0204517
0.0151617
0.0135189
0.0129314
0.0146137
0.0214929
0.0215072
0.0213703
0.0182366
0.0174533
0.0208731
0.0219626
0.022362
0.021744
0.021301
0.0194411
0.0166707
0.0181013
0.0196178
0.0208045
0.0228074
0.0231465
0.0179264
0.017208
0.0158212
0.0105355
0.0112758
0.00971783
0.00968825
0.00965362
0.00937807
0.00893232
0.00922142
0.00933886
0.00933677
0.00899294
0.00928711
0.00834728
0.00868233
0.00977204
0.0152163
0.0147815
0.0175798
0.0194955
0.0167408
0.0155813
0.0142185
0.013195
0.0154469
0.0142816
0.0168609
0.0212109
0.0264991
0.0191266
0.0181297
0.0179075
0.0175018
0.0173458
0.017398
0.016706
0.0157039
0.0151361
0.0235939
0.0212933
0.0181692
0.0172194
0.0157852
0.0180374
0.0174795
0.0213754
0.0268555
0.0270614
0.0215437
0.0216224
0.018968
0.0200742
0.0222623
0.0271001
0.0270219
0.014442
0.00960139
0.015443
0.0157816
0.018392
0.0170078
0.0185347
0.0197161
0.0204375
0.0202955
0.017695
0.0188666
0.0196533
0.0206369
0.0185845
0.0165795
0.0173681
0.0161481
0.0152503
0.0147538
0.0126806
0.012922
0.01389
0.0153389
0.0162815
0.0177733
0.0194255
0.019457
0.0201223
0.0197168
0.0191181
0.0252006
0.0239645
0.0255072
0.0282071
0.0224287
0.0178084
0.0146895
0.015001
0.0147678
0.0146758
0.015421
0.0167811
0.0151603
0.0145412
0.0170457
0.0193983
0.0246593
0.0329939
0.0287262
0.0261774
0.0331975
0.0313782
0.0382038
0.0286562
0.0281364
0.0208461
0.0262836
0.0305105
0.0391774
0.0255033
0.0209528
0.0224149
0.0255441
0.0347741
0.0327763
0.0331321
0.0411713
0.0399406
0.0361963
0.0311754
0.0353326
0.0212421
0.0301866
0.0322128
0.0268171
0.0256962
0.0307287
0.0310587
0.0329974
0.0283709
0.0267621
0.0179086
0.0274201
0.03136
0.0330496
0.0277968
0.0205328
0.0280028
0.0205468
0.0191815
0.0202938
0.0137775
0.0127272
0.0147988
0.013871
0.0111994
0.0121444
0.0111591
0.0111411
0.0112165
0.0113245
0.011448
0.0116924
0.0116429
0.0126192
0.0132938
0.0125639
0.0115317
0.012217
0.0126162
0.0161242
0.0182124
0.0204814
0.0220773
0.0229176
0.0240501
0.022678
0.0248251
0.0237641
0.0252124
0.0249134
0.0238552
0.0213597
0.0187472
0.0163927
0.0170103
0.0207303
0.0273646
0.022416
0.0173481
0.014028
0.0116085
0.0128927
0.0161817
0.0087622
0.00801739
0.00773953
0.0075848
0.00749284
0.0067107
0.00587267
0.00756213
0.0126694
0.0160944
0.0202499
0.0259123
0.0321371
0.0376052
0.0417853
0.0447676
0.0466004
0.0470873
0.0442208
0.033372
0.0285816
0.024434
0.0201289
0.0163718
0.0167105
0.0243484
0.0320054
0.0395758
0.046268
0.0512845
0.0493912
0.0331409
0.0299261
0.0461057
0.077678
0.0734827
0.0965568
0.110384
0.0623042
0.0461946
0.0452805
0.0622076
0.0648616
0.0567482
0.0466588
0.0363071
0.0260615
0.0305235
0.0349798
0.0393284
0.0439311
0.0583638
0.0613175
0.0600111
0.0573525
0.0537797
0.0487601
0.0414961
0.0328439
0.0248148
0.0187588
0.0139829
0.00845655
0.00756103
0.00764466
0.00718765
0.00858101
0.00830405
0.00870108
0.00843376
0.00868657
0.00853324
0.00864194
0.00767733
0.00684555
0.0103673
0.00969595
0.00972837
0.0104744
0.0136004
0.0104218
0.0076556
0.00723589
0.00721867
0.00751418
0.0156997
0.0249049
0.0304056
0.0350576
0.0388157
0.037475
0.0339512
0.0281503
0.0218223
0.019647
0.016601
0.0141744
0.0130267
0.0143952
0.0118421
0.00582414
0.00518023
0.00572266
0.00556895
0.00509203
0.00614116
0.0068449
0.00746953
0.00790179
0.00821853
0.00828186
0.00822102
0.00813045
0.00808532
0.0080637
0.00803294
0.00796486
0.00786553
0.00771913
0.00757879
0.00751176
0.00810523
0.0107272
0.0146631
0.0144197
0.0133013
0.0121873
0.011322
0.00959791
0.0154628
0.0131209
0.0110038
0.01018
0.0100453
0.0103511
0.0113259
0.0129549
0.0138679
0.0158701
0.0159062
0.0157917
0.0160873
0.0158778
0.0132935
0.015091
0.0177569
0.0185761
0.0191822
0.018959
0.0174191
0.0194408
0.0205865
0.0200414
0.0194352
0.0166387
0.0194044
0.0233072
0.0237459
0.0239994
0.0213205
0.0184758
0.0216492
0.0228255
0.0224535
0.023354
0.021634
0.0223768
0.0277258
0.0144136
0.013398
0.00809849
0.00886286
0.0091561
0.00891512
0.00865117
0.00902414
0.00927825
0.00899406
0.009679
0.00999428
0.00928371
0.0117518
0.0108543
0.010519
0.0099118
0.010339
0.0109031
0.011189
0.0124286
0.019868
0.0204056
0.0184341
0.021072
0.0216568
0.0181265
0.0206425
0.0215178
0.0218608
0.0222349
0.0236989
0.0222144
0.0245209
0.0237961
0.0223522
0.0215959
0.0383851
0.0253037
0.0166823
0.0154376
0.0151014
0.0151615
0.0170807
0.012804
0.0143591
0.0101382
0.00878947
0.00843704
0.00816606
0.00826747
0.0107027
0.0162795
0.0247865
0.0281093
0.0270654
0.0236411
0.0179515
0.0131979
0.0129453
0.0117023
0.0109663
0.0108562
0.00723611
0.00511063
0.0065301
0.00659857
0.00719382
0.0076159
0.00796094
0.00822121
0.00836606
0.00844195
0.00852715
0.00864614
0.00877298
0.0088797
0.0089609
0.00901689
0.00907596
0.00919291
0.00949703
0.0107015
0.0153717
0.0197873
0.0186621
0.0171923
0.0158789
0.0166481
0.0174068
0.0181346
0.0223308
0.019193
0.0221042
0.0207828
0.0197995
0.0183826
0.0191086
0.0209088
0.0166807
0.0166143
0.011354
0.00992101
0.00954899
0.00934078
0.00918008
0.00902034
0.00885732
0.00871047
0.00856982
0.00844573
0.0083466
0.00825018
0.00810743
0.00786106
0.00745589
0.00702432
0.00611464
0.00669017
0.00739686
0.00841288
0.00953295
0.010049
0.0094776
0.00875045
0.00846616
0.00860927
0.00878778
0.00898114
0.00920151
0.00950924
0.00997125
0.0109388
0.0115994
0.0162884
0.0170294
0.0203032
0.0201058
0.0180008
0.0173518
0.0189574
0.017458
0.0127013
0.0174635
0.0169978
0.0212541
0.0157618
0.0148707
0.0152808
0.0157653
0.0184371
0.0173486
0.0158646
0.0158184
0.0127312
0.0143098
0.0163075
0.0177967
0.0280613
0.0275005
0.0346214
0.03452
0.0596598
0.056752
0.0500505
0.054126
0.0238415
0.0467376
0.0546336
0.0497503
0.0431883
0.0275325
0.0440604
0.067112
0.0974077
0.070215
0.0574475
0.106908
0.0774702
0.0376625
0.0267207
0.0150784
0.0151468
0.0251775
0.029251
0.0242547
0.0234016
0.0336404
0.0350071
0.0281885
0.0288657
0.0312499
0.0301785
0.032668
0.028276
0.0275645
0.0156084
0.0128098
0.0138456
0.0155818
0.0165834
0.0160656
0.0169124
0.0175909
0.0161483
0.0151206
0.0145581
0.0124899
0.0132292
0.0162207
0.0204459
0.0239587
0.0172968
0.013894
0.0125906
0.0123948
0.0121673
0.0120486
0.0117291
0.0115453
0.0110787
0.0112901
0.00984576
0.00985807
0.0103914
0.0105498
0.01075
0.0109048
0.0110256
0.0111367
0.0120075
0.0187939
0.0260037
0.0208087
0.0164932
0.0140089
0.0151982
0.0171235
0.0210314
0.026462
0.0178701
0.017693
0.0115351
0.0107537
0.0105474
0.0103796
0.0102323
0.0101407
0.0102075
0.0102124
0.0119445
0.0115404
0.0134403
0.0145274
0.012023
0.0116072
0.0111489
0.0108733
0.010724
0.0106461
0.0107406
0.0116062
0.0114419
0.0105085
0.0104091
0.0105231
0.0107301
0.0110466
0.0114885
0.0119889
0.0128922
0.0126566
0.0112206
0.01127
0.0106205
0.0103111
0.010073
0.0100436
0.0100875
0.0102231
0.0104409
0.0113495
0.0171574
0.0173359
0.0266835
0.0266628
0.0211958
0.0177161
0.0155577
0.014303
0.0135703
0.0353777
0.0310499
0.0491313
0.0392284
0.0314148
0.051038
0.0726245
0.0563893
0.0918855
0.0992664
0.0730829
0.0661066
0.0210388
0.0160151
0.0154735
0.0169649
0.0186606
0.0213008
0.021897
0.0267233
0.028833
0.0172175
0.016537
0.0156109
0.0249333
0.0231031
0.0197172
0.0178288
0.0164406
0.018994
0.0207922
0.0150096
0.0150525
0.00970383
0.0107073
0.0104513
0.0101153
0.0100033
0.00993486
0.00997668
0.010081
0.0103699
0.010868
0.0112415
0.0113682
0.0116124
0.011398
0.0111235
0.0107973
0.0106057
0.0104169
0.0102648
0.0101492
0.0101871
0.0105073
0.0106542
0.00935063
0.00969458
0.0098007
0.0098106
0.00984115
0.00980727
0.00967467
0.00947587
0.00928823
0.00908829
0.00914007
0.00998143
0.0101282
0.0101944
0.0100441
0.00992752
0.00991507
0.00984609
0.00982625
0.00981132
0.00968286
0.0093661
0.00863997
0.00849403
0.00910083
0.00945054
0.00963611
0.00972649
0.00971451
0.00965988
0.00942689
0.00924647
0.00903097
0.00868689
0.00824107
0.00681941
0.00707799
0.00743081
0.00792064
0.00842641
0.0088709
0.00916981
0.00932764
0.00941687
0.00933515
0.0090445
0.00851728
0.00846381
0.00885432
0.00903367
0.00899272
0.00873255
0.0083277
0.00776714
0.00706915
0.00639148
0.00586996
0.00561838
0.00522388
0.0066003
0.00718911
0.00774442
0.00826288
0.0087547
0.00927762
0.00948102
0.00953588
0.00950752
0.00934468
0.00900853
0.00847704
0.00848545
0.00896571
0.00928144
0.00941289
0.00940061
0.00921537
0.00880251
0.00788501
0.00706583
0.00640393
0.00581207
0.00522425
0.00507421
0.00532756
0.00511228
0.00532986
0.00591362
0.00671761
0.00749636
0.00809937
0.00852416
0.00870777
0.0086577
0.00840685
0.00830821
0.00843004
0.00837158
0.00806596
0.00749925
0.00675524
0.00595421
0.00532009
0.00513003
0.00544931
0.00577945
0.00547223
0.00438634
0.00493318
0.00549716
0.00609943
0.00702629
0.00821591
0.00881133
0.00913017
0.00928635
0.00921646
0.00892299
0.00847961
0.00846067
0.0088875
0.00917338
0.0092251
0.00908929
0.00880428
0.00830818
0.00686819
0.00538726
0.0047543
0.00439919
0.00396134
0.00554993
0.00591028
0.00549267
0.0052226
0.00566107
0.00620939
0.00684148
0.0073616
0.00779412
0.00810206
0.00820729
0.00817846
0.00804446
0.00804447
0.00798564
0.0077757
0.0075185
0.00730229
0.00686172
0.00640657
0.00588087
0.00643179
0.00671665
0.00629208
0.00467622
0.00496682
0.00542134
0.00571847
0.00719103
0.00862176
0.00901824
0.00915475
0.00928626
0.00921
0.0088856
0.00843924
0.00842301
0.00895269
0.00936403
0.00951238
0.00962709
0.00975175
0.00986305
0.00871209
0.00677107
0.00627879
0.00528347
0.00482657
0.00660934
0.00703266
0.00684201
0.00657903
0.00751865
0.00791421
0.00805977
0.00807706
0.00809734
0.00807845
0.00799194
0.00792668
0.00781114
0.00824771
0.00888073
0.00878054
0.00868149
0.00852204
0.00816002
0.00770632
0.00718947
0.00785806
0.00840408
0.00812771
0.00597529
0.0063493
0.00722485
0.00744107
0.00902067
0.0102201
0.0105511
0.0105253
0.0103905
0.010349
0.00932223
0.00838641
0.0082346
0.00960043
0.0155949
0.0154322
0.0154632
0.0153874
0.014808
0.0146371
0.0140637
0.0138048
0.0130967
0.0126377
0.011949
0.014002
0.0177863
0.0199024
0.0222955
0.0248191
0.0234234
0.0188786
0.0166211
0.0101316
0.00799285
0.00689567
0.00597469
0.0052775
0.00507074
0.00754258
0.00942064
0.0116077
0.0135737
0.0138835
0.0163161
0.0202641
0.0308463
0.0490059
0.0413441
0.0389929
0.0392148
0.0969527
2.54497
2.72045
2.48537
2.88933
3.32837
0.389191
0.150818
0.279733
0.294565
0.326463
0.304438
0.277221
0.253905
0.26504
0.254443
0.266199
0.248154
0.257893
0.22532
0.231364
0.240936
0.720612
1.05756
1.27195
1.77198
1.76815
1.99304
1.93922
1.95482
1.8047
1.9205
1.66926
1.38444
1.30916
1.23756
1.32874
1.44453
1.25335
1.13631
1.01978
0.928012
0.79557
1.00892
0.765698
0.723829
0.722518
0.754973
1.00589
0.916165
1.05398
0.96844
1.00568
0.601752
0.674604
0.490052
0.407607
0.33867
0.406577
0.54515
0.725336
0.910418
0.705822
0.965593
0.899589
0.90055
0.857076
0.780671
0.740828
0.727873
0.749066
0.762002
0.777724
0.806213
0.828045
0.84767
1.00042
1.06697
1.05866
0.866931
0.774128
0.535676
0.573731
0.607422
0.610375
0.567925
0.550162
0.499926
0.487457
0.44286
0.423534
0.385559
0.366126
0.334063
0.461513
0.788327
0.818084
0.888692
0.941535
0.99264
1.01461
1.03275
1.01581
0.98278
0.911398
0.879481
0.815319
0.925127
1.11211
1.10958
1.01925
0.865578
0.819105
3.81684
4.64069
3.07319
6.62386
10.0685
16.8873
7.67302
2.07937
3.48019
2.39162
2.12228
2.06884
2.18473
3.44299
2.51761
3.28829
2.74042
2.86824
2.26928
2.48286
2.32715
1.7784
1.49203
1.26292
1.13137
0.913452
0.895659
0.735877
0.68905
0.6477
0.544758
0.677525
0.701683
1.72747
2.3355
2.90915
4.56048
4.99987
5.4593
8.59753
6.93423
8.65674
5.14112
5.20299
3.84625
3.61696
3.65631
5.02872
7.20162
4.95829
8.65904
4.82342
15.6459
34.9937
9.22086
19.0926
11.0065
9.94497
9.57916
9.86503
14.0245
9.57863
15.5558
13.1845
17.5308
17.21
18.0793
13.8741
10.2783
11.2291
12.0365
15.4539
10.8989
12.4571
9.45893
9.23838
8.74497
7.25555
6.54473
5.0502
6.00817
7.03836
8.02711
12.7757
15.9781
18.3289
22.0861
16.2701
18.5425
11.1603
12.2727
9.47703
8.89499
9.0333
11.8895
21.0699
14.9184
27.3132
0.499528
0.226428
0.547332
0.230089
0.488026
0.391267
0.403803
0.404724
0.400437
0.462119
0.220571
0.185389
0.17758
0.175423
0.176953
0.100337
0.124596
0.0805009
0.12704
0.229676
0.505772
0.366488
0.140708
0.08268
0.0546543
0.04299
0.063531
0.0613258
0.0980725
0.0994356
0.105786
0.132386
0.228725
0.434764
31.9122
7.12834
1.13498
0.533391
0.283554
0.174156
0.150833
0.170584
0.183633
0.186688
0.175719
0.149812
0.108033
0.0720989
0.0488431
0.0413574
0.0301594
0.0276154
0.0392283
0.0530571
0.0492407
0.0649596
0.0833479
0.106134
0.130439
0.149847
0.16446
0.168413
0.156379
0.122389
0.0805232
0.0443535
0.0264913
0.0228386
0.0209093
0.0194142
0.0167703
0.0145632
0.0131429
0.0112343
0.0099062
0.00894146
0.00863395
0.00875919
0.00956326
0.0120972
0.0145592
0.0188526
0.0179754
0.0134592
0.0126128
0.00781367
0.00722475
0.00737397
0.00762673
0.0084485
0.0132156
0.013523
0.0134007
0.0134271
0.0132453
0.0132294
0.0130601
0.0128935
0.012674
0.0122532
0.0119618
0.011438
0.0111548
0.010488
0.0105147
0.0108726
0.0111711
0.010106
0.00999199
0.00930911
0.020732
0.0492571
0.0702368
0.0786714
0.0884437
0.0811214
0.0420321
0.0231451
0.00791793
0.00767983
0.00818145
0.00881559
0.00836911
0.00616867
0.00671549
0.00789894
0.011104
0.0110832
0.0111178
0.0129944
0.0135466
0.014911
0.0154631
0.0158431
0.0160737
0.0159961
0.016127
0.0158319
0.015925
0.0157148
0.0158037
0.0153981
0.0273341
0.0257468
0.0264879
0.0265274
0.0277462
0.0272299
0.0267369
0.0257437
0.0250361
0.023496
0.0219055
0.0202962
0.0181545
0.0188774
0.0182048
0.0113169
0.0107311
0.00767519
0.00771356
0.00741757
0.0102233
0.00929654
0.00781226
0.00916477
0.00671684
0.00689803
0.00725005
0.01035
0.0108818
0.0173705
0.0173996
0.0154406
0.0164425
0.0174976
0.0188504
0.0200142
0.0214486
0.022452
0.0235506
0.025465
0.0258862
0.0241173
0.0237689
0.0226372
0.0245582
0.023523
0.0218001
0.0233879
0.0250371
0.0275911
0.0272662
0.0250707
0.0237404
0.0223224
0.0199887
0.0173393
0.0159364
0.0149057
0.0149076
0.0138445
0.016119
0.0145144
0.0100957
0.0105757
0.00815601
0.00632777
0.00601842
0.00923721
0.0132357
0.0282637
0.017669
0.00950011
0.0107742
0.0174018
0.0364569
0.0218418
0.0355055
0.0148251
0.0165115
0.0125763
0.0125659
0.0138528
0.0161525
0.0172688
0.0209494
0.0236388
0.0256447
0.0265706
0.0278989
0.0282953
0.029722
0.0301738
0.0329219
0.0331823
0.0332212
0.0327518
0.0303396
0.0272788
0.0250798
0.0310346
0.0359481
0.039264
0.0416925
0.0441662
0.0428836
0.0391205
0.0382332
0.0362946
0.0351629
0.0337457
0.0306152
0.02677
0.0219533
0.021333
0.0273432
0.0330941
0.049394
0.053437
0.0531718
0.0554816
0.0559996
0.0577688
0.0582193
0.0608879
0.0614726
0.062649
0.0629916
0.0683047
0.0692043
0.0702052
0.070536
0.0702163
0.0711696
0.0711887
0.0483931
0.0433791
0.0393113
0.0326273
0.0273024
0.0346624
0.0432159
0.0484487
0.0739402
0.0743861
0.0781188
0.0807404
0.0857165
0.0894148
0.0943181
0.0988038
0.103205
0.106596
0.108639
0.108922
0.109374
0.108375
0.107069
0.115798
0.15044
0.167048
0.197871
0.212996
0.225477
0.229298
0.220787
0.2247
0.21678
0.219415
0.21338
0.21152
0.206421
0.200147
0.196681
0.190375
0.18635
0.214691
0.162595
0.124792
0.0829164
0.0665762
0.0598223
0.0564089
0.0588083
0.0457134
0.0391187
0.0581987
0.0537776
0.0432715
0.0293415
0.0188696
0.0320782
0.0477025
0.0645931
0.0817608
0.0974504
0.107729
0.110334
0.109293
0.104559
0.0967353
0.0815725
0.061421
0.0421838
0.0347565
0.0320623
0.0281019
0.0221579
0.0178094
0.0156941
0.0141112
0.0123493
0.0111052
0.0105553
0.0107192
0.0110312
0.0132287
0.0173103
0.0173
0.0115973
0.0111408
0.00766505
0.00775422
0.00801241
0.013326
0.0134715
0.0208923
0.0233343
0.0219757
0.0226622
0.0223961
0.0226919
0.0223323
0.0211503
0.0203133
0.0193509
0.0185067
0.0177608
0.0169332
0.0161222
0.0174318
0.0163753
0.0138092
0.0139337
0.0145534
0.0152027
0.0160913
0.017344
0.0184196
0.0211098
0.0212846
0.0207853
0.0208792
0.0194126
0.0186988
0.0199537
0.0194791
0.0132697
0.013093
0.0191126
0.0187616
0.018651
0.0224643
0.0208826
0.0214062
0.0225356
0.0224235
0.0194889
0.0181303
0.0165822
0.015398
0.0140162
0.0124987
0.0121151
0.0148476
0.0130468
0.0107244
0.0119288
0.0143314
0.016942
0.0184068
0.0203943
0.0231101
0.024084
0.0263212
0.0277436
0.0298386
0.0306778
0.0354827
0.0361498
0.0340073
0.0321633
0.0311663
0.0273998
0.0234766
0.0258913
0.0267601
0.0271359
0.0272438
0.0271182
0.0235431
0.0231104
0.0215953
0.0210771
0.0195084
0.0189461
0.0177812
0.0170173
0.0159925
0.0141638
0.0134607
0.012645
0.0122904
0.0173417
0.0108329
0.0105796
0.0159782
0.00984079
0.0115769
0.0113263
0.0118487
0.0125102
0.0103403
0.0151203
0.0103134
0.0112121
0.0114554
0.0143965
0.0100046
0.0212918
0.0650371
0.0934042
0.112354
0.203911
0.244012
0.264195
0.284849
0.298918
0.314891
0.332406
0.350069
0.363108
0.364518
0.338754
0.320167
0.255041
0.228306
0.252137
0.282364
0.194577
0.166883
0.169166
0.170008
0.172592
0.173851
0.177499
0.175471
0.180546
0.176202
0.183487
0.17748
0.183965
0.176578
0.161235
0.14462
0.112082
0.10134
0.06536
0.0506078
0.0395807
0.0287288
0.0209292
0.0187815
0.0177768
0.016432
0.0165167
0.0126561
0.0130984
0.00839444
0.00617192
0.00985767
0.0096879
0.00722219
0.0098175
0.0112146
0.0117272
0.0122638
0.0125571
0.0192009
0.0192359
0.0246446
0.0245506
0.0291231
0.0347261
0.0359674
0.0396128
0.0569629
0.0574758
0.0572201
0.0570325
0.0566012
0.0493884
0.0491066
0.0479996
0.0474112
0.0444702
0.0439135
0.041833
0.0406935
0.0377532
0.0369275
0.0358012
0.0362715
0.0408092
0.0563237
0.0998206
0.0296468
0.0282932
0.0207588
0.0145589
0.021421
0.0158925
0.0154424
0.0136117
0.0186763
0.0134452
0.0136933
0.0165015
0.0170237
0.0164305
0.0214756
0.0267368
0.0234581
0.0259874
0.117573
0.0762915
0.0247025
0.0487616
0.0722482
0.158381
0.204384
0.140168
0.160066
0.184184
0.16717
0.14034
0.109849
0.0818157
0.0582357
0.0450567
0.0113302
0.0133829
0.0185652
0.0412544
0.0611783
0.101345
0.0834334
0.109023
0.149012
0.173549
0.209617
0.201162
0.172986
0.148822
0.145353
0.160417
0.163001
0.105875
0.10283
0.0777306
0.173966
0.219158
0.184633
0.231922
0.244775
0.144548
0.0319694
0.0183606
0.0151092
0.0139071
0.0124259
0.0193568
0.011453
0.0116403
0.0123563
0.0132641
0.0169333
0.0293754
0.0134295
0.0149153
0.0183315
0.0158775
0.0149104
0.0146243
0.0145354
0.0151559
0.0165131
0.0215474
0.0216366
0.0212827
0.0159693
0.0172649
0.0156813
0.019992
0.0211868
0.033236
0.0152438
0.0161856
0.021471
0.477836
0.0246053
0.0178079
0.0232087
0.0218752
0.0300811
0.043962
0.459398
0.0441986
0.0351118
0.0585568
0.0607983
0.0654433
0.0691146
0.072631
0.075156
0.0791065
0.0817688
0.0829981
0.0842244
0.0998871
0.0998847
0.0988235
0.103422
0.0975487
0.0576267
0.0578396
0.0973584
0.105084
0.059381
0.0410009
0.0384938
0.0311944
0.0323229
0.0418619
0.0439316
0.06161
0.0614387
0.102469
0.0934429
0.094839
0.0965868
0.0915864
0.0920568
0.0941103
0.0940879
0.07534
0.0730356
0.0712773
0.0682219
0.0646802
0.0617806
0.0588893
0.0558564
0.0533397
0.0535978
0.0586184
0.0584143
0.0663524
0.0740403
0.225892
0.153945
0.10965
0.0809295
0.0655123
0.0590817
0.0585037
0.0616223
0.0648402
0.0664977
0.0673013
0.0706592
0.0923699
0.0947749
0.0976319
0.0950898
0.0989089
0.096965
0.0945063
0.104402
0.112224
0.0655928
0.0676709
0.0477698
0.0445662
0.0325117
0.0330719
0.0235944
0.0195596
0.0195423
0.0195209
0.0197475
0.0226329
0.0316427
0.031748
0.0463955
0.0463049
0.051738
0.0753297
0.0723853
0.129086
0.118304
0.108633
0.10131
0.101681
0.103807
0.106393
0.101387
0.0976959
0.092147
0.0723998
0.0684025
0.0662722
0.0650349
0.0638338
0.0675241
0.0915044
0.148791
0.227955
0.334489
0.435392
0.44556
0.40289
0.252908
0.292102
0.145693
0.165778
0.188059
0.164173
0.173101
0.321016
0.266994
0.378517
0.483585
0.53764
0.60435
0.641932
0.631237
0.502476
0.327207
0.334801
0.44512
0.771815
0.865397
0.745086
0.762801
0.659495
0.541289
0.522791
0.498052
0.561913
0.612728
0.578255
0.595032
0.539182
0.514907
0.444905
0.496397
0.36266
0.326631
0.307024
0.298169
0.357267
0.289083
0.325601
0.267617
0.273854
0.222523
0.228019
0.190357
0.145732
0.138159
0.12808
0.143397
0.162554
0.148923
0.15335
0.133911
0.114479
0.0911675
0.0984245
0.073537
0.069605
0.0708208
0.0809269
0.127261
0.372559
0.174193
0.163838
0.167771
0.177993
0.319107
0.282681
0.724267
0.507453
0.709751
0.474192
0.562815
0.470906
0.363279
0.378858
0.418733
0.599188
0.822568
6.65621
0.284775
4.26506
3.16603
3.32453
3.47008
4.44741
7.80934
7.11069
9.3927
6.80594
9.08118
4.97531
4.9766
4.32582
4.47125
4.43934
4.26336
5.20566
6.65528
0.238999
0.0910217
0.0854296
0.0856069
0.0873826
0.197732
0.052559
0.201985
0.053957
0.213434
0.0495118
0.246628
0.196876
0.0382365
0.0192582
0.0200898
0.0168072
0.020375
0.0169229
0.0250469
0.0235423
0.0237007
0.0265955
0.0763719
0.292497
13.8451
1.67308
0.699332
0.798945
1.19579
0.81343
1.21431
1.68557
1.1349
0.567193
0.372376
0.439223
0.530981
0.506725
0.645581
0.928619
0.908375
0.714204
0.718083
0.633831
0.89352
0.902191
1.06839
1.24706
1.14061
0.895012
0.705691
0.597891
1.02773
1.03178
0.964783
0.410251
0.116194
0.0472045
0.0495816
0.0358737
0.0378546
0.034875
0.0557057
0.162875
0.223646
0.135071
0.433185
0.417303
0.566552
0.404256
0.413904
0.327151
0.351106
0.53579
0.585218
0.644888
0.676044
0.726924
0.67232
1.2911
2.21245
2.5032
12.8708
17.434
3.2091
3.10073
13.9549
0.315111
0.0839404
0.0233241
0.017433
0.0162175
0.0161301
0.015001
0.0155384
0.0159999
0.0169638
0.0188292
0.0231964
0.0458343
0.201469
0.203438
0.0643459
0.0324304
0.0229709
0.0196167
0.0170467
0.0163873
0.0155319
0.0154596
0.0150085
0.0156584
0.0174657
0.0237844
0.0774479
0.271064
11.329
2.4394
2.25818
8.3861
5.79721
0.206779
0.0437997
0.0200954
0.0169274
0.0158843
0.0167543
0.0162661
0.0182117
0.0184028
0.0230171
0.0250225
0.0317677
0.0570814
0.110203
0.315606
9.59031
8.66014
8.38297
7.81847
0.310223
0.115223
0.0543999
0.0382339
0.0346266
0.0338212
0.0226502
0.0236751
0.0189831
0.0216422
0.018296
0.0226844
0.048317
0.211948
5.35481
1.57272
1.70375
1.21046
0.613811
0.656582
0.670554
0.690189
1.77848
4.07014
5.00221
3.43541
3.36693
4.71648
3.17678
2.48631
1.83275
1.75036
2.5501
1.96603
1.82785
1.35872
1.46851
1.06887
1.46854
0.812049
0.977801
1.07405
1.53301
1.39888
1.41174
0.909371
1.05157
1.47694
1.72671
1.65042
0.84482
1.22809
1.01505
0.655531
0.608232
0.634849
0.604741
0.579513
0.576186
0.580502
0.559339
0.576664
0.556783
0.588721
0.548229
0.533501
0.507821
0.527589
0.545164
0.577849
0.36032
0.422786
0.427188
0.44166
0.454237
0.375295
0.451389
0.442372
0.65975
0.995815
0.837216
1.15791
0.681267
1.00499
2.0097
5.21144
2.35776
0.822365
1.34936
1.58383
1.14001
0.628829
2.55396
3.56021
1.23094
1.78488
10.38
8.43027
16.5111
10.9759
18.6473
6.04274
4.63765
17.8136
6.68173
6.91953
4.52101
4.52599
2.96252
1.58746
1.6316
1.74511
1.22906
1.3023
1.21223
1.13481
1.47664
1.44266
1.8901
2.03892
2.58263
1.81439
1.77959
2.60494
1.06512
1.40326
1.84132
1.83366
1.36297
2.34832
3.16389
2.97879
2.14737
2.34126
3.5101
4.82562
4.58945
3.17826
3.98072
10.1444
13.5397
13.6991
4.22948
19.3131
18.3138
2.08734
0.571058
0.327509
0.0904535
0.0446834
0.0366639
0.0387012
0.143907
0.0458244
0.0571131
0.0456317
0.0736515
0.0701018
0.0876106
0.219634
0.12718
0.217717
0.156569
0.191879
0.122519
0.195881
0.229591
0.239765
0.191012
0.117297
0.215731
0.310327
0.107503
0.358434
0.394305
0.263618
0.336478
0.400756
0.19913
1.00013
0.186391
0.12841
0.148529
0.397372
1.26908
0.220955
0.465046
4.49322
14.7276
3.69635
0.944412
0.685658
0.055636
0.0301888
0.0319922
0.0279409
0.0194071
0.0845856
0.0994761
0.407119
0.209531
0.278442
0.6623
2.92858
2.40119
1.13355
5.50574
10.2796
15.1583
9.14314
2.24469
9.77749