/*--------------------------------*- C++ -*----------------------------------*\
| =========                 |                                                 |
| \\      /  F ield         | OpenFOAM: The Open Source CFD Toolbox           |
|  \\    /   O peration     | Version:  v2012                                 |
|   \\  /    A nd           | Website:  www.openfoam.com                      |
|    \\/     M anipulation  |                                                 |
\*---------------------------------------------------------------------------*/
FoamFile
{
    version     2.0;
    format      ascii;
    class       surfaceScalarField;
    location    "635";
    object      phi;
}
// * * * * * * * * * * * * * * * * * * * * * * * * * * * * * * * * * * * * * //

dimensions      [1 0 -1 0 0 0 0];
oriented        oriented;


internalField   nonuniform List<scalar> 
50655
(
0.00257901
-0.0036107
-0.00139264
-0.00512704
0.00132148
0.00364031
-0.00341506
0.00389555
0.00451134
-0.00249927
-0.00280707
0.00301002
-0.00369684
-0.00377355
0.00269769
-0.001794
-0.00482632
0.00084575
0.00015993
-0.00468417
0.00163651
-0.00184925
-0.00720726
0.00243556
-0.0105011
0.00286436
0.000330691
-0.0113242
-0.00347947
0.00419263
-0.0120736
-0.0048547
0.00550165
-0.0129319
-0.00564572
0.00639987
-0.0262214
-0.0093308
0.0224264
-0.0487481
-0.0282982
0.0502645
-0.0483161
-0.0527693
0.0516401
-0.0310716
-0.0711582
0.0531358
-0.00453137
-0.0779931
0.0506698
0.00790237
-0.0546456
0.0414005
-0.00163134
-0.0314471
0.040208
-0.0208353
-0.0217131
0.0401503
-0.0166795
-0.0512687
0.0463906
-0.00687307
-0.0550343
0.0446701
-0.0385922
0.0313901
-0.0408825
0.0188308
-0.0168418
-0.0155619
-0.0755
0.0496847
0.0203505
-0.0797563
0.0433474
0.0305818
-0.0290829
0.0185446
0.0340012
-0.00375681
0.0364155
0.0179594
-0.0206962
0.025239
-0.0179489
0.0288495
0.0162959
-0.00948903
0.018263
0.00316776
-0.00129843
0.0142996
-0.00658206
0.0067239
0.00293064
-0.00543674
-2.23612e-06
-0.00118378
-0.00540002
-0.00127955
0.00122444
-0.00632544
0.000276656
0.000631474
-0.00759917
0.000266851
0.000990276
-0.00875386
0.000144466
0.000993089
-0.00915572
-0.000200848
0.000586352
-0.00942735
-0.00061617
0.000871207
-0.00898962
-0.00104121
0.000587197
-0.00836498
-0.00150513
0.000863814
-0.00713878
-0.00194923
0.000706609
-0.00571461
-0.00240858
0.00096754
-0.0038356
-0.00270903
0.000813844
-0.00199401
-0.00290189
0.00104334
0.000880871
-0.00289247
0.00063948
-0.00257717
0.00279292
-0.00530805
0.00504634
0.000859423
-0.0107529
0.00480361
0.000584676
-0.0129498
0.00521264
-0.00308269
-0.0128607
0.00541086
-0.0055669
-0.00537066
0.00467151
-0.012218
0.00052448
0.00562068
-0.0115576
0.000605247
0.00357666
-0.00368306
-0.0015
0.00208765
-0.00294282
0.00214182
-0.000716122
-0.00449932
0.00218933
-0.000648983
-0.00581139
0.00234806
-0.00105238
-0.00707801
0.00230539
-0.00105372
-0.00857944
0.00249703
-0.00100961
-0.0101457
0.00258322
-0.00103034
-0.0114419
0.00237622
-0.00109321
-0.0123457
0.00201571
-0.00112485
-0.0128151
0.00160353
-0.00114722
-0.013135
0.00143831
-0.00113164
-0.0137405
0.00156594
-0.000974687
-0.0139494
0.00112221
-0.000928422
-0.0136564
0.000896309
-0.0012047
-0.013648
0.000782227
-0.000806298
-0.0133744
0.000826528
-0.00111622
-0.0131277
0.000901069
-0.00116373
-0.0129833
0.000843984
-0.00100417
-0.0127076
0.000574193
-0.000865483
-0.0121683
0.000125363
-0.000680036
-0.0112676
-0.00044973
-0.000466269
-0.0101473
-0.000909136
-0.000226479
-0.00883017
-0.00100491
-0.000327006
-0.00738219
-0.000755431
-0.000706395
-0.00758005
-0.000688448
0.000874307
-0.0163842
0.000826721
0.00795088
-0.0211529
0.000408212
0.00429987
-0.0225952
0.00115433
0.000222728
-0.0425687
0.0163504
0.00350564
-0.0545473
0.00561569
0.00606467
-0.0294522
-0.0162804
-0.00912226
-0.0131092
-0.0149393
-0.00153591
-0.0112506
-0.00398363
0.00204709
-0.00999527
-0.00307111
0.00172566
-0.00807715
-0.00342037
0.00140075
-0.00471716
-0.00328503
-0.000170236
-0.00317094
-0.00163153
-0.00443358
0.00458364
-0.00341589
-0.00265293
0.00672762
-0.00862189
0.000936541
0.00620501
-0.00992668
0.00623105
0.00589487
-0.0113342
0.015006
0.00877975
-0.0177358
0.028534
0.0137534
-0.0275638
0.0248549
0.0196507
-0.016253
0.0164258
0.00635735
0.00188703
0.00760474
7.79185e-05
0.0085958
-0.00126911
-0.00407841
0.0128173
-0.00452036
-0.00685314
0.00998802
-0.00758319
0.00540094
0.00444605
0.00097624
-0.0102386
0.00221681
-0.00830402
0.00356645
-0.0049465
-0.00439646
0.00735558
-0.0124104
0.00204388
0.0053651
-0.0143076
0.00568828
0.00242944
-0.0384936
0.0269017
0.0232255
-0.00687186
-0.0133288
0.0370624
-0.00979098
-0.0392603
-0.00483724
0.00927369
-0.00912001
-0.000577627
0.0089604
-0.0074552
0.00264028
0.00957967
-0.00671499
0.00456513
0.00959828
-0.00490544
0.00711528
-0.00134535
0.011259
-0.0049582
-0.00272311
0.0124362
-0.00189313
-0.00245754
0.00881931
-0.000397402
-0.00413824
-0.00203209
-0.0210701
-0.00212533
0.0295488
-0.0106661
-0.0143167
-0.00166884
-0.00712344
-0.00248826
-0.00733493
0.0158718
0.0013279
-0.0102722
0.0219191
0.00113169
-0.00900415
0.0324649
0.000352793
-0.0132006
0.0832051
-0.00215017
-0.0359974
0.0467905
-0.00195275
0.0455191
-0.00220544
0.00743537
-0.00311358
0.0384437
0.00385476
0.0217841
0.00195496
0.0232306
-0.000319285
0.0113143
0.0139363
0.00622777
-0.00793851
0.000102844
0.00680831
0.00521486
-0.00148232
0.0073193
0.00818499
-0.00152596
0.00712032
-0.0150721
0.00797735
-0.00209938
0.00736788
-0.015316
0.00850165
-0.00126544
0.00743459
-0.0167031
0.00841406
-0.0013041
0.00741843
-0.0160138
0.00861321
-0.000631954
0.0072818
-0.0165817
0.0086072
-0.000258481
0.00703036
-0.0159838
0.00855995
0.000705581
0.00623351
-0.0154451
0.0082289
0.00576168
0.00442014
-0.0169417
0.00745094
0.00149182
-0.00415384
0.0056762
0.00273317
0.000806428
0.00537934
-0.000280793
0.000626621
0.00713781
-0.000735252
0.000780103
0.00801458
-0.00115
0.000935173
0.00831757
-0.00120382
0.00127185
0.00838539
-0.00131689
0.00149531
0.00856007
-0.00136222
0.00149738
0.00870492
-0.00135208
0.00126033
0.00871607
-0.00137101
0.000933124
0.00883105
-0.00119643
0.00730657
-0.000263977
0.0093539
-0.00199812
-0.000818617
0.0110314
-0.0018434
-0.000854385
0.0123145
-0.00154042
-0.000667751
0.0131
-0.000305765
-0.000945128
0.0135301
0.000858134
-0.00117856
0.0137076
0.00171471
-0.00133397
0.0137065
0.00224316
-0.00141433
0.0137653
0.00225659
-0.00143085
0.0137197
0.00183343
-0.000977755
0.0137253
0.00135693
-0.000596387
0.0139062
0.00123693
-0.000537126
0.0132925
0.00115613
0.000564576
0.0124382
0.0024379
0.000238462
-0.000270299
0.0126767
-0.000414458
0.00244232
-0.000841306
0.0123363
-0.000238593
0.00280362
-0.000634408
0.0114614
-7.46054e-05
0.0031147
-0.000162561
0.0101979
4.87868e-05
0.000300183
0.0032775
0.0085988
0.000724798
0.00331438
0.000129574
0.00685408
0.00104286
0.00304797
0.000137106
0.00584878
0.00096619
0.0022418
8.77344e-05
0.0044061
0.00462447
-0.000850118
0.00285589
0.00428039
-0.000557064
0.00141498
-0.000509408
0.00407572
0.00389626
-0.00041056
0.00560541
-0.00051961
-0.00120569
0.00682823
-0.000412693
-0.000826968
0.00780064
-0.000611036
-0.000377865
0.00816635
-0.000475913
9.34877e-05
0.00822682
-0.000610436
0.000533506
0.00754269
-0.000263156
0.000930693
0.00657439
-0.000302053
0.00125379
0.00477329
0.000277828
0.00150619
0.00212275
0.00109422
0.00153919
-0.00163416
0.00204762
0.00169135
-0.00441409
0.000608486
0.00215345
-0.00594435
-0.000849006
0.00236
-0.00722702
0.000627017
0.000633708
-0.0136523
0.000513185
0.00586724
-0.0246624
-0.00654063
0.0174349
-0.0308139
-0.0160593
0.0220456
-0.0390374
-0.025888
0.033845
-0.031453
0.0234953
0.0161681
-0.0382598
0.00923367
0.0257798
-0.016649
0.00696875
-0.00457024
0.0044081
-0.0321417
0.0259681
0.00155461
-0.0146228
-0.0233631
0.0058089
-0.0374895
0.0061713
0.0410753
-0.0572292
-0.000838929
0.0288616
-0.0498132
0.0150976
0.0125436
-0.0100165
0.0169378
-0.0103168
0.0108732
-0.00245431
0.0188022
0.00792932
0.0111656
-0.0125646
0.0135447
0.0051944
-0.00615912
0.00131559
0.0112031
0.00478949
0.00102048
0.00264979
0.00128047
-0.00105564
0.00158386
0.00270849
-0.00489172
0.00379519
0.00206697
-0.00545419
-0.000554819
0.00219055
-0.00958013
0.00195433
0.00242896
-0.0082276
-0.00370263
0.00202796
-0.0118763
0.00194265
0.00142301
-0.00891399
-0.0041947
0.000602161
-0.0112484
0.0021386
-0.000299901
-0.00732691
-0.00321922
-0.00133293
-0.00816754
0.00227552
-0.00186775
-0.00441272
-0.00173715
-0.00255652
0.00128404
-0.00254973
0.00390289
0.0117792
-0.0105739
0.0112809
0.00661704
-0.00937606
0.0126623
0.00899962
-0.00503986
0.0095796
0.0106258
-0.00240024
0.00386729
0.00958946
0.000873966
0.0128418
-0.00279784
-0.00212292
0.000933237
0.0153408
-0.00566465
0.00413249
-0.0032409
0.0021987
0.0152746
-0.00733261
-0.00304692
0.00332847
0.007044
0.0106432
-0.00782335
-0.00266297
0.00334776
0.0116958
0.00184565
-0.00667538
-0.00198191
0.00121116
0.0161586
-0.00103027
-0.00422396
0.00751466
-0.000528947
-0.00520594
0.0109368
-0.000145394
-0.0103386
0.0126713
-0.0089486
-0.0142473
-0.0141189
0.00842858
0.0057014
-0.024107
0.00410981
-0.0185285
0.00622634
-0.0164194
-0.0114357
0.00925752
0.00800348
0.00960784
-0.0340774
-0.0236891
0.00755027
0.011224
0.00757787
-0.0099955
-0.032584
-0.00912152
0.00777928
-0.00161034
8.32603e-05
0.0077405
-0.00654432
-0.0104641
0.0114124
-0.00760833
-0.0141009
0.0106043
0.0104583
-0.000915878
-0.00881965
0.0102843
-0.00144064
0.00786735
-0.0079504
0.00413689
0.00105992
0.00437891
-0.00380059
0.00615775
-0.00631026
0.0139782
-0.0121557
-0.00365142
0.0108189
-0.0170426
-0.00264914
0.00570267
-0.0169782
-0.00105428
-0.00113968
0.00195224
-0.00817027
0.00818449
0.00975969
-0.00944376
0.0105856
0.01146
-0.00494165
0.0111186
0.0121295
-0.00211687
0.0108966
0.00407797
-0.0106367
0.0112831
0.00284718
-0.00890926
0.0124256
-0.00210713
-0.00478183
0.0119673
-0.00471833
0.00988458
-0.00603179
0.00208897
0.00406112
0.00101265
0.00772077
0.00798604
-0.00173787
0.0107642
0.00912242
0.000172754
0.00788771
0.00626465
-0.00919688
0.0101349
0.000202775
-0.00721983
0.00354208
0.00351484
0.000164007
0.0015596
-0.00104687
0.00487763
-0.00685506
-0.00161295
-0.00234495
0.0187506
-0.00322587
-0.0196658
0.0168905
-0.00137822
-0.00184884
-0.0164016
-0.0118938
-0.000720916
0.00316221
-0.00875858
-0.0106297
-0.0129451
0.00635873
-0.00593434
-0.00496766
0.000803548
0.00132649
0.000379216
-0.00209312
-0.00422289
-0.000992591
0.00394349
-0.00257327
-0.000413644
0.00177752
-0.00235785
0.00127443
-0.00378338
0.00668742
0.000670841
-0.0110635
0.000658266
-0.00346614
0.0102843
-0.00345866
-0.00448508
-0.0187623
0.013738
-0.0117675
-0.0192897
-0.0117841
0.00789691
0.00432242
-0.0265218
-0.0154096
0.00260948
0.00934
0.0105812
-0.0355121
-0.0164907
0.0131007
0.00185879
0.0104193
-0.0422311
-0.0146583
0.00986744
0.000108868
0.0112976
-0.0436152
-0.0108279
0.00327317
-0.00150416
0.0103385
-0.0431282
-0.00621891
-0.00145865
-0.00181431
0.00889497
-0.039452
-0.00339524
-0.00447621
0.00410123
-0.034716
-0.00123381
-0.00708384
0.00650191
-0.00302832
-0.0321561
0.00128922
-0.00609059
0.00562492
-0.00348536
-0.0291102
0.00259764
0.004498
-0.00396752
-0.00627688
-0.0289162
0.00199201
0.00398951
-0.00353301
-0.00275459
-0.0298201
0.000126137
0.00187269
-0.00120195
-0.027763
-0.00167804
0.0014265
-0.00191923
-0.022946
-0.00271651
0.00158019
-0.00377692
-0.0301187
0.00174028
0.0226201
-0.0172632
-0.059233
0.0293197
-0.0130068
0.0124246
0.00594465
-0.0198784
-0.00143571
-0.0132706
-0.0251772
-0.00910017
-0.0122474
-0.000518148
-0.00873075
-0.0111455
0.000574857
0.000301301
-0.00941756
-0.000643414
0.000544545
-0.00579337
-0.00381204
0.00147832
-0.00309027
-0.00402472
0.00105298
-0.00453979
-0.000251675
-0.00446029
0.000794567
-0.000921312
-0.00684982
0.00204474
0.000281607
-0.0107898
0.0021985
0.00166187
-0.0131007
0.000808999
0.00142327
-0.0133667
-0.000360344
0.000556578
-0.0130753
-0.00175463
0.00140921
-0.0236464
0.00141763
0.00907879
-0.0568472
0.0174922
0.0155017
-0.101263
0.0087857
0.0350572
-0.117897
-0.0059519
0.021892
-0.127225
-0.0116797
0.0202336
-0.133627
-0.0165804
0.0221469
-0.137256
-0.0222712
0.0250161
-0.138568
-0.0273334
0.0277341
-0.138482
-0.0308122
0.0298021
-0.137667
-0.0329613
0.0312218
-0.136209
-0.034209
0.0318351
-0.134061
-0.0348596
0.03181
-0.130219
-0.0353709
0.030657
-0.12225
0.027879
-0.0366819
-0.10312
0.0208587
-0.0407482
-0.0533664
0.00340496
-0.0537771
-0.0225821
-0.0011859
-0.0298174
-0.0123659
-0.00426643
-0.00602701
-0.0120877
0.00199785
-0.00233116
-0.0111883
0.00433941
-0.00530959
-0.00875484
0.00385576
-0.00636967
-0.00423945
0.00402371
-0.00862346
-0.0047817
0.00349214
-0.00302112
-0.00805019
-4.9719e-05
0.00326739
-0.00781111
0.00237351
-0.00268377
-0.00894243
0.00104351
-0.0138134
0.00697438
-0.00220201
-0.0166423
0.00714258
-0.00442364
-0.0189154
0.00764254
-0.00547204
-0.0237692
0.00700336
-0.00225431
-0.053302
0.0187352
0.0106012
-0.0978898
-0.00810583
0.05212
-0.110873
-0.0316885
0.0439513
-0.112339
-0.0418361
0.0424909
-0.107659
-0.0476761
0.0421735
-0.0988992
-0.0521416
0.0425254
-0.0862397
-0.0543564
0.0408724
-0.0693105
-0.0558527
0.0381036
-0.0496142
-0.0568312
0.0363689
-0.0239445
-0.0481009
0.0217944
-0.0375473
0.0131642
-0.0534118
0.0235731
-0.0081758
-0.0592922
0.0258844
-0.0205067
-0.0594062
0.0272122
-0.0276245
-0.0504386
0.0269724
-0.0364662
-0.0403975
0.024788
-0.0353319
-0.0232059
0.0167484
-0.0344071
0.00921163
-0.0328562
0.0269836
0.0382861
-0.0566948
0.050728
0.049673
-0.0741834
0.0745729
0.0497565
-0.0744211
0.094756
0.0499602
-0.0709676
0.110501
0.0471384
-0.0637402
0.118733
0.0397893
-0.0488429
0.116706
0.0329906
-0.0317742
0.101049
0.0300833
-0.0151473
0.0543994
0.0398358
0.00624062
0.0254257
0.025016
0.00376129
0.021326
0.00417796
-0.000182985
0.0194201
0.000594863
0.00120847
0.0158472
0.000300868
0.00316214
0.00911755
-0.000247767
0.00687884
-0.000927308
0.00995708
-0.000969143
-0.00970558
0.00965166
0.000716953
-0.0130881
0.011293
0.00255495
-0.0142154
0.0122543
0.00405514
-0.0135469
0.0119111
0.0042955
-0.01913
0.0187118
0.0078001
-0.0285752
0.0247855
0.00378153
0.0235737
-0.0198389
-0.000229148
0.0168603
-0.0130288
-0.000423997
0.00841918
-0.00835999
-0.000586191
0.00773324
-0.00769425
-0.00111937
0.00736286
-0.00693867
0.00631005
-0.00648169
0.00346084
0.00545344
-0.000293259
0.00324234
0.00618689
0.00132241
0.00333432
0.0059103
0.00165324
0.00398819
0.00478075
0.00290633
0.0103307
0.0115755
-0.00116347
0.0193702
-0.00897112
-0.000113802
0.00910973
-0.00418932
0.0144091
-0.0229889
-0.0113935
0.0434223
-0.0155227
-0.0057478
-0.00179701
-0.000976629
0.00357103
0.00486687
-0.00943026
0.00604519
-0.00259872
0.00362475
-0.0017838
-0.00824561
0.00044832
-0.00915112
-0.010247
-0.0126327
0.0183969
-0.00479395
-0.0306952
0.00322367
0.00365769
0.00405639
-0.0175436
-0.0495795
0.00587638
0.0101186
0.000837085
-0.0580576
-0.0156572
0.0261658
-0.00422182
-0.0203697
0.00616103
-0.00324593
-0.0202585
0.00560324
-0.00226789
-0.0206192
0.00530117
-0.000897589
-0.0190037
0.0044328
-0.0149757
0.004028
-0.0211007
0.00226646
0.00403457
-0.0219112
-0.00133506
0.00262629
-0.0178565
8.53991e-05
0.00544949
0.00164516
-0.0464999
0.0353927
0.00831193
0.00802854
-0.114828
0.0350705
0.0513948
0.0208068
-0.124881
0.047335
-0.00805291
-0.125705
0.0548374
-0.0218898
-0.117864
0.0646194
-0.0335474
-0.102929
0.0732915
-0.0419703
-0.083849
0.0770341
-0.0470213
-0.0613965
0.0748114
-0.0483466
-0.036735
0.0744683
-0.0502707
0.0506088
-0.0328767
0.059003
0.0460098
-0.0302234
0.06856
0.0519945
-0.0352041
0.0688649
0.0531833
-0.026901
0.0634109
0.0509244
-0.0201936
0.0441598
-0.00584417
-0.088301
0.0719564
0.00285924
-0.0981061
0.0755826
-0.0157617
-0.0995895
0.0800135
-0.0262891
-0.0882926
0.0791889
-0.0394337
0.0718234
-0.0405464
0.0881014
0.0942456
-0.0366031
0.0976865
0.101511
-0.0328365
0.0945511
0.101003
-0.0187832
0.0819709
0.0959943
-0.00872253
0.090323
0.00691243
-0.0813009
0.103354
0.0130456
-0.0945215
0.110393
-0.00209945
-0.0984268
0.115818
-0.0118706
-0.0905675
0.116643
-0.0239522
0.111145
-0.031354
0.0870982
0.123965
-0.0275628
0.0947323
0.128021
-0.0199887
0.0912953
0.126215
-0.00793745
0.0783576
0.120172
0.00222262
0.111987
0.016701
-0.0724811
0.116538
0.019377
-0.0844341
0.125242
0.00594514
-0.0867855
0.131782
-0.00419409
-0.078885
0.134145
-0.015004
0.131069
-0.0223073
0.0682612
0.13177
-0.0150612
0.0761469
0.134513
-0.0092306
0.0750477
0.130946
0.000957678
0.0641025
0.124582
0.0106684
0.115344
0.0225935
-0.0526087
0.105639
0.0297702
-0.0646441
0.116146
0.019529
-0.0642089
0.119699
0.00984893
-0.0562717
0.125101
0.00051106
0.125982
-0.00409178
0.0351936
0.0190874
0.0612643
0.0445687
0.0514622
0.0945418
0.0134157
0.0547495
0.0923169
0.0232193
0.0357544
0.048228
0.0451401
0.0408336
0.044469
0.0364675
0.0514598
-0.0123012
0.0268138
0.0153682
0.0143718
-0.0187308
0.0276273
0.0150683
-0.0152887
0.0310852
0.0134973
-0.0135504
0.0290024
0.0141904
-0.0399713
0.0275264
0.0407192
-0.000822774
0.0248107
-0.0283872
-0.00827905
0.0384426
0.00578898
-0.0369754
-0.0068012
0.0299197
0.00546907
-0.0370432
-0.00459503
0.029042
-0.0364985
0.0050804
0.0258414
0.00345929
0.00381046
0.00513972
0.00492166
0.00714087
0.00680531
0.00759838
0.00903099
0.00890215
0.00837521
-0.0041326
-0.0199057
0.0156539
0.00266086
-0.000611418
0.000586787
0.00623574
0.00289388
0.000296487
-0.000533549
0.000352205
0.00408322
-0.00154641
-0.00243452
-0.00132043
0.00410298
-0.00165324
-0.000488433
0.00117701
0.0105795
0.012065
0.0315499
-0.0530979
0.00539027
0.0177403
-0.00422664
-0.00727441
0.0567278
0.00123131
-0.0150535
0.0028311
0.00353403
-0.00653898
0.00504012
0.0039711
-0.00619484
-0.0221754
0.00967621
0.0174991
-0.00939447
-0.0125077
-0.000316894
0.0179008
-0.00256361
0.0239051
-0.00787771
0.0461977
-0.012686
0.0215864
0.0764907
-0.024886
-0.03257
0.00462091
0.00708505
0.0297239
0.00214508
-0.0175271
0.00803411
0.0136408
-0.00404487
-0.0106373
0.00846926
0.014937
-0.00403981
-0.011439
0.00757213
0.0144098
-0.00235774
-0.0112615
0.00612544
0.0127647
-0.0104115
-0.00100515
0.00366864
0.0105063
-0.00877783
0.000640986
0.00870764
-0.00788495
0.00276552
0.00841042
-0.0031533
0.0033798
0.00800847
-0.00279714
0.00314403
0.0151404
-0.00807137
0.000862189
0.0391454
-0.0159412
-0.00828264
0.0726025
-0.038883
0.00480729
0.0826438
-0.0276467
0.016846
0.0841812
-0.0235052
0.021134
0.0815995
-0.020238
0.0219471
0.0764004
-0.0157912
0.0200874
0.0693615
-0.00867942
0.0147999
0.0598439
0.00181731
0.00677233
0.0412602
0.0177933
-0.000137527
0.0137244
0.041746
-0.0151281
-0.0060726
0.0553769
-0.0364823
-0.00204582
0.0502587
-0.0551573
0.0121262
0.0392671
-0.0542721
0.0155478
0.0262932
-0.0304732
0.00967178
0.0289289
-0.0236703
0.00216427
0.0113547
-0.00406548
0.000444584
0.00385269
-0.00220998
-0.000369671
0.00179103
-0.00103136
-0.00205655
0.00328445
-0.00166709
0.0031694
-0.00229371
0.00318617
0.00526492
-0.00147123
0.00014847
0.00665224
-0.000405518
0.00210412
-0.000186184
0.00654516
-0.000616989
0.00166878
0.00598857
-0.00376304
0.00253807
0.00555339
0.00625781
0.00104104
0.0117838
0.0171743
-0.010734
0.0152782
-0.0101737
0.0233634
0.023982
-0.0295778
0.0433147
0.0144374
-0.0437844
0.0506332
0.0128969
-0.062124
0.0465557
0.0262085
-0.0781884
0.0296409
0.0272044
-0.0892572
0.00785338
0.0200362
-0.0948701
-0.00851562
0.0149729
-0.0983316
-0.0208129
0.0146287
-0.100534
-0.0294066
0.014864
-0.100737
-0.0351874
0.014215
-0.0973729
-0.0395613
0.0117707
-0.0885163
-0.0439651
0.00655338
-0.03183
-0.040522
-0.0447924
-0.0112381
-0.0183901
-0.0104233
-0.0191296
0.00262429
-0.0153461
-0.00710762
0.00132607
-0.00574018
0.000264225
-0.00941599
0.000856934
-0.00380639
0.00166694
-0.00749353
0.00100143
-0.00882027
0.0158041
-0.000173626
-0.00796704
0.0158177
-0.00183425
-0.00616322
0.0139148
-0.00215936
-0.00210149
0.019786
0.00573505
0.0205143
0.106891
-0.0446865
-0.00945648
0.00401991
0.0306772
0.00549797
0.00762721
0.0105017
-0.000246266
0.0084354
0.0142621
0.000668804
0.0151156
0.00192619
-0.0162585
-0.0197158
-0.0126709
0.0307623
-0.02022
0.0462342
-0.0178303
-0.0511866
0.106778
-0.0244942
-0.0522557
0.12173
-0.0149344
-0.104312
-0.0445323
0.125564
-0.0301394
-0.0751589
-0.0286564
-0.0174985
-0.0288117
-0.0143683
-0.00296227
-0.0402484
0.017003
-0.00216222
-0.0241254
-0.00527017
0.0279242
-0.0054798
-0.00856312
0.0163348
-0.00788051
-0.0093277
0.0144116
-0.00620224
-0.0094784
-0.0118192
-0.00276049
0.050109
-0.0212219
-0.0125607
-0.00612899
0.000616123
-0.0119035
-0.00851605
-0.000103139
-0.00873251
-0.00718384
-0.00155931
-0.00495628
-0.00446312
-0.00157501
6.5061e-06
-0.000777125
-0.00380612
-0.000445819
-0.00984162
2.45746e-05
0.000448201
0.00126921
-0.00171533
0.00136721
-0.00209199
0.00336134
0.00174624
-0.00266267
0.00436709
0.00205704
-0.0019878
0.00370784
0.00175102
0.00266415
0.000705615
0.00452694
0.00262664
-0.0010662
0.00473317
0.00383066
-0.000404828
0.00459089
0.00491218
-0.000483861
0.00482578
-0.000753128
-0.00641031
0.0108615
-0.00419901
-0.0062297
0.0108857
-0.00626582
-0.0053541
0.0100411
-0.00719157
0.00900206
-0.00779703
0.00658534
0.0118586
-0.00567344
0.00801937
0.013583
-0.00507456
0.00821449
0.0151028
-0.00451877
0.0149094
-0.00312382
-0.00922133
0.0168483
-0.00133395
-0.00933586
0.0178539
-0.00274264
-0.00966856
0.017751
-0.00393977
0.0104679
-0.00401501
0.0128624
-0.000418433
0.0102424
-0.00167524
0.0075126
0.0232701
-0.00290256
0.007374
0.0182895
-0.000387132
0.0172838
0.000730841
-0.00887597
0.0484451
-0.025178
-0.00521639
0.0421082
-0.0276228
0.0449666
-0.0282707
0.0294675
0.117577
-0.0575484
0.127406
-0.0450244
0.0508624
0.134838
-0.0387422
-0.0205977
0.055498
0.134736
-0.0149241
0.0520952
0.129966
-0.00594939
0.115143
-0.00128165
-0.0502739
0.119599
0.0052363
-0.056013
0.134941
-0.000318799
-0.0535483
0.140664
-0.0094754
-0.0448873
-0.0146313
0.139788
-0.128125
-0.0233346
0.13353
-0.0293394
-0.0128534
-0.0511903
-0.114294
0.0286522
0.119283
-0.105995
-0.0668512
0.118328
-0.0383595
-0.0495208
-0.0681398
-0.00473827
0.0138827
-0.013538
-0.0193233
-0.019535
-0.00996649
-0.00602051
-0.0131163
-0.00290057
-0.0140027
-0.00407734
0.00257799
-0.0143763
-0.00819523
0.00317896
-0.0127384
-0.0106301
0.00253587
-0.0097962
-0.0145213
0.00286527
-0.0107593
0.00114698
-0.013762
0.0160451
-0.0137541
0.000615587
-0.00950442
-6.7101e-05
-0.0153657
0.0144676
-0.00157781
-0.016763
0.0116484
-0.00271297
-0.0180429
0.00965827
-0.0014591
0.0149485
-0.0254679
0.0110879
0.0252038
0.0187263
0.020733
-0.049851
0.0188489
0.0161765
0.0178353
-0.0277885
0.0305574
0.0160598
0.0191801
-0.0470842
0.0213583
0.0134363
-0.0227717
0.018406
0.0392758
-0.0422375
0.00893992
0.0152794
0.0201099
0.0463188
-0.0101028
-0.0171514
0.0254037
0.0300734
-0.020227
-0.0152684
-0.0172123
-0.0205795
0.00992717
-0.0182429
0.00381456
-0.0127936
-0.0179265
0.00437135
-0.0172183
-0.0123091
0.00330809
-0.0161094
-0.0141232
0.00228564
-0.0167945
0.00210196
-0.0176507
-0.0170727
0.0174387
0.000373656
-0.0162834
-0.000771824
-0.0183859
0.0156298
-0.00199106
0.0130019
-0.00309312
0.0175637
0.0143204
-0.00279279
0.0174206
-0.00140857
0.0164967
0.0182292
-0.0170431
-0.000367336
0.0183727
0.00133238
-0.0151365
0.0028569
-0.0154971
0.00100602
0.0174874
-0.0154017
-0.00120597
0.0144705
-0.00214958
-0.00752514
-0.0160127
0.0235765
0.0168719
-0.00150298
-0.0143679
-0.0171257
-0.0261843
-0.0242498
-0.00255499
-0.105242
0.103738
0.00754477
0.00121461
0.01824
0.0127132
0.0239117
0.0146952
-0.020251
0.0176581
-0.00845881
0.0179691
-0.0122412
-0.00477165
0.00236064
-0.000511073
-0.0055512
0.00484848
-0.00582365
-0.00170679
-0.00210729
-0.00217558
-0.00379051
0.0131625
-0.000990595
-0.00316276
-0.00140258
-0.0033825
0.0163735
-0.0200683
-0.0115636
0.0154698
0.00688109
-0.0116052
0.0175858
0.00910758
-0.0132666
0.0201922
0.0089266
-0.0142011
0.0229349
0.00890824
0.0301426
0.0119849
0.00988119
0.0134624
0.0124852
0.00947798
0.0132538
0.00990503
0.00784685
0.0119089
0.00974362
0.00607473
0.0107984
0.00840546
0.0100027
0.00699338
-0.00219708
0.00341927
-0.00260845
0.00415855
-0.00327286
0.00475435
-0.0039087
0.00539703
0.0065057
0.00166203
0.00289961
0.0014223
0.000511944
0.000410574
0.0013924
-0.000143408
0.00198338
-0.00154811
-2.76579e-05
-0.000929926
0.00194543
0.000964438
-0.000332594
0.000792269
-0.00043425
0.0018266
-0.001114
0.00121424
-0.000537606
0.000311737
-5.90013e-06
0.00202133
-0.00174045
2.75637e-05
0.00379283
-0.000561677
-0.00358812
0.0111391
-0.00637617
0.00357374
-0.0180002
0.00335681
0.0170404
0.00388278
-0.0181128
0.0204125
0.00713808
0.00293341
0.00676451
-0.0170594
0.0208303
0.000287141
0.00596385
0.0197795
-0.0148383
-0.0136308
0.01418
0.00504025
0.0109753
-0.00738852
0.0172055
-0.00765655
0.0172667
0.010916
-0.000402931
0.0199691
0.00717648
0.00334303
-0.0011484
0.0015294
-0.00351301
0.000376888
-0.00229166
0.0125906
0.0013552
-0.00233605
0.000798639
0.000618072
-0.000777367
0.00151265
-0.000568064
0.00156133
-0.000391583
-0.00124536
0.0010676
-0.00206982
0.000899392
-0.000211291
-0.000226533
-0.00163349
-0.000457041
-0.00209229
0.000247281
-0.00185471
0.00139943
-0.00138008
0.000392558
0.000112245
-0.00188614
0.000170342
-0.00141269
-0.000661929
-0.00126196
-0.00240625
0.00114912
0.00124375
0.000231261
0.000478672
-0.00129383
0.000448158
-0.00168414
-0.000480164
0.000534941
0.000391865
0.000108825
7.05301e-05
-0.000660871
0.0010447
0.000306138
0.000315648
-0.000888478
-0.00161286
0.00281359
-0.000775559
0.000276294
0.000178349
-0.000885785
-0.00113133
0.0038019
0.00137781
-0.000359239
-0.00302232
0.0122654
-0.00264296
-0.00129235
-0.00174731
1.32783e-05
-0.00082956
0.000262225
-0.000727955
0.000328766
-3.98324e-05
-0.00112086
-4.38592e-05
0.00188077
-0.000306853
-0.0016211
-0.001321
0.00321073
-0.000893449
-0.000168463
-0.00124267
0.00111803
0.00204062
0.000342786
0.000323889
0.000920091
-0.00012852
0.00191322
-0.00142187
-0.000170814
-0.00136959
0.00319166
8.67874e-05
-0.000654251
0.00020157
0.00285861
-0.00405137
0.0132957
-0.00113808
-0.0180402
0.000754608
0.00704764
0.0245294
-0.0164856
0.0218865
0.00640865
-0.0177683
0.0225725
-0.00209727
-0.0148838
-0.00439232
-0.020681
-0.0218522
-0.00631789
-0.0218844
-0.0057371
0.0151543
-0.0026126
0.0197789
0.0317725
0.0374384
-0.0235999
-0.101055
0.0665575
-0.0967377
0.0700591
-0.107808
0.0712854
-0.0171085
-0.110054
0.0687203
-0.0248586
-0.106609
0.0674942
-0.029656
-0.0981546
0.0663553
-0.0331862
-0.0860976
0.0637163
-0.0357951
-0.0687334
0.0578001
-0.0379443
-0.049027
0.0534473
-0.037685
-0.0389549
0.0427744
-0.0317994
0.00367248
-0.0298745
0.0159647
0.0325366
-0.0454963
0.0140077
0.0444555
-0.0431659
-0.00727759
0.0474937
-0.0266197
-0.0343798
0.0266635
-0.0511345
-0.0128458
0.0291333
-0.0597512
-0.024517
0.0326309
-0.0620131
-0.0310908
0.0328265
-0.0555337
-0.0383642
0.0313585
-0.047449
-0.0354673
0.0268798
-0.030047
-0.0337134
0.0158442
0.00341394
-0.0338997
0.0203863
0.0442893
-0.0618985
0.0432021
0.0553784
-0.0789603
0.0684169
0.05464
-0.0806747
0.0883915
0.0522359
-0.073035
0.0995725
0.0476776
-0.0597152
0.100668
0.0400026
-0.0419199
0.0953923
0.0340696
-0.0296048
0.0836965
0.0306935
-0.019718
0.0471897
0.0377335
-0.00180019
0.0226969
0.0229704
0.00132601
0.0194795
0.00391187
-0.000799207
0.0180873
0.000490316
0.000799032
0.0149379
0.00013928
0.00289979
0.00865663
1.25263e-05
0.00616983
0.00913069
-0.000561681
0.00723306
0.00342902
-0.00160201
0.00461692
0.00389862
-0.00132959
0.00484059
0.00168515
-0.00197162
0.00585839
0.0018792
-0.00297586
0.00562591
0.00306112
-0.00290645
0.00453767
0.00334994
-0.00233126
0.00359891
0.00272699
-0.00184285
0.00595236
0.00166323
-0.0040937
0.0129847
0.00146587
-0.00871668
-0.0135982
0.0307047
-0.00473988
-0.0444659
0.0258182
0.00429046
-0.0596899
0.012172
0.00221811
-0.0653021
0.000615886
0.00412344
-0.0692162
-0.0138819
0.0168916
-0.074126
-0.0292103
0.0331979
-0.0752111
-0.0442629
0.044411
-0.0724491
-0.0580087
0.0543016
-0.0624266
-0.0704677
0.0594932
-0.0447564
-0.0804517
0.0618243
-0.0174006
-0.0869732
0.0586542
0.0164047
-0.0830731
0.048307
0.0318366
-0.0573938
0.0410006
0.0308157
-0.0441839
0.0442824
0.0231617
-0.034644
0.0413947
0.00908562
-0.0257052
0.0389542
-0.00111099
-0.0229362
0.032331
-0.0347593
0.0328991
-0.0501008
-0.0192995
0.0338432
-0.0572167
-0.0340732
0.0403784
-0.0576392
-0.0489239
0.0484718
-0.04916
-0.0640121
0.0546578
-0.025275
-0.0817004
0.0569167
0.00481528
-0.0833936
0.0524273
0.0102379
-0.0475417
0.0412538
-0.00734585
-0.0265356
0.0433095
-0.0208822
-0.028008
0.0407586
-0.00478782
-0.060089
0.0432565
-0.0519481
0.0428342
-0.0147842
-0.0686429
0.00169391
0.0185048
-0.0545293
-0.0397334
0.0284224
-0.0389432
0.000142247
0.0320033
-0.0478557
0.0168452
0.0302338
-0.0780678
0.0313713
0.0407928
-0.12677
0.0318787
0.0540263
-0.123319
0.0274396
0.0565861
-0.0959383
0.0284352
0.0515592
-0.0723911
0.0275885
0.0410464
-0.0514195
0.0269992
-0.0298356
0.0278237
-0.0365517
-0.0466334
0.0267732
-0.0386046
-0.0560936
0.0225732
-0.0330451
-0.0671847
0.0164709
-0.00464909
-0.0827859
-0.00400185
0.0356677
-0.118295
-0.00610094
0.0609975
-0.124492
0.0111834
0.0757286
-0.117964
0.0217801
0.082595
-0.103454
0.0251235
0.0818159
-0.084806
0.0265866
0.0778293
-0.0641177
0.022859
0.0702871
-0.0425338
0.019894
0.0642875
-0.0208253
0.0119848
0.0569874
0.000195827
0.00677875
0.0427703
0.0167205
0.00874202
0.0168685
0.0359334
0.0148704
-0.0100668
-0.00121428
0.0471801
0.0106884
0.00819324
-0.0037759
-0.00877984
-0.00585821
0.0146487
-0.00335336
-0.00445291
0.0103589
-0.00289769
0.00891395
-0.00185464
0.0131452
-0.00125035
-0.00246764
0.00083036
-0.00669783
0.0269094
0.00176068
-0.00892776
-0.00773792
-0.00171232
0.00145242
-0.00798837
-0.00405319
0.0013308
-0.00671976
-0.00520519
0.000500879
-0.00499898
-0.00583823
0.00026013
0.00241518
-0.00416752
-0.000573904
0.00517678
-0.00112165
-0.00218942
-0.0003085
-0.00051084
-0.00137402
-0.000764829
-0.000667364
-0.000561774
-0.000605179
0.000399559
-0.00118462
-0.00349952
0.0133105
-0.0055236
-0.012042
0.00295754
0.0226121
-0.00796498
-0.0102247
0.0622721
-0.0313467
-0.0297808
0.0157452
0.0596897
-0.0224973
0.0284624
0.0435139
-0.0165961
0.0340686
0.00564097
-0.00777191
0.0488307
-0.0309645