/*--------------------------------*- C++ -*----------------------------------*\
| =========                 |                                                 |
| \\      /  F ield         | OpenFOAM: The Open Source CFD Toolbox           |
|  \\    /   O peration     | Version:  v2012                                 |
|   \\  /    A nd           | Website:  www.openfoam.com                      |
|    \\/     M anipulation  |                                                 |
\*---------------------------------------------------------------------------*/
FoamFile
{
    version     2.0;
    format      ascii;
    class       volScalarField;
    location    "1225";
    object      epsilon;
}
// * * * * * * * * * * * * * * * * * * * * * * * * * * * * * * * * * * * * * //

dimensions      [0 2 -3 0 0 0 0];


internalField   nonuniform List<scalar> 
18258
(
0.0240237
0.0122512
0.00912636
0.00717887
0.0126519
0.0125317
0.0129905
0.0173241
0.0241308
0.0369615
0.053527
0.0481268
0.0435171
0.0452705
0.0474489
0.0450302
0.0350999
0.0303605
0.0400542
0.0666942
0.0607133
0.0496541
0.0606626
0.0514047
0.0659045
0.0834016
0.0640037
0.0574514
0.0515277
0.04849
0.0420454
0.0243961
0.0341776
0.0525984
0.0721095
0.0789451
0.0847242
0.0896123
0.0947418
0.0968937
0.097177
0.0919842
0.0828044
0.0675811
0.0494767
0.037751
0.0287776
0.0323476
0.0452603
0.045501
0.0560401
0.0859196
0.108252
0.0811019
0.0518857
0.0826871
0.112701
0.144498
0.171026
0.19347
0.20116
0.197703
0.186139
0.169379
0.147908
0.122902
0.101899
0.0849706
0.0671766
0.0573775
0.0464252
0.0385117
0.032944
0.0292834
0.027082
0.0253534
0.0241865
0.0251176
0.0250034
0.0178312
0.0140271
0.0131779
0.00942825
0.00783687
0.00815531
0.00775848
0.00805953
0.00711606
0.00609321
0.0052877
0.00448075
0.00652022
0.00701294
0.00725352
0.00727256
0.00779705
0.00805638
0.00779249
0.00788822
0.00722027
0.0074056
0.0118932
0.0136757
0.017354
0.0154924
0.0107215
0.00909275
0.0101349
0.0107583
0.0133672
0.0125716
0.0133542
0.0118447
0.0108131
0.00913283
0.00887175
0.00910927
0.00968277
0.0100894
0.0116961
0.0115247
0.0106866
0.0118224
0.0130458
0.0127737
0.0122267
0.0116417
0.0142864
0.0114864
0.0121716
0.0136713
0.0220274
0.0215535
0.0260428
0.0255647
0.02601
0.0261947
0.0315873
0.0317085
0.0320813
0.032401
0.0341107
0.0571612
0.0509372
0.049832
0.0496385
0.0429532
0.0424841
0.0417881
0.0426032
0.0361258
0.0347755
0.0315328
0.0311697
0.0347792
0.0439288
0.061434
0.0887199
0.122702
0.159084
0.189392
0.210413
0.232185
0.237604
0.251509
0.256242
0.25718
0.251544
0.243149
0.233717
0.220901
0.202358
0.189471
0.1489
0.105366
0.0592656
0.0786508
0.090719
0.100462
0.102337
0.103472
0.0993643
0.0930665
0.0818496
0.0662115
0.042949
0.0491217
0.0664022
0.0685961
0.0692564
0.0548964
0.0527739
0.0489349
0.0488612
0.0640898
0.0736897
0.062006
0.0858673
0.100817
0.0881008
0.0638183
0.0977841
0.144059
0.0810939
0.0690745
0.0536531
0.0526911
0.0445791
0.0373642
0.0627757
0.0938942
0.129312
0.150605
0.172408
0.190055
0.203388
0.217535
0.189162
0.171873
0.1157
0.202826
0.154296
0.078258
0.0581632
0.057217
0.042997
0.0495552
0.055116
0.051153
0.0391078
0.0273629
0.0252654
0.0465444
0.0648516
0.0784034
0.0624423
0.0794464
0.0895435
0.096822
0.102181
0.1295
0.0953007
0.106628
0.076669
0.103952
0.0739581
0.047778
0.0529685
0.101189
0.161226
0.221033
0.258259
0.147314
0.0748519
0.0557938
0.0562272
0.053911
0.0485769
0.0602103
0.106784
0.0721038
0.0468927
0.0407767
0.0482441
0.0408325
0.030429
0.0318273
0.0395666
0.0552268
0.0700332
0.0828065
0.126177
0.122032
0.14727
0.15486
0.130432
0.125966
0.0814085
0.0836863
0.123442
0.0920015
0.0744165
0.104424
0.147666
0.202081
0.248511
0.288925
0.314681
0.304019
0.274972
0.173919
0.0761562
0.0229267
0.0178116
0.0168508
0.0173252
0.0105278
0.0063053
0.00586011
0.00667813
0.00702206
0.00591514
0.00544326
0.00543362
0.00578326
0.0101823
0.00875012
0.0108285
0.0131211
0.0156716
0.0187184
0.0194482
0.0129049
0.00873553
0.00819818
0.00813426
0.00806566
0.00803647
0.00804822
0.0080886
0.00810435
0.00807175
0.0079927
0.0078552
0.00771929
0.00766168
0.00829804
0.0111898
0.0153546
0.0148463
0.013556
0.0121999
0.0110378
0.00870772
0.0151525
0.0128467
0.0109383
0.0133991
0.0165069
0.0208625
0.0245137
0.0176826
0.0141567
0.0128125
0.012687
0.0125733
0.0126197
0.0124987
0.0125659
0.0123705
0.0129735
0.0135821
0.0169764
0.0190002
0.0211755
0.0226707
0.023249
0.0239642
0.0211343
0.0229572
0.0227266
0.0235071
0.0233209
0.0226325
0.0207171
0.0189297
0.017711
0.0191274
0.023696
0.0323532
0.026746
0.0207575
0.0167956
0.0137368
0.0150047
0.0166811
0.0168565
0.0158692
0.0156387
0.0154305
0.0139106
0.0131254
0.0111148
0.0105032
0.0100375
0.0101858
0.0143638
0.013516
0.0137224
0.0144577
0.0155574
0.0147148
0.0151479
0.0142993
0.0145468
0.0149678
0.0170315
0.0185918
0.0178321
0.0165127
0.0160153
0.0137455
0.015854
0.015715
0.0170354
0.0186215
0.0191132
0.0190478
0.01841
0.0168128
0.0187058
0.0220765
0.0257305
0.0247292
0.0244057
0.0204592
0.0192563
0.0202268
0.0214974
0.0224038
0.0224785
0.022313
0.0224053
0.0264258
0.0260853
0.0248756
0.0227954
0.0203375
0.0176911
0.0152237
0.0166981
0.0181806
0.0195731
0.0208432
0.0206
0.0190737
0.0177144
0.0164829
0.0149895
0.0146983
0.0161517
0.0173736
0.0188041
0.020516
0.0205879
0.0188777
0.0173842
0.0161028
0.0146293
0.0145791
0.0160789
0.0173759
0.0187912
0.0202726
0.0196406
0.018488
0.0172392
0.015998
0.0145461
0.0146128
0.0159341
0.0170017
0.0180838
0.0190323
0.0198875
0.0179264
0.0170171
0.0171112
0.0161241
0.0193101
0.0185522
0.0194944
0.0180411
0.0168152
0.0178204
0.0210134
0.0240491
0.0246006
0.0243207
0.0201852
0.0206413
0.0206186
0.0191995
0.015974
0.0153767
0.018152
0.0208941
0.0213574
0.0200461
0.0169381
0.0132959
0.0143184
0.0174849
0.0197998
0.0185406
0.0183793
0.0169633
0.0158839
0.0161833
0.013902
0.0166403
0.0267251
0.0241872
0.0221688
0.0196981
0.0156859
0.0106183
0.0115184
0.0126779
0.0130944
0.0105831
0.00792359
0.00711496
0.00692176
0.00676393
0.00654588
0.0061782
0.00562131
0.00538051
0.0105917
0.0256732
0.0364167
0.0357992
0.0241015
0.020741
0.0200412
0.0185889
0.00899421
0.00817734
0.00839755
0.0103771
0.00819617
0.0083791
0.0145292
0.0100424
0.0137874
0.0107179
0.0146391
0.0229397
0.0217004
0.0143651
0.00801469
0.0068994
0.00738981
0.00767332
0.00787682
0.00807324
0.00830675
0.00869329
0.0100167
0.0157499
0.0203308
0.017786
0.0167956
0.01532
0.0188653
0.0213487
0.023287
0.0260494
0.0161034
0.0117929
0.0166431
0.0272788
0.024766
0.0233094
0.0171693
0.0177099
0.017137
0.0110188
0.0106732
0.0105914
0.0114032
0.0127918
0.0147161
0.0158735
0.0166223
0.016953
0.0178657
0.0231348
0.0216474
0.0211326
0.0173487
0.0134221
0.0154154
0.0516455
0.019581
0.0206951
0.0189107
0.0191783
0.0204635
0.0151568
0.0135092
0.0129379
0.0146397
0.0215282
0.0215388
0.0214015
0.0182639
0.0174791
0.0209112
0.0220017
0.022401
0.0217807
0.0213391
0.0194743
0.0166915
0.0181228
0.0196407
0.0208362
0.0228448
0.023186
0.0179666
0.0172424
0.0158471
0.0105519
0.0112955
0.00973263
0.00970195
0.00966688
0.00939249
0.00894313
0.00923237
0.00935073
0.0093492
0.00900271
0.00929913
0.00834871
0.00868393
0.00977514
0.0152225
0.0147882
0.0175866
0.019498
0.0167427
0.0155832
0.0142203
0.0131969
0.015451
0.0142884
0.0168659
0.0212201
0.0265132
0.0191403
0.0181437
0.0179197
0.0175138
0.0173558
0.0174082
0.0167137
0.0157101
0.0151417
0.0235977
0.0212958
0.0181711
0.0172214
0.0157877
0.0180413
0.017484
0.0213847
0.0268713
0.0270756
0.021552
0.0216296
0.0189716
0.0200775
0.0222686
0.0271114
0.0270352
0.0144459
0.00960378
0.0154483
0.015789
0.0183998
0.0170151
0.0185438
0.0197244
0.020453
0.0203117
0.0177094
0.0188867
0.0196756
0.0206626
0.0186067
0.0166006
0.017391
0.0161676
0.0152667
0.0147651
0.0126892
0.0129365
0.0139097
0.0153624
0.0163045
0.0178004
0.0194584
0.0194868
0.0201567
0.0197515
0.0191508
0.0252561
0.0240129
0.0255545
0.0282712
0.0224703
0.0178295
0.014702
0.0150157
0.0147816
0.0146894
0.0154301
0.0167903
0.0151667
0.0145475
0.0170648
0.0194296
0.0247053
0.0330901
0.0288248
0.0262424
0.0332518
0.0314078
0.0382754
0.0287007
0.0281687
0.0208752
0.0263115
0.0305273
0.0392456
0.0255414
0.0209783
0.0224334
0.0255531
0.0348089
0.032825
0.0331991
0.0412347
0.0399997
0.0362263
0.0311988
0.0353993
0.0212733
0.0302201
0.0322528
0.0268343
0.0257325
0.0307803
0.0311075
0.0330427
0.028391
0.0267979
0.0179347
0.0274816
0.0314252
0.0331227
0.027855
0.0205422
0.0280462
0.0205737
0.0192084
0.0203208
0.0137893
0.0127352
0.0148109
0.013881
0.0112054
0.0121557
0.0111751
0.0111627
0.0112448
0.0113614
0.0114958
0.011755
0.0117257
0.0127579
0.0133536
0.0126466
0.011575
0.0122243
0.0125684
0.0160874
0.0181765
0.0204419
0.0220331
0.0228765
0.0240298
0.0227642
0.024837
0.0237239
0.0252401
0.0249594
0.023889
0.0213517
0.0186975
0.0162788
0.0167324
0.0203575
0.026724
0.0218886
0.0169524
0.0137125
0.0113649
0.0126575
0.0158329
0.00858366
0.00781144
0.00749554
0.00729198
0.00709328
0.00620394
0.00563062
0.00901327
0.013245
0.0164897
0.0205133
0.0261289
0.0321622
0.0373994
0.0413828
0.0442633
0.046081
0.046571
0.0437741
0.0336699
0.0290148
0.024973
0.0206905
0.0168497
0.0169344
0.0246545
0.0322629
0.0397246
0.0462734
0.0511493
0.0492348
0.0330198
0.0301912
0.0467659
0.0784857
0.0744366
0.0976044
0.111271
0.0631962
0.0465957
0.0453646
0.062004
0.0646061
0.0566653
0.0467884
0.0366241
0.0264934
0.030984
0.0353768
0.0395444
0.0439293
0.0573844
0.0603102
0.0590599
0.0563947
0.0529486
0.0482737
0.0413929
0.0330069
0.0251036
0.0192095
0.0146288
0.00975591
0.00701251
0.00827985
0.00761324
0.0111934
0.00965413
0.00839702
0.00776124
0.00799128
0.00784367
0.00802079
0.00707065
0.00638358
0.0103163
0.00945781
0.00938456
0.0099704
0.0132948
0.0102336
0.00758294
0.00715109
0.007066
0.00731838
0.0168801
0.0252248
0.0304848
0.0350415
0.0382196
0.0368199
0.0334901
0.0279646
0.0223284
0.0201443
0.0171857
0.0146158
0.0133686
0.014627
0.0121014
0.0061605
0.00517016
0.00568166
0.00558174
0.00511521
0.00613945
0.0068223
0.00742783
0.00784358
0.00814819
0.00820392
0.00813903
0.00804674
0.00800127
0.00798056
0.00795216
0.00788798
0.00779367
0.00765308
0.0075184
0.00745615
0.00804951
0.0106587
0.0145726
0.0143419
0.0132319
0.0121259
0.0112677
0.00954926
0.0153739
0.0130541
0.0109442
0.0101219
0.00997847
0.0102766
0.0112435
0.0128875
0.0138121
0.0158189
0.0158627
0.0157604
0.0160439
0.0158269
0.0131448
0.0149001
0.0176795
0.0185146
0.0191353
0.0189082
0.0173732
0.0193933
0.0205262
0.01996
0.0193389
0.0164063
0.0190858
0.0231591
0.0236148
0.0239138
0.0212678
0.0184408
0.0215996
0.0227465
0.0223095
0.0231662
0.021257
0.0219715
0.0278376
0.014111
0.0126463
0.0075998
0.0086449
0.00878381
0.00838269
0.00808045
0.00839956
0.0086432
0.00848151
0.00916364
0.00948417
0.0088493
0.0113863
0.0104354
0.00998028
0.00934629
0.00998318
0.0107489
0.0111149
0.0121508
0.0194973
0.0199216
0.0181772
0.0205713
0.0211757
0.0179838
0.0203851
0.0212561
0.0214756
0.02181
0.0233778
0.0220501
0.0243932
0.0235458
0.0222788
0.0215055
0.0381786
0.0252114
0.0166028
0.0152743
0.0148921
0.0149493
0.0168331
0.012687
0.014207
0.0100228
0.0086767
0.00830054
0.00799098
0.00823742
0.0111129
0.0177623
0.0253015
0.0278688
0.0267226
0.0235104
0.0181994
0.013841
0.0134432
0.0121483
0.0112883
0.0111214
0.00753093
0.00517299
0.00642355
0.00658173
0.00715595
0.00755844
0.00788401
0.00812792
0.00825956
0.00832399
0.00839823
0.00851241
0.00863821
0.00874744
0.00883374
0.00889657
0.0089631
0.00908704
0.00939675
0.0106004
0.0152476
0.0196363
0.0185308
0.0170721
0.0157683
0.0165297
0.0172831
0.0180123
0.0221866
0.0190787
0.0219683
0.0206395
0.0196525
0.0182436
0.0189759
0.0207569
0.0165469
0.0164815
0.0112458
0.00981009
0.00942759
0.00920787
0.00903572
0.00886618
0.00870232
0.00855665
0.00842064
0.00830435
0.00821573
0.00814181
0.00800416
0.00775618
0.00735782
0.00691047
0.00617294
0.00684798
0.00730732
0.00830125
0.00956808
0.0102035
0.00959621
0.00874236
0.00833487
0.00843778
0.00862041
0.00882509
0.0090581
0.00937748
0.00985375
0.0108342
0.0115148
0.0161638
0.0168995
0.0201534
0.0199598
0.0178759
0.0172325
0.0188401
0.0173726
0.0126473
0.0173466
0.0168646
0.021105
0.0156677
0.0147727
0.0151751
0.0156496
0.0182993
0.0172096
0.0157368
0.0157039
0.0126227
0.0141968
0.016195
0.0176792
0.027893
0.0273358
0.0343988
0.0343274
0.0592443
0.0563679
0.049689
0.0537552
0.0237176
0.0463578
0.0542184
0.0494173
0.042881
0.027309
0.0436599
0.0664871
0.0962499
0.0693821
0.0567267
0.10544
0.0766083
0.0373242
0.026553
0.0149921
0.0150791
0.0250235
0.0290606
0.0240817
0.0232323
0.0333907
0.0347543
0.027985
0.0286587
0.0310351
0.0299697
0.0324246
0.0280594
0.0273666
0.0155088
0.012729
0.0137614
0.0154967
0.0165142
0.0160138
0.0168486
0.0175117
0.0160669
0.0150373
0.0144769
0.0124149
0.0131549
0.0161312
0.0203379
0.0238394
0.0172185
0.013838
0.0125459
0.012354
0.0121287
0.0120093
0.0116874
0.0114988
0.0110275
0.0112315
0.00977219
0.00978682
0.0103266
0.0104937
0.0107008
0.0108612
0.0109862
0.0110985
0.0119567
0.0187059
0.0258752
0.0207037
0.0164074
0.0139334
0.0151194
0.0170378
0.0209298
0.0263372
0.0177886
0.0176074
0.0114816
0.0107092
0.0104994
0.0103248
0.0101708
0.0100705
0.0101294
0.0101329
0.0118708
0.0115688
0.013585
0.0146555
0.0121056
0.0116728
0.0111996
0.0109117
0.0107528
0.0106671
0.0107555
0.0116163
0.0114503
0.0105218
0.0104288
0.0105504
0.0107657
0.0110909
0.0115408
0.0120481
0.0129686
0.0127462
0.0112056
0.0111807
0.0105218
0.0102149
0.0099847
0.00996527
0.0100167
0.0101595
0.0103834
0.0112869
0.0170656
0.017251
0.0265486
0.0265312
0.0210905
0.0176258
0.015477
0.0142279
0.0134996
0.0350391
0.0307733
0.0486888
0.0388702
0.0311304
0.0505036
0.071817
0.0557937
0.0908162
0.0981349
0.0723478
0.0654929
0.0208516
0.015889
0.0153905
0.0168753
0.0185632
0.0211921
0.0217792
0.0265801
0.0286713
0.0171212
0.0164434
0.0155231
0.0247934
0.0229733
0.0196104
0.0177317
0.0163501
0.0188867
0.0206749
0.0149184
0.014966
0.00963833
0.0106382
0.0103863
0.0100461
0.00992601
0.00984942
0.00988365
0.00997752
0.0102604
0.0107549
0.0111392
0.0113021
0.0116289
0.0114144
0.0111433
0.0108235
0.0106337
0.0104432
0.0102869
0.0101658
0.0101984
0.010514
0.0106586
0.00935341
0.00969973
0.00980924
0.00982183
0.00985429
0.00981947
0.00968221
0.00947499
0.00927451
0.00906506
0.00910268
0.00988871
0.0100313
0.0100878
0.00993302
0.00981548
0.00980856
0.00974583
0.00973388
0.00972887
0.00960912
0.00929632
0.008575
0.00842346
0.00902392
0.00936695
0.00954289
0.00962162
0.00960411
0.00954793
0.00931509
0.009142
0.00893399
0.00859468
0.00814099
0.00675646
0.00703916
0.00739739
0.00789834
0.00841484
0.00886753
0.00917157
0.00933127
0.00942171
0.00933882
0.00904657
0.00851829
0.00846469
0.00885606
0.00903604
0.00899434
0.00873032
0.00831699
0.00775069
0.00704772
0.00636832
0.00585474
0.00562383
0.00523748
0.00652659
0.0071162
0.00766165
0.00816604
0.00864676
0.00916711
0.00936774
0.00942424
0.00940634
0.00925254
0.00892416
0.00840003
0.00840228
0.00887488
0.00918333
0.00930825
0.00928897
0.00911015
0.00870913
0.00779655
0.0069912
0.00634289
0.00576072
0.00517598
0.00514502
0.00540127
0.00514883
0.00533416
0.00590495
0.00670396
0.00748233
0.00809393
0.00852373
0.00870934
0.00865948
0.00840799
0.00831004
0.00843252
0.00837373
0.00806659
0.00749732
0.00675138
0.0059547
0.0053329
0.00516809
0.00550826
0.00584463
0.00553104
0.00435701
0.00489815
0.00545237
0.00603722
0.00695005
0.00813491
0.00871714
0.00902908
0.009184
0.00911608
0.00882794
0.00839151
0.00836915
0.00878987
0.00907196
0.00912489
0.00899231
0.00872259
0.00824559
0.00680797
0.00533865
0.00471664
0.00436878
0.00393503
0.00560723
0.00597591
0.00554835
0.00527086
0.00570624
0.00624202
0.00686243
0.00737373
0.0078006
0.00810686
0.00821133
0.00818138
0.00804877
0.00805069
0.00799434
0.00778997
0.00754693
0.0073418
0.00691076
0.00646194
0.00592688
0.00648382
0.0067834
0.00635067
0.00464215
0.004928
0.00537682
0.00565027
0.00711866
0.00855763
0.00894241
0.00906452
0.00918801
0.00910786
0.00878644
0.00834577
0.00832871
0.0088514
0.00925778
0.00940954
0.00952987
0.00966422
0.00977945
0.00861737
0.00670064
0.00625376
0.00524805
0.00479753
0.00667054
0.00710092
0.0068851
0.00661633
0.00756578
0.00796068
0.00810312
0.0081144
0.00812245
0.0080919
0.00800056
0.0079324
0.0078178
0.00825773
0.00889586
0.008803
0.00871032
0.00855398
0.00819333
0.0077395
0.00721935
0.00790578
0.00848878
0.00819893
0.00593917
0.00631316
0.00722729
0.00739583
0.00894233
0.0101257
0.0104469
0.0104131
0.0102737
0.0102298
0.00921664
0.00829288
0.00814511
0.00949416
0.0154104
0.0152484
0.0152692
0.0151949
0.0146383
0.0144784
0.0139267
0.0136843
0.0130058
0.0125789
0.011912
0.0139455
0.0176579
0.0197262
0.0221061
0.0246015
0.0233664
0.0189074
0.0166998
0.0102666
0.0080888
0.00696607
0.00601897
0.00530912
0.00509984
0.00752138
0.00935659
0.0114958
0.0134373
0.0137499
0.0161654
0.0200953
0.0306035
0.0486667
0.041118
0.0388455
0.0395833
0.0992281
2.55264
2.7699
2.50899
2.91052
3.33582
0.397871
0.153408
0.28383
0.299916
0.331375
0.30809
0.279059
0.253993
0.260482
0.249683
0.260193
0.242183
0.254568
0.222688
0.230086
0.228691
0.623211
0.999745
1.21532
1.70355
1.71876
1.93951
1.8993
1.92266
1.779
1.89546
1.64774
1.36628
1.28939
1.21593
1.3044
1.41614
1.2298
1.11443
1.00144
0.911413
0.779354
0.98855
0.750227
0.70905
0.707517
0.73891
0.983881
0.895985
1.03241
0.955597
1.00839
0.602756
0.674402
0.494099
0.411572
0.341785
0.412494
0.552666
0.730634
0.906735
0.695986
0.954769
0.885413
0.879556
0.838546
0.764341
0.726039
0.714171
0.735274
0.74783
0.762932
0.790109
0.810819
0.828701
0.978599
1.042
1.0318
0.84608
0.758443
0.525311
0.562587
0.597417
0.601582
0.561808
0.542523
0.489029
0.47638
0.430428
0.412235
0.373157
0.35478
0.322673
0.447294
0.767042
0.797133
0.86616
0.920556
0.969367
0.991553
1.00693
0.989489
0.955618
0.888133
0.859888
0.798347
0.903164
1.0855
1.08566
0.998724
0.847477
0.803221
3.7237
4.52714
2.99952
6.45316
9.77149
16.3624
7.53739
2.06516
3.44095
2.36413
2.09932
2.04638
2.15943
3.4018
2.4909
3.26739
2.69188
2.85544
2.17327
2.46351
2.33122
1.78831
1.50315
1.27048
1.1491
0.915777
0.899742
0.725617
0.677871
0.633223
0.534327
0.666726
0.663233
1.5561
2.22639
2.78585
4.38131
4.81801
5.27003
8.34007
6.78837
8.53367
5.09223
5.13184
3.79533
3.57055
3.6076
4.95746
7.05448
4.86588
8.47541
4.73335
15.4295
34.4631
9.18938
18.9297
10.9253
9.88612
9.53313
9.82505
13.9548
9.51376
15.4995
12.9604
17.2323
16.5623
17.7423
13.7446
10.1366
11.1183
11.9282
15.2893
10.8667
12.5516
9.48185
9.26446
8.67464
7.20343
6.53874
5.02081
5.86322
6.91252
7.84631
12.3759
15.5806
17.9495
21.6468
16.04
18.3214
11.0422
12.0887
9.34726
8.76466
8.88894
11.6898
20.7668
14.7263
26.8154
0.495105
0.225545
0.54242
0.228984
0.486423
0.389892
0.402469
0.403436
0.399015
0.460323
0.21971
0.184804
0.177109
0.174975
0.176481
0.100086
0.12424
0.0803153
0.126793
0.228765
0.501758
0.364507
0.140308
0.0825313
0.054539
0.0429
0.0633796
0.0611748
0.0978248
0.0991725
0.105452
0.131857
0.227263
0.431595
31.5875
7.0793
1.11417
0.520669
0.280138
0.171288
0.14524
0.163891
0.175979
0.178315
0.16703
0.141391
0.101008
0.0665471
0.0443639
0.0371389
0.0271444
0.0292458
0.0400566
0.0535875
0.0495547
0.0651852
0.083591
0.106414
0.130739
0.150123
0.164685
0.168563
0.156477
0.122448
0.0805751
0.0444016
0.0265302
0.0228723
0.020938
0.0194408
0.0167901
0.0145688
0.0131472
0.0112375
0.00990807
0.00894194
0.00863407
0.00875936
0.00956382
0.0120991
0.0145628
0.0188583
0.0179811
0.0134641
0.0126207
0.0078196
0.00723099
0.0073806
0.0076336
0.00845832
0.013234
0.0135447
0.0134237
0.0134575
0.0132764
0.0132672
0.0130984
0.0129352
0.012716
0.0122967
0.0120053
0.0114822
0.0111982
0.0105294
0.0105569
0.0109431
0.0112502
0.0101828
0.0100791
0.00937001
0.0205607
0.0490042
0.070213
0.0786658
0.08848
0.0811887
0.0419824
0.0230691
0.00793394
0.00774876
0.00824137
0.00890965
0.0084529
0.00614966
0.0066898
0.00794718
0.0111122
0.0110171
0.0110472
0.0128933
0.0134291
0.0147793
0.0153208
0.0156919
0.0159164
0.0158306
0.0159559
0.0156589
0.0157485
0.0155395
0.0156259
0.0152282
0.027046
0.0254691
0.0261905
0.0262404
0.0274583
0.0269805
0.0265289
0.0255621
0.0248583
0.0233476
0.0217742
0.0202019
0.0180769
0.0188253
0.01821
0.0113591
0.0107888
0.0077914
0.00770175
0.00739967
0.0103457
0.0094018
0.00790562
0.00931182
0.00676572
0.00693995
0.00734049
0.0104692
0.0109979
0.0175273
0.017459
0.015471
0.0164165
0.0174767
0.0188043
0.0199481
0.021352
0.0223575
0.0234296
0.0252513
0.0256168
0.0238404
0.0234822
0.0223895
0.0243106
0.0232942
0.0215615
0.0230979
0.0247564
0.0273169
0.0270521
0.0249641
0.0236653
0.0222552
0.0199574
0.0173348
0.0159759
0.0149815
0.0150281
0.0140179
0.0164044
0.0148785
0.010263
0.0105046
0.00785666
0.00628925
0.00606848
0.00928613
0.0132057
0.0281823
0.0175712
0.00934468
0.00998595
0.0160274
0.0329793
0.0191134
0.0307774
0.0141886
0.0140646
0.0127887
0.0126814
0.0139817
0.016278
0.017316
0.0209616
0.0236295
0.0256125
0.0265136
0.0278402
0.0282234
0.0296223
0.0300587
0.03268
0.0329167
0.0329015
0.0324269
0.0299996
0.0269673
0.024763
0.0306501
0.0355368
0.0388788
0.0413054
0.0438165
0.0425897
0.0389938
0.0381365
0.0362372
0.0351344
0.0337329
0.0306429
0.0268186
0.0220099
0.0214524
0.027476
0.0332184
0.049614
0.0534511
0.0531825
0.0554964
0.0559834
0.0577191
0.0581441
0.0607699
0.0613286
0.0624689
0.0627967
0.0678835
0.0687424
0.0696706
0.0699886
0.0696887
0.0706018
0.0705801
0.0479536
0.0429517
0.0388315
0.0322048
0.0269428
0.0341834
0.0426453
0.0479643
0.0732757
0.0737386
0.0773891
0.0799933
0.0848235
0.0884582
0.0932102
0.097619
0.101899
0.105247
0.107229
0.107552
0.107996
0.107105
0.105835
0.114595
0.148826
0.165253
0.195611
0.210583
0.223278
0.227524
0.218831
0.222508
0.214395
0.21691
0.210529
0.208456
0.203032
0.196579
0.192882
0.186419
0.182269
0.210173
0.158184
0.121058
0.0805142
0.0646846
0.0568925
0.0522573
0.0561294
0.0431074
0.0364701
0.0556831
0.0507707
0.0400856
0.0263236
0.0188938
0.0323947
0.0478701
0.0646636
0.0818861
0.0976274
0.107933
0.110521
0.109426
0.10465
0.096797
0.0816189
0.0614648
0.0422159
0.0347678
0.0320589
0.0280991
0.0221622
0.0178141
0.0157003
0.0141169
0.0123541
0.0111087
0.0105568
0.0107204
0.0110323
0.0132316
0.0173175
0.0173085
0.0116054
0.0111493
0.00767193
0.00776122
0.00802067
0.013335
0.0134841
0.0209071
0.023361
0.0220045
0.022701
0.0224387
0.0227397
0.0223927
0.0212057
0.020374
0.0194065
0.0185657
0.0178202
0.0169938
0.0161833
0.0175115
0.0164627
0.0138652
0.013984
0.0145993
0.015248
0.0161331
0.0173959
0.0184691
0.0211646
0.0213228
0.0208192
0.0209096
0.0194311
0.0187102
0.0199601
0.0194796
0.013274
0.0130935
0.0191124
0.0187626
0.0186578
0.0224843
0.0209109
0.0214305
0.0225654
0.0224747
0.019538
0.0181813
0.0166245
0.0154445
0.0140651
0.0125513
0.0121751
0.0149372
0.0131487
0.0107913
0.0119863
0.014395
0.0170079
0.0184715
0.0204591
0.0231765
0.0241463
0.0263953
0.0278204
0.0299178
0.0307535
0.0355641
0.0362095
0.0340343
0.0321896
0.0311942
0.0274161
0.023499
0.025915
0.0267882
0.0271657
0.027298
0.0271814
0.023602
0.0231713
0.0216554
0.021137
0.0195577
0.0189983
0.0178358
0.017074
0.0160507
0.0142211
0.0134974
0.0126822
0.0123249
0.0173816
0.0108736
0.0106202
0.0160368
0.00988292
0.011633
0.0113706
0.0118899
0.0125507
0.0103838
0.0151808
0.0103707
0.0112587
0.0114803
0.0143942
0.00998063
0.0207275
0.0642163
0.0930815
0.111999
0.203326
0.243445
0.263689
0.284366
0.29853
0.314512
0.33204
0.349688
0.362677
0.364066
0.338301
0.319729
0.254696
0.22801
0.251724
0.281792
0.194224
0.166625
0.168859
0.169639
0.172159
0.173354
0.176913
0.17484
0.1798
0.175448
0.182605
0.176582
0.182916
0.175641
0.160444
0.143934
0.111662
0.101022
0.0651713
0.0504873
0.0394991
0.0286988
0.0209283
0.0187886
0.0177859
0.0164406
0.0165236
0.01266
0.0131021
0.0083978
0.00617628
0.00986211
0.00969513
0.00722863
0.00982468
0.0112225
0.011733
0.0122679
0.0125613
0.0192064
0.019237
0.0246287
0.0245532
0.0291297
0.0347481
0.0359924
0.039636
0.0570321
0.0575627
0.0573057
0.0571514
0.0567362
0.0495039
0.0492226
0.0481187
0.0475352
0.0445869
0.0440324
0.0419448
0.0408042
0.0378451
0.0370198
0.0358913
0.0363486
0.0406841
0.0559966
0.0991755
0.0295595
0.0281766
0.0206911
0.0145638
0.021416
0.0159443
0.0154747
0.0136444
0.0187427
0.0134843
0.0137351
0.0165551
0.0170763
0.0164679
0.0214654
0.0267718
0.0235027
0.0259893
0.116997
0.0751627
0.0243968
0.0482913
0.0720436
0.158161
0.204102
0.139863
0.159695
0.18381
0.166895
0.14015
0.109523
0.0816353
0.0579065
0.0446176
0.0114002
0.0134025
0.0185678
0.0408814
0.0607316
0.101497
0.0834093
0.109012
0.148938
0.17341
0.20941
0.200912
0.172819
0.148743
0.145483
0.160719
0.162853
0.105442
0.102448
0.0778924
0.174208
0.219332
0.184617
0.231669
0.244334
0.143969
0.0319607
0.0184265
0.0151607
0.0139556
0.0124714
0.0194038
0.0114969
0.0116772
0.0123959
0.0133063
0.0169984
0.0293587
0.0134872
0.0149548
0.0183652
0.0159002
0.0148978
0.0146622
0.0145632
0.0151737
0.0165249
0.0215673
0.0216831
0.021362
0.0160222
0.0173202
0.015734
0.0200582
0.0212672
0.0333756
0.0152981
0.0162444
0.021563
0.480039
0.0247067
0.0178641
0.0232755
0.0219443
0.0302054
0.0437585
0.459006
0.0442777
0.0351668
0.0586434
0.0609074
0.0655901
0.0692703
0.0728055
0.0753219
0.0792909
0.0819226
0.0831772
0.0844516
0.100095
0.100021
0.0989432
0.10354
0.0976203
0.057673
0.0578727
0.0973922
0.105099
0.0594179
0.0410133
0.0384997
0.0311855
0.0323008
0.0418428
0.0439266
0.0616428
0.0614626
0.102472
0.0934562
0.0948431
0.0966201
0.0916493
0.0921454
0.0941801
0.0942784
0.0755347
0.0731798
0.0714021
0.0683722
0.0648149
0.0619107
0.0589893
0.0559175
0.0533311
0.0535081
0.058412
0.0584538
0.0663008
0.0736606
0.224145
0.152343
0.108617
0.0803556
0.0652517
0.0590072
0.0585472
0.0617254
0.0649731
0.0666089
0.0674198
0.0708297
0.0925776
0.0948115
0.0976564
0.0951323
0.098921
0.0969433
0.0944957
0.104388
0.112196
0.0656029
0.0676817
0.0477462
0.0445172
0.0324742
0.0330231
0.023578
0.0195614
0.0195538
0.0195342
0.019754
0.0226239
0.0315947
0.0317037
0.0462984
0.046227
0.0516849
0.0752992
0.0723667
0.129003
0.118252
0.108575
0.101283
0.10164
0.103788
0.106385
0.101392
0.0978974
0.0923721
0.072558
0.0685079
0.0663736
0.0651369
0.0638521
0.0673648
0.0909597
0.147665
0.226331
0.332525
0.433473
0.443645
0.401418
0.251553
0.290992
0.145006
0.165223
0.187331
0.163495
0.172174
0.32032
0.266287
0.37726
0.48226
0.536116
0.602558
0.639802
0.628874
0.500022
0.325111
0.332326
0.442506
0.769685
0.863244
0.743877
0.761492
0.658217
0.540223
0.521728
0.496988
0.560641
0.611249
0.576865
0.593467
0.537739
0.513653
0.443806
0.495069
0.361663
0.325749
0.306203
0.297373
0.356311
0.28836
0.32483
0.267068
0.27339
0.222221
0.227717
0.190112
0.14556
0.13802
0.12797
0.1433
0.162512
0.148926
0.153556
0.134108
0.114734
0.0913356
0.0985272
0.0736204
0.0696367
0.0707082
0.0805939
0.126495
0.371098
0.173865
0.163908
0.168023
0.178026
0.319915
0.283047
0.722668
0.506471
0.707424
0.473353
0.561532
0.46981
0.362481
0.378078
0.417819
0.597979
0.820841
6.64921
0.284612
4.26101
3.16353
3.3226
3.46865
4.4456
7.80254
7.10937
9.38237
6.80338
9.07964
4.97811
4.97585
4.32606
4.47155
4.4393
4.26253
5.20315
6.64663
0.238817
0.0909986
0.0854269
0.0856098
0.0873872
0.19779
0.0525662
0.201953
0.0539482
0.213362
0.0494985
0.246515
0.196798
0.0382303
0.0192577
0.0200898
0.0168072
0.0203755
0.0169231
0.0250485
0.0235429
0.0237004
0.0265919
0.0763265
0.292298
13.8285
1.66645
0.695149
0.795651
1.19171
0.810324
1.21093
1.68162
1.13127
0.564675
0.370285
0.437014
0.528615
0.504459
0.643158
0.925591
0.905356
0.711619
0.715546
0.631375
0.89069
0.899295
1.06565
1.24435
1.13838
0.892431
0.703193
0.595508
1.02511
1.02968
0.962551
0.408609
0.115424
0.0470968
0.0493931
0.0359082
0.0378205
0.0348959
0.0554008
0.161829
0.222835
0.134138
0.43187
0.416203
0.565556
0.403562
0.413415
0.326453
0.350475
0.534614
0.583872
0.643334
0.674596
0.725411
0.670375
1.28842
2.20832
2.49754
12.8591
17.4242
3.20326
3.09708
13.947
0.314983
0.0839107
0.0233204
0.017432
0.0162173
0.0161301
0.0150008
0.0155382
0.0159993
0.0169631
0.0188274
0.0231926
0.0458214
0.201385
0.203346
0.0643187
0.0324189
0.0229668
0.0196147
0.0170457
0.0163865
0.0155314
0.015459
0.0150081
0.0156579
0.0174647
0.0237816
0.0774249
0.270965
11.3234
2.43517
2.25446
8.38063
5.79317
0.206703
0.0437874
0.0200933
0.0169264
0.0158836
0.0167534
0.0162653
0.0182105
0.0184014
0.0230144
0.0250185
0.0317574
0.0570505
0.110133
0.315294
9.57127
8.64265
8.3637
7.80389
0.309925
0.115133
0.0543729
0.0382239
0.03462
0.0338153
0.0226478
0.0236721
0.0189815
0.0216393
0.0182945
0.0226807
0.0483015
0.211863
5.35078
1.5699
1.70086
1.20904
0.612552
0.655253
0.669162
0.688851
1.77668
4.06617
4.99756
3.43189
3.36371
4.71281
3.17352
2.484
1.83121
1.74866
2.54725
1.96392
1.82587
1.3571
1.467
1.06781
1.4671
0.811173
0.97679
1.07271
1.53123
1.39748
1.41031
0.908352
1.05022
1.47515
1.72446
1.64876
0.843832
1.22672
1.01365
0.654733
0.606936
0.633448
0.603514
0.578438
0.575271
0.579416
0.55834
0.575448
0.555628
0.587475
0.547003
0.532384
0.506966
0.526685
0.54438
0.576971
0.359904
0.422434
0.426691
0.441104
0.453759
0.374733
0.450794
0.441732
0.658889
0.994839
0.835689
1.15559
0.680197
1.00372
2.00813
5.20794
2.35239
0.821194
1.34772
1.58237
1.13884
0.628048
2.55241
3.55834
1.22994
1.78347
10.3765
8.42675
16.5103
10.9708
18.6376
6.03786
4.63493
17.8142
6.67828
6.9139
4.51683
4.52258
2.96024
1.58603
1.62989
1.74331
1.22763
1.30092
1.21101
1.13393
1.47542
1.44096
1.88798
2.03684
2.57982
1.8128
1.7777
2.6021
1.06378
1.40165
1.83915
1.8315
1.3614
2.34492
3.1603
2.97483
2.14432
2.33854
3.50665
4.82173
4.58485
3.17472
3.97556
10.1378
13.5311
13.6972
4.2263
19.3152
18.3026
2.08333
0.569361
0.325844
0.0899804
0.044669
0.0367338
0.038796
0.144226
0.0458746
0.0571664
0.0456775
0.0734008
0.0700497
0.0875394
0.219046
0.126999
0.217032
0.156064
0.19082
0.1218
0.194864
0.228478
0.238506
0.189744
0.116522
0.214591
0.309018
0.10675
0.356933
0.392629
0.261919
0.33474
0.399025
0.19772
0.998469
0.186281
0.128053
0.147887
0.396144
1.26508
0.220147
0.463813
4.48415
14.7155
3.68709
0.941543
0.6841
0.0557687
0.0302652
0.0319824
0.0280188
0.0194836
0.0844695
0.0993904
0.406881
0.209307
0.27816
0.661781
2.92769
2.39992
1.13225
5.49826
10.2732
15.1503
9.13704