/*--------------------------------*- C++ -*----------------------------------*\
| =========                 |                                                 |
| \\      /  F ield         | OpenFOAM: The Open Source CFD Toolbox           |
|  \\    /   O peration     | Version:  v2012                                 |
|   \\  /    A nd           | Website:  www.openfoam.com                      |
|    \\/     M anipulation  |                                                 |
\*---------------------------------------------------------------------------*/
FoamFile
{
    version     2.0;
    format      ascii;
    class       volScalarField;
    location    "895";
    object      nut;
}
// * * * * * * * * * * * * * * * * * * * * * * * * * * * * * * * * * * * * * //

dimensions      [0 2 -1 0 0 0 0];


internalField   nonuniform List<scalar> 
18258
(
0.0041974
0.00182695
0.00149828
0.00129876
0.000858573
0.00140542
0.00195161
0.00232271
0.00243648
0.00241493
0.00249968
0.00421743
0.00591791
0.00731241
0.00768055
0.00766805
0.00695889
0.00664471
0.00721664
0.00887328
0.00746163
0.00478113
0.00572515
0.0066202
0.00720969
0.00638828
0.00516483
0.00478295
0.00433146
0.00361116
0.00302884
0.00206933
0.00151824
0.00140709
0.00127556
0.00145412
0.00158385
0.00168914
0.00172685
0.00175398
0.00174196
0.00173193
0.00168501
0.00165576
0.0016061
0.0013277
0.00160059
0.0016507
0.00180637
0.00249225
0.00267578
0.00225012
0.00248991
0.00222164
0.00146489
0.00167716
0.00182074
0.00185998
0.00183606
0.00175985
0.00173415
0.00171239
0.00168482
0.0016521
0.00163216
0.00164852
0.00166559
0.00164747
0.00156649
0.00150082
0.00139457
0.00128806
0.00120906
0.00114785
0.00110169
0.00105057
0.000993135
0.000872341
0.00080845
0.00107043
0.00134373
0.00143557
0.00203452
0.00248033
0.00249687
0.00186902
0.001332
0.00138235
0.00153695
0.0015527
0.00131626
0.00156514
0.00177315
0.00183786
0.00191523
0.00214043
0.00243574
0.00237431
0.00211445
0.00194779
0.00192091
0.00219761
0.00208669
0.00270568
0.00272771
0.00238265
0.00218546
0.00245986
0.00317172
0.0034134
0.0026555
0.00249372
0.00244451
0.00241386
0.00218295
0.00225877
0.00205095
0.00184801
0.00201293
0.00243311
0.00230812
0.00252148
0.00261239
0.0024506
0.00283928
0.00327397
0.00322653
0.0025821
0.00210489
0.00196212
0.00197711
0.00120923
0.0013058
0.00140729
0.00144174
0.00146578
0.00148625
0.0015848
0.00158123
0.00155811
0.00155468
0.00158258
0.000871977
0.000944617
0.000968042
0.000974808
0.00092591
0.000916413
0.000899369
0.000885484
0.000834842
0.000798808
0.000955875
0.00107339
0.00116918
0.00128113
0.00144831
0.00165282
0.0018677
0.00208479
0.00222839
0.00226937
0.0023107
0.00222719
0.00214299
0.00221951
0.00223246
0.00221814
0.00218846
0.00215094
0.00210023
0.00200717
0.00211516
0.00210943
0.00198175
0.00169823
0.00173636
0.00173337
0.0017785
0.00176925
0.00178698
0.00176153
0.00173167
0.00164829
0.00153191
0.00127545
0.00124701
0.00126246
0.00162078
0.00196738
0.00303864
0.00370561
0.00430081
0.00460096
0.00492273
0.00398446
0.00443522
0.00341999
0.00307019
0.00390166
0.00510453
0.00291241
0.00159111
0.00301683
0.00267718
0.00194288
0.0017292
0.00178178
0.0017819
0.00204225
0.00235476
0.00261477
0.00274118
0.00285255
0.00294167
0.00303965
0.00316365
0.0031975
0.00308881
0.002614
0.00315053
0.00255945
0.0029892
0.00270239
0.00182696
0.00190709
0.0020317
0.00186292
0.0018133
0.00173538
0.00156468
0.00193467
0.00250903
0.00291194
0.00332904
0.00443779
0.00410552
0.00393903
0.00304981
0.00294929
0.00153141
0.00218514
0.00226186
0.00254624
0.00169219
0.00154447
0.00146587
0.00193626
0.00224309
0.00264786
0.00293802
0.00348989
0.0027068
0.00309063
0.00279684
0.00195029
0.00187557
0.00268496
0.00289194
0.00237851
0.00212459
0.00266653
0.00252425
0.00179114
0.00142984
0.00219742
0.00227419
0.00163346
0.00408123
0.00434833
0.00415086
0.00505739
0.00632934
0.00721214
0.00672387
0.00596031
0.00664871
0.00527748
0.00511955
0.00546743
0.00458626
0.00319874
0.00327924
0.00339047
0.00348097
0.00373636
0.00396867
0.00425299
0.0045248
0.00411438
0.00341809
0.00258769
0.00178081
0.00175713
0.00174851
0.00157002
0.00232663
0.00351911
0.00349434
0.00198537
0.0011577
0.00130984
0.00147916
0.0014647
0.00106269
0.000799979
0.00137813
0.00157552
0.00160083
0.00156099
0.00147374
0.00153996
0.00247304
0.00380988
0.00418616
0.00433565
0.00447709
0.00457698
0.00463252
0.00465006
0.00465979
0.00467177
0.00468234
0.0046985
0.00468407
0.00458448
0.0040326
0.00253564
0.00148242
0.00137724
0.00152005
0.00163367
0.00173294
0.00147474
0.000901592
0.00144003
0.00184391
0.00211899
0.00213693
0.00199416
0.00193431
0.00304996
0.00405513
0.00477965
0.00492616
0.0049912
0.00493606
0.00492857
0.00482059
0.00478662
0.004197
0.00300482
0.00328529
0.00352766
0.00356855
0.00365141
0.00377584
0.00368869
0.00348477
0.00509168
0.00587539
0.00595092
0.00607769
0.00600574
0.00590187
0.00563355
0.00532701
0.00448447
0.00336289
0.00212175
0.00216595
0.00230571
0.00228351
0.00198777
0.0020944
0.00227316
0.0022959
0.00237093
0.00265901
0.00302001
0.00288045
0.00247827
0.00210517
0.00196016
0.00191924
0.00184153
0.00137957
0.00140005
0.00136074
0.00138308
0.00185752
0.00221087
0.00254971
0.00361709
0.00322655
0.00262404
0.00416196
0.00426451
0.0045821
0.00506145
0.00518688
0.0057476
0.00399982
0.00360434
0.00370286
0.00302496
0.00279989
0.00282979
0.00284047
0.00264717
0.00289756
0.0028721
0.00276832
0.00305641
0.00336805
0.00444135
0.00538194
0.00567877
0.00585036
0.00592061
0.00589834
0.0057831
0.00581888
0.00511044
0.00510472
0.0048888
0.00474795
0.00469766
0.00446397
0.00511039
0.0053058
0.00537115
0.00550543
0.00571457
0.0055602
0.00538697
0.00525522
0.0051597
0.00505976
0.00511387
0.00520927
0.00531101
0.00545387
0.0056448
0.00567676
0.00547894
0.00532943
0.00522709
0.00513097
0.00513516
0.00522093
0.00532092
0.00546265
0.0056436
0.00554356
0.00540287
0.00527755
0.00517471
0.00508416
0.00490651
0.00502532
0.005156
0.00526378
0.00533381
0.00460838
0.0049256
0.00484051
0.0043821
0.0041011
0.00311447
0.00337064
0.00355457
0.00387164
0.00429782
0.00438174
0.0036772
0.00315124
0.00307075
0.00304595
0.00311772
0.00314355
0.00315878
0.00356926
0.00538023
0.00541638
0.00543148
0.00543363
0.00464545
0.00451377
0.00420525
0.0076918
0.00716076
0.00620392
0.00511197
0.00273925
0.00234816
0.00278151
0.00338236
0.00378157
0.00417248
0.00277047
0.0017159
0.00199976
0.0020731
0.00202185
0.00186867
0.00155703
0.00143729
0.00130437
0.00140368
0.00248604
0.00396747
0.00446893
0.00451632
0.00447141
0.00438418
0.004278
0.00413019
0.00408255
0.00515738
0.00699279
0.00786586
0.00783125
0.00672792
0.00549016
0.00310011
0.0016027
0.00118872
0.00126386
0.0013893
0.00162911
0.00144943
0.00123487
0.00135196
0.00127564
0.00257965
0.00444418
0.00564446
0.00670534
0.00660569
0.00575063
0.00468741
0.00443385
0.00453724
0.00460778
0.00466756
0.00472885
0.00477092
0.00474444
0.00431845
0.00266788
0.00159263
0.00141495
0.00152127
0.00178302
0.00189482
0.00191448
0.00188808
0.00163689
0.00270753
0.0042983
0.00273397
0.00149168
0.00161159
0.00159966
0.00282159
0.00281734
0.00275686
0.00428878
0.004535
0.00452421
0.00425139
0.00405829
0.00240308
0.00272806
0.00273737
0.00275174
0.00279672
0.00141319
0.00154058
0.0015888
0.00171095
0.0014951
0.00189757
0.000491066
0.000681173
0.000791187
0.000860498
0.000927139
0.00090945
0.0017406
0.0017666
0.0016857
0.00164129
0.00208243
0.00223441
0.00228341
0.00210281
0.00194016
0.00206534
0.00207011
0.00195119
0.00184806
0.00191585
0.00191705
0.00183715
0.00156258
0.0014642
0.00160739
0.00159022
0.00157769
0.00283233
0.00282718
0.00267578
0.00439535
0.00432517
0.00484378
0.00481225
0.00480623
0.00478642
0.00483764
0.00486471
0.00488525
0.00490915
0.00489974
0.0048526
0.00675041
0.0047734
0.00416559
0.00240951
0.00232121
0.00163953
0.00143693
0.00169205
0.00180974
0.00196205
0.00191775
0.00202146
0.00201903
0.00214239
0.00198833
0.00176536
0.00270367
0.00288817
0.00282067
0.00287631
0.00280855
0.0027919
0.00277149
0.00273232
0.00268506
0.001599
0.00156867
0.00183696
0.00192834
0.00207206
0.00209069
0.00213613
0.00202569
0.00178138
0.00172427
0.00198599
0.00195912
0.00199744
0.00188316
0.00187516
0.00167034
0.00171271
0.00345314
0.00637334
0.00328119
0.00364475
0.00330248
0.00375598
0.00329015
0.00283766
0.00290439
0.00255827
0.00266868
0.00279923
0.0028499
0.00299535
0.00353084
0.00339937
0.00298391
0.00289726
0.0028402
0.00267807
0.00241056
0.00252502
0.00254765
0.00260234
0.00289226
0.00331791
0.00371881
0.00451932
0.00438551
0.00384173
0.0035126
0.00368365
0.0037478
0.00471782
0.00440738
0.00438122
0.00462195
0.00457622
0.00434294
0.00411482
0.0039717
0.00340995
0.00346579
0.00396581
0.00383781
0.00395527
0.00388602
0.00404047
0.00411383
0.00394807
0.00366917
0.00385867
0.0038511
0.0042762
0.00415819
0.00385771
0.0035279
0.00377274
0.00372784
0.00430548
0.004052
0.00378961
0.00348933
0.00334308
0.00379397
0.00372406
0.00422208
0.00434521
0.0043473
0.0037905
0.00370171
0.00440165
0.00423422
0.00409133
0.00426175
0.00352994
0.00362948
0.00447085
0.00456429
0.00433111
0.00361678
0.00367092
0.0031469
0.00370126
0.00460674
0.00435127
0.00356668
0.00296018
0.00414062
0.00435562
0.00460732
0.00435431
0.00474136
0.005107
0.0041635
0.00452915
0.00591706
0.00451843
0.00524278
0.00535846
0.00538954
0.00539181
0.0054121
0.00543847
0.00572863
0.00557039
0.00354451
0.00423722
0.0041171
0.00344575
0.00293321
0.0032299
0.00347865
0.00352908
0.00361876
0.00375662
0.00369181
0.0035684
0.0052232
0.0059579
0.00608968
0.00621069
0.00610805
0.00595453
0.00560492
0.00518158
0.00431141
0.00321756
0.00201091
0.00205104
0.00218695
0.0021676
0.00188183
0.00141912
0.000932482
0.00138167
0.00142737
0.00134425
0.001226
0.00108422
0.00112468
0.00204345
0.00372247
0.00537643
0.00599907
0.00650787
0.00701573
0.00746035
0.00779457
0.00804353
0.00821936
0.00833246
0.00835863
0.00820736
0.00749383
0.00716285
0.00674969
0.00640838
0.00593156
0.00555359
0.00628076
0.00689651
0.00727288
0.00769582
0.0078888
0.00780241
0.00677009
0.0065748
0.00758105
0.00933941
0.00794309
0.00998016
0.0117233
0.00913081
0.00819792
0.00818288
0.00915298
0.0093329
0.00900916
0.00850037
0.00791475
0.00716913
0.00755225
0.00789781
0.00822873
0.00853368
0.00931331
0.00944484
0.00936849
0.0092087
0.00900487
0.00873811
0.0083361
0.0077747
0.00707637
0.00635206
0.00552203
0.00378343
0.00191045
0.0021517
0.00212437
0.00216407
0.00216531
0.00103288
0.00113927
0.00115172
0.00115683
0.00108885
0.00123854
0.0017916
0.00287875
0.0020714
0.00170797
0.00118566
0.00138962
0.00231534
0.00391688
0.00441485
0.0045086
0.00488688
0.00634356
0.00691632
0.00729889
0.00761548
0.00780181
0.00771174
0.00747934
0.00706293
0.00654168
0.00632465
0.00596872
0.00564588
0.00546263
0.00527826
0.00494872
0.00388177
0.00373896
0.00389274
0.00384509
0.00368064
0.00393212
0.0040733
0.00406898
0.00411338
0.0041522
0.00427413
0.00441778
0.00454276
0.00460814
0.00463215
0.0046395
0.00464873
0.00465605
0.00467013
0.00465425
0.00455237
0.00399754
0.00250045
0.00146006
0.00135004
0.00148026
0.00156539
0.00160186
0.00142274
0.000915868
0.00142322
0.0018422
0.00188917
0.00207252
0.00213778
0.00226532
0.00252244
0.00291472
0.00300767
0.00266932
0.00252871
0.00247547
0.00241269
0.00206816
0.00257702
0.00283783
0.00283175
0.00280411
0.00303027
0.00372843
0.00358224
0.00315938
0.00312508
0.00309415
0.00280236
0.00275975
0.0030107
0.00304343
0.00315612
0.00370024
0.00443647
0.00411647
0.00374981
0.00359612
0.00332157
0.0029268
0.00264658
0.00324881
0.00266179
0.00141286
0.00120576
0.00119644
0.00120288
0.00116277
0.00137678
0.00144679
0.00146371
0.00135765
0.00150675
0.00167707
0.00162248
0.00184097
0.00181628
0.00162575
0.00161244
0.00174019
0.00183333
0.00188172
0.00193835
0.00316678
0.00327045
0.00252974
0.00365112
0.00421223
0.00417439
0.00442453
0.00364427
0.00326508
0.00387423
0.00447577
0.00513174
0.00405995
0.00383865
0.00392779
0.0018086
0.000951611
0.00134244
0.00166643
0.0018566
0.00180052
0.00170062
0.00143756
0.00254518
0.00261517
0.0041392
0.00464325
0.00470091
0.00467312
0.00482419
0.00533182
0.00621864
0.00683973
0.00702053
0.00691799
0.0066303
0.00609569
0.00556374
0.00551122
0.00530783
0.00515333
0.00510001
0.00442689
0.003918
0.0041874
0.00411873
0.00425644
0.00431997
0.00436566
0.00441225
0.00449078
0.00458562
0.00467154
0.00472983
0.00476836
0.00480084
0.00483429
0.00486807
0.00490473
0.00492415
0.00487686
0.00440728
0.00264531
0.0015781
0.00143995
0.00153648
0.00180574
0.00190119
0.00204345
0.0018152
0.00095612
0.00112433
0.00195377
0.00216493
0.00200268
0.00187439
0.00184104
0.0015423
0.00279138
0.00275457
0.00432017
0.00485842
0.00492635
0.00491291
0.00487515
0.00483273
0.00479339
0.00476123
0.00473585
0.00470871
0.00466933
0.00462125
0.00457572
0.00452954
0.00445008
0.0043358
0.0042222
0.00439335
0.00452654
0.00470608
0.00491906
0.00503728
0.00495077
0.00480741
0.00473234
0.00475193
0.00479088
0.00483232
0.00486965
0.00488731
0.00483372
0.00455646
0.00427721
0.00271113
0.00274611
0.00135335
0.00150343
0.0017347
0.00179159
0.00194597
0.00193752
0.0015242
0.00118743
0.00133924
0.00125113
0.002234
0.00245619
0.00272284
0.00269566
0.00146563
0.0015031
0.00156224
0.00176282
0.00163952
0.00158378
0.00388955
0.00373182
0.00390882
0.0047947
0.00413187
0.00285588
0.00312985
0.00435416
0.00459044
0.00277702
0.00208329
0.00231015
0.00292659
0.00430729
0.00435971
0.00414037
0.0041185
0.00301005
0.00369999
0.00444846
0.00432622
0.00337775
0.00232791
0.00173215
0.000844067
0.00160573
0.00137323
0.00335998
0.00371751
0.00367246
0.00401538
0.00426726
0.00431115
0.004188
0.00371674
0.00379036
0.00382747
0.00435916
0.00437728
0.00370885
0.00313021
0.00254466
0.0025669
0.00261603
0.0028984
0.0036289
0.00341936
0.00299739
0.00290702
0.00284485
0.00267649
0.00241565
0.00211964
0.002134
0.00198602
0.00192184
0.00302914
0.00403172
0.00475388
0.00489057
0.00494023
0.00486474
0.0048308
0.00469322
0.00462236
0.00401618
0.00512733
0.0054188
0.00522823
0.0052662
0.00529845
0.0053382
0.00533833
0.00523765
0.00450209
0.00268924
0.00175685
0.00198317
0.0021408
0.00201056
0.00199895
0.00213024
0.00202107
0.00177512
0.00287574
0.00281048
0.00449283
0.00508667
0.00519596
0.0052029
0.00518235
0.00516535
0.00517216
0.00544433
0.00531922
0.00538703
0.00567217
0.00568407
0.00575361
0.00540229
0.00533391
0.0052904
0.00526143
0.00521401
0.00508649
0.00450175
0.004364
0.00495527
0.00510751
0.00517496
0.0052218
0.00527797
0.00535196
0.00556478
0.00572254
0.0057801
0.00554518
0.00546156
0.00533542
0.00515488
0.00511241
0.00510366
0.00509969
0.0050748
0.00494299
0.00435196
0.00279873
0.00286792
0.00170633
0.00171763
0.00197852
0.00207842
0.00204159
0.00189077
0.00184359
0.00316515
0.0036025
0.00383401
0.00412764
0.00394185
0.00391934
0.00448047
0.00433615
0.00386877
0.00402439
0.00360822
0.00343977
0.00332203
0.00333905
0.00176241
0.00190156
0.00198318
0.00194996
0.00186456
0.00166285
0.00152486
0.00278226
0.00276195
0.00272572
0.00162157
0.00158621
0.00186885
0.00181518
0.00166072
0.00141557
0.00155163
0.00239447
0.00267776
0.00415137
0.00429947
0.00460269
0.00492192
0.00504293
0.00507558
0.00509489
0.00511727
0.00516506
0.00522216
0.00523807
0.00523688
0.00528516
0.00527793
0.00527809
0.00524861
0.00521539
0.00517718
0.00513678
0.00507101
0.00493601
0.00461273
0.00429568
0.00484311
0.00488762
0.0049788
0.00507346
0.00511448
0.00512216
0.00510554
0.00507084
0.00502976
0.00498097
0.00497945
0.00511207
0.00514225
0.00516537
0.0051492
0.00513217
0.00512717
0.00510614
0.00507075
0.00497733
0.0048834
0.00484304
0.00476241
0.00488996
0.00494626
0.00495488
0.00500273
0.00507921
0.00509907
0.00509585
0.00505697
0.00502518
0.00498619
0.00492294
0.00484246
0.00456606
0.00462416
0.00470006
0.00479883
0.00489443
0.00497162
0.0050145
0.00501609
0.00496893
0.00493742
0.00493839
0.00489684
0.00491871
0.00494128
0.00491694
0.00491534
0.00492106
0.00486795
0.00476871
0.00462979
0.00448226
0.00435889
0.0042934
0.00418806
0.00451652
0.00463951
0.00475007
0.00484881
0.00493947
0.00503214
0.00506358
0.00505665
0.00500052
0.00496857
0.00496707
0.00491926
0.00491738
0.00496364
0.0049657
0.00499247
0.00504171
0.00502447
0.00495417
0.00478113
0.00461413
0.00447036
0.00433414
0.00418838
0.00413845
0.00420626
0.00415585
0.00421991
0.00436877
0.00455278
0.00471056
0.00480902
0.00483864
0.00486682
0.00490978
0.00490426
0.00487819
0.00486488
0.0048068
0.00475679
0.00469501
0.00455693
0.00437837
0.00421865
0.0041636
0.00424513
0.00433016
0.00425136
0.00395601
0.00411164
0.00425555
0.00439986
0.00460708
0.00484803
0.00495714
0.00499604
0.00497311
0.00495498
0.00495256
0.00490878
0.0048939
0.0049341
0.00493697
0.00495521
0.00498585
0.00495016
0.00485872
0.00456207
0.00421486
0.00405063
0.00395545
0.00381931
0.00427204
0.00436159
0.00425326
0.00418095
0.00429512
0.00442994
0.0045699
0.00466238
0.00469798
0.00474745
0.00481278
0.00484349
0.00479617
0.00474223
0.00467514
0.00464039
0.00463847
0.00461234
0.00452075
0.00441589
0.00429877
0.0044443
0.00452978
0.00444776
0.00402672
0.00409349
0.00418419
0.00423222
0.00455728
0.0048507
0.00492599
0.00493551
0.00490719
0.00488912
0.00489071
0.00486565
0.00481839
0.00480885
0.00480266
0.00485624
0.00492623
0.00495698
0.0049698
0.00474856
0.00436291
0.00431166
0.00414209
0.00405827
0.00450705
0.00456056
0.00445648
0.00435903
0.00456529
0.00465442
0.00468144
0.00466544
0.00461853
0.00458678
0.00464473
0.00473585
0.00466569
0.00436447
0.00409578
0.00423359
0.00426608
0.00425354
0.00419453
0.00409815
0.00389232
0.00434541
0.00478769
0.00482376
0.00434971
0.00435695
0.00421007
0.00390553
0.00427873
0.00448489
0.00453422
0.00452455
0.00446094
0.0042952
0.00453973
0.0047541
0.00471408
0.00426587
0.00276844
0.00280726
0.00282866
0.00283238
0.00279534
0.00278531
0.002745
0.00272445
0.0026617
0.00259826
0.00253703
0.00270637
0.002851
0.00304539
0.00306142
0.00314177
0.00300948
0.00285087
0.00266373
0.00207193
0.00262948
0.00313762
0.00333329
0.00358512
0.00363792
0.00419602
0.0044149
0.00453534
0.00445121
0.00357005
0.00302879
0.00242044
0.00157401
0.000980736
0.00115154
0.00119807
0.0012643
0.00155231
0.0028262
0.00144648
0.00199846
0.00156284
0.00268046
0.00143923
0.000897793
0.000595553
0.000761698
0.000905302
0.000914509
0.000874992
0.000728601
0.000570919
0.000583456
0.000543031
0.000576704
0.000518017
0.00059317
0.000553011
0.000765152
0.00113162
0.00130636
0.00133742
0.00108193
0.00122222
0.00102131
0.0011791
0.00105369
0.00114882
0.00110238
0.00134814
0.00147748
0.00141416
0.0014176
0.00124049
0.000867632
0.00100585
0.000790372
0.000949242
0.000726509
0.000938101
0.00080449
0.00104543
0.00107767
0.00107453
0.00103451
0.000790233
0.000936522
0.000737619
0.00090901
0.000748006
0.000800772
0.000667048
0.000970243
0.00098863
0.000910192
0.00097181
0.0010928
0.00117168
0.00128627
0.00121196
0.00137671
0.00132532
0.00133793
0.00126771
0.0012335
0.00120564
0.00120841
0.00118857
0.00119493
0.00123318
0.00123465
0.00123916
0.00127766
0.00125877
0.00122774
0.00120883
0.00107422
0.000867364
0.00151112
0.00155823
0.00158211
0.0015822
0.00154757
0.0015293
0.00147483
0.00146055
0.00141387
0.00138741
0.00132515
0.0012751
0.00121722
0.00136803
0.000765936
0.000869653
0.000917963
0.000945542
0.000964235
0.000972987
0.000979608
0.000973929
0.000961562
0.000938241
0.000930792
0.000905219
0.00115758
0.00131658
0.00137713
0.00139382
0.00130661
0.00124475
0.00272836
0.00330322
0.00501394
0.00512327
0.00385008
0.00383648
0.00132595
0.00140195
0.000958037
0.00134639
0.00138853
0.00137445
0.00129825
0.000936254
0.00140511
0.000979673
0.00131745
0.000992091
0.00122099
0.00102007
0.00145872
0.00186225
0.00179967
0.00163099
0.00112478
0.000937409
0.000943736
0.000804792
0.000881785
0.000717741
0.000874786
0.000733461
0.00107529
0.00151087
0.00168882
0.00172344
0.00135933
0.00187648
0.00141114
0.00204472
0.00162576
0.00200703
0.00161163
0.00186361
0.00230619
0.00231688
0.00226198
0.00182314
0.00145991
0.00163918
0.00145173
0.0016728
0.00241793
0.00158453
0.00240879
0.000994826
0.00135649
0.00139854
0.00137963
0.00130096
0.000876279
0.00222907
0.00117942
0.0020937
0.0013556
0.00216789
0.00158135
0.00210401
0.00251621
0.00263614
0.00262987
0.00214635
0.00194169
0.00201733
0.00161214
0.00193595
0.00143543
0.00207979
0.00117314
0.00151986
0.00167476
0.00176493
0.0017706
0.0014531
0.00287264
0.00180481
0.00272449
0.00189621
0.00243002
0.00194816
0.00212936
0.0025152
0.00249911
0.00247762
0.00210073
0.00170077
0.00224568
0.00160073
0.0479919
0.110624
0.04412
0.111789
0.0505656
0.0717768
0.0706967
0.0708133
0.0710676
0.0533619
0.11646
0.137592
0.143501
0.145282
0.144237
0.23309
0.190122
0.285624
0.18518
0.109072
0.0473734
0.0652571
0.168234
0.277657
0.416577
0.528491
0.360138
0.372719
0.237828
0.234442
0.220706
0.17857
0.109569
0.0549768
0.00940607
0.0102908
0.0147276
0.0196172
0.0154366
0.00943685
0.00186547
0.0019244
0.00196708
0.00199345
0.001986
0.00194349
0.00197446
0.00186505
0.00175316
0.00195779
0.00213374
0.00232508
0.0027262
0.00300934
0.00271067
0.00297109
0.00314916
0.00329382
0.00341284
0.00359034
0.00379052
0.00396715
0.00397705
0.00364473
0.00310651
0.00252815
0.00212658
0.00201532
0.00189285
0.00166935
0.00152748
0.00143128
0.00138417
0.00136449
0.00140196
0.00153181
0.00164405
0.0016833
0.00164977
0.00161938
0.00159288
0.00141827
0.0016581
0.0022744
0.00229283
0.0039281
0.00452619
0.00462012
0.00462636
0.0041025
0.00262108
0.0026267
0.00264012
0.0026902
0.00270064
0.00270703
0.00270404
0.00269386
0.00267803
0.00264837
0.00263376
0.00259122
0.00255562
0.00246745
0.00247146
0.00250414
0.00252935
0.00248872
0.00249965
0.00244599
0.00314918
0.00422266
0.00478685
0.00500414
0.00519123
0.00503956
0.00697375
0.0059515
0.00418902
0.00413851
0.00408552
0.00484491
0.00487789
0.00440378
0.00442086
0.00402548
0.00250943
0.00249609
0.00249749
0.00266846
0.00271977
0.00281451
0.00284014
0.00286498
0.00287886
0.00287707
0.00287608
0.00285367
0.00283536
0.00277303
0.00275211
0.00274354
0.0015126
0.00165053
0.00171128
0.0017219
0.00174502
0.00173397
0.0017225
0.00170164
0.00168706
0.00165879
0.00162514
0.0015776
0.00148391
0.00135268
0.00148969
0.00253145
0.00253213
0.00413812
0.00467066
0.00470403
0.00523708
0.00497308
0.00471102
0.00505795
0.00456139
0.00452615
0.00408859
0.00253636
0.00257047
0.00152397
0.00150885
0.00176286
0.00171267
0.00183003
0.00187937
0.00188571
0.00191174
0.00193754
0.00196864
0.00201835
0.00203378
0.00200434
0.00199948
0.00188454
0.00162882
0.00164866
0.0019433
0.00203718
0.00189021
0.00185509
0.00184014
0.00179539
0.00176107
0.00172771
0.00175034
0.00188445
0.00188337
0.00185139
0.00176266
0.00171836
0.00149168
0.0014429
0.00251936
0.00254284
0.00418434
0.00431661
0.00429076
0.0049335
0.0054945
0.00625475
0.00533404
0.00433266
0.00448706
0.00512379
0.00379946
0.00314474
0.00187233
0.00142617
0.00173623
0.00166356
0.0017318
0.00179432
0.00159327
0.0017096
0.00158025
0.00143571
0.00142774
0.00142579
0.00146146
0.00147622
0.00150307
0.0015066
0.00154271
0.00153925
0.00154428
0.00156326
0.00157316
0.00173831
0.00189116
0.0015908
0.00134833
0.00131217
0.00123893
0.00117908
0.00120775
0.00117909
0.00117199
0.0011505
0.0011311
0.00107921
0.00112486
0.00119357
0.00139635
0.00133779
0.0010813
0.000966111
0.000660594
0.00067298
0.000677639
0.000698629
0.0007062
0.000715547
0.000718977
0.000730698
0.000732933
0.000736596
0.000736284
0.000753999
0.000751394
0.000742798
0.000737189
0.000740991
0.000744576
0.000744104
0.00108948
0.00121338
0.0013269
0.00157655
0.00185678
0.00159775
0.00135347
0.00116563
0.000749271
0.00076067
0.000774687
0.000781874
0.000798666
0.000813897
0.000831008
0.00084184
0.000850076
0.000858681
0.000867723
0.000871522
0.000869545
0.000853005
0.000843227
0.000864838
0.000950415
0.00100012
0.00106374
0.00108779
0.00110865
0.00111921
0.0011136
0.00112501
0.00111151
0.00110952
0.00109021
0.00108184
0.0010738
0.00106375
0.00105145
0.00102132
0.00101128
0.00106407
0.00180127
0.00235653
0.0027177
0.00299608
0.00276041
0.00222966
0.00235531
0.00413217
0.00390452
0.00231395
0.00215578
0.00198449
0.00172816
0.00152581
0.00184311
0.00210255
0.00229993
0.00247423
0.00263346
0.00274136
0.00287948
0.00305951
0.0033785
0.00341879
0.00311873
0.00252846
0.00214216
0.00200229
0.00193507
0.00181692
0.00168785
0.00173006
0.00174246
0.00169053
0.001626
0.00160747
0.00163387
0.00166697
0.00164684
0.00164608
0.00147041
0.00146994
0.00251146
0.00256008
0.00393772
0.00414856
0.00418826
0.0026933
0.00265617
0.00155163
0.00144086
0.0015718
0.00163148
0.00163476
0.00164122
0.00163254
0.00160388
0.00158283
0.0015584
0.00153864
0.00152138
0.00149158
0.00143505
0.00132547
0.00144494
0.00162046
0.00169142
0.00170949
0.001718
0.00174502
0.00178943
0.00182516
0.00190771
0.00191664
0.00191595
0.00192282
0.0017976
0.00185406
0.00156929
0.00156722
0.00271589
0.00270887
0.00155641
0.00183778
0.00184997
0.00182824
0.001968
0.001801
0.00174385
0.00173404
0.00166069
0.00162161
0.00156968
0.00153876
0.00156938
0.00167011
0.00161807
0.00143369
0.00138381
0.00155146
0.00149113
0.00123703
0.00105674
0.00102742
0.000983349
0.000956615
0.00100255
0.0010383
0.00105869
0.00108462
0.00109232
0.00113998
0.00110934
0.00116444
0.00123483
0.00129079
0.00153123
0.00165925
0.001499
0.00147025
0.001452
0.00145001
0.00145448
0.00139466
0.0013907
0.00135976
0.00134454
0.00130418
0.00128597
0.00126285
0.00126717
0.00128079
0.00140819
0.00363047
0.0046262
0.00481751
0.00821983
0.00332313
0.00339511
0.0066503
0.00275343
0.00413862
0.00443631
0.00463822
0.00484362
0.00443204
0.00562034
0.0039284
0.0043715
0.00456753
0.00402284
0.00149036
0.0016651
0.00193792
0.00174622
0.00154322
0.00105252
0.00113603
0.00117378
0.00120428
0.00122428
0.0012462
0.00126978
0.00129183
0.00130736
0.00130769
0.00126813
0.0012254
0.0011272
0.00109445
0.00113688
0.00118073
0.00103736
0.000976801
0.000988449
0.00100487
0.00101415
0.00101624
0.0010264
0.0010292
0.00104516
0.00103681
0.00104496
0.00102721
0.00103653
0.00102276
0.000987706
0.000938709
0.000855233
0.000834681
0.00120212
0.00127998
0.00134471
0.00152556
0.00176121
0.00187915
0.00168424
0.00155305
0.00149079
0.00165389
0.00165372
0.00299931
0.00575567
0.00258085
0.00289269
0.00840836
0.00334798
0.00260826
0.00264789
0.00267579
0.00267943
0.00155734
0.00184456
0.0017886
0.00179533
0.00152258
0.00127818
0.00114651
0.00102517
0.000695058
0.000692691
0.000697922
0.000708508
0.000711783
0.000681416
0.000681338
0.000677458
0.000675932
0.000661635
0.000657643
0.000646036
0.000638993
0.000622278
0.000613198
0.000597202
0.000594183
0.000616694
0.000683222
0.000825075
0.000922103
0.00104591
0.0010661
0.00120736
0.00300692
0.00348391
0.00479851
0.00475362
0.00749904
0.00468421
0.00353879
0.00320237
0.00468458
0.00483935
0.00450221
0.00610017
0.00422111
0.00278963
0.00412363
0.00341502
0.00413613
0.00402903
0.00426358
0.00676399
0.00713739
0.00201572
0.00179745
0.00189157
0.00214563
0.0025472
0.00234294
0.00267032
0.00266267
0.00204979
0.00131679
0.00419553
0.00506307
0.0040356
0.00482376
0.00749121
0.00301855
0.00294441
0.00260547
0.00217478
0.00197686
0.00195
0.00217397
0.00260143
0.0065203
0.0069735
0.0063765
0.00633642
0.00576002
0.00637999
0.00796234
0.00794015
0.00700846
0.00655669
0.00677451
0.00416151
0.00262738
0.0030599
0.00338628
0.00451704
0.00465719
0.009837
0.00333499
0.00368664
0.00374283
0.00500952
0.00484581
0.00857419
0.00362792
0.00391428
0.00515655
0.00688233
0.0127028
0.00462917
0.00488207
0.00702237
0.0071261
0.00651458
0.00470807
0.00426984
0.00465577
0.00350702
0.00342821
0.00292918
0.00432639
0.00582587
0.00459971
0.00446669
0.00380394
0.00337405
0.00346732
0.00359453
0.00298514
0.00294512
0.00340352
0.00251716
0.00242996
0.00258718
0.000716235
0.000367186
0.000375463
0.000385199
0.000393099
0.000401211
0.000407177
0.000414204
0.000417427
0.000417734
0.000418776
0.000442829
0.000438824
0.000424952
0.000385886
0.000440391
0.000698852
0.000699367
0.00043994
0.000387874
0.000695846
0.00110879
0.0013071
0.00154658
0.0015659
0.00135092
0.00117126
0.000720862
0.000709575
0.000430166
0.000502364
0.000545569
0.000483856
0.000539935
0.000500399
0.000530097
0.000535399
0.000495391
0.000492682
0.00049462
0.000490819
0.000482144
0.000471482
0.000458469
0.000448117
0.000442214
0.00043732
0.000427056
0.000356092
0.000331398
0.000396978
0.00063125
0.000630228
0.00059139
0.000558791
0.000531179
0.000518923
0.000515731
0.000513095
0.000522056
0.000538967
0.000543711
0.000548423
0.000590869
0.000572742
0.000611792
0.000574055
0.00061336
0.000575775
0.000529641
0.000444724
0.000458835
0.000740079
0.000747937
0.00120857
0.00138279
0.00156826
0.00157647
0.00175972
0.00185301
0.00156903
0.00162887
0.00186692
0.0017391
0.00155045
0.0015564
0.00140015
0.00140124
0.00124096
0.000775446
0.000764892
0.000480457
0.000466601
0.000556399
0.000546627
0.000607979
0.000650615
0.000650878
0.000648762
0.000632031
0.000626127
0.000550718
0.000539982
0.000540693
0.000524261
0.000520577
0.00054212
0.000590167
0.000691233
0.000835519
0.000910179
0.000942934
0.000905477
0.000811298
0.000597017
0.000540795
0.000935815
0.000973227
0.0017291
0.00409549
0.0018864
0.00366434
0.00264545
0.000660396
0.000737513
0.0009406
0.00105412
0.00113787
0.00118491
0.0010817
0.000901717
0.000679142
0.000561074
0.000840346
0.000726755
0.000821858
0.000717987
0.000929057
0.00107433
0.00103942
0.00104736
0.000885242
0.000721311
0.000763898
0.000686038
0.000756259
0.00063309
0.000761767
0.000687763
0.000864311
0.000872435
0.000854292
0.000809772
0.000616582
0.000646924
0.000542652
0.000588616
0.000528447
0.00054616
0.000517579
0.000603528
0.000695443
0.000667415
0.00066478
0.000546185
0.000427955
0.000472629
0.000408528
0.000462365
0.000359313
0.000435328
0.00036512
0.000472622
0.000487088
0.000489355
0.000485589
0.000394446
0.000463682
0.000569405
0.000598474
0.000603638
0.000575257
0.000443313
0.000686131
0.000619623
0.000756643
0.000654705
0.00071645
0.000652495
0.000760522
0.000973934
0.00101672
0.00102346
0.00083027
0.000825108
0.00150447
0.0833928
0.00135334
0.00159958
0.00164938
0.00164336
0.00135877
0.00132578
0.00164167
0.00121477
0.00171994
0.00108283
0.00183391
0.00069931
0.00106311
0.00114138
0.00113891