/*--------------------------------*- C++ -*----------------------------------*\
| =========                 |                                                 |
| \\      /  F ield         | OpenFOAM: The Open Source CFD Toolbox           |
|  \\    /   O peration     | Version:  v2012                                 |
|   \\  /    A nd           | Website:  www.openfoam.com                      |
|    \\/     M anipulation  |                                                 |
\*---------------------------------------------------------------------------*/
FoamFile
{
    version     2.0;
    format      ascii;
    class       volScalarField;
    location    "455";
    object      epsilon;
}
// * * * * * * * * * * * * * * * * * * * * * * * * * * * * * * * * * * * * * //

dimensions      [0 2 -3 0 0 0 0];


internalField   nonuniform List<scalar> 
18258
(
0.0242614
0.0123818
0.00924993
0.00728695
0.0127387
0.0126567
0.0131104
0.0174765
0.0243286
0.0372048
0.0537929
0.0482968
0.04363
0.0453411
0.0474762
0.0450124
0.0350201
0.0302786
0.0397804
0.0665271
0.0610026
0.0498053
0.0611273
0.051511
0.0654281
0.0825731
0.0632402
0.0569593
0.0511406
0.0480867
0.0414544
0.0232585
0.0345959
0.0534414
0.0728329
0.0795382
0.0851869
0.0898729
0.0951439
0.0973005
0.0975512
0.0923179
0.0831125
0.0680742
0.0501495
0.0387987
0.0311903
0.030599
0.0431181
0.0442293
0.0549788
0.0847313
0.107243
0.0805607
0.0517
0.0823035
0.112193
0.143931
0.170466
0.192948
0.200714
0.197345
0.185868
0.169182
0.147769
0.122804
0.101819
0.0848971
0.0671124
0.0573093
0.0463495
0.0384294
0.0328552
0.0291892
0.0269838
0.0252627
0.0241009
0.0250295
0.0249148
0.0177705
0.0139777
0.0131283
0.00939043
0.00780371
0.00811742
0.00771608
0.00801214
0.00707163
0.00605795
0.00526146
0.0044643
0.0065065
0.00700474
0.00724724
0.00726861
0.00778784
0.0080315
0.00776591
0.00785724
0.00717777
0.00759809
0.0120631
0.0137894
0.0174942
0.0156895
0.0109935
0.00901923
0.0100701
0.0106841
0.0133081
0.0125627
0.0133332
0.0118213
0.0108035
0.00911586
0.00884319
0.00907073
0.00964187
0.0100399
0.0116594
0.0114915
0.0106635
0.0117897
0.0130078
0.0127365
0.012196
0.0116084
0.0142481
0.0114333
0.0121155
0.0136124
0.0219319
0.0214619
0.0259776
0.0254994
0.0259343
0.0261143
0.0315126
0.0316343
0.0320151
0.0323348
0.0340807
0.0570645
0.0508347
0.0497208
0.0495255
0.0428286
0.0423695
0.0416863
0.0425033
0.0359845
0.0346305
0.0314121
0.0310571
0.0346591
0.0437714
0.0612504
0.0885027
0.122444
0.158781
0.189051
0.210025
0.231754
0.237103
0.250974
0.255657
0.256552
0.250884
0.242471
0.233018
0.220175
0.201604
0.188741
0.148328
0.104965
0.0589965
0.0782947
0.0902624
0.099941
0.101819
0.102976
0.0989574
0.0928263
0.0817577
0.0663805
0.0432612
0.0479607
0.0652037
0.0677003
0.0685584
0.0544678
0.0525474
0.0489332
0.0490157
0.0645643
0.0738565
0.0619975
0.0854877
0.100528
0.0879945
0.0638957
0.0977941
0.143201
0.0804771
0.0682432
0.0525691
0.0515213
0.0434657
0.0368463
0.062972
0.0938584
0.128358
0.149144
0.170737
0.188137
0.201347
0.215406
0.187253
0.170188
0.114596
0.200518
0.151675
0.0764632
0.0562907
0.0543822
0.0463782
0.0518323
0.0568491
0.0524722
0.0405593
0.027897
0.0245986
0.0464419
0.0648872
0.0784294
0.0622928
0.0792617
0.0895522
0.0968902
0.102227
0.129889
0.0958259
0.105816
0.0754978
0.102558
0.0725932
0.0466175
0.0522714
0.0997985
0.159362
0.218321
0.255469
0.144689
0.0730268
0.0541027
0.0539675
0.0523487
0.0474806
0.0590746
0.105291
0.0716158
0.0463943
0.0401903
0.0473916
0.0416982
0.0309034
0.0325626
0.0399064
0.055003
0.06829
0.0811223
0.124471
0.121284
0.146464
0.153491
0.129448
0.125299
0.0809622
0.0829197
0.122078
0.09112
0.0736584
0.103645
0.14687
0.201028
0.247196
0.287396
0.313061
0.302807
0.274072
0.173464
0.0759858
0.0229119
0.0178288
0.0168805
0.0173532
0.0105422
0.00630376
0.00584925
0.00665306
0.00700513
0.00591445
0.00544609
0.00543751
0.00577754
0.0101841
0.00875437
0.0108282
0.0131161
0.0156608
0.0187008
0.0194248
0.012887
0.00872179
0.00818325
0.00811732
0.00804654
0.00801506
0.00802434
0.00806217
0.00807558
0.00804116
0.00796104
0.00782331
0.00768775
0.00763059
0.00826509
0.011149
0.0153094
0.014814
0.0135277
0.0121763
0.0110203
0.00869694
0.0151197
0.0128248
0.0109164
0.0133635
0.0164578
0.0207949
0.024428
0.0176161
0.0141013
0.0127596
0.0126308
0.0125127
0.0125528
0.0124247
0.0124813
0.012273
0.012853
0.01354
0.016943
0.018971
0.0211617
0.0226696
0.0232616
0.023973
0.0211069
0.0229948
0.0227244
0.0235021
0.0233199
0.0226293
0.0207035
0.0189026
0.0176734
0.0190814
0.0236337
0.0322526
0.0266551
0.020683
0.0167329
0.0136847
0.0149586
0.0166286
0.0168024
0.0158151
0.0155849
0.0153761
0.0138533
0.0130559
0.0110618
0.0104549
0.010004
0.0101624
0.0143587
0.0134911
0.0136744
0.0143937
0.0154703
0.0146332
0.0150644
0.0142343
0.0144833
0.0149044
0.0169783
0.0185264
0.0177711
0.0164661
0.0159685
0.0137009
0.0158017
0.0156598
0.0169806
0.0185616
0.0190521
0.0189894
0.018354
0.0167595
0.0186472
0.022009
0.0256566
0.0246621
0.0243421
0.0204114
0.0192194
0.0201969
0.0214734
0.0223774
0.0224361
0.0222384
0.0222997
0.0262489
0.0258274
0.0246502
0.022584
0.0201397
0.0174889
0.0151044
0.0165781
0.0180553
0.0194418
0.0207073
0.0204994
0.0189692
0.0176121
0.0163833
0.0148927
0.0146161
0.0160681
0.01729
0.0187238
0.0204469
0.0205392
0.018815
0.0173147
0.0160305
0.014557
0.0145143
0.0160151
0.0173164
0.0187393
0.0202331
0.0196023
0.0184408
0.0171854
0.01594
0.0144868
0.0145569
0.0158794
0.0169506
0.0180373
0.0189914
0.0198388
0.0178777
0.0169656
0.0170535
0.0160647
0.0192393
0.0184852
0.0194268
0.0179793
0.0167616
0.0177681
0.0209539
0.0239809
0.0245331
0.0242533
0.0201262
0.0205812
0.0205565
0.0191416
0.0159271
0.0153295
0.0180856
0.0208065
0.0212656
0.0199689
0.0168862
0.0132539
0.0142685
0.0174142
0.0197175
0.0184642
0.0183084
0.0169015
0.0158202
0.0161133
0.0138299
0.0165667
0.02658
0.024043
0.0220197
0.0195441
0.0155627
0.0105467
0.01144
0.0125872
0.0129996
0.0105105
0.00787458
0.00707247
0.00688107
0.00672407
0.00650623
0.00613822
0.00558173
0.00538802
0.0107397
0.0263272
0.0366262
0.0359299
0.0241908
0.0209175
0.0203258
0.0191421
0.00956566
0.00828206
0.00850766
0.0104475
0.00823089
0.00872526
0.0151285
0.0102998
0.0140658
0.0108635
0.0146321
0.0230485
0.0219496
0.0146583
0.00805009
0.00686121
0.0073428
0.00763052
0.00783253
0.00802727
0.0082586
0.00864144
0.00995414
0.0156404
0.0201897
0.0176609
0.016669
0.0152067
0.0187295
0.0212092
0.0231485
0.0259117
0.0160346
0.0117287
0.0165646
0.0271385
0.0246234
0.0231626
0.0170575
0.0175989
0.0170427
0.0109557
0.0106133
0.0105318
0.0113439
0.0127227
0.0146434
0.0158092
0.0165582
0.016884
0.0177875
0.0230632
0.021585
0.0210784
0.0173204
0.0133122
0.015317
0.0513239
0.0194929
0.0206022
0.0188558
0.0191348
0.0204213
0.0151522
0.0135186
0.0129267
0.0146053
0.0214626
0.0214705
0.0213277
0.018194
0.0174074
0.0208193
0.0219111
0.0223184
0.0216959
0.0212448
0.0193871
0.0166259
0.0180526
0.0195651
0.0207452
0.0227453
0.0230906
0.0178682
0.0171474
0.0157688
0.0104874
0.0112299
0.00967286
0.00964482
0.00961153
0.0093386
0.00889245
0.00917886
0.00929396
0.00929024
0.00894713
0.00924124
0.00830904
0.00864303
0.00973015
0.015164
0.0147353
0.0175319
0.0194437
0.0166965
0.0155409
0.0141828
0.0131638
0.0154062
0.014244
0.0168159
0.0211505
0.026418
0.0190636
0.0180665
0.0178395
0.0174315
0.0172723
0.0173205
0.0166339
0.0156402
0.0150786
0.0235163
0.0212297
0.0181161
0.0171707
0.0157421
0.0179847
0.0174306
0.0213107
0.0267682
0.0269679
0.021475
0.0215496
0.0189097
0.0200099
0.0221843
0.0269962
0.0269227
0.0143858
0.00956149
0.0153867
0.0157275
0.0183344
0.0169569
0.0184797
0.0196554
0.0203799
0.0202397
0.0176477
0.0188175
0.019604
0.0205889
0.0185433
0.0165405
0.0173256
0.0161065
0.01521
0.0147148
0.0126479
0.0128874
0.0138521
0.0152984
0.0162401
0.0177268
0.0193734
0.0194055
0.0200687
0.0196637
0.0190717
0.0251456
0.0239096
0.025449
0.028146
0.022376
0.0177633
0.0146513
0.0149586
0.0147235
0.01463
0.0153768
0.016732
0.0151105
0.0144957
0.0169933
0.0193405
0.0245941
0.0329031
0.0286332
0.0261032
0.0331318
0.0313249
0.0381249
0.0285891
0.02808
0.0207904
0.0262308
0.0304638
0.0391002
0.0254406
0.020898
0.0223688
0.0255035
0.03472
0.0327133
0.0330512
0.0410964
0.0398731
0.0361489
0.0311322
0.0352567
0.0211842
0.0301335
0.0321569
0.0267788
0.0256439
0.0306584
0.0309953
0.0329425
0.0283341
0.0267132
0.0178638
0.0273556
0.0312842
0.0329791
0.0277402
0.020501
0.0279462
0.0204926
0.0191295
0.0202409
0.0137304
0.0126825
0.0147523
0.0138269
0.0111608
0.0121012
0.011118
0.0110994
0.0111741
0.0112816
0.0114047
0.0116483
0.0115984
0.0125647
0.0132521
0.0125158
0.0114938
0.0121934
0.0126162
0.0161199
0.0182107
0.0204848
0.0220848
0.0229256
0.0240517
0.0226553
0.0248076
0.0237257
0.0251793
0.0248688
0.0237979
0.0212866
0.0186696
0.0163378
0.0170415
0.020798
0.0275424
0.0225913
0.017506
0.0141815
0.0117574
0.0130448
0.016378
0.00884202
0.00808251
0.00780547
0.00766292
0.00760708
0.00686681
0.00593917
0.00632029
0.0122295
0.0159736
0.0204252
0.0263772
0.0324808
0.0377176
0.0417766
0.0447775
0.0467148
0.0473004
0.0446271
0.0339606
0.0290639
0.0247946
0.0203606
0.016467
0.016729
0.0244209
0.0321048
0.0396692
0.0463338
0.0513103
0.0493726
0.0330334
0.0298573
0.0461836
0.0779001
0.0737381
0.0969688
0.110724
0.0624647
0.0461245
0.045117
0.0621771
0.0648922
0.0568731
0.04685
0.0365228
0.0262401
0.0308416
0.0354384
0.0399282
0.0447001
0.0587301
0.0613867
0.0599157
0.0569726
0.0532204
0.0483601
0.0415349
0.033203
0.0248671
0.0184238
0.0133488
0.00716164
0.00777745
0.00796378
0.0075221
0.00768973
0.00801101
0.00905148
0.00876374
0.00899204
0.00878902
0.00883206
0.00785752
0.00699305
0.0103025
0.00974594
0.00980327
0.0105795
0.013598
0.0103632
0.00751387
0.00707471
0.00708024
0.00767119
0.0187483
0.0255898
0.0306792
0.035209
0.0383715
0.0371695
0.033898
0.0284017
0.0222372
0.0199952
0.0168187
0.0142895
0.013053
0.0143747
0.0117783
0.00572763
0.00522062
0.00575611
0.00558478
0.00510524
0.00616083
0.00686694
0.00749267
0.00792463
0.00823977
0.00829998
0.00823534
0.00814074
0.00809155
0.00806579
0.00803094
0.00795906
0.00785653
0.00770771
0.00756572
0.00749764
0.0080897
0.0107125
0.0146546
0.0144203
0.0133026
0.0121898
0.0113262
0.00960515
0.0154772
0.0131341
0.0110143
0.0101866
0.0100467
0.0103469
0.0113044
0.0129218
0.0138328
0.0158317
0.0158732
0.0157661
0.0160728
0.0158648
0.0133767
0.0151723
0.0177561
0.0185618
0.019152
0.0189216
0.0173782
0.0194026
0.0205555
0.0200276
0.0194338
0.0167194
0.0194981
0.0233074
0.0237341
0.0239647
0.0212776
0.0184283
0.0216016
0.0227875
0.022441
0.0233584
0.0217127
0.0224769
0.0277991
0.014557
0.0136595
0.00840146
0.00903538
0.00937676
0.00918867
0.00889622
0.00925969
0.00949341
0.00913833
0.00981751
0.0101158
0.00934773
0.0119248
0.0110288
0.0107155
0.0101212
0.0104576
0.0109419
0.0112159
0.0125795
0.0200447
0.0206231
0.0185478
0.0212638
0.0218201
0.0181549
0.0207143
0.021619
0.0219991
0.0223823
0.02379
0.0222254
0.0245288
0.023861
0.022327
0.0215826
0.0383594
0.025277
0.0166584
0.0154159
0.015069
0.0151133
0.0170047
0.0126633
0.0142129
0.00995058
0.00862063
0.00826595
0.00799548
0.00862291
0.0115209
0.0180414
0.0253703
0.0279387
0.0268577
0.0235906
0.0181532
0.0135295
0.0131712
0.0118146
0.0110044
0.0108338
0.00717743
0.00515887
0.0065751
0.00661849
0.00721377
0.00763411
0.00797646
0.00823265
0.00837177
0.00844041
0.00851669
0.00862711
0.00874594
0.00884572
0.00892127
0.0089728
0.00902817
0.00914081
0.00943968
0.0106345
0.0153021
0.0197304
0.0186282
0.0171628
0.0158482
0.016613
0.0173719
0.0181143
0.0223219
0.0191677
0.0220818
0.0207274
0.0197374
0.0183272
0.0190501
0.020847
0.0165893
0.0165107
0.0112551
0.00983162
0.00946242
0.0092574
0.00910011
0.00894639
0.00879907
0.0086662
0.00853864
0.00842633
0.00833738
0.00824913
0.00811322
0.00787659
0.00748201
0.00706235
0.00618131
0.00674969
0.00744148
0.00840765
0.00952
0.010091
0.00954162
0.00878623
0.00843874
0.00854136
0.00870274
0.0088849
0.00909589
0.00939199
0.00985393
0.0108188
0.0114923
0.0161696
0.016897
0.0202336
0.020043
0.0179432
0.0172973
0.0189054
0.01743
0.0127068
0.01746
0.0169792
0.0212028
0.0156991
0.0148012
0.0151892
0.0156633
0.0183725
0.0172836
0.0158114
0.0157794
0.0127142
0.0142718
0.016269
0.0177757
0.0280339
0.0274474
0.0346058
0.034545
0.0597294
0.0567859
0.050042
0.0541937
0.023838
0.0467169
0.054652
0.0497483
0.0431524
0.0274878
0.044026
0.067115
0.0973914
0.0701622
0.0573839
0.106836
0.0773865
0.0376132
0.0267141
0.0150795
0.0151569
0.025181
0.0292604
0.0242491
0.0233906
0.0336472
0.0350189
0.0281767
0.0288733
0.0312628
0.0302007
0.0326823
0.0282738
0.0275905
0.0156002
0.0127993
0.0138257
0.01555
0.0165424
0.0160251
0.0168719
0.0175533
0.0161206
0.0151022
0.0145487
0.0124868
0.0132353
0.0162233
0.0204455
0.0239553
0.0172893
0.013884
0.0125791
0.0123839
0.0121579
0.0120417
0.0117256
0.0115454
0.0110821
0.0112962
0.00984875
0.0098595
0.0103897
0.0105447
0.0107414
0.0108926
0.0110093
0.011118
0.0119946
0.0187828
0.0259963
0.0208029
0.0164913
0.0140121
0.015197
0.0171164
0.0210172
0.0264428
0.0178551
0.0176748
0.0115183
0.0107321
0.010529
0.0103653
0.0102199
0.0101299
0.0101971
0.0102022
0.0119272
0.0115009
0.0133852
0.0144795
0.0119786
0.0115605
0.0111015
0.0108256
0.0106763
0.0105989
0.0106941
0.0115584
0.0113892
0.0104577
0.0103581
0.0104727
0.0106813
0.0110009
0.0114476
0.011955
0.0128638
0.01262
0.0111824
0.0112446
0.0105987
0.0102902
0.0100548
0.0100255
0.0100709
0.0102055
0.0104209
0.0113315
0.0171354
0.0173145
0.0266554
0.0266405
0.0211793
0.0177073
0.0155539
0.0143008
0.01357
0.0353314
0.0310236
0.0491589
0.0391981
0.0313712
0.0509678
0.0725787
0.0563459
0.0918895
0.0992643
0.0730416
0.0661759
0.0210149
0.0160003
0.0154695
0.0169581
0.0186485
0.0212812
0.0218768
0.0266943
0.0288016
0.0171935
0.0165131
0.0155802
0.0249098
0.0230844
0.0197027
0.0178192
0.0164346
0.0189862
0.0207787
0.0149776
0.01502
0.00967784
0.0106785
0.0104292
0.0100947
0.00998306
0.00991231
0.00994899
0.0100507
0.0103345
0.0108299
0.0112021
0.0113308
0.0116034
0.0113965
0.0111125
0.0107736
0.0105719
0.0103754
0.0102181
0.0100994
0.0101359
0.0104558
0.0106034
0.00930507
0.00964691
0.00975369
0.00976778
0.00980515
0.00978082
0.00966056
0.00947609
0.00930508
0.00911696
0.00916824
0.00996104
0.0100889
0.0101452
0.00999341
0.00988291
0.00987736
0.00981869
0.00980675
0.00979374
0.00966533
0.0093456
0.00861944
0.00847666
0.00908487
0.00943677
0.00962219
0.0097108
0.00968654
0.00961847
0.00937967
0.00919951
0.00899364
0.00866741
0.0082525
0.00688684
0.00713771
0.00747971
0.00795158
0.00843929
0.00886697
0.00915164
0.00929803
0.00937855
0.00929261
0.0090016
0.00847826
0.00842618
0.008816
0.00899957
0.00896747
0.00872078
0.00833385
0.00778949
0.0071068
0.00643992
0.00591966
0.00565702
0.00525332
0.00662562
0.00718885
0.00772178
0.00822298
0.00870594
0.0092286
0.00944858
0.00952221
0.00949683
0.00933518
0.00899695
0.00846293
0.00847524
0.00895927
0.00927782
0.00940937
0.0093999
0.00919356
0.00876462
0.00785347
0.00704564
0.00639841
0.00582498
0.00525155
0.00504382
0.00529461
0.00510671
0.00534939
0.00594389
0.00674867
0.0075205
0.0081053
0.008514
0.00868481
0.00862634
0.00837232
0.00827848
0.00840719
0.00835999
0.0080678
0.00751369
0.00677782
0.00597406
0.00532768
0.00511628
0.00542164
0.00575372
0.00544815
0.00440679
0.00494971
0.00549384
0.00608186
0.00699471
0.00817587
0.00879028
0.00911911
0.00928288
0.00921679
0.00892146
0.00847375
0.00845933
0.00889046
0.00917685
0.00922345
0.00908388
0.00877005
0.00824692
0.00681307
0.00536195
0.0047479
0.00441013
0.00396783
0.00552409
0.00588227
0.00546368
0.005195
0.00563707
0.00619921
0.00684643
0.00737318
0.00780107
0.00809893
0.0081927
0.00815447
0.00802626
0.0080366
0.00798727
0.00778184
0.00751942
0.0072875
0.00682909
0.00636824
0.00585503
0.00640783
0.0066946
0.00627133
0.00468085
0.00497209
0.00538912
0.00564954
0.00708028
0.008517
0.00895375
0.00912629
0.00927701
0.00921293
0.00889155
0.00844209
0.00842947
0.00896013
0.0093636
0.00949221
0.00957738
0.00963623
0.00969575
0.00853152
0.0066579
0.00622606
0.00528773
0.00483233
0.00658585
0.00701393
0.00682782
0.00656176
0.00748099
0.00787488
0.00803444
0.00806842
0.00809979
0.00808206
0.00798902
0.00791368
0.0078025
0.00824891
0.00888678
0.00878269
0.0086718
0.00849738
0.00812577
0.00767533
0.0071785
0.00784027
0.00838172
0.00811256
0.00598142
0.00635507
0.00716847
0.00732139
0.00883181
0.0100395
0.0104043
0.0104397
0.0103555
0.0103447
0.00933102
0.008396
0.00824701
0.0096124
0.015615
0.0154609
0.0155085
0.0154463
0.0148583
0.0146861
0.014106
0.0138447
0.0131281
0.0126668
0.0119671
0.0140214
0.0177957
0.0199024
0.0222798
0.0247906
0.0233932
0.0188568
0.0165976
0.0101153
0.00798114
0.00688688
0.00596989
0.00527705
0.00507606
0.00755498
0.00943315
0.0116371
0.01363
0.0139405
0.0163897
0.0203605
0.0309929
0.0492571
0.0415993
0.039273
0.0398033
0.0991593
2.55198
2.74304
2.49891
2.90679
3.33915
0.397589
0.153266
0.285112
0.302321
0.334322
0.309632
0.278341
0.253062
0.257072
0.246483
0.254984
0.237258
0.248649
0.217657
0.226438
0.235689
0.708293
1.05364
1.26828
1.7676
1.76534
1.98979
1.93664
1.95246
1.80231
1.91779
1.66649
1.38176
1.30586
1.2336
1.32402
1.43896
1.24861
1.1322
1.0163
0.925626
0.79368
1.00651
0.763926
0.722285
0.721081
0.753566
1.00414
0.914751
1.05266
0.96747
1.00652
0.601586
0.675773
0.494282
0.412064
0.341443
0.416309
0.560461
0.745098
0.930986
0.712105
0.973491
0.901797
0.899949
0.856247
0.7799
0.739916
0.726794
0.747734
0.760379
0.775755
0.80389
0.825384
0.844354
0.996383
1.06251
1.05416
0.864251
0.772699
0.535267
0.573269
0.607338
0.610617
0.568799
0.550865
0.500452
0.487971
0.443338
0.424124
0.385979
0.366592
0.334376
0.461602
0.788857
0.818537
0.888916
0.94182
0.992423
1.01409
1.03149
1.01403
0.980491
0.909392
0.877812
0.813869
0.922301
1.10753
1.10502
1.01519
0.862278
0.816585
3.80694
4.63035
3.06312
6.60709
10.0471
16.8496
7.6522
2.07617
3.47287
2.38672
2.11868
2.06593
2.1821
3.43977
2.51641
3.28918
2.73896
2.88029
2.27064
2.51596
2.38175
1.82398
1.53426
1.29907
1.16863
0.930191
0.914556
0.736448
0.685834
0.635219
0.534587
0.669062
0.692613
1.70839
2.32663
2.89785
4.54236
4.98362
5.44048
8.57444
6.92076
8.6458
5.1309
5.18676
3.8339
3.60529
3.64423
5.01199
7.17571
4.93976
8.6289
4.80664
15.5975
34.905
9.21039
19.0582
10.9928
9.93847
9.57779
9.86784
14.0323
9.58031
15.5726
13.1822
17.5519
17.1807
18.1537
14.0019
10.3741
11.3695
12.2365
15.6679
11.0646
12.72
9.61094
9.3824
8.77663
7.28064
6.54431
5.04438
5.99179
7.02614
8.00676
12.7255
15.929
18.2786
22.0277
16.2369
18.505
11.1329
12.2276
9.44146
8.85871
8.99358
11.8342
20.9896
14.8676
27.2081
0.498416
0.226192
0.546319
0.22992
0.487623
0.391078
0.403689
0.404672
0.400422
0.462249
0.22059
0.185385
0.177566
0.175395
0.1769
0.100306
0.124531
0.0804586
0.126945
0.229391
0.504531
0.365806
0.140553
0.0826165
0.0546239
0.0429765
0.0635102
0.0613134
0.0980546
0.0994265
0.105784
0.132392
0.228729
0.434836
31.9142
7.14267
1.1367
0.533858
0.283584
0.173799
0.149881
0.169428
0.182293
0.185233
0.174293
0.148633
0.107301
0.0717699
0.0486651
0.0410991
0.0299169
0.0275699
0.039015
0.0527767
0.048939
0.0646779
0.0831219
0.105937
0.130168
0.149451
0.163942
0.167937
0.155986
0.122128
0.0803689
0.0443688
0.0265885
0.0229437
0.0210131
0.0195106
0.0168586
0.0146612
0.013223
0.0112913
0.0099466
0.008969
0.00864802
0.0087681
0.00956497
0.0120975
0.014557
0.0188454
0.0179617
0.0134483
0.0126172
0.00781519
0.00722492
0.00737172
0.00762147
0.00845313
0.0132294
0.0135338
0.0134109
0.0134327
0.0132475
0.013218
0.0130444
0.0128605
0.0126384
0.0122071
0.0119173
0.0113974
0.0111204
0.0104763
0.010503
0.0108692
0.0111706
0.0101148
0.0100098
0.00931801
0.0201836
0.0484073
0.0699744
0.0784683
0.0883092
0.0810347
0.0418063
0.0228688
0.00784988
0.00768109
0.00817683
0.00880227
0.00836037
0.00618065
0.00672639
0.00784809
0.0110025
0.010916
0.0109478
0.0127545
0.0132813
0.0146596
0.0152057
0.0156263
0.0158627
0.0158552
0.0160019
0.0157674
0.0158767
0.0157013
0.015799
0.0154007
0.0273382
0.025733
0.026426
0.0264197
0.0275324
0.0269806
0.0264191
0.0254205
0.024664
0.0231403
0.0215297
0.0199766
0.0179003
0.0186475
0.018005
0.011234
0.0106659
0.00766398
0.00774054
0.00744099
0.0102175
0.00929947
0.00781696
0.00917893
0.00674974
0.00693913
0.00724532
0.0103144
0.0108421
0.0172457
0.0172397
0.0152616
0.0162229
0.01725
0.0185637
0.0197371
0.0211615
0.0221931
0.0232994
0.0252108
0.0256762
0.024023
0.023727
0.0226387
0.0245776
0.0235604
0.0218193
0.023367
0.0249502
0.027381
0.0270046
0.0248176
0.0234834
0.0220501
0.0197368
0.0171087
0.0157439
0.0147504
0.0147667
0.0137436
0.0160538
0.0144794
0.0100815
0.0104598
0.00804444
0.00633323
0.00601947
0.00917885
0.0130873
0.0280252
0.0174805
0.00940375
0.0106478
0.0171105
0.0356192
0.0209767
0.0342107
0.0144804
0.0155924
0.0124972
0.0124571
0.013735
0.0160122
0.0170757
0.0207112
0.0233614
0.0253541
0.026263
0.0276052
0.0279984
0.0294246
0.0298707
0.0325955
0.0328632
0.032966
0.0325136
0.0302344
0.0271933
0.0250839
0.0309824
0.0358507
0.0390005
0.0413892
0.0437666
0.0424702
0.038744
0.0378686
0.0359396
0.0348216
0.0334
0.0303089
0.0264926
0.0217219
0.0211439
0.0271079
0.0328176
0.0490277
0.0529263
0.0526658
0.0549911
0.0554947
0.0572476
0.0576837
0.0603435
0.0609193
0.0620841
0.0624212
0.0676794
0.0685743
0.0696052
0.0699286
0.0696659
0.0706755
0.0707255
0.0480656
0.0431209
0.0392254
0.0325956
0.0273376
0.0346719
0.0431501
0.0482244
0.0735794
0.0740604
0.077815
0.0804281
0.0854347
0.0891437
0.0941052
0.0986357
0.103114
0.106579
0.108696
0.109057
0.109561
0.108617
0.107332
0.116139
0.150869
0.1675
0.198307
0.213429
0.226042
0.230023
0.221249
0.225044
0.216902
0.21944
0.213152
0.211114
0.205798
0.199342
0.195725
0.189269
0.185161
0.213374
0.161454
0.123942
0.0825658
0.0664174
0.0593776
0.0556143
0.058427
0.0452825
0.0386688
0.0578729
0.0533608
0.0428511
0.0290097
0.0187286
0.0317728
0.0473294
0.0642155
0.081468
0.0972611
0.107597
0.110184
0.109085
0.10438
0.096592
0.0814791
0.0614718
0.0423581
0.0349957
0.0323078
0.0283108
0.0223191
0.0179305
0.0157959
0.0141959
0.0124136
0.0111513
0.0105913
0.0107355
0.0110435
0.0132411
0.017321
0.0173138
0.0116029
0.0111696
0.00768266
0.00776779
0.0080213
0.0133525
0.0134924
0.0209262
0.0233617
0.0220005
0.0226808
0.0224069
0.0226879
0.0223129
0.0211156
0.0202714
0.0193016
0.0184606
0.0177247
0.0169107
0.0161269
0.0174342
0.0163947
0.0138331
0.0139423
0.0145484
0.0151857
0.0160686
0.0173211
0.0184007
0.0210996
0.0212917
0.0208022
0.0209027
0.0194429
0.0187373
0.0199961
0.0195309
0.0133034
0.0131338
0.0191726
0.0188241
0.0186993
0.0225085
0.0209118
0.0214338
0.0225547
0.0224218
0.0194767
0.0181157
0.0165717
0.0153959
0.0140279
0.0125226
0.0121554
0.0148888
0.0131415
0.0107828
0.0119621
0.0143702
0.0169815
0.0184373
0.0204187
0.0231307
0.024094
0.0263214
0.0277368
0.02983
0.03067
0.0354887
0.0361713
0.0340569
0.0322108
0.0312167
0.0274537
0.0235118
0.0259305
0.0267916
0.0271661
0.0272504
0.0271185
0.0235326
0.0230994
0.0215834
0.0210676
0.0195038
0.0189471
0.0177894
0.0170328
0.0160163
0.0141899
0.0134381
0.0126299
0.0122846
0.0173463
0.0108206
0.0105813
0.0159714
0.00984164
0.0115793
0.0113317
0.0118462
0.0124869
0.0103393
0.0151325
0.0103166
0.0112053
0.0114249
0.014306
0.00987348
0.0198861
0.0623715
0.0919988
0.110849
0.201735
0.242411
0.262966
0.283805
0.29818
0.314233
0.331901
0.349687
0.362888
0.364455
0.338931
0.320514
0.255616
0.228927
0.252823
0.283147
0.195394
0.167665
0.169995
0.17091
0.173555
0.174879
0.178615
0.176626
0.181815
0.177473
0.184886
0.178898
0.185524
0.177966
0.162416
0.145681
0.112826
0.10196
0.0657517
0.050909
0.0398335
0.0288932
0.0210411
0.0188764
0.0178561
0.0164858
0.0165684
0.0126991
0.0131136
0.00840041
0.00616311
0.0098661
0.00971519
0.00722131
0.00984718
0.0112465
0.0117658
0.0123047
0.0125948
0.0192658
0.0193098
0.0247442
0.0246209
0.0291917
0.0347918
0.0360279
0.0396807
0.05702
0.0575165
0.0572617
0.0570513
0.0566104
0.0493824
0.0491005
0.0479927
0.0474037
0.0444667
0.0439133
0.0418427
0.0407116
0.0377806
0.0369609
0.0358297
0.0362486
0.0399779
0.0543819
0.0961276
0.0289767
0.0274298
0.0202011
0.0144986
0.021193
0.0158623
0.0153699
0.0135742
0.018657
0.0134185
0.0136756
0.0164687
0.0169763
0.0163637
0.0212679
0.026523
0.0232679
0.0255905
0.11454
0.0725172
0.023856
0.047068
0.0706557
0.156268
0.203518
0.139093
0.159033
0.183321
0.166291
0.139504
0.108613
0.0810702
0.0571813
0.0437657
0.0113805
0.0133154
0.0184023
0.0402146
0.0597768
0.101249
0.0831626
0.108771
0.148757
0.173255
0.209328
0.200681
0.172501
0.148407
0.145281
0.160751
0.16203
0.104187
0.101089
0.0769904
0.173391
0.219062
0.184276
0.231419
0.243724
0.141188
0.0313692
0.0183123
0.0150835
0.0138847
0.0124133
0.0193813
0.011425
0.0116225
0.0123314
0.0132545
0.0169121
0.029403
0.0133998
0.0148982
0.0183294
0.0158967
0.0149658
0.0146204
0.0145438
0.0151836
0.016559
0.0215859
0.021633
0.0212526
0.0159504
0.0172335
0.015651
0.0199327
0.0211304
0.0332336
0.0152105
0.0161484
0.0214101
0.47558
0.0245389
0.0177771
0.0231369
0.0218045
0.0299952
0.0441144
0.456634
0.0437503
0.035007
0.0585456
0.060846
0.0654979
0.0691607
0.0726559
0.0751776
0.0791124
0.0817878
0.0830051
0.0842216
0.0999285
0.0999781
0.0989211
0.103525
0.0976885
0.0577096
0.0579378
0.0975417
0.105299
0.0594851
0.0410881
0.0385839
0.0312865
0.0324326
0.0419839
0.0440442
0.0617278
0.0615624
0.102695
0.0936377
0.0950392
0.0967607
0.091726
0.0921735
0.0942553
0.0941484
0.0753444
0.0730553
0.0713034
0.068239
0.064709
0.0618078
0.0588984
0.0557918
0.0531094
0.0530782
0.0576054
0.0582392
0.0657204
0.0721176
0.217501
0.147571
0.105628
0.0787356
0.0644786
0.0586628
0.0583797
0.0616153
0.0648552
0.0665255
0.0673277
0.070669
0.0924188
0.0949574
0.0978407
0.0952563
0.0991085
0.0971949
0.0947246
0.104647
0.112502
0.0657428
0.0678254
0.0479078
0.0447264
0.0326459
0.0332226
0.0237036
0.0196448
0.0196126
0.0195955
0.0198378
0.0227452
0.0318087
0.0319011
0.0466245
0.0465032
0.0519138
0.0755405
0.072578
0.129452
0.118619
0.108926
0.101558
0.101942
0.104044
0.106644
0.101621
0.097748
0.0921768
0.0724152
0.0684351
0.0662932
0.0650141
0.0636803
0.0669382
0.0896992
0.144611
0.221081
0.325372
0.425932
0.438048
0.397366
0.246222
0.287443
0.142402
0.163457
0.185064
0.159145
0.168376
0.31801
0.26457
0.373994
0.479944
0.53381
0.600205
0.63671
0.623402
0.493523
0.319927
0.327433
0.436206
0.766239
0.85967
0.744185
0.762569
0.659132
0.54124
0.52295
0.498409
0.562571
0.613891
0.579318
0.596756
0.540875
0.516367
0.446219
0.498036
0.363936
0.327807
0.308159
0.299305
0.35867
0.290219
0.326846
0.268581
0.274761
0.223219
0.228755
0.190972
0.146193
0.138575
0.12845
0.143787
0.16294
0.149231
0.153487
0.133999
0.114468
0.0911738
0.098466
0.0735284
0.0694918
0.0704479
0.0799908
0.124883
0.3654
0.172539
0.163131
0.167448
0.177941
0.318953
0.282694
0.725622
0.508747
0.712394
0.475656
0.564773
0.472614
0.364555
0.380102
0.420105
0.600978
0.824772
6.66157
0.284917
4.2685
3.16832
3.32637
3.47166
4.45018
7.81745
7.11376
9.40363
6.80956
9.0839
4.97398
4.97628
4.32574
4.47084
4.43809
4.26052
5.18007
6.6102
0.238103
0.0909224
0.0854203
0.085608
0.0873833
0.197708
0.0525598
0.202035
0.0539732
0.213522
0.0495333
0.24675
0.196953
0.0382417
0.0192584
0.0200907
0.0168074
0.0203753
0.0169227
0.0250462
0.0235416
0.0236974
0.0265744
0.0760995
0.291396
13.736
1.64046
0.682678
0.781382
1.17041
0.794279
1.19314
1.65889
1.11485
0.555311
0.362606
0.427624
0.516825
0.493824
0.631747
0.910991
0.892008
0.701117
0.705522
0.620287
0.877529
0.886833
1.05297
1.23069
1.12742
0.881719
0.693902
0.584928
1.01224
1.01966
0.953568
0.401036
0.112245
0.0463329
0.04836
0.0353705
0.0373883
0.0346647
0.0539413
0.157515
0.21719
0.130356
0.425507
0.411806
0.56356
0.402431
0.4126
0.325327
0.350007
0.533325
0.582938
0.642944
0.674482
0.724648
0.667229
1.28099
2.1897
2.47641
12.8097
17.3969
3.1909
3.09269
13.9461
0.314875
0.0838252
0.0233049
0.0174284
0.0162164
0.0161298
0.0150011
0.0155385
0.0160003
0.0169643
0.0188307
0.0231993
0.0458445
0.201547
0.203522
0.0643678
0.0324401
0.0229744
0.0196183
0.0170475
0.0163879
0.0155322
0.0154599
0.0150083
0.0156577
0.0174634
0.0237793
0.0774457
0.271238
11.3431
2.43931
2.25867
8.3898
5.79979
0.206848
0.0438115
0.020097
0.016928
0.0158847
0.0167552
0.0162667
0.0182126
0.0184037
0.023019
0.0250258
0.0317767
0.0571077
0.110256
0.315858
9.60513
8.67481
8.39901
7.83155
0.310481
0.115298
0.0544238
0.0382422
0.0346314
0.0338247
0.0226517
0.0236771
0.0189844
0.0216454
0.0182978
0.0226891
0.0483332
0.212021
5.35716
1.57337
1.70418
1.21136
0.613686
0.656077
0.669728
0.689125
1.77171
4.04668
4.98026
3.42196
3.35771
4.70082
3.16741
2.479
1.8267
1.74645
2.54421
1.96307
1.82595
1.35647
1.46589
1.06843
1.46836
0.811832
0.978066
1.07409
1.53249
1.39891
1.41202
0.909627
1.05172
1.47668
1.72804
1.65217
0.844926
1.22885
1.01519
0.655402
0.60757
0.633808
0.603378
0.577761
0.574963
0.57964
0.558733
0.576274
0.556609
0.588851
0.548627
0.533588
0.507547
0.527142
0.544415
0.576899
0.359964
0.422307
0.426899
0.441308
0.45369
0.37457
0.450808
0.441362
0.658759
0.994731
0.830534
1.14322
0.676583
1.00269
2.00698
5.21186
2.33113
0.81631
1.34739
1.58569
1.1398
0.628459
2.55436
3.5642
1.23168
1.78772
10.3995
8.44329
16.5321
10.9625
18.6054
6.02443
4.63247
17.7891
6.66444
6.89673
4.50645
4.51554
2.95454
1.58238
1.625
1.73685
1.22472
1.2965
1.20701
1.13319
1.47239
1.43654
1.88121
2.03093
2.57184
1.80923
1.77106
2.58967
1.06219
1.39558
1.83282
1.82423
1.3565
2.33412
3.14796
2.95324
2.12712
2.33017
3.49623
4.8072
4.55839
3.15429
3.94594
10.1133
13.4942
13.6717
4.21539
19.3349
18.3027
2.06376
0.5589
0.318954
0.0878694
0.0441719
0.036591
0.0386545
0.143051
0.0457876
0.056927
0.0453131
0.0721089
0.0693524
0.0866075
0.215811
0.125483
0.213588
0.154003
0.186942
0.119274
0.190801
0.223647
0.233217
0.185623
0.113834
0.210002
0.302595
0.10429
0.34961
0.384357
0.256219
0.327612
0.390261
0.193495
0.987833
0.183558
0.125244
0.144153
0.38725
1.24691
0.214879
0.456588
4.45913
14.7124
3.66222
0.929385
0.672472
0.0551765
0.0299537
0.0314255
0.0277005
0.0193564
0.0828643
0.097235
0.401311
0.206527
0.278201
0.662298
2.93502
2.40009
1.11723
5.47343
10.2835
15.1625
9.13455