/*--------------------------------*- C++ -*----------------------------------*\
| =========                 |                                                 |
| \\      /  F ield         | OpenFOAM: The Open Source CFD Toolbox           |
|  \\    /   O peration     | Version:  v2012                                 |
|   \\  /    A nd           | Website:  www.openfoam.com                      |
|    \\/     M anipulation  |                                                 |
\*---------------------------------------------------------------------------*/
FoamFile
{
    version     2.0;
    format      ascii;
    class       volScalarField;
    location    "915";
    object      k;
}
// * * * * * * * * * * * * * * * * * * * * * * * * * * * * * * * * * * * * * //

dimensions      [0 2 -2 0 0 0 0];


internalField   nonuniform List<scalar> 
18258
(
0.0334154
0.0157494
0.0123051
0.0101591
0.0109774
0.0139727
0.0167657
0.0211233
0.025535
0.0314684
0.0385351
0.0474687
0.0534744
0.0606342
0.0636248
0.0619346
0.052101
0.047359
0.0567364
0.0811451
0.0709125
0.0513369
0.0620644
0.0614785
0.0727236
0.0770276
0.0606874
0.0553057
0.0498316
0.0441379
0.0376622
0.0237925
0.0239927
0.0286495
0.0319603
0.0357161
0.0386225
0.0410169
0.0426269
0.0434343
0.0433386
0.0420362
0.0393361
0.0352154
0.0296633
0.0235331
0.0224445
0.0244937
0.0302968
0.0356201
0.040932
0.0464522
0.0548075
0.0448043
0.0290836
0.0392916
0.0477849
0.0546722
0.0590863
0.0615206
0.0622693
0.0613421
0.0590391
0.0557679
0.0517971
0.0474509
0.0434293
0.0394416
0.0341966
0.0309359
0.0268262
0.0234838
0.0210456
0.0193348
0.0182175
0.017213
0.0163463
0.0156122
0.0149956
0.0145715
0.0144805
0.0145077
0.0146092
0.0147069
0.0150534
0.0127042
0.0109316
0.0104646
0.0102097
0.00955827
0.00809971
0.0106519
0.0117565
0.0121721
0.0124415
0.0136198
0.0147732
0.0143454
0.0136211
0.01251
0.0125346
0.0170132
0.0177896
0.0228199
0.0216377
0.0168006
0.0148751
0.0166586
0.0194917
0.0225328
0.0192616
0.0192408
0.017942
0.0170319
0.0148874
0.014929
0.0144172
0.0141097
0.0150335
0.0177913
0.0171998
0.017309
0.0185329
0.0188566
0.0200847
0.0211001
0.0204408
0.0202564
0.0164032
0.0163027
0.0173431
0.0172163
0.0176969
0.0201901
0.0202475
0.0205939
0.0208113
0.023597
0.0236155
0.0235786
0.0236696
0.0244986
0.0235432
0.0231327
0.0231633
0.0231991
0.0210336
0.0208102
0.0204452
0.0204833
0.0183184
0.0175811
0.0183124
0.0192924
0.0212678
0.0250196
0.0314549
0.0403761
0.0504705
0.0607118
0.0684838
0.0728448
0.0772153
0.0766847
0.0773935
0.0795038
0.0798851
0.0787539
0.0769082
0.0747504
0.0718065
0.0671846
0.0667272
0.0590868
0.0481973
0.0334739
0.0389961
0.0418571
0.0446283
0.04493
0.0454043
0.0441666
0.0423628
0.0387409
0.0335618
0.0246425
0.0261557
0.0305741
0.0351873
0.038939
0.0430733
0.0466211
0.0483463
0.049953
0.059149
0.0570923
0.0552665
0.0571337
0.0586489
0.0617967
0.0601379
0.056237
0.050481
0.05216
0.0453665
0.0340937
0.0318847
0.0297823
0.0272371
0.037746
0.0496252
0.0614585
0.0679376
0.0741425
0.0790356
0.083083
0.0876168
0.0821291
0.0769226
0.0580618
0.0843918
0.0664231
0.0511804
0.0419799
0.0342787
0.0299482
0.0332946
0.0336768
0.0320303
0.0273709
0.0217842
0.0233594
0.0360114
0.0457904
0.0538427
0.0554953
0.0602128
0.0626029
0.0572696
0.0578569
0.0469089
0.0480524
0.0517896
0.0466287
0.0442535
0.0356755
0.0279539
0.0338204
0.050385
0.0690928
0.0851772
0.100214
0.0667715
0.05092
0.0418232
0.0350731
0.0336305
0.0381927
0.0441451
0.0533133
0.0413484
0.037345
0.0338786
0.0310432
0.0254116
0.0272081
0.0282911
0.0267734
0.0500203
0.0583995
0.0618942
0.0841264
0.0925405
0.108481
0.107514
0.0929101
0.0963269
0.0690271
0.0690133
0.0866261
0.0685321
0.0515111
0.0617284
0.0745795
0.088399
0.101592
0.11294
0.12206
0.123713
0.112186
0.0813183
0.0468187
0.0213032
0.0186468
0.0180902
0.0173821
0.0164954
0.0157036
0.0150888
0.0121444
0.00950749
0.00927852
0.00945756
0.00940259
0.00826482
0.00951328
0.0115744
0.0137679
0.0152774
0.0164878
0.0175092
0.0182444
0.0188338
0.0192334
0.0195315
0.0198003
0.0200365
0.020223
0.0203613
0.0204521
0.0204946
0.0204806
0.020404
0.0202632
0.0200565
0.019768
0.0192943
0.0177654
0.0159102
0.0150779
0.0151361
0.0148858
0.0145823
0.0119475
0.0123242
0.0143407
0.0149744
0.0177681
0.0198052
0.0215093
0.0229639
0.0244913
0.0252685
0.0260988
0.0263667
0.0264221
0.0263256
0.026181
0.0259643
0.0256739
0.0246229
0.0213013
0.024898
0.0272931
0.0289762
0.0303251
0.0312251
0.0313332
0.0286056
0.0360338
0.0385204
0.039428
0.039687
0.0388653
0.0368634
0.0344297
0.0323867
0.0308816
0.029766
0.0276285
0.0253818
0.0230713
0.0206535
0.0174272
0.018694
0.0205343
0.0207451
0.0204551
0.021504
0.0227645
0.0211106
0.0190238
0.0161338
0.0151336
0.0146369
0.0144414
0.0148395
0.014504
0.0144106
0.0149142
0.0179316
0.0190256
0.0207297
0.0239857
0.0228486
0.0209011
0.0280749
0.029695
0.0301459
0.0304921
0.0303984
0.0296432
0.0265541
0.0250975
0.0264844
0.0250272
0.0243941
0.0244819
0.0241138
0.022247
0.0245504
0.026553
0.0281431
0.0289896
0.0302315
0.0317845
0.0339433
0.0357333
0.03739
0.0383988
0.038393
0.0378812
0.0380816
0.0387644
0.0385054
0.0367952
0.0347135
0.0326168
0.0296603
0.0294283
0.0314018
0.0329661
0.0346294
0.0364067
0.0356964
0.0338117
0.0321846
0.030763
0.0290519
0.0289191
0.0305955
0.0320393
0.0337758
0.0358881
0.036049
0.0339161
0.0321017
0.0305992
0.0288973
0.0288578
0.0305565
0.0320662
0.0337856
0.0356654
0.0347921
0.0333269
0.0318078
0.0303428
0.0286803
0.0282383
0.0298408
0.0312212
0.0325329
0.033595
0.0319215
0.0313333
0.0302643
0.0288761
0.0271184
0.0258618
0.0263708
0.0277593
0.0278699
0.0283478
0.0294656
0.0293114
0.0290283
0.0289817
0.0286999
0.0264529
0.0268606
0.0269109
0.0276039
0.0309065
0.030428
0.0331089
0.0355309
0.0332186
0.0317217
0.0281411
0.0337171
0.0337625
0.0347281
0.0335538
0.0237667
0.0219083
0.0229068
0.0244438
0.0260894
0.0254029
0.022645
0.0225877
0.0231994
0.0226165
0.0210574
0.0180657
0.0135661
0.0135753
0.0135683
0.0143048
0.0171136
0.0187053
0.0188118
0.0186528
0.0183473
0.0178728
0.0171533
0.0160783
0.0156178
0.024584
0.0444989
0.0563677
0.0557792
0.0424182
0.035522
0.0262157
0.0181114
0.0107961
0.0106981
0.0113667
0.0136958
0.0114855
0.0106505
0.014681
0.011883
0.0198164
0.0229558
0.0302954
0.0413099
0.0398415
0.0302063
0.0204179
0.0184522
0.0193199
0.0198368
0.0202278
0.0206125
0.0210013
0.0214248
0.0219414
0.0216268
0.0189851
0.0167379
0.0168663
0.0174388
0.0199482
0.0213281
0.022119
0.0217807
0.022022
0.0237489
0.0224987
0.0212771
0.0210742
0.020371
0.0232198
0.0235638
0.0229274
0.022932
0.0232084
0.0230928
0.0232257
0.0240333
0.0198354
0.0219478
0.0224979
0.0227813
0.023578
0.0190693
0.019259
0.0193232
0.0181666
0.0149475
0.0180428
0.0167996
0.0121812
0.0134963
0.0134518
0.0140603
0.0143841
0.0171225
0.0162839
0.0155695
0.0163462
0.0223297
0.0231355
0.023314
0.0206687
0.019423
0.0219203
0.0225098
0.0220502
0.021161
0.0213274
0.0203806
0.0184693
0.0177485
0.0178857
0.0193034
0.0201043
0.0201733
0.0237982
0.0232928
0.0217225
0.0227226
0.0233195
0.0229082
0.0227957
0.022739
0.0223673
0.0219423
0.0223572
0.022549
0.0226037
0.0221599
0.0224136
0.0250677
0.021477
0.0212858
0.0201995
0.0195404
0.0179075
0.0176513
0.0177492
0.0177088
0.0176139
0.0167753
0.0186367
0.0179113
0.0200451
0.0216614
0.0228157
0.0239917
0.0241435
0.0237131
0.0236741
0.0232887
0.0232556
0.0227028
0.0218536
0.0212675
0.0204862
0.019275
0.019267
0.0192173
0.019073
0.020481
0.0203796
0.0219493
0.0230741
0.0227882
0.0218186
0.0217101
0.0205292
0.0205065
0.0215518
0.0224452
0.0226955
0.0235642
0.0261156
0.0237503
0.0253063
0.0260001
0.0266657
0.026052
0.0249506
0.0257036
0.0240392
0.0229256
0.0242478
0.0249719
0.0262349
0.027029
0.0250512
0.0240232
0.0228244
0.0219599
0.0209701
0.0184435
0.0190604
0.0198534
0.0210869
0.0229012
0.0256302
0.0283727
0.0313016
0.0313606
0.0290551
0.0273566
0.0321741
0.0316398
0.0366231
0.0372345
0.0330959
0.030277
0.027356
0.0269347
0.0260143
0.0254787
0.024194
0.025444
0.0258728
0.0249261
0.027406
0.0289864
0.0333251
0.0389145
0.0355837
0.0327323
0.0377727
0.0366711
0.0426627
0.036435
0.0347639
0.0286285
0.0332245
0.035567
0.0433461
0.0339297
0.0297382
0.0295024
0.0308148
0.0383157
0.0368668
0.0394834
0.044634
0.043971
0.0390691
0.035835
0.0416293
0.0316553
0.0370785
0.0390945
0.032449
0.032227
0.0391229
0.0397413
0.0398937
0.0337852
0.0330749
0.0250539
0.0336352
0.040129
0.0400385
0.0332404
0.0260007
0.0359394
0.031574
0.0313822
0.0313773
0.0269764
0.026908
0.026196
0.0264526
0.0271715
0.0247184
0.0255314
0.0257988
0.0259705
0.0261125
0.0263186
0.0266818
0.0273555
0.02815
0.0229526
0.0244304
0.023026
0.0216355
0.0202257
0.024016
0.0264924
0.0282971
0.0297487
0.0308871
0.0313879
0.0300541
0.0379649
0.0396244
0.0413288
0.0415058
0.0402668
0.0375826
0.0341144
0.0305824
0.0282178
0.0268763
0.0243125
0.0222189
0.0201917
0.0180775
0.0153356
0.0140632
0.0127437
0.0114282
0.0110705
0.0105106
0.00988348
0.00913369
0.0086476
0.0112008
0.0204914
0.0285206
0.0333304
0.0385068
0.0450521
0.051554
0.0568347
0.0607334
0.0634957
0.0652346
0.0656867
0.0631049
0.052966
0.0480813
0.0433238
0.038449
0.0333973
0.0323526
0.0415028
0.0497305
0.0566539
0.0628884
0.0669357
0.0653114
0.0498211
0.0470005
0.0628318
0.0902701
0.0811355
0.104064
0.120292
0.0800287
0.0651733
0.064236
0.0793899
0.0818167
0.0752874
0.0664625
0.0567585
0.0459719
0.0510151
0.055728
0.06012
0.0645348
0.0769423
0.079437
0.0782948
0.0758526
0.072689
0.0683849
0.0618459
0.0533073
0.0444586
0.0370752
0.0304348
0.0213253
0.0119849
0.0142709
0.0135331
0.0174711
0.0157629
0.00975231
0.0097176
0.00991711
0.00984861
0.00968774
0.00968323
0.0110938
0.0180398
0.0146546
0.0132007
0.011338
0.0142683
0.0161845
0.0181868
0.0187678
0.0188062
0.0192947
0.0342017
0.0439429
0.0496662
0.0544158
0.0574923
0.0560917
0.0526961
0.0468003
0.0403427
0.0376787
0.0338458
0.030352
0.028546
0.0293251
0.0258504
0.0163935
0.0146477
0.0156613
0.015434
0.014461
0.0163711
0.0175624
0.0183129
0.0189174
0.0193685
0.0197145
0.0199609
0.0201242
0.0202102
0.0202363
0.0202169
0.0201563
0.0200527
0.0199027
0.0196947
0.0193983
0.0188882
0.0171906
0.0153603
0.0146535
0.0147381
0.0145086
0.0141478
0.0122741
0.0124941
0.0143519
0.0149498
0.0145591
0.0151394
0.0156033
0.0168038
0.0189891
0.0211329
0.0229742
0.0216761
0.0210323
0.0209933
0.0205832
0.0173317
0.0205939
0.0235858
0.0241158
0.0244001
0.0252119
0.026805
0.0277605
0.0268203
0.0262998
0.0257542
0.0225301
0.0241042
0.0277926
0.0282218
0.0289292
0.029545
0.0301252
0.031405
0.0307532
0.0298122
0.0291867
0.0261949
0.0253197
0.0317841
0.0205273
0.0139164
0.00993279
0.0106448
0.010721
0.0102513
0.0109412
0.0114308
0.0116681
0.0111682
0.0122441
0.0131527
0.0125138
0.0151536
0.0143848
0.0132701
0.0127677
0.0137864
0.0147524
0.0152194
0.0160914
0.0260666
0.0267184
0.0224962
0.028825
0.0314121
0.0289817
0.0317644
0.0293696
0.0278987
0.0306429
0.0341823
0.03567
0.0332947
0.0317652
0.0313117
0.0207707
0.0200715
0.0193786
0.0175189
0.0177172
0.0172191
0.0167682
0.0163611
0.0189335
0.0202986
0.0214727
0.0211609
0.02082
0.020341
0.0208899
0.0256294
0.0352234
0.043885
0.0466065
0.0452914
0.0416179
0.0351525
0.0293635
0.028777
0.0268547
0.0254915
0.0251632
0.0193323
0.0150178
0.0172624
0.0173418
0.0183809
0.0190294
0.0195346
0.0199365
0.0202712
0.0205595
0.0208394
0.0211095
0.0213514
0.0215603
0.0217434
0.0218985
0.0220644
0.0222621
0.0225311
0.0227521
0.0211446
0.0185349
0.0172004
0.017054
0.017768
0.0186665
0.0197888
0.0190416
0.0153363
0.0154221
0.0218151
0.0222571
0.0208883
0.0194705
0.0196793
0.0188386
0.0226266
0.0224331
0.0232064
0.0229832
0.0226854
0.0223858
0.0220866
0.0217789
0.0214861
0.0212325
0.0210073
0.0208044
0.0206104
0.0204216
0.0201475
0.019729
0.0190481
0.0182211
0.0170264
0.0183247
0.0191349
0.0207938
0.0229014
0.0239992
0.0230671
0.021643
0.0209093
0.0210595
0.0213784
0.0217315
0.0221084
0.0225412
0.0229817
0.0233983
0.0233721
0.0220412
0.0226828
0.0173875
0.0182383
0.0185393
0.0184973
0.0201597
0.019317
0.0146193
0.0151089
0.0158199
0.0171102
0.0197029
0.0200576
0.0214021
0.021625
0.0172411
0.0169309
0.016506
0.0175137
0.0151417
0.0157868
0.0265297
0.0271125
0.0348378
0.038213
0.0397866
0.0330241
0.0454456
0.0522808
0.0504077
0.0407764
0.0234407
0.0345363
0.0420389
0.0486831
0.0456309
0.0354884
0.0447517
0.0472024
0.0629561
0.0586168
0.0522768
0.0629576
0.0445444
0.0268225
0.0157619
0.0163353
0.015152
0.0305574
0.0346439
0.0313513
0.0322036
0.0397955
0.0408084
0.0360979
0.0343981
0.0361503
0.0357009
0.0396411
0.0369607
0.0335793
0.0232158
0.0189478
0.0197883
0.0212009
0.0230405
0.0253884
0.0252763
0.0241246
0.022756
0.0217767
0.0207252
0.0182327
0.017581
0.0195345
0.0211605
0.0225372
0.0240481
0.0248734
0.025719
0.025887
0.0257807
0.0254572
0.0250257
0.0244661
0.0237769
0.0223667
0.0235679
0.0242435
0.024462
0.0247496
0.0250701
0.025353
0.0255005
0.0253892
0.0244305
0.0236161
0.0224494
0.0213355
0.0197337
0.0176231
0.0183055
0.0200603
0.0216565
0.022767
0.023815
0.0234223
0.023914
0.0245751
0.0245905
0.0243991
0.0241678
0.0240085
0.024095
0.024728
0.0264662
0.0263276
0.0293116
0.0304676
0.0278556
0.0265028
0.025793
0.0253527
0.0250961
0.0248808
0.0246743
0.0241215
0.0235814
0.0240902
0.0243513
0.0246559
0.0250201
0.0255323
0.0262265
0.0273227
0.0287461
0.0286482
0.0262795
0.0260257
0.0249456
0.0241559
0.0237816
0.0237377
0.0237893
0.0239007
0.0238501
0.0233335
0.0230097
0.0234194
0.0224102
0.0224772
0.0215093
0.0201537
0.0187174
0.017271
0.0166119
0.0351142
0.035115
0.0455561
0.0422468
0.0369487
0.0469247
0.0598352
0.051881
0.0625148
0.0662852
0.0538769
0.0500452
0.027772
0.0243105
0.0173424
0.0188625
0.0202032
0.0214047
0.0212181
0.0221354
0.0220146
0.0229784
0.022437
0.021658
0.0211119
0.0201002
0.0201577
0.018891
0.0173517
0.0172179
0.0188598
0.0199008
0.0210784
0.0210612
0.0225163
0.0230186
0.0234065
0.0235474
0.0235324
0.0236201
0.0237858
0.0242366
0.0249552
0.025443
0.0256382
0.0261445
0.0258822
0.0255777
0.0251432
0.0248465
0.0245345
0.0242555
0.0239568
0.0236721
0.0232331
0.0225732
0.0224533
0.022971
0.0233158
0.0235515
0.0236845
0.0236575
0.0234488
0.0231111
0.0227638
0.0223888
0.0224284
0.0236827
0.0239239
0.0240426
0.0238155
0.0236295
0.023605
0.0234767
0.0233787
0.0231586
0.0228012
0.0223364
0.0212752
0.0213646
0.0222367
0.0226719
0.0229904
0.0232582
0.0232868
0.0232181
0.0228516
0.022572
0.0222291
0.0216621
0.0209003
0.0184784
0.0189915
0.0196351
0.0205116
0.021391
0.0221389
0.0226175
0.0228206
0.0228252
0.022653
0.0222976
0.0215444
0.0215238
0.0220666
0.0222338
0.0221765
0.0218568
0.0212105
0.020259
0.0190276
0.0177908
0.0168215
0.0163697
0.0156072
0.0180698
0.0191322
0.0200905
0.0209552
0.0217613
0.0226116
0.02292
0.0229658
0.0228181
0.0225608
0.0221568
0.0213963
0.0213928
0.0220855
0.0224677
0.0226794
0.0227657
0.0225165
0.0218718
0.0203321
0.0189154
0.0177338
0.016638
0.0154984
0.0154188
0.0159276
0.0154381
0.015814
0.0169221
0.0184064
0.0197831
0.0207978
0.0214143
0.021713
0.0217483
0.0214189
0.0212354
0.0213604
0.0211553
0.0206516
0.0197758
0.0184852
0.0170185
0.015817
0.0154851
0.0161525
0.016801
0.0161927
0.0138241
0.0149445
0.0160444
0.017167
0.0188482
0.0209169
0.0218821
0.0223504
0.0224863
0.0223611
0.0220012
0.0213587
0.0212969
0.0219126
0.0222678
0.0223765
0.0222861
0.0218829
0.0210941
0.0185747
0.0158034
0.014558
0.0138428
0.01291
0.0163425
0.0170499
0.0162257
0.0156796
0.0165308
0.0175474
0.0186771
0.0195491
0.0201822
0.0206843
0.0209627
0.0209934
0.0207187
0.020602
0.0203825
0.0200468
0.0197348
0.0194195
0.0186627
0.0178418
0.0168538
0.0179206
0.018505
0.0177401
0.0143958
0.0149514
0.0157898
0.0162812
0.0189799
0.021471
0.0221063
0.0222623
0.0223463
0.0222047
0.0218123
0.0212054
0.021081
0.0217095
0.0221886
0.0224971
0.0228076
0.0230516
0.0232251
0.0213084
0.0179985
0.0172892
0.0155218
0.0146949
0.0183031
0.0189961
0.0184857
0.017923
0.0196208
0.0203207
0.0205556
0.020527
0.0204258
0.0203122
0.0203243
0.0204371
0.0201366
0.0200144
0.0201244
0.0203572
0.0203332
0.0201263
0.0195644
0.0187956
0.0176851
0.0195582
0.0212785
0.0209857
0.0169248
0.0174607
0.0183702
0.0178933
0.0205982
0.0224387
0.0229148
0.0228469
0.0225296
0.022058
0.0215252
0.0208959
0.0206239
0.02118
0.0217364
0.0217737
0.02187
0.0218315
0.0212913
0.0211387
0.0205846
0.0203303
0.0195936
0.0190433
0.0183131
0.0204588
0.0236161
0.0257937
0.0273808
0.0292639
0.0279322
0.0244631
0.022228
0.0153863
0.0153827
0.0155904
0.0149329
0.0145427
0.0143572
0.0187038
0.0213864
0.0240181
0.0257244
0.0233057
0.0232758
0.0232011
0.0230904
0.0229869
0.0228979
0.0227048
0.0235753
0.0414364
0.283199
0.211319
0.236214
0.224948
0.315228
0.0801147
0.0391992
0.0434637
0.0507183
0.0586015
0.0572766
0.0536107
0.0468141
0.0426709
0.0422632
0.0418372
0.0416293
0.0398874
0.0398156
0.0384006
0.0445735
0.0873522
0.119635
0.133593
0.142345
0.15213
0.147748
0.157225
0.149632
0.150371
0.152108
0.156852
0.149557
0.142161
0.13824
0.133985
0.116816
0.117215
0.0989388
0.102799
0.0857792
0.0901192
0.0940149
0.0933689
0.0921453
0.0918977
0.0921326
0.0928947
0.0963954
0.0918637
0.0988235
0.0924005
0.0749724
0.0724712
0.074903
0.069019
0.0604135
0.0681979
0.0836704
0.0995168
0.115613
0.0983649
0.121862
0.114746
0.114147
0.108558
0.102357
0.0986659
0.0980104
0.098648
0.0997601
0.102366
0.104224
0.105764
0.108546
0.117045
0.119174
0.117559
0.100287
0.0852966
0.0936613
0.0984175
0.102196
0.102559
0.0980285
0.0957242
0.0891659
0.0875664
0.0818563
0.0793732
0.0737842
0.0705959
0.0657851
0.0820992
0.0804648
0.0873976
0.0935869
0.0979428
0.101483
0.103119
0.104255
0.103058
0.100635
0.095881
0.0940293
0.0893857
0.107556
0.12585
0.128858
0.124437
0.111006
0.105487
0.336527
0.408283
0.409353
0.606727
0.647185
0.83569
0.333325
0.179638
0.191754
0.188426
0.180319
0.177112
0.176791
0.188397
0.197375
0.18885
0.198424
0.177826
0.171697
0.169339
0.198118
0.196478
0.177379
0.155487
0.124762
0.103243
0.103957
0.0871765
0.088501
0.0762854
0.0762467
0.0763019
0.0900685
0.160019
0.203222
0.229747
0.255977
0.315514
0.286209
0.433734
0.349258
0.435509
0.30162
0.325509
0.311462
0.30289
0.300914
0.316811
0.338137
0.297677
0.36968
0.296659
0.643861
0.778924
0.496444
0.457961
0.406303
0.392464
0.3828
0.377389
0.369073
0.485502
0.450857
0.547583
0.507789
0.627728
0.557629
0.570092
0.536078
0.575726
0.595553
0.609972
0.492162
0.542744
0.424211
0.460372
0.382747
0.417949
0.294782
0.292223
0.329702
0.367405
0.391859
0.445404
0.703257
0.598547
0.807699
0.580382
0.702404
0.488336
0.533976
0.510445
0.492749
0.494141
0.521906
0.626355
0.606176
0.69042
0.514654
0.526975
0.516651
0.534008
0.523427
0.558407
0.563079
0.564228
0.562162
0.523389
0.533934
0.532148
0.531954
0.531981
0.532321
0.50956
0.51273
0.505205
0.510986
0.526923
0.514562
0.514491
0.512352
0.504779
0.502727
0.502246
0.504
0.503773
0.5089
0.50877
0.509104
0.512148
0.526848
0.514416
1.8156
0.898997
0.42701
0.336873
0.219124
0.133753
0.0547423
0.0590563
0.0618547
0.0626485
0.0604659
0.0549551
0.0467348
0.0368123
0.0291037
0.028117
0.0251097
0.0276563
0.0349514
0.0424313
0.0387102
0.0464467
0.0541135
0.0624079
0.0704025
0.0773906
0.0833105
0.0862408
0.0831995
0.0704605
0.052773
0.0353286
0.0250322
0.0226227
0.0209752
0.0189803
0.0168714
0.0152081
0.0142083
0.0130436
0.0124163
0.012331
0.0125553
0.0127973
0.0132399
0.0147544
0.0160546
0.0172399
0.0182029
0.0184482
0.017931
0.0184747
0.0190711
0.0194673
0.0198127
0.0196372
0.0196338
0.0198854
0.0198474
0.0200629
0.019967
0.0199879
0.0198505
0.0196938
0.0194695
0.0190425
0.0187638
0.0182021
0.0178508
0.0170038
0.01704
0.0174642
0.0177968
0.0167935
0.0167443
0.0159695
0.0268901
0.0480353
0.0611667
0.0661777
0.0714509
0.0674328
0.0570861
0.0391123
0.0192442
0.0188958
0.0193607
0.0219292
0.0214287
0.0173326
0.0181064
0.0188438
0.0175872
0.0174594
0.0174877
0.0195308
0.020122
0.0214726
0.0219611
0.0223211
0.0225347
0.0224626
0.0225465
0.0222464
0.022238
0.0218451
0.0218228
0.0215106
0.0212879
0.0215788
0.022281
0.0223718
0.0230398
0.0227687
0.022508
0.02196
0.0215618
0.0207218
0.019809
0.0188012
0.0172468
0.0168046
0.0173483
0.0178626
0.017413
0.0189294
0.0199701
0.0196497
0.0245715
0.0228211
0.0203674
0.022911
0.0185162
0.0186692
0.0182584
0.0171754
0.0177199
0.0172261
0.0170999
0.0173992
0.0176611
0.0188392
0.0198012
0.0204262
0.0212759
0.0219206
0.0226196
0.0237676
0.0240258
0.0230073
0.0228057
0.0216206
0.0209472
0.0206312
0.0215463
0.0228299
0.0227684
0.0236956
0.0234891
0.0222963
0.0215001
0.0206495
0.0196846
0.0190389
0.0182773
0.0175507
0.0171553
0.0163647
0.0165
0.0154658
0.0169544
0.0172081
0.0190397
0.0173439
0.0170238
0.0225962
0.0284325
0.044305
0.0323054
0.0212096
0.0221473
0.0299625
0.0369477
0.0255417
0.0249738
0.0149474
0.0162553
0.0153865
0.0156225
0.0166968
0.0169741
0.0181275
0.0191715
0.0194
0.0201401
0.0204757
0.0212443
0.0214975
0.0222233
0.0224122
0.0236398
0.0236976
0.023728
0.0237001
0.0228661
0.0227887
0.0227748
0.0232407
0.0230413
0.0237771
0.0238148
0.0239303
0.0238797
0.0225831
0.022267
0.0215059
0.0209977
0.0200966
0.019557
0.0188479
0.0184696
0.0178522
0.018163
0.0188759
0.0190773
0.019978
0.0199966
0.0207422
0.0209446
0.0214065
0.0215359
0.0221954
0.0223308
0.0225931
0.0226472
0.0238221
0.0239303
0.0239518
0.0239152
0.0239266
0.0241416
0.0241292
0.0240642
0.0240338
0.0238934
0.0237158
0.0235384
0.0245956
0.0252876
0.0248955
0.0246726
0.0249399
0.0257838
0.0263358
0.0274062
0.0282522
0.0293014
0.0301806
0.0309837
0.0316481
0.0321118
0.0322328
0.0322629
0.0318264
0.0314556
0.0331592
0.0396228
0.0428343
0.0480616
0.0504294
0.0524385
0.053205
0.0520326
0.0527267
0.0514318
0.0516822
0.0504548
0.0500044
0.0491515
0.048128
0.0473872
0.0459055
0.0451614
0.0497541
0.0561164
0.0561309
0.0491571
0.0462576
0.0415463
0.0356991
0.0381339
0.0442138
0.0394895
0.0376583
0.034663
0.0294979
0.0222374
0.0179291
0.025825
0.0335
0.0406973
0.047479
0.05346
0.0573341
0.0594583
0.0609969
0.0626872
0.0606518
0.0532
0.0415587
0.031686
0.0277873
0.026227
0.0237936
0.0203678
0.0184892
0.0174205
0.0162715
0.0149297
0.014078
0.013837
0.0140879
0.0142056
0.0155544
0.0168195
0.0168122
0.0179956
0.0178039
0.0183174
0.018912
0.0193194
0.0199738
0.0199481
0.0189842
0.0193401
0.0196052
0.0202899
0.020194
0.0203716
0.0201654
0.0194527
0.0189438
0.0183462
0.017831
0.0173707
0.0167953
0.0160728
0.0160698
0.0162665
0.0158059
0.0162196
0.0166621
0.0170718
0.0176974
0.01861
0.0193643
0.0211909
0.0213152
0.0210565
0.0211385
0.0197001
0.0196303
0.0186523
0.0184122
0.0200091
0.0198446
0.0181734
0.0195661
0.019579
0.0213702
0.0213849
0.02071
0.0209131
0.0208174
0.0189967
0.0181094
0.0170363
0.016258
0.0156674
0.0152666
0.0147972
0.0154317
0.0142193
0.0136394
0.0140959
0.0140696
0.0141348
0.0145254
0.0149558
0.0157004
0.0164061
0.0174578
0.0180985
0.0189968
0.0193281
0.021232
0.0211311
0.0209844
0.0210156
0.0211514
0.0215956
0.0208145
0.0207759
0.0209207
0.0209367
0.0209782
0.020967
0.0191332
0.0189312
0.0180972
0.0177789
0.016842
0.0164831
0.0158263
0.0155107
0.0151185
0.014922
0.0233275
0.025535
0.0256884
0.0398904
0.0200423
0.0200171
0.0344927
0.0173811
0.0231398
0.0236864
0.0247616
0.025997
0.0226222
0.0308573
0.0212888
0.0234067
0.0241338
0.0253096
0.0128724
0.0196926
0.0373299
0.0425693
0.0438892
0.048822
0.0554792
0.058676
0.0617114
0.0637405
0.0660034
0.0684474
0.0708447
0.0725734
0.0727163
0.0690201
0.0659534
0.0564484
0.0526253
0.0563547
0.0607628
0.0472762
0.0424902
0.0430263
0.0434787
0.0439995
0.0441942
0.0448643
0.0446589
0.0456334
0.0448958
0.0459779
0.0448246
0.045823
0.0446089
0.0419034
0.0386924
0.0325351
0.030576
0.0294734
0.0267698
0.0242687
0.0220379
0.0202235
0.0197944
0.0182341
0.016837
0.0165376
0.0152459
0.0155135
0.0167531
0.0199121
0.0168261
0.0176554
0.0260417
0.0191381
0.0180289
0.0185726
0.0190908
0.0193318
0.0182232
0.019847
0.0221123
0.0221255
0.0221953
0.0222132
0.0214118
0.0212468
0.0209894
0.0210526
0.0210846
0.0212179
0.0211907
0.0193677
0.0193115
0.0190396
0.0189028
0.0181123
0.017945
0.0173586
0.0170271
0.0161809
0.0158861
0.0154368
0.015497
0.0167289
0.0206802
0.0302529
0.01744
0.0181458
0.0156931
0.0139862
0.0267153
0.0248215
0.0287146
0.0268444
0.0395166
0.0264906
0.0232329
0.0242454
0.029792
0.0297423
0.032717
0.0425268
0.0331357
0.0283439
0.0738266
0.0538998
0.0334443
0.0466162
0.058689
0.109568
0.127637
0.0560291
0.0565238
0.06219
0.0631266
0.0630385
0.0534733
0.0492739
0.0414643
0.0319582
0.0129173
0.0249884
0.0323442
0.0429596
0.0573921
0.0921364
0.0529287
0.0597533
0.0656854
0.0647461
0.0678265
0.0659956
0.0646391
0.0656078
0.102706
0.111689
0.107987
0.0867466
0.0814957
0.0745231
0.124382
0.139194
0.120013
0.130001
0.135928
0.0822341
0.0305169
0.0250083
0.0238835
0.0264718
0.025413
0.0460388
0.0206608
0.0218743
0.0227079
0.0272088
0.0302779
0.0528447
0.0233496
0.0255169
0.0324648
0.0349123
0.0458406
0.0275218
0.0281222
0.0344149
0.0361914
0.0395349
0.0337276
0.0318543
0.0287821
0.025975
0.0244826
0.0255368
0.0319485
0.0464077
0.0279624
0.0283918
0.0301524
0.134416
0.0308228
0.0267046
0.0277834
0.0267891
0.033757
0.0351128
0.111554
0.0356414
0.0167336
0.0154723
0.0159436
0.0167593
0.0173991
0.0180217
0.018466
0.0191099
0.0194984
0.0196555
0.0198313
0.0221994
0.022087
0.0216171
0.0210723
0.0218561
0.0211622
0.0212052
0.0218167
0.0212792
0.021432
0.0224752
0.0236421
0.0231424
0.0236968
0.0250534
0.0239036
0.0222177
0.0220104
0.0221266
0.0228361
0.0239739
0.0227895
0.0234483
0.022636
0.0235527
0.023689
0.0203983
0.0200212
0.0198145
0.0193162
0.0186393
0.0180144
0.0173395
0.0166914
0.0161961
0.0161394
0.0166738
0.0152153
0.0156409
0.0180661
0.0397711
0.0327488
0.0267808
0.0223776
0.0196466
0.0184565
0.0183233
0.0187644
0.0194195
0.019977
0.0201869
0.0207826
0.0246613
0.0245613
0.0257616
0.0246316
0.0259611
0.0248981
0.0235765
0.0227064
0.0239102
0.0232219
0.0237117
0.0253129
0.0261405
0.0237745
0.0240349
0.0214577
0.020058
0.018456
0.0187948
0.0202319
0.0208949
0.0233117
0.0233984
0.0268171
0.0268105
0.0266834
0.025463
0.0247928
0.0262334
0.0247527
0.0258999
0.024796
0.0261961
0.0273859
0.0277317
0.0270297
0.0262275
0.0253592
0.0210777
0.0202783
0.0199733
0.0194847
0.0192245
0.0201567
0.024455
0.0337455
0.0459478
0.0581262
0.0675317
0.0669098
0.0602337
0.0409462
0.0418804
0.0389135
0.0423329
0.0603987
0.0869379
0.0608827
0.114684
0.0888121
0.0526773
0.0629135
0.0749066
0.0840611
0.0899994
0.0910857
0.0776308
0.0571645
0.0501492
0.0526003
0.0848238
0.0835372
0.0824181
0.0779266
0.08241
0.0802784
0.0775956
0.0760182
0.0742249
0.0699554
0.0699372
0.0672159
0.0671747
0.0600739
0.0612522
0.0614671
0.0588933
0.0561548
0.0538747
0.0516899
0.0493719
0.0454961
0.0442262
0.041768
0.0400443
0.036705
0.0361705
0.0356883
0.0335224
0.0319793
0.0307332
0.0294799
0.0277916
0.0279607
0.026405
0.0262529
0.0214098
0.0210247
0.0199958
0.0196665
0.0194188
0.0196153
0.0208678
0.0235747
0.0437873
0.03319
0.0330315
0.0335844
0.0337364
0.0397149
0.0464654
0.070515
0.0652316
0.0716926
0.0613604
0.0637724
0.062973
0.0625974
0.0653223
0.0688966
0.0742413
0.0867102
0.333348
0.513787
0.253098
0.237098
0.246747
0.251659
0.259052
0.338976
0.360108
0.355804
0.360566
0.330529
0.318537
0.196631
0.226058
0.23814
0.237025
0.223898
0.202532
0.393581
0.522651
0.518784
0.523655
0.523768
0.518768
0.522594
0.502914
0.514274
0.501759
0.515023
0.502298
0.521653
0.518913
0.504364
0.501138
0.501158
0.500918
0.501381
0.501557
0.504897
0.506058
0.506109
0.505104
0.50412
0.514521
0.437729
0.122898
0.0854722
0.142286
0.197799
0.162015
0.234154
0.26911
0.193933
0.110286
0.0900507
0.101619
0.125228
0.126721
0.153798
0.201209
0.188326
0.153727
0.154683
0.155385
0.20063
0.192142
0.218405
0.260865
0.254027
0.189295
0.150748
0.150131
0.228316
0.242994
0.238159
0.123735
0.044514
0.0219389
0.0228677
0.0328713
0.0165972
0.0168677
0.0223137
0.058498
0.0975452
0.0504038
0.13684
0.138469
0.182207
0.147548
0.178468
0.115621
0.118844
0.0676378
0.079629
0.0895412
0.0952933
0.0996259
0.0937695
0.216834
0.320448
0.190976
0.561684
0.538224
0.196257
0.217244
0.575912
0.513009
0.503527
0.501786
0.501699
0.50186
0.501817
0.50097
0.500916
0.500729
0.500766
0.500717
0.501164
0.504767
0.520377
0.514594
0.505239
0.501385
0.500824
0.5008
0.500691
0.500731
0.500751
0.500809
0.501018
0.501051
0.501152
0.501671
0.503942
0.512025
0.435348
0.169784
0.182165
0.405902
0.361666
0.5115
0.504622
0.50137
0.500943
0.500856
0.50083
0.500795
0.50097
0.50089
0.501398
0.501232
0.501287
0.502776
0.508255
0.506389
0.442527
0.368857
0.416401
0.329541
0.506664
0.507774
0.503277
0.502901
0.503248
0.503415
0.501515
0.501528
0.500993
0.501061
0.500894
0.501341
0.504755
0.511009
0.345817
0.170697
0.177622
0.257825
0.0878182
0.090761
0.0926983
0.0948047
0.247215
0.44195
0.555934
0.471421
0.475332
0.542403
0.38568
0.36447
0.294175
0.317648
0.401961
0.347204
0.31272
0.250289
0.288605
0.247703
0.303427
0.217861
0.234096
0.221631
0.282951
0.286847
0.287186
0.226636
0.21646
0.271517
0.285713
0.316685
0.218683
0.258846
0.203198
0.192295
0.0870754
0.0892635
0.0811792
0.0712581
0.0710037
0.0791101
0.0775451
0.083701
0.0806925
0.0843773
0.0814882
0.0794868
0.0727256
0.0747601
0.0685692
0.0712245
0.130243
0.166445
0.150308
0.151732
0.179542
0.131018
0.157366
0.153492
0.19756
0.247963
0.227152
0.292801
0.2255
0.275682
0.405724
0.754094
0.44
0.244984
0.318175
0.339881
0.288601
0.189514
0.449411
0.538231
0.297902
0.360002
1.19543
1.04302
1.78091
0.992333
1.11917
0.671057
0.597609
1.0289
0.65395
0.666427
0.559859
0.57354
0.499621
0.324535
0.324085
0.305918
0.242046
0.280928
0.271621
0.26683
0.296469
0.261638
0.31677
0.352513
0.397183
0.322672
0.285604
0.367128
0.215672
0.291101
0.346592
0.315891
0.259964
0.33832
0.450426
0.422263
0.363458
0.399476
0.509942
0.563798
0.533652
0.452865
0.514528
1.00767
0.964592
0.931616
0.591064
1.93379
1.71926
0.354552
0.138793
0.0966771
0.0366033
0.0225214
0.0182969
0.0179111
0.0490689
0.0195657
0.0235724
0.0212428
0.0302065
0.0274215
0.0317063
0.0557378
0.0377467
0.0530825
0.0393288
0.0524334
0.0417456
0.0574274
0.0616688
0.0649719
0.0525059
0.0414187
0.0625921
0.0835629
0.039088
0.100608
0.106322
0.0686586
0.0835053
0.103174
0.0533313
0.165994
0.0576229
0.0573692
0.068357
0.12818
0.253499
0.086429
0.113003
0.587672
1.53105
0.511937
0.202679
0.165587
0.0415556
0.0360531
0.0294313
0.0356895
0.0314358
0.0634063