/*--------------------------------*- C++ -*----------------------------------*\
| =========                 |                                                 |
| \\      /  F ield         | OpenFOAM: The Open Source CFD Toolbox           |
|  \\    /   O peration     | Version:  v2012                                 |
|   \\  /    A nd           | Website:  www.openfoam.com                      |
|    \\/     M anipulation  |                                                 |
\*---------------------------------------------------------------------------*/
FoamFile
{
    version     2.0;
    format      ascii;
    class       volVectorField;
    location    "915";
    object      U;
}
// * * * * * * * * * * * * * * * * * * * * * * * * * * * * * * * * * * * * * //

dimensions      [0 1 -1 0 0 0 0];


internalField   nonuniform List<vector> 
18258
(
(-0.176305 0.11705 0.137473)
(-0.0516668 0.245997 0.157325)
(-0.104645 0.214381 0.0961465)
(-0.0385926 0.0701672 0.0840071)
(-0.226024 0.202839 0.017922)
(-0.158912 0.361511 0.0162265)
(-0.222563 0.044952 0.0534534)
(-0.340798 -0.0524539 0.0748207)
(-0.447889 -0.105269 0.107852)
(-0.534723 -0.159173 0.145475)
(-0.620578 -0.216753 0.179706)
(-0.687005 -0.271121 0.309294)
(-0.678143 -0.33386 0.35711)
(-0.621883 -0.445137 0.385783)
(-0.487926 -0.542762 0.369507)
(-0.205374 -0.587428 0.340673)
(0.0735086 -0.37474 0.289246)
(0.0777229 -0.163928 0.29817)
(-0.128367 -0.078628 0.237071)
(-0.402319 -0.273109 0.117411)
(-0.1404 -0.527078 0.294146)
(-0.201188 -0.366469 0.407463)
(-0.306981 -0.738465 0.302264)
(-0.368616 -0.780517 0.262785)
(-0.138255 -0.707348 0.130875)
(0.00244985 -0.644865 0.182448)
(-0.0187427 -0.340684 0.423134)
(0.172935 -0.113048 0.805804)
(0.298287 -0.0953308 0.893989)
(0.315945 0.0577201 0.915613)
(0.316749 0.183703 0.817552)
(0.168152 0.301608 0.11231)
(0.0753321 0.135376 -0.427852)
(0.00843041 0.0830153 -0.719492)
(-0.0693992 0.0790548 -0.895157)
(-0.0594748 0.0746693 -1.07774)
(-0.072395 0.0735556 -1.21661)
(-0.101017 0.0916542 -1.30993)
(-0.143139 0.0830278 -1.35712)
(-0.191289 0.0896972 -1.34309)
(-0.241147 0.0761485 -1.25918)
(-0.287954 0.0855315 -1.10568)
(-0.327099 0.0798402 -0.895056)
(-0.358234 0.0811295 -0.64105)
(-0.367919 0.0840929 -0.34888)
(-0.350381 0.0784636 -0.152011)
(-0.152289 0.188298 -0.192938)
(0.374307 -0.106126 -0.135212)
(0.641481 -0.132243 -0.155524)
(0.68209 -0.114178 -0.165901)
(0.792217 -0.136013 -0.175583)
(0.818582 -0.131916 -0.193358)
(0.509883 -0.00179257 -0.257388)
(0.260509 -0.137854 -0.217803)
(0.113569 -0.0412415 -0.158603)
(0.283334 -0.00920016 -0.169025)
(0.539021 -0.00226906 -0.173668)
(0.793631 -0.0300523 -0.177961)
(1.09425 -0.0348178 -0.175799)
(1.43008 -0.0489857 -0.185243)
(1.76468 -0.0647142 -0.183593)
(2.04878 -0.0812621 -0.16665)
(2.24935 -0.0929172 -0.138172)
(2.34945 -0.0989915 -0.102514)
(2.3561 -0.0962708 -0.0678758)
(2.29569 -0.0885578 -0.0411615)
(2.20203 -0.0820358 -0.0244778)
(2.1094 -0.0759002 -0.0176939)
(2.03979 -0.0670772 -0.0186765)
(1.99397 -0.0641807 -0.0233348)
(1.96949 -0.0590195 -0.0257733)
(1.95883 -0.0501018 -0.0202457)
(1.94448 -0.039586 -0.00323488)
(1.90094 -0.0247519 0.0243493)
(1.81327 -0.00769234 0.0539356)
(1.6922 0.00970901 0.0772572)
(1.57125 0.021922 0.0801091)
(1.4785 0.0309191 0.0754539)
(1.40036 0.0380167 0.0707459)
(1.3381 0.0508631 0.0633401)
(1.28724 0.0575185 0.0651572)
(1.19359 0.0445675 0.0787841)
(1.09655 0.0192182 0.110536)
(1.01372 0.000908981 0.128118)
(0.906636 -0.0207198 0.121054)
(0.762666 0.0168496 0.14625)
(0.641831 0.0817498 0.133471)
(0.518209 0.100647 0.134415)
(0.381248 0.11817 0.118817)
(0.22472 0.127352 0.0967983)
(0.120157 0.19006 0.0922179)
(0.122325 0.0102413 0.197767)
(0.1642 -0.100776 0.144105)
(0.113206 -0.129602 0.0400462)
(0.104674 -0.115184 -0.141869)
(0.216889 -0.210451 -0.370567)
(0.262993 -0.232905 -0.556071)
(0.204552 -0.139902 -0.730138)
(0.106159 -0.0818785 -0.715671)
(0.0363552 0.0562801 -0.493523)
(-0.0872447 0.229975 -0.165205)
(-0.215515 0.19562 0.178605)
(-0.234279 0.0653258 0.15279)
(-0.33996 0.0158213 0.168218)
(-0.271906 0.139645 0.176781)
(-0.245553 0.286965 -0.0519503)
(-0.106169 0.161788 -0.405278)
(0.0645812 0.00343068 -0.586278)
(0.334212 -0.0946475 -0.632725)
(0.496427 -0.23039 -0.489845)
(0.35181 -0.211011 -0.280211)
(0.271827 -0.192077 -0.100533)
(0.283046 -0.186647 0.0398818)
(0.280871 -0.14003 0.160496)
(0.225731 -0.0989628 0.191881)
(0.396958 -0.0812003 0.181086)
(0.53605 -0.0631376 0.17669)
(0.588491 -0.0518857 0.164725)
(0.700491 -0.0786127 0.160958)
(0.732698 -0.133629 0.132766)
(0.601112 -0.134183 0.135469)
(0.454631 -0.151695 0.139937)
(0.461588 -0.185841 0.0357114)
(0.610952 -0.162821 0.0516717)
(0.736359 -0.162062 0.0491896)
(0.904852 -0.141731 0.0812751)
(1.08837 -0.109907 0.110816)
(1.18958 -0.0777431 0.148418)
(1.20869 -0.0106053 0.140085)
(1.24585 -0.00898322 0.120542)
(1.3358 -0.00689387 0.140075)
(1.37784 -0.0016192 0.129969)
(1.3694 -0.0124508 0.158819)
(1.32887 -0.0481622 0.194071)
(1.32318 -0.0510954 0.190988)
(1.28599 -0.062003 0.152156)
(1.2793 -0.0602058 0.135314)
(1.25848 -0.0478172 0.108592)
(1.24996 -0.0457808 0.110609)
(1.20155 0.00441748 0.10932)
(1.19452 0.0278693 0.137884)
(1.0771 0.13706 0.271582)
(1.22627 0.0529508 0.254189)
(1.21805 0.0201325 0.15895)
(1.26695 -0.0207775 0.128458)
(1.27906 -0.0249772 0.119309)
(1.28937 -0.0381709 0.144449)
(1.30828 -0.0414587 0.183669)
(1.35095 -0.0366754 0.217626)
(1.3868 -0.0366506 0.222542)
(1.42367 -0.0127168 0.183618)
(1.43711 -0.00183929 0.138291)
(1.51333 -0.00645999 0.151428)
(1.6114 -0.0166552 0.159514)
(1.7508 -0.0315702 0.143856)
(1.88304 -0.0541621 0.0490929)
(1.96451 -0.0756261 -0.0712457)
(1.98389 -0.0904832 -0.16439)
(1.96643 -0.0964996 -0.200647)
(1.95012 -0.0968391 -0.194612)
(1.96036 -0.0912286 -0.174875)
(2.00753 -0.0827438 -0.144499)
(2.08919 -0.0703183 -0.107977)
(2.20051 -0.0600961 -0.0842426)
(2.31481 -0.0597523 -0.113127)
(2.39178 -0.0608524 -0.173446)
(2.39452 -0.0584852 -0.277233)
(2.28874 -0.0502689 -0.392409)
(2.07341 -0.0426202 -0.483805)
(1.77308 -0.0368206 -0.540295)
(1.42923 -0.031652 -0.549108)
(1.08309 -0.0193401 -0.527916)
(0.794346 -0.0242751 -0.459511)
(0.538385 -0.015474 -0.415549)
(0.283952 -0.0208508 -0.3869)
(0.109388 -0.0394067 -0.360781)
(0.102567 -0.0412787 -0.637293)
(0.0776589 -0.0366663 -0.873393)
(0.0508986 -0.0387634 -1.05788)
(0.0118903 -0.0401128 -1.17642)
(-0.0233124 -0.027812 -1.21593)
(-0.0600314 -0.0152904 -1.16786)
(-0.0938226 0.00396427 -1.03818)
(-0.119269 0.0284586 -0.818771)
(-0.120803 0.0868163 -0.557275)
(-0.147309 0.131916 -0.0233617)
(-0.19471 0.0233763 0.577511)
(-0.210645 -0.0349935 0.763068)
(-0.228798 -0.00367046 0.930464)
(-0.233918 -0.0470768 1.07156)
(-0.319392 -0.106916 1.13499)
(-0.372149 -0.114656 1.14701)
(-0.370765 -0.23563 1.00574)
(-0.300153 -0.254416 0.771198)
(-0.460711 -0.670715 0.687054)
(-0.485047 -0.548911 0.704989)
(-0.413397 -0.416177 0.832953)
(-0.54802 -0.769481 0.860776)
(-0.681577 -0.834238 0.608503)
(-0.47268 -0.757014 0.800222)
(-0.434139 -0.575952 0.74374)
(-0.781459 -0.526153 0.752175)
(-0.900768 -0.409368 0.862568)
(-0.529573 -0.708084 0.828115)
(-0.439308 -0.577618 0.669353)
(-0.320572 -0.321407 0.409309)
(-0.299906 -0.1847 0.403363)
(-0.283692 -0.148462 0.358268)
(-0.235696 0.106315 0.118484)
(-0.162096 0.299971 -0.416003)
(-0.151533 0.193825 -0.63814)
(-0.132071 0.0304431 -0.912772)
(-0.0869654 -0.0557648 -1.08572)
(-0.0285329 -0.0687383 -1.2337)
(0.0386881 -0.101288 -1.26881)
(0.098525 -0.0983037 -1.23395)
(0.173241 -0.108847 -1.12011)
(0.217337 -0.123305 -0.92024)
(0.261749 -0.14645 -0.70575)
(0.250609 -0.139276 -0.398433)
(0.421173 -0.0474459 -0.637594)
(0.778761 -0.117627 -0.45583)
(0.735386 -0.109776 -0.410298)
(0.638396 -0.0770326 -0.401929)
(0.581124 -0.106538 -0.406197)
(0.142693 -0.101199 -0.51339)
(0.186563 -0.117469 -0.895567)
(0.263822 -0.225273 -1.04767)
(0.346562 -0.28282 -0.937441)
(0.389209 -0.351658 -0.496379)
(0.198958 0.0501755 0.12512)
(0.266899 0.122298 0.183811)
(0.429216 -0.325827 0.335447)
(0.516616 -0.529373 0.505334)
(0.546474 -0.522625 0.551245)
(0.413101 -0.235387 0.67843)
(0.472261 -0.33771 0.563674)
(0.487766 -0.610124 0.543506)
(0.705342 -0.673073 0.316328)
(0.747552 -0.489437 0.451243)
(0.799811 -0.346104 0.597731)
(0.236422 -0.226336 0.576093)
(-0.233962 -0.269487 0.83151)
(-0.170633 -0.191408 0.683402)
(-0.671611 -0.299057 0.821681)
(-0.467643 -0.18426 0.69861)
(-0.318662 -0.00608809 0.547356)
(-0.218293 0.179384 -0.295842)
(-0.191955 -0.0386332 -0.617423)
(-0.0573656 -0.167853 -1.10002)
(0.104995 -0.156667 -1.25034)
(0.277228 -0.0856831 -1.118)
(0.440454 -0.107663 -0.697187)
(0.511145 -0.0736477 -0.620216)
(0.506794 -0.0443594 -0.60777)
(0.563396 -0.0891139 -0.630388)
(0.60162 -0.122069 -0.722281)
(0.405651 -0.0434937 -0.674622)
(0.363396 -0.0788467 -0.655656)
(0.137881 -0.113395 -0.665445)
(-0.111434 -0.0477692 -0.576898)
(0.298412 0.00862758 -0.586506)
(0.35868 0.0166683 -0.602735)
(0.644637 -0.0960124 -0.638811)
(0.574113 -0.0973964 -0.359147)
(0.270504 0.0756511 -0.348064)
(0.269316 0.0567838 -0.220348)
(-0.302467 -0.0363764 0.130875)
(-0.308524 0.145614 0.00211461)
(-0.283925 -0.0236285 -0.445296)
(0.0900504 -0.201716 -0.572447)
(0.365104 -0.280363 -0.566983)
(0.730667 -0.345938 -0.40436)
(0.814136 -0.41848 -0.377135)
(0.775539 -0.290343 -0.295169)
(0.816952 -0.365025 -0.219261)
(0.831464 -0.486999 -0.28336)
(0.74549 -0.43327 -0.277132)
(0.725138 -0.307013 -0.329964)
(0.75182 -0.252013 -0.340827)
(0.797595 -0.312063 -0.211643)
(0.810222 -0.367877 -0.159994)
(0.896358 -0.464211 -0.156212)
(1.16109 -0.630755 -0.117426)
(1.61908 -0.726409 -0.0986469)
(1.99595 -0.672063 -0.0380003)
(2.15226 -0.489947 0.0474345)
(2.07197 -0.290654 0.0956278)
(1.90627 -0.162459 0.103192)
(1.80849 -0.0940794 0.0996441)
(1.71153 0.00127822 0.0991394)
(1.57393 0.0898257 0.0912611)
(1.43648 0.108396 0.0482368)
(1.33187 0.0587633 0.0275094)
(1.24201 -0.00324647 0.0218563)
(1.14023 -0.0526888 0.0236215)
(1.05621 -0.0775475 0.0218091)
(0.998379 -0.0614064 0.017458)
(0.822403 -0.109134 -0.0233687)
(0.717088 0.00363256 0.0105452)
(0.633707 0.0700608 0.0095417)
(0.498 0.0250389 0.00719992)
(0.359712 -0.0593835 -0.0128327)
(0.139232 -0.146054 -0.0319503)
(0.225762 -0.307785 0.00112339)
(0.353405 -0.0818139 0.0120804)
(-0.00238923 -0.230022 -0.00920607)
(0.0431042 -0.54587 -0.0504339)
(0.0120935 -0.712468 -0.0525587)
(-0.00794489 -0.876488 -0.0531881)
(-0.0258968 -1.00659 -0.0648828)
(-0.035928 -1.1026 -0.0956978)
(-0.0464079 -1.15708 -0.104975)
(-0.0579163 -1.2145 -0.118119)
(-0.0881445 -1.27639 -0.134119)
(-0.113261 -1.32125 -0.149437)
(-0.137256 -1.35515 -0.162358)
(-0.159306 -1.37697 -0.173426)
(-0.178365 -1.38844 -0.183099)
(-0.193798 -1.39016 -0.189826)
(-0.205957 -1.3831 -0.193691)
(-0.215987 -1.3684 -0.193817)
(-0.224538 -1.34653 -0.191898)
(-0.23281 -1.31611 -0.186447)
(-0.240468 -1.27527 -0.178083)
(-0.245914 -1.22105 -0.165029)
(-0.243811 -1.15191 -0.147277)
(-0.190931 -1.07242 -0.126877)
(-0.141216 -0.969683 -0.112494)
(-0.16573 -0.869098 -0.0794215)
(-0.189735 -0.755051 -0.0818271)
(-0.204934 -0.543492 -0.0854275)
(-0.273587 -0.450573 -0.091931)
(0.022712 0.0529728 -0.116101)
(-0.35086 -0.308616 0.0252587)
(-0.231652 -0.617772 -0.0544628)
(-0.270364 -0.0993628 -0.010948)
(-0.458033 -0.182571 0.0646149)
(-0.678825 -0.19874 0.0822501)
(-0.842409 -0.209305 0.114048)
(-0.953971 -0.223148 0.144167)
(-1.03486 -0.232539 0.203749)
(-1.1183 -0.244333 0.245267)
(-1.18758 -0.244205 0.302021)
(-1.20128 -0.24841 0.336314)
(-1.17429 -0.250145 0.366254)
(-1.10728 -0.248832 0.394587)
(-0.996346 -0.24313 0.422814)
(-0.841507 -0.230099 0.454297)
(-0.667278 -0.205803 0.493848)
(-0.420198 -0.146737 0.543462)
(-0.135856 -0.119212 0.568118)
(-0.152918 0.0283962 0.823612)
(-0.155804 0.0829108 1.04301)
(-0.155469 0.115036 1.11218)
(-0.156768 0.163902 1.02036)
(-0.16114 0.153198 0.837332)
(-0.149646 0.131318 0.566911)
(-0.124435 0.1434 0.284945)
(-0.225948 0.438947 0.370305)
(-0.507787 0.466965 0.334879)
(-0.693077 0.480064 0.338851)
(-0.918118 0.464904 0.332403)
(-1.10043 0.424351 0.30847)
(-1.22765 0.353011 0.265799)
(-1.28341 0.273184 0.218727)
(-1.26624 0.206051 0.181538)
(-1.23319 0.14785 0.158299)
(-1.19022 0.115164 0.140409)
(-1.10074 0.0924611 0.090243)
(-0.958882 0.0451025 0.0698985)
(-0.767426 -0.0207656 0.0594796)
(-0.500888 -0.114021 0.0190162)
(-0.253188 -0.207824 -0.0189864)
(-0.274136 -0.197581 -0.0663016)
(-0.31843 -0.17701 0.00811139)
(-0.314646 -0.17421 0.0594343)
(-0.272787 -0.156679 0.150673)
(-0.3811 -0.233935 0.118321)
(-0.423047 -0.29719 0.118436)
(-0.327114 -0.28827 0.177179)
(-0.270064 -0.215391 0.0453052)
(-0.140951 -0.101022 -0.0258901)
(-0.141055 -0.0769991 -0.00721963)
(-0.138652 -0.0743575 -0.0354598)
(-0.169355 -0.0558241 -0.0679367)
(-0.167917 -0.501787 -0.148623)
(-0.126269 -0.48007 -0.138098)
(-0.110773 -0.447482 -0.0954977)
(-0.100602 -0.424402 -0.145696)
(-0.266857 -0.538561 -0.0315583)
(-0.276721 -0.576097 -0.0258203)
(-0.284233 -0.632524 -0.0839513)
(-0.337724 -0.583305 -0.0200394)
(-0.340566 -0.530432 0.0551122)
(-0.301929 -0.35946 0.0853487)
(-0.444919 -0.317292 0.11479)
(-0.361976 -0.432157 0.0403116)
(-0.347878 -0.523125 0.0139252)
(-0.378366 -0.508815 -0.0238135)
(-0.42898 -0.394801 0.0320285)
(-0.497769 -0.346877 0.0730659)
(-0.529427 -0.255093 0.163897)
(-0.591769 -0.215648 0.241504)
(-0.680709 -0.19775 0.256094)
(-0.576958 -0.20691 0.21169)
(-0.517183 -0.187955 0.181246)
(-0.545463 -0.185075 0.117858)
(-0.540011 -0.172153 0.0918774)
(-0.496454 -0.184322 0.000740396)
(-0.76213 -0.0867574 0.0645229)
(-0.972374 -0.00543119 0.08962)
(-1.0801 0.0520887 0.103489)
(-1.12933 0.0749913 0.13807)
(-1.16702 0.0358 0.237835)
(-1.25181 0.0689722 0.267075)
(-1.31792 0.119401 0.348927)
(-1.33157 0.170877 0.431551)
(-1.2743 0.221978 0.523955)
(-1.14942 0.261008 0.603544)
(-0.97676 0.281384 0.647984)
(-0.776359 0.283811 0.65692)
(-0.623321 0.289113 0.643918)
(-0.341803 0.272905 0.643448)
(-0.435158 0.245786 0.874281)
(-0.467132 0.228577 1.00278)
(-0.460064 0.180852 1.08113)
(-0.440798 0.124713 1.01313)
(-0.43946 0.0593894 0.797861)
(-0.711079 -0.00462555 0.744177)
(-0.721699 0.0720435 0.944328)
(-0.740397 0.117816 1.02332)
(-0.745301 0.164915 0.979337)
(-0.695305 0.199355 0.872285)
(-0.838631 0.186771 0.862195)
(-0.880226 0.146397 0.96494)
(-0.882918 0.0887444 1.00107)
(-0.873168 0.0423779 0.926252)
(-0.866823 -0.0386838 0.706953)
(-1.01029 -0.0600302 0.675825)
(-1.02494 0.0208291 0.901079)
(-1.03804 0.0698536 0.96624)
(-1.04646 0.122357 0.944062)
(-1.02175 0.174259 0.853921)
(-1.16547 0.163124 0.803944)
(-1.16586 0.110802 0.892699)
(-1.14894 0.0573596 0.914595)
(-1.13164 0.00668487 0.859466)
(-1.11141 -0.0728676 0.640119)
(-1.17162 -0.0835653 0.595515)
(-1.19733 -0.00606347 0.796903)
(-1.22384 0.0437553 0.840096)
(-1.25339 0.0919602 0.811493)
(-1.27117 0.141441 0.716832)
(-1.32069 0.110888 0.610197)
(-1.29211 0.0689064 0.709266)
(-1.25351 0.0250625 0.747274)
(-1.21794 -0.0216496 0.716435)
(-1.18763 -0.0934139 0.539785)
(-1.15438 -0.104694 0.472716)
(-1.18271 -0.0413646 0.621418)
(-1.22172 0.000207833 0.640762)
(-1.27621 0.0391546 0.60648)
(-1.3094 0.0742483 0.509189)
(-1.22625 0.0356574 0.414386)
(-1.18938 0.00283257 0.500171)
(-1.12952 -0.0322193 0.531239)
(-1.08713 -0.060116 0.520255)
(-1.04065 -0.111801 0.386788)
(-0.919637 -0.120195 0.315217)
(-0.923977 -0.109433 0.358164)
(-0.973543 -0.0804314 0.438335)
(-0.957513 -0.0870888 0.425145)
(-0.928681 -0.102715 0.394788)
(-1.00552 -0.0685143 0.381504)
(-0.99723 -0.0631315 0.307513)
(-1.00193 -0.0392309 0.282866)
(-1.04504 -0.0272161 0.209157)
(-1.04004 -0.00956022 0.202442)
(-0.807004 -0.105261 0.145356)
(-0.819926 -0.125301 0.157902)
(-0.788927 -0.128529 0.21635)
(-0.824895 -0.141602 0.249519)
(-0.610755 -0.281954 0.133177)
(-0.557613 -0.291722 0.114965)
(-0.504074 -0.327169 0.132637)
(-0.420616 -0.399942 0.116203)
(-0.39723 -0.384337 0.149674)
(-0.488527 -0.284454 0.165458)
(-0.606554 -0.239257 0.183831)
(-0.615989 -0.268063 0.0969498)
(-0.514035 -0.37823 0.0441205)
(-0.440018 -0.460548 0.0281987)
(-0.397658 -0.526751 0.0578942)
(-0.384221 -0.698411 0.122306)
(-0.387361 -0.663794 0.128022)
(-0.405763 -0.380634 0.107002)
(-0.408784 -0.536911 0.0815308)
(-0.399652 -0.602377 0.0438507)
(-0.21603 -0.788844 -0.158691)
(-0.193627 -0.794665 -0.259672)
(-0.115486 -0.704487 -0.369401)
(-0.0786294 -0.624541 -0.385409)
(-0.0452347 -0.589406 -0.347692)
(-0.0138058 -0.55652 -0.301411)
(0.0314322 -0.502495 -0.232126)
(0.124143 -0.455998 -0.108985)
(0.124718 -0.58082 -0.121973)
(0.116816 -0.637377 -0.120259)
(0.084828 -0.695433 -0.157727)
(0.0922045 -0.750138 -0.155829)
(0.10035 -0.806703 -0.174958)
(0.118085 -0.835025 -0.167031)
(0.126103 -0.841794 -0.152848)
(0.126326 -0.827996 -0.130322)
(0.117689 -0.791928 -0.0960206)
(0.104082 -0.735311 -0.0427746)
(0.0376223 -0.655538 0.0330719)
(0.00170441 -0.547214 0.152689)
(0.0152402 -0.301753 0.359469)
(-0.146293 0.0106935 0.448762)
(-0.365532 0.0944962 0.350553)
(-0.391659 -0.0401518 0.256502)
(-0.219193 -0.172519 0.252191)
(-0.179701 -0.188993 0.268508)
(-0.157121 -0.178571 0.214184)
(-0.0909263 -0.143877 0.205692)
(-0.000272285 -0.0351273 0.0717325)
(-0.0358723 0.110332 0.0808147)
(-0.080875 0.147955 0.0802772)
(-0.0494735 0.212312 0.170239)
(-0.00610558 0.180421 0.191757)
(0.0149186 0.0349663 0.142876)
(-0.0449532 -0.0300556 0.227386)
(0.0243153 0.0907954 0.323383)
(-0.00236687 -0.0651006 0.286081)
(0.0775054 0.142795 0.246829)
(0.0909192 -0.0265295 0.227062)
(-0.0199697 -0.257107 0.455951)
(0.0516337 -0.360919 0.544456)
(0.172932 -0.506062 0.513734)
(0.166128 -0.695468 0.35068)
(0.0750335 -0.818916 0.143178)
(0.0588469 -0.890459 -0.00819596)
(0.0652509 -0.924703 -0.11977)
(0.0632604 -0.951034 -0.197841)
(0.0601533 -0.965667 -0.248746)
(0.052024 -0.963838 -0.279351)
(0.0418708 -0.943909 -0.292649)
(0.0292764 -0.906301 -0.289463)
(0.0236091 -0.831558 -0.24979)
(0.0073163 -0.78575 -0.329025)
(0.0435235 -0.704903 -0.225482)
(0.0475512 -0.654637 -0.211542)
(0.0447472 -0.637113 -0.232243)
(0.00459554 -0.703109 -0.325403)
(-0.0225922 -0.742666 -0.383152)
(-0.0573779 -0.777939 -0.410868)
(-0.0733341 -0.844717 -0.401703)
(-0.132185 -0.905176 -0.345881)
(-0.0941573 -0.969671 -0.331564)
(-0.0891085 -0.980443 -0.372969)
(-0.0538576 -0.918986 -0.418099)
(-0.0436117 -0.869013 -0.43204)
(-0.0177686 -0.826897 -0.404439)
(-0.00964523 -0.870385 -0.341231)
(-0.0393918 -0.90259 -0.374143)
(-0.0561388 -0.949213 -0.396485)
(-0.0238089 -0.992364 -0.405753)
(-0.0487474 -1.06071 -0.420283)
(-0.0666576 -1.04333 -0.423958)
(-0.0936302 -0.921131 -0.344731)
(-0.186862 -0.762407 -0.224318)
(-0.198832 -0.614292 -0.0406955)
(-0.10026 -0.734031 -0.196636)
(-0.0798142 -0.840182 -0.259128)
(-0.0594759 -0.929498 -0.323022)
(-0.0608586 -0.946896 -0.333742)
(-0.0277073 -0.830005 -0.380383)
(-0.0238858 -0.725069 -0.336649)
(-0.0320486 -0.542641 -0.253213)
(-0.0160804 -0.35355 -0.16233)
(0.0331377 -0.0910796 -0.20754)
(-0.248786 -0.434149 0.0734569)
(-0.329877 -0.461818 0.0263857)
(0.222163 -0.118243 -0.244464)
(-0.172574 -0.247547 0.0438087)
(-0.218127 -0.266712 -0.116357)
(-0.258488 -0.268982 -0.103063)
(-0.208646 -0.281791 -0.0211489)
(0.0812694 0.140647 -0.219001)
(0.10283 0.0594514 -0.231503)
(0.101026 -0.000390883 -0.260276)
(0.0965499 -1.37251e-05 -0.265399)
(-0.0798097 -0.430104 -0.200995)
(-0.132828 -0.45028 -0.222231)
(-0.185985 -0.458637 -0.206313)
(-0.248991 -0.44538 -0.169064)
(-0.168934 -0.5478 -0.184113)
(-0.126778 -0.559717 -0.257012)
(-0.0961887 -0.56606 -0.291134)
(-0.0605097 -0.554318 -0.291341)
(-0.050654 -0.743363 -0.348692)
(-0.0815761 -0.757956 -0.331776)
(-0.106348 -0.77021 -0.281574)
(-0.147165 -0.760405 -0.194652)
(-0.134495 -0.822197 -0.182257)
(-0.128792 -0.883195 -0.200231)
(-0.0981666 -0.905912 -0.297284)
(-0.0726904 -0.873037 -0.373583)
(-0.049162 -0.85289 -0.399798)
(-0.0768005 -0.968551 -0.370611)
(-0.112192 -0.99016 -0.335657)
(-0.138141 -1.01038 -0.283496)
(-0.137201 -1.09311 -0.34681)
(-0.0801468 -1.06758 -0.399043)
(-0.072548 -1.1452 -0.440749)
(-0.0494137 -1.12376 -0.473391)
(-0.026963 -1.11483 -0.458689)
(-0.00333817 -1.04301 -0.415437)
(0.0120842 -1.0751 -0.406616)
(-0.0127242 -1.15339 -0.469638)
(-0.0398649 -1.18039 -0.494133)
(-0.0685689 -1.20848 -0.462898)
(-0.131556 -1.22895 -0.3791)
(-0.13489 -1.16665 -0.369142)
(-0.283634 -1.04676 -0.225359)
(-0.457313 -1.1461 -0.0769598)
(-0.463705 -1.1002 -0.0674762)
(-0.416009 -1.04593 -0.064755)
(-0.302849 -1.03646 -0.0738024)
(-0.255718 -0.967737 -0.0640003)
(-0.309172 -0.945194 -0.05759)
(-0.342287 -0.849308 -0.0421665)
(-0.378053 -0.713926 -0.0378328)
(-0.473744 -0.627158 -0.0366633)
(-0.409812 -0.401657 -0.0340165)
(-0.464747 -0.661104 -0.00579605)
(-0.316588 -0.457858 0.0246375)
(-0.6384 -0.398958 0.00544265)
(-0.815389 -0.379539 0.0601333)
(-0.917944 -0.384651 0.0846044)
(-0.968011 -0.397432 0.124335)
(-0.979965 -0.525564 0.0977598)
(-0.940261 -0.689731 0.0653637)
(-0.923941 -0.750526 0.0524875)
(-0.874408 -0.848871 0.0364251)
(-0.858776 -0.896059 0.0304427)
(-0.820903 -0.92839 0.0075946)
(-0.703601 -0.96812 -0.0230345)
(-0.592411 -1.00272 -0.0420089)
(-0.626667 -0.953317 -0.0172113)
(-0.484875 -0.972394 -0.0307005)
(-0.502769 -0.894081 -0.0301163)
(-0.530388 -0.797583 -0.0232602)
(-0.559222 -0.731333 -0.0194436)
(-0.686357 -0.712878 -0.00980426)
(-0.674922 -0.598502 -0.00777932)
(-0.824135 -0.577548 0.0303344)
(-0.918527 -0.559889 0.050391)
(-0.88138 -0.697414 0.0231308)
(-0.800385 -0.704994 0.0121861)
(-0.777492 -0.790238 0.00227186)
(-0.660844 -0.798755 -0.010778)
(-0.63568 -0.883174 -0.0170425)
(-0.748422 -0.86671 -0.00514556)
(-0.825476 -0.851039 0.00442657)
(-0.863131 -0.773419 0.0134971)
(-0.801636 -0.739318 -0.0117889)
(-0.624251 -0.612512 0.00187588)
(-0.847196 -0.659997 0.0116776)
(-0.868234 -0.51861 0.052058)
(-0.870661 -0.379944 0.0581488)
(-0.843632 -0.282357 0.121624)
(-0.832563 -0.302377 0.0765481)
(-0.8791 -0.350777 0.0525716)
(-0.875522 -0.20399 0.129058)
(-0.894572 -0.184294 0.174105)
(-0.761072 -0.161588 0.158476)
(-0.766953 -0.129127 0.259197)
(-0.778302 -0.120826 0.301994)
(-0.822104 -0.108712 0.355427)
(-0.829665 -0.119331 0.352772)
(-0.64294 -0.18183 0.25117)
(-0.607929 -0.173754 0.24857)
(-0.567938 -0.180585 0.215662)
(-0.551401 -0.175747 0.188999)
(-0.568991 -0.191301 0.120395)
(-0.338447 -0.19493 0.0769495)
(-0.320379 -0.189437 0.101895)
(-0.329624 -0.192129 0.114459)
(-0.360974 -0.199032 0.124609)
(-0.449691 -0.217044 0.141952)
(-0.405666 -0.25355 0.0598589)
(-0.382534 -0.285108 0.0685291)
(-0.411076 -0.34128 0.0471498)
(-0.316295 -0.427229 0.0360313)
(-0.312097 -0.39461 0.0492936)
(-0.283892 -0.416549 0.0157954)
(-0.193168 -0.419787 -0.0203076)
(-0.337485 -0.25429 0.0355466)
(-0.403335 -0.331149 0.0411884)
(-0.248525 -0.457734 -0.00653963)
(-0.291967 -0.460132 0.000408052)
(-0.452208 -0.321432 0.0720323)
(-0.525024 -0.299178 0.131327)
(-0.49836 -0.31885 0.136397)
(-0.47117 -0.336998 0.111436)
(-0.458907 -0.350846 0.0943013)
(-0.49324 -0.373358 0.00858035)
(-0.71087 -0.317956 0.063156)
(-0.717886 -0.530094 0.0389193)
(-0.549025 -0.554681 -0.00180781)
(-0.509896 -0.607414 -0.00405466)
(-0.465648 -0.649729 -0.017525)
(-0.4369 -0.652992 -0.0211907)
(-0.412843 -0.531185 -0.0230187)
(-0.410992 -0.541138 -0.0484936)
(-0.409852 -0.54161 -0.0344129)
(-0.335382 -0.55073 -0.0170747)
(-0.26737 -0.59625 -0.0072826)
(-0.319416 -0.581246 -0.00349976)
(-0.403349 -0.513296 0.00710785)
(-0.33191 -0.535691 -0.0041623)
(-0.43863 -0.630748 -0.011919)
(-0.292856 -0.473509 -0.0051018)
(-0.210244 -0.540031 -0.0182347)
(-0.280941 -0.52498 -0.0162167)
(-0.39436 -0.436361 -0.000721001)
(-0.413805 -0.362983 -0.0104289)
(-0.260495 -0.394457 -0.0109961)
(-0.156875 -0.423223 -0.0362202)
(-0.136234 -0.399814 -0.0224763)
(-0.238133 -0.205519 0.0225181)
(-0.38251 -0.343088 -0.0019587)
(-0.251586 -0.474901 -0.0196368)
(-0.218938 -0.468334 -0.0235377)
(-0.122019 -0.393169 -0.0298066)
(-0.219271 -0.194668 0.0394125)
(-0.34682 -0.338178 0.0122737)
(-0.366282 -0.363541 0.0542601)
(-0.195827 -0.511501 -0.0106906)
(-0.174109 -0.46843 0.0188553)
(-0.110038 -0.420581 0.00221919)
(-0.222444 -0.229268 0.0449183)
(-0.325951 -0.342143 0.0524835)
(-0.335253 -0.339232 0.0571518)
(-0.180689 -0.46361 0.0169193)
(-0.109424 -0.409334 0.000395115)
(-0.232148 -0.220668 0.0623952)
(-0.286222 -0.221651 0.0777503)
(-0.240671 -0.230475 0.0715318)
(-0.350551 -0.33729 0.0787043)
(-0.189826 -0.465703 0.048653)
(-0.11793 -0.415989 0.0377813)
(-0.140645 -0.450086 -0.00345568)
(-0.196619 -0.498015 0.0259695)
(-0.381935 -0.350944 0.0793094)
(-0.334542 -0.62597 -0.00339936)
(-0.355769 -0.632656 -0.0115272)
(-0.499495 -0.512278 0.0579394)
(-0.651523 -0.445025 0.0983261)
(-0.667048 -0.286971 0.136392)
(-0.79851 -0.271741 0.170557)
(-0.891218 -0.320934 0.166477)
(-1.02103 -0.489063 0.125995)
(-1.10792 -0.495334 0.167768)
(-1.13279 -0.502903 0.192962)
(-1.11276 -0.505194 0.215982)
(-1.04936 -0.501398 0.238882)
(-0.9436 -0.490357 0.260774)
(-0.794407 -0.466905 0.287374)
(-0.639346 -0.431685 0.327006)
(-0.396551 -0.380658 0.396113)
(-0.160632 -0.29382 0.485087)
(0.04777 -0.150925 0.488034)
(0.341584 -0.158283 0.428159)
(0.341398 -0.214464 0.377133)
(0.205679 -0.128234 0.486356)
(0.273778 -0.00386621 0.76574)
(0.284874 0.0452118 1.03213)
(0.269652 0.0800522 1.14287)
(0.251211 0.132674 1.09311)
(0.212994 0.122223 0.956652)
(0.142275 0.121005 0.705424)
(0.0399528 0.187885 0.405944)
(0.173927 0.513801 0.425519)
(0.421328 0.515169 0.374698)
(0.607764 0.539142 0.37583)
(0.852552 0.49771 0.351629)
(1.00985 0.416453 0.317938)
(1.07232 0.321905 0.274589)
(1.05304 0.253194 0.235374)
(0.99705 0.210143 0.201701)
(1.01194 0.158814 0.16988)
(1.03237 0.118221 0.146503)
(0.974524 0.0917614 0.0918438)
(0.872785 0.0419712 0.0686078)
(0.708582 -0.0234689 0.0545402)
(0.464132 -0.110456 0.0212777)
(0.237352 -0.216914 -0.023837)
(0.0979965 -0.617043 -0.111779)
(0.173535 -0.380837 -0.0790717)
(-0.180242 -0.169393 0.00494811)
(-0.100154 -0.385772 -0.0394675)
(-0.109633 -0.304012 -0.0651219)
(-0.111709 -0.327432 -0.0729834)
(-0.109009 -0.283045 -0.0610347)
(-0.0747826 -0.199478 -0.0545394)
(-0.159551 -0.145708 -0.0149384)
(-0.223781 0.267955 0.165419)
(-0.127713 0.4924 0.123373)
(-0.0399224 0.615265 0.0734715)
(0.0311444 0.657269 0.0757367)
(0.116137 0.673638 0.165012)
(0.212205 0.717595 0.285077)
(0.306952 0.75437 0.332303)
(0.392384 0.752004 0.366547)
(0.471508 0.69045 0.374714)
(0.537885 0.552308 0.371989)
(0.590063 0.33208 0.336971)
(0.569819 0.000501616 0.262751)
(0.393595 -0.336501 0.256888)
(0.293251 -0.337176 0.319127)
(0.227982 -0.29173 0.328836)
(0.161108 -0.20117 0.334097)
(0.14776 -0.00421774 0.312658)
(0.289837 0.00905435 0.340241)
(0.452829 -0.158719 0.330654)
(0.605362 -0.25619 0.342152)
(0.644587 -0.345164 0.351328)
(0.625557 -0.436916 0.353423)
(0.478672 -0.541343 0.334881)
(0.110633 -0.566075 0.316659)
(-0.169085 -0.2986 0.302099)
(-0.0368867 -0.129366 0.355338)
(0.229899 -0.152671 0.237826)
(0.281855 -0.404108 0.0722615)
(0.00824106 -0.520247 0.23822)
(-0.141378 -0.749508 -0.142278)
(0.20087 -0.720996 -0.481275)
(0.308808 -0.395669 -0.17775)
(0.332749 -0.377254 0.0921685)
(0.347808 -0.547323 0.182903)
(0.330965 -0.890286 0.12009)
(0.534124 -0.873167 0.0652472)
(0.612941 -0.692928 0.0980894)
(0.577984 -0.539426 0.137346)
(0.507999 -0.397399 0.187592)
(0.338716 -0.232436 0.245893)
(0.362283 -0.348901 0.193924)
(0.425459 -0.379807 0.141269)
(0.506307 -0.36596 0.078939)
(0.615752 -0.296448 -0.056582)
(0.860762 0.191284 -0.117385)
(0.906272 0.474657 -0.0217225)
(0.851935 0.675005 0.0505786)
(0.752195 0.774784 0.0930757)
(0.622503 0.798856 0.138868)
(0.474478 0.767059 0.154732)
(0.310263 0.704578 0.164957)
(0.138988 0.640741 0.101146)
(-0.0338069 0.603909 0.0491281)
(-0.153708 0.564338 0.0591021)
(-0.272877 0.45786 0.119131)
(-0.402097 0.264336 0.166962)
(-0.288433 -0.102468 0.0206936)
(-0.408124 0.0465749 0.0788484)
(-0.492071 0.0907637 0.104268)
(-0.525896 0.211486 0.137776)
(-0.537696 0.15828 0.106529)
(-0.499805 0.0220537 0.0272234)
(-0.453936 -0.0548544 0.0144074)
(-0.382133 -0.118884 -0.00768255)
(-0.286522 -0.190433 -0.0209543)
(-0.191455 -0.226767 -0.0357201)
(-0.13839 -0.19632 -0.0272136)
(-0.199362 -0.15653 -0.0187566)
(-0.18199 -0.318534 -0.0312092)
(-0.121653 -0.314689 -0.0434756)
(-0.100445 -0.336147 -0.0708926)
(-0.0792068 -0.372605 -0.103884)
(-0.0484253 -0.56248 -0.222171)
(-0.0892826 -0.502384 -0.149815)
(-0.107416 -0.610014 -0.113497)
(-0.15192 -0.618422 -0.0846067)
(-0.19546 -0.526931 -0.0770742)
(-0.3008 -0.335637 -0.0423906)
(-0.246127 0.213937 0.129843)
(-0.0940004 0.390057 0.287919)
(-0.000599602 0.482051 0.431901)
(0.0712519 0.479723 0.554981)
(0.141844 0.419831 0.621849)
(0.194913 0.309518 0.653233)
(0.247229 0.157966 0.626418)
(0.234113 -0.0200078 0.529968)
(0.105281 -0.139733 0.438398)
(-0.0117019 -0.104566 0.447561)
(-0.0326389 0.0111866 0.426033)
(-0.0346129 0.136157 0.427969)
(0.0375935 0.243522 0.37069)
(0.200031 0.136558 0.386695)
(0.158985 0.270732 0.45221)
(-0.0558219 0.183636 -0.0443154)
(-0.170151 -0.0712608 -0.643814)
(-0.179942 -0.307427 -0.546862)
(-0.168036 -0.346987 -0.313587)
(-0.143939 -0.306529 -0.0966769)
(-0.0625116 -0.590311 -0.106979)
(-0.0286992 -0.868147 -0.0930458)
(0.0011505 -1.02417 -0.0899984)
(0.0312189 -1.14637 -0.0987811)
(0.0640788 -1.22879 -0.112788)
(0.0943475 -1.28044 -0.126682)
(0.120972 -1.30598 -0.138652)
(0.145097 -1.31367 -0.150751)
(0.16621 -1.31087 -0.163515)
(0.184728 -1.30109 -0.174621)
(0.200583 -1.28594 -0.183412)
(0.214697 -1.26602 -0.18886)
(0.227169 -1.24107 -0.191817)
(0.238533 -1.20971 -0.190854)
(0.248204 -1.17051 -0.185782)
(0.254046 -1.12103 -0.175014)
(0.25127 -1.05853 -0.158354)
(0.194458 -0.995441 -0.1386)
(0.139585 -0.910575 -0.122496)
(0.164191 -0.826675 -0.086828)
(0.187446 -0.726313 -0.0880392)
(0.203572 -0.557898 -0.0879298)
(0.24634 -0.441116 -0.0842691)
(0.0719808 -0.0297129 -0.0952627)
(0.365298 -0.297329 0.0435466)
(0.24528 -0.549562 -0.0569515)
(0.285457 -0.0943005 -0.0268097)
(0.180236 -0.0365738 -0.147092)
(0.200975 -0.111983 -0.124389)
(0.193702 -0.118938 -0.0805184)