/*--------------------------------*- C++ -*----------------------------------*\
| =========                 |                                                 |
| \\      /  F ield         | OpenFOAM: The Open Source CFD Toolbox           |
|  \\    /   O peration     | Version:  v2012                                 |
|   \\  /    A nd           | Website:  www.openfoam.com                      |
|    \\/     M anipulation  |                                                 |
\*---------------------------------------------------------------------------*/
FoamFile
{
    version     2.0;
    format      ascii;
    class       volScalarField;
    location    "290";
    object      nut;
}
// * * * * * * * * * * * * * * * * * * * * * * * * * * * * * * * * * * * * * //

dimensions      [0 2 -1 0 0 0 0];


internalField   nonuniform List<scalar> 
18258
(
0.00418361
0.001824
0.00149533
0.00129564
0.000857708
0.00140322
0.00194877
0.00231953
0.00243339
0.00241246
0.00249775
0.00421505
0.00591534
0.00731018
0.00767905
0.00766717
0.00696019
0.00664734
0.00722638
0.00887807
0.00745654
0.00477927
0.00571925
0.0066183
0.00721512
0.00639471
0.00517234
0.00478774
0.00433511
0.00361459
0.00303447
0.00208368
0.00151542
0.001404
0.0012738
0.00145258
0.00158249
0.00168818
0.00172555
0.00175267
0.00174078
0.00173091
0.00168413
0.00165425
0.00160337
0.00132303
0.0015843
0.00166164
0.0018169
0.0025008
0.00268189
0.00225354
0.00249199
0.00222292
0.00146533
0.00167769
0.00182126
0.00186043
0.0018365
0.00176025
0.00173453
0.00171275
0.00168516
0.00165239
0.00163241
0.00164873
0.00166576
0.00164759
0.00156653
0.00150089
0.00139466
0.00128817
0.00120922
0.00114806
0.00110196
0.00105082
0.000993371
0.000872552
0.000808653
0.00107068
0.00134409
0.00143606
0.00203538
0.00248158
0.00249852
0.00187052
0.00133311
0.00138361
0.00153832
0.00155397
0.00131709
0.00156588
0.00177377
0.00183838
0.00191564
0.00214107
0.00243687
0.00237521
0.00211538
0.00194932
0.00191153
0.00219227
0.00208397
0.00270228
0.00272194
0.00237207
0.00218797
0.00246191
0.00317481
0.00341599
0.00265617
0.00249484
0.00244576
0.00241463
0.00218396
0.00226024
0.00205253
0.00184937
0.00201462
0.00243458
0.00230949
0.00252276
0.002614
0.00245209
0.00284094
0.0032754
0.00322774
0.00258287
0.00210599
0.0019631
0.00197793
0.00120971
0.00130631
0.00140757
0.00144204
0.00146614
0.00148666
0.0015851
0.00158153
0.00155833
0.00155489
0.00158231
0.000872017
0.000944738
0.000968201
0.000974973
0.000926132
0.000916603
0.000899528
0.000885633
0.000835133
0.000799102
0.000956174
0.00107369
0.00116951
0.00128158
0.00144878
0.00165335
0.00186831
0.00208547
0.0022291
0.00227005
0.00231143
0.00222772
0.00214346
0.00221997
0.00223298
0.00221875
0.00218905
0.00215155
0.00210086
0.00200777
0.00211552
0.00210948
0.00198168
0.00169871
0.00173664
0.00173374
0.00177895
0.00176997
0.00178792
0.00176257
0.00173256
0.00164888
0.00153163
0.00127432
0.00125125
0.00126571
0.00162377
0.00197019
0.00304203
0.0037079
0.00430089
0.00459871
0.00491672
0.00398271
0.00443519
0.00342166
0.00307075
0.00390139
0.00510163
0.00291145
0.00159205
0.00301983
0.00268164
0.0019485
0.00173472
0.00178821
0.00178557
0.00204167
0.002355
0.00261689
0.00274349
0.00285441
0.00294308
0.00304067
0.00316427
0.00319859
0.00308995
0.00261548
0.00315209
0.00256291
0.00299704
0.00271335
0.00183843
0.00188884
0.00202017
0.0018555
0.0018072
0.00172681
0.00156137
0.0019431
0.00250912
0.00291067
0.00332799
0.0044382
0.00410598
0.00393826
0.00304883
0.00294859
0.00153009
0.00218231
0.00226368
0.00255131
0.00169516
0.00154843
0.00147093
0.00193881
0.00224624
0.00264991
0.00293936
0.00349022
0.00270956
0.00309877
0.00280738
0.00196013
0.00188217
0.00269229
0.00289791
0.00238098
0.00212601
0.00266937
0.00252813
0.00179457
0.00142483
0.00219139
0.00226604
0.0016318
0.0040723
0.0043473
0.00413082
0.00502726
0.00629813
0.00718396
0.00670453
0.00594663
0.00662176
0.00525199
0.00510084
0.00545244
0.00457961
0.00320184
0.00328102
0.00339192
0.00348352
0.00373999
0.0039729
0.00425713
0.00452805
0.00411658
0.00341965
0.00258866
0.00178091
0.00175683
0.00174802
0.00156965
0.0023262
0.00351934
0.00349577
0.00198673
0.0011582
0.00130999
0.00147926
0.00146482
0.00106303
0.000800055
0.00137813
0.00157561
0.00160098
0.00156117
0.00147394
0.0015402
0.00247346
0.00381058
0.00418701
0.0043366
0.00447814
0.00457811
0.00463371
0.00465129
0.00466104
0.00467305
0.00468366
0.00469988
0.0046855
0.00458595
0.00403399
0.00253663
0.00148286
0.00137743
0.00152022
0.00163381
0.00173298
0.00147471
0.000901724
0.00144008
0.00184405
0.00211939
0.00213745
0.00199472
0.00193492
0.00305104
0.00405669
0.00478171
0.00492856
0.00499399
0.00493926
0.00493233
0.00482498
0.00479198
0.00420271
0.00300585
0.00328605
0.00352838
0.00356884
0.00365135
0.00377535
0.00368818
0.00348518
0.00509008
0.00587516
0.00595089
0.00607755
0.0060057
0.00590231
0.00563466
0.00532867
0.00448607
0.00336421
0.00212277
0.0021671
0.002307
0.00228483
0.0019889
0.00209528
0.00227415
0.00229693
0.00237204
0.00266024
0.00302136
0.00288192
0.00247997
0.00210646
0.00196129
0.00191991
0.00184181
0.00137936
0.00140022
0.00136131
0.00138389
0.00185892
0.00221252
0.00255166
0.00361937
0.00322844
0.00262543
0.00416429
0.00426775
0.00458623
0.00506663
0.00519202
0.00575338
0.00400178
0.00360589
0.00370439
0.00302629
0.00280114
0.00283102
0.0028417
0.00264839
0.00289891
0.00287342
0.00276952
0.00305765
0.00336932
0.00444283
0.00538339
0.00567992
0.00585127
0.00592163
0.00590002
0.00578602
0.00582301
0.00511553
0.00511252
0.00489577
0.00475493
0.00470489
0.00447191
0.00511644
0.00531175
0.00537698
0.00551124
0.00572035
0.00556443
0.00539158
0.00525991
0.00516441
0.00506451
0.00511784
0.00521318
0.00531484
0.00545744
0.00564773
0.00567878
0.00548164
0.0053325
0.00523036
0.00513434
0.00513805
0.00522369
0.00532342
0.00546478
0.00564517
0.00554504
0.00540474
0.00527971
0.00517709
0.00508666
0.00490867
0.00502742
0.00515796
0.00526556
0.00533537
0.00460992
0.00492734
0.00484233
0.00438385
0.00410277
0.00311572
0.00337199
0.00355602
0.00387321
0.0042995
0.0043834
0.00367863
0.00315249
0.00307197
0.00304718
0.00311904
0.00314486
0.00316011
0.00357074
0.00538267
0.00541968
0.00543568
0.00543858
0.00464976
0.00451723
0.00420715
0.00769761
0.00716742
0.00620995
0.00511763
0.00274091
0.00234942
0.00278282
0.00338422
0.00378396
0.0041756
0.0027722
0.00171744
0.00200187
0.00207568
0.00202486
0.00187146
0.00155885
0.00143896
0.00130597
0.00140544
0.00248906
0.0039713
0.00447271
0.00451976
0.00447459
0.00438724
0.00428113
0.00413348
0.00407792
0.0051425
0.00696071
0.00785815
0.00782647
0.00672472
0.00548362
0.0030938
0.00159569
0.00117801
0.00126154
0.00138687
0.00162778
0.00144849
0.00122762
0.00134377
0.00127121
0.0025725
0.00443676
0.00564719
0.00670124
0.00659354
0.00573027
0.00468229
0.00443645
0.00454061
0.00461061
0.00467057
0.00473213
0.00477455
0.00474852
0.0043228
0.00267136
0.00159464
0.00141674
0.00152339
0.00178547
0.00189735
0.00191675
0.00189003
0.00163828
0.00270912
0.0043015
0.0027357
0.00149287
0.00161315
0.00160144
0.00282489
0.00282035
0.00275918
0.00429229
0.00453826
0.00452729
0.00425431
0.00406133
0.00240488
0.00272969
0.00273893
0.00275334
0.00279846
0.00141387
0.00154132
0.00158955
0.00171167
0.00149736
0.00189937
0.000491499
0.00068173
0.00079177
0.000860837
0.000927396
0.000909669
0.00174054
0.00176633
0.00168597
0.00164234
0.0020836
0.00223546
0.00228456
0.00210395
0.00194126
0.00206667
0.00207137
0.00195235
0.00184917
0.00191708
0.00191828
0.00183809
0.00156337
0.00146493
0.00160836
0.0015912
0.00157866
0.00283458
0.0028293
0.00267753
0.00439839
0.00432827
0.00484712
0.00481547
0.00480953
0.00479002
0.00484097
0.0048679
0.00488844
0.00491238
0.00490264
0.00485572
0.00676323
0.00477509
0.00416717
0.00241034
0.002322
0.00164001
0.00143724
0.0016924
0.0018101
0.00196243
0.00191811
0.00202193
0.0020196
0.00214289
0.00198887
0.00176591
0.00270468
0.00288932
0.00282182
0.00287753
0.00280971
0.0027931
0.0027726
0.00273334
0.00268601
0.00159943
0.00156904
0.00183738
0.00192875
0.00207251
0.00209119
0.00213663
0.00202628
0.00178198
0.00172487
0.00198658
0.00195971
0.00199794
0.00188364
0.00187573
0.00167093
0.00171332
0.00345628
0.00638525
0.00328374
0.00364796
0.00330456
0.00375887
0.00329217
0.00283892
0.00290566
0.00255916
0.00266961
0.00280036
0.00285108
0.00299661
0.00353228
0.00340086
0.00298526
0.00289853
0.00284137
0.00267898
0.00241133
0.0025261
0.00254893
0.00260369
0.00289367
0.00332016
0.00372195
0.00452406
0.00439027
0.00384543
0.00351593
0.0036878
0.00375098
0.00472285
0.0044127
0.00438618
0.00462636
0.00458002
0.00434711
0.00411895
0.00397575
0.0034126
0.00346842
0.00396994
0.00384178
0.00395941
0.00389017
0.00404427
0.00411783
0.00395232
0.00367304
0.00386118
0.00385299
0.00427911
0.00416163
0.00386034
0.00353167
0.00377502
0.00372916
0.00430823
0.00405535
0.00379268
0.00349111
0.00334399
0.00379551
0.00372596
0.00422535
0.00434781
0.00434991
0.0037919
0.00370351
0.00440517
0.00423823
0.004094
0.00426474
0.00353155
0.00363179
0.00447478
0.00456858
0.0043346
0.00361853
0.00367332
0.00314896
0.00370441
0.00461142
0.00435576
0.00357003
0.00296201
0.0041445
0.00435996
0.00461304
0.00435897
0.00474774
0.00511413
0.0041679
0.00453429
0.00592617
0.00452042
0.00524568
0.005362
0.00539379
0.00539688
0.0054182
0.00544587
0.00573834
0.00558382
0.00354838
0.00424391
0.00412119
0.00344668
0.00293133
0.00322875
0.00347749
0.00352769
0.00361709
0.00375486
0.0036907
0.00357057
0.00522369
0.00595628
0.00609058
0.00621184
0.00610828
0.0059531
0.00560139
0.0051726
0.00429431
0.00320393
0.00200017
0.00204036
0.00217621
0.00215728
0.00187355
0.00141378
0.000928196
0.00137551
0.00141884
0.00133404
0.00121415
0.00106921
0.00110095
0.00201809
0.00398193
0.00545787
0.00604717
0.00653399
0.00702631
0.00746058
0.00778816
0.0080323
0.00820534
0.00831698
0.00834174
0.0081882
0.0074871
0.00716213
0.00675658
0.00642269
0.00595065
0.0055629
0.00628838
0.00690033
0.00727372
0.00769464
0.00788673
0.00780108
0.00677067
0.00658254
0.007589
0.00934287
0.00795011
0.00998302
0.0117252
0.0091341
0.00820249
0.00818679
0.00915227
0.0093294
0.00900508
0.00849807
0.00791645
0.00717748
0.00755598
0.00789554
0.00821883
0.00851751
0.00928655
0.00942193
0.00934817
0.00918987
0.00898927
0.00872923
0.00833604
0.00778715
0.00710734
0.00640695
0.00560855
0.00399244
0.001871
0.00215186
0.0020986
0.0022977
0.0022273
0.00101589
0.0011178
0.00112897
0.00113325
0.0010684
0.00121215
0.00175757
0.00282813
0.00203918
0.0016737
0.00116962
0.0013819
0.00230558
0.00391467
0.00440503
0.00448456
0.00490465
0.00636725
0.00692455
0.00730006
0.00761304
0.00778992
0.00769662
0.00746475
0.00705028
0.00654565
0.00633168
0.00598654
0.00566366
0.00548033
0.00529102
0.00496779
0.00392291
0.00373603
0.00388865
0.00384292
0.00367967
0.00392967
0.00407034
0.00406576
0.00410986
0.00414838
0.00426992
0.00441317
0.00453781
0.00460298
0.00462692
0.00463429
0.00464364
0.00465116
0.00466551
0.00464995
0.00454844
0.00399426
0.0024983
0.00145876
0.00134898
0.00147913
0.00156422
0.0016007
0.00142159
0.00091498
0.001422
0.00184047
0.00188734
0.00207017
0.00213515
0.00226287
0.00252082
0.00291324
0.00300613
0.00266808
0.00252788
0.00247421
0.0024113
0.00206349
0.00257017
0.00283505
0.00282953
0.00280248
0.00302835
0.00372627
0.00357962
0.00315681
0.00312177
0.00309036
0.00279389
0.00274963
0.00300578
0.00303895
0.00315279
0.00369716
0.00443374
0.00411278
0.00374556
0.00358977
0.00331462
0.00291498
0.00263562
0.00324876
0.00266539
0.00139494
0.00118434
0.00118841
0.0011917
0.00114791
0.00135667
0.00142368
0.00143925
0.00133815
0.00148734
0.00165694
0.00160527
0.00182803
0.00180021
0.0016061
0.00159136
0.00172686
0.00182789
0.00187891
0.00192885
0.00314406
0.00323721
0.00251025
0.00362651
0.00419115
0.00418068
0.00442767
0.00363986
0.00325278
0.00385958
0.00447263
0.00515087
0.00406743
0.00383745
0.00393644
0.00180678
0.000950462
0.00134135
0.0016647
0.00185179
0.00179461
0.00169515
0.00143299
0.00254148
0.00261054
0.00413525
0.00463762
0.00469198
0.00466149
0.00482451
0.00535672
0.00627255
0.00684786
0.00701462
0.00690841
0.00662415
0.0060979
0.00558148
0.00552707
0.00532795
0.00517138
0.00511858
0.00445782
0.00392096
0.00417956
0.00411482
0.00425198
0.00431518
0.0043605
0.00440671
0.00448475
0.004579
0.00466431
0.00472231
0.0047608
0.00479342
0.00482713
0.00486122
0.0048982
0.00491799
0.00487121
0.0044027
0.00264266
0.00157644
0.00143851
0.00153496
0.00180398
0.0018993
0.00204141
0.00181345
0.000955159
0.00112329
0.00195182
0.00216276
0.00200061
0.00187244
0.00183924
0.00154073
0.00278873
0.00275189
0.00431544
0.00485231
0.00491944
0.00490531
0.00486693
0.00482394
0.00478439
0.00475222
0.00472706
0.00470032
0.00466147
0.0046144
0.00456882
0.00452238
0.00444387
0.00432885
0.00421868
0.00440218
0.00451688
0.00469525
0.00491761
0.00504357
0.00495739
0.00480811
0.00472528
0.00474105
0.00478022
0.00482243
0.00486075
0.00487952
0.00482704
0.0045512
0.00427323
0.00270842
0.00274356
0.00135183
0.00150183
0.00173287
0.00178959
0.0019442
0.00193594
0.00152297
0.00118601
0.00133739
0.00124979
0.00223219
0.0024538
0.00272009
0.00269288
0.0014639
0.0015011
0.00156012
0.00176056
0.001637
0.00158173
0.00388969
0.00372808
0.0039047
0.00479335
0.00412973
0.00285366
0.00313044
0.00435406
0.00459079
0.00277763
0.00208206
0.00231162
0.00292853
0.00430848
0.00436153
0.00414257
0.00412077
0.00301301
0.00370237
0.00444974
0.00432804
0.00338043
0.00233015
0.00173263
0.000843169
0.00160412
0.00137218
0.00335718
0.0037144
0.00367009
0.00401327
0.00426394
0.00430785
0.00418593
0.00371379
0.00378712
0.00382424
0.00435611
0.00437538
0.00370566
0.00312805
0.00254208
0.00256448
0.00261389
0.0028967
0.003627
0.00341729
0.00299527
0.00290479
0.00284239
0.00267412
0.00241331
0.00211762
0.00213201
0.00198423
0.00192019
0.00302685
0.00402906
0.00475104
0.00488773
0.00493738
0.00486181
0.00482762
0.00468975
0.00461848
0.0040124
0.00512058
0.00541189
0.00522244
0.00526119
0.00529409
0.00533446
0.00533524
0.00523503
0.00449923
0.00268722
0.00175542
0.00198155
0.00213903
0.0020088
0.00199735
0.00212863
0.00201959
0.00177383
0.00287373
0.00280856
0.00449011
0.00508406
0.00519257
0.00519855
0.00517726
0.00515954
0.00516582
0.00543779
0.00531492
0.00539194
0.00568613
0.00569534
0.00576308
0.00541005
0.0053405
0.0052959
0.00526601
0.00521776
0.0050895
0.00450385
0.00436606
0.00495821
0.00511121
0.00517939
0.00522692
0.0052837
0.0053581
0.0055713
0.00573011
0.00578998
0.00554676
0.00545635
0.00532843
0.00514773
0.00510558
0.00509752
0.0050943
0.00507035
0.00493965
0.00434907
0.00279683
0.00286604
0.00170514
0.00171639
0.0019771
0.00207686
0.00204001
0.00188931
0.00184214
0.0031642
0.00360136
0.00383158
0.00412659
0.00394122
0.00391901
0.00448014
0.00433554
0.00386931
0.00402509
0.00360743
0.00343824
0.00332269
0.0033395
0.00176103
0.0019001
0.0019817
0.00194858
0.0018632
0.00166167
0.00152374
0.00278034
0.00276004
0.00272395
0.00162036
0.00158501
0.00186746
0.00181378
0.00165941
0.00141444
0.00155042
0.00239266
0.00267596
0.0041484
0.00429671
0.00459965
0.00491783
0.00503755
0.0050693
0.00508807
0.00511003
0.00515805
0.00521596
0.00523371
0.00523513
0.00528783
0.00527952
0.00528015
0.00525171
0.00521905
0.00518102
0.00514045
0.00507429
0.00493877
0.00461486
0.00429745
0.00484498
0.00488969
0.00498113
0.00507586
0.00511675
0.00512392
0.00510633
0.00507021
0.0050272
0.00497707
0.00497492
0.00510771
0.00513895
0.0051612
0.00514365
0.00512546
0.00511993
0.00509891
0.00506415
0.00497206
0.00487915
0.00483922
0.00475858
0.00488556
0.00494167
0.00494967
0.0049964
0.00507166
0.00509135
0.00508876
0.00505103
0.00502061
0.00498255
0.00491891
0.00483499
0.00455452
0.00461558
0.00469282
0.00479397
0.00489173
0.00497064
0.00501472
0.00501707
0.00497049
0.00493914
0.00494011
0.00489848
0.00492026
0.00494275
0.00491812
0.00491591
0.00492048
0.00486542
0.00476456
0.0046239
0.00447506
0.00435219
0.00428985
0.00418665
0.00450972
0.00463574
0.00474687
0.00484487
0.00493424
0.00502546
0.00505591
0.00504877
0.00499372
0.00496275
0.0049619
0.0049144
0.00491216
0.0049581
0.00495953
0.00498536
0.00503338
0.00501665
0.00494789
0.00477684
0.00461154
0.00446817
0.00433132
0.0041835
0.00415146
0.0042191
0.00416094
0.00421808
0.00436446
0.00454805
0.00470634
0.00480706
0.00483822
0.00486737
0.00491092
0.00490567
0.00487945
0.00486569
0.00480684
0.00475583
0.0046929
0.00455388
0.00437593
0.0042188
0.00416928
0.00425485
0.00434026
0.00426125
0.00395321
0.00410957
0.00425444
0.00439879
0.00460435
0.0048426
0.00494971
0.0049884
0.00496608
0.0049487
0.00494684
0.00490334
0.00488835
0.0049283
0.00493058
0.00494789
0.00497716
0.00494194
0.00485233
0.00455848
0.00421429
0.00404913
0.00395286
0.00381673
0.00428178
0.00437163
0.00426232
0.00418906
0.00430232
0.0044342
0.00457139
0.00466222
0.00469745
0.00474738
0.00481337
0.00484462
0.0047972
0.00474273
0.00467525
0.00464081
0.00464095
0.00461727
0.00452824
0.00442468
0.00430534
0.00445126
0.0045383
0.00445619
0.0040235
0.00408901
0.00418069
0.00422903
0.00455032
0.00484167
0.0049161
0.00492561
0.00489927
0.0048825
0.00488485
0.00486009
0.0048129
0.00480296
0.00479568
0.00484739
0.00491432
0.00494464
0.00495763
0.00473817
0.00435949
0.00430954
0.00413791
0.0040559
0.00451605
0.00456857
0.00446131
0.00436317
0.00457168
0.00466082
0.00468682
0.00466921
0.00462033
0.00458729
0.00464523
0.00473679
0.00466652
0.00436481
0.0040961
0.00423467
0.00426821
0.00425666
0.00419829
0.00410206
0.00389424
0.00434952
0.00479573
0.00483163
0.0043464
0.00435249
0.00420939
0.00390375
0.00426978
0.00447421
0.00452311
0.00451381
0.00445241
0.00428876
0.00453417
0.0047488
0.00470909
0.00426101
0.00276448
0.00280324
0.00282456
0.00282843
0.00279187
0.002782
0.00274208
0.00272177
0.00265949
0.00259664
0.00253567
0.00270442
0.00284775
0.00304152
0.00305797
0.00313849
0.00300835
0.00285086
0.00266467
0.00207356
0.00263125
0.00313971
0.00333452
0.00358564
0.00363782
0.00418991
0.00440644
0.00452561
0.00444149
0.0035631
0.00302309
0.00241621
0.00157138
0.000979185
0.00114979
0.00119636
0.00126268
0.00155063
0.00282579
0.0014474
0.00199864
0.00156212
0.00267773
0.00143544
0.000896339
0.000592681
0.000754321
0.00089481
0.000903412
0.000867014
0.000722477
0.000568505
0.000581001
0.000543038
0.000577012
0.000520437
0.000596146
0.000555542
0.000763122
0.00110998
0.00129652
0.00132959
0.00107667
0.00121825
0.00101814
0.00117666
0.00105213
0.00114766
0.00110163
0.0013474
0.00147685
0.00141351
0.00141686
0.00123988
0.000867173
0.00100539
0.000789961
0.000948859
0.000726018
0.000937102
0.000803666
0.00104433
0.00107642
0.00107315
0.00103306
0.000789019
0.000934727
0.000736164
0.000904359
0.000744225
0.000793633
0.000660461
0.000958989
0.000977066
0.000900947
0.000958082
0.00107418
0.00114891
0.00126127
0.00119435
0.00136124
0.00131608
0.00133504
0.00126532
0.00123176
0.00120412
0.00120712
0.00118746
0.00119391
0.00123221
0.00123368
0.00123821
0.00127669
0.00125797
0.00122669
0.00120742
0.00107283
0.000866372
0.00150932
0.00155632
0.00158039
0.00158068
0.00154618
0.00152739
0.00147117
0.00145667
0.00140877
0.00138249
0.00131934
0.00126963
0.00121149
0.00136247
0.000763187
0.000866787
0.000915119
0.000943122
0.000961829
0.000970838
0.000977377
0.000971793
0.00095942
0.000936467
0.000929444
0.0009041
0.00115613
0.00131526
0.00137627
0.00139322
0.00130585
0.00124399
0.00273199
0.00330937
0.00501606
0.00512669
0.00385602
0.0038408
0.00132472
0.00140216
0.000957746
0.00134594
0.00138799
0.00137371
0.00129725
0.000935279
0.00140352
0.000978711
0.00131386
0.000987379
0.00120967
0.00100579
0.00143237
0.00182878
0.00176713
0.00160123
0.00109647
0.000910706
0.000910803
0.000777295
0.000852874
0.000702499
0.000862102
0.000726589
0.00106355
0.00148866
0.00167836
0.00171461
0.00135346
0.00186921
0.00140604
0.00203836
0.0016224
0.00200439
0.001611
0.00186274
0.00230546
0.00231634
0.00226143
0.00182253
0.00145844
0.001638
0.00145008
0.00167151
0.0024165
0.00158306
0.00240897
0.000994474
0.00135601
0.00139805
0.00137911
0.00130044
0.000875788
0.00222781
0.00117875
0.00209064
0.00135215
0.00215927
0.00157278
0.00208729
0.00249492
0.00261074
0.00260057
0.00212347
0.00191563
0.00198214
0.00157969
0.00189657
0.00141317
0.00205208
0.00116882
0.00151675
0.00166876
0.00176099
0.00176609
0.00144831
0.00286585
0.00180135
0.00271963
0.00189396
0.00242784
0.00194706
0.00212769
0.00251376
0.00249775
0.0024762
0.00209954
0.00169999
0.00224479
0.00159932
0.048036
0.110666
0.0441761
0.111888
0.0505748
0.0718267
0.0707545
0.0708774
0.0711417
0.0534264
0.116614
0.137734
0.143621
0.145387
0.144326
0.233211
0.190205
0.285695
0.185174
0.1091
0.0474002
0.0652803
0.168238
0.277631
0.416643
0.528682
0.3603
0.372944
0.237985
0.234629
0.220932
0.178801
0.109781
0.0550785
0.00940632
0.0102735
0.014733
0.0196421
0.0153989
0.00938983
0.00185923
0.0019179
0.00196028
0.00198611
0.00197765
0.00193329
0.00196081
0.0018479
0.0017327
0.00193302
0.00210777
0.00234137
0.002735
0.0030147
0.00271449
0.00297309
0.00315021
0.0032948
0.00341468
0.00359323
0.00379418
0.00397021
0.00397972
0.00364684
0.00310812
0.00252863
0.00212592
0.00201446
0.00189193
0.00166859
0.0015267
0.00143
0.00138307
0.00136363
0.00140127
0.00153125
0.00164377
0.00168318
0.00164987
0.00161949
0.00159302
0.00141843
0.00165835
0.00227475
0.00229292
0.00392839
0.0045266
0.00462068
0.00462707
0.00410262
0.00262101
0.00262681
0.00264027
0.00269066
0.00270117
0.00270802
0.00270514
0.00269542
0.00267968
0.0026503
0.00263576
0.00259331
0.00255758
0.00246845
0.00247251
0.00250562
0.00253106
0.00249013
0.00250113
0.00244744
0.00315871
0.00423107
0.00478807
0.0050041
0.005191
0.00503916
0.00697584
0.00595816
0.00419455
0.00414256
0.00408907
0.00485303
0.00488603
0.00440161
0.00441675
0.00402634
0.00250956
0.00249511
0.0024964
0.00266384
0.0027143
0.00280826
0.00283364
0.00285834
0.00287211
0.00287055
0.00286956
0.00284822
0.00283019
0.00276884
0.00274816
0.00273978
0.00151067
0.00164812
0.00170819
0.00171855
0.00174108
0.0017301
0.00171885
0.00169812
0.00168359
0.00165559
0.00162239
0.00157561
0.00148347
0.00135251
0.00148969
0.00253199
0.00253319
0.00414158
0.00466628
0.00470157
0.00524591
0.0049803
0.00471732
0.00506717
0.00456308
0.00452507
0.0040921
0.00253864
0.00257237
0.00152489
0.00150921
0.00176303
0.00171238
0.00182842
0.00187683
0.00188258
0.00190821
0.00193392
0.00196483
0.00201354
0.00202889
0.00200012
0.00199557
0.00188174
0.00162693
0.0016469
0.00194044
0.00203306
0.00188645
0.00185094
0.00183604
0.0017922
0.00175811
0.00172494
0.00174797
0.00188255
0.00188256
0.00185126
0.00176364
0.00172002
0.00149373
0.00144607
0.00252274
0.00254275
0.0041715
0.00431287
0.00429554
0.00494041
0.00550049
0.00625824
0.00533696
0.00432919
0.00445249
0.00508364
0.00376439
0.00310904
0.00184754
0.00142217
0.00171316
0.00166607
0.00173276
0.00179503
0.00159327
0.00170859
0.0015785
0.00143395
0.00142574
0.00142366
0.00145918
0.00147385
0.00150052
0.00150398
0.00153931
0.00153583
0.0015409
0.00155985
0.00157003
0.00173484
0.0018873
0.0015874
0.00134558
0.00130941
0.00123634
0.00117657
0.0012052
0.00117714
0.00117014
0.00114881
0.00112954
0.00107784
0.00112359
0.00119244
0.00139526
0.00133716
0.00108064
0.000965342
0.000660098
0.000672193
0.000676849
0.000697772
0.000705297
0.000714583
0.000717981
0.000729622
0.000731834
0.000735451
0.000735127
0.000752494
0.000749871
0.000741285
0.000735673
0.000739558
0.000743177
0.000742689
0.00108729
0.00121089
0.00132396
0.00157303
0.00185287
0.00159402
0.00135024
0.00116322
0.000747872
0.000759325
0.000773226
0.000780416
0.00079705
0.000812242
0.00082924
0.000840074
0.000848279
0.000856945
0.000865997
0.00086993
0.000868012
0.000851685
0.000841985
0.000863788
0.000949381
0.000999099
0.00106263
0.00108672
0.00110792
0.00111887
0.00111312
0.00112441
0.0011108
0.00110881
0.0010893
0.00108087
0.00107264
0.0010625
0.00105009
0.00101989
0.00100978
0.00106265
0.00179787
0.00235156
0.00271189
0.0029889
0.00274688
0.00221266
0.00234446
0.00411001
0.00387839
0.00230361
0.00214296
0.00196827
0.00170707
0.00152729
0.00184729
0.00210523
0.00230143
0.00247505
0.00263389
0.0027419
0.00288058
0.00306119
0.00338011
0.00342028
0.00311981
0.00252852
0.002141
0.00200012
0.00193259
0.00181469
0.00168601
0.00172835
0.00174091
0.00168918
0.00162492
0.00160664
0.00163314
0.00166669
0.00164665
0.00164593
0.00147037
0.00146988
0.00251154
0.00255939
0.00393688
0.0041479
0.004188
0.00269252
0.00265569
0.00155124
0.00144071
0.00157167
0.0016315
0.00163487
0.00164145
0.0016331
0.00160442
0.00158355
0.00155907
0.00153942
0.00152212
0.00149224
0.00143526
0.00132584
0.00144517
0.00162031
0.00169159
0.00170978
0.00171845
0.00174538
0.00179005
0.00182565
0.00190828
0.00191668
0.00191593
0.00192269
0.00179721
0.0018534
0.00156866
0.00156638
0.00271473
0.00270734
0.00155546
0.00183657
0.00184907
0.00182771
0.00196778
0.00180067
0.0017436
0.00173436
0.001661
0.00162199
0.00156981
0.00153894
0.00156944
0.00167005
0.00161755
0.00143372
0.00138322
0.0015509
0.00149106
0.00123693
0.0010566
0.00102735
0.000983292
0.00095655
0.00100249
0.0010384
0.00105885
0.00108482
0.0010925
0.0011402
0.00110932
0.00116406
0.00123444
0.00129046
0.00153066
0.00165885
0.00149862
0.0014699
0.00145168
0.00145015
0.00145477
0.0013949
0.00139097
0.00136002
0.00134478
0.0013042
0.00128601
0.00126289
0.00126718
0.00128073
0.00140818
0.00362566
0.00462044
0.00481136
0.00821573
0.00332162
0.00339192
0.00665687
0.00275034
0.00413665
0.00443312
0.00463398
0.00483971
0.00443008
0.0056253
0.00392753
0.00437175
0.00456413
0.00401995
0.00149228
0.00167608
0.00194721
0.00174922
0.00154541
0.00105349
0.00113636
0.00117376
0.0012041
0.00122395
0.00124581
0.00126932
0.00129127
0.00130672
0.00130697
0.00126731
0.0012245
0.00112619
0.00109342
0.00113574
0.00117947
0.00103607
0.000975565
0.000987108
0.00100337
0.00101252
0.00101447
0.00102446
0.00102714
0.00104288
0.00103449
0.00104244
0.00102462
0.00103369
0.00102014
0.000985356
0.000936501
0.000853508
0.000833179
0.00120004
0.00127793
0.00134258
0.0015237
0.00175964
0.00187779
0.00168323
0.00155242
0.00149018
0.00165316
0.00165353
0.00300389
0.00576948
0.00258241
0.00289281
0.00842706
0.00335097
0.00260741
0.0026467
0.00267443
0.00267817
0.00155646
0.00184325
0.00178697
0.0017943
0.00152183
0.00127775
0.00114611
0.00102477
0.000694948
0.000692649
0.000697877
0.000708597
0.000711937
0.000681503
0.000681426
0.000677552
0.000676043
0.000661709
0.000657719
0.00064607
0.000639007
0.000622204
0.000613119
0.000597136
0.000594205
0.000618087
0.000686043
0.000828841
0.000924558
0.00104987
0.00106969
0.00120773
0.00300675
0.00347889
0.00479606
0.00474841
0.00748791
0.00467837
0.0035338
0.00319699
0.00467805
0.00483498
0.00450094
0.00609699
0.00421645
0.00279035
0.0041664
0.00346015
0.00415111
0.00405829
0.00429589
0.00680736
0.00715239
0.00201689
0.00179796
0.00189146
0.00214601
0.00254821
0.00234563
0.00267271
0.0026677
0.00205608
0.00131666
0.00419548
0.00507486
0.00406398
0.00486657
0.00749983
0.00301897
0.00294432
0.00260472
0.00217406
0.0019761
0.00194943
0.00217361
0.00260127
0.00651258
0.0069696
0.0064049
0.00638796
0.00580911
0.00641545
0.00798072
0.00793887
0.00700452
0.00654928
0.00678096
0.00419991
0.00262988
0.00305612
0.00338369
0.00451419
0.00465496
0.00981603
0.00333707
0.00368353
0.00374047
0.00500315
0.00484918
0.00855834
0.00363309
0.00391506
0.00515894
0.00688684
0.0126781
0.00463888
0.00488203
0.00701715
0.00712281
0.00651404
0.00471454
0.00427221
0.00465028
0.00350399
0.003426
0.00292664
0.00432065
0.00580792
0.00459587
0.00446282
0.0037957
0.0033838
0.00346123
0.00359106
0.00298387
0.0029431
0.00339697
0.00252673
0.00243508
0.0025869
0.000716293
0.000367145
0.000375384
0.000385157
0.000393071
0.00040122
0.000407175
0.00041424
0.000417415
0.000417768
0.000418846
0.000442898
0.000438776
0.000424891
0.00038582
0.000440257
0.00069864
0.000699094
0.000439742
0.000387671
0.000695588
0.00110826
0.00130646
0.00154553
0.00156459
0.00134997
0.00117055
0.000720581
0.000709259
0.000429926
0.000502108
0.000545284
0.00048365
0.000539774
0.000500291
0.000529927
0.000535467
0.000495475
0.000492699
0.000494592
0.000490843
0.000482128
0.000471468
0.000458434
0.000448121
0.000442328
0.000437683
0.00042778
0.000356155
0.000331709
0.00039809
0.000633981
0.000632959
0.000593587
0.000560236
0.0005319
0.000519184
0.000515792
0.00051309
0.000522074
0.000538931
0.000543704
0.000548506
0.000590997
0.000572481
0.000611474
0.000573845
0.00061308
0.000575425
0.000529331
0.000444456
0.000458545
0.000739699
0.00074756
0.0012077
0.00138149
0.00156662
0.00157461
0.00175796
0.00185162
0.00156824
0.00162808
0.00186562
0.00173743
0.00154846
0.00155453
0.00139823
0.00139958
0.00123983
0.000774911
0.000764401
0.000480097
0.000466278
0.000556002
0.000546285
0.000607574
0.000650257
0.000650486
0.000648384
0.000632165
0.000626327
0.000550784
0.000539948
0.000540655
0.000524277
0.000520619
0.000542412
0.000591114
0.000693092
0.000838163
0.00091289
0.000945199
0.000906963
0.000812323
0.000598842
0.000541678
0.00093825
0.000974631
0.00174012
0.00413702
0.00191171
0.00367741
0.00265334
0.000661077
0.000737782
0.000940858
0.0010543
0.00113819
0.00118601
0.0010834
0.000903488
0.000680295
0.000562024
0.000840532
0.00072689
0.000821433
0.000717524
0.000928461
0.00107359
0.00103867
0.00104654
0.000884491
0.000720611
0.000763168
0.000685231
0.000755334
0.000632405
0.00076093
0.00068694
0.000863233
0.000871344
0.000853215
0.000808736
0.000615779
0.000646098
0.000541982
0.000587944
0.00052791
0.000545657
0.000517096
0.000602967
0.000694818
0.000666852
0.00066425
0.000545782
0.000427689
0.000472393
0.00040853
0.00046239
0.000359399
0.000435372
0.000365065
0.000472589
0.000487098
0.000489434
0.000485902
0.000395001
0.000464605
0.000569873
0.000598762
0.000603845
0.000575145
0.000443482
0.000686212
0.000619096
0.000755909
0.000653744
0.000715695
0.000651702
0.000759611
0.000972821
0.00101563
0.00102234
0.000829434
0.00082434
0.00150386
0.0834463
0.00135281
0.00159905
0.00164895
0.00164304
0.00135848
0.00132523
0.00164144
0.00121417
0.0017196
0.0010827
0.00183418
0.000699268
0.00106311
0.00114139