/*--------------------------------*- C++ -*----------------------------------*\
| =========                 |                                                 |
| \\      /  F ield         | OpenFOAM: The Open Source CFD Toolbox           |
|  \\    /   O peration     | Version:  v2012                                 |
|   \\  /    A nd           | Website:  www.openfoam.com                      |
|    \\/     M anipulation  |                                                 |
\*---------------------------------------------------------------------------*/
FoamFile
{
    version     2.0;
    format      ascii;
    class       volScalarField;
    location    "25";
    object      epsilon;
}
// * * * * * * * * * * * * * * * * * * * * * * * * * * * * * * * * * * * * * //

dimensions      [0 2 -3 0 0 0 0];


internalField   nonuniform List<scalar> 
22960
(
0.0280405
0.0196489
0.0162681
0.0130501
0.0166321
0.0121857
0.00691264
0.00938349
0.0101241
0.0108437
0.0109054
0.00910682
0.00844084
0.00835316
0.00810874
0.00750856
0.00866722
0.0124519
0.0162745
0.0191776
0.0212243
0.0146025
0.0211413
0.0206305
0.0104696
0.0095998
0.0118891
0.0101191
0.00960415
0.00993197
0.0100224
0.0102292
0.0104271
0.0107788
0.01116
0.0117894
0.0123774
0.0131861
0.0139083
0.0161069
0.017893
0.0193545
0.0203142
0.0213208
0.0221607
0.0230561
0.0239489
0.0248885
0.0258491
0.030713
0.0337424
0.0307355
0.0282808
0.0265839
0.0258134
0.0278107
0.0406374
0.0619312
0.0605606
0.0503847
0.0416399
0.0335517
0.0272208
0.0314915
0.0145152
0.00965216
0.0142089
0.0159563
0.018185
0.0198257
0.0158663
0.0126924
0.01073
0.0103056
0.010091
0.0101345
0.0100757
0.010159
0.0099664
0.0106573
0.0127244
0.0105826
0.0092561
0.00937592
0.0104557
0.00835776
0.0133198
0.01232
0.0114751
0.0128394
0.0172582
0.0202552
0.021913
0.0223857
0.0233919
0.0276123
0.0345829
0.0270701
0.0200947
0.0151749
0.0115247
0.0140405
0.0165206
0.0102451
0.0118297
0.0117179
0.0123472
0.0125171
0.0134031
0.010911
0.0125233
0.0119725
0.0114112
0.0111009
0.011015
0.0108672
0.0107915
0.0116229
0.0128055
0.0136321
0.0153456
0.0172763
0.0187557
0.0200034
0.0238395
0.0303365
0.0272906
0.0230229
0.0194545
0.0219758
0.0246685
0.0281174
0.0325046
0.0323828
0.0220596
0.0182935
0.0168418
0.0152539
0.0134057
0.0115873
0.0104657
0.00907254
0.00819338
0.00812656
0.00829626
0.0086559
0.00939848
0.0101106
0.010733
0.0134511
0.0185885
0.0170954
0.0154514
0.0152235
0.0148889
0.0149546
0.0120181
0.0240644
0.0225527
0.0127829
0.0132564
0.0137818
0.0137926
0.0133497
0.0127723
0.0121507
0.0127404
0.0130438
0.012459
0.0111666
0.00983531
0.00774563
0.00902604
0.0102899
0.00652768
0.00652118
0.00723805
0.00796131
0.00882403
0.00927264
0.00733147
0.0056156
0.00517845
0.00510659
0.00499133
0.00475142
0.00431987
0.00361892
0.00468833
0.00579678
0.0062993
0.00649099
0.00657972
0.0066284
0.00699708
0.0080041
0.00968785
0.00889889
0.00880398
0.00809707
0.00704503
0.00491817
0.00605989
0.00695122
0.00675432
0.006419
0.00686396
0.00748348
0.00781874
0.00816045
0.0085857
0.00946425
0.0123875
0.0183509
0.0184319
0.0188456
0.0215319
0.0245547
0.0307072
0.0409763
0.0545342
0.0692771
0.0823946
0.0922729
0.0979144
0.100096
0.0981646
0.0965374
0.101741
0.0893594
0.0644084
0.0496373
0.0411622
0.0360569
0.0338544
0.0388865
0.0454171
0.0339352
0.0244579
0.0208371
0.0176698
0.0117095
0.00787526
0.00841955
0.00809826
0.0075983
0.00826862
0.0105308
0.0160105
0.111956
0.163909
0.256555
0.371031
0.484547
0.586547
0.68724
0.696893
0.66024
0.55375
0.207779
0.278363
0.186318
0.119151
0.0933931
0.0746549
0.0699478
0.0596068
0.0406413
0.0470207
0.0353137
0.0301163
0.0266086
0.0282815
0.0305558
0.0310981
0.0322381
0.0314008
0.0315093
0.0300909
0.0297273
0.0282765
0.0279054
0.0272995
0.0279541
0.0283203
0.0280344
0.0290513
0.0289967
0.0265654
0.020486
0.0155243
0.0139427
0.0131364
0.0129595
0.0128154
0.0113261
0.011286
0.0121695
0.0142573
0.0161764
0.0235214
0.0325537
0.0314365
0.0279102
0.0277035
0.0253287
0.0290545
0.0345771
0.0343191
0.031499
0.0328382
0.0310372
0.0305389
0.0297145
0.0310309
0.0309105
0.0329276
0.0327962
0.0349372
0.0343905
0.0362746
0.0350631
0.0363146
0.0358749
0.0374083
0.0393801
0.0400111
0.0564766
0.0564738
0.058257
0.0732893
0.0883955
0.0747892
0.0646729
0.0706039
0.048824
0.0450062
0.0543029
0.0566643
0.052281
0.0467766
0.0442443
0.0413113
0.0366397
0.0352078
0.0358624
0.0354887
0.0336244
0.03075
0.0297902
0.0294806
0.0292217
0.0290682
0.0291148
0.0295555
0.0323923
0.0338529
0.0255113
0.0203393
0.0194571
0.0130239
0.0100904
0.00916647
0.0109244
0.0130496
0.0137605
0.0140911
0.0144701
0.01453
0.0144509
0.0170632
0.0171091
0.0167996
0.0163553
0.015675
0.0143834
0.011053
0.0123661
0.0139204
0.0154643
0.0171269
0.018782
0.0206434
0.0228489
0.0257167
0.0296141
0.0328243
0.0322339
0.0285757
0.0254894
0.0231454
0.02134
0.0207638
0.0255158
0.0268917
0.022687
0.0182293
0.0141456
0.0126798
0.0114925
0.0170686
0.0148019
0.0146216
0.0146069
0.0160507
0.0182779
0.0198521
0.0151943
0.0128129
0.0112372
0.0110693
0.0109345
0.0111589
0.0113782
0.0130371
0.0172885
0.0272914
0.0286153
0.0364343
0.0469083
0.0432025
0.0376629
0.0400885
0.0442749
0.0412974
0.0324374
0.0311103
0.030696
0.029823
0.0299698
0.0289892
0.0294151
0.0283519
0.0286756
0.0274845
0.0276631
0.0263681
0.0263119
0.0255363
0.0264308
0.026156
0.0241975
0.0227621
0.0223062
0.0221808
0.0192987
0.0152492
0.0143245
0.0136618
0.0138803
0.0139685
0.0137328
0.0148589
0.0166411
0.0132747
0.0192027
0.0288417
0.0206269
0.017292
0.0149006
0.0189392
0.0165798
0.0148386
0.0151979
0.0213069
0.0229713
0.0270595
0.0372646
0.0215137
0.0271282
0.0292579
0.0392527
0.0542286
0.0470527
0.0375769
0.0422621
0.0441344
0.042176
0.0781848
0.081518
0.0691408
0.0527713
0.03218
0.0589713
0.0523777
0.0190013
0.0346064
0.0523505
0.0707238
0.0490087
0.0550908
0.0615861
0.0753677
0.060998
0.0633141
0.0643917
0.063632
0.0577789
0.0563676
0.0467393
0.0520273
0.0565049
0.0761299
0.103955
0.16629
0.203978
0.235737
0.234051
0.131742
0.162229
0.179242
0.203375
0.193788
0.338794
0.5041
0.750244
1.22734
1.19982
0.936031
0.6696
0.446279
0.238578
0.102622
0.0351807
0.0334762
0.0218107
0.0166876
0.0177293
0.0233249
0.0199145
0.0143677
0.00825692
0.00555104
0.00559283
0.00610928
0.00654105
0.00682403
0.00701467
0.0077045
0.0122027
0.0130316
0.0133392
0.0133989
0.0133861
0.0133052
0.012232
0.0117455
0.0106908
0.00892258
0.0102118
0.0107076
0.00948553
0.00894086
0.00814387
0.00782936
0.0109442
0.00854857
0.00747911
0.00793941
0.00881008
0.00870255
0.00712881
0.00717804
0.00712076
0.00716068
0.00698098
0.00675117
0.006418
0.00660192
0.00806708
0.0113877
0.0116877
0.0143468
0.0178644
0.0164884
0.0142875
0.0149998
0.0161521
0.0143841
0.0130371
0.0191114
0.0196791
0.019774
0.0219666
0.0240166
0.0360002
0.101457
0.170381
0.289543
0.430583
0.57317
0.710215
0.833697
0.852395
0.814938
0.67899
0.196957
0.261118
0.169563
0.105117
0.085434
0.0702171
0.0672332
0.0579357
0.0379734
0.0602675
0.059168
0.0688342
0.0654542
0.0696678
0.0719115
0.079293
0.0799303
0.111451
0.27995
0.545951
0.596778
0.82424
1.23739
1.46763
1.56453
1.38889
0.970885
0.6277
0.449544
0.26711
0.13882
0.0527229
0.0270236
0.124522
0.0738661
0.0547591
0.0496475
0.0355912
0.0275275
0.0087726
0.0204663
0.00904716
0.00542838
0.0060031
0.00650452
0.00688519
0.00720794
0.00814779
0.00829168
0.00716332
0.00682588
0.006466
0.0059789
0.00562608
0.0107718
0.0227919
0.0232635
0.037451
0.0382308
0.0403183
0.0507785
0.0699435
0.0777325
0.101298
0.125295
0.168888
0.193814
0.221716
0.25384
0.319121
0.386685
0.48259
0.545316
0.564281
0.53007
0.461898
0.379297
0.291823
0.183241
0.0944852
0.11573
0.199185
0.236602
0.257772
0.27649
0.28729
0.282577
0.262529
0.239173
0.22721
0.212968
0.191967
0.192655
0.201248
0.210395
0.217728
0.217471
0.213578
0.201628
0.189448
0.145694
0.0899264
0.0659644
0.0760317
0.108429
0.134231
0.148623
0.154456
0.152626
0.160753
0.155194
0.161316
0.154804
0.156632
0.135805
0.111113
0.0969511
0.0862266
0.0730415
0.0635657
0.0571414
0.0434416
0.0372222
0.0338891
0.0352909
0.0349988
0.0205728
0.0183404
0.019779
0.0343617
0.0355376
0.0358455
0.0402908
0.0476371
0.0505982
0.0632165
0.0660019
0.078183
0.08097
0.0815152
0.118146
0.11754
0.110642
0.0994751
0.075671
0.0585919
0.0466098
0.048011
0.0489636
0.0493175
0.0453249
0.0432301
0.0368257
0.0353139
0.0367275
0.0359613
0.0330468
0.0358733
0.0369519
0.0314965
0.0370242
0.0372187
0.0365413
0.0353581
0.0344853
0.0336999
0.0330441
0.0324522
0.0325943
0.0333092
0.0375562
0.0248684
0.0160195
0.0143245
0.0122647
0.0119188
0.0122092
0.0114058
0.0120307
0.0123415
0.0124261
0.0125047
0.0128118
0.0135861
0.0166204
0.0218785
0.0210955
0.022477
0.0214863
0.0226044
0.030681
0.0127583
0.0147682
0.0154679
0.0149857
0.0160247
0.0188147
0.0210114
0.0231666
0.0231646
0.0214647
0.019388
0.0177571
0.0169412
0.0191453
0.0215777
0.0234607
0.0230846
0.0203536
0.0223427
0.0253193
0.0283573
0.028246
0.0264784
0.0333234
0.0348248
0.0356115
0.0323874
0.0488307
0.0553035
0.0512526
0.0484601
0.053869
0.0451534
0.0383301
0.0425689
0.0300161
0.10359
0.0377823
0.0295984
0.0260829
0.0275352
0.0275238
0.0294583
0.0304982
0.0301059
0.023284
0.0237939
0.0281755
0.0255505
0.0253104
0.0195268
0.0169653
0.0239262
0.0319975
0.0338602
0.0364531
0.0380503
0.035292
0.0434251
0.0402222
0.043308
0.0459712
0.0339927
0.0188341
0.0306671
0.032462
0.0247533
0.0285368
0.0315265
0.0333693
0.0383249
0.0456063
0.0557371
0.0693437
0.0770043
0.0652736
0.0558436
0.0447478
0.036513
0.030451
0.0259091
0.0226652
0.0204721
0.0187347
0.0181887
0.0173086
0.0156929
0.0171763
0.0189132
0.0208663
0.0229766
0.0253245
0.0280889
0.0320908
0.0401566
0.0441726
0.0409091
0.0357245
0.0316488
0.0285586
0.0261398
0.0252903
0.0349817
0.0438905
0.0406393
0.0336527
0.0262627
0.0222058
0.0190405
0.0170778
0.0265891
0.028896
0.0219959
0.0245059
0.0287383
0.0331832
0.0405844
0.0534181
0.0377371
0.0427975
0.029705
0.0295683
0.0323796
0.0361169
0.0413033
0.0487178
0.055904
0.0510472
0.0379285
0.0321312
0.0286798
0.0258051
0.0232618
0.0210093
0.0190194
0.0200031
0.0220527
0.0245013
0.0279257
0.0326417
0.0397977
0.0512459
0.0708308
0.0757858
0.0608347
0.048826
0.040535
0.0350255
0.0314551
0.0302392
0.0280026
0.0407682
0.0434941
0.0684319
0.0607616
0.0472759
0.0411734
0.0348532
0.0307559
0.0284613
0.0363663
0.0402397
0.0525294
0.035961
0.0356908
0.0353018
0.0403378
0.0588689
0.0517594
0.0457015
0.0371932
0.0334693
0.0406491
0.0312012
0.0271477
0.0265071
0.0265521
0.0267035
0.0290569
0.0324025
0.0304002
0.030966
0.0300056
0.0267785
0.0353393
0.0378786
0.0349692
0.0345666
0.033488
0.0285442
0.0277041
0.0317018
0.0342332
0.0389283
0.0346418
0.0327966
0.0367834
0.0473702
0.0261185
0.0235453
0.0350753
0.0417722
0.0414752
0.0409331
0.0377418
0.035771
0.0348691
0.0325264
0.0344998
0.0297976
0.0310079
0.0312819
0.0290328
0.0252831
0.0269032
0.0266969
0.0274832
0.0281814
0.0273771
0.0261617
0.0264866
0.0217506
0.0257736
0.0279259
0.0257199
0.034506
0.0335564
0.0345744
0.0381937
0.0393472
0.0321819
0.0318591
0.0327722
0.0287613
0.035885
0.0352012
0.0366326
0.0398868
0.0289583
0.0264764
0.0277205
0.0137677
0.0172875
0.0185269
0.0210223
0.0237883
0.0202169
0.0126
0.0106413
0.0101537
0.00989623
0.00979832
0.00991521
0.0113984
0.0178333
0.0178877
0.0173482
0.0174824
0.0174096
0.0172584
0.0176682
0.0173859
0.0182881
0.0191022
0.0194216
0.0199028
0.0204862
0.0205274
0.0198316
0.0129036
0.011929
0.00902543
0.00563
0.00596431
0.0063682
0.00666645
0.0069105
0.00746914
0.00783213
0.00720941
0.00610377
0.00658714
0.00673354
0.00661844
0.00656156
0.00640264
0.00612201
0.00584277
0.00639365
0.00948596
0.00765467
0.00728331
0.0131744
0.0119233
0.0111601
0.0111657
0.0104501
0.0112252
0.011105
0.00989662
0.00973289
0.00978848
0.0100164
0.0104653
0.0120373
0.0194712
0.022739
0.0195097
0.0178516
0.0165766
0.0155105
0.0175961
0.0180575
0.0182948
0.0185793
0.0215372
0.0189833
0.0199874
0.0128322
0.010919
0.0103308
0.0100524
0.00996902
0.0100637
0.0100151
0.0100582
0.0102499
0.010652
0.0114062
0.0130536
0.0152974
0.0200528
0.0214245
0.0254345
0.0221832
0.019971
0.0207342
0.0211527
0.0220784
0.0284434
0.0276632
0.0264195
0.0243743
0.0205048
0.021928
0.0225809
0.0265296
0.0228535
0.0405515
0.0371226
0.0362872
0.0386793
0.0412192
0.0363637
0.0402648
0.041419
0.0287489
0.0257822
0.0234228
0.0247173
0.0265611
0.0276602
0.026091
0.0275112
0.0157869
0.027923
0.0315102
0.0311745
0.0333079
0.0291342
0.0296555
0.0282769
0.0203745
0.0221372
0.0233266
0.0222751
0.0202532
0.0211939
0.0241162
0.01706
0.0186962
0.0205642
0.0218277
0.020567
0.0195193
0.0165317
0.0173538
0.0203927
0.0220021
0.0223775
0.0267051
0.024648
0.0225191
0.0219546
0.0214142
0.0265354
0.0231011
0.0201121
0.0148929
0.0130021
0.0145685
0.0154089
0.0220083
0.02157
0.0199901
0.0180039
0.0188685
0.0189636
0.018984
0.0187722
0.0187206
0.0177022
0.0148427
0.0141447
0.0145676
0.0163294
0.0136913
0.0131583
0.0128785
0.0127567
0.0125034
0.0149121
0.0123462
0.0158884
0.01839
0.0192186
0.0204792
0.0247654
0.0215074
0.0189846
0.0175379
0.0369164
0.0411698
0.0334863
0.0198452
0.0197811
0.0188679
0.0210391
0.0195743
0.0189915
0.018424
0.0191629
0.0187183
0.0141609
0.0179842
0.0186431
0.0196044
0.0210584
0.019611
0.0182656
0.0179597
0.0201964
0.0191284
0.0266472
0.0234274
0.0266272
0.0277176
0.0285543
0.0286018
0.0256317
0.0234302
0.0267889
0.0300697
0.0360899
0.0308608
0.0270014
0.0266496
0.0327409
0.0249869
0.0253593
0.0266259
0.0258837
0.0235615
0.0164804
0.0178693
0.0172219
0.0169361
0.0181975
0.0212278
0.0252985
0.0257844
0.0215009
0.023246
0.0229543
0.0256897
0.0254169
0.0219736
0.0221613
0.0267953
0.0281892
0.0238723
0.0243982
0.0272474
0.0256438
0.0230886
0.0182983
0.0185768
0.0250193
0.0224279
0.0258131
0.0257236
0.0274362
0.0283476
0.0274401
0.0286766
0.0243391
0.0264476
0.0284727
0.0264201
0.0194089
0.0199596
0.0165461
0.0145302
0.0160301
0.0176671
0.0163437
0.0147014
0.013318
0.0147195
0.0121264
0.0136362
0.0108923
0.0130835
0.0122324
0.0113551
0.0133637
0.0161753
0.0165257
0.0201807
0.019435
0.013361
0.0117252
0.015683
0.0247691
0.0165674
0.0161604
0.0347824
0.0341904
0.0317592
0.0376658
0.0114331
0.0153214
0.020163
0.0215302
0.0238716
0.0275934
0.0232957
0.0218661
0.0207183
0.0195188
0.0149101
0.0195429
0.0179799
0.0174429
0.0145818
0.0129357
0.0117196
0.0108691
0.0103247
0.00997457
0.00962485
0.00902853
0.00837168
0.00798434
0.00751733
0.00751618
0.00857816
0.0095582
0.00762433
0.00617471
0.00617061
0.00632772
0.00643036
0.006448
0.00639269
0.00638874
0.00614263
0.00570821
0.00541449
0.00599375
0.00671304
0.00678614
0.00696771
0.00708818
0.00719428
0.00731735
0.00830006
0.00808045
0.00832194
0.00799688
0.00788037
0.00782096
0.00678563
0.00614106
0.00586906
0.00689918
0.00883072
0.0101448
0.0110536
0.0121696
0.0136133
0.0154628
0.0183592
0.0196558
0.0172931
0.0161858
0.0140144
0.0123217
0.0100396
0.0065059
0.00549762
0.0069985
0.00770589
0.00883559
0.0087763
0.00904078
0.00915653
0.00933631
0.0112754
0.0210895
0.0225581
0.0218269
0.0156296
0.0104945
0.0176777
0.0183984
0.0238619
0.0246872
0.0207384
0.0182815
0.0139021
0.0176026
0.0226141
0.0218342
0.0215581
0.0194599
0.0169667
0.0151458
0.0129162
0.0119621
0.0107863
0.010617
0.0105756
0.0106224
0.00974565
0.00639451
0.00588612
0.0052978
0.00430003
0.00361868
0.00440365
0.00503708
0.00584193
0.00909454
0.0101321
0.0103393
0.0101754
0.0105029
0.010609
0.0107433
0.0108072
0.0109475
0.0109925
0.0110969
0.0112238
0.0111693
0.0117622
0.01214
0.0154736
0.0219028
0.0202514
0.0196858
0.0191724
0.0184381
0.0178805
0.017452
0.0170246
0.0167632
0.0164129
0.0160238
0.0157966
0.0159439
0.016944
0.0147849
0.00891868
0.00821147
0.00507351
0.00782161
0.012678
0.0135568
0.0119879
0.0132034
0.0130068
0.0136184
0.0150704
0.0158844
0.0162098
0.016619
0.0170399
0.017042
0.0173768
0.0174311
0.0187468
0.0204437
0.0205799
0.019127
0.0168925
0.0183554
0.0210722
0.0229028
0.0229521
0.0225788
0.0220769
0.0216433
0.0211995
0.020855
0.0205313
0.0202115
0.01952
0.0172115
0.0142217
0.0121325
0.0120656
0.0111637
0.0100856
0.0113462
0.00693704
0.00423439
0.0064376
0.0101977
0.00894428
0.0098401
0.0111599
0.0137182
0.014466
0.0137055
0.016411
0.0180314
0.0207669
0.0225742
0.0226489
0.0232219
0.0238806
0.024687
0.02547
0.026105
0.0270086
0.0256003
0.0230024
0.0219769
0.0191663
0.0180321
0.022641
0.0249754
0.0265552
0.0296254
0.0472833
0.0454481
0.0441635
0.0451358
0.0477964
0.0478104
0.0479668
0.0482699
0.0478839
0.0467688
0.0447508
0.0380294
0.0307052
0.02856
0.0319053
0.0348971
0.0384399
0.0407488
0.0411053
0.0421013
0.0427503
0.0437255
0.0434854
0.0431437
0.0427453
0.0419034
0.0410693
0.0395171
0.0384912
0.03712
0.0365136
0.0355565
0.0349064
0.0339165
0.0333332
0.0328587
0.0324006
0.0298307
0.0202883
0.0176261
0.015735
0.0129866
0.0107415
0.00997561
0.0116449
0.00739185
0.00465168
0.00692799
0.010569
0.0088833
0.00946763
0.0111225
0.0116014
0.0120594
0.0131997
0.0159728
0.0168394
0.0174971
0.0196619
0.0225407
0.0332962
0.0351328
0.0351176
0.035395
0.0356449
0.0365062
0.0368535
0.0376221
0.0379164
0.0389672
0.0396626
0.0407504
0.0410845
0.041654
0.041811
0.0424833
0.0424208
0.0431104
0.0811905
0.0773078
0.0786438
0.0775344
0.0791708
0.0760017
0.075228
0.0698363
0.0678782
0.0646884
0.0632824
0.0615192
0.059567
0.0584843
0.0584064
0.0621403
0.0545377
0.0330905
0.0330485
0.0531715
0.058042
0.0310941
0.0199023
0.0308464
0.0523631
0.0468777
0.0454053
0.0503828
0.0470454
0.0501774
0.0499548
0.0501584
0.0515991
0.053658
0.056673
0.062036
0.0653886
0.0713894
0.0729089
0.0768047
0.0759465
0.0783348
0.0765104
0.0819407
0.0838906
0.0792453
0.0804061
0.0769209
0.0830851
0.0792616
0.0718806
0.0655058
0.0610387
0.055919
0.0538165
0.0525506
0.0474154
0.0473806
0.045217
0.0452016
0.042974
0.0432672
0.044141
0.049919
0.0294926
0.0184472
0.0289403
0.0487866
0.0430843
0.0413071
0.0407031
0.041861
0.0428959
0.0446805
0.0450316
0.0485239
0.0539778
0.0478282
0.110442
0.0591957
0.071647
0.0554067
0.0642817
0.0471283
0.0395555
0.0400884
0.0386967
0.04574
0.0518726
0.0544075
0.0603685
0.058881
0.0645413
0.0586792
0.0592017
0.0508331
0.0547028
0.0578118
0.0608101
0.0809241
0.0858899
0.104044
0.11188
0.117141
0.108856
0.103001
0.0733613
0.0872488
0.0990388
0.0992199
0.115241
0.147473
0.127143
0.142504
0.110371
0.179092
0.0838436
0.0852176
0.0831087
0.0736158
0.0662509
0.0607674
0.0553619
0.0528711
0.109178
0.109438
0.127045
0.314294
0.175421
0.184305
0.153088
0.1556
0.104956
0.0817225
0.0866589
0.0896419
0.140988
0.1625
3.5565
0.206312
2.75972
2.30291
2.34592
2.36626
2.63301
3.97751
3.45515
3.95636
3.70078
6.09989
2.53265
1.93145
2.07559
1.98734
0.116824
0.139636
0.156408
0.167635
0.160794
0.155756
0.303642
6.04255
0.263949
0.209391
0.198752
0.203821
0.262175
0.208335
0.0793979
0.0490738
0.041582
0.144759
11.7856
3.95067
0.329192
0.135859
0.766664
0.553969
5.93293
0.213619
0.104998
0.0368917
0.0191435
0.0264979
0.041003
0.0809175
0.215838
0.0927777
0.228238
0.0837211
0.203104
0.159092
0.061003
0.0320661
0.0415713
0.0268941
0.0434031
0.0266193
0.0205883
0.0174322
0.015059
0.0224073
0.0564222
0.218544
10.6589
1.80129
0.615234
6.16684
8.95907
0.888303
0.388451
4.99137
0.208759
0.0535027
0.0199668
0.0160582
0.0151166
0.0159256
0.0177087
0.0207732
0.0188139
0.0226687
0.0217931
0.0304272
0.0582596
0.15969
0.152403
0.0579226
0.0304854
0.022215
0.01864
0.0184038
0.016818
0.01699
0.015394
0.0147855
0.0146961
0.0157974
0.0245404
0.132117
3.99884
0.303866
0.343418
3.93308
0.135393
0.0230994
0.0150604
0.0143917
0.0146837
0.0152784
0.0153204
0.0166613
0.0180151
0.0205985
0.0253692
0.038775
0.0736481
0.220803
4.02523
4.05921
3.93212
4.06485
0.224021
0.0869415
0.044597
0.0276519
0.0221404
0.0192671
0.0163594
0.0153281
0.0146541
0.01433
0.0143594
0.0213182
0.13767
3.9669
0.376854
0.367178
4.55332
0.235632
0.0559636
0.0142958
0.0144863
0.0160721
0.0170753
0.0309865
0.034328
0.0402792
0.0546371
0.0932264
0.23552
3.43651
2.39866
2.19334
0.162376
0.15245
0.148817
0.148045
0.227989
0.055575
0.232153
0.0567818
0.23594
6.36991
6.18991
0.404478
0.383155
0.548151
7.22358
6.04508
0.442045
0.702374
7.33127
4.21308
0.276357
0.230765
3.49217
2.74023
0.155269
0.134161
2.63196
2.41169
0.119086
0.105486
0.113203
0.143312
0.165257
0.183315
0.182996
0.224805
0.267829
0.0763364
0.0529718
0.0452494
0.0674471
0.152899
0.134819
0.232137
0.273456
0.405307
0.264204
0.203893
0.376561
1.88384
0.325702
0.136259
0.14133
1.54632
0.0642404
0.0372131
0.0286477
0.0304968
0.032355
0.0378515
0.0505761
0.0394566
0.0497602
0.0351207
0.0440281
0.0588333
0.160978
0.165543
0.212567
0.128162
0.100822
0.162766
0.28283
0.342435
0.216245
0.117075
0.630122
0.114789
1.69371
1.53182
2.21477
10.8667
2.93165
1.42302
1.25195
1.35871
2.82856
11.4275
5.68128
0.396826
0.0713141
1.54788
0.192637
0.111246
0.195808
0.303277
1.57502
0.0912648
0.0502584
0.0325336
0.0224191
0.0257699
0.035002
0.0439582
0.0415855
0.0414867
0.0274008
0.0308897
0.0348916
0.0431117
0.0434093
0.0488828
0.0361829
0.0430166
0.0508171
0.117636
0.0774379
0.0463159
0.057924
0.183622
0.296699
0.14605
0.0805947
0.185522
0.598622
0.704494
0.343802
2.64299
0.127117
0.458364
0.769855
1.50746
7.27129
1.21559
0.393115
0.0741328
0.0287499
0.0465199
0.0878182
0.0540508
0.0336821
0.0291248
0.0353239
0.0378506
0.0321426
0.0291839
0.0244231
0.0297999
0.0282525
0.022567
0.0294049
0.0259135
0.0266444
0.0288254
0.0313152
0.0291603
0.0296872
0.0283314
0.0324114
0.0336282
0.0896535
0.0418807
0.0304376
0.0812745
0.0481735
0.123996
0.0385988
0.0661204
0.0445092
0.0451548
0.154234
0.0694744
0.0541677
0.142819
0.0677681
0.0534656
0.10086
0.056482
0.0461589
0.0616069
0.0418756
0.0495807
0.0549477
0.0704825
0.0676967
0.0736272
0.0727446
0.0613031
0.158589
0.0539373
0.0472268
0.0814382
0.08504
0.0840272
0.0796714
0.0836714
0.0820013
0.0815812
0.0780744
0.0826968
0.0821183
0.0824497
0.0825824
0.0840332
0.0852621
0.0806277
0.0855986
0.087384
0.0827196
0.0866989
0.0860025
0.0863872
0.0874557
0.580617
2.11056
1.07223
0.563584
0.719706
1.48062
2.46151
0.982017
0.725786
0.202767
0.402987
0.259949
0.375028
0.236151
0.131177
0.098135
0.150084
0.104397
0.109239
0.113728
0.350149
0.152954
0.16491
0.117223
0.209777
0.384549
0.865771
0.438072
0.247428
0.279093
0.539259
0.817581
0.397908
0.0926615
0.0925597
0.0882217
0.0844089
0.0879046
0.0862635
0.0838813
0.0880849
0.0963655
0.095366
0.0858293
0.0798309
0.0815771
0.073604
0.0719787
0.0800121
0.0935285
0.0789393
0.0629424
0.0573109
0.0594014
0.04544
0.042998
0.0486167
0.0597605
0.068966
0.0801181
0.0811969
0.0830526
0.077547
0.0774098
0.0726277
0.0669984
0.0619672
0.0582922
0.0550941
0.0508226
0.0485758
0.0467773
0.0433606
0.0427651
0.042963
0.0451297
0.0469155
0.0501813
0.0270675
0.0173884
0.0149359
0.0125205
0.0112541
0.0135067
0.0132805
0.0139707
0.0147533
0.0171732
0.0276008
0.0471298
0.0421058
0.0398121
0.0407512
0.0417533
0.0678632
0.0383926
0.0266968
0.0310742
0.0390098
0.0972546
0.126638
0.0466795
0.0427996
0.0288292
0.0394677
0.0888855
0.15267
0.0947975
0.0547306
0.0901037
0.139919
0.234757
0.167801
1.44522
0.0626898
0.0675024
0.273121
1.41792
3.70117
0.232536
0.035162
0.0268964
0.0212873
0.0244038
0.0299012
0.0370402
0.0373514
0.0372877
0.0225531
0.0250265
0.0281651
0.0350144
0.0377344
0.0427443
0.0286893
0.0335993
0.0408869
0.0981884
0.0760303
0.0441983
0.0487609
0.0306884
0.0460858
0.0556943
0.155998
0.188907
0.10107
0.0616944
0.113835
0.0211173
0.0200088
0.0208161
0.022625
0.0110931
0.0262387
0.0292682
0.0182225
0.0291246
0.0337821
0.0263656
0.0252502
0.0217583
0.0214517
0.0249379
0.0357101
0.01748
0.0666944
0.363057
0.271921
0.259877
2.17817
2.32344
2.26281
1.41854
0.288349
0.463743
0.740343
0.61255
0.458944
0.27313
0.21937
0.309169
0.243241
0.0923567
0.10242
0.110232
0.0995793
0.0804812
0.0787415
0.0801166
0.083168
0.0863227
0.114867
0.0997647
0.115449
0.0916207
0.099078
0.134333
0.251195
0.208446
0.130075
0.208079
0.118113
0.276457
0.420728
0.671188
1.18735
0.707495
0.399004
0.247911
0.410662
0.380221
0.693693
1.01405
0.883949
0.910893
0.578348
0.406422
0.735001
0.314192
0.0994184
0.132088
0.146348
0.186285
0.936197
0.381571
0.411892
0.161967
0.335729
1.14833
0.149767
0.0961951
0.0811789
0.0755962
0.0797205
0.0552205
0.0710707
0.0430206
0.05064
0.0509627
0.10488
0.0594969
0.0682565
0.0631842
0.0650394
0.216975
0.077639
0.101648
0.0821873
0.0846981
0.4263
0.11871
0.134752
0.088057
0.085015
0.358529
0.13908
0.0814543
0.0518457
0.0394096
0.048302
0.0472468
0.0548669
0.0608161
0.0702093
0.0723375
0.0786358
0.0768305
0.0730517
0.074726
0.0730106
0.066529
0.0641558
0.0597165
0.0569287
0.0523908
0.049793
0.0480453
0.0469152
0.0462277
0.0458474
0.0491444
0.0297209
0.029391
0.0287471
0.0254504
0.0119109
0.0202982
0.041159
0.0454818
0.0268676
0.0246004
0.0154788
0.0152705
0.0161867
0.0258921
0.0270953
0.0461067
0.0410764
0.0386037
0.0403251
0.0388668
0.0378966
0.0395373
0.0443174
0.0435926
0.025536
0.0242893
0.0416734
0.0373413
0.0387041
0.0379394
0.03909
0.0374277
0.0360564
0.035022
0.0368396
0.0411385
0.0240962
0.0242754
0.0412526
0.0370559
0.0356226
0.0378281
0.0371563
0.0760818
0.034803
0.0435395
0.0704656
0.120435
0.0996816
0.0744949
0.0386998
0.0636997
0.101436
0.109034
0.0526223
0.0391671
0.0477405
0.038029
0.0269876
0.034813
0.0423547
0.0700909
0.486017
0.0938382
0.0668073
0.135001
0.0782812
0.0768477
0.0666897
0.0418669
0.0585024
0.027904
0.0545025
0.0347635
0.0266541
0.0305172
0.0354728
0.0718394
0.0312669
0.031928
0.0231525
0.0260739
0.0238096
0.0213627
0.0334098
0.0214412
0.0235493
0.0260069
0.0329793
0.0340142
0.0203208
0.0190431
0.0186298
0.0102461
0.0208712
0.0215201
0.0102584
0.0266083
0.0282531
0.0313484
0.0263265
0.0239699
0.0205811
0.019637
0.0189741
0.0194214
0.0104654
0.0208973
0.0206208
0.0102024
0.0254736
0.0293937
0.0330108
0.0248908
0.0252568
0.023351
0.024084
0.0121747
0.0208116
0.0204131
0.0225852
0.0267115
0.0282761
0.021917
0.0153033
0.0217474
0.0202274
0.0230968
0.0235475
0.0233102
0.0228978
0.0165919
0.0222715
0.0293687
0.0272941
0.0246006
0.0224636
0.0371603
0.0378551
0.041945
0.022744
0.0138157
0.0215492
0.0221831
0.0226733
0.0223976
0.02081
0.0266845
0.0423646
0.03929
0.0363212
0.0342353
0.0249202
0.0163367
0.0123543
0.0114522
0.0121307
0.0183225
0.0135439
0.012024
0.0107833
0.0138465
0.0485308
0.659311
1.87554
2.75531
4.20547
0.37814
0.175779
0.0651444
0.0875399
0.0675516
0.078448
0.07558
0.153946
0.174961
0.172096
0.111055
0.107243
0.0780912
0.115268
0.117222
0.193052
0.367728
4.66403
3.91272
1.73868
0.84496
0.183257
0.139824
0.192035
0.280603
0.0878996
3.29115
1.373
0.372813
1.41791
0.428299
0.0366563
0.0230162
0.0127172
0.0118187
0.0193509
0.0189666
0.0187115
0.0184015
0.0181959
0.0179988
0.0177028
0.0172667
0.0154334
0.0087035
0.007852
0.00855379
0.00873587
0.00918975
0.0099524
0.0109559
0.0122315
0.0141271
0.0156311
0.0159508
0.032925
0.018758
0.02343
0.0199296
0.0232896
0.0373918
0.0260685
0.0291867
0.0211815
0.020568
0.0189983
0.0185551
0.0230776
0.0262075
0.030225
0.0301225
0.0258807
0.0229907
0.0229625
0.0202438
0.0171235
0.0161554
0.014789
0.0170055
0.0239042
0.0239345
0.0241567
0.0145403
0.0147363
0.010749
0.00680079
0.00684946
0.00534063
0.00529127
0.005797
0.00753697
0.00863965
0.00973996
0.0108752
0.0117284
0.012497
0.0103201
0.0100094
0.0108328
0.00795773
0.00806693
0.00790334
0.00803313
0.00823523
0.00946912
0.00829632
0.00752572
0.00766399
0.00761684
0.00809069
0.00833144
0.00891332
0.00977398
0.0100614
0.0105294
0.010057
0.0104296
0.0105041
0.0107442
0.0108457
0.0122172
0.0149871
0.0147386
0.0136145
0.0128723
0.0128857
0.0136361
0.0143532
0.0143554
0.0122631
0.0120024
0.0120896
0.0118651
0.0120193
0.0117749
0.0120263
0.0116315
0.0115894
0.0111498
0.0112366
0.0114456
0.0132793
0.0142445
0.0115334
0.00982182
0.0107547
0.0125446
0.0132216
0.0137142
0.0126427
0.012522
0.0153048
0.0152886
0.0320449
0.0414181
0.0658222
0.117165
0.197379
0.085957
0.11807
0.290163
0.20313
0.0823269
0.0398267
0.0254275
0.02661
0.0220253
0.020918
0.020074
0.0249094
0.0200203
0.0283066
0.0326007
0.0477407
0.065442
0.0876892
0.0512088
0.0312039
0.0202122
0.0215145
0.0375641
0.0406238
0.0343226
0.029014
0.0308894
0.0227266
0.0262319
0.0270705
0.030119
0.0307049
0.0308473
0.031488
0.0322714
0.0331414
0.034106
0.0352819
0.0351475
0.0327319
0.0334934
0.033338
0.0325619
0.032261
0.0312382
0.0313346
0.030248
0.0304315
0.0293439
0.029495
0.0284749
0.0286222
0.0280816
0.0287644
0.0297604
0.0331829
0.0288487
0.0240411
0.0265104
0.0335541
0.0338405
0.0337592
0.0331668
0.0316838
0.0315861
0.0354182
0.0376674
0.0358817
0.0378923
0.0273357
0.0254524
0.0268205
0.0270703
0.0289071
0.0294446
0.0311649
0.0312266
0.0325291
0.0324815
0.0336463
0.0336643
0.034863
0.0352689
0.0365101
0.0375803
0.0387544
0.087126
0.0862628
0.0851441
0.0792161
0.0758742
0.0699418
0.0684847
0.0645884
0.0649578
0.0612837
0.0611216
0.0569891
0.0556461
0.0515502
0.0480701
0.0573639
0.0476379
0.0638525
0.0530545
0.0883311
0.109431
0.0758067
0.0773938
0.0604749
0.0635656
0.0658499
0.0694822
0.0708239
0.0741824
0.0752435
0.0798717
0.0847136
0.0938388
0.103178
0.112469
0.115512
0.12221
0.112321
0.0868563
0.0795654
0.0880675
0.0876843
0.0772103
0.0892737
0.0684849
0.0822835
0.080243
0.0778061
0.0715782
0.0784075
0.093528
0.0868761
0.103902
0.104568
0.0661928
0.0765151
0.0706444
0.0520811
0.0516131
0.0453136
0.0337957
0.0299506
0.041347
0.0404031
0.0394124
0.0385839
0.0379723
0.0373297
0.0374026
0.0382019
0.0433619
0.0298457
0.0186378
0.0143684
0.015031
0.0119315
0.0110082
0.0116408
0.0119047
0.0120555
0.0123497
0.0128399
0.01239
0.0122292
0.0121892
0.0119861
0.0117673
0.0119062
0.0118231
0.0118897
0.0115859
0.011591
0.0117537
0.0117159
0.0119044
0.0117984
0.0115654
0.0114445
0.0115744
0.0127251
0.0133401
0.0136849
0.0175422
0.016494
0.0160292
0.0158597
0.0155275
0.0148357
0.0100251
0.0101086
0.0102134
0.0101439
0.0108378
0.0111281
0.0157538
0.0172798
0.0172347
0.0189279
0.0191153
0.0294636
0.0275422
0.0261752
0.0301677
0.0360712
0.0366113
0.0280491
0.0308398
0.0199894
0.0345344
0.0330144
0.0345872
0.0347556
0.034112
0.0347906
0.0348217
0.0211171
0.0205458
0.0202775
0.019946
0.0211169
0.0184008
0.0116334
0.0125255
0.011876
0.0123682
0.0129318
0.016716
0.0139118
0.0148116
0.0289309
0.0293305
0.0260815
0.029449
0.0353173
0.044856
0.0540564
0.0642495
0.0726945
0.0770419
0.0800752
0.0660965
0.067085