/*--------------------------------*- C++ -*----------------------------------*\
| =========                 |                                                 |
| \\      /  F ield         | OpenFOAM: The Open Source CFD Toolbox           |
|  \\    /   O peration     | Version:  v2012                                 |
|   \\  /    A nd           | Website:  www.openfoam.com                      |
|    \\/     M anipulation  |                                                 |
\*---------------------------------------------------------------------------*/
FoamFile
{
    version     2.0;
    format      ascii;
    class       volScalarField;
    location    "710";
    object      alphat;
}
// * * * * * * * * * * * * * * * * * * * * * * * * * * * * * * * * * * * * * //

dimensions      [1 -1 -1 0 0 0 0];


internalField   nonuniform List<scalar> 
18258
(
0.00485408
0.00211237
0.00173223
0.00150154
0.000992741
0.00162516
0.00225674
0.00268625
0.00281803
0.00279344
0.0028918
0.00487907
0.00684645
0.00846053
0.00888735
0.00887395
0.0080544
0.00769059
0.00835357
0.0102727
0.00863976
0.0055351
0.00662855
0.00766562
0.00835014
0.00739915
0.00598092
0.00553856
0.00501566
0.0041818
0.00350765
0.00239643
0.00175597
0.0016273
0.00147527
0.00168191
0.00183212
0.00195403
0.00199766
0.00202907
0.00201517
0.00200357
0.00194928
0.00191533
0.00185771
0.00153532
0.00184961
0.0019121
0.0020924
0.00288607
0.00309848
0.00260575
0.00288414
0.00257276
0.00169543
0.00194149
0.00210767
0.00215308
0.00212524
0.00203686
0.00200697
0.00198165
0.00194961
0.0019116
0.0018884
0.00190721
0.00192686
0.0019058
0.00181199
0.001736
0.00161304
0.0014898
0.00139841
0.00132761
0.00127423
0.00121512
0.0011487
0.001009
0.000935114
0.00123815
0.00155428
0.00166058
0.00235346
0.00286923
0.00288852
0.00216207
0.0015407
0.00159887
0.00177769
0.00179591
0.00152233
0.00181058
0.00205131
0.00212625
0.00221583
0.00247637
0.00281787
0.0027466
0.00244596
0.00225317
0.00222159
0.0025416
0.00241331
0.00312953
0.00315494
0.0027557
0.0025283
0.00284573
0.00366942
0.0039494
0.00307263
0.00288548
0.00282848
0.00279288
0.00252554
0.00261326
0.0023728
0.00213798
0.00232888
0.00281529
0.0026706
0.00291746
0.00302279
0.0028356
0.00328541
0.00378839
0.00373328
0.00298756
0.00243501
0.00226983
0.00228719
0.00139886
0.00151061
0.00162822
0.00166808
0.00169589
0.00171958
0.00183359
0.00182946
0.00180269
0.00179871
0.0018309
0.00100881
0.00109287
0.00111999
0.00112782
0.00107125
0.00106027
0.00104055
0.00102448
0.000965791
0.000924081
0.00110578
0.00124172
0.00135254
0.00148208
0.00167557
0.00191234
0.00216119
0.00241269
0.00257915
0.00262673
0.00267475
0.00257806
0.00248062
0.00256929
0.00258431
0.00256771
0.00253328
0.00248982
0.00243112
0.00232346
0.0024488
0.00244224
0.0022944
0.00196566
0.00200993
0.0020065
0.00205876
0.00204801
0.00206852
0.00203895
0.00200425
0.00190756
0.00177261
0.00147579
0.00144411
0.00146206
0.00187693
0.00227825
0.00351867
0.00429091
0.00497959
0.00532682
0.00569964
0.00461388
0.00513594
0.00396091
0.00355577
0.00451856
0.00591107
0.00337278
0.00184284
0.00349417
0.00310083
0.00225061
0.0020031
0.00206407
0.00206344
0.00236408
0.00272666
0.00302871
0.00317554
0.00330459
0.003408
0.00352142
0.00366518
0.00370412
0.00357814
0.00302762
0.00365042
0.00296493
0.00346224
0.00313009
0.00211663
0.00220476
0.00234972
0.00215513
0.002098
0.00200748
0.00181004
0.00224046
0.00290586
0.00337253
0.0038557
0.00513964
0.00475508
0.00456248
0.00353246
0.00341595
0.00177361
0.00253061
0.0026198
0.00294961
0.00196013
0.00178905
0.00169789
0.00224254
0.00259871
0.00306796
0.00340445
0.00404403
0.00313594
0.00358012
0.00323962
0.00225925
0.00217235
0.00310972
0.00334968
0.00275535
0.00246071
0.00308804
0.00292314
0.00207416
0.00165468
0.00254325
0.00263193
0.00189098
0.0047272
0.00503893
0.00480762
0.00585786
0.00733011
0.00835465
0.00778857
0.00690366
0.00770101
0.00610991
0.00592739
0.00633201
0.00531061
0.00370374
0.00379751
0.0039269
0.00403255
0.00432921
0.00459892
0.00492847
0.00524326
0.00476633
0.00395752
0.00299459
0.00206026
0.00203289
0.00202296
0.00181649
0.00269192
0.0040715
0.00404298
0.00229681
0.00133914
0.00151515
0.00171108
0.00169437
0.0012291
0.000925277
0.00159402
0.0018226
0.00185202
0.00180602
0.00170517
0.0017818
0.00286138
0.0044081
0.00484359
0.00501659
0.00518023
0.00529574
0.00535989
0.00538003
0.0053911
0.00540475
0.00541675
0.00543523
0.00541833
0.00530291
0.00466434
0.00293266
0.00171434
0.00159258
0.00175766
0.00188902
0.00200373
0.00170497
0.00104241
0.00166504
0.00213199
0.00245041
0.00247127
0.00230634
0.00223727
0.00352771
0.00469044
0.00552875
0.00569847
0.00577393
0.00571037
0.00570192
0.00557722
0.00553815
0.0048562
0.00347603
0.00380093
0.00408143
0.00412877
0.00422464
0.00436851
0.00426762
0.00403143
0.00589068
0.00679688
0.00688383
0.00702971
0.00694572
0.00682499
0.00651429
0.00615953
0.00518507
0.00388819
0.00245315
0.00250411
0.00266549
0.0026397
0.00229756
0.0024212
0.00262802
0.00265437
0.00274123
0.00307451
0.00349223
0.00333094
0.00286594
0.00243441
0.00226669
0.00221937
0.00212951
0.0015953
0.00161897
0.00157353
0.00159937
0.00214808
0.00255658
0.00294856
0.00418287
0.00373127
0.00303438
0.00481347
0.00493213
0.00529959
0.00585407
0.00599909
0.00664782
0.00462591
0.00416842
0.00428213
0.00349777
0.00323743
0.00327185
0.00328415
0.00306044
0.00334988
0.00332056
0.00320067
0.0035338
0.00389449
0.00513575
0.0062238
0.00656742
0.00676631
0.00684815
0.00682311
0.00669048
0.0067324
0.00591342
0.00590729
0.00565755
0.00549458
0.00543638
0.00516592
0.00591326
0.00613943
0.006215
0.0063703
0.00661208
0.00643298
0.00623279
0.00608045
0.00596997
0.0058543
0.0059166
0.00602696
0.0061446
0.00630971
0.00653028
0.00656666
0.00633822
0.00616551
0.00604724
0.0059361
0.00594067
0.00603979
0.00615527
0.00631892
0.00652778
0.00641165
0.00624939
0.00610473
0.00598601
0.00588141
0.00567564
0.0058129
0.00596381
0.00608815
0.0061687
0.00532944
0.00569674
0.00559861
0.00506864
0.00474377
0.00360241
0.00389863
0.0041113
0.00447795
0.00497062
0.00506744
0.00425219
0.0036439
0.00355062
0.0035219
0.00360468
0.0036346
0.0036524
0.00412719
0.00622185
0.00626377
0.00628123
0.00628375
0.00537217
0.00521988
0.00486322
0.00889662
0.00828221
0.00717495
0.00591196
0.00316746
0.00271509
0.00321639
0.00391136
0.0043729
0.0048253
0.00320377
0.00198416
0.00231231
0.00239694
0.00233753
0.00216025
0.00179957
0.00166119
0.00150765
0.00162263
0.0028742
0.00458729
0.0051673
0.00522226
0.00517048
0.00506972
0.00494696
0.00477591
0.00472039
0.00596303
0.00808582
0.00909665
0.00905661
0.00778011
0.00634857
0.00358513
0.00185376
0.00137503
0.00146106
0.00160616
0.00188349
0.0016755
0.00142829
0.00156378
0.00147519
0.00298341
0.00513904
0.0065272
0.00775429
0.00763897
0.00664986
0.00542072
0.00512811
0.005248
0.00532954
0.00539856
0.00546927
0.00551772
0.00548688
0.00499399
0.00308495
0.00184136
0.0016358
0.00175865
0.00206122
0.00219066
0.00221359
0.00218322
0.00189285
0.00313104
0.00497105
0.00316174
0.00172493
0.00186353
0.00184963
0.00326294
0.00325816
0.00318824
0.00496016
0.00524515
0.00523299
0.00491702
0.00469344
0.00277896
0.00315491
0.00316577
0.00318249
0.00323464
0.00163418
0.00178147
0.00183717
0.00197825
0.00172846
0.00219432
0.000567902
0.000787475
0.000914874
0.000995003
0.00107207
0.00105167
0.00201244
0.00204245
0.00194892
0.00189767
0.00240803
0.00258382
0.00264057
0.00243173
0.0022437
0.0023885
0.00239397
0.00225637
0.00213716
0.00221561
0.002217
0.00212455
0.00180705
0.00169332
0.00185895
0.00183905
0.00182451
0.00327597
0.00327009
0.00309494
0.00508434
0.00500297
0.00560317
0.00556647
0.00555915
0.00553593
0.00559538
0.00562704
0.00565118
0.00567904
0.00566824
0.00561351
0.00780981
0.00552225
0.00481883
0.00278711
0.00268483
0.00189619
0.00166186
0.00195685
0.00209293
0.00226904
0.00221776
0.00233787
0.00233499
0.00247773
0.00229972
0.00204196
0.00312735
0.00334088
0.00326292
0.0033274
0.00324909
0.00322991
0.00320626
0.00316085
0.00310606
0.00184953
0.00181432
0.00212457
0.00223021
0.0023964
0.00241804
0.00247054
0.00234298
0.00206052
0.00199452
0.00229712
0.00226611
0.00231027
0.00217815
0.00216905
0.00193224
0.00198121
0.00399471
0.00737333
0.00379566
0.0042162
0.00382009
0.00434473
0.00380575
0.00328231
0.00335938
0.00295894
0.00308653
0.00323759
0.00329613
0.00346429
0.00408355
0.00393132
0.00345084
0.00335066
0.00328473
0.00309722
0.00278789
0.00292026
0.00294638
0.00300959
0.00334485
0.00383723
0.00430091
0.00522703
0.00507224
0.00444314
0.00406249
0.00426037
0.00433446
0.00545666
0.00509758
0.00506735
0.00534582
0.00529295
0.00502325
0.00475943
0.00459393
0.00394406
0.00400884
0.0045875
0.0044392
0.004575
0.00449485
0.00467342
0.00475812
0.00456646
0.0042438
0.00446281
0.00445406
0.00494585
0.00480949
0.00446181
0.00408049
0.00436349
0.00431145
0.00497969
0.00468665
0.00438316
0.00403567
0.00386639
0.00438789
0.00430707
0.00488328
0.00502563
0.00502804
0.00438386
0.00428125
0.00509099
0.00489748
0.00473198
0.00492908
0.00408247
0.00419769
0.00517107
0.00527913
0.00500931
0.00418293
0.00424561
0.00363953
0.00428071
0.00532825
0.00503269
0.00412505
0.00342353
0.00478904
0.00503789
0.00532914
0.00503647
0.0054845
0.0059079
0.00481612
0.00523937
0.00684563
0.00522672
0.0060651
0.00619927
0.00623554
0.00623847
0.00626225
0.00629308
0.00662923
0.0064468
0.00410154
0.00490347
0.00476426
0.00398718
0.00339314
0.00373694
0.00402486
0.00408328
0.00418707
0.00434649
0.00427148
0.00412871
0.00604423
0.00689348
0.00704577
0.00718477
0.00706495
0.00688633
0.00648107
0.00599057
0.00498382
0.00371923
0.00232432
0.00237058
0.00252753
0.0025051
0.00217464
0.00163996
0.00107749
0.00159626
0.00164889
0.00155274
0.00141599
0.00125203
0.00129841
0.00236057
0.00431396
0.00621803
0.00693816
0.00752833
0.00811537
0.00862847
0.00901446
0.0093021
0.00950539
0.00963628
0.00966657
0.0094914
0.00866767
0.00828572
0.00780886
0.00741492
0.00686389
0.00642516
0.00726756
0.00798021
0.00841601
0.00890579
0.00912971
0.00903074
0.00783683
0.00761173
0.00877757
0.0108141
0.00919991
0.0115605
0.0135759
0.0105738
0.00949246
0.00947396
0.0105944
0.0108008
0.0104253
0.0098361
0.00915834
0.00829576
0.0087383
0.00913712
0.00951865
0.00987013
0.0107704
0.010923
0.0108348
0.0106499
0.0104142
0.0101062
0.00964198
0.00899418
0.00818665
0.00734701
0.00638662
0.00438245
0.00220589
0.00248409
0.00245248
0.00250674
0.00250491
0.00119281
0.00131557
0.00132984
0.00133564
0.00125719
0.00142984
0.0020688
0.00332468
0.00239148
0.00197165
0.00136944
0.00160577
0.00267582
0.00452769
0.00510227
0.00521062
0.00568016
0.00734263
0.00800067
0.00844193
0.00880797
0.00902201
0.00891759
0.00864898
0.00816789
0.00756722
0.00731664
0.00690626
0.00653277
0.00632097
0.00610716
0.00572659
0.00449558
0.00432539
0.00450343
0.00444896
0.00425844
0.00454945
0.00471271
0.00470767
0.00475902
0.00480393
0.00494499
0.00511115
0.00525569
0.00533124
0.00535891
0.00536728
0.00537783
0.00538614
0.00540229
0.00538376
0.00526575
0.00462379
0.00289195
0.00168848
0.00156116
0.00171169
0.00181011
0.00185223
0.00164496
0.00105897
0.00164571
0.00213008
0.00218462
0.00239666
0.00247211
0.00261952
0.00291686
0.00337042
0.00347779
0.00308626
0.0029236
0.0028619
0.00278919
0.00239058
0.00297887
0.00328079
0.00327384
0.00324206
0.00350368
0.00431149
0.00414193
0.00365282
0.00361294
0.00357709
0.00323925
0.00319002
0.00348077
0.00351868
0.00364927
0.00427858
0.00513057
0.00476019
0.00433599
0.00415781
0.00384028
0.00338315
0.00305919
0.00375534
0.00307737
0.0016322
0.00139241
0.00138239
0.00138975
0.0013432
0.00159025
0.00167096
0.00169036
0.00156786
0.00174019
0.00193698
0.00187405
0.00212725
0.00209845
0.00187796
0.00186259
0.00201061
0.0021187
0.00217483
0.00224007
0.00365982
0.0037792
0.00292309
0.00421963
0.00486916
0.00482672
0.00511567
0.00421306
0.00377411
0.00447803
0.00517435
0.00593472
0.00469425
0.00443762
0.00454128
0.00209075
0.00110009
0.00155189
0.00192631
0.0021459
0.00208096
0.00196551
0.0016615
0.00294214
0.00302324
0.00478548
0.00536846
0.00543503
0.00540334
0.00558093
0.00617036
0.00719959
0.00791113
0.00811836
0.00799945
0.00766728
0.00705038
0.00643742
0.00637641
0.00614164
0.00596274
0.00590132
0.00512404
0.00453267
0.00484375
0.00476553
0.00492476
0.00499816
0.00505091
0.00510474
0.00519552
0.00530515
0.00540446
0.0054718
0.00551627
0.00555375
0.00559234
0.00563133
0.00567364
0.005696
0.00564119
0.00509786
0.00305959
0.001825
0.00166523
0.00177681
0.00208817
0.00219853
0.00236295
0.00209868
0.00110558
0.00129953
0.00225884
0.00250345
0.00231592
0.00216757
0.00212903
0.00178357
0.00322856
0.00318582
0.00499663
0.00561934
0.00569805
0.00568263
0.00563906
0.00559009
0.00554474
0.00550767
0.00547845
0.00544717
0.00540171
0.00534616
0.00529351
0.00523999
0.0051479
0.00501539
0.00488327
0.00508236
0.00523467
0.00544239
0.00568951
0.00582696
0.00572734
0.00556142
0.00547411
0.00549634
0.00554123
0.005589
0.00563201
0.00565225
0.00559016
0.00526935
0.00494616
0.00313527
0.00317584
0.0015649
0.00173855
0.00200597
0.0020717
0.00225037
0.00224054
0.00176247
0.00137311
0.00154858
0.00144669
0.00258311
0.00284013
0.00314863
0.00311729
0.00169471
0.00173795
0.00180625
0.00203834
0.00189564
0.00183111
0.00449789
0.00431554
0.00452037
0.00554543
0.00477866
0.00330265
0.00361997
0.00503626
0.00530966
0.00321187
0.00240915
0.002672
0.00338492
0.00498221
0.00504297
0.00478924
0.00476386
0.00348116
0.0042793
0.00514555
0.00500448
0.00390666
0.00269187
0.0020034
0.000976113
0.00185689
0.00158805
0.00388584
0.00429938
0.00424734
0.00464423
0.00493543
0.00498619
0.00484392
0.00429866
0.00438369
0.00442658
0.00504172
0.00506287
0.00428946
0.00362014
0.00294284
0.00296845
0.00302521
0.00335176
0.00419666
0.00395427
0.00346627
0.00336183
0.00329
0.00309536
0.00279372
0.00245118
0.0024679
0.00229695
0.00222286
0.00350367
0.00466342
0.00549901
0.00565735
0.00571499
0.00562783
0.00558868
0.00542961
0.00534768
0.0046464
0.00593245
0.00626962
0.00604909
0.00609295
0.00613014
0.00617597
0.00617593
0.00605918
0.00520787
0.00311068
0.00203214
0.00229379
0.00247594
0.00232522
0.00231189
0.00246379
0.00233768
0.00205332
0.00332654
0.00325118
0.00519752
0.00588489
0.00601158
0.00601979
0.00599613
0.00597657
0.00598455
0.00629959
0.00615519
0.0062344
0.00656522
0.00657872
0.00665857
0.00625165
0.00617221
0.00612156
0.00608773
0.00603254
0.00588467
0.00520778
0.00504872
0.00573313
0.00590961
0.00598794
0.00604241
0.00610766
0.00619352
0.00644005
0.00662308
0.00668984
0.0064172
0.00631994
0.00617369
0.00596468
0.00591546
0.00590526
0.00590058
0.00587164
0.00571894
0.00503486
0.00323779
0.00331774
0.00197387
0.00198687
0.00228853
0.00240391
0.00236123
0.00218669
0.00213208
0.00366043
0.00416657
0.0044343
0.00477404
0.00455911
0.00453295
0.00518227
0.0050154
0.00447464
0.00465447
0.00417268
0.00397801
0.00384227
0.00386206
0.00203825
0.0021993
0.00229383
0.00225556
0.00215684
0.00192362
0.001764
0.00321881
0.00319529
0.00315329
0.00187579
0.00183479
0.00216166
0.00209943
0.00192067
0.0016372
0.00179465
0.00276977
0.00309769
0.00480241
0.00497416
0.00532519
0.00569479
0.00583498
0.00587287
0.00589529
0.00592126
0.00597666
0.00604288
0.00606154
0.00606029
0.00611672
0.00610833
0.00610827
0.006074
0.00603537
0.00599095
0.00594398
0.00586761
0.00571112
0.00533675
0.00496973
0.00560331
0.00565508
0.00576087
0.00587066
0.00591834
0.00592741
0.00590834
0.00586831
0.00582091
0.0057646
0.00576273
0.00591596
0.005951
0.00597753
0.00595859
0.00593872
0.00593281
0.0059084
0.00586735
0.00575911
0.00565019
0.00560323
0.00550953
0.00565729
0.00572283
0.00573308
0.00578868
0.00587733
0.00590041
0.00589678
0.00585193
0.00581533
0.00577044
0.00569739
0.00560402
0.00528412
0.00535161
0.00543931
0.00555353
0.00566408
0.00575329
0.00580276
0.00580443
0.00574967
0.00571295
0.00571378
0.00566532
0.00569087
0.00571737
0.00568949
0.00568786
0.00569463
0.00563326
0.00551853
0.0053579
0.00518733
0.00504485
0.00496948
0.00484772
0.00522728
0.00536976
0.00549747
0.00561143
0.00571613
0.00582318
0.00585948
0.00585137
0.00578625
0.00574906
0.00574705
0.00569135
0.00568932
0.00574321
0.00574586
0.00577705
0.00583423
0.00581438
0.00573316
0.00553315
0.00534015
0.00517405
0.00501665
0.00484793
0.00479155
0.00486996
0.00481085
0.00488428
0.00505617
0.00526886
0.00545127
0.00556513
0.00559929
0.0056317
0.00568116
0.00567439
0.00564446
0.00562943
0.00556245
0.00550476
0.00543341
0.00527377
0.00506737
0.00488292
0.00481981
0.00491468
0.00501337
0.00492221
0.00457953
0.00475958
0.00492579
0.00509243
0.00533193
0.00561047
0.00573659
0.00578143
0.00575472
0.00573354
0.00573051
0.0056795
0.00566241
0.00570924
0.00571277
0.00573403
0.00576961
0.0057284
0.00562268
0.00527969
0.00487847
0.00468877
0.00457898
0.00442147
0.00494625
0.00504985
0.00492417
0.00484014
0.00497189
0.00512749
0.00528913
0.00539589
0.0054369
0.00549397
0.00556935
0.00560453
0.00554997
0.00548787
0.00541044
0.00537042
0.00536844
0.00533844
0.00523272
0.00511168
0.00497634
0.00514507
0.00524459
0.00514976
0.00466181
0.00473897
0.00484347
0.0048984
0.0052738
0.00561315
0.00570025
0.0057113
0.00567844
0.00565742
0.0056591
0.00562983
0.00557523
0.00556442
0.00555734
0.00561938
0.00570029
0.00573574
0.00575059
0.00549481
0.0050498
0.00499137
0.00479545
0.00469852
0.00521855
0.00528025
0.00515896
0.00504578
0.00528419
0.00538714
0.00541831
0.00539968
0.00534522
0.00530829
0.00537517
0.00548033
0.00539924
0.0050509
0.00474009
0.00489966
0.00493733
0.00492288
0.0048547
0.00474335
0.00450546
0.00503035
0.00554333
0.00558543
0.00503601
0.00504438
0.00487419
0.00452077
0.00495139
0.00518966
0.00524661
0.00523543
0.0051619
0.00497014
0.00525304
0.00550092
0.00545467
0.00493619
0.00320349
0.00324842
0.00327318
0.00327752
0.00323466
0.00322309
0.00317644
0.0031527
0.00308008
0.00300671
0.00293586
0.00313171
0.00329888
0.0035237
0.0035422
0.00363514
0.00348232
0.00329898
0.00308261
0.00239749
0.00304271
0.00363085
0.00385723
0.00414854
0.00420947
0.00485487
0.00510803
0.00524728
0.00514992
0.00413046
0.00350424
0.00280042
0.00182114
0.00113471
0.00133232
0.00138615
0.001463
0.00179706
0.00329246
0.00168346
0.0023319
0.00182196
0.00313623
0.00166746
0.00103919
0.000689261
0.00088149
0.00104935
0.00105994
0.00101333
0.000843368
0.000660237
0.000674717
0.0006278
0.000666721
0.000599048
0.000685996
0.000639723
0.0008845
0.00130684
0.00151024
0.0015465
0.00125127
0.00141373
0.0011813
0.00136399
0.00121884
0.00132908
0.00127522
0.00155975
0.00170939
0.00163614
0.00164013
0.00143524
0.00100388
0.00116373
0.000914481
0.00109825
0.00084065
0.00108545
0.000930988
0.00120984
0.00124723
0.00124368
0.00119749
0.000914868
0.00108451
0.000854086
0.00105207
0.000865015
0.000926301
0.00077212
0.00112339
0.00114507
0.00105427
0.00112692
0.00126729
0.00135828
0.00149058
0.00140427
0.00159422
0.00153485
0.00155026
0.00146836
0.0014283
0.00139575
0.00139872
0.00137562
0.00138288
0.00142706
0.00142869
0.00143382
0.00147826
0.00145635
0.00142042
0.00139849
0.0012427
0.00100337
0.0017481
0.00180265
0.00183028
0.0018305
0.00179039
0.0017694
0.00170619
0.00168971
0.0016355
0.00160491
0.00153273
0.00147485
0.0014078
0.00158224
0.000885957
0.00100597
0.00106187
0.00109384
0.00111546
0.00112561
0.00113324
0.00112667
0.00111234
0.00108537
0.00107675
0.00104717
0.00133915
0.00152319
0.0015933
0.00161267
0.00151184
0.00144037
0.00315853
0.00382439
0.00580421
0.00593249
0.00445884
0.00444369
0.0015347
0.00162274
0.00110907
0.00155866
0.00160753
0.00159133
0.00150324
0.00108428
0.00162747
0.00113483
0.00152757
0.00114966
0.00141871
0.00118335
0.00169343
0.00216291
0.00209159
0.00189637
0.00130659
0.00108679
0.00109285
0.000930651
0.00101934
0.000829792
0.00101154
0.000848348
0.00124317
0.00174588
0.00195282
0.00199318
0.00157232
0.0021708
0.00163238
0.00236583
0.00188092
0.00232265
0.0018648
0.00215663
0.00266878
0.00268119
0.0026177
0.00210992
0.00168966
0.00189693
0.00168024
0.00193588
0.0027999
0.00183511
0.00278966
0.00115216
0.00157106
0.00161996
0.00159828
0.00150745
0.00101583
0.00258536
0.0013682
0.00243166
0.00157439
0.0025214
0.00183778
0.00244689
0.0029278
0.00306721
0.00306056
0.00249772
0.00225484
0.00234063
0.00186767
0.0022424
0.00166224
0.00240837
0.00135822
0.00175955
0.00193852
0.00204306
0.0020494
0.00168164
0.003325
0.00208901
0.00315381
0.00219498
0.00281343
0.0022551
0.00246496
0.00291165
0.00289318
0.00286843
0.00243222
0.00196955
0.00260047
0.00185379
0.0555959
0.128177
0.0511064
0.12955
0.0585833
0.0831778
0.0819433
0.082102
0.0824129
0.0618736
0.135086
0.159589
0.166407
0.168423
0.167174
0.270143
0.22031
0.330967
0.21455
0.126384
0.0548882
0.0756154
0.194919
0.321695
0.482711
0.612478
0.417377
0.432045
0.275697
0.271842
0.25596
0.207081
0.126962
0.0636691
0.0109308
0.0119587
0.0171052
0.0227719
0.0178734
0.0109137
0.00215768
0.00222591
0.00227532
0.00230578
0.002297
0.0022475
0.00228278
0.00215577
0.0020259
0.00226226
0.00246577
0.00269338
0.00315645
0.00348406
0.00313752
0.00343911
0.00364557
0.0038135
0.0039518
0.00415778
0.00438987
0.0045945
0.00460561
0.00421978
0.00359551
0.00292542
0.00246053
0.00233182
0.00219015
0.00193155
0.0017674
0.00165611
0.00160162
0.00157885
0.00162221
0.00177241
0.00190222
0.00194759
0.00190869
0.00187364
0.00184305
0.00164106
0.0019185
0.00263162
0.00265332
0.00454562
0.00523788
0.00534659
0.00535379
0.00474777
0.00303339
0.00303994
0.00305549
0.0031135
0.00312557
0.00313301
0.00312955
0.0031178
0.0030995
0.00306523
0.00304834
0.0029992
0.00295804
0.00285615
0.00286078
0.00289873
0.00292806
0.00288104
0.00289377
0.0028315
0.00364389
0.00488562
0.00553903
0.00579092
0.00600832
0.00583301
0.00807003
0.00688668
0.00484879
0.00479114
0.00472964
0.00560958
0.00564826
0.00509891
0.00511856
0.00466088
0.00290516
0.00288935
0.00289096
0.00308823
0.00314747
0.00325698
0.00328658
0.00331526
0.0033313
0.00332922
0.00332806
0.00330216
0.00328098
0.00320886
0.00318464
0.0031747
0.0017503
0.00190992
0.0019802
0.00199249
0.00201923
0.00200647
0.00199324
0.00196914
0.0019523
0.00191965
0.00188078
0.00182588
0.00171768
0.00156583
0.00172449
0.00293088
0.00293173
0.00479188
0.00540801
0.0054467
0.00606448
0.00575808
0.00545445
0.00585718
0.00528207
0.0052411
0.00473433
0.00293686
0.00297636
0.00176435
0.00174674
0.00204067
0.0019825
0.00211813
0.00217508
0.00218232
0.00221236
0.00224217
0.00227809
0.00233548
0.00235329
0.00231924
0.00231362
0.00218067
0.00188476
0.00190771
0.00224864
0.00235719
0.00218717
0.00214653
0.00212928
0.00207763
0.00203798
0.00199944
0.00202571
0.00218104
0.00217997
0.00214304
0.00204056
0.00198936
0.00172715
0.00167081
0.00291733
0.00294354
0.00484176
0.0049974
0.00496825
0.00571135
0.00635892
0.00723792
0.00617284
0.00501399
0.00518896
0.00592365
0.00439065
0.00363298
0.00216228
0.00164998
0.00200521
0.00192597
0.00200461
0.00207707
0.00184422
0.00197875
0.0018289
0.00166158
0.0016523
0.00165003
0.00169126
0.00170833
0.00173935
0.00174343
0.00178508
0.00178108
0.00178687
0.00180883
0.00182027
0.00201137
0.0021882
0.00184062
0.00156009
0.00151828
0.00143353
0.0013643
0.00139749
0.00136442
0.00135622
0.00133139
0.00130896
0.00124895
0.0013018
0.00138137
0.00161611
0.00154837
0.00125147
0.00111811
0.00076452
0.00077883
0.000784225
0.000808501
0.000817257
0.000828061
0.000832025
0.00084557
0.000848152
0.000852381
0.000852018
0.000872464
0.000869444
0.000859491
0.000852997
0.000857391
0.000861531
0.00086098
0.00126059
0.00140394
0.00153524
0.00182409
0.00214839
0.00184859
0.00156594
0.00134866
0.000866939
0.000880132
0.000896336
0.000904653
0.000924056
0.000941672
0.00096145
0.000973977
0.000983495
0.000993449
0.0010039
0.0010083
0.00100601
0.00098688
0.000975566
0.00100057
0.00109958
0.0011571
0.00123069
0.00125852
0.00128265
0.00129489
0.00128837
0.00130157
0.0012859
0.00128359
0.00126119
0.00125149
0.00124213
0.00123048
0.00121622
0.00118133
0.00116968
0.00123074
0.00208331
0.00272545
0.00314332
0.00346532
0.0031916
0.00257694
0.00272339
0.00477774
0.00451417
0.0026758
0.00249263
0.0022942
0.00199714
0.00176568
0.00213322
0.00243334
0.00266175
0.0028636
0.00304807
0.00317312
0.0033331
0.00354153
0.00391081
0.00395735
0.00360958
0.00292596
0.00247866
0.0023168
0.00223905
0.00210235
0.00195303
0.00200188
0.00201627
0.00195621
0.00188157
0.00186013
0.00189064
0.00192889
0.00190555
0.00190476
0.00170156
0.00170103
0.00290635
0.00296273
0.00455697
0.00480102
0.004847
0.00311693
0.00307397
0.00179562
0.00166748
0.00181904
0.00188813
0.00189193
0.00189942
0.00188939
0.00185624
0.0018319
0.00180364
0.00178079
0.00176086
0.00172641
0.00166103
0.00153422
0.00167252
0.00187559
0.00195766
0.00197852
0.00198834
0.00201957
0.00207096
0.00211229
0.00220781
0.0022181
0.00221731
0.00222524
0.00208031
0.0021456
0.00181602
0.0018136
0.00314305
0.00313492
0.00180106
0.00212669
0.00214083
0.00211569
0.00227748
0.00208421
0.00201808
0.00200677
0.00192191
0.00187671
0.00181661
0.00178086
0.00181632
0.00193296
0.0018728
0.0016595
0.00160177
0.00179569
0.00172578
0.00143162
0.00122293
0.00118899
0.00113798
0.00110704
0.0011602
0.00120157
0.00122518
0.00125518
0.00126409
0.00131922
0.00128375
0.00134748
0.00142895
0.00149369
0.00177193
0.00192013
0.00173467
0.00170141
0.00168029
0.00167803
0.0016832
0.001614
0.00160942
0.00157363
0.00155602
0.00150931
0.00148824
0.0014615
0.00146649
0.00148227
0.00162973
0.00420176
0.00535419
0.00557551
0.00951176
0.00384633
0.00392965
0.00769658
0.00318704
0.00479026
0.00513464
0.00536828
0.00560609
0.00512974
0.00650455
0.004547
0.00505973
0.00528647
0.00465616
0.00172475
0.00192618
0.00224151
0.00201992
0.00178513
0.00121758
0.00131421
0.00135792
0.00139323
0.0014164
0.00144176
0.00146906
0.00149457
0.00151253
0.00151291
0.00146714
0.00141771
0.00130408
0.0012662
0.0013153
0.00136605
0.00120015
0.00113009
0.00114357
0.00116257
0.00117331
0.00117573
0.00118749
0.00119073
0.00120922
0.00119956
0.001209
0.00118847
0.00119926
0.00118334
0.00114278
0.00108609
0.000989502
0.00096573
0.00139087
0.00148099
0.00155592
0.00176522
0.002038
0.00217454
0.00194903
0.00179727
0.00172521
0.0019139
0.00191364
0.00347137
0.00666273
0.00298679
0.00334781
0.00973391
0.00387494
0.00301851
0.00306435
0.00309665
0.00310086
0.00180213
0.00213453
0.00206971
0.00207755
0.00176188
0.00147907
0.00132671
0.0011863
0.00080431
0.000801592
0.000807647
0.000819905
0.000823698
0.000788567
0.000788476
0.000783988
0.000782222
0.000765682
0.000761061
0.000747628
0.000739475
0.000720129
0.000709617
0.000691105
0.000687605
0.000713581
0.000790566
0.000954585
0.00106701
0.0012103
0.00123369
0.00139709
0.00347996
0.00403208
0.00555395
0.00550175
0.00867814
0.00542134
0.00409562
0.00370616
0.00542169
0.00560099
0.00521074
0.00705976
0.00488519
0.00322847
0.00477176
0.00395146
0.0047874
0.00466254
0.00493397
0.00782706
0.00825863
0.00233181
0.00207931
0.0021883
0.00248226
0.00294687
0.00271027
0.0030892
0.00308026
0.00237127
0.00152408
0.00485608
0.00586026
0.00466987
0.00558106
0.00866822
0.00349241
0.00340672
0.00301449
0.00251611
0.0022871
0.00225597
0.00251513
0.00300974
0.00754506
0.00806904
0.00737768
0.00733115
0.00666471
0.00738323
0.00921377
0.00918799
0.00810982
0.00758652
0.00783851
0.00481587
0.0030408
0.00354131
0.00391918
0.00522798
0.00539014
0.011382
0.00386003
0.00426683
0.00433169
0.00579749
0.00560852
0.00992136
0.00419904
0.00453017
0.00596797
0.0079653
0.0146987
0.005358
0.00565009
0.00812672
0.00824696
0.00753949
0.00544925
0.00494201
0.0053883
0.00405888
0.00396775
0.00339009
0.00500721
0.00674165
0.00532362
0.00516971
0.00440249
0.00390546
0.00401294
0.00416014
0.0034549
0.00340856
0.00393916
0.00291412
0.00281249
0.0029944
0.00082885
0.000424893
0.000434479
0.000445752
0.000454898
0.000464289
0.000471193
0.000479324
0.000483051
0.000483409
0.000484616
0.000512445
0.000507804
0.000491749
0.000446533
0.000509593
0.00080869
0.000809285
0.000509068
0.000448816
0.000805193
0.00128303
0.00151252
0.00178963
0.00181194
0.00156318
0.00135529
0.000834138
0.000821079
0.000497745
0.000581291
0.000631282
0.000559882
0.000624779
0.000579042
0.00061341
0.000619555
0.000573261
0.000570124
0.000572363
0.000567968
0.000557927
0.000545586
0.000530518
0.000518528
0.000511682
0.000506004
0.000494114
0.000412046
0.000383463
0.000459309
0.000730263
0.00072909
0.00068419
0.000646504
0.000614587
0.000600431
0.000596757
0.000593722
0.000604099
0.000623662
0.000629153
0.00063461
0.000683728
0.00066274
0.000707907
0.000664246
0.00070971
0.000666221
0.000612842
0.000514585
0.000530911
0.000856369
0.000865458
0.00139844
0.00160004
0.00181466
0.00182413
0.00203627
0.00214429
0.00181567
0.00188494
0.00216039
0.0020124
0.00179401
0.00180091
0.00162008
0.00162135
0.00143589
0.000897273
0.000885068
0.000555927
0.000539895
0.000643787
0.000632488
0.00070347
0.000752803
0.00075311
0.000750668
0.000731339
0.000724514
0.00063726
0.000624829
0.000625645
0.000606633
0.000602358
0.000627265
0.000682833
0.000799713
0.000966564
0.00105289
0.00109079
0.00104745
0.00093851
0.000690612
0.00062555
0.00108254
0.00112579
0.00200065
0.00474023
0.00218338
0.00423979
0.00306074
0.000763948
0.00085318
0.0010881
0.00121937
0.00131621
0.0013706
0.00125126
0.00104314
0.000785606
0.000649004
0.000971958
0.00084056
0.00095054
0.000830356
0.00107457
0.00124259
0.00120224
0.00121146
0.00102398
0.000834351
0.000883571
0.000793522
0.000874693
0.000732271
0.000881057
0.00079557
0.000999795
0.0010092
0.000988235
0.000936752
0.000713286
0.000748397
0.00062774
0.000680933
0.000611295
0.000631827
0.000598734
0.000698236
0.00080458
0.000772165
0.000769132
0.000631937
0.000495152
0.000546828
0.000472693
0.00053497
0.000415754
0.000503689
0.000422476
0.000546848
0.000563578
0.000566185
0.000561812
0.000456361
0.000536522
0.000658851
0.000692498
0.000698488
0.000665647
0.000513001
0.000793948
0.000717026
0.000875517
0.000757588
0.000828995
0.000755018
0.00088002
0.00112694
0.00117643
0.00118422
0.000960695
0.000954612
0.00174138
0.0964845
0.00156641
0.00185137
0.00190903
0.0019021
0.00157277
0.00153472
0.00190047
0.00140634
0.00199106
0.00125364
0.00212286
0.000809344
0.00123023
0.00132077
0.00131789
0.00122469
0.000820379
0.002425
0.119578
0.308349
0.334314
0.333723
0.320736
0.143854