/*--------------------------------*- C++ -*----------------------------------*\
| =========                 |                                                 |
| \\      /  F ield         | OpenFOAM: The Open Source CFD Toolbox           |
|  \\    /   O peration     | Version:  v2012                                 |
|   \\  /    A nd           | Website:  www.openfoam.com                      |
|    \\/     M anipulation  |                                                 |
\*---------------------------------------------------------------------------*/
FoamFile
{
    version     2.0;
    format      ascii;
    class       volVectorField;
    location    "710";
    object      U;
}
// * * * * * * * * * * * * * * * * * * * * * * * * * * * * * * * * * * * * * //

dimensions      [0 1 -1 0 0 0 0];


internalField   nonuniform List<vector> 
18258
(
(-0.176115 0.112609 0.139369)
(-0.0516455 0.244443 0.159676)
(-0.104885 0.211382 0.0964297)
(-0.0413724 0.067978 0.0849256)
(-0.226431 0.199731 0.0198059)
(-0.16006 0.357331 0.0181439)
(-0.223589 0.0438779 0.0550162)
(-0.342126 -0.0542872 0.0760453)
(-0.449572 -0.106493 0.108632)
(-0.53665 -0.160138 0.146039)
(-0.622248 -0.217562 0.180155)
(-0.688394 -0.271931 0.309857)
(-0.679001 -0.334609 0.357436)
(-0.62244 -0.445768 0.385949)
(-0.487959 -0.54319 0.369332)
(-0.204478 -0.587434 0.340181)
(0.0745745 -0.374151 0.288346)
(0.0795082 -0.164568 0.298404)
(-0.126594 -0.0782013 0.236597)
(-0.397174 -0.273677 0.116291)
(-0.136971 -0.525364 0.291138)
(-0.194528 -0.364323 0.406646)
(-0.298905 -0.736088 0.300454)
(-0.358558 -0.777093 0.262427)
(-0.133365 -0.708438 0.13465)
(0.00536211 -0.645986 0.184224)
(-0.0161256 -0.339777 0.422622)
(0.175417 -0.112944 0.804277)
(0.300241 -0.0953641 0.891277)
(0.317651 0.0577272 0.90999)
(0.319637 0.18709 0.809996)
(0.165316 0.302112 0.0837805)
(0.0810714 0.125999 -0.434719)
(0.0158916 0.0758019 -0.728777)
(-0.0639899 0.0751492 -0.901512)
(-0.0545685 0.0721357 -1.08295)
(-0.068346 0.0716261 -1.22395)
(-0.0963774 0.0899277 -1.31913)
(-0.1372 0.0809782 -1.36704)
(-0.184164 0.0870686 -1.3529)
(-0.233411 0.0732878 -1.26855)
(-0.279517 0.082279 -1.11448)
(-0.317811 0.0768033 -0.903412)
(-0.348411 0.0774646 -0.648408)
(-0.358416 0.0796773 -0.354681)
(-0.342394 0.0753658 -0.155955)
(-0.161941 0.16456 -0.198405)
(0.34817 -0.09281 -0.138689)
(0.612998 -0.128906 -0.159522)
(0.666359 -0.111432 -0.168236)
(0.780818 -0.135873 -0.176969)
(0.80997 -0.133897 -0.194163)
(0.506178 -0.00650735 -0.25762)
(0.25968 -0.138075 -0.218436)
(0.113534 -0.042507 -0.15882)
(0.28212 -0.0100962 -0.169185)
(0.536866 -0.00283313 -0.173841)
(0.790979 -0.0303041 -0.178122)
(1.09127 -0.0349148 -0.175905)
(1.4269 -0.0490417 -0.185351)
(1.76141 -0.0647629 -0.183722)
(2.0455 -0.0813247 -0.16681)
(2.2461 -0.0930024 -0.138363)
(2.34622 -0.0991125 -0.102744)
(2.35284 -0.0964234 -0.0681646)
(2.29244 -0.0887323 -0.0415409)
(2.19886 -0.0822184 -0.0249498)
(2.10641 -0.076098 -0.0182618)
(2.03702 -0.0673121 -0.0193238)
(1.99144 -0.0644956 -0.0240223)
(1.96714 -0.0593705 -0.0264828)
(1.95663 -0.0504932 -0.0209806)
(1.9424 -0.0400164 -0.00401619)
(1.89898 -0.025227 0.0235219)
(1.81151 -0.00821088 0.0530867)
(1.69076 0.00912339 0.0763166)
(1.57005 0.0212854 0.0791419)
(1.47736 0.0302194 0.0745078)
(1.3993 0.0372042 0.0698808)
(1.33727 0.0497815 0.0625382)
(1.2865 0.0564337 0.0642232)
(1.19287 0.0436615 0.0775689)
(1.09566 0.018386 0.108812)
(1.01256 8.29131e-05 0.126098)
(0.905078 -0.0215121 0.118906)
(0.761133 0.0163212 0.144352)
(0.640488 0.0814399 0.132162)
(0.516836 0.100448 0.132853)
(0.379839 0.117775 0.117203)
(0.223618 0.126435 0.094983)
(0.119769 0.189643 0.090675)
(0.121241 0.0111128 0.196231)
(0.163923 -0.100711 0.141892)
(0.11284 -0.129886 0.0373475)
(0.104262 -0.114942 -0.144992)
(0.215937 -0.209953 -0.374211)
(0.26211 -0.230965 -0.559567)
(0.203631 -0.137402 -0.731023)
(0.104958 -0.0790166 -0.711832)
(0.0362372 0.0613246 -0.485016)
(-0.0969161 0.234999 -0.137742)
(-0.218375 0.191154 0.183526)
(-0.234634 0.0640438 0.158648)
(-0.340648 0.0136626 0.172707)
(-0.275783 0.135126 0.182195)
(-0.250247 0.284368 -0.0352365)
(-0.106699 0.166566 -0.39917)
(0.0619725 0.00647516 -0.582286)
(0.331918 -0.0929243 -0.63351)
(0.494121 -0.229174 -0.492868)
(0.350767 -0.210717 -0.283633)
(0.271298 -0.192107 -0.103632)
(0.282533 -0.186899 0.0368074)
(0.28022 -0.140117 0.158315)
(0.224373 -0.0989079 0.190175)
(0.395445 -0.0814802 0.179074)
(0.534462 -0.0635093 0.174592)
(0.586939 -0.0523011 0.162859)
(0.698724 -0.0789604 0.158803)
(0.731231 -0.133915 0.130138)
(0.599938 -0.134402 0.133)
(0.453662 -0.151879 0.137568)
(0.460783 -0.186114 0.0326046)
(0.609929 -0.162969 0.0485393)
(0.73521 -0.162126 0.0460061)
(0.90361 -0.141821 0.0785582)
(1.08732 -0.109907 0.108231)
(1.18879 -0.0777627 0.145851)
(1.20769 -0.0108988 0.137942)
(1.24489 -0.00929616 0.118697)
(1.33508 -0.00714035 0.138189)
(1.37695 -0.00196135 0.128326)
(1.36865 -0.0126641 0.156864)
(1.32805 -0.048238 0.191732)
(1.32241 -0.0511504 0.18865)
(1.28537 -0.0620152 0.149616)
(1.27863 -0.060157 0.132676)
(1.25746 -0.0475862 0.106507)
(1.24889 -0.0455845 0.108597)
(1.20092 0.00497923 0.107496)
(1.1939 0.0285333 0.136346)
(1.07594 0.137874 0.270536)
(1.22571 0.0534131 0.2532)
(1.21727 0.0205494 0.157182)
(1.26595 -0.0206642 0.12645)
(1.27817 -0.0248495 0.117109)
(1.28881 -0.038166 0.141873)
(1.30771 -0.0415012 0.181242)
(1.35015 -0.036729 0.21525)
(1.38593 -0.0367367 0.220193)
(1.42282 -0.0129121 0.18161)
(1.4361 -0.00212712 0.13669)
(1.51229 -0.0067107 0.149808)
(1.61028 -0.0168791 0.157957)
(1.74943 -0.0317684 0.142428)
(1.88141 -0.054331 0.048011)
(1.96272 -0.0757872 -0.0720586)
(1.98199 -0.0906279 -0.16504)
(1.96446 -0.096628 -0.201219)
(1.94806 -0.0969494 -0.19511)
(1.95812 -0.0913171 -0.175276)
(2.00502 -0.0827612 -0.144821)
(2.08639 -0.0702985 -0.108187)
(2.1975 -0.0600579 -0.0842882)
(2.31169 -0.0597356 -0.113087)
(2.38868 -0.0608301 -0.173404)
(2.39144 -0.0584436 -0.277277)
(2.2856 -0.0502112 -0.392506)
(2.07019 -0.042568 -0.483914)
(1.76983 -0.0367829 -0.540413)
(1.42605 -0.0316376 -0.549248)
(1.08009 -0.0193659 -0.528111)
(0.791731 -0.0244837 -0.459725)
(0.536254 -0.0159891 -0.415753)
(0.282705 -0.0216043 -0.387013)
(0.109204 -0.0403558 -0.360735)
(0.102333 -0.0421746 -0.637333)
(0.0774697 -0.0373065 -0.873463)
(0.0507924 -0.0392437 -1.05807)
(0.0119067 -0.0404896 -1.17684)
(-0.0232115 -0.0281568 -1.21673)
(-0.0598486 -0.0156716 -1.16931)
(-0.0936033 0.00328861 -1.04047)
(-0.119023 0.0267656 -0.823985)
(-0.121174 0.0825857 -0.562027)
(-0.145986 0.133062 -0.0462976)
(-0.192407 0.0267034 0.56764)
(-0.208457 -0.0332649 0.754583)
(-0.226927 -0.00224114 0.923724)
(-0.232175 -0.0449715 1.0665)
(-0.317905 -0.104138 1.1296)
(-0.371279 -0.110605 1.14273)
(-0.369719 -0.232436 1.00371)
(-0.297436 -0.251216 0.770782)
(-0.459806 -0.667047 0.687605)
(-0.486284 -0.544266 0.705483)
(-0.414241 -0.411968 0.832384)
(-0.550287 -0.766389 0.856684)
(-0.685398 -0.832285 0.604815)
(-0.475924 -0.754882 0.79971)
(-0.436807 -0.575498 0.741665)
(-0.784869 -0.525803 0.748696)
(-0.903584 -0.408833 0.858777)
(-0.531336 -0.706474 0.8224)
(-0.440604 -0.577001 0.663341)
(-0.320397 -0.31757 0.403219)
(-0.299094 -0.179049 0.397166)
(-0.28238 -0.143211 0.350023)
(-0.233347 0.11486 0.111153)
(-0.162229 0.295787 -0.419577)
(-0.152333 0.185778 -0.639428)
(-0.13215 0.0279398 -0.914951)
(-0.0869696 -0.0572798 -1.08666)
(-0.0288378 -0.0695986 -1.23456)
(0.038185 -0.102162 -1.26931)
(0.0978681 -0.098801 -1.2343)
(0.17236 -0.109558 -1.12036)
(0.216354 -0.123679 -0.920416)
(0.260627 -0.146971 -0.705861)
(0.249598 -0.139507 -0.398719)
(0.418464 -0.0512289 -0.637689)
(0.770796 -0.118966 -0.457538)
(0.724748 -0.10949 -0.413294)
(0.624127 -0.0742835 -0.406568)
(0.552234 -0.104229 -0.414448)
(0.116213 -0.100815 -0.527909)
(0.167527 -0.115522 -0.91736)
(0.251049 -0.223606 -1.06969)
(0.338996 -0.282213 -0.957096)
(0.390407 -0.35214 -0.521297)
(0.199805 0.0268543 0.142028)
(0.26347 0.119149 0.173607)
(0.429842 -0.32335 0.335695)
(0.516634 -0.529503 0.505324)
(0.545956 -0.52377 0.552793)
(0.413259 -0.236031 0.677322)
(0.472106 -0.338504 0.565881)
(0.4871 -0.610739 0.548207)
(0.704018 -0.673795 0.319591)
(0.746261 -0.489248 0.456304)
(0.798464 -0.345875 0.600908)
(0.234858 -0.225666 0.576458)
(-0.23822 -0.268591 0.827448)
(-0.174627 -0.191588 0.67836)
(-0.67365 -0.298836 0.818776)
(-0.47066 -0.181148 0.69329)
(-0.320706 -0.00326869 0.540681)
(-0.218399 0.177223 -0.295372)
(-0.192512 -0.0442708 -0.617672)
(-0.0570256 -0.169586 -1.1008)
(0.104148 -0.158679 -1.25035)
(0.27546 -0.088245 -1.11835)
(0.435163 -0.108244 -0.700578)
(0.503791 -0.074244 -0.625085)
(0.497018 -0.0427797 -0.614923)
(0.543712 -0.086883 -0.641158)
(0.589581 -0.1202 -0.733941)
(0.39942 -0.0422295 -0.684077)
(0.358939 -0.0793181 -0.66409)
(0.134858 -0.113892 -0.671774)
(-0.109159 -0.0493229 -0.583199)
(0.294122 0.00307069 -0.593465)
(0.352732 0.0133789 -0.613134)
(0.637859 -0.0982678 -0.649243)
(0.576929 -0.0981763 -0.386831)
(0.271777 0.0710786 -0.369209)
(0.278319 0.0528271 -0.257092)
(-0.303632 -0.0415155 0.106389)
(-0.306899 0.142249 -0.00957724)
(-0.281785 -0.025669 -0.45019)
(0.088157 -0.201521 -0.578004)
(0.360702 -0.280177 -0.570572)
(0.723329 -0.346323 -0.406995)
(0.808489 -0.419585 -0.378508)
(0.76954 -0.291907 -0.29586)
(0.810849 -0.366208 -0.21989)
(0.825627 -0.487932 -0.284833)
(0.737605 -0.432598 -0.279561)
(0.715957 -0.305904 -0.332642)
(0.744172 -0.252401 -0.342532)
(0.789645 -0.312139 -0.212676)
(0.801653 -0.367742 -0.161112)
(0.89003 -0.466096 -0.157054)
(1.1565 -0.632493 -0.118123)
(1.61518 -0.727631 -0.0990597)
(1.99241 -0.672995 -0.0384033)
(2.14914 -0.490879 0.0470253)
(2.06945 -0.291908 0.0949845)
(1.90437 -0.164044 0.102472)
(1.80687 -0.0959223 0.0990536)
(1.71002 -0.00124842 0.0985998)
(1.57239 0.0867674 0.0907348)
(1.43491 0.104754 0.0477112)
(1.33034 0.0548895 0.0269249)
(1.24046 -0.00716611 0.0211339)
(1.13861 -0.0565884 0.0227549)
(1.0547 -0.081008 0.0208739)
(0.996791 -0.0642767 0.0163068)
(0.820325 -0.11177 -0.0244953)
(0.715708 0.000602168 0.00886681)
(0.632478 0.066475 0.00814594)
(0.496957 0.020832 0.00579741)
(0.358946 -0.0625354 -0.0136837)
(0.138829 -0.147816 -0.0325897)
(0.22533 -0.308873 0.00139423)
(0.353095 -0.082187 0.0119479)
(-0.00270486 -0.230625 -0.00927179)
(0.0427753 -0.546359 -0.0505928)
(0.0117771 -0.712892 -0.0527365)
(-0.00826162 -0.876775 -0.0533542)
(-0.0262164 -1.00678 -0.0650985)
(-0.036264 -1.10266 -0.0960621)
(-0.0468508 -1.15698 -0.105375)
(-0.0584226 -1.21418 -0.118499)
(-0.0886567 -1.2758 -0.134479)
(-0.11374 -1.3204 -0.149785)
(-0.137697 -1.35397 -0.162693)
(-0.159707 -1.37549 -0.17374)
(-0.178704 -1.38673 -0.18339)
(-0.194088 -1.38833 -0.190087)
(-0.206225 -1.38124 -0.193932)
(-0.216273 -1.36655 -0.194053)
(-0.224875 -1.34467 -0.192143)
(-0.233202 -1.3142 -0.186708)
(-0.240903 -1.27329 -0.178363)
(-0.246371 -1.21902 -0.165316)
(-0.244253 -1.14989 -0.147557)
(-0.191233 -1.07048 -0.127165)
(-0.141401 -0.967957 -0.112849)
(-0.166015 -0.867595 -0.0797275)
(-0.190072 -0.753805 -0.0821516)
(-0.205317 -0.542442 -0.0857523)
(-0.274282 -0.449672 -0.0922484)
(0.0219842 0.0538165 -0.116497)
(-0.350932 -0.307932 0.0249085)
(-0.231902 -0.617015 -0.0548977)
(-0.270712 -0.0991208 -0.0113658)
(-0.458401 -0.182263 0.0644161)
(-0.679077 -0.198528 0.0822061)
(-0.84246 -0.209148 0.114053)
(-0.953822 -0.223032 0.144188)
(-1.03442 -0.232446 0.203758)
(-1.11759 -0.244255 0.245285)
(-1.18669 -0.244199 0.301994)
(-1.20039 -0.248488 0.336249)
(-1.17353 -0.250313 0.366155)
(-1.10679 -0.249091 0.394452)
(-0.996283 -0.24349 0.422632)
(-0.842062 -0.230585 0.454023)
(-0.66877 -0.206468 0.493394)
(-0.421679 -0.147514 0.542107)
(-0.140219 -0.118012 0.565584)
(-0.159646 0.0286844 0.821816)
(-0.163413 0.0831609 1.04262)
(-0.163067 0.115547 1.11289)
(-0.164173 0.164805 1.02188)
(-0.167178 0.153745 0.839588)
(-0.15335 0.131543 0.569186)
(-0.123373 0.143787 0.287103)
(-0.224767 0.440696 0.371982)
(-0.506272 0.468315 0.335747)
(-0.690863 0.481162 0.339908)
(-0.915599 0.465849 0.333278)
(-1.09759 0.424957 0.309106)
(-1.22451 0.353428 0.266227)
(-1.28009 0.273428 0.218965)
(-1.26276 0.206241 0.181624)
(-1.22995 0.148045 0.158323)
(-1.18719 0.115345 0.140392)
(-1.09788 0.0926377 0.0902202)
(-0.956399 0.045256 0.0698769)
(-0.765412 -0.0206547 0.0594098)
(-0.499442 -0.11389 0.0190143)
(-0.252266 -0.207664 -0.0191583)
(-0.273567 -0.197489 -0.0665258)
(-0.317738 -0.176905 0.00768367)
(-0.313937 -0.1741 0.0586505)
(-0.27207 -0.156419 0.149602)
(-0.380261 -0.233384 0.117095)
(-0.421993 -0.296584 0.117088)
(-0.325904 -0.287602 0.17564)
(-0.268857 -0.214609 0.0433615)
(-0.140658 -0.100407 -0.0275263)
(-0.140623 -0.0766435 -0.00918395)
(-0.138718 -0.0739353 -0.0369761)
(-0.169559 -0.0555212 -0.0691064)
(-0.167928 -0.501182 -0.149888)
(-0.126419 -0.479119 -0.140186)
(-0.110615 -0.4466 -0.0980192)
(-0.100423 -0.423433 -0.147812)
(-0.2658 -0.537125 -0.0331803)
(-0.275274 -0.574379 -0.0276097)
(-0.282368 -0.630535 -0.0861504)
(-0.336224 -0.58209 -0.0223152)
(-0.339293 -0.529219 0.0532682)
(-0.300751 -0.358635 0.0833249)
(-0.443544 -0.316684 0.113467)
(-0.360555 -0.431289 0.0389718)
(-0.34611 -0.521934 0.0122928)
(-0.376898 -0.507968 -0.0255362)
(-0.427651 -0.394078 0.0306633)
(-0.496409 -0.346217 0.0719579)
(-0.527983 -0.254621 0.16286)
(-0.590244 -0.215247 0.240582)
(-0.679081 -0.197342 0.255169)
(-0.575714 -0.206498 0.210747)
(-0.516035 -0.18765 0.180441)
(-0.544284 -0.184827 0.117228)
(-0.538873 -0.171906 0.0914772)
(-0.495434 -0.184093 0.000577035)
(-0.760424 -0.0865163 0.0643033)
(-0.97009 -0.00531072 0.0894587)
(-1.07747 0.0522278 0.103382)
(-1.12657 0.0751212 0.137978)
(-1.16423 0.0359128 0.23761)
(-1.24869 0.0691093 0.266912)
(-1.31451 0.119507 0.348848)
(-1.32817 0.17094 0.431676)
(-1.27102 0.222018 0.524356)
(-1.14638 0.261014 0.604279)
(-0.973971 0.281333 0.649129)
(-0.774338 0.283286 0.658499)
(-0.622927 0.288213 0.645509)
(-0.342832 0.272062 0.645819)
(-0.437062 0.244057 0.876112)
(-0.469289 0.226546 1.0042)
(-0.462224 0.178671 1.08265)
(-0.443082 0.122408 1.01493)
(-0.4416 0.0575485 0.79842)
(-0.712276 -0.00564368 0.744848)
(-0.72286 0.0708325 0.945467)
(-0.741564 0.116694 1.02402)
(-0.746285 0.163595 0.980093)
(-0.695716 0.198186 0.87332)
(-0.837414 0.185934 0.863178)
(-0.879694 0.145387 0.96553)
(-0.88284 0.0879835 1.00137)
(-0.873285 0.0416096 0.926757)
(-0.867058 -0.0393345 0.707218)
(-1.00977 -0.060503 0.675934)
(-1.0241 0.0202982 0.901335)
(-1.03684 0.0693345 0.966439)
(-1.04472 0.121764 0.944565)
(-1.01945 0.173886 0.854722)
(-1.16269 0.162937 0.804483)
(-1.1635 0.110432 0.893055)
(-1.14708 0.0570099 0.914715)
(-1.13017 0.00631945 0.859516)
(-1.11038 -0.0732043 0.640121)
(-1.17023 -0.0837773 0.595474)
(-1.19545 -0.00628794 0.796867)
(-1.22154 0.0435621 0.840141)
(-1.25061 0.0917889 0.811667)
(-1.26808 0.141393 0.717093)
(-1.31747 0.110915 0.610227)
(-1.28916 0.0688615 0.709268)
(-1.25097 0.0249994 0.747206)
(-1.21584 -0.0217491 0.716338)
(-1.18607 -0.0935116 0.539727)
(-1.15278 -0.10469 0.472654)
(-1.18058 -0.0413541 0.621265)
(-1.21915 0.000240146 0.640593)
(-1.27326 0.039213 0.60634)
(-1.30616 0.0743497 0.509016)
(-1.22328 0.0358085 0.414105)
(-1.18663 0.00297735 0.499908)
(-1.12709 -0.0321012 0.530959)
(-1.08512 -0.0600241 0.520018)
(-1.03923 -0.111715 0.386701)
(-0.91848 -0.120065 0.315113)
(-0.922621 -0.109291 0.358006)
(-0.971731 -0.080297 0.43804)
(-0.955606 -0.0869419 0.424788)
(-0.926593 -0.102511 0.394289)
(-1.00317 -0.0682821 0.380989)
(-0.994917 -0.0629348 0.307002)
(-0.999606 -0.03904 0.282392)
(-1.04261 -0.0270823 0.208817)
(-1.03764 -0.00942086 0.202165)
(-0.805212 -0.104997 0.145018)
(-0.818073 -0.125021 0.157425)
(-0.787128 -0.128198 0.215736)
(-0.822966 -0.141271 0.248831)
(-0.609002 -0.281294 0.132295)
(-0.556044 -0.290965 0.113968)
(-0.502635 -0.326347 0.131492)
(-0.419347 -0.398978 0.114979)
(-0.396187 -0.383464 0.148391)
(-0.487393 -0.283743 0.164252)
(-0.605082 -0.238736 0.182731)
(-0.614153 -0.267458 0.095945)
(-0.512457 -0.377348 0.042906)
(-0.438786 -0.459366 0.0270005)
(-0.396685 -0.525589 0.0564971)
(-0.38343 -0.697074 0.120569)
(-0.386542 -0.662489 0.126516)
(-0.404732 -0.379813 0.105328)
(-0.407533 -0.535901 0.079868)
(-0.398528 -0.601133 0.0420379)
(-0.215184 -0.78707 -0.160752)
(-0.192971 -0.792744 -0.261006)
(-0.115133 -0.702883 -0.370143)
(-0.0784778 -0.622787 -0.386184)
(-0.0449919 -0.587363 -0.348425)
(-0.0133672 -0.554247 -0.301832)
(0.0317564 -0.500259 -0.231967)
(0.124041 -0.453675 -0.108806)
(0.124619 -0.577986 -0.121815)
(0.116754 -0.634023 -0.120046)
(0.0848815 -0.691765 -0.157587)
(0.0923429 -0.746237 -0.155868)
(0.100534 -0.802853 -0.175108)
(0.118327 -0.83108 -0.167154)
(0.126345 -0.837701 -0.152876)
(0.126504 -0.823656 -0.13017)
(0.117722 -0.787405 -0.0955515)
(0.104268 -0.730069 -0.0420249)
(0.0359132 -0.648498 0.034592)
(0.00277293 -0.537898 0.157197)
(0.0174953 -0.289941 0.364127)
(-0.155138 0.0275768 0.448451)
(-0.371058 0.0988087 0.348595)
(-0.39468 -0.0366664 0.257594)
(-0.221175 -0.173389 0.251279)
(-0.18323 -0.191196 0.268176)
(-0.160351 -0.181775 0.215526)
(-0.0979438 -0.150009 0.207486)
(-0.00536082 -0.0535271 0.0770053)
(-0.03304 0.103909 0.0822058)
(-0.0801289 0.141808 0.0812203)
(-0.0483866 0.207571 0.173034)
(-0.00178237 0.172777 0.196891)
(0.0153968 0.0140452 0.145954)
(-0.0519002 -0.0394176 0.232057)
(0.0224622 0.0812659 0.328539)
(-0.00559797 -0.0714363 0.289106)
(0.0734402 0.138756 0.25128)
(0.088734 -0.0237294 0.225722)
(-0.0237222 -0.249114 0.454938)
(0.0467937 -0.351611 0.54527)
(0.170764 -0.492624 0.51776)
(0.170466 -0.686348 0.355544)
(0.0774611 -0.811831 0.14713)
(0.0590245 -0.884868 -0.00614867)
(0.0656911 -0.920477 -0.118849)
(0.0634982 -0.94722 -0.197387)
(0.0604264 -0.962032 -0.248744)
(0.0523063 -0.960393 -0.279636)
(0.0421401 -0.94061 -0.293116)
(0.0295263 -0.903141 -0.289996)
(0.0239438 -0.828141 -0.250038)
(0.00750107 -0.782617 -0.32919)
(0.043691 -0.701724 -0.225508)
(0.0477917 -0.651603 -0.211346)
(0.044989 -0.634381 -0.232134)
(0.00479144 -0.700332 -0.325772)
(-0.0224886 -0.74014 -0.383807)
(-0.0572192 -0.775753 -0.411601)
(-0.0730537 -0.842656 -0.40251)
(-0.131534 -0.90303 -0.347138)
(-0.0935809 -0.967253 -0.333476)
(-0.0885606 -0.977895 -0.374362)
(-0.0535996 -0.916647 -0.418951)
(-0.0434366 -0.866528 -0.432689)
(-0.0176505 -0.824092 -0.404963)
(-0.00935991 -0.867406 -0.34193)
(-0.0390315 -0.899948 -0.375076)
(-0.0557254 -0.946791 -0.397687)
(-0.023435 -0.98969 -0.406746)
(-0.0483891 -1.05802 -0.42182)
(-0.0664497 -1.04077 -0.42541)
(-0.0930272 -0.918723 -0.346317)
(-0.185866 -0.760484 -0.225677)
(-0.196859 -0.613677 -0.042605)
(-0.0992129 -0.732013 -0.199009)
(-0.0791488 -0.837865 -0.261694)
(-0.0591769 -0.926995 -0.325493)
(-0.0608964 -0.944622 -0.336138)
(-0.0279257 -0.828068 -0.383565)
(-0.0241565 -0.723177 -0.340034)
(-0.032315 -0.540673 -0.257163)
(-0.0167195 -0.352752 -0.167252)
(0.03592 -0.0885228 -0.213233)
(-0.245551 -0.432388 0.0716558)
(-0.326783 -0.460098 0.0252252)
(0.217429 -0.119397 -0.243641)
(-0.172915 -0.247022 0.0414342)
(-0.217858 -0.266125 -0.118923)
(-0.258143 -0.268392 -0.104725)
(-0.208202 -0.281282 -0.0223366)
(0.0808908 0.141353 -0.220124)
(0.102471 0.0603522 -0.233359)
(0.100615 0.000247696 -0.262857)
(0.0955947 -0.000327516 -0.267492)
(-0.0807284 -0.428937 -0.203775)
(-0.133586 -0.449308 -0.224112)
(-0.186745 -0.457647 -0.207786)
(-0.249678 -0.444503 -0.169886)
(-0.169223 -0.546663 -0.184866)
(-0.127083 -0.558389 -0.258275)
(-0.0965635 -0.564628 -0.292875)
(-0.0610644 -0.552866 -0.29361)
(-0.0511367 -0.741673 -0.350759)
(-0.0818414 -0.756329 -0.333393)
(-0.106544 -0.768691 -0.282702)
(-0.147392 -0.759075 -0.195371)
(-0.134688 -0.820773 -0.182868)
(-0.128958 -0.881608 -0.200902)
(-0.098272 -0.904162 -0.298322)
(-0.0728276 -0.871223 -0.375099)
(-0.0494796 -0.850924 -0.401852)
(-0.0771291 -0.966294 -0.372291)
(-0.112397 -0.988108 -0.336903)
(-0.138326 -1.00841 -0.28458)
(-0.137476 -1.09096 -0.347643)
(-0.0803262 -1.06515 -0.40056)
(-0.0727682 -1.14277 -0.441947)
(-0.0493716 -1.1211 -0.474628)
(-0.0267477 -1.11201 -0.459955)
(-0.00304468 -1.04018 -0.416321)
(0.0123548 -1.07208 -0.407251)
(-0.0125881 -1.15052 -0.470627)
(-0.0399107 -1.17773 -0.495107)
(-0.0688046 -1.20606 -0.463809)
(-0.131877 -1.22674 -0.379659)
(-0.135223 -1.16443 -0.369821)
(-0.284064 -1.04479 -0.225478)
(-0.457959 -1.14444 -0.0769408)
(-0.464361 -1.09849 -0.0674821)
(-0.416535 -1.0441 -0.0648608)
(-0.303325 -1.03461 -0.073995)
(-0.256017 -0.965904 -0.0642227)
(-0.309642 -0.94346 -0.0578031)
(-0.342776 -0.847772 -0.0423645)
(-0.378473 -0.712626 -0.0380381)
(-0.474214 -0.62611 -0.0368489)
(-0.410351 -0.401101 -0.0343042)
(-0.465537 -0.660138 -0.00592341)
(-0.317246 -0.457208 0.0244764)
(-0.638926 -0.398473 0.00540596)
(-0.815723 -0.379172 0.0601374)
(-0.918078 -0.384364 0.0846189)
(-0.967911 -0.397167 0.124341)
(-0.979926 -0.525117 0.0977584)
(-0.940439 -0.68908 0.0653602)
(-0.924192 -0.749758 0.052493)
(-0.874794 -0.847982 0.0364553)
(-0.859206 -0.895098 0.0304869)
(-0.821419 -0.927286 0.00762836)
(-0.704222 -0.96676 -0.0229988)
(-0.593093 -1.00115 -0.0420216)
(-0.627337 -0.951808 -0.0172208)
(-0.485557 -0.970695 -0.0307642)
(-0.503493 -0.892493 -0.0301799)
(-0.531103 -0.796156 -0.0233492)
(-0.559957 -0.730082 -0.0195484)
(-0.686976 -0.711804 -0.00980135)
(-0.675521 -0.5977 -0.0077925)
(-0.824547 -0.576878 0.030343)
(-0.918718 -0.559337 0.0504108)
(-0.881706 -0.696644 0.0231578)
(-0.800877 -0.704079 0.0122031)
(-0.778029 -0.78914 0.00228998)
(-0.661487 -0.797487 -0.0107743)
(-0.636349 -0.881765 -0.0170424)
(-0.749005 -0.865484 -0.00512669)
(-0.825944 -0.849994 0.00446084)
(-0.863521 -0.772492 0.0135256)
(-0.801989 -0.738383 -0.0117667)
(-0.624203 -0.611465 0.00181382)
(-0.847459 -0.65924 0.0116803)
(-0.868241 -0.518041 0.0520203)
(-0.870644 -0.379607 0.0580804)
(-0.84332 -0.282056 0.121513)
(-0.832431 -0.302069 0.0764542)
(-0.879134 -0.350481 0.0525383)
(-0.875171 -0.203799 0.129003)
(-0.894043 -0.18414 0.174053)
(-0.760606 -0.161387 0.15838)
(-0.766 -0.128927 0.259054)
(-0.77708 -0.120622 0.301737)
(-0.820487 -0.108509 0.355042)
(-0.827856 -0.119109 0.352307)
(-0.641431 -0.181488 0.250551)
(-0.606659 -0.173408 0.248)
(-0.566959 -0.180263 0.215194)
(-0.550749 -0.1754 0.188697)
(-0.568761 -0.191019 0.12018)
(-0.338373 -0.194457 0.0763712)
(-0.320039 -0.188953 0.101248)
(-0.328915 -0.191699 0.113569)
(-0.36012 -0.198549 0.12372)
(-0.448429 -0.21664 0.141009)
(-0.404611 -0.253071 0.0588636)
(-0.38146 -0.284584 0.06745)
(-0.409963 -0.34054 0.0462468)
(-0.315396 -0.426259 0.0349439)
(-0.311181 -0.393781 0.0480345)
(-0.283147 -0.415569 0.014453)
(-0.192582 -0.418835 -0.0215575)
(-0.336541 -0.253722 0.0345299)
(-0.402275 -0.33035 0.0403703)
(-0.247808 -0.456678 -0.00756657)
(-0.291165 -0.459039 -0.000665084)
(-0.451035 -0.32073 0.0712648)
(-0.523765 -0.298571 0.130699)
(-0.497381 -0.31822 0.135834)
(-0.470522 -0.336396 0.110958)
(-0.45858 -0.35022 0.0940215)
(-0.493325 -0.372796 0.00835694)
(-0.710764 -0.317528 0.0630376)
(-0.717984 -0.529374 0.0388286)
(-0.549275 -0.553787 -0.00198959)
(-0.510235 -0.606361 -0.00429188)
(-0.466106 -0.648571 -0.0178271)
(-0.43729 -0.651847 -0.0216793)
(-0.413147 -0.530536 -0.0235516)
(-0.411532 -0.540623 -0.0487698)
(-0.410444 -0.541056 -0.0347174)
(-0.335679 -0.550027 -0.0176675)
(-0.267843 -0.59536 -0.007969)
(-0.319995 -0.580275 -0.00416438)
(-0.403668 -0.512503 0.00665831)
(-0.332243 -0.534894 -0.00470788)
(-0.439214 -0.62975 -0.0122371)
(-0.293166 -0.47279 -0.00569115)
(-0.210745 -0.539207 -0.0190095)
(-0.281554 -0.524098 -0.016902)
(-0.394655 -0.435659 -0.00116028)
(-0.414062 -0.362412 -0.0107759)
(-0.260857 -0.393873 -0.0115935)
(-0.157262 -0.422397 -0.0371042)
(-0.136655 -0.398939 -0.0234683)
(-0.238325 -0.204997 0.0216624)
(-0.382862 -0.342569 -0.00250724)
(-0.252183 -0.474088 -0.0203833)
(-0.219413 -0.467481 -0.0243488)
(-0.122306 -0.392269 -0.0308598)
(-0.219197 -0.194142 0.0384722)
(-0.346978 -0.337604 0.0116533)
(-0.366149 -0.362878 0.0538119)
(-0.195985 -0.510526 -0.0115618)
(-0.17417 -0.467513 0.0179161)
(-0.11003 -0.419655 0.000951653)
(-0.22223 -0.228718 0.0440263)
(-0.325832 -0.3415 0.0518757)
(-0.334851 -0.338572 0.0564258)
(-0.180574 -0.462704 0.0159258)
(-0.10929 -0.408437 -0.000879063)
(-0.231718 -0.220141 0.0613849)
(-0.285674 -0.221174 0.0767381)
(-0.240229 -0.22993 0.0704404)
(-0.350055 -0.336611 0.0778524)
(-0.189582 -0.46481 0.0474754)
(-0.11779 -0.415164 0.0362871)
(-0.140469 -0.449206 -0.00500348)
(-0.196438 -0.497069 0.0248832)
(-0.381415 -0.350291 0.0786497)
(-0.334209 -0.624792 -0.0041893)
(-0.355774 -0.631504 -0.0121219)
(-0.499269 -0.511372 0.0576888)
(-0.651162 -0.444326 0.0981912)
(-0.666496 -0.286528 0.136237)
(-0.797828 -0.271396 0.170429)
(-0.890476 -0.320564 0.166317)
(-1.02081 -0.488703 0.12598)
(-1.10749 -0.495086 0.16768)
(-1.13236 -0.502789 0.192814)
(-1.11246 -0.505234 0.215783)
(-1.04934 -0.501618 0.238646)
(-0.944008 -0.490788 0.260524)
(-0.795467 -0.467595 0.287118)
(-0.641347 -0.432659 0.326593)
(-0.399086 -0.380791 0.394625)
(-0.166807 -0.291238 0.481246)
(0.0329132 -0.14949 0.486411)
(0.330715 -0.158112 0.42895)
(0.333168 -0.218357 0.380105)
(0.20439 -0.126479 0.48978)
(0.271174 -0.00141507 0.768488)
(0.282406 0.0482316 1.03322)
(0.268065 0.0831604 1.14209)
(0.250593 0.13544 1.09059)
(0.213397 0.124256 0.952758)
(0.14342 0.121653 0.700841)
(0.0404455 0.185903 0.401995)
(0.175517 0.511548 0.42395)
(0.421749 0.513286 0.373595)
(0.607953 0.537679 0.374931)
(0.852131 0.49726 0.350931)
(1.01108 0.417475 0.317116)
(1.07749 0.323956 0.273223)
(1.06526 0.257255 0.233009)
(1.02056 0.21127 0.196193)
(1.04185 0.158182 0.165344)
(1.05125 0.118971 0.14278)
(0.99113 0.0933219 0.0898677)
(0.884808 0.0425267 0.0673838)
(0.719154 -0.0223714 0.0542549)
(0.474132 -0.109461 0.02056)
(0.246313 -0.217357 -0.0207397)
(0.106088 -0.626285 -0.108927)
(0.181752 -0.38758 -0.0801535)
(-0.177432 -0.174459 0.0083001)
(-0.0994774 -0.397141 -0.0377139)
(-0.108525 -0.320522 -0.0646221)
(-0.110636 -0.34894 -0.0734612)
(-0.107711 -0.311826 -0.0654255)
(-0.0785245 -0.244668 -0.0611717)
(-0.132171 -0.201082 -0.0556512)
(-0.216952 0.0570546 0.102603)
(-0.151236 0.410353 0.130692)
(-0.0420162 0.534493 0.0753415)
(0.0405773 0.623318 0.106256)
(0.128631 0.674538 0.202581)
(0.222443 0.733059 0.301913)
(0.313517 0.769926 0.338025)
(0.396217 0.765787 0.366935)
(0.47344 0.700983 0.373922)
(0.5389 0.560469 0.370619)
(0.59107 0.337564 0.336497)
(0.57099 0.00601672 0.262927)
(0.392968 -0.333882 0.258127)
(0.292451 -0.331928 0.321204)
(0.226818 -0.285791 0.330437)
(0.159499 -0.194595 0.336634)
(0.147315 0.00253554 0.313077)
(0.288867 0.00937875 0.33984)
(0.450751 -0.156698 0.331108)
(0.602528 -0.254097 0.34294)
(0.641453 -0.343315 0.351931)
(0.622079 -0.435538 0.353715)
(0.475681 -0.541008 0.335085)
(0.106046 -0.5665 0.317526)
(-0.172066 -0.298889 0.303321)
(-0.0389504 -0.127844 0.356064)
(0.231435 -0.15094 0.23724)
(0.283652 -0.403377 0.0723205)
(0.00970204 -0.518414 0.23755)
(-0.140629 -0.747494 -0.140955)
(0.203522 -0.71905 -0.480632)
(0.308954 -0.390362 -0.177318)
(0.332229 -0.374012 0.0937902)
(0.344459 -0.545068 0.1844)
(0.325836 -0.889858 0.120395)
(0.53032 -0.871606 0.0651114)
(0.609099 -0.690344 0.0990915)
(0.574627 -0.53633 0.139618)
(0.505111 -0.393514 0.190156)
(0.336248 -0.228102 0.247992)
(0.360697 -0.343459 0.197084)
(0.424441 -0.374129 0.143961)
(0.505818 -0.360596 0.0818091)
(0.616776 -0.293671 -0.0556607)
(0.863362 0.195534 -0.117858)
(0.907632 0.478617 -0.0227948)
(0.853241 0.682122 0.0476355)
(0.755513 0.785584 0.0904718)
(0.629579 0.813875 0.136522)
(0.486377 0.784058 0.156961)
(0.328049 0.721436 0.175572)
(0.161753 0.641252 0.131441)
(-0.015237 0.569715 0.0735272)
(-0.156876 0.492979 0.0647335)
(-0.306207 0.383689 0.127081)
(-0.413353 0.126827 0.140016)
(-0.283413 -0.156817 -0.00205345)
(-0.393367 -0.0944582 0.0300666)
(-0.473017 -0.0315842 0.0577475)
(-0.546138 0.0753109 0.0990068)
(-0.535715 0.0450151 0.0815522)
(-0.498541 -0.0808478 0.0208783)
(-0.459033 -0.134887 0.0101784)
(-0.392028 -0.185402 -0.0118346)
(-0.296544 -0.236425 -0.0274741)
(-0.188201 -0.262762 -0.0408855)
(-0.14472 -0.239879 -0.0340244)
(-0.195733 -0.213026 -0.0325781)
(-0.183338 -0.353728 -0.0490473)
(-0.123165 -0.345801 -0.0520509)
(-0.0998715 -0.362028 -0.0792499)
(-0.0769131 -0.395846 -0.11315)
(-0.0475578 -0.574852 -0.228432)
(-0.0855041 -0.512762 -0.168965)
(-0.102559 -0.592076 -0.133793)
(-0.155926 -0.549774 -0.0635227)
(-0.218281 -0.444888 -0.0293223)
(-0.304676 -0.126183 0.0339975)
(-0.189312 0.312862 0.176306)
(-0.0753997 0.434765 0.306744)
(0.00685732 0.511208 0.442987)
(0.0748467 0.499508 0.560406)
(0.143536 0.43495 0.62269)
(0.197048 0.321672 0.653068)
(0.247268 0.166504 0.626464)
(0.233666 -0.0109844 0.531151)
(0.101745 -0.133698 0.436967)
(-0.0148815 -0.095511 0.447198)
(-0.0338057 0.0212158 0.422961)
(-0.0337117 0.143192 0.423414)
(0.0379883 0.248061 0.360941)
(0.199483 0.136955 0.374386)
(0.155007 0.277325 0.447581)
(-0.065541 0.163768 -0.0938555)
(-0.174908 -0.0626884 -0.641436)
(-0.179567 -0.302023 -0.537159)
(-0.168342 -0.343339 -0.302104)
(-0.145255 -0.301564 -0.0932938)
(-0.061648 -0.585761 -0.106423)
(-0.0278365 -0.863297 -0.094101)
(0.0023407 -1.02016 -0.0915931)
(0.0327408 -1.14373 -0.100868)
(0.066097 -1.22744 -0.115192)
(0.096614 -1.28033 -0.129387)
(0.123226 -1.30699 -0.141384)
(0.147178 -1.31566 -0.153427)
(0.168024 -1.31378 -0.165984)
(0.186261 -1.30478 -0.176786)
(0.201881 -1.29012 -0.185222)
(0.215832 -1.27027 -0.190316)
(0.228208 -1.24493 -0.192934)
(0.239523 -1.21282 -0.191687)
(0.249132 -1.17284 -0.186493)
(0.254901 -1.12283 -0.175653)
(0.251969 -1.06005 -0.15901)
(0.194826 -0.997159 -0.139063)
(0.139787 -0.912321 -0.122732)
(0.16438 -0.828312 -0.0869422)
(0.187675 -0.727787 -0.0881766)
(0.203831 -0.559123 -0.0880774)
(0.246616 -0.442179 -0.0844243)
(0.0719675 -0.0299942 -0.0954556)
(0.366021 -0.298385 0.0437027)
(0.245788 -0.551123 -0.0571404)
(0.286244 -0.0948277 -0.0269352)
(0.180832 -0.0370323 -0.147438)
(0.201888 -0.112597 -0.124911)
(0.194861 -0.11941 -0.0815001)