/*--------------------------------*- C++ -*----------------------------------*\
| =========                 |                                                 |
| \\      /  F ield         | OpenFOAM: The Open Source CFD Toolbox           |
|  \\    /   O peration     | Version:  v2012                                 |
|   \\  /    A nd           | Website:  www.openfoam.com                      |
|    \\/     M anipulation  |                                                 |
\*---------------------------------------------------------------------------*/
FoamFile
{
    version     2.0;
    format      ascii;
    class       volScalarField;
    location    "90";
    object      alphat;
}
// * * * * * * * * * * * * * * * * * * * * * * * * * * * * * * * * * * * * * //

dimensions      [1 -1 -1 0 0 0 0];


internalField   nonuniform List<scalar> 
18258
(
0.00492127
0.00215924
0.00179096
0.00157228
0.0010258
0.00166318
0.00230205
0.00273534
0.00286575
0.002828
0.00291613
0.00490429
0.00686829
0.00847076
0.00888766
0.00887257
0.00805404
0.00771371
0.00843168
0.0103398
0.0086663
0.00555873
0.00664807
0.00770499
0.00841283
0.00746332
0.00604189
0.00559183
0.0050682
0.00423815
0.00357324
0.00251663
0.00171168
0.0016019
0.001465
0.00167866
0.00183422
0.00195951
0.00200624
0.00204207
0.00203171
0.00202315
0.00197051
0.00193201
0.00186481
0.00152215
0.00177392
0.00193602
0.00211256
0.00287568
0.00307535
0.0025831
0.00286225
0.00255811
0.00168998
0.00193563
0.00210117
0.00214724
0.0021206
0.00203337
0.00200421
0.00197949
0.00194798
0.00191047
0.00188769
0.00190684
0.0019266
0.00190542
0.00181146
0.00173505
0.00161116
0.00148692
0.00139442
0.00132264
0.0012686
0.00121009
0.00114425
0.00100535
0.000931831
0.00123442
0.00154959
0.0016554
0.00234597
0.00286003
0.00287916
0.00215199
0.00153092
0.00158751
0.00176726
0.00178913
0.0015194
0.00181575
0.00206148
0.00214032
0.00223384
0.00249543
0.00280627
0.00272189
0.00241771
0.00220679
0.00247813
0.00264045
0.00246001
0.0031844
0.0032552
0.00297773
0.0024746
0.00280172
0.00360937
0.00392867
0.00311019
0.00290658
0.00284536
0.00281347
0.00253947
0.00261893
0.00237156
0.00213621
0.00232373
0.00282185
0.00267951
0.00293248
0.00303654
0.00284677
0.00329708
0.00379758
0.00373588
0.00298894
0.00242451
0.00225962
0.00227727
0.00139237
0.00150397
0.00162815
0.00166773
0.0016935
0.00171627
0.00183114
0.00182702
0.00179965
0.00179597
0.00183221
0.00100762
0.00109043
0.00111804
0.00112591
0.00106896
0.00105882
0.00104015
0.00102442
0.000961991
0.000919815
0.00110119
0.00123689
0.00134738
0.00147545
0.00166903
0.00190572
0.00215407
0.00240471
0.0025703
0.00261701
0.00266446
0.00256772
0.0024701
0.00255806
0.00257315
0.00255717
0.00252371
0.00248121
0.0024232
0.00231576
0.00244141
0.00243524
0.00228871
0.00195988
0.00200421
0.00200073
0.00205303
0.00204336
0.00206481
0.00203613
0.00200167
0.0019049
0.00176945
0.00147779
0.00146247
0.00147973
0.0018977
0.00230208
0.00355392
0.00432892
0.00501482
0.00535544
0.0057288
0.00464812
0.0051778
0.00400088
0.00359058
0.0045607
0.00596312
0.0034033
0.00186391
0.00353281
0.00313974
0.00228253
0.00203114
0.00209307
0.00208034
0.00235632
0.00271443
0.0030154
0.00316022
0.00328865
0.00339002
0.00350207
0.0036453
0.00368367
0.0035585
0.00301075
0.00362687
0.00294632
0.00344488
0.00312976
0.00214479
0.00208727
0.00228192
0.00210867
0.00205431
0.00195235
0.00177413
0.00236379
0.00296862
0.00340819
0.00387592
0.00517598
0.00478141
0.00456998
0.00354436
0.00342487
0.00178989
0.00255517
0.00265269
0.00299817
0.00198913
0.00181926
0.00172269
0.00224201
0.00258425
0.00304801
0.0033824
0.00402082
0.00311658
0.00356515
0.00323517
0.00227439
0.00217246
0.00309361
0.00333111
0.00273955
0.00244444
0.00306718
0.0029012
0.00206211
0.00162267
0.0025062
0.00260221
0.00189031
0.00470977
0.00488892
0.00470507
0.00574389
0.00720241
0.00824574
0.0077035
0.00682852
0.00759875
0.00598945
0.00582442
0.00625982
0.00525258
0.00366221
0.00376095
0.00389611
0.00400531
0.00430286
0.00457222
0.0048998
0.00522156
0.00475206
0.00395207
0.00299493
0.00206901
0.00204738
0.0020375
0.00182924
0.00271041
0.00409098
0.00405562
0.00229754
0.0013419
0.00152538
0.00172479
0.00170832
0.00123341
0.000930512
0.00160293
0.00183146
0.0018601
0.00181323
0.00171147
0.00178798
0.00287109
0.00442294
0.00485986
0.00503328
0.00519728
0.00531306
0.00537735
0.00539756
0.00540876
0.00542264
0.00543496
0.0054538
0.00543711
0.00532148
0.00468066
0.00294246
0.00172023
0.00159832
0.00176418
0.00189622
0.0020116
0.00171187
0.00104629
0.00167137
0.00213982
0.00245907
0.00247994
0.00231447
0.00224531
0.00354097
0.00470874
0.0055512
0.00572266
0.00579978
0.00573752
0.00573108
0.00560823
0.00557248
0.00488986
0.00349028
0.00381434
0.00409538
0.00414126
0.00423603
0.00437768
0.00427629
0.00404257
0.00590161
0.00680843
0.00689522
0.00703988
0.00695468
0.00683331
0.00651843
0.00615958
0.00518425
0.00388716
0.00245201
0.00250281
0.00266404
0.00263818
0.00229628
0.00242155
0.00262999
0.00265661
0.00274446
0.00307878
0.00349855
0.00333732
0.00287059
0.00243989
0.00227316
0.0022273
0.00213771
0.00160297
0.00162615
0.00157934
0.00160384
0.00215165
0.00256054
0.00295381
0.00419213
0.00373885
0.00304014
0.00482946
0.00494919
0.00532058
0.00587841
0.00602467
0.00668337
0.00464068
0.00417867
0.00429092
0.00350305
0.00324144
0.00327447
0.00328637
0.00306016
0.0033494
0.00331985
0.00319974
0.00353294
0.00389713
0.00514021
0.00623248
0.00657992
0.0067817
0.00686472
0.00684195
0.00671227
0.00675801
0.00594529
0.00594913
0.00569637
0.00553361
0.00547575
0.00520659
0.00594982
0.00617582
0.00625047
0.00640456
0.00664474
0.00645972
0.00626201
0.00611146
0.00600195
0.00588645
0.00594648
0.00605667
0.00617328
0.00633637
0.00655404
0.00658812
0.00636278
0.00619215
0.00607481
0.00596401
0.00596692
0.0060655
0.00617998
0.00634173
0.0065476
0.00642913
0.00627014
0.00612733
0.00600985
0.00590594
0.00569805
0.00583452
0.00598404
0.00610602
0.00618288
0.00533937
0.00571164
0.00561599
0.00508613
0.00476142
0.00361547
0.00391255
0.0041251
0.0044925
0.00498461
0.00507926
0.00425936
0.00364905
0.00355343
0.00352429
0.00360709
0.00363751
0.00365725
0.00413382
0.00625023
0.00629243
0.00630601
0.00630627
0.00538746
0.00523496
0.00487839
0.00895821
0.00833287
0.00720853
0.00593125
0.00317212
0.0027191
0.00322221
0.00391881
0.0043808
0.00483441
0.00320956
0.00198572
0.00231279
0.0023955
0.00233346
0.00215582
0.00179629
0.00165789
0.00150412
0.00161867
0.00286851
0.00458132
0.00516072
0.00521466
0.0051608
0.00505586
0.00492458
0.0047411
0.00480004
0.0062122
0.00852765
0.00919881
0.00910846
0.00780771
0.0064588
0.00371386
0.0019831
0.0016105
0.0015892
0.00164466
0.00187354
0.00177708
0.00166109
0.00172746
0.00161927
0.00316695
0.00536412
0.00656177
0.00784118
0.00785044
0.00699739
0.0055377
0.00511379
0.00522898
0.00532634
0.00539803
0.00546946
0.00551784
0.00548631
0.00499209
0.00308094
0.00183882
0.00163278
0.00175496
0.00205734
0.00218757
0.00221227
0.00218357
0.00189446
0.00313677
0.00498079
0.00316769
0.00172659
0.00186399
0.00184873
0.00326182
0.00325905
0.00319194
0.00496611
0.00525687
0.00525018
0.00493177
0.00470515
0.00278551
0.00316592
0.00317789
0.00319526
0.00324795
0.00164123
0.00178937
0.00184539
0.00198724
0.00173577
0.00219719
0.000568768
0.000789848
0.000917644
0.000999627
0.00107722
0.00105648
0.00202336
0.00205672
0.00196234
0.00190664
0.00241869
0.00259656
0.00265257
0.00244118
0.00225199
0.00239816
0.00240443
0.00226616
0.00214619
0.00222461
0.0022254
0.00213221
0.00181344
0.00169923
0.00186564
0.00184614
0.00183179
0.00328815
0.00328234
0.00310615
0.00510406
0.00502231
0.00562473
0.00558535
0.00557258
0.00554293
0.00560327
0.00564099
0.00567062
0.00570082
0.0056902
0.00563539
0.00789152
0.00554353
0.00483728
0.00279711
0.00269427
0.00190279
0.00166772
0.00196394
0.00210064
0.0022775
0.00222612
0.0023465
0.00234344
0.00248677
0.00230817
0.00204966
0.0031398
0.00335486
0.00327696
0.00334213
0.00326336
0.00324431
0.00321989
0.00317351
0.00311787
0.00185632
0.00182079
0.00213234
0.00223847
0.0024053
0.00242717
0.00247983
0.00235197
0.00206871
0.00200257
0.00230604
0.00227498
0.002319
0.00218631
0.00217746
0.00194013
0.00198934
0.00401832
0.00744389
0.00381593
0.00424221
0.00384144
0.00437307
0.00382602
0.00329678
0.00337303
0.00296971
0.00309754
0.003249
0.00330743
0.0034754
0.00409591
0.00394248
0.0034613
0.00336162
0.00329598
0.00310813
0.00279772
0.00292999
0.00295532
0.0030178
0.00335323
0.00384806
0.00431345
0.00524595
0.00508999
0.00445701
0.00407536
0.00427447
0.00434762
0.00547733
0.00511593
0.00508625
0.0053682
0.00531833
0.00504849
0.00478289
0.00461609
0.00396199
0.0040287
0.00461486
0.00446301
0.00459814
0.00451665
0.0046953
0.00477994
0.00458784
0.00426283
0.004483
0.00447446
0.00496764
0.00483003
0.00448102
0.00409946
0.00438232
0.00433144
0.00500226
0.00470674
0.00440211
0.00405306
0.00388397
0.00440904
0.00432592
0.00490528
0.00504929
0.00505334
0.0044061
0.00430025
0.00511529
0.00492121
0.00475823
0.00495675
0.00410748
0.00421711
0.00519657
0.00530451
0.00503638
0.00420752
0.0042643
0.00365396
0.00429821
0.0053528
0.00505697
0.00414577
0.00344514
0.00481403
0.00506202
0.00535826
0.00506398
0.00551578
0.00594773
0.00484289
0.00527371
0.00690354
0.00524949
0.00609465
0.0062315
0.00626956
0.00627394
0.0062995
0.00633285
0.00667617
0.00650572
0.00412635
0.00493765
0.00479738
0.00400669
0.00339558
0.00374584
0.00403605
0.00409489
0.00419884
0.00435872
0.00428462
0.00414868
0.00604192
0.00687613
0.00705698
0.00720919
0.00708649
0.00688476
0.00645752
0.00597889
0.00500061
0.00373491
0.00234064
0.00238735
0.00254527
0.00252383
0.00219169
0.00164958
0.00108429
0.00160042
0.00165371
0.00155925
0.00142545
0.00126857
0.00132976
0.00240191
0.00388609
0.0050634
0.00656532
0.00737508
0.00805186
0.00857847
0.008961
0.00924228
0.00944146
0.00956938
0.00959267
0.0094109
0.00865997
0.00830777
0.00787161
0.00752746
0.00703106
0.00655392
0.00738143
0.0080674
0.00847317
0.00892555
0.00910361
0.00897367
0.00778692
0.00775392
0.00894632
0.0109451
0.00927902
0.0116363
0.0137077
0.0107548
0.00961426
0.00952351
0.0105361
0.010775
0.0104455
0.0098932
0.00924841
0.00842272
0.00882785
0.00918252
0.00951672
0.00983523
0.0106502
0.0108147
0.0107388
0.010549
0.0103053
0.00999688
0.00953879
0.00887951
0.00794457
0.00683219
0.0052035
0.00407831
0.00230255
0.0026285
0.00260854
0.00254964
0.00258702
0.00124702
0.00137374
0.00138625
0.0013859
0.00129169
0.00147591
0.002134
0.00345394
0.00248889
0.00207544
0.00138377
0.00160668
0.00267988
0.0044823
0.00495012
0.00510698
0.00616316
0.00739742
0.00799515
0.0084154
0.0087734
0.00892459
0.00882409
0.00856932
0.00811062
0.00759882
0.00736934
0.00701174
0.00668076
0.0065146
0.00626676
0.00593026
0.00496804
0.00430263
0.00448799
0.00446004
0.00426914
0.00455619
0.0047202
0.00471685
0.00477077
0.0048179
0.00496047
0.00512712
0.00527096
0.00534422
0.00536855
0.00537323
0.00538026
0.00538554
0.00539934
0.00537919
0.00526027
0.00461826
0.00288743
0.00168559
0.00156043
0.00171164
0.00181074
0.00185381
0.00164569
0.00105844
0.0016477
0.00213219
0.00218421
0.00239132
0.00246184
0.00260354
0.00289577
0.00335538
0.0034674
0.00307642
0.0029151
0.00285432
0.00277961
0.00239407
0.00298565
0.00327732
0.00327027
0.0032376
0.00349901
0.00430742
0.00414155
0.00365212
0.00361293
0.00357742
0.00324932
0.00320333
0.00348485
0.00352202
0.00365172
0.00428085
0.00513288
0.00476499
0.00434134
0.0041644
0.0038483
0.0033971
0.00307355
0.00377527
0.00312193
0.0016748
0.00147796
0.00141487
0.00142872
0.00139029
0.00164288
0.00172655
0.00174091
0.00160118
0.00177399
0.00196941
0.00188836
0.00215542
0.00213554
0.001921
0.00190678
0.00203455
0.00212469
0.00218275
0.00225685
0.00372708
0.00388083
0.00298945
0.0043014
0.00494832
0.00484671
0.00514239
0.0042293
0.00381255
0.00453339
0.00520722
0.00593443
0.00468594
0.00444624
0.0045327
0.0020827
0.0010956
0.00154657
0.001918
0.00214427
0.00207849
0.0019595
0.00165376
0.00292445
0.00300249
0.00472006
0.00528491
0.00533315
0.00533268
0.00571689
0.00649114
0.0075583
0.00794851
0.00806473
0.00793725
0.00762022
0.00705134
0.0065283
0.00648135
0.00628295
0.00612997
0.0060991
0.00544817
0.0047183
0.0048199
0.00477204
0.00493104
0.00500462
0.00505744
0.00511177
0.00520299
0.00531238
0.00541076
0.00547829
0.00552267
0.0055598
0.00559772
0.005635
0.00567496
0.00569355
0.00563438
0.00508664
0.00304865
0.00181813
0.00166014
0.00177133
0.00208166
0.00219036
0.00235319
0.00209061
0.00110213
0.00129912
0.00225573
0.00249454
0.00230627
0.00215899
0.0021238
0.00177843
0.00321755
0.00317385
0.00497883
0.00560096
0.00568055
0.00566568
0.00562147
0.00557261
0.00553148
0.00549838
0.0054731
0.00544545
0.00540424
0.00535082
0.00529619
0.0052386
0.00515243
0.00500817
0.00500698
0.00519678
0.00521768
0.00536203
0.00568
0.00588662
0.00583315
0.00564403
0.00549664
0.00546859
0.00550746
0.00555293
0.00559424
0.00561252
0.00555387
0.00523564
0.0049094
0.003119
0.00316112
0.0015591
0.00173361
0.00200142
0.00206714
0.00224751
0.00224343
0.001767
0.00136955
0.00154062
0.00143479
0.00256048
0.00281761
0.00312778
0.00309838
0.00168771
0.00172805
0.00179339
0.00203311
0.00188546
0.00181528
0.00446781
0.00431069
0.00451058
0.00553987
0.00479111
0.00333163
0.00366762
0.0050936
0.00535326
0.00325241
0.00241948
0.00270639
0.00344165
0.00504757
0.00509773
0.00482548
0.0048114
0.00354823
0.00433292
0.00516967
0.00503187
0.00397274
0.00274544
0.00201595
0.000974303
0.00185598
0.00159126
0.00388149
0.00429178
0.00422647
0.00463139
0.00492591
0.00497986
0.00483515
0.00429515
0.00437906
0.00442321
0.00503617
0.00505566
0.00428816
0.00361764
0.00293673
0.00295924
0.0030147
0.00334086
0.00418895
0.00394809
0.00346057
0.00335682
0.00328666
0.00309417
0.00279112
0.00245284
0.00246985
0.0022995
0.00222605
0.0035091
0.0046709
0.00550854
0.0056672
0.00572365
0.00563397
0.00559195
0.00543004
0.00534558
0.00464319
0.0059303
0.00626776
0.0060522
0.00610066
0.0061414
0.00618878
0.0061875
0.00606813
0.00521548
0.0031153
0.00203498
0.00229617
0.00247786
0.00232647
0.00231319
0.00246554
0.00233974
0.00205577
0.00333128
0.00325553
0.00520473
0.00589402
0.00602475
0.0060349
0.00600926
0.0059863
0.00599167
0.00630769
0.00616898
0.0062768
0.00662168
0.00662985
0.00670498
0.00629215
0.0062101
0.00615758
0.00612231
0.00606538
0.00591474
0.00523185
0.00507212
0.00576204
0.00594126
0.00602116
0.0060769
0.00614365
0.00623124
0.00648041
0.00666791
0.00673784
0.00645726
0.00634151
0.00618605
0.00597259
0.00592385
0.00591638
0.00591444
0.00588555
0.00572857
0.00504162
0.00324169
0.00332207
0.00197592
0.00198907
0.00229037
0.00240554
0.00236249
0.00218735
0.00213278
0.00364274
0.00414845
0.00442078
0.00476607
0.0045469
0.00452408
0.00518421
0.00501532
0.00450473
0.00467811
0.00416558
0.0039626
0.0038476
0.0038637
0.00203844
0.00220016
0.00229513
0.00225722
0.0021582
0.00192541
0.00176559
0.00322277
0.00319857
0.00315452
0.00187678
0.0018351
0.00216248
0.00209971
0.00192035
0.0016364
0.00179434
0.00276757
0.00309736
0.0047992
0.00497611
0.00532944
0.005704
0.00584894
0.00588621
0.0059063
0.0059314
0.00598935
0.00606307
0.00609062
0.00609338
0.00614584
0.00613647
0.00613778
0.00610566
0.00606753
0.00602297
0.00597532
0.0058978
0.00573899
0.00536107
0.00499109
0.00562696
0.0056803
0.00578795
0.00589932
0.00594726
0.00595562
0.0059347
0.00589134
0.00583857
0.00577793
0.00577519
0.00594718
0.00598774
0.00600659
0.00597752
0.00595522
0.00595133
0.00593078
0.0058914
0.00577576
0.0056608
0.00560871
0.00550877
0.00566018
0.00573474
0.00575372
0.00581835
0.00591846
0.00593807
0.00592698
0.00587748
0.00584161
0.00580645
0.00573748
0.00563322
0.00528491
0.00535492
0.00544575
0.00556615
0.00568242
0.00577595
0.00582813
0.00583097
0.00577565
0.00573787
0.0057375
0.00568702
0.00571246
0.00574081
0.00571386
0.00571241
0.00571814
0.0056535
0.00553409
0.00536923
0.00519506
0.00505344
0.00498486
0.00486996
0.00526524
0.00541737
0.00553926
0.00564101
0.00574423
0.00585631
0.00590578
0.00590486
0.00582924
0.0057814
0.00576716
0.00569897
0.00570282
0.00577335
0.00579209
0.00583703
0.00590965
0.00587992
0.00578081
0.00557325
0.00537741
0.00522307
0.00507004
0.00489085
0.00482551
0.00490232
0.00483327
0.00489744
0.00506769
0.00528134
0.00546833
0.00558633
0.00562266
0.00565567
0.00570437
0.00569577
0.00566573
0.00565267
0.00558645
0.0055277
0.00545362
0.00529049
0.00508142
0.00489785
0.00483941
0.00494194
0.00503582
0.00494396
0.00462632
0.00482021
0.00498966
0.00514452
0.00538075
0.0056658
0.00581501
0.0058731
0.00583166
0.00579463
0.00577165
0.00569982
0.00569007
0.00576195
0.00578906
0.00582975
0.00587718
0.00581608
0.00568673
0.0053441
0.00495774
0.00478762
0.00465195
0.00446914
0.00495939
0.00506629
0.00494915
0.00486648
0.00499343
0.00514411
0.0053039
0.00541422
0.0054591
0.00551793
0.00559276
0.00562582
0.00557137
0.00551148
0.0054345
0.0053927
0.00538776
0.00535546
0.0052549
0.00514192
0.00501205
0.00517385
0.00525803
0.0051607
0.00470914
0.00481646
0.0049864
0.00501849
0.00535022
0.00568196
0.00579352
0.0058312
0.00578675
0.00574641
0.00572216
0.00566456
0.00561591
0.0056354
0.00565433
0.00573473
0.00582164
0.00582441
0.00582256
0.00559436
0.00525625
0.00521668
0.00488591
0.00474452
0.00522079
0.0052921
0.00519006
0.00508833
0.00532252
0.00541638
0.00543948
0.00542164
0.0053697
0.00533289
0.00539907
0.00550191
0.00542104
0.00507414
0.00476267
0.00492252
0.0049586
0.00494518
0.00488415
0.00478217
0.00454521
0.0050603
0.00556298
0.00558858
0.00509741
0.00515055
0.00512555
0.00473682
0.00506386
0.00527439
0.00533082
0.00533875
0.00526909
0.00506036
0.00532526
0.00554511
0.005499
0.00500308
0.00326336
0.00331135
0.00333777
0.00334298
0.0032924
0.00327914
0.00322486
0.00319878
0.00311774
0.00303982
0.00296212
0.00315921
0.00332906
0.00355692
0.00357387
0.00366565
0.00350894
0.00331966
0.00309832
0.00240601
0.0030543
0.00364605
0.00387372
0.00416605
0.00422379
0.00486374
0.00511917
0.00525418
0.00514515
0.00412631
0.00349786
0.00279305
0.0018156
0.00113008
0.00132481
0.00137651
0.00144551
0.00177377
0.00329145
0.0016769
0.00232559
0.00181305
0.00313571
0.00160953
0.00103176
0.000684966
0.000879106
0.00105655
0.00107039
0.00102624
0.000856273
0.000673369
0.000687998
0.000641459
0.000681347
0.000612315
0.000701168
0.000651355
0.000881255
0.00121447
0.00145048
0.00149711
0.00121785
0.00138938
0.00116233
0.00134879
0.00120947
0.00132155
0.00126959
0.00155421
0.00170383
0.00162931
0.00163143
0.00142741
0.00099734
0.0011569
0.000908218
0.00109171
0.000833403
0.00107211
0.000920024
0.00119525
0.00123089
0.00122614
0.00117929
0.000899825
0.00106356
0.000837748
0.00103525
0.000856104
0.000925357
0.000772091
0.0011274
0.00115182
0.00106455
0.00113236
0.00126574
0.00134599
0.00146277
0.00137962
0.00156241
0.00150496
0.00151706
0.00144022
0.00140599
0.00137683
0.00138303
0.00136215
0.0013705
0.00141524
0.00141701
0.00142301
0.00146734
0.0014478
0.00141011
0.00138609
0.00123329
0.000998975
0.00174335
0.0017976
0.00183054
0.00183238
0.00179786
0.001771
0.00169602
0.00167729
0.00161509
0.00158613
0.0015061
0.001449
0.0013775
0.00155345
0.000872547
0.000993432
0.00105008
0.00108516
0.00110607
0.00111707
0.00112274
0.00111562
0.00110066
0.00107705
0.00106984
0.0010417
0.00132871
0.00151089
0.00158377
0.00160491
0.00150158
0.00142992
0.0031936
0.00388229
0.00583265
0.00596329
0.00450779
0.00447483
0.00152032
0.00162142
0.00110535
0.00155304
0.00160103
0.00158304
0.00149249
0.00107402
0.00160784
0.00112336
0.00150259
0.00113985
0.0013806
0.00116926
0.00168468
0.00216145
0.00209727
0.00190511
0.00132136
0.00109472
0.00109663
0.000931331
0.00101814
0.000832859
0.0010182
0.000854243
0.00122559
0.0016514
0.00188734
0.00193429
0.00153196
0.00211699
0.00159704
0.00231511
0.0018546
0.0022999
0.00186032
0.00214788
0.00265986
0.00267332
0.00260924
0.00210133
0.00167279
0.00188213
0.00166152
0.00191977
0.00278335
0.0018199
0.00279279
0.00115043
0.0015693
0.00161869
0.00159717
0.00150623
0.00101344
0.00256927
0.00136155
0.00239973
0.00155348
0.00245923
0.00181348
0.00242849
0.00290056
0.00304759
0.00304086
0.00248549
0.00224911
0.00234143
0.00186558
0.00223772
0.00165599
0.00240135
0.00135951
0.00175747
0.00191562
0.00202021
0.00202225
0.00165313
0.00327254
0.00206453
0.00311513
0.00217788
0.00279479
0.00224561
0.00244867
0.00289567
0.00287634
0.00285
0.00241633
0.00195944
0.00258891
0.00183782
0.0561246
0.128602
0.0517121
0.13033
0.0585537
0.0834052
0.0822085
0.0824094
0.0828582
0.0624486
0.136279
0.160545
0.167102
0.168982
0.167628
0.270772
0.220782
0.331297
0.21446
0.126743
0.0552716
0.0759514
0.195085
0.32145
0.483029
0.613639
0.418277
0.433418
0.276592
0.273015
0.257585
0.208985
0.128827
0.0648272
0.0108437
0.0117585
0.0169929
0.0228346
0.0178304
0.0108033
0.0021315
0.00219521
0.00223875
0.00226114
0.0022414
0.00217716
0.00219222
0.0020571
0.00190981
0.00211275
0.00227914
0.00270399
0.00311732
0.00343847
0.00308116
0.00339231
0.00360875
0.00378386
0.00392568
0.00413332
0.00436641
0.00457484
0.00459098
0.00421154
0.00358911
0.0029298
0.00247576
0.00234886
0.00220929
0.00194832
0.00178377
0.00167508
0.00161952
0.00159541
0.00163808
0.00178862
0.00191729
0.00196125
0.00191965
0.00188335
0.00185159
0.0016479
0.00192561
0.00264125
0.0026657
0.00456602
0.00526086
0.00536935
0.00537592
0.00477037
0.00304779
0.00305438
0.00306991
0.00312795
0.00313992
0.00314658
0.00314335
0.00313213
0.0031148
0.00308401
0.00306837
0.00302371
0.00298256
0.00288199
0.00288654
0.00293018
0.00296043
0.00292077
0.00294115
0.00286376
0.00341507
0.00467144
0.00548353
0.00575028
0.0059802
0.00580932
0.0079614
0.00669514
0.00480812
0.00485195
0.00477486
0.00564392
0.00566105
0.00517993
0.00524406
0.00492865
0.0030538
0.0030256
0.00302611
0.00317286
0.0032204
0.00331634
0.00334108
0.00336904
0.00338452
0.00339077
0.00339173
0.00336756
0.00334708
0.00326728
0.00324099
0.00323005
0.00177992
0.00194496
0.00202088
0.00203236
0.00205811
0.00204432
0.00202793
0.00200492
0.00198966
0.00196148
0.00193103
0.00188691
0.00179963
0.00164062
0.00181394
0.00308986
0.00309208
0.00510731
0.00556299
0.00555383
0.00608052
0.00581809
0.00553432
0.00591683
0.00545205
0.00545288
0.00502561
0.0031152
0.00315527
0.00186956
0.00184153
0.00215164
0.00208426
0.00220354
0.00224527
0.00223979
0.00226245
0.00228912
0.00232334
0.00238287
0.00240108
0.00236889
0.00236486
0.00222274
0.00191644
0.00193994
0.00229347
0.00241099
0.00223295
0.00218917
0.00217234
0.00211975
0.00208241
0.00204827
0.00208515
0.00226006
0.00228051
0.00225004
0.00216204
0.00211292
0.00184061
0.00178976
0.00310802
0.00312421
0.00500844
0.00518041
0.00506683
0.00564727
0.00621223
0.00708957
0.0059995
0.00486392
0.00504387
0.00571623
0.0041095
0.00345035
0.00193681
0.00173886
0.00200915
0.00205512
0.00212241
0.00218991
0.00193073
0.00205931
0.00188824
0.0017119
0.00169653
0.00169133
0.00173016
0.00174596
0.00177561
0.00177901
0.00182154
0.00181693
0.00182223
0.00184462
0.00185843
0.00205418
0.00223904
0.00188307
0.00159396
0.00154806
0.00146132
0.00139101
0.00142568
0.00139217
0.00138473
0.00136116
0.00134042
0.00128189
0.0013397
0.0014267
0.0016754
0.00161006
0.00129659
0.00115407
0.000788581
0.000799501
0.000804898
0.000828634
0.000836906
0.000846837
0.000850451
0.000863438
0.000865699
0.000869559
0.000869061
0.000889882
0.000886579
0.000875964
0.000869398
0.000873373
0.000877281
0.000876856
0.00128454
0.00143159
0.00157094
0.0018684
0.00220108
0.00189646
0.00160506
0.00137726
0.000883596
0.000896574
0.000914517
0.000922689
0.00094407
0.000962159
0.000983725
0.00099666
0.00100736
0.00101755
0.00102889
0.00103315
0.00103107
0.00101087
0.000999331
0.00102454
0.00112437
0.00118212
0.00125587
0.00128339
0.00130806
0.00132062
0.00131262
0.00132478
0.00130737
0.00130379
0.00127874
0.0012666
0.00125466
0.00123987
0.00122327
0.00118495
0.00117133
0.00123311
0.00208067
0.00272087
0.00315
0.00344946
0.00307982
0.00241082
0.00264521
0.00464492
0.00434441
0.00261236
0.00240905
0.00217921
0.00184283
0.0016659
0.00206123
0.00237402
0.00261362
0.00282987
0.00302405
0.00315492
0.00331622
0.00352344
0.00389472
0.00394563
0.00360192
0.00292952
0.00249469
0.00234203
0.00226597
0.00212621
0.00197445
0.00202178
0.00203658
0.0019759
0.00189975
0.00187655
0.00190659
0.00194245
0.00191803
0.00191586
0.00171027
0.00171003
0.00292014
0.00298044
0.00458297
0.00482648
0.00487122
0.0031327
0.0030891
0.00180419
0.00167535
0.00182754
0.00189672
0.00190043
0.00190794
0.00189827
0.00186579
0.00184259
0.00181618
0.00179457
0.00177693
0.0017429
0.00167854
0.00155044
0.00169359
0.00190017
0.0019813
0.00200064
0.00200746
0.00203647
0.00208563
0.00212511
0.00221884
0.00222866
0.0022271
0.00223519
0.00209016
0.0021559
0.00182486
0.00182285
0.00315957
0.00315208
0.00181112
0.0021382
0.00215158
0.00212493
0.00228751
0.00209352
0.00202784
0.00201716
0.0019341
0.00189096
0.00183312
0.0017999
0.00183919
0.00196043
0.00190535
0.00168568
0.00164172
0.00183552
0.00175372
0.0014549
0.0012417
0.00120498
0.00115177
0.00111947
0.00117182
0.00121216
0.00123491
0.00126378
0.00127212
0.00132622
0.00129021
0.00135394
0.0014357
0.00150001
0.00177936
0.00192859
0.00174235
0.00170959
0.00168843
0.00168663
0.00169208
0.00162426
0.00162013
0.00158576
0.00156881
0.00152342
0.00150327
0.00147812
0.00148456
0.00150232
0.00165301
0.0042573
0.00541756
0.00565923
0.00962359
0.00391144
0.00399679
0.00785461
0.00322153
0.00485319
0.00522867
0.00545537
0.0056765
0.00518835
0.00660223
0.0045721
0.00505321
0.00536201
0.00494536
0.00175015
0.001635
0.00168561
0.00182816
0.00168255
0.00116219
0.00127931
0.0013322
0.00137361
0.00140386
0.00143113
0.0014609
0.00148784
0.00150805
0.00150999
0.00146626
0.00141837
0.00130726
0.00127034
0.00131961
0.0013707
0.00120683
0.00113721
0.00115096
0.00117073
0.00118167
0.00118448
0.00119642
0.00119999
0.00121871
0.0012092
0.0012187
0.00119863
0.00120965
0.00119287
0.00115108
0.00109418
0.000996224
0.000971887
0.00139978
0.00149087
0.00156771
0.00177744
0.00205255
0.00219144
0.00196407
0.00180936
0.00173692
0.00192858
0.00192525
0.00349491
0.00670447
0.00300362
0.00337252
0.00978548
0.00389226
0.00303667
0.00308283
0.00311477
0.00311831
0.00181313
0.00214703
0.00208011
0.00208674
0.00176906
0.00148497
0.00133274
0.00119186
0.000808256
0.000805603
0.00081168
0.000824196
0.000828121
0.000793517
0.000793473
0.000789289
0.000787703
0.000771729
0.000767301
0.000754286
0.000746509
0.000727505
0.000717248
0.000698545
0.000693581
0.000675024
0.000717174
0.000848449
0.00100336
0.00110333
0.00116722
0.0013855
0.00366342
0.00411574
0.0056425
0.00556217
0.00880851
0.00548405
0.00414943
0.00378942
0.00553744
0.0056961
0.00549417
0.00755034
0.0051866
0.00338644
0.00402146
0.00343008
0.00506534
0.00481991
0.00475826
0.00722462
0.00774433
0.00226191
0.00202715
0.0021479
0.00243378
0.00288619
0.00256612
0.00297078
0.00291523
0.00217908
0.00155732
0.0049478
0.00609789
0.0046092
0.00528886
0.00847469
0.0034563
0.00337692
0.00299527
0.00249968
0.0022754
0.00223632
0.00248961
0.00298077
0.00763534
0.00814711
0.00604963
0.00663572
0.00589808
0.00726473
0.00901545
0.00928023
0.00813263
0.00760959
0.00751854
0.00413336
0.00316317
0.00362606
0.00397113
0.00529388
0.00548248
0.0115048
0.0039242
0.00433205
0.0043898
0.00588158
0.00569017
0.0100461
0.00425117
0.00457444
0.00604045
0.00802913
0.0148501
0.00539914
0.00568787
0.00818874
0.00830577
0.00759474
0.00551643
0.00500906
0.00545478
0.00410492
0.00401506
0.0034549
0.00511116
0.00682759
0.00538696
0.00523103
0.00445273
0.00394855
0.00406315
0.00420316
0.00348512
0.00344939
0.00398781
0.00292477
0.00276549
0.00308627
0.000832233
0.00042773
0.000438478
0.000449964
0.000458947
0.000468082
0.000474816
0.000482617
0.000486122
0.00048639
0.000487632
0.000515165
0.000510368
0.000494125
0.00044871
0.000511993
0.000812542
0.000813077
0.000511362
0.000450863
0.000808848
0.00128865
0.00151833
0.00179697
0.0018195
0.00156918
0.001361
0.000837716
0.0008247
0.000499932
0.000583801
0.000634017
0.000562414
0.000627591
0.000581752
0.000616426
0.000622852
0.000576744
0.000573553
0.000575922
0.00057188
0.00056216
0.000549853
0.000534261
0.000520555
0.000509505
0.000496506
0.000473977
0.000411696
0.000376028
0.00042815
0.000635182
0.000638806
0.000614389
0.000601742
0.000592863
0.000593326
0.000597343
0.00059722
0.000608067
0.000627441
0.000632788
0.000638335
0.000687398
0.000665898
0.00071113
0.000667099
0.000712595
0.000668994
0.000615397
0.000516778
0.000533083
0.000859956
0.000868959
0.00140407
0.00160653
0.00182309
0.00183304
0.00204807
0.0021581
0.00182755
0.00189788
0.00217541
0.00202517
0.00180447
0.00181056
0.0016283
0.00162858
0.00144172
0.000900773
0.000888588
0.000558067
0.000542044
0.000646274
0.000635012
0.000706255
0.00075571
0.00075619
0.000753898
0.000735014
0.000728419
0.000640852
0.000628281
0.000629149
0.000609546
0.000601883
0.000615703
0.000646757
0.000732878
0.000873357
0.000953865
0.00100086
0.000979659
0.000887426
0.000623444
0.00058603
0.00099525
0.00106079
0.00168405
0.00412317
0.00164005
0.00385124
0.00275764
0.000726348
0.000825615
0.00105388
0.00118147
0.00127628
0.00130883
0.00117489
0.000968021
0.000730022
0.000606615
0.000944677
0.000818799
0.000945233
0.000828093
0.00107105
0.00124
0.00120058
0.00121053
0.00102381
0.00083505
0.000884175
0.000795411
0.000877181
0.000733683
0.00088255
0.000797298
0.00100227
0.00101182
0.00099091
0.000939422
0.000715434
0.000750722
0.000629664
0.000683001
0.000613082
0.000633752
0.000600702
0.000700582
0.000807343
0.000774854
0.000771858
0.000634216
0.000496997
0.000548883
0.000474716
0.000537248
0.000417791
0.000506141
0.00042446
0.000549116
0.000563913
0.000560729
0.000546094
0.000433143
0.000511816
0.00064625
0.000688993
0.000699113
0.000666893
0.000515203
0.000796873
0.000718743
0.000877743
0.000759588
0.000831425
0.000757302
0.000882523
0.00113003
0.00117947
0.00118722
0.000962953
0.000956537
0.0017424
0.0963676
0.00156744
0.00185247
0.00190993
0.00190289
0.00157359
0.00153589
0.00190131
0.00140737
0.00199202
0.00125453
0.0021237
0.000809221
0.00123045
0.00132087
0.00131744
0.00122327
0.000812121
0.00238134
0.123244
0.310926
0.334548
0.333639
0.320608
0.143737
0.500556