/*--------------------------------*- C++ -*----------------------------------*\
| =========                 |                                                 |
| \\      /  F ield         | OpenFOAM: The Open Source CFD Toolbox           |
|  \\    /   O peration     | Version:  v2012                                 |
|   \\  /    A nd           | Website:  www.openfoam.com                      |
|    \\/     M anipulation  |                                                 |
\*---------------------------------------------------------------------------*/
FoamFile
{
    version     2.0;
    format      ascii;
    class       volScalarField;
    location    "90";
    object      nut;
}
// * * * * * * * * * * * * * * * * * * * * * * * * * * * * * * * * * * * * * //

dimensions      [0 2 -1 0 0 0 0];


internalField   nonuniform List<scalar> 
18258
(
0.00425481
0.00186711
0.00154873
0.00135959
0.00088696
0.00143798
0.00199035
0.00236474
0.00247737
0.00244452
0.00252051
0.00423886
0.00593627
0.0073207
0.0076803
0.00766637
0.00695807
0.00666393
0.00728342
0.00893004
0.00748334
0.00480054
0.00574065
0.00665315
0.00726376
0.00644405
0.0052175
0.00482876
0.00437659
0.00365973
0.00308566
0.00217408
0.00147933
0.0013845
0.0012662
0.00145083
0.00158521
0.00169344
0.00173379
0.00176473
0.00175576
0.00174836
0.00170288
0.00166965
0.00161162
0.00131557
0.00153307
0.00167252
0.00182481
0.0024839
0.00265611
0.00223066
0.00247099
0.00220874
0.00145979
0.00167175
0.00181473
0.00185454
0.00183166
0.00175646
0.0017314
0.00171017
0.00168307
0.00165078
0.00163122
0.00164787
0.00166504
0.00164681
0.0015657
0.00149969
0.00139267
0.00128531
0.00120536
0.00114332
0.0010966
0.00104601
0.000989092
0.000869016
0.000805457
0.001067
0.00133942
0.00143084
0.0020277
0.00247198
0.00248843
0.00186003
0.00132332
0.00137227
0.00152765
0.00154656
0.00131346
0.0015694
0.00178173
0.00184982
0.00193062
0.00215672
0.00242549
0.00235269
0.0020898
0.00190751
0.00214223
0.00228265
0.00212673
0.00275276
0.00281394
0.00257403
0.00213891
0.00242163
0.0031196
0.00339537
0.00268789
0.00251188
0.00245897
0.00243149
0.00219479
0.00226345
0.00204967
0.00184627
0.00200828
0.00243862
0.00231566
0.0025343
0.00262415
0.00246013
0.00284923
0.00328173
0.00322851
0.00258304
0.00209549
0.001953
0.00196824
0.00120343
0.00129986
0.00140707
0.00144128
0.00146355
0.00148324
0.00158254
0.00157899
0.00155535
0.00155217
0.00158353
0.000870858
0.00094242
0.00096627
0.000973064
0.000923826
0.000915061
0.000898926
0.000885329
0.000831435
0.000794999
0.000951762
0.00106905
0.00116454
0.00127521
0.00144246
0.00164689
0.00186131
0.00207764
0.00222047
0.00226067
0.00230151
0.00221795
0.0021336
0.0022095
0.00222252
0.00220873
0.00217986
0.00214316
0.00209302
0.00200016
0.00210845
0.00210303
0.00197649
0.00169282
0.00173102
0.00172799
0.00177313
0.00176479
0.00178332
0.00175859
0.00172885
0.00164535
0.00152845
0.00127652
0.00126309
0.00127788
0.00163879
0.00198797
0.003069
0.00373816
0.00433059
0.00462477
0.00494669
0.00401341
0.00447082
0.00345438
0.00310007
0.0039377
0.00514875
0.00293844
0.00160932
0.00305027
0.002711
0.00197086
0.00175382
0.00180731
0.0017965
0.0020348
0.00234362
0.00260308
0.00272793
0.00283875
0.00292615
0.00302291
0.00314645
0.00317979
0.00307179
0.00259928
0.0031304
0.00254373
0.00297482
0.00270303
0.00185242
0.00180309
0.00197125
0.00182156
0.00177457
0.00168651
0.00153295
0.00204159
0.00256319
0.00294257
0.00334632
0.00446899
0.00412821
0.00394549
0.00305999
0.0029569
0.00154536
0.00220613
0.00229035
0.00258865
0.00171746
0.00157089
0.00148764
0.00193586
0.00223085
0.00263085
0.0029192
0.00346999
0.00269057
0.00307851
0.00279395
0.00196432
0.00187627
0.00267168
0.00287649
0.00236526
0.0021106
0.0026487
0.00250555
0.00178098
0.0014015
0.00216451
0.00224733
0.00163236
0.0040669
0.00422123
0.00406234
0.00495851
0.00621838
0.00711785
0.00664984
0.0058951
0.00656001
0.00517227
0.00502961
0.00540461
0.00453572
0.00316286
0.0032476
0.00336376
0.00345733
0.00371345
0.00394532
0.00422762
0.00450553
0.00410157
0.003413
0.00258768
0.00178815
0.00176946
0.0017609
0.00158089
0.0023424
0.00353557
0.00350496
0.00198575
0.00115988
0.00131847
0.0014908
0.00147655
0.00106621
0.000804349
0.00138557
0.00158296
0.00160764
0.00156708
0.00147909
0.00154521
0.00248129
0.0038225
0.00420006
0.00434995
0.00449173
0.00459185
0.0046475
0.00466508
0.00467489
0.00468704
0.00469783
0.00471426
0.00469998
0.00460017
0.00404636
0.00254386
0.00148732
0.00138199
0.00152544
0.00163963
0.00173945
0.00148041
0.00090479
0.00144526
0.00185037
0.00212621
0.00214418
0.00200099
0.0019411
0.00306116
0.00407063
0.00479874
0.00494677
0.00501326
0.00495925
0.00495352
0.00484719
0.00481614
0.00422604
0.00301676
0.00329655
0.00353934
0.00357893
0.00366078
0.0037832
0.0036956
0.00349382
0.0051004
0.00588473
0.00596023
0.00608602
0.00601311
0.00590877
0.00563691
0.00532687
0.00448356
0.00336183
0.00212067
0.0021647
0.00230426
0.00228197
0.00198641
0.00209452
0.0022747
0.00229768
0.00237357
0.00266258
0.00302536
0.00288585
0.0024822
0.0021098
0.00196561
0.00192592
0.00184841
0.00138602
0.0014061
0.00136565
0.00138686
0.00186054
0.00221419
0.00255416
0.00362497
0.00323301
0.0026289
0.00417574
0.00427926
0.00460032
0.00508262
0.00520911
0.00577853
0.00401252
0.00361311
0.00371036
0.00302939
0.00280323
0.00283191
0.00284224
0.00264676
0.00289694
0.00287131
0.00276737
0.00305551
0.00337021
0.00444508
0.00538934
0.00568946
0.00586351
0.00593476
0.00591446
0.00580179
0.00584088
0.00513792
0.00514109
0.00492255
0.00478189
0.0047319
0.00449937
0.005142
0.0053373
0.00540187
0.00553512
0.00574283
0.00558331
0.00541227
0.00528204
0.00518732
0.00508747
0.00513958
0.00523489
0.00533579
0.00547692
0.00566529
0.00569522
0.00550014
0.00535241
0.00525084
0.00515495
0.00515769
0.00524306
0.00534222
0.00548231
0.00566064
0.0055586
0.00542076
0.005297
0.0051952
0.0051052
0.0049257
0.00504389
0.0051734
0.00527916
0.00534599
0.00461688
0.0049384
0.00485543
0.00439711
0.0041162
0.00312562
0.00338252
0.00356638
0.00388409
0.0043098
0.00439186
0.00368327
0.00315557
0.00307305
0.00304789
0.00311962
0.00314589
0.00316281
0.00357483
0.00540478
0.00544121
0.00545297
0.00545321
0.00465871
0.00452677
0.00421829
0.00774552
0.00720496
0.00623323
0.00512881
0.00274318
0.00235151
0.00278641
0.00338871
0.00378829
0.00418035
0.00277543
0.00171723
0.00200016
0.00207183
0.00201829
0.00186476
0.001554
0.00143425
0.00130118
0.00140016
0.00248104
0.00396222
0.00446314
0.00450966
0.00446295
0.0043721
0.00425853
0.00409991
0.00415093
0.00537203
0.00737371
0.00795372
0.00787561
0.00675129
0.00558498
0.00321129
0.00171466
0.0013925
0.00137427
0.00142228
0.00162016
0.00153674
0.00143626
0.00149361
0.00140016
0.00273835
0.00463859
0.00567421
0.00678014
0.00678809
0.00605053
0.00478831
0.00442151
0.00452093
0.00460514
0.00466723
0.00472914
0.00477114
0.00474406
0.00431691
0.00266447
0.00159039
0.00141227
0.00151801
0.00177957
0.00189209
0.00191331
0.00188838
0.00163827
0.00271245
0.00430672
0.00273909
0.00149309
0.00161198
0.00159886
0.0028207
0.00281819
0.00276008
0.00429405
0.00454519
0.00453909
0.00426409
0.00406837
0.00240865
0.00273746
0.00274772
0.00276266
0.00280811
0.00141915
0.00154727
0.00159577
0.00171856
0.00150125
0.00189999
0.000491805
0.000683139
0.000793533
0.000864411
0.000931489
0.000913512
0.00174974
0.00177862
0.00169704
0.00164889
0.00209148
0.00224521
0.00229356
0.00211076
0.00194713
0.00207352
0.00207898
0.00195949
0.00185572
0.00192346
0.00192413
0.00184356
0.00156793
0.00146915
0.00161303
0.00159621
0.00158385
0.00284276
0.00283763
0.00268531
0.00441226
0.00434183
0.00486242
0.00482864
0.00481793
0.00479261
0.00484459
0.00487688
0.00490216
0.00492802
0.00491864
0.0048714
0.00682077
0.00479158
0.00418131
0.00241796
0.00232916
0.00164506
0.00144183
0.00169797
0.00181618
0.00196912
0.00192475
0.00202871
0.00202613
0.00214998
0.00199545
0.00177188
0.00271424
0.00290006
0.00283264
0.00288889
0.00282075
0.00280421
0.00278313
0.00274311
0.00269509
0.00160472
0.00157409
0.00184347
0.00193526
0.00207953
0.00209836
0.00214393
0.00203328
0.00178832
0.0017311
0.00199353
0.00196662
0.00200479
0.00189003
0.00188229
0.00167705
0.00171963
0.00347342
0.00643441
0.00329859
0.00366714
0.00332079
0.00378039
0.00330752
0.00285
0.00291601
0.00256739
0.002678
0.00280894
0.00285952
0.00300483
0.00354139
0.00340887
0.00299279
0.00290655
0.00284973
0.00268727
0.00241889
0.00253329
0.00255526
0.00260933
0.00289941
0.00332721
0.0037296
0.00453573
0.00440093
0.00385372
0.00352375
0.0036959
0.00375913
0.00473575
0.00442334
0.00439767
0.00464135
0.00459817
0.00436478
0.00413506
0.00399077
0.00342527
0.00348282
0.00398937
0.00385824
0.0039751
0.0039047
0.0040592
0.00413248
0.00396637
0.00368543
0.00387587
0.00386848
0.00429478
0.00417574
0.00387409
0.00354414
0.00378878
0.00374485
0.00432473
0.00406916
0.00380579
0.00350414
0.00335803
0.00381198
0.00374009
0.00424085
0.00436541
0.00436894
0.00380946
0.00371793
0.00442244
0.00425462
0.00411383
0.00428551
0.00355135
0.00364609
0.00449276
0.00458613
0.00435439
0.00363788
0.00368694
0.00315927
0.0037163
0.00462793
0.00437225
0.00358455
0.0029788
0.00416217
0.00437644
0.00463246
0.00437796
0.00476835
0.00514152
0.00418663
0.0045589
0.00596748
0.00453784
0.00526812
0.00538618
0.00541887
0.00542245
0.00544435
0.00547298
0.00576948
0.00562194
0.00356592
0.00426691
0.00414564
0.00346235
0.00293472
0.0032371
0.00348782
0.00353859
0.00362837
0.00376654
0.00370251
0.00358522
0.00522064
0.00594198
0.00609867
0.0062312
0.0061261
0.00595246
0.00558364
0.00517018
0.00432441
0.00322993
0.00202421
0.0020647
0.0022014
0.00218294
0.00189582
0.00142688
0.000937933
0.0013845
0.0014306
0.00134886
0.00123311
0.00109736
0.00115018
0.00207733
0.00336086
0.00437939
0.00567826
0.006378
0.00696264
0.00741748
0.00774778
0.00799058
0.00816244
0.00827276
0.00829269
0.00813549
0.00748647
0.0071819
0.00680467
0.006507
0.00607757
0.00566491
0.00637938
0.00697171
0.00732176
0.00771198
0.00786495
0.00775155
0.00672542
0.00669706
0.00772661
0.0094521
0.00801177
0.0100463
0.0118365
0.00928741
0.00830273
0.00822452
0.00910082
0.00930909
0.00902563
0.0085492
0.00799266
0.00727961
0.0076302
0.00793713
0.00822634
0.00850194
0.00920632
0.0093486
0.00928318
0.00911937
0.00890902
0.00864284
0.00824724
0.00767773
0.00686987
0.00590865
0.00450046
0.00352709
0.00199144
0.00227332
0.00225608
0.00220522
0.00223759
0.00107869
0.00118828
0.0011991
0.0011988
0.00111731
0.00127662
0.00184573
0.00298706
0.00215258
0.00179502
0.00119684
0.00138955
0.00231752
0.00387592
0.00428029
0.00441603
0.00532974
0.00639684
0.00691328
0.00727627
0.00758543
0.00771585
0.00762876
0.0074084
0.00701188
0.00656946
0.00637094
0.0060616
0.00577519
0.00563112
0.0054166
0.00512576
0.00429414
0.00371858
0.00387855
0.00385421
0.00368942
0.00393729
0.00407899
0.00407608
0.00412268
0.00416341
0.00428664
0.0044307
0.00455506
0.00461845
0.00463958
0.00464374
0.00464993
0.00465463
0.00466669
0.00464942
0.00454677
0.00399199
0.00249603
0.00145722
0.00134909
0.00147986
0.00156557
0.00160285
0.00142301
0.000915179
0.00142463
0.00184359
0.00188843
0.00206748
0.00212845
0.00225101
0.00250372
0.0029012
0.00299816
0.00266031
0.0025209
0.00246844
0.00240389
0.0020706
0.00258214
0.00283424
0.00282811
0.00279974
0.00302567
0.00372433
0.00358127
0.00315816
0.00312443
0.00309376
0.00281019
0.00277034
0.00301357
0.00304568
0.00315766
0.00370158
0.00443786
0.00412
0.0037538
0.00360105
0.00332774
0.00293782
0.00265804
0.00326514
0.00270021
0.00144859
0.00127844
0.0012239
0.00123587
0.00120262
0.0014211
0.00149345
0.00150587
0.00138504
0.00153453
0.00170358
0.00163347
0.00186429
0.00184715
0.00166161
0.00164934
0.00175987
0.00183782
0.00188801
0.00195203
0.00322341
0.00335637
0.00258544
0.00372004
0.00427957
0.00419171
0.00444735
0.00365765
0.00329725
0.00392065
0.00450332
0.0051322
0.00405246
0.00384521
0.00391991
0.00180119
0.000947482
0.00133751
0.00165877
0.00185446
0.00179756
0.00169464
0.00143019
0.00252886
0.00259623
0.00408108
0.00456925
0.00461081
0.0046104
0.00494286
0.0056126
0.0065354
0.00687249
0.00697274
0.00686236
0.0065882
0.00609641
0.00564424
0.00560345
0.00543164
0.00529903
0.00527195
0.00470935
0.00407821
0.0041654
0.00412367
0.00426106
0.00432466
0.00437034
0.00441735
0.00449623
0.00459082
0.00467591
0.00473435
0.00477279
0.00480498
0.00483785
0.00487019
0.00490485
0.00492104
0.00487003
0.00439674
0.00263532
0.00157179
0.00143521
0.00153136
0.00179967
0.00189366
0.00203448
0.00180768
0.000952908
0.00112357
0.00195052
0.0021567
0.00199386
0.00186652
0.00183611
0.00153751
0.00278132
0.00274366
0.00430383
0.0048414
0.00491003
0.00489704
0.0048587
0.00481635
0.0047807
0.00475199
0.00473005
0.00470606
0.00467038
0.00462417
0.00457691
0.00452721
0.00445288
0.00432824
0.0043282
0.00449262
0.0045109
0.00463541
0.00491013
0.00508854
0.00504206
0.00487836
0.00475085
0.00472661
0.00476031
0.00479973
0.00483558
0.00485154
0.00480102
0.00452614
0.0042444
0.00269645
0.00273278
0.001348
0.00149881
0.00173038
0.00178724
0.0019431
0.00193965
0.00152783
0.0011841
0.00133203
0.00124055
0.0022139
0.00243614
0.00270419
0.0026787
0.00145921
0.00149414
0.00155068
0.00175788
0.00163027
0.00156964
0.00386262
0.00372672
0.00389945
0.00478907
0.0041419
0.00288039
0.00317078
0.00440334
0.00462776
0.00281182
0.0020918
0.00233977
0.00297545
0.0043635
0.00440681
0.00417141
0.00415932
0.00306777
0.00374609
0.00446908
0.00434992
0.00343489
0.00237405
0.00174288
0.000842339
0.00160463
0.00137575
0.00335555
0.00371019
0.00365368
0.00400361
0.00425828
0.00430493
0.00417979
0.00371311
0.00378567
0.00382385
0.00435362
0.00437043
0.0037071
0.00312749
0.00253889
0.00255843
0.00260644
0.00288848
0.00362169
0.00341344
0.00299191
0.00290215
0.00284141
0.00267496
0.00241296
0.00212063
0.00213525
0.00198786
0.00192425
0.00303331
0.00403751
0.00476136
0.00489832
0.00494693
0.00486925
0.0048328
0.00469276
0.00461969
0.00401263
0.00512447
0.00541616
0.00522999
0.005272
0.00530737
0.00534851
0.0053476
0.00524466
0.00450798
0.00269279
0.00175901
0.00198488
0.00214206
0.00201125
0.00199971
0.00213136
0.0020225
0.00177695
0.00287938
0.00281384
0.00449844
0.00509392
0.00520668
0.00521525
0.00519292
0.0051729
0.00517741
0.00545036
0.00533036
0.0054236
0.00572171
0.00572882
0.00579407
0.00543752
0.00536679
0.00532161
0.00529132
0.00524232
0.00511234
0.00452233
0.00438404
0.00498013
0.00513482
0.00520368
0.00525168
0.00530918
0.00538471
0.00559985
0.00576162
0.00582204
0.00557946
0.00547936
0.00534514
0.00516078
0.00511878
0.00511246
0.00511095
0.00508618
0.00495071
0.00435724
0.00280173
0.00287126
0.00170785
0.00171926
0.00197978
0.00207945
0.00204231
0.00189097
0.00184383
0.00314915
0.0035862
0.00382174
0.0041201
0.00393059
0.00391096
0.00448163
0.0043356
0.00389451
0.00404436
0.00360126
0.00342582
0.00332602
0.00333985
0.00176222
0.00190194
0.00198395
0.00195107
0.00186544
0.00166415
0.001526
0.00278531
0.00276442
0.00272642
0.00162217
0.00158621
0.00186924
0.00181508
0.00166011
0.0014146
0.00155106
0.00239217
0.00267708
0.00414796
0.00430061
0.0046058
0.00492929
0.00505435
0.00508638
0.00510359
0.00512514
0.00517511
0.00523872
0.00526245
0.00526494
0.00531037
0.00530226
0.00530358
0.005276
0.00524321
0.00520487
0.00516387
0.00509706
0.00496
0.00463359
0.00431398
0.00486339
0.0049093
0.00500212
0.00509818
0.00513944
0.0051465
0.00512825
0.00509063
0.00504485
0.00499226
0.00498992
0.00513843
0.00517339
0.00518975
0.00516474
0.00514558
0.00514236
0.00512474
0.00509087
0.00499112
0.00489198
0.00484715
0.00476104
0.00489173
0.00495591
0.00497212
0.00502778
0.00511413
0.00513091
0.00512119
0.00507827
0.00504718
0.00501669
0.00495704
0.00486702
0.00456618
0.00462666
0.00470529
0.00480949
0.0049101
0.00499109
0.00503633
0.00503896
0.00499132
0.00495887
0.00495876
0.00491542
0.00493724
0.00496146
0.00493797
0.00493652
0.0049413
0.00488529
0.00478195
0.00463933
0.00448868
0.00436613
0.00430668
0.00420737
0.00454883
0.00468025
0.00478569
0.00487373
0.00496302
0.00506
0.00510289
0.00510225
0.00503706
0.0049959
0.00498378
0.00492511
0.00492829
0.00498901
0.00500503
0.0050437
0.00510631
0.00508047
0.00499468
0.00481519
0.00464587
0.00451237
0.00438001
0.00422517
0.00416872
0.00423516
0.00417571
0.00423134
0.00437862
0.00456341
0.00472515
0.00482728
0.00485883
0.00488753
0.00492982
0.00492266
0.00489655
0.00488501
0.00482759
0.00477665
0.00471248
0.00457135
0.00439053
0.00423172
0.00418105
0.00426943
0.00435028
0.00427083
0.0039963
0.00416388
0.00431051
0.0044445
0.00464875
0.00489521
0.00502429
0.00507463
0.00503896
0.00500712
0.00498742
0.00492557
0.00491703
0.00497894
0.00500223
0.00503725
0.00507811
0.00502516
0.00491325
0.00461699
0.00428297
0.00413576
0.00401829
0.00386027
0.00428398
0.00437646
0.00427556
0.00420438
0.00431431
0.0044447
0.00458293
0.00467839
0.0047173
0.00476828
0.00483311
0.00486193
0.00481475
0.00476278
0.00469612
0.00465988
0.00465553
0.00462753
0.00454053
0.00444273
0.00433026
0.00446976
0.00454192
0.00445768
0.00406731
0.0041601
0.00430732
0.00433533
0.0046222
0.00490907
0.00500563
0.00503833
0.00500004
0.0049653
0.00494447
0.00489488
0.00485275
0.00486944
0.00488569
0.00495507
0.00503008
0.00503235
0.00503061
0.0048332
0.00454075
0.00450626
0.00421997
0.00409775
0.00450942
0.00457129
0.00448385
0.00439634
0.00459905
0.00468028
0.00470028
0.00468489
0.00464003
0.00460828
0.00466557
0.00475463
0.00468465
0.00438474
0.00411552
0.00425363
0.0042848
0.00427318
0.00422039
0.00413213
0.00392705
0.00437171
0.00480517
0.00482689
0.00440236
0.00444838
0.00442748
0.004092
0.00437485
0.00455697
0.00460586
0.00461283
0.00455272
0.00437242
0.0046014
0.0047915
0.00475159
0.00432296
0.0028197
0.00286115
0.00288398
0.00288847
0.00284476
0.00283328
0.00278639
0.00276383
0.00269382
0.00262651
0.00255941
0.00272972
0.0028765
0.0030734
0.00308808
0.0031674
0.00303203
0.00286852
0.00267727
0.00207926
0.00263947
0.00315076
0.00334746
0.00360006
0.00365002
0.00420283
0.00442345
0.00454009
0.00444591
0.00356566
0.00302264
0.00241362
0.00156895
0.000976571
0.00114487
0.00118956
0.00124921
0.00153248
0.00282466
0.00144075
0.0019925
0.00155478
0.00267863
0.00138864
0.000891414
0.000591793
0.000759504
0.000912806
0.000924792
0.000886693
0.000739846
0.000581854
0.000594491
0.000554291
0.000588754
0.000529104
0.000605882
0.000562815
0.000761479
0.00104937
0.00125323
0.00129348
0.00105215
0.00120032
0.00100422
0.00116527
0.00104501
0.00114173
0.00109697
0.00134267
0.00147192
0.00140753
0.00140935
0.00123308
0.000861551
0.000999447
0.000784585
0.00094314
0.000719897
0.00092607
0.000794606
0.00103229
0.00106302
0.00105886
0.00101834
0.000776951
0.00091816
0.000723219
0.000893648
0.00073903
0.000799341
0.000667059
0.000973972
0.0009951
0.000919763
0.000978251
0.00109334
0.00116246
0.00126303
0.00119141
0.00134857
0.00129898
0.00130943
0.00124322
0.00121393
0.00118887
0.00119433
0.00117637
0.00118363
0.00122233
0.0012239
0.00122914
0.00126752
0.00125066
0.00121813
0.00119739
0.00106545
0.000863072
0.00150611
0.00155292
0.00158132
0.00158288
0.00155306
0.00152985
0.00146512
0.00144893
0.00139523
0.00137021
0.00130112
0.0012518
0.00119008
0.00134202
0.000753797
0.000858198
0.000907112
0.000937409
0.000955463
0.000964967
0.000969874
0.000963746
0.000950836
0.000930461
0.000924253
0.000899958
0.00114785
0.00130517
0.00136812
0.00138636
0.00129707
0.00123512
0.00275823
0.0033529
0.00503659
0.00514936
0.00389293
0.00386456
0.0013131
0.00140022
0.000954328
0.00134082
0.00138216
0.00136651
0.00128821
0.000926859
0.00138753
0.000969359
0.00129661
0.000983687
0.00119219
0.00100968
0.00145448
0.00186614
0.00181104
0.00164536
0.00114137
0.000945812
0.000947482
0.000804715
0.000879716
0.000719644
0.000879786
0.000738095
0.00105897
0.00142683
0.00163059
0.00167108
0.00132342
0.00182877
0.0013797
0.0019999
0.00160228
0.00198667
0.00160709
0.0018551
0.00229729
0.00230889
0.00225352
0.00181482
0.0014447
0.00162567
0.00143502
0.00165825
0.00240308
0.00157106
0.00241087
0.000992943
0.00135441
0.00139686
0.00137807
0.00129935
0.000873879
0.00221516
0.00117365
0.00206839
0.00133902
0.00212042
0.00156364
0.00209302
0.00250048
0.00262804
0.0026231
0.00214468
0.00194163
0.00202142
0.00161089
0.00193218
0.00143003
0.00207374
0.00117416
0.00151775
0.00165423
0.00174454
0.00174643
0.00142775
0.00282613
0.00178297
0.00269008
0.00188084
0.00241321
0.00193932
0.00211432
0.00250025
0.00248349
0.00246068
0.0020862
0.00169155
0.00223511
0.00158657
0.0484626
0.111002
0.0446499
0.112477
0.050554
0.0719925
0.0709455
0.071098
0.071466
0.0538557
0.117474
0.138424
0.144117
0.145781
0.144645
0.233654
0.190548
0.285932
0.185114
0.109402
0.0477284
0.0655783
0.168408
0.277465
0.416877
0.529514
0.360941
0.373931
0.238623
0.235473
0.222111
0.180166
0.111039
0.05589
0.00934146
0.0101241
0.0146343
0.0196733
0.0153822
0.00932792
0.00184165
0.00189661
0.00193418
0.00195351
0.00193648
0.00188106
0.0018942
0.00177744
0.00165016
0.0018254
0.00196908
0.00233593
0.00269294
0.00297009
0.00266191
0.0029305
0.00311718
0.00326806
0.00339013
0.00356907
0.00377004
0.0039499
0.00396417
0.00363741
0.00310074
0.00253174
0.0021396
0.00202993
0.0019093
0.00168375
0.00154156
0.0014476
0.00139957
0.00137873
0.0014156
0.00154572
0.00165695
0.00169497
0.00165908
0.00162764
0.00160017
0.00142411
0.00166415
0.0022826
0.00230351
0.00394572
0.00454611
0.00463989
0.00464561
0.0041222
0.00263364
0.00263931
0.00265273
0.00270287
0.00271321
0.00271896
0.00271617
0.00270646
0.00269148
0.00266485
0.00265132
0.00261265
0.00257706
0.00249001
0.00249394
0.00253155
0.0025576
0.00252334
0.0025409
0.0024741
0.00295095
0.00403706
0.00473869
0.00496879
0.00516669
0.00501893
0.00687927
0.00578534
0.00415397
0.00419155
0.00412504
0.00487514
0.00488939
0.0044735
0.00452907
0.00425732
0.00263799
0.0026137
0.00261414
0.00274107
0.00278218
0.00286517
0.00288658
0.0029108
0.00292419
0.00292965
0.00293049
0.00290965
0.00289196
0.00282305
0.00280034
0.00279091
0.00153795
0.00168053
0.00174611
0.00175602
0.00177825
0.00176633
0.00175214
0.00173223
0.00171901
0.00169464
0.00166829
0.00163014
0.00155467
0.0014173
0.00156702
0.00266905
0.00267096
0.00441157
0.00480445
0.00479628
0.00525152
0.00502554
0.00478052
0.00511023
0.00470836
0.00470937
0.00434096
0.00269089
0.0027255
0.00161508
0.00159086
0.00185883
0.0018006
0.00190371
0.00193981
0.00193512
0.00195472
0.0019778
0.00200739
0.00205887
0.00207462
0.00204682
0.00204336
0.00192056
0.00165592
0.00167624
0.0019817
0.00208324
0.00192939
0.00189155
0.00187697
0.0018315
0.00179921
0.00176968
0.00180152
0.0019526
0.00197023
0.00194392
0.00186783
0.0018254
0.00159007
0.00154617
0.00268466
0.00269873
0.00432631
0.00447423
0.00437601
0.00487811
0.00536719
0.00612581
0.00518336
0.00420152
0.00435702
0.00493858
0.00355084
0.00298085
0.00167352
0.00150225
0.00173587
0.0017755
0.0018337
0.00189198
0.0016681
0.00177918
0.00163141
0.00147906
0.0014658
0.00146131
0.00149488
0.00150853
0.00153417
0.00153711
0.00157389
0.00156991
0.00157451
0.00159385
0.0016058
0.00177494
0.00193468
0.00162712
0.0013773
0.00133762
0.00126268
0.00120191
0.00123186
0.00120288
0.00119645
0.00117608
0.00115815
0.00110757
0.00115751
0.00123267
0.00144753
0.00139109
0.00112026
0.000997141
0.000681355
0.000690779
0.000695441
0.000715955
0.000723104
0.000731687
0.000734809
0.000746038
0.000747993
0.00075133
0.0007509
0.000768905
0.000766053
0.000756882
0.00075121
0.000754654
0.000758037
0.000757671
0.00110994
0.001237
0.00135742
0.00161446
0.0019019
0.00163871
0.00138692
0.00119008
0.000763507
0.000774721
0.000790229
0.00079729
0.000815773
0.000831407
0.00085005
0.000861231
0.000870483
0.000879294
0.000889092
0.000892778
0.000890982
0.000873532
0.000863562
0.000885345
0.000971605
0.00102151
0.00108525
0.00110902
0.00113035
0.0011412
0.0011343
0.00114481
0.00112979
0.0011267
0.00110507
0.00109457
0.00108428
0.0010715
0.00105717
0.00102405
0.0010123
0.00106569
0.00179816
0.00235146
0.0027223
0.00298114
0.00266169
0.00208343
0.00228607
0.00401385
0.00375391
0.00225758
0.00208172
0.00188293
0.00159215
0.00143941
0.0017809
0.00205117
0.00225816
0.00244492
0.00261257
0.00272552
0.00286476
0.00304376
0.00336445
0.00340853
0.00311195
0.00253141
0.00215591
0.00202404
0.00195828
0.00183748
0.00170632
0.0017472
0.00175997
0.00170751
0.00164169
0.00162161
0.00164759
0.00167861
0.00165753
0.00165561
0.00147791
0.0014777
0.00252337
0.00257542
0.00396024
0.00417066
0.00420932
0.00270703
0.00266935
0.00155906
0.00144771
0.00157921
0.00163899
0.00164219
0.00164868
0.00164032
0.00161224
0.00159219
0.00156935
0.00155067
0.00153539
0.00150596
0.00145029
0.00133959
0.00146327
0.00164182
0.00171198
0.00172872
0.00173465
0.00175973
0.00180223
0.00183636
0.00191737
0.00192586
0.00192451
0.00193151
0.00180617
0.001863
0.00157694
0.00157522
0.00273025
0.00272377
0.0015651
0.00184774
0.00185929
0.00183627
0.00197675
0.0018091
0.00175234
0.0017431
0.00167131
0.00163402
0.00158403
0.00155531
0.00158923
0.00169396
0.00164632
0.00145644
0.00141847
0.001586
0.00151537
0.00125721
0.00107299
0.00104127
0.000995296
0.000967386
0.00101262
0.00104748
0.00106714
0.00109209
0.0010993
0.00114607
0.00111495
0.00117003
0.00124069
0.00129627
0.00153767
0.0016666
0.00150566
0.00147735
0.00145907
0.0014575
0.00146222
0.00140359
0.00140001
0.00137031
0.00135566
0.00131643
0.00129902
0.00127727
0.00128284
0.00129817
0.00142838
0.0036788
0.00468147
0.00489037
0.00831769
0.00337976
0.00345342
0.00678843
0.00278337
0.00419349
0.00451811
0.0047141
0.00490514
0.00448321
0.00570593
0.0039505
0.00436636
0.00463333
0.00427328
0.0015123
0.00141284
0.00145682
0.00158025
0.00145442
0.00100459
0.0011058
0.00115149
0.00118726
0.00121339
0.00123695
0.00126267
0.00128595
0.00130342
0.0013051
0.0012673
0.00122591
0.00112988
0.00109797
0.00114054
0.00118469
0.00104307
0.0009829
0.00099478
0.00101186
0.00102131
0.00102373
0.00103405
0.00103713
0.00105329
0.00104508
0.00105327
0.00103592
0.00104543
0.00103093
0.000994809
0.000945638
0.000860982
0.000839947
0.00120974
0.00128845
0.00135484
0.00153607
0.00177377
0.00189376
0.00169725
0.0015635
0.0015009
0.00166655
0.0016637
0.00301999
0.0057934
0.0025955
0.00291421
0.00845569
0.00336329
0.00262399
0.0026639
0.0026915
0.00269458
0.00156685
0.00185538
0.00179758
0.00180329
0.00152879
0.00128329
0.00115172
0.00102998
0.000698477
0.000696174
0.000701425
0.00071224
0.000715631
0.000685717
0.000685679
0.000682064
0.000680693
0.000666886
0.000663059
0.000651813
0.000645092
0.00062867
0.000619807
0.000603645
0.000599358
0.000583359
0.000619807
0.000733344
0.000867092
0.000953483
0.00100868
0.00119728
0.00316564
0.00355645
0.00487572
0.00480639
0.00761249
0.00473889
0.00358559
0.0032745
0.00478502
0.00492209
0.00474761
0.0065249
0.00448188
0.00292633
0.00347551
0.00296428
0.00437701
0.00416514
0.00411198
0.00624355
0.00669302
0.00195516
0.00175224
0.00185654
0.00210362
0.00249464
0.00221813
0.00256774
0.00251967
0.00188328
0.0013456
0.00427524
0.00526977
0.00398305
0.0045706
0.00732349
0.00298717
0.00291855
0.00258874
0.00216047
0.00196664
0.00193291
0.00215181
0.00257629
0.00659835
0.00704081
0.00522846
0.00573451
0.0050971
0.00627806
0.00779104
0.00801987
0.00702832
0.00657635
0.00649791
0.00357229
0.00273343
0.00313335
0.00343152
0.00457457
0.00473756
0.00994341
0.00339089
0.00374334
0.0037933
0.00508252
0.00491711
0.00868259
0.0036735
0.00395288
0.00521985
0.00693851
0.0128345
0.00466558
0.00491512
0.00707646
0.00717758
0.00656314
0.004767
0.0043285
0.00471365
0.00354716
0.00346948
0.00298545
0.00441665
0.00590042
0.00465498
0.00452023
0.00384771
0.0034124
0.00351107
0.00363206
0.00301158
0.0029807
0.00344595
0.00252736
0.00238974
0.00266693
0.000719176
0.000369634
0.000378919
0.000388844
0.000396606
0.000404499
0.000410317
0.00041706
0.000420089
0.000420321
0.000421393
0.000445193
0.000441048
0.000427012
0.000387769
0.000442464
0.000702184
0.000702646
0.000441919
0.000389638
0.000699002
0.00111364
0.00131213
0.00155292
0.00157241
0.00135609
0.00117618
0.000723951
0.000712701
0.000432047
0.000504526
0.000547924
0.00048604
0.000542365
0.000502745
0.000532709
0.000538262
0.00049841
0.000495653
0.000497699
0.000494206
0.000485807
0.000475173
0.000461702
0.000449861
0.000440319
0.000429092
0.00040963
0.000355782
0.000324963
0.00037003
0.000549075
0.00055218
0.000531043
0.000520084
0.000512385
0.000512768
0.00051623
0.000516115
0.000525487
0.000542232
0.000546853
0.000551648
0.000594052
0.00057547
0.000614571
0.000576516
0.000615843
0.000578159
0.000531838
0.000446609
0.000460701
0.000743173
0.000750955
0.00121341
0.00138838
0.00157552
0.00158412
0.0017699
0.00186496
0.00157931
0.00164007
0.00187992
0.00175011
0.00155944
0.00156468
0.00140721
0.00140744
0.00124596
0.000778456
0.000767923
0.000482294
0.000468446
0.000558531
0.000548794
0.000610369
0.000653111
0.000653525
0.000651541
0.000635216
0.000629512
0.000553825
0.000542962
0.000543715
0.000526774
0.000520156
0.000532113
0.000558975
0.000633454
0.000754936
0.00082457
0.000865205
0.000846862
0.000767117
0.000538944
0.000506604
0.000860335
0.000916977
0.00145568
0.00356333
0.00141759
0.00332872
0.00238357
0.000627868
0.000713653
0.000910976
0.00102129
0.00110328
0.00113144
0.00101564
0.000836756
0.000631046
0.000524381
0.000816668
0.00070786
0.000817155
0.000715921
0.000925895
0.00107195
0.00103786
0.00104643
0.000885008
0.00072183
0.000764327
0.000687582
0.000758308
0.000634225
0.000762958
0.000689178
0.000866353
0.000874594
0.000856513
0.000811998
0.000618382
0.000648872
0.000544261
0.000590347
0.000529941
0.000547773
0.000519237
0.00060551
0.000697781
0.000669695
0.000667099
0.00054813
0.00042953
0.000474385
0.00041027
0.000464328
0.000361069
0.000437437
0.000366826
0.000474566
0.000487358
0.000484613
0.000471975
0.000374358
0.000442328
0.000558506
0.000595436
0.000604175
0.000576325
0.000445224
0.000688675
0.000621128
0.00075857
0.000656432
0.00071854
0.00065446
0.00076268
0.000976587
0.00101932
0.00102603
0.0008322
0.000826742
0.00150554
0.0832954
0.00135436
0.00160068
0.00165031
0.00164422
0.00135964
0.00132697
0.00164266
0.00121587
0.00172105
0.0010838
0.00183488
0.000699243
0.00106332
0.00114148
0.00113853
0.00105715