/*--------------------------------*- C++ -*----------------------------------*\
| =========                 |                                                 |
| \\      /  F ield         | OpenFOAM: The Open Source CFD Toolbox           |
|  \\    /   O peration     | Version:  v2012                                 |
|   \\  /    A nd           | Website:  www.openfoam.com                      |
|    \\/     M anipulation  |                                                 |
\*---------------------------------------------------------------------------*/
FoamFile
{
    version     2.0;
    format      ascii;
    class       surfaceScalarField;
    location    "90";
    object      phi;
}
// * * * * * * * * * * * * * * * * * * * * * * * * * * * * * * * * * * * * * //

dimensions      [1 0 -1 0 0 0 0];
oriented        oriented;


internalField   nonuniform List<scalar> 
50655
(
0.00255057
-0.00377345
-0.00113464
-0.00493949
0.000415542
0.00428847
-0.00372364
0.00322024
0.00534891
-0.00238142
-0.0022382
0.00213358
-0.00369785
-0.00328409
0.00304184
-0.00205876
-0.00428181
0.00160549
-0.000654873
-0.00420458
0.00227635
-0.00242417
-0.00743106
0.00313893
-0.0108402
0.00348036
-0.000169954
-0.0116909
-0.00389339
0.00463398
-0.0123934
-0.00510964
0.00570973
-0.0132255
-0.00582479
0.00655276
-0.026717
-0.00954609
0.0228436
-0.0494286
-0.028795
0.0509462
-0.0489689
-0.0532391
0.052082
-0.0314954
-0.0714518
0.0532003
-0.00480699
-0.0780774
0.0506059
0.00733236
-0.0544284
0.0414775
-0.00246492
-0.0313942
0.0404184
-0.0216793
-0.0224444
0.0408919
-0.0176296
-0.05185
0.0470778
-0.00767165
-0.0561787
0.045663
-0.0396045
0.0316037
-0.0426555
0.01887
-0.0161203
-0.0171352
-0.0761712
0.050156
0.01964
-0.0801551
0.0428834
0.0306846
-0.0302252
0.0188734
0.0348244
-0.0044772
0.0377101
0.0175688
-0.0207771
0.0268522
-0.0186687
0.0292506
0.0179583
-0.00992774
0.0186524
0.00602309
-0.0023431
0.0141514
-0.00517991
0.00603834
0.00506935
-0.00493586
0.00108164
-0.0013664
-0.00499963
-0.000779556
0.000824926
-0.00594041
-8.95463e-05
0.00101304
-0.00720983
-0.000119453
0.00137226
-0.00828689
-0.000216178
0.0012761
-0.00868068
-0.000559489
0.000936914
-0.00893625
-0.000995557
0.00123453
-0.00854518
-0.00143893
0.00103157
-0.00791395
-0.00194828
0.00130037
-0.0067152
-0.00243251
0.00121733
-0.00525654
-0.00292808
0.00145255
-0.00345045
-0.0032212
0.00139893
-0.00171113
-0.00338249
0.0016262
0.00156442
-0.00329315
0.0014503
-0.00197474
0.00206321
-0.00678288
0.00444614
0.00374525
-0.0128178
0.00421828
0.00176012
-0.0140662
0.00471837
-0.00353701
-0.0133653
0.00510603
-0.00587383
-0.00545231
0.00450146
-0.012471
0.000506844
0.00558131
-0.0115822
0.000603163
0.00356251
-0.00368447
-0.00149613
0.0020817
-0.00291897
0.0021439
-0.000738197
-0.0044626
0.00219528
-0.000667815
-0.00576577
0.00235927
-0.00107249
-0.00703004
0.00232008
-0.00107077
-0.00852788
0.00251027
-0.00102645
-0.0100913
0.00259544
-0.00104544
-0.0113858
0.00238883
-0.00110744
-0.0122903
0.00202957
-0.00113807
-0.0127622
0.00161912
-0.00116029
-0.0130851
0.00145434
-0.0011447
-0.0136924
0.00158215
-0.000989089
-0.0139025
0.00113946
-0.000944472
-0.0136103
0.00091452
-0.00122214
-0.0136029
0.000801601
-0.000824678
-0.0133285
0.000848138
-0.00113861
-0.013081
0.000925079
-0.00118848
-0.0129361
0.000871015
-0.00103166
-0.0126614
0.000605417
-0.000895695
-0.0121235
0.000159786
-0.000713166
-0.0112301
-0.000406006
-0.00050271
-0.0101186
-0.000858238
-0.00026854
-0.00880774
-0.000953309
-0.000372337
-0.00736434
-0.000705039
-0.000752214
-0.00757228
-0.000649316
0.000845252
-0.0163891
0.000899188
0.00789106
-0.021128
0.000597992
0.00408028
-0.022524
0.00130911
2.1688e-05
-0.0423538
0.0165298
0.00318256
-0.0542888
0.00628387
0.00535273
-0.029402
-0.0154486
-0.00974587
-0.0130603
-0.0146039
-0.00186992
-0.0111556
-0.00381243
0.00182969
-0.00984383
-0.00283036
0.00142849
-0.0079051
-0.00314595
0.00110569
-0.00460633
-0.0030493
-0.000344772
-0.00298124
-0.00171041
-0.00412848
0.00439188
-0.00333955
-0.00222963
0.00663752
-0.00865002
0.00158414
0.00606933
-0.0100153
0.00714073
0.00576734
-0.0114688
0.016564
0.00840629
-0.0180107
0.0298315
0.0128994
-0.0264496
0.0242432
0.0191449
-0.0138381
0.0139755
0.00555644
0.00452656
0.00243154
0.000258713
0.0111378
-0.00488136
-0.0066245
0.0138024
-0.0056951
-0.00815661
0.00885397
-0.00773059
0.00507695
0.00548466
0.000709471
-0.0105418
0.00437277
-0.00998913
0.00283071
-0.00234192
-0.00677728
0.00674167
-0.0110114
0.00236696
0.00642834
-0.014034
0.00522362
0.00321858
-0.0401407
0.0244798
0.0228654
-0.0026751
-0.0141974
0.0354237
-0.0112113
-0.0378338
-0.00561076
0.00896141
-0.0092763
-0.00120654
0.00878996
-0.00755692
0.00220937
0.00937883
-0.00684786
0.00427592
0.00943312
-0.0049721
0.0069098
-0.00138513
0.0110722
-0.00454081
-0.00288474
0.0122551
-0.00153499
-0.00258073
0.00885087
-0.000438813
-0.00369516
-0.0021083
-0.0209106
-0.0015828
0.0294654
-0.0108418
-0.0141776
-0.00110882
-0.00730493
-0.0018942
-0.00753769
0.0157239
0.00213512
-0.0105384
0.0217657
0.00188147
-0.00918842
0.0320836
0.00129406
-0.0133715
0.0828616
-0.0009728
-0.0364641
0.0465427
-0.00240569
0.0454697
-0.00113071
0.00694974
-0.00265023
0.0383629
0.00371004
0.0215765
0.00185634
0.0232211
-0.000362657
0.0112652
0.0139594
0.00607082
-0.00757516
0.000163418
0.00679174
0.00519416
-0.00136352
0.0073073
0.00816183
-0.00143006
0.00710735
-0.0150146
0.00795566
-0.00194632
0.00735713
-0.0153409
0.0084802
-0.00115234
0.00742502
-0.0166403
0.00840085
-0.00114578
0.00740682
-0.0160301
0.00859594
-0.000543276
0.00723374
-0.0164259
0.00856909
-0.00016368
0.00697716
-0.0158875
0.00851079
0.00073001
0.0061489
-0.0152191
0.00815794
0.00564279
0.00437621
-0.0167192
0.00741566
0.00149244
-0.00416758
0.00550518
0.00279842
0.000801294
0.00530148
-0.000241115
0.000582954
0.00704807
-0.000691591
0.000716362
0.00795339
-0.00112193
0.000851914
0.00826658
-0.00118136
0.00118824
0.0083701
-0.00131286
0.00141198
0.00855239
-0.0013644
0.00142162
0.00868983
-0.00135532
0.0011931
0.00870026
-0.00137671
0.000882747
0.00880943
-0.00120366
0.00728782
-0.00027305
0.00933182
-0.00192513
-0.000837888
0.0110022
-0.00176838
-0.000870743
0.0122772
-0.00146717
-0.000681884
0.0130594
-0.000247445
-0.000956535
0.0134852
0.000907216
-0.00118893
0.013663
0.00175386
-0.00134206
0.0136643
0.00227265
-0.00141926
0.013726
0.00227967
-0.00143279
0.0136833
0.00185243
-0.000978113
0.0136902
0.00137294
-0.000594247
0.0138707
0.00125222
-0.000533828
0.0132557
0.00117167
0.00056755
0.0123988
0.0024407
0.000247555
-0.000263365
0.0126317
-0.000408551
0.00244562
-0.000828938
0.012287
-0.000235096
0.00280593
-0.000620232
0.0114103
-7.34435e-05
0.00311533
-0.0001488
0.0101478
4.71249e-05
0.000313583
0.00327737
0.00855162
0.000737907
0.00331463
0.000125563
0.00681199
0.00105608
0.00304947
0.000130524
0.00580768
0.000980016
0.00224801
8.14e-05
0.00437102
0.00463893
-0.000859393
0.00283333
0.00428804
-0.00057128
0.00141151
-0.00052715
0.00407645
0.0038879
-0.000411626
0.00559449
-0.00052071
-0.00120203
0.00681498
-0.000415633
-0.000821706
0.00778708
-0.000616716
-0.000371881
0.00815274
-0.00048441
0.000102033
0.00821363
-0.000621253
0.00054389
0.00752365
-0.000268586
0.000941972
0.00654072
-0.000297439
0.0012638
0.00470716
0.00030213
0.00151434
0.00196507
0.00119171
0.00153324
-0.00184141
0.00208397
0.00170456
-0.00458027
0.00051211
0.00220875
-0.00612219
-0.000902468
0.00242513
-0.00742939
0.000621227
0.000664022
-0.0139944
0.000479044
0.00604106
-0.0252696
-0.00663245
0.0177919
-0.0314578
-0.0163945
0.0224174
-0.0395018
-0.026612
0.0343895
-0.0322379
0.0240294
0.0163235
-0.0390705
0.00914318
0.0262778
-0.0168061
0.00678333
-0.00465363
0.0042655
-0.0326316
0.0265524
0.00137678
-0.0149442
-0.0233269
0.00560424
-0.0376214
0.00582479
0.0415933
-0.0578933
-0.000184599
0.0294894
-0.0510814
0.0153962
0.0126323
-0.00984957
0.0170523
-0.0101116
0.0110868
-0.00268886
0.0192579
0.00783706
0.0115931
-0.0125641
0.0134806
0.00542565
-0.00622988
0.00142195
0.0113296
0.00500385
0.00103157
0.00279185
0.0012993
-0.000982731
0.00150289
0.00276222
-0.00485675
0.003889
0.00204745
-0.00541509
-0.000438756
0.00216785
-0.00954307
0.00197273
0.00243689
-0.0082074
-0.00369459
0.00204138
-0.0118573
0.00192242
0.00143899
-0.00889932
-0.00421607
0.000617068
-0.0112263
0.00211077
-0.000287957
-0.00731045
-0.00322538
-0.00132686
-0.00814571
0.00226046
-0.00186101
-0.00440076
-0.00173043
-0.00255447
0.00127904
-0.002548
0.00395839
0.0117102
-0.0105981
0.0117947
0.00627573
-0.0096631
0.0138389
0.00843315
-0.00544105
0.0116279
0.00987413
-0.00301457
0.0049398
0.00891771
0.00193619
0.0117112
0.000162332
-0.00255025
3.23882e-06
0.0134963
-0.0066305
0.0070774
-0.00364643
0.00133911
0.0133843
-0.00793175
-0.00340201
0.00250214
0.0088702
0.00895123
-0.00792438
-0.00296647
0.00263561
0.0126142
0.00130314
-0.00657154
-0.00222589
0.000488011
0.0158724
-0.000819119
-0.00512966
0.00803679
0.000184835
-0.00657427
0.0123428
-0.000657516
-0.011267
0.0120978
-0.00985969
-0.0151138
-0.0147139
0.00852278
0.00574923
-0.0249709
0.00405941
-0.0192713
0.00629719
-0.0168802
-0.0118986
0.00943839
0.00829862
0.00976539
-0.0349908
-0.024364
0.00765643
0.0115263
0.00776474
-0.0103292
-0.0334144
-0.00954757
0.00807335
-0.00177099
-0.0002352
0.00827684
-0.00682514
-0.0108273
0.0117678
-0.00775378
-0.014424
0.0102311
0.0108073
-0.00040028
-0.00895582
0.0104664
-0.00178189
0.007989
-0.00728522
0.00346141
0.00103246
0.00453085
-0.00315082
0.00550511
-0.00628442
0.0140441
-0.0120837
-0.00357299
0.0108288
-0.016995
-0.00272524
0.00579094
-0.0169328
-0.00111196
-0.00112908
0.00194423
-0.00820707
0.00866832
0.0094689
-0.00998615
0.0115113
0.010821
-0.00531106
0.0127229
0.0111938
-0.0026116
0.00990846
0.00503281
-0.0117705
0.0102334
0.00344343
-0.00961967
0.0114429
-0.00248349
-0.00509836
0.0113145
-0.00509835
0.00961949
-0.00643173
0.00218144
0.00370681
0.000933286
0.0083
0.00687507
-0.00176647
0.0113963
0.00791126
0.00034824
0.00658712
0.00704659
-0.00929059
0.0102172
-0.000982515
-0.00713664
0.00434376
0.00132507
8.91935e-05
0.00153773
-0.00197799
0.00467885
-0.00715437
-0.00246542
-0.00256329
0.0189234
-0.00222739
-0.0192829
0.0170334
-0.0021683
-0.00196335
-0.0160315
-0.0123182
-0.00095562
0.00343416
-0.00857274
-0.0111421
-0.0131249
0.00669292
-0.00591946
-0.00503335
0.000897037
0.00146965
0.000413926
-0.0021241
-0.00421175
-0.000999351
0.00399201
-0.00258032
-0.000439865
0.00179522
-0.00235609
0.00119324
-0.00375939
0.00684067
0.000764821
-0.0114576
0.000740295
-0.00343799
0.0104208
-0.00347199
-0.0043586
-0.018741
0.0139448
-0.0121221
-0.0191229
-0.0121129
0.00808268
0.00431987
-0.0263706
-0.0158167
0.00273493
0.00946853
0.0107499
-0.0353192
-0.0168651
0.01322
0.00198265
0.0105088
-0.0420264
-0.0149875
0.010008
0.000215844
0.0113675
-0.0434391
-0.0111378
0.00344333
-0.00140137
0.010404
-0.0430117
-0.00653635
-0.00125131
-0.00171326
0.00896358
-0.0393307
-0.00369786
-0.00433298
0.00425581
-0.0346229
-0.00156345
-0.00694071
0.00659843
-0.0029102
-0.0320553
0.000899664
-0.00595806
0.00573008
-0.00334125
-0.0289993
0.00213993
0.00462559
-0.00378959
-0.00613471
-0.0288317
0.00147292
0.00415266
-0.00330343
-0.00260187
-0.0297063
-0.00040595
0.00225819
-0.00108471
-0.027653
-0.00220233
0.00183812
-0.00180278
-0.0227188
-0.00321815
0.00185441
-0.00366677
-0.029801
0.00200577
0.0224829
-0.0174821
-0.0588529
0.0293275
-0.013609
0.0128351
0.00535412
-0.019681
-0.00209388
-0.0137318
-0.0251341
-0.00846498
-0.012241
-0.000811971
-0.00857991
-0.0111058
0.000215417
0.000409985
-0.00938354
-0.00114775
0.000757383
-0.00575108
-0.00427723
0.00164016
-0.00300385
-0.00430712
0.0011167
-0.00461427
-0.000169684
-0.00450794
0.000719919
-0.000873502
-0.00693487
0.0020366
0.000327126
-0.0108982
0.00219196
0.0016917
-0.0132107
0.000798452
0.00143541
-0.0134616
-0.000371529
0.00055263
-0.0131558
-0.0017692
0.00140939
-0.0237759
0.00142739
0.00911799
-0.0571055
0.0176065
0.0155164
-0.101576
0.00887425
0.0350236
-0.11818
-0.0058985
0.0218088
-0.127431
-0.0116182
0.0200944
-0.133751
-0.0165125
0.0219975
-0.137303
-0.0222077
0.0248748
-0.138561
-0.0272734
0.02762
-0.138445
-0.0307664
0.0297261
-0.13762
-0.0329333
0.0311833
-0.13616
-0.034206
0.0318293
-0.134013
-0.0348793
0.0318311
-0.130185
-0.0354013
0.0307015
-0.122246
0.027947
-0.0367195
-0.103161
0.0209448
-0.0407903
-0.0534357
0.00349641
-0.0538401
-0.0226262
-0.00115408
-0.0298744
-0.0123933
-0.00426783
-0.00604234
-0.0121167
0.00200824
-0.00234001
-0.0112174
0.0043588
-0.00532887
-0.00877783
0.00387446
-0.00639448
-0.00424589
0.00404606
-0.00866237
-0.00479619
0.00351863
-0.00303957
-0.00807963
-3.65611e-05
0.00326916
-0.00783345
0.00239038
-0.00270774
-0.00898124
0.00105995
-0.0138627
0.00699151
-0.00220868
-0.0166849
0.00716351
-0.00445128
-0.0189497
0.00766597
-0.00550379
-0.0237991
0.00702412
-0.00227947
-0.0533489
0.0187771
0.0105761
-0.0978887
-0.00825128
0.0522174
-0.110769
-0.0318844
0.0440438
-0.112135
-0.0420399
0.0425951
-0.107379
-0.0478679
0.042289
-0.0985689
-0.0523093
0.0426426
-0.0858758
-0.0544864
0.0409686
-0.06892
-0.05593
0.0381542
-0.0491616
-0.0568645
0.0363399
-0.0234777
-0.0482084
0.0218877
-0.0378716
0.0139552
-0.0537368
0.022765
-0.00736704
-0.059445
0.0248423
-0.0196368
-0.0594288
0.0261648
-0.0267073
-0.0503386
0.0260179
-0.0356343
-0.0402206
0.0239629
-0.0345838
-0.0230103
0.0163177
-0.0339952
0.0094863
-0.0329354
0.0273935
0.0381135
-0.0566574
0.050905
0.0496929
-0.0739705
0.0745609
0.0498921
-0.0743679
0.0945228
0.0501268
-0.0709133
0.110025
0.047333
-0.0636915
0.118197
0.0400271
-0.049022
0.116258
0.0331912
-0.0320625
0.100745
0.0301865
-0.0153937
0.0542835
0.039858
0.00602963
0.0253859
0.0249999
0.00370132
0.0213002
0.00417898
-0.000197976
0.0193996
0.000595581
0.00120241
0.0158214
0.000293811
0.00317444
0.00909107
-0.000255668
0.00688747
-0.00095004
0.00995331
-0.000995012
-0.00970651
0.00965572
0.00069666
-0.013103
0.0113023
0.00253412
-0.0142281
0.0122675
0.00403275
-0.013559
0.0119248
0.00426286
-0.0191414
0.0187333
0.00775376
-0.0285696
0.0247935
0.00371098
0.0235665
-0.0198075
-0.000306624
0.016848
-0.0130096
-0.000491942
0.00841523
-0.0083656
-0.000646774
0.00774328
-0.00771167
-0.00115603
0.00737524
-0.00697499
0.00632692
-0.0065188
0.00349911
0.00547064
-0.000315008
0.00330239
0.00620248
0.00129742
0.00340603
0.005923
0.00163889
0.00405215
0.0047895
0.00290136
0.0103937
0.0115701
-0.00116935
0.0193837
-0.00892893
-0.000106488
0.00916877
-0.0041776
0.0143518
-0.0229377
-0.0113834
0.04342
-0.015551
-0.00574466
-0.00172063
-0.000970002
0.00356838
0.00487501
-0.00942913
0.00605081
-0.00259967
0.00364207
-0.00178379
-0.00823899
0.000469097
-0.00913323
-0.010248
-0.0126106
0.0183849
-0.00478503
-0.0307098
0.00322526
0.00366598
0.00406123
-0.0175933
-0.0495887
0.00593732
0.0101332
0.000845856
-0.0580762
-0.0156731
0.0261473
-0.00421113
-0.0203862
0.00616424
-0.00323223
-0.0202782
0.00560776
-0.00225545
-0.0206352
0.00530567
-0.000884303
-0.0190223
0.00443561
-0.0149778
0.00403455
-0.0210973
0.0022535
0.00403493
-0.0218982
-0.00133927
0.00262162
-0.017841
8.38985e-05
0.00546052
0.00163345
-0.0464546
0.035393
0.008331
0.00797481
-0.114607
0.0351973
0.0513659
0.0205553
-0.12454
0.0475737
-0.00830834
-0.125317
0.0551883
-0.0220876
-0.117579
0.0650013
-0.0335879
-0.102841
0.0736721
-0.0419599
-0.0838872
0.0774294
-0.0471241
-0.0614535
0.0751987
-0.0485797
-0.0366655
0.0747457
-0.0506547
0.0504829
-0.0332848
0.0589319
0.0457605
-0.0308542
0.0685062
0.0516589
-0.0358404
0.0687815
0.0526765
-0.0274121
0.0633791
0.0503371
-0.0207001
0.0436581
-0.00629003
-0.0882509
0.0716589
0.00257146
-0.0981244
0.0753502
-0.0160483
-0.0997358
0.0798672
-0.0265218
-0.0885834
0.0791549
-0.0395908
0.0718108
-0.0407968
0.0885568
0.094193
-0.0366313
0.0980208
0.101443
-0.0326816
0.0947743
0.100904
-0.0187198
0.0820919
0.0958366
-0.008695
0.090081
0.00690025
-0.0815371
0.103144
0.0131198
-0.0948732
0.110243
-0.00199159
-0.0988652
0.115684
-0.0117497
-0.0910711
0.116496
-0.0238085
0.110998
-0.0313683
0.0875982
0.123679
-0.0275433
0.0952114
0.127768
-0.0198615
0.0917071
0.126033
-0.00782127
0.0786542
0.120011
0.00234797
0.111804
0.0168023
-0.0728166
0.116409
0.0194666
-0.0848761
0.125109
0.00602396
-0.0872765
0.131599
-0.00414531
-0.0793688
0.133869
-0.0149887
0.130733
-0.0223592
0.0687107
0.131474
-0.0152004
0.0766168
0.134284
-0.00929786
0.0754899
0.130816
0.00093287
0.0644531
0.12451
0.0106996
0.115297
0.0226586
-0.0529484
0.105689
0.0298165
-0.0650544
0.116156
0.0195161
-0.0646275
0.119655
0.00977013
-0.0566317
0.124988
0.000336011
0.1258
-0.00432687
0.0354457
0.0188285
0.0612535
0.0445308
0.0518008
0.0945155
0.0132425
0.0550742
0.0923536
0.023153
0.0360158
0.0483004
0.0451392
0.0408359
0.044551
0.0364931
0.0515181
-0.0123876
0.0268647
0.0153957
0.0144618
-0.018862
0.027672
0.0150938
-0.0153922
0.0311178
0.0135095
-0.0136894
0.0290177
0.0142096
-0.0402114
0.0276477
0.0407265
-0.000874822
0.0246682
-0.028478
-0.00830857
0.0384585
0.00575816
-0.036983
-0.00681637
0.029937
0.00544449
-0.0370503
-0.00460077
0.0290519
-0.0364963
0.00505884
0.0258538
0.00343721
0.0038014
0.0051296
0.00491676
0.00713063
0.00681054
0.00758584
0.00901958
0.0088835
0.00836517
-0.00411507
-0.0198743
0.0156223
0.00265938
-0.000614984
0.000581794
0.00622713
0.00289163
0.000294471
-0.000530758
0.000348156
0.00408
-0.00154139
-0.00243418
-0.00131681
0.00409497
-0.00165752
-0.000485828
0.00116819
0.0105768
0.0120502
0.0314663
-0.0529856
0.00538392
0.0177042
-0.00420455
-0.00724886
0.0565848
0.00121784
-0.0150283
0.00281589
0.00355746
-0.00652835
0.0050399
0.00395383
-0.00619256
-0.0221809
0.00964179
0.0175388
-0.00942187
-0.0124848
-0.000317892
0.0178776
-0.00255974
0.0239332
-0.00785265
0.0461632
-0.0126579
0.0217478
0.0763464
-0.0253397
-0.0323139
0.00476674
0.00715328
0.0296859
0.00226295
-0.0175138
0.00810481
0.0136198
-0.004031
-0.0106327
0.00854131
0.0148961
-0.00401943
-0.0114198
0.00763501
0.0143478
-0.00232022
-0.0112278
0.00615413
0.0126943
-0.0103695
-0.000942666
0.00366989
0.0104416
-0.00873612
0.000691469
0.00864754
-0.00784764
0.00278955
0.00833817
-0.00315976
0.0033984
0.00792754
-0.00279345
0.003149
0.0149844
-0.008031
0.000896874
0.0387366
-0.0158955
-0.0080756
0.0717262
-0.0388091
0.00520087
0.0814888
-0.0276468
0.0171247
0.0827851
-0.0234705
0.0213402
0.0799041
-0.0200878
0.0220962
0.0743568
-0.0154118
0.0200562
0.066108
-0.00805411
0.0153843
0.0545782
0.0031862
0.00741535
0.0343457
0.0210847
-0.00178019
0.00430842
0.0452879
-0.0161688
-0.0118665
0.0565705
-0.041298
-0.00416545
0.0499245
-0.0584975
0.0116207
0.0395556
-0.0561748
0.0170201
0.0254735
-0.0316314
0.0116213
0.0307096
-0.0259283
0.00316723
0.0125695
-0.00433373
0.00127859
0.00453849
-0.00272683
0.0010116
0.00214528
-0.00193288
-0.000644941
0.00364149
-0.00205447
0.00360223
-0.00219139
0.00171552
0.0060799
-0.00105805
-0.00116785
0.00707664
-0.000627201
0.00142651
-0.000470659
0.00678994
-0.000853587
-0.000352344
0.00685231
-0.00181267
0.00198986
0.00275997
0.00721821
0.00206773
0.00929564
0.017545
-0.00589191
0.0115408
-0.00791059
0.0214431
0.020331
-0.0242974
0.0427922
0.012231
-0.0362271
0.0517787
0.00914022
-0.0543039
0.0496393
0.0240555
-0.0726485
0.0333168
0.0293504
-0.0851633
0.0107648
0.0218619
-0.0923044
-0.00703701
0.0163913
-0.0967118
-0.0200771
0.0154639
-0.0992146
-0.0290237
0.0151606
-0.0996403
-0.0350717
0.0144723
-0.09645
-0.0395998
0.0120173
-0.087769
-0.0440929
0.00685662
-0.0315706
-0.0403114
-0.0449535
-0.0107261
-0.0182587
-0.010452
-0.0189273
0.0026647
-0.0152487
-0.00714798
0.00136007
-0.00567263
0.000277442
-0.00934977
0.000861944
-0.00384927
0.00170479
-0.00755616
0.00104811
-0.00888739
0.0157247
-0.000151723
-0.00803726
0.0157631
-0.00181744
-0.00623228
0.0138848
-0.00215151
-0.00230213
0.0197609
0.00585368
0.0207232
0.106614
-0.0452124
-0.00920738
0.00406956
0.0307017
0.00560759
0.00767669
0.0104654
-0.000239783
0.00847994
0.0141993
0.00068186
0.0150291
0.00193744
-0.0163258
-0.0195531
-0.0127271
0.0305632
-0.0200948
0.046083
-0.0177473
-0.0515449
0.106224
-0.0240936
-0.0526806
0.121295
-0.0147099
-0.104142
-0.0449419
0.125264
-0.0300248
-0.0750842
-0.0288893
-0.017768
-0.0287403
-0.0145944
-0.00321982
-0.0401462
0.0169984
-0.00230071
-0.0241565
-0.00532218
0.0278901
-0.00561262
-0.00865841
0.0162983
-0.00800191
-0.00943675
0.0142804
-0.00628553
-0.00956998
-0.0118352
-0.00285121
0.0500892
-0.0212266
-0.0125743
-0.00621645
0.000617922
-0.0119253
-0.00863203
-0.000100445
-0.00877083
-0.00730565
-0.0015538
-0.00500675
-0.00459252
-0.00157199
7.92583e-05
-0.000812529
-0.00389715
-0.000442616
-0.00984981
1.71287e-05
0.000430247
0.00127349
-0.00176419
0.00136271
-0.00216136
0.0033823
0.00175452
-0.0027127
0.00436379
0.00205369
-0.00201779
0.00370566
0.00174874
0.00266474
0.000705377
0.00457432
0.00262322
-0.0010831
0.00480589
0.00382231
-0.000423998
0.00467752
0.00490688
-0.000495789
0.00485012
-0.000760922
-0.00650679
0.0108892
-0.00423525
-0.00629894
0.0109087
-0.00632132
-0.00539474
0.0100631
-0.00725053
0.0090236
-0.00784031
0.00662381
0.0118852
-0.0056983
0.00808459
0.0136104
-0.00510681
0.00830831
0.0151312
-0.00455285
0.0149378
-0.0031526
-0.00930827
0.0168732
-0.00135946
-0.00939831
0.0178844
-0.00276923
-0.00971048
0.0177834
-0.00396525
0.0104888
-0.00403184
0.0128962
-0.0004209
0.0102795
-0.00168004
0.00756006
0.0233048
-0.00291521
0.00744094
0.018313
-0.000399667
0.0173019
0.000717009
-0.00897668
0.0484924
-0.0251971
-0.00526776
0.0421098
-0.0276503
0.0450165
-0.0283054
0.0297194
0.117538
-0.0576184
0.127272
-0.0450201
0.0511958
0.134614
-0.0389562
-0.0206278
0.0558453
0.134347
-0.0148492
0.0523905
0.129431
-0.00579724
0.114447
-0.000972052
-0.0504527
0.118753
0.00552625
-0.0562637
0.134307
-0.000148421
-0.0537808
0.140211
-0.00942979
-0.0450421
-0.014664
0.139518
-0.128019
-0.0233836
0.133386
-0.0294006
-0.0128742
-0.0512029
-0.114149
0.0286813
0.119081
-0.106002
-0.066867
0.118288
-0.0383965
-0.0495702
-0.0681719
-0.00469012
0.0139188
-0.0135631
-0.019354
-0.0195523
-0.00998111
-0.00602677
-0.0131424
-0.00290439
-0.0140314
-0.00409319
0.00258762
-0.0144089
-0.00822555
0.00319381
-0.0127693
-0.0106691
0.00254838
-0.00982031
-0.0145778
0.00287606
-0.0108064
0.00115321
-0.0137964
0.0160858
-0.0138066
0.000614633
-0.00954568
-6.70471e-05
-0.0154086
0.0145093
-0.00159701
-0.0167948
0.0116832
-0.00273544
-0.0180668
0.00968574
-0.00147369
0.0149826
-0.0254821
0.0110859
0.0252648
0.0187458
0.0207374
-0.0499018
0.0188899
0.0161911
0.0178397
-0.0277876
0.0306127
0.0160692
0.0191799
-0.0471076
0.0213871
0.0134412
-0.0227502
0.0184061
0.0392971
-0.0422196
0.00893782
0.0152711
0.0201214
0.046367
-0.0101178
-0.0171748
0.0254337
0.0300991
-0.0202501
-0.0152897
-0.0172367
-0.0205995
0.00995165
-0.0182767
0.00382098
-0.0128151
-0.0179601
0.00438279
-0.0172553
-0.0123441
0.00331626
-0.0161478
-0.0141667
0.00229152
-0.0168513
0.00210451
-0.0176982
-0.0171158
0.0174819
0.00036431
-0.0163262
-0.000787376
-0.0184161
0.0156727
-0.00201176
0.0130374
-0.00311199
0.0175924
0.0143555
-0.0028064
0.0174637
-0.00142315
0.0165337
0.018268
-0.0170656
-0.00037771
0.0184123
0.0013294
-0.0151676
0.00285874
-0.0155155
0.00100019
0.0175194
-0.0154335
-0.00121311
0.0144959
-0.00215941
-0.00755976
-0.0160445
0.023615
0.0168896
-0.00148062
-0.0143761
-0.0171473
-0.0262125
-0.024267
-0.00276333
-0.105201
0.103727
0.00757752
0.00124058
0.0182737
0.0127533
0.0239437
0.0147259
-0.0202964
0.0176849
-0.00847804
0.0179959
-0.0123086
-0.00478951
0.00236301
-0.000508649
-0.00555737
0.00486218
-0.0058682
-0.00170132
-0.00209977
-0.00217454
-0.00379634
0.0131833
-0.000996227
-0.00316827
-0.00140503
-0.00339151
0.0164011
-0.0201235
-0.0116289
0.015514
0.00689792
-0.0116835
0.0176278
0.0091296
-0.0133559
0.0202283
0.0089462
-0.0142954
0.0229562
0.00892445
0.0301579
0.0120119
0.00994384
0.01345
0.0125112
0.00953868
0.0132603
0.00992181
0.00790128
0.0119327
0.00976218
0.00611691
0.0108379
0.00842011
0.0100477
0.00700702
-0.00220234
0.00342576
-0.0026147
0.00416271
-0.0032798
0.00476143
-0.0039202
0.00540244
0.00651557
0.00166522
0.00290153
0.00142403
0.00051496
0.000412235
0.00139331
-0.000142782
0.00198435
-0.00154668
-2.8393e-05
-0.000930333
0.00194573
0.000965515
-0.000334168
0.000794346
-0.000439937
0.00182676
-0.00111506
0.00121464
-0.000542636
0.000312825
-6.31957e-06
0.00202283
-0.00174237
2.90737e-05
0.00379798
-0.000564925
-0.00359063
0.0111472
-0.00637616
0.0036139
-0.0180137
0.00334111
0.0170554
0.00392525
-0.0181354
0.0204394
0.00714826
0.00297007
0.00679051
-0.0171017
0.020871
0.000311516
0.00599929
0.0198187
-0.014886
-0.0136755
0.0142116
0.00507215
0.0109992
-0.00744201
0.0172532
-0.00770954
0.017302
0.010959
-0.000426551
0.0200135
0.00719756
0.00335513
-0.00114693
0.0015378
-0.00352057
0.000383056
-0.00229572
0.0126171
0.00136296
-0.00233995
0.000799318
0.000619075
-0.000778918
0.00152096
-0.000568954
0.00156939
-0.000391963
-0.00125155
0.00107328
-0.00207779
0.000905425
-0.00021409
-0.000228836
-0.00163635
-0.000460379
-0.00209566
0.000249379
-0.00185868
0.00140224
-0.0013831
0.000394994
0.000110948
-0.0018903
0.000168407
-0.00141118
-0.000665566
-0.00126362
-0.00241515
0.00115869
0.00124976
0.000238679
0.000486413
-0.00129611
0.000444951
-0.00169343
-0.000482788
0.000532859
0.000393364
0.000107487
7.15814e-05
-0.000663208
0.00104933
0.000306178
0.000316532
-0.000884334
-0.00162019
0.00281765
-0.000779554
0.000285932
0.000175821
-0.000886202
-0.00114114
0.00381557
0.00138553
-0.000355001
-0.00302341
0.0122783
-0.00263703
-0.00128907
-0.00175375
1.53394e-05
-0.000832718
0.000265466
-0.00072475
0.000326541
-3.90035e-05
-0.00112263
-4.48006e-05
0.00188703
-0.000305298
-0.00162985
-0.00131813
0.00321617
-0.000896456
-0.000159346
-0.0012433
0.0011208
0.00204611
0.000340972
0.000323181
0.000922652
-0.000127605
0.00191807
-0.00142611
-0.00017213
-0.00136885
0.00319262
8.99341e-05
-0.000656003
0.000206626
0.00285712
-0.00406256
0.0133118
-0.00113835
-0.0180992
0.000754882
0.00708474
0.0245674
-0.0165554
0.0219235
0.00645476
-0.0178199
0.0226066
-0.00213395
-0.0149123
-0.00444285
-0.0207148
-0.0218977
-0.00638011
-0.0219144
-0.00579549
0.0151801
-0.00242967
0.0197842
0.0317831
0.0374788
-0.0239041
-0.100986
0.0665818
-0.0966714
0.0702079
-0.107592
0.0714225
-0.0173027
-0.109701
0.0688839
-0.0250559
-0.106144
0.0676855
-0.0298442
-0.0976035
0.066549
-0.0333483
-0.0854822
0.0638655
-0.0359126
-0.0680753
0.0578484
-0.0379848
-0.0483038
0.0533472
-0.0376791
-0.0382539
0.0426906
-0.0316003
0.00545458
-0.0301647
0.0184893
0.0318765
-0.0455787
0.015783
0.0449604
-0.0429216
-0.00654906
0.0481445
-0.0262238
-0.0337277
0.0267399
-0.0504569
-0.0132196
0.0294815
-0.0593642
-0.0247341
0.0331385
-0.0619563
-0.0312444
0.0333102
-0.055886
-0.0384018
0.0318051
-0.0480509
-0.0355281
0.0271902
-0.0306523
-0.0338864
0.0160205
0.00350048
-0.0345916
0.0196262
0.0450926
-0.0618552
0.0406987
0.0562208
-0.0780596
0.0656208
0.0560429
-0.0817851
0.086537
0.053377
-0.0751178
0.0992408
0.0483969
-0.0619575
0.101844
0.0399479
-0.0433737
0.0985574
0.0333738
-0.0308974
0.0866551
0.02948
-0.0182981
0.0483167
0.0371027
0.000662132
0.0230482
0.0229355
0.00213656
0.0196669
0.00382907
-0.00055251
0.0182512
0.000424263
0.000888614
0.0152018
0.000127845
0.00281122
0.00897732
4.19837e-05
0.00608353
0.00919403
-0.000304342
0.00739795
0.00308806
-0.00136262
0.00483177
0.00382295
-0.00130388
0.00501048
0.00148263
-0.00172416
0.00605864
0.00161699
-0.00274402
0.00591477
0.00276663
-0.00270058
0.00492369
0.00310358
-0.00218207
0.00409746
0.0025847
-0.00181309
0.00687642
0.00149734
-0.00435332
0.0167204
0.000132223
-0.0101947
0.0121208
0.0229404
-0.0189588
-0.0192664
0.0320421
-0.00141369
-0.0430528
0.0160622
0.00689012
-0.0577334
-0.00176323
0.0155706
-0.0681682
-0.0181337
0.027664
-0.0755251
-0.0333623
0.0397969
-0.0781465
-0.0479785
0.0496628
-0.0753632
-0.0611206
0.057392
-0.0646359
-0.0729417
0.0612623
-0.0460784
-0.0826511
0.0631364
-0.0171397
-0.0895387
0.0596366
0.0179459
-0.0857578
0.0497113
0.0335321
-0.0607339
0.0441862
0.0326491
-0.0467879
0.0467484
0.025076
-0.0373722
0.0440418
0.0116413
-0.0285253
0.0411328
0.000721877
-0.0255241
0.0356416
-0.0365775
0.03655
-0.0529975
-0.0211109
0.036733
-0.060426
-0.0361286
0.0427462
-0.0611017
-0.0510009
0.0508019
-0.0523218
-0.0656439
0.0559887
-0.0287047
-0.0818854
0.0573695
0.000943717
-0.0818735
0.0513489
0.00593514
-0.0459638
0.0401069
-0.0101765
-0.0280294
0.0433311
-0.0205202
-0.0325191
0.0420769
-0.00407671
-0.0624522
0.0452705
-0.0534396
0.0443164
-0.0156983
-0.0704324
0.00176367
0.0178104
-0.0581532
-0.0386925
0.0287726
-0.0438874
-0.000469505
0.0343475
-0.0500511
0.0155525
0.034621
-0.0770318
0.0298701
0.0455984
-0.125326
0.0315359
0.0589682
-0.124487
0.0282866
0.0616419
-0.0987942
0.0295453
0.0561824
-0.0755877
0.0291405
0.0450648
-0.0543759
0.0285049
-0.0323915
0.0299985
-0.0389412
-0.0507689
0.0279222
-0.0406066
-0.0604455
0.0238094
-0.0347732
-0.0712176
0.0176258
-0.00663883
-0.0877452
-0.00212111
0.0348419
-0.122217
-0.00602736
0.0622
-0.127439
0.00953678
0.0783243
-0.120558
0.0207809
0.0863066
-0.106897
0.0249764
0.0856111
-0.0893894
0.0279743
0.0797177
-0.0696087
0.0265411
0.069102
-0.0482453
0.0245267
0.0552641
-0.0261678
0.0209138
0.0387759
-0.00205567
0.0158389
0.0176987
0.0234181
0.0127944
-0.00838031
0.0477137
0.00949143
-0.0137415
-0.00658954
0.0451254
-0.0112201
0.00773055
-0.00508714
-0.00846359
-0.00807517
0.0135343
-0.00495526
-0.00757457
0.00936186
-0.00459868
0.0138652
-0.00522233
0.0094646
-0.00274691
0.00539357
-0.00285072
-0.00673851
0.0262927
-0.000640111
-0.0095502
-0.00759762
-0.0031305
0.00119306
-0.00771753
-0.00549731
0.000943368
-0.00647805
-0.00649916
0.000222085
-0.00483013
-0.00684156
2.50558e-05
0.00305118
-0.00474193
-0.000608937
0.00580628
-0.00128105
-0.00257733
-0.000267074
-0.000774269
-0.00153992
-0.00079988
-0.000750284
-0.000501208
-0.000676888
0.000375649
-0.00115861
-0.00372459
0.0134465
-0.00537254
-0.0121072
0.00276168
0.022077
-0.00826651
-0.0107302
0.0519088
-0.0307383
-0.0326878
0.0136531
0.0432826
-0.0224455
0.0287502
0.0169417
-0.00785116
0.0401606
-0.0184283
0.00628556