/*--------------------------------*- C++ -*----------------------------------*\
| =========                 |                                                 |
| \\      /  F ield         | OpenFOAM: The Open Source CFD Toolbox           |
|  \\    /   O peration     | Version:  v2012                                 |
|   \\  /    A nd           | Website:  www.openfoam.com                      |
|    \\/     M anipulation  |                                                 |
\*---------------------------------------------------------------------------*/
FoamFile
{
    version     2.0;
    format      ascii;
    class       surfaceScalarField;
    location    "50";
    object      phi;
}
// * * * * * * * * * * * * * * * * * * * * * * * * * * * * * * * * * * * * * //

dimensions      [1 0 -1 0 0 0 0];
oriented        oriented;


internalField   nonuniform List<scalar> 
50655
(
0.00237219
-0.00532379
-2.62467e-05
-0.00470586
-0.00249322
0.00758249
-0.00572349
-0.000208244
0.00941255
-0.0011951
-0.000257761
-0.00142322
-0.00412137
-0.00208098
0.00443195
-0.00267155
-0.00284381
0.00356256
-0.00284684
-0.00240036
0.00452304
-0.0050371
-0.00843838
0.00595046
-0.0125201
0.00615354
-0.00217057
-0.013968
-0.00570501
0.00704282
-0.0144719
-0.00640931
0.00681077
-0.0152134
-0.0068481
0.00748546
-0.0301391
-0.0106858
0.0254175
-0.0538442
-0.0313899
0.0545346
-0.0520695
-0.0564446
0.0539725
-0.0323602
-0.0735282
0.0530408
-0.00504949
-0.0772176
0.0491237
0.00573705
-0.0511359
0.0395378
-0.00436797
-0.031317
0.0406489
-0.019744
-0.0265279
0.0411369
-0.0127288
-0.0543556
0.0466178
-0.00363949
-0.0530072
0.0433601
-0.0359525
0.0319838
-0.0352623
0.0192387
-0.0202303
-0.00965014
-0.0756632
0.0495562
0.0228015
-0.0765049
0.0435566
0.031112
-0.0272041
0.0185865
0.0330723
-0.00229776
0.0364118
0.0198556
-0.0235177
0.0252052
-0.0207712
0.0317018
0.0159784
-0.0110845
0.020142
0.00231527
-0.00217821
0.0157143
-0.00689483
0.00468635
0.00442841
-0.00542258
-0.00130376
-0.000209208
-0.00539577
-0.00175897
0.00171377
-0.00640343
0.000737492
0.000252873
-0.00777154
0.000712333
0.000639176
-0.00900126
0.000561524
0.000651048
-0.00942468
0.000195632
0.000211415
-0.00968647
-0.000223309
0.000468501
-0.00919091
-0.00065029
0.000138446
-0.00853009
-0.00111642
0.000438922
-0.00725807
-0.0015718
0.000283344
-0.00584945
-0.00202222
0.000596724
-0.00395046
-0.00232568
0.000410505
-0.00209807
-0.00249412
0.000624772
0.000319485
-0.00243516
-0.000456335
-0.00253677
0.00328694
0.000213744
0.00621583
-0.00692768
-0.00267516
0.00546287
-0.00263052
-0.00866144
0.00574604
0.000173245
-0.00952697
0.00544938
-0.00465084
-0.00298763
0.00459985
-0.0111957
0.00109566
0.0058368
-0.00996183
0.000665833
0.00354678
-0.0031426
-0.00142505
0.00207329
-0.00258564
0.00215123
-0.00100778
-0.00392489
0.00220926
-0.000886174
-0.00511378
0.00238174
-0.00120924
-0.00633005
0.00235503
-0.00115372
-0.00778566
0.00253063
-0.00108904
-0.00932353
0.00261537
-0.00109089
-0.0106184
0.00243055
-0.00114882
-0.0115515
0.0021009
-0.00118081
-0.0120777
0.0017247
-0.00121152
-0.0124562
0.00157014
-0.0012049
-0.0131056
0.00170357
-0.00106849
-0.0133612
0.00127824
-0.00103763
-0.0131117
0.00105198
-0.00131694
-0.01314
0.000939811
-0.000927251
-0.0128868
0.000990756
-0.00125998
-0.0126549
0.00107219
-0.00132011
-0.0125189
0.00102663
-0.00117834
-0.0122569
0.000779836
-0.00105742
-0.0117355
0.000353276
-0.000890155
-0.0108886
-0.000165245
-0.000696918
-0.00983352
-0.000580464
-0.000489937
-0.00856727
-0.000674606
-0.000606411
-0.00716057
-0.000439335
-0.000981218
-0.00741757
-0.000442024
0.000687011
-0.0161693
0.00124966
0.00747551
-0.0206471
0.00151423
0.002903
-0.0218599
0.00201702
-0.000869519
-0.040613
0.0171157
0.00151994
-0.0520399
0.00936482
0.00176371
-0.0285905
-0.0111015
-0.0126556
-0.0125314
-0.0127829
-0.00340842
-0.0104069
-0.00296964
0.000767117
-0.00891093
-0.00183896
0.000252906
-0.00690827
-0.00202734
-7.68618e-05
-0.00392896
-0.00205698
-0.00101763
-0.00217309
-0.0018412
-0.00268174
0.00341473
-0.00300101
-0.000245242
0.00592281
-0.00847297
0.00431918
0.0053998
-0.0100964
0.0102607
0.00538937
-0.0114757
0.0206544
0.00750969
-0.0180845
0.0267
0.012211
-0.0185393
-0.000553414
0.0164365
0.0105354
-0.0121664
-0.00709431
0.0185225
-0.0136806
-0.00927739
0.0106443
-0.0133742
-0.00923408
0.00879268
-0.0109973
-0.00908089
0.00658761
-0.00853957
0.00339528
0.0103571
-0.000783973
-0.0120566
0.0125487
-0.0126913
0.00130507
0.0124936
-0.0124717
0.00316687
0.00957767
-0.0109172
0.00442287
0.00239482
-0.00618995
0.00614163
-0.0306556
0.0231655
-0.00230417
0.0280439
-0.0163964
0.0340446
-0.013861
-0.0228093
-0.00840232
0.00846556
-0.00908453
-0.00392964
0.00826326
-0.00747667
0.000286307
0.00834429
-0.0072829
0.00295417
0.00831544
-0.00517047
0.00578403
-0.00156595
0.0100073
-0.00264194
-0.00372586
0.0111626
0.000119399
-0.0032161
0.00882296
-0.000660689
-0.00155303
-0.0024573
-0.0197108
0.00099951
0.0284679
-0.0114842
-0.0131429
0.00140335
-0.00799769
0.000638095
-0.00825414
0.0147913
0.00549107
-0.011464
0.0206422
0.00525197
-0.00985577
0.0296818
0.00577493
-0.0139919
0.0799232
0.00499442
-0.0385452
0.0447321
-0.00480104
0.044585
0.00410234
0.00442894
-5.77702e-05
0.0374066
0.0027841
0.0202188
0.00127914
0.02282
-0.000611336
0.0108584
0.0138789
0.00509642
-0.00559839
0.000463371
0.00661233
0.00501729
-0.000730038
0.00713952
0.00791562
-0.000907896
0.00693938
-0.0145026
0.007723
-0.00109241
0.00719168
-0.0152607
0.0082337
-0.000519946
0.00730324
-0.0161612
0.00826497
-0.000345534
0.00728736
-0.0159346
0.00845199
-0.000153102
0.00683757
-0.0153127
0.00826207
4.19262e-05
0.00657327
-0.0149456
0.00815729
0.000571859
0.00560096
-0.0138181
0.0076686
0.00454065
0.00405691
-0.0151633
0.00712312
0.0016532
-0.004946
0.00445554
0.00336357
0.000967393
0.0047364
-6.66547e-07
0.00051201
0.00642744
-0.000381863
0.000459367
0.00750735
-0.000893742
0.00043123
0.007843
-0.00099027
0.000731361
0.0082343
-0.00126033
0.00094666
0.00842999
-0.00135534
0.00100165
0.00848414
-0.00136043
0.000824431
0.00850081
-0.00139653
0.000614827
0.00857085
-0.00123362
0.00708631
-0.000311579
0.00909301
-0.0015199
-0.000940114
0.0107142
-0.0013489
-0.000962315
0.0119336
-0.00104735
-0.000768329
0.0126887
9.12242e-05
-0.00102735
0.0130862
0.00118961
-0.00124953
0.0132556
0.00198247
-0.00138795
0.0132596
0.00245335
-0.00144689
0.0133172
0.0024436
-0.00144566
0.0132657
0.00201842
-0.00099263
0.0132467
0.00154668
-0.000603836
0.013385
0.00144155
-0.000543519
0.0127331
0.00138044
0.000534437
0.0118352
0.00245824
0.000370756
-0.000241656
0.0119808
-0.000382232
0.00245912
-0.000665658
0.0115657
-0.000214311
0.00278991
-0.00044906
0.0106571
-5.80856e-05
0.0030598
-5.36491e-06
0.00939071
5.35657e-05
0.00043871
0.00319138
0.00782627
0.000841097
0.00321263
0.000112555
0.00615996
0.00114464
0.00295206
8.64121e-05
0.0051913
0.00107477
0.00222074
1.32116e-05
0.00385488
0.00463097
-0.000929206
0.00251723
0.00426928
-0.000738581
0.0013465
-0.000729943
0.00403548
0.00380883
-0.00040598
0.00547831
-0.000548184
-0.00113744
0.00664949
-0.000400607
-0.000787429
0.00763737
-0.000628181
-0.000376199
0.00803867
-0.000471708
5.36882e-05
0.00820145
-0.000651531
0.000472279
0.00763046
-0.000296248
0.000850634
0.00684189
-0.000398619
0.00117062
0.00529227
0.000115148
0.00141739
0.00320392
0.000530451
0.00154076
-0.000408348
0.00195391
0.0016404
-0.00364226
0.00124718
0.00196874
-0.0053434
-0.000561717
0.00224358
-0.00667418
0.000673611
0.000635222
-0.0127976
0.000529376
0.00554921
-0.0233188
-0.00675362
0.0171589
-0.0295137
-0.0158912
0.0219208
-0.0384988
-0.0251848
0.0339034
-0.0295772
0.0227517
0.0155494
-0.0373775
0.0112538
0.0251174
-0.0172156
0.00757898
-0.00501285
0.00489147
-0.0319787
0.0246704
0.00224662
-0.0139028
-0.0247581
0.00664704
-0.0384259
0.00726117
0.0405898
-0.0559986
-0.000836259
0.0279376
-0.0505736
0.0146343
0.0117484
-0.0106386
0.0173309
-0.0108135
0.0103544
-0.00229521
0.0175955
0.00839952
0.00968781
-0.0128377
0.013876
0.00402427
-0.00605355
0.00112614
0.0109955
0.003693
0.000993427
0.00191517
0.00120588
-0.00146786
0.00219252
0.00241611
-0.00515197
0.00332364
0.00229284
-0.00560354
-0.00157311
0.00253417
-0.00954584
0.00142673
0.00261024
-0.00815959
-0.00398677
0.0021818
-0.0116825
0.00163848
0.00156828
-0.00872094
-0.00443928
0.000806395
-0.0109469
0.00181679
-8.23326e-05
-0.00711576
-0.00345485
-0.00102411
-0.00798469
0.00196773
-0.00151959
-0.00431172
-0.00207939
-0.00216099
0.000998756
-0.00218875
0.00202563
0.0117291
-0.00905794
0.00847701
0.00678774
-0.00869178
0.00858633
0.00942957
-0.00415925
0.00234261
0.0113459
0.000574124
-0.000334101
0.0101489
-0.00206184
0.0126018
-0.0062442
-0.00185039
0.00131513
0.0171899
-0.00128874
-0.002966
-0.00311223
0.00270347
0.0178486
-0.00401148
-0.0028648
0.00399849
0.00214581
0.0134686
-0.00577697
-0.00252571
0.00402254
0.00858601
0.00485417
-0.0058637
-0.00195649
0.00180698
0.0145425
-0.000420992
-0.00382234
0.00906438
-0.00138263
-0.00686824
0.0124131
-0.00138772
-0.011954
0.0132085
-0.0104124
-0.0162563
-0.0156387
0.00874642
0.00653978
-0.0267913
0.00394672
-0.0204381
0.00615203
-0.0175083
-0.0122122
0.00921329
0.00947942
0.00955831
-0.0365926
-0.0250959
0.0077488
0.0125544
0.00873063
-0.0104174
-0.0360522
-0.00978805
0.00873316
-0.00208711
0.000241559
0.00883947
-0.00728127
-0.011651
0.0108021
-0.00782644
-0.0136108
0.0108016
0.00997571
-0.000783403
-0.00927721
0.00985289
-0.00160383
0.00700073
-0.00764691
0.00437413
0.00152037
0.000976823
-0.00310497
0.00753711
-0.0062605
0.0143365
-0.0120894
-0.00515473
0.0107597
-0.0166013
-0.00383983
0.00593008
-0.0165083
-0.0023571
-0.000431861
0.000171673
-0.00651342
0.00540721
0.0102475
-0.00876418
0.00741166
0.0119251
-0.0045802
0.00521258
0.0129099
0.000554833
0.0118622
0.00214161
-0.00657954
0.0122485
0.00211128
-0.00659159
0.0132535
-0.000415057
-0.00272078
0.0125924
-0.00462165
0.0108371
-0.00573829
3.86003e-05
0.00703938
-0.00015341
0.0058744
0.00915281
-0.00248356
0.00813027
0.00983338
0.00107718
0.00849939
0.00603079
-0.00810954
0.00993059
0.000743118
-0.00638571
0.00421282
0.00380825
0.000589967
0.00102834
0.00105929
0.00337642
-0.0115745
-0.00490419
-0.00401492
0.0197896
0.00391455
-0.0228178
0.0175301
-0.00283729
-0.00376295
-0.0179324
-0.013166
0.00210962
0.000276201
-0.0099716
-0.0111022
-0.00844579
0.0026938
-0.00506674
-0.00526267
-0.000536129
0.000880558
0.000380851
-0.0022112
-0.00323885
-0.00101178
0.00335313
-0.00196209
-0.000377919
0.00116113
-0.00179637
0.000255498
-0.0028468
0.00528885
0.000475728
-0.0107838
0.00116831
-0.00291497
0.00648478
-0.00330061
-0.00458738
-0.0139191
0.00919487
-0.0111476
-0.0151888
-0.0129754
0.0094907
0.00466223
-0.0234583
-0.0173234
0.00362849
0.00991762
0.0119356
-0.0325288
-0.0182961
0.0139339
0.00275193
0.0105785
-0.0394574
-0.0164028
0.0108811
0.000936597
0.0114102
-0.0412954
-0.0126593
0.00454176
-0.000693095
0.0105441
-0.0414283
-0.00820973
2.0994e-05
-0.0010064
0.00921818
-0.0379107
-0.00532392
-0.00344254
0.00515475
-0.0335288
-0.00333569
-0.00602748
0.0070613
-0.00218818
-0.0310411
-0.00110082
-0.00519644
0.00622011
-0.00251246
-0.0280167
-0.000246747
0.00525145
-0.0028012
-0.00533067
-0.0280145
-0.00118839
0.00495017
-0.00209381
-0.00178236
-0.0287661
-0.0031247
0.00421056
-0.000441324
-0.0267416
-0.00492037
0.00391335
-0.00113115
-0.0212129
-0.00583893
0.00320584
-0.00299193
-0.0276945
0.00333245
0.0215072
-0.0184337
-0.0558012
0.0288416
-0.0166045
0.0149949
0.0021415
-0.0182318
-0.00546325
-0.0159091
-0.0245065
-0.00485322
-0.0118485
-0.0021559
-0.00771779
-0.0105974
-0.00142634
0.000873233
-0.00893835
-0.00312384
0.00162109
-0.00536355
-0.0060179
0.0022559
-0.00256284
-0.0053027
0.00138593
-0.00474885
0.000275099
-0.00456388
0.000429892
-0.000662127
-0.00711663
0.00192354
0.000566001
-0.0111117
0.00205481
0.00186062
-0.0134007
0.000672554
0.00153782
-0.0135892
-0.000477891
0.000596554
-0.0132249
-0.00184484
0.00142654
-0.0238492
0.00138258
0.00916692
-0.0570835
0.0175844
0.0154431
-0.100775
0.00844186
0.0346769
-0.116582
-0.00625708
0.0213695
-0.125165
-0.011806
0.0196142
-0.130835
-0.0165262
0.0213615
-0.133803
-0.0220948
0.0241778
-0.134659
-0.0270464
0.0269917
-0.134301
-0.0305715
0.0292889
-0.133373
-0.0328969
0.0310438
-0.131878
-0.034438
0.0320262
-0.129723
-0.0354062
0.0323502
-0.125944
-0.036162
0.0315109
-0.118206
0.0290511
-0.0376236
-0.099708
0.0224027
-0.0416599
-0.0516328
0.00565993
-0.054354
-0.0220194
-0.000188298
-0.0296441
-0.0121096
-0.00388762
-0.00609952
-0.0118359
0.00218162
-0.00251035
-0.0109526
0.0046057
-0.00555983
-0.00855628
0.0041587
-0.0066355
-0.00402024
0.00438313
-0.00900356
-0.0046973
0.00386904
-0.00326322
-0.00801411
0.000192934
0.00307304
-0.00773945
0.00273619
-0.00308205
-0.0092785
0.00145121
-0.0142107
0.006866
-0.00203241
-0.016942
0.00706895
-0.00444766
-0.0191218
0.00764551
-0.0055683
-0.023904
0.00703423
-0.0023568
-0.0533023
0.0188245
0.0103772
-0.0970937
-0.00900171
0.0522193
-0.109391
-0.0326747
0.0442511
-0.110456
-0.0428601
0.0431145
-0.105741
-0.0487073
0.043169
-0.0973536
-0.0531399
0.0438958
-0.0854607
-0.0552363
0.0425186
-0.069732
-0.0564616
0.0399128
-0.0513378
-0.0572631
0.0381027
-0.0261254
-0.048111
0.0222617
-0.0369594
0.0103952
-0.0532606
0.0270802
-0.0112462
-0.0601004
0.0303211
-0.0239842
-0.0608947
0.0315867
-0.0313188
-0.052655
0.0311839
-0.0399499
-0.0431283
0.0280556
-0.0380853
-0.0255094
0.0182797
-0.0363659
0.00770223
-0.0336505
0.02478
0.0412894
-0.0590041
0.0469766
0.0534924
-0.0764551
0.069973
0.0537435
-0.0775599
0.0899673
0.0533164
-0.0741353
0.105016
0.0497589
-0.0656646
0.112647
0.041639
-0.0500926
0.110654
0.0341243
-0.0329417
0.0961967
0.0303945
-0.0166574
0.0521022
0.0391668
0.0043541
0.0244329
0.0242897
0.00318323
0.0205512
0.00410328
-0.000326359
0.0187726
0.000619217
0.00105683
0.0152556
0.00026378
0.0031433
0.00870467
-0.000265657
0.00671801
-0.00103228
0.00964914
-0.00107462
-0.00951146
0.00945802
0.000539181
-0.0127997
0.011077
0.00223929
-0.0138642
0.0120409
0.00359597
-0.0131907
0.0116985
0.00360605
-0.01858
0.0183919
0.00666584
-0.0275235
0.0241785
0.00261347
0.0227347
-0.0189661
-0.00121935
0.0160706
-0.012417
-0.00133211
0.00807227
-0.00809521
-0.00148903
0.00751508
-0.00748139
-0.00178846
0.00718905
-0.00699864
0.00622956
-0.00666262
0.00405489
0.00539333
-0.000545034
0.00401036
0.00606423
0.00109728
0.00412682
0.00576778
0.00155308
0.00461553
0.0046603
0.00284502
0.0107698
0.010969
-0.00115835
0.0188047
-0.00809445
1.41323e-05
0.00961747
-0.0038341
0.0129806
-0.0215
-0.0108635
0.0419111
-0.0154543
-0.00557528
-0.000548894
-0.000870723
0.00333729
0.00487249
-0.00909624
0.0059223
-0.00258163
0.00386709
-0.00179381
-0.00779927
0.000774316
-0.00852666
-0.0100682
-0.0123001
0.0173892
-0.00367315
-0.0297746
0.00305088
0.0034777
0.00400141
-0.0167961
-0.0478722
0.00578386
0.00954959
0.00100054
-0.0561599
-0.0151236
0.0253701
-0.00393352
-0.0198161
0.00603264
-0.00300608
-0.0197535
0.0055028
-0.00211015
-0.0201087
0.00522399
-0.000803302
-0.0185792
0.0043601
-0.0146644
0.00398727
-0.0205436
0.00214487
0.00387325
-0.0212253
-0.00126061
0.00244727
-0.0172343
7.44344e-05
0.00550212
0.00148838
-0.0447179
0.0343143
0.00831257
0.00737692
-0.109717
0.0351376
0.0496162
0.0185203
-0.118736
0.0479685
-0.00940896
-0.119258
0.0563794
-0.0226008
-0.111862
0.0669313
-0.0335646
-0.0973977
0.0765574
-0.042145
-0.0786484
0.0812035
-0.0475042
-0.0584785
0.0794264
-0.0466922
-0.0373878
0.0789092
-0.0473216
0.0537535
-0.0321398
0.061442
0.048196
-0.0284365
0.0702971
0.0552608
-0.0335572
0.0703347
0.0564059
-0.0254819
0.0642934
0.0541098
-0.0183552
0.0465589
-0.00386402
-0.0899808
0.0724231
0.00603922
-0.100387
0.0761106
-0.012503
-0.102159
0.0803066
-0.0230722
-0.0920164
0.078922
-0.0347458
0.0702566
-0.0360767
0.0922359
0.0897706
-0.0332145
0.100587
0.0981214
-0.0284804
0.0969292
0.098737
-0.0157019
0.0836486
0.0944684
-0.00596834
0.0892413
0.00952924
-0.0832669
0.101223
0.0151806
-0.0971875
0.107486
-1.77111e-05
-0.101637
0.111871
-0.00964673
-0.0946474
0.111605
-0.0214342
0.105549
-0.030144
0.0905793
0.117618
-0.0270273
0.0977352
0.121942
-0.0184701
0.093866
0.121244
-0.00648026
0.0802704
0.116302
0.00384299
0.109199
0.0182719
-0.0743063
0.113595
0.0203272
-0.0867512
0.121098
0.00671165
-0.0893179
0.126493
-0.00366178
-0.0815153
0.127843
-0.0146824
0.124498
-0.0224016
0.070165
0.125509
-0.0157326
0.0781328
0.128509
-0.00961129
0.0770244
0.125894
0.000729587
0.0657919
0.120623
0.01077
0.112673
0.0229864
-0.0541099
0.103576
0.0296769
-0.0661446
0.112712
0.0190025
-0.0656047
0.115376
0.00901496
-0.0574432
0.120033
-0.000649125
0.120605
-0.0055144
0.0360312
0.0168096
0.0591837
0.0427792
0.0523056
0.0910462
0.0118373
0.055441
0.089319
0.0220462
0.036749
0.047162
0.0436278
0.039675
0.0439601
0.0356569
0.0508148
-0.0125757
0.0264615
0.0151981
0.0146598
-0.0190757
0.0271157
0.0148395
-0.0155063
0.0302428
0.0131464
-0.0140046
0.0280916
0.0138254
-0.0400465
0.0272261
0.0393499
-0.00116387
0.0232023
-0.0281111
-0.00826524
0.0372505
0.0054487
-0.0357979
-0.00674857
0.0290589
0.00511135
-0.0358635
-0.00458148
0.0282176
-0.0353474
0.00479272
0.0251492
0.00316105
0.00366518
0.0048956
0.004726
0.00687731
0.00659606
0.00725619
0.00871672
0.00824736
0.00791701
-0.00366543
-0.0188361
0.0149159
0.00253669
-0.000704879
0.000430698
0.00595466
0.00276915
0.000239591
-0.00047608
0.00026339
0.00393297
-0.00143208
-0.00234692
-0.00123566
0.0038418
-0.00167033
-0.000440641
0.00121551
0.0101999
0.0114999
0.029674
-0.0498213
0.00535446
0.0162578
-0.00376596
-0.00663663
0.0536796
0.000898801
-0.0146471
0.00250101
0.00384295
-0.0062074
0.00484915
0.00362567
-0.00598853
-0.0215193
0.00892731
0.0174009
-0.00947857
-0.0117902
-0.000294229
0.0170373
-0.00239116
0.0236408
-0.00722884
0.0443955
-0.0118971
0.0229004
0.0726689
-0.030257
-0.0281215
0.00624891
0.00766293
0.028371
0.00347904
-0.016772
0.0085581
0.0129627
-0.00376434
-0.0101859
0.00894004
0.0139941
-0.0036822
-0.0108004
0.00795776
0.0132554
-0.00190692
-0.0104727
0.00622372
0.0115556
-0.00955338
-0.000366908
0.00357735
0.00939561
-0.00795964
0.00112306
0.00761841
-0.0070668
0.00294528
0.00723093
-0.00315347
0.00347023
0.0067642
-0.00268585
0.00309749
0.0128268
-0.00735982
0.00121996
0.0332967
-0.0149697
-0.00571912
0.0610426
-0.0371347
0.00877013
0.0675301
-0.0267563
0.0195092
0.0655118
-0.0219643
0.0231485
0.0577293
-0.0168944
0.0238043
0.0437337
-0.00922286
0.0223154
0.0204733
0.00435232
0.0179894
-0.0117434
0.0309727
0.000315837
-0.035039
0.0497531
-0.0273856
-0.0403478
0.0539546
-0.0495641
-0.0333638
0.0550498
-0.0629363
-0.0147156
0.0498486
-0.0693689
0.0104317
0.0378606
-0.0638412
0.024265
0.0252745
-0.0398663
0.0186906
0.0390131
-0.0340562
0.00610131
0.0174342
-0.00506323
0.00318358
0.00689061
-0.00404987
0.00380025
0.00310222
-0.00377349
0.00319428
0.00498188
-0.00444547
0.00529876
-0.00360551
-0.00265858
0.00931098
-0.001647
-0.00390738
0.00902908
-0.00287387
0.00033309
-0.00115982
0.00868049
-0.00148546
-0.00450816
0.0101235
0.00312298
-0.000170642
-0.00323033
0.0114551
0.00452998
-0.0010284
0.0275324
0.00654085
0.00175767
0.00230699
0.00759198
0.0134415
0.00442801
0.0343606
0.000459738
0.00611507
0.0532831
-0.00605696
0.00411532
0.0588188
-0.00272185
-0.00967393
0.0545754
0.0122031
-0.034063
0.042012
0.0311575
-0.0563275
0.0191263
0.0331377
-0.0725968
-0.00638629
0.0260414
-0.0815326
-0.0217423
0.0205011
-0.08555
-0.0315006
0.0176864
-0.0848615
-0.0382685
0.014694
-0.0784274
-0.0439915
0.00989266
-0.0281417
-0.0372087
-0.0454676
-0.00572755
-0.0163684
-0.0104315
-0.0164834
0.00299565
-0.0137807
-0.00729416
0.00159754
-0.00477382
0.000380756
-0.00834861
0.00086721
-0.00415099
0.00196801
-0.00789158
0.00141112
-0.00924524
0.0144422
6.07651e-05
-0.0084987
0.0147282
-0.00158094
-0.00676927
0.0131518
-0.00200009
-0.00440017
0.0189206
0.00694009
0.0223876
0.100948
-0.0502294
-0.00596465
0.00447854
0.0301261
0.0065982
0.00795133
0.00979467
-0.000167694
0.00864697
0.0131627
0.000791095
0.0137292
0.00197569
-0.0165615
-0.0174941
-0.0129575
0.0278174
-0.0183908
0.0433384
-0.0164793
-0.0539704
0.0981717
-0.0196202
-0.0563602
0.114029
-0.0118555
-0.0990332
-0.0489533
0.118993
-0.0285313
-0.07167
-0.030747
-0.0205127
-0.02746
-0.0169357
-0.00633881
-0.037698
0.0162998
-0.00387747
-0.0236105
-0.00593409
0.0264258
-0.00700173
-0.00962252
0.0152431
-0.00918315
-0.0105223
0.0121173
-0.00704178
-0.0104505
-0.0115366
-0.00402283
0.0481191
-0.0205466
-0.0121134
-0.00716026
0.000643179
-0.0115411
-0.00982998
-7.03221e-06
-0.00865792
-0.00863468
-0.00134259
-0.00516265
-0.006046
-0.00142647
0.0011032
-0.00110468
-0.00489017
-0.000337297
-0.00950743
-0.000126609
0.000152524
0.0012925
-0.00227896
0.00130761
-0.00284001
0.00335583
0.00181566
-0.00323148
0.00407776
0.00202464
-0.00236781
0.00343391
0.00171347
0.00248513
0.000687156
0.00519949
0.00236192
-0.00127618
0.00568094
0.00340816
-0.000531494
0.00567265
0.00451884
-0.000513869
0.00475964
-0.00069481
-0.00766895
0.0105998
-0.00432769
-0.0072278
0.010554
-0.00658798
-0.00605733
0.00974085
-0.0076087
0.00877554
-0.00817906
0.00717147
0.011557
-0.00588161
0.00890425
0.0131865
-0.00527713
0.00940264
0.0146567
-0.00470765
0.0144859
-0.00322481
-0.0102885
0.0163502
-0.00150609
-0.0101226
0.0173571
-0.00297244
-0.0101262
0.0172632
-0.00417756
0.010168
-0.00420801
0.0128007
-0.000472837
0.0105926
-0.00170848
0.00814027
0.0226626
-0.00306036
0.00823239
0.0177692
-0.000594347
0.016793
0.000550536
-0.0103422
0.0474429
-0.0244626
-0.0060771
0.0403134
-0.026954
0.0438594
-0.0276341
0.0328265
0.113435
-0.0574121
0.122319
-0.0439917
0.0541544
0.12896
-0.0414672
-0.0203745
0.0583794
0.12735
-0.0136982
0.0538223
0.121038
-0.00356834
0.104709
0.0022471
-0.050292
0.107324
0.00838819
-0.057381
0.124846
0.00219765
-0.0555405
0.132708
-0.00828153
-0.0467702
-0.0143551
0.133524
-0.123283
-0.023748
0.128391
-0.0298218
-0.0134726
-0.0515551
-0.109679
0.0293979
0.114424
-0.102479
-0.0680715
0.114501
-0.0369989
-0.0484991
-0.069317
-0.00300432
0.0143519
-0.0139
-0.0188524
-0.0187526
-0.00952859
-0.00581596
-0.0128548
-0.00279663
-0.013669
-0.00441409
0.00266332
-0.0140591
-0.00864882
0.00339875
-0.0124898
-0.01106
0.00276854
-0.00964135
-0.0150202
0.00307784
-0.0111779
0.00128392
-0.0135288
0.0158057
-0.0142669
0.000715917
-0.00995936
0.000114406
-0.0157721
0.0143255
-0.00155798
-0.0170516
0.0115699
-0.00274921
-0.0182499
0.0096534
-0.00150498
0.0149791
-0.0256602
0.0111318
0.0251606
0.0189362
0.020846
-0.0501002
0.018743
0.0164137
0.018059
-0.0281868
0.0303005
0.0162947
0.019424
-0.0474119
0.0211757
0.0136878
-0.0233761
0.0186847
0.0391538
-0.0427007
0.00910308
0.0155188
0.0203033
0.0454022
-0.00988033
-0.0167728
0.0258725
0.028874
-0.0196829
-0.0148887
-0.0167713
-0.0198919
0.0102893
-0.0178271
0.00379679
-0.0131128
-0.0174613
0.00440243
-0.0168316
-0.012792
0.00341595
-0.0157807
-0.0146399
0.00243039
-0.0173386
0.00223637
-0.0174403
-0.017557
0.0171466
0.000395517
-0.0167325
-0.000767352
-0.018729
0.0154852
-0.00203088
0.0129414
-0.00317083
0.0179311
0.0142022
-0.00286523
0.0172006
-0.00145007
0.0169722
0.0179327
-0.0174058
-0.000403713
0.0180089
0.00136285
-0.015578
0.00286741
-0.0158421
0.000956684
0.0171438
-0.0152208
-0.00127331
0.0142634
-0.00221471
-0.00749863
-0.0158339
0.0232391
0.0171826
-0.00138117
-0.0139904
-0.0166666
-0.0257052
-0.0238084
-0.00227926
-0.104634
0.100583
0.00753581
0.00131833
0.0182805
0.0128996
0.0239071
0.0147961
-0.0201155
0.0179745
-0.00843588
0.0181932
-0.0123174
-0.00478541
0.00240665
-0.000493176
-0.00557842
0.00488255
-0.0059154
-0.00167182
-0.00209835
-0.00219275
-0.0037945
0.0132637
-0.000999815
-0.0031987
-0.00139524
-0.00340306
0.0163464
-0.0201364
-0.0116797
0.0155346
0.00680892
-0.0117449
0.0173946
0.00897018
-0.0133578
0.0197997
0.00875897
-0.0142523
0.0222719
0.00868866
0.0291726
0.0116926
0.00971084
0.0128971
0.0121582
0.00933524
0.0128217
0.00964653
0.00778685
0.0116472
0.00953008
0.0060552
0.0107869
0.00818523
0.0101685
0.00684875
-0.00194778
0.00332446
-0.00230754
0.0040354
-0.00289703
0.00463057
-0.00354228
0.00523908
0.00634965
0.00167415
0.00281095
0.00134012
0.000514599
0.000408609
0.00135006
-8.69854e-05
0.00191439
-0.00153299
2.42592e-05
-0.000898771
0.00180435
0.00100537
-0.000386239
0.000834731
-0.000518657
0.00177383
-0.00107788
0.00118472
-0.000628602
0.000313446
-5.36732e-05
0.00195115
-0.00161657
-2.44288e-05
0.00379237
-0.000660923
-0.0034639
0.0108206
-0.0061103
0.00336358
-0.0173691
0.00340391
0.0165113
0.00369106
-0.0176026
0.0198649
0.00689847
0.00282099
0.00669035
-0.0168399
0.0203921
0.00019861
0.00607027
0.0194034
-0.0148127
-0.0138394
0.0139609
0.0052546
0.0108069
-0.00743601
0.0175043
-0.00766674
0.016994
0.011133
-0.000220044
0.0196534
0.00717262
0.00346917
-0.00106716
0.00154294
-0.0033817
0.000458365
-0.00228957
0.0123718
0.00137826
-0.00231289
0.00100987
0.00058864
-0.000776529
0.00156431
-0.000568223
0.00161353
-0.000367234
-0.00130916
0.0011069
-0.00208234
0.0009371
-0.000224716
-0.000261829
-0.00159729
-0.000505475
-0.00203413
0.00024849
-0.00182312
0.00134728
-0.00136202
0.000421796
0.000107139
-0.00189222
0.000153078
-0.00132999
-0.000702876
-0.00118011
-0.00242071
0.00117747
0.00131958
0.00032697
0.000604045
-0.00121542
0.000445373
-0.00172506
-0.000492974
0.000492802
0.000444028
8.96425e-05
0.000115293
-0.000699261
0.00106413
0.000343361
0.000374786
-0.000809952
-0.00162827
0.0028096
-0.000782846
0.000414269
0.000143435
-0.000813396
-0.00114442
0.00378623
0.00143844
-0.000310885
-0.00284873
0.0119365
-0.00250736
-0.00122952
-0.00173411
0.000110831
-0.00082252
0.000348306
-0.000758238
0.000300242
1.14732e-05
-0.00113661
1.4547e-06
0.00185237
-0.00028662
-0.00156762
-0.00126444
0.00322332
-0.000876623
-4.26459e-05
-0.00115431
0.0011449
0.00200016
0.000320953
0.00030972
0.000901686
-6.90795e-05
0.00187316
-0.00145211
-0.000114683
-0.001329
0.00299971
0.00019809
-0.000735126
0.000304633
0.00276294
-0.0039786
0.0129479
-0.00151018
-0.0178403
0.00123572
0.00700949
0.0239108
-0.0165932
0.0213641
0.0065489
-0.0177654
0.0220785
-0.00190701
-0.0146212
-0.00437527
-0.0205904
-0.0217143
-0.00635254
-0.0217119
-0.00584309
0.0149637
-0.0020536
0.0194823
0.0313441
0.0371145
-0.0240686
-0.0992976
0.0652863
-0.0963232
0.0698612
-0.106607
0.0713091
-0.0176193
-0.108343
0.0692653
-0.0252898
-0.104753
0.0686965
-0.0300086
-0.0965744
0.068247
-0.0334314
-0.0852589
0.0662127
-0.0359041
-0.069194
0.0608867
-0.0379225
-0.0514096
0.0571322
-0.0377144
-0.0422051
0.0447082
-0.0323984
-0.00330925
-0.0289121
0.00543031
0.0358874
-0.0452945
0.00943237
0.0395635
-0.0442332
-0.00800784
0.0446865
-0.0276577
-0.0353913
0.0269446
-0.0518498
-0.012977
0.0289682
-0.0595709
-0.0255456
0.0327638
-0.0610113
-0.0329619
0.0338758
-0.0535624
-0.041269
0.0332937
-0.0446947
-0.0391516
0.0297809
-0.027067
-0.0373805
0.0192854
0.00762831
-0.0351342
0.0238208
0.042681
-0.0595106
0.0450439
0.0545143
-0.0765037
0.0691448
0.0544394
-0.0793605
0.0903135
0.0526288
-0.0746223
0.105047
0.0482139
-0.0638044
0.111757
0.0399069
-0.0474392
0.109334
0.0326824
-0.0310703
0.0951415
0.029244
-0.0157719
0.0517179
0.0381177
0.00473213
0.0243474
0.0239224
0.00325166
0.0205947
0.00397264
-0.0003247
0.0190783
0.000509705
0.00090389
0.0159987
0.000271515
0.00269769
0.00958636
0.000114867
0.00619847
0.0095916
-9.28963e-05
0.00803126
0.00270087
-0.0012112
0.00535204
0.00405039
-0.0014183
0.00582069
0.00129991
-0.0018314
0.00761906
0.00139146
-0.00326872
0.00822131
0.00247284
-0.00315293
0.00767194
0.00295548
-0.0024757
0.00719368
0.00268461
-0.00226099
0.0131057
0.000708568
-0.00669768
0.0333013
-0.0063515
-0.0140626
0.0580168
0.00909805
-0.0344318
0.0606717
0.0201621
-0.0235766
0.0537348
0.023926
-0.0178234
0.0378671
0.0260561
-0.0110617
0.0089884
0.0261134
0.00186074
-0.0250129
0.00614086
0.0269383
-0.0463314
-0.0235312
0.0439124
-0.0557652
-0.045847
0.0543354
-0.0536496
-0.0635341
0.0604662
-0.0407951
-0.0763992
0.0625873
-0.0171272
-0.0835029
0.0588713
0.0134822
-0.0781889
0.0466185
0.0274774
-0.0511625
0.0362056
0.0247193
-0.0404878
0.0423233
0.0161001
-0.0325758
0.0402913
0.00202468
-0.0251378
0.0383857
-0.00469445
-0.0252562
0.0311732
-0.0377606
0.0323166
-0.053631
-0.0187608
0.033833
-0.0610573
-0.0340549
0.0406703
-0.0618061
-0.0492451
0.0491189
-0.0537138
-0.0644235
0.0554557
-0.0312013
-0.081302
0.0578904
-0.00173158
-0.082882
0.0525359
0.00479475
-0.0484099
0.0410179
-0.0102437
-0.0286483
0.0428766
-0.0217831
-0.0301721
0.0409254
-0.0072931
-0.060098
0.0448697
-0.0518767
0.0417164
-0.0107156
-0.0683696
-0.000697927
0.0206185
-0.0560635
-0.0362537
0.0293364
-0.0409673
0.00120155
0.0355561
-0.0515624
0.0158
0.0362908
-0.0811097
0.0310405
0.0473874
-0.126864
0.031946
0.059517
-0.123654
0.0292765
0.0609581
-0.0965708
0.0297747
0.0548952
-0.0725645
0.0284763
0.0435316
-0.0508943
0.0273429
-0.0287284
0.02742
-0.0343619
-0.0471998
0.0268242
-0.0359019
-0.0548743
0.0229089
-0.0305882
-0.0638761
0.017104
-0.00192839
-0.0763172
-0.00450336
0.037996
-0.111473
-0.00764682
0.0602141
-0.120519
0.0137919
0.070804
-0.113539
0.0255488
0.0709034
-0.0955255
0.0308958
0.0589311
-0.0707967
0.0359318
0.0350372
-0.0400828
0.0394629
0.000512778
-0.00186822
0.0415614
-0.0255539
0.0318444
0.0193775
-0.0416497
0.0402685
0.000941667
-0.0521997
0.0417567
-0.00820753
-0.0565377
0.039745
-0.0161615
-0.0255631
-0.0208874
0.0316085
-0.0335841
0.00599916
-0.0103419
-0.00677346
-0.0146009
0.00953891
-0.0101249
-0.0144388
0.00563429
-0.00929695
0.0251901
-0.0121167
0.000115092
-0.00587689
0.0203289
-0.0090342
-0.00558344
0.0188633
-0.0053061
-0.00795935
-0.0058262
-0.00641383
0.000730036
-0.00623305
-0.00981978
0.000854478
-0.00581154
-0.0111746
0.00054576
-0.00503962
-0.0113718
0.00017647
0.00611717
-0.00786155
-0.000664906
0.00891554
-0.0021131
-0.00426167
-0.000208115
-0.00196366
-0.00209383
-0.00106324
-0.00126002
-0.00027402
-0.00117576
0.000383975
-0.00133863
-0.00566175
0.0177219
-0.00574677
-0.0153283
0.00190162
0.0296721
-0.00957914
-0.0166053
0.0773872
-0.0385244
-0.0425647
-0.00204058
0.0802006
-0.0402892
0.0129911
0.0769968
-0.0334309
0.0178895
0.0669243
-0.0244528
0.0225255