/*--------------------------------*- C++ -*----------------------------------*\
| =========                 |                                                 |
| \\      /  F ield         | OpenFOAM: The Open Source CFD Toolbox           |
|  \\    /   O peration     | Version:  v2012                                 |
|   \\  /    A nd           | Website:  www.openfoam.com                      |
|    \\/     M anipulation  |                                                 |
\*---------------------------------------------------------------------------*/
FoamFile
{
    version     2.0;
    format      ascii;
    class       volScalarField;
    location    "450";
    object      nut;
}
// * * * * * * * * * * * * * * * * * * * * * * * * * * * * * * * * * * * * * //

dimensions      [0 2 -1 0 0 0 0];


internalField   nonuniform List<scalar> 
18258
(
0.00420037
0.00182547
0.00149572
0.00129576
0.000858035
0.00140406
0.00195004
0.0023213
0.00243539
0.00241437
0.00249952
0.00421755
0.00591845
0.00731351
0.00768137
0.00766757
0.00695803
0.00664416
0.00721028
0.0088698
0.00746504
0.00478143
0.00573086
0.00661904
0.00719188
0.00636642
0.00514716
0.00476895
0.00431841
0.00359912
0.00301577
0.00205007
0.00151862
0.001409
0.00127578
0.00145349
0.00158219
0.0016859
0.00172406
0.00175124
0.00173923
0.00172944
0.00168291
0.00165515
0.00160757
0.00133241
0.00162398
0.00163629
0.00179185
0.00248265
0.00267023
0.00224702
0.00248733
0.00222032
0.00146485
0.00167616
0.00181946
0.00185884
0.00183527
0.00175938
0.00173395
0.00171241
0.00168502
0.00165244
0.00163262
0.00164908
0.00166622
0.00164815
0.0015672
0.00150159
0.00139539
0.00128892
0.00120996
0.00114878
0.00110266
0.00105151
0.000994039
0.000873149
0.000809222
0.00107145
0.00134505
0.00143706
0.00203673
0.00248313
0.00249985
0.00187115
0.00133354
0.00138398
0.00153862
0.00155415
0.00131726
0.00156594
0.00177385
0.00183856
0.00191608
0.00214156
0.00243839
0.00237745
0.00211733
0.00195088
0.0019151
0.00219376
0.00208522
0.00270427
0.0027244
0.00237734
0.00218955
0.00246396
0.00317763
0.00341836
0.00265682
0.00249536
0.00244596
0.00241481
0.00218406
0.00226045
0.00205282
0.00184971
0.00201508
0.00243548
0.00231008
0.00252317
0.00261464
0.00245301
0.0028424
0.00327771
0.00323015
0.00258487
0.00210743
0.00196447
0.00197939
0.00121059
0.00130727
0.00140868
0.00144318
0.00146737
0.00148793
0.00158675
0.00158318
0.00155998
0.00155654
0.00158395
0.000872897
0.000945686
0.00096917
0.00097595
0.000926921
0.000917361
0.000900229
0.000886313
0.000835736
0.000799669
0.000956851
0.00107444
0.00117029
0.00128234
0.00144955
0.00165409
0.00186898
0.00208605
0.00222958
0.0022704
0.00231165
0.00222774
0.00214334
0.00221964
0.00223246
0.00221806
0.00218825
0.00215061
0.00209971
0.00200631
0.00211355
0.00210731
0.00197965
0.00169723
0.00173482
0.0017316
0.00177667
0.00176792
0.00178612
0.00176135
0.00173228
0.0016494
0.00153375
0.0012773
0.00124138
0.00125763
0.00161582
0.00196233
0.00303206
0.00370002
0.0042978
0.00460041
0.0049253
0.00398293
0.00443202
0.00341456
0.00306584
0.0038973
0.00509992
0.00290928
0.00158746
0.00301016
0.00266883
0.00193419
0.00172108
0.00177284
0.00177784
0.00204527
0.00235669
0.00261285
0.00273674
0.0028468
0.00293437
0.00303138
0.0031545
0.00318867
0.00308084
0.0026088
0.00314143
0.00255039
0.0029784
0.00268894
0.00181149
0.00193965
0.00205191
0.00187538
0.00182303
0.00174717
0.00157051
0.00192623
0.00250201
0.00290433
0.00332002
0.00442521
0.00409396
0.00392757
0.00304153
0.00294116
0.00152757
0.00218012
0.00225564
0.00253504
0.00168571
0.00153709
0.0014578
0.00193328
0.00223891
0.00264147
0.00292813
0.00347795
0.0026949
0.00307764
0.00278399
0.00193783
0.00186781
0.00267713
0.0028842
0.00237199
0.00212426
0.00266441
0.00252067
0.00178744
0.00143582
0.00220524
0.00228515
0.00163729
0.00406912
0.00431301
0.00411435
0.00501708
0.0062913
0.00717666
0.00667914
0.00592694
0.00662032
0.00525613
0.00508727
0.00542648
0.00455724
0.00319693
0.00327799
0.00339074
0.00348283
0.00373928
0.00397209
0.00425628
0.00452762
0.00411657
0.00342018
0.00258953
0.00178198
0.0017579
0.00174913
0.00157065
0.00232763
0.0035213
0.0034973
0.00198713
0.0011584
0.00131022
0.00147946
0.00146495
0.0010631
0.000800203
0.00137852
0.00157611
0.00160154
0.00156176
0.00147454
0.00154089
0.00247461
0.00381238
0.00418896
0.00433862
0.00448025
0.00458028
0.00463593
0.00465353
0.00466326
0.00467516
0.00468558
0.00470151
0.00468677
0.00458679
0.00403434
0.00253655
0.00148296
0.00137776
0.0015206
0.00163425
0.00173351
0.00147523
0.000901911
0.00144052
0.00184452
0.00211965
0.00213754
0.00199467
0.00193478
0.00305064
0.00405595
0.00478042
0.00492678
0.00499164
0.00493631
0.00492859
0.00482036
0.00478604
0.00419611
0.00300474
0.00328524
0.00352757
0.0035685
0.00365128
0.00377552
0.003688
0.00348375
0.0050928
0.00587601
0.00595155
0.00607882
0.0060073
0.00590366
0.00563533
0.00532874
0.00448603
0.00336413
0.00212255
0.00216685
0.00230678
0.00228469
0.00198895
0.00209552
0.00227412
0.00229686
0.00237191
0.00265983
0.00302084
0.00288141
0.00247934
0.00210578
0.00196078
0.00191981
0.00184212
0.00137986
0.00140033
0.00136105
0.00138339
0.00185822
0.00221176
0.00255056
0.00361782
0.00322738
0.00262489
0.00416133
0.00426345
0.00457947
0.00505821
0.00518366
0.00574229
0.00399969
0.00360517
0.00370369
0.00302572
0.00280077
0.00283079
0.0028415
0.00264846
0.00289882
0.00287325
0.0027694
0.00305759
0.003369
0.0044425
0.00538313
0.00567994
0.00585146
0.00592134
0.00589832
0.00578214
0.00581741
0.0051084
0.00510153
0.00488606
0.00474555
0.00469549
0.00446207
0.00510919
0.00530431
0.00536953
0.00550363
0.00571261
0.00555894
0.00538578
0.00525415
0.00515874
0.00505903
0.00511346
0.0052087
0.00531037
0.00545323
0.0056443
0.00567691
0.0054788
0.00532918
0.00522686
0.00513083
0.00513526
0.00522096
0.00532097
0.00546286
0.00564414
0.00554429
0.0054033
0.00527784
0.00517496
0.00508446
0.00490698
0.00502574
0.00515646
0.00526437
0.00533464
0.00460923
0.00492629
0.00484109
0.00438262
0.00410166
0.00311497
0.00337116
0.00355505
0.00387218
0.00429851
0.00438249
0.00367797
0.00315198
0.00307165
0.00304688
0.00311875
0.00314455
0.00315962
0.00357008
0.00537817
0.00541429
0.00542943
0.00543134
0.00464456
0.00451334
0.00420515
0.00768289
0.00715281
0.00619901
0.00511002
0.00273989
0.00234879
0.00278227
0.00338312
0.00378232
0.00417333
0.00277101
0.00171625
0.00200007
0.00207363
0.00202269
0.00186968
0.00155801
0.00143814
0.00130515
0.00140444
0.00248705
0.00396916
0.00447117
0.004519
0.00447457
0.00438792
0.00428255
0.00413579
0.00408304
0.00514836
0.0069687
0.00786055
0.00782862
0.00672661
0.00548304
0.00309019
0.00158912
0.00116512
0.00126332
0.00138724
0.00163013
0.00145412
0.00121848
0.00133546
0.00126636
0.00256555
0.0044297
0.00564149
0.00669997
0.00659432
0.00573384
0.00468613
0.00443934
0.00454251
0.00461191
0.00467111
0.00473193
0.00477354
0.00474658
0.00431995
0.00266864
0.00159322
0.00141558
0.00152206
0.00178391
0.00189555
0.00191499
0.00188846
0.00163725
0.00270809
0.00429951
0.00273465
0.00149202
0.00161196
0.0016001
0.00282222
0.00281798
0.00275758
0.00429024
0.00453654
0.00452522
0.00425205
0.00405895
0.00240349
0.00272801
0.00273724
0.00275164
0.00279658
0.0014132
0.00154048
0.00158855
0.0017105
0.00149455
0.00189835
0.000491249
0.000681318
0.000791272
0.000860545
0.000927216
0.0009096
0.0017407
0.00176637
0.00168535
0.00164095
0.00208216
0.00223421
0.00228342
0.00210315
0.00194057
0.00206552
0.00207012
0.00195108
0.00184809
0.001916
0.00191735
0.00183759
0.00156301
0.00146459
0.00160772
0.00159044
0.00157783
0.00283241
0.00282731
0.00267609
0.00439584
0.00432569
0.00484495
0.0048138
0.00480825
0.00478856
0.00484026
0.00486719
0.00488734
0.00491091
0.00490135
0.00485365
0.00673027
0.00477552
0.00416709
0.00241017
0.00232185
0.00164009
0.00143745
0.00169263
0.00181033
0.00196266
0.00191834
0.00202208
0.00201968
0.00214299
0.00198883
0.00176578
0.00270424
0.00288872
0.00282124
0.00287687
0.00280919
0.00279254
0.0027722
0.00273304
0.00268577
0.00159952
0.00156921
0.00183757
0.00192895
0.0020727
0.00209128
0.00213671
0.00202617
0.00178176
0.00172467
0.00198649
0.00195964
0.00199803
0.00188375
0.0018757
0.00167077
0.0017131
0.00345127
0.00635704
0.00328016
0.00364293
0.00330188
0.0037543
0.00328952
0.00283783
0.00290473
0.00255882
0.00266928
0.00279975
0.00285041
0.00299582
0.00353143
0.00340004
0.00298448
0.00289787
0.00284082
0.00267875
0.00241126
0.00252568
0.00254831
0.00260298
0.00289301
0.00331786
0.00371865
0.00451676
0.00438318
0.003841
0.00351161
0.00368194
0.00374671
0.0047145
0.0044042
0.00437833
0.0046188
0.00457309
0.00433937
0.00411147
0.00396848
0.00340849
0.00346432
0.00396257
0.00383475
0.00395207
0.00388307
0.00403742
0.00411099
0.00394537
0.0036672
0.00385663
0.00384916
0.00427362
0.0041557
0.00385581
0.00352614
0.00377094
0.00372611
0.00430293
0.00404965
0.00378762
0.00348793
0.00334186
0.00379218
0.00372267
0.00421959
0.00434264
0.00434448
0.00378861
0.00370028
0.00439865
0.00423084
0.00408823
0.0042584
0.00352776
0.00362792
0.00446735
0.00456068
0.00432767
0.00361441
0.00366925
0.0031462
0.00369948
0.00460293
0.00434754
0.00356418
0.00295828
0.00413715
0.00435203
0.00460162
0.0043495
0.00473488
0.00509935
0.0041598
0.00452457
0.00590731
0.00451915
0.00524302
0.00535828
0.00538897
0.00539086
0.00541075
0.00543671
0.00572633
0.00556735
0.00354409
0.00423633
0.00411817
0.00344724
0.00293471
0.00323133
0.00348001
0.00353022
0.00361972
0.00375732
0.00369218
0.00356733
0.00522422
0.00596317
0.00609116
0.00621214
0.00611149
0.00596258
0.00561685
0.0051954
0.00432131
0.00322412
0.00201426
0.00205363
0.00218873
0.00216821
0.00188114
0.00141871
0.000932688
0.00138378
0.00143175
0.0013498
0.00123221
0.00109104
0.00113429
0.00205626
0.00376081
0.00538354
0.00598232
0.00646608
0.00697301
0.0074463
0.00780312
0.00806346
0.00824047
0.00834924
0.00837115
0.00820978
0.00745532
0.00711832
0.00670155
0.00635965
0.00589207
0.00553825
0.00626224
0.00688204
0.00726482
0.0076942
0.00789286
0.00780873
0.00678151
0.00656806
0.00755599
0.00931372
0.00791615
0.00994888
0.0117023
0.00910342
0.0081867
0.00818712
0.00915992
0.0093397
0.00900798
0.00848893
0.00789191
0.00713637
0.00751406
0.00785936
0.00819469
0.00850417
0.00933443
0.00947646
0.00940445
0.00925626
0.00905894
0.00878049
0.00834802
0.00774679
0.00704706
0.00635207
0.00554551
0.00383439
0.00192394
0.00216303
0.00213229
0.00216498
0.00216486
0.00103424
0.00114239
0.00115666
0.00116362
0.00109672
0.00124924
0.00180575
0.00292299
0.00210105
0.001734
0.00119416
0.00139696
0.00233061
0.00394521
0.00445537
0.0045471
0.00464007
0.0060661
0.00686738
0.00729203
0.00762381
0.00785528
0.00775842
0.00750692
0.00706117
0.00648853
0.00627158
0.00591378
0.00560323
0.00543341
0.00526404
0.00493388
0.00385611
0.00373432
0.00389167
0.00383988
0.0036748
0.00392818
0.00407113
0.00406845
0.00411425
0.00415421
0.00427724
0.00442192
0.00454782
0.0046139
0.00463843
0.00464611
0.00465553
0.00466291
0.00467696
0.00466093
0.00455873
0.00400285
0.00250309
0.00146124
0.00135076
0.00148099
0.00156608
0.00160244
0.00142315
0.000916165
0.00142355
0.00184274
0.00188998
0.00207406
0.00213997
0.00226897
0.00252664
0.00291941
0.00301256
0.00267346
0.00253218
0.00247865
0.002416
0.00206874
0.00257882
0.00284136
0.00283549
0.00280817
0.00303505
0.00373449
0.00358792
0.00316412
0.00312942
0.00309819
0.00280514
0.00276333
0.00301508
0.00304804
0.00316105
0.00370618
0.00444377
0.00412321
0.00375589
0.00360205
0.00332694
0.00293218
0.00265094
0.00325188
0.00266523
0.00141713
0.0012088
0.00119688
0.00120316
0.00116349
0.00137967
0.0014516
0.00147066
0.001366
0.00151488
0.00168508
0.00162904
0.00184261
0.00181954
0.00163094
0.00161644
0.00174383
0.00183622
0.00188389
0.00193862
0.00317369
0.00328057
0.00253825
0.00366925
0.00422458
0.00418187
0.00443664
0.00365405
0.00327892
0.00389126
0.0044916
0.00514429
0.00406926
0.00385134
0.00393729
0.00181137
0.000953189
0.00134451
0.00166957
0.00186242
0.00180773
0.00170798
0.00144443
0.00256079
0.00263007
0.00416898
0.00467692
0.0047386
0.00471036
0.0047672
0.00521141
0.00599124
0.00681241
0.00705463
0.00695499
0.00664423
0.00606799
0.00548553
0.00545059
0.00525912
0.00512085
0.0050787
0.00440293
0.00390898
0.00419067
0.00411578
0.00425541
0.00432084
0.00436846
0.00441683
0.00449714
0.00459395
0.00468205
0.00474189
0.00478155
0.0048147
0.00484844
0.00488223
0.00491875
0.00493805
0.00489046
0.00441925
0.00265068
0.00158051
0.00144168
0.00153831
0.00180798
0.00190369
0.00204605
0.0018168
0.00095678
0.00112508
0.00195504
0.00216791
0.00200588
0.00187733
0.00184367
0.00154451
0.00279768
0.00276143
0.00433524
0.00487648
0.0049455
0.00493262
0.00489531
0.00485293
0.00481162
0.0047776
0.00475024
0.00472103
0.00467952
0.0046286
0.004582
0.00453508
0.0044545
0.00434023
0.00420266
0.00436648
0.00452656
0.00471669
0.00491766
0.00501827
0.00492969
0.00479823
0.00474174
0.004773
0.00481392
0.00485593
0.00489371
0.00491216
0.00485679
0.00457672
0.0042939
0.00271917
0.00275452
0.0013556
0.00150567
0.00173729
0.00179434
0.0019484
0.00193894
0.00152433
0.00118833
0.00134097
0.00125332
0.00223894
0.00246205
0.00273016
0.00270313
0.0014682
0.00150612
0.00156538
0.00176539
0.00164183
0.00158676
0.00391259
0.00374934
0.00392425
0.00481332
0.00414642
0.00286299
0.00313524
0.00436306
0.00460197
0.00278166
0.00208817
0.00231376
0.00293003
0.00431469
0.00436875
0.00415101
0.00412691
0.00301194
0.00370362
0.00445838
0.0043367
0.00337926
0.0023283
0.00173558
0.000844655
0.00160663
0.0013735
0.00336511
0.00372399
0.00368078
0.0040247
0.00427608
0.00431978
0.00419736
0.00372293
0.0037969
0.00383435
0.00436866
0.00438798
0.00371525
0.00313525
0.00254733
0.00257018
0.00261993
0.00290298
0.0036347
0.00342463
0.00300176
0.0029108
0.00284807
0.00267891
0.00241754
0.00212069
0.0021353
0.00198736
0.00192322
0.00303156
0.00403518
0.00475815
0.00489485
0.00494439
0.00486865
0.00483449
0.0046966
0.00462548
0.00401861
0.00513214
0.00542483
0.00523434
0.00527246
0.00530481
0.00534475
0.00534509
0.0052443
0.0045069
0.00269164
0.00175819
0.00198462
0.0021422
0.00201162
0.00200017
0.00213181
0.0020228
0.00177675
0.00287859
0.00281355
0.00449854
0.00509427
0.00520389
0.00521085
0.00519044
0.00517358
0.00518044
0.0054524
0.00532575
0.00539008
0.00566866
0.00568002
0.00575024
0.00539962
0.0053318
0.00528888
0.00526044
0.00521357
0.00508663
0.00450244
0.00436484
0.00495552
0.00510704
0.00517379
0.00521997
0.00527544
0.0053488
0.0055609
0.00571793
0.0057762
0.0055501
0.00547008
0.00534531
0.00516534
0.00512266
0.00511366
0.00510905
0.00508365
0.00495112
0.00435817
0.00280222
0.00287131
0.00170816
0.00171931
0.00198031
0.00208003
0.00204295
0.00189191
0.0018446
0.00317368
0.00361238
0.00384231
0.00413859
0.0039532
0.00393008
0.00449141
0.00434693
0.00387383
0.0040311
0.00361663
0.00344661
0.00333243
0.00335107
0.00176354
0.00190292
0.00198483
0.00195184
0.00186641
0.00166469
0.0015266
0.00278596
0.00276556
0.0027295
0.00162323
0.00158767
0.0018705
0.00181658
0.00166186
0.00141659
0.00155291
0.00239762
0.00268148
0.00415822
0.00430709
0.00461049
0.00493112
0.00505327
0.00508688
0.00510721
0.00512993
0.00517789
0.00523415
0.00524852
0.00524371
0.00528195
0.0052736
0.00527404
0.0052452
0.00521264
0.00517519
0.00513555
0.00507059
0.00493641
0.0046138
0.00429696
0.00484492
0.0048889
0.00497927
0.00507302
0.00511311
0.00511994
0.00510245
0.00506693
0.00502499
0.00497577
0.00497521
0.00511994
0.00515408
0.00517957
0.00516474
0.00514761
0.00514198
0.00511935
0.00508232
0.0049875
0.00489237
0.00485165
0.00477039
0.00489834
0.00495535
0.0049646
0.00501348
0.00509138
0.00511323
0.00511184
0.00507339
0.0050409
0.00499978
0.00493364
0.00484816
0.00455772
0.00461564
0.00469266
0.00479303
0.00489008
0.0049686
0.00501264
0.00501538
0.0049693
0.00493874
0.00494044
0.00489935
0.00492146
0.00494336
0.00491804
0.00491521
0.00491947
0.0048646
0.0047637
0.00462295
0.00447367
0.00434923
0.00428395
0.00417972
0.00451962
0.00464769
0.00476241
0.00486468
0.00495717
0.00504995
0.00507916
0.00506942
0.00501198
0.00497883
0.00497648
0.00492787
0.00492609
0.00497319
0.0049761
0.00500381
0.00505327
0.00503859
0.00496988
0.00479588
0.00462657
0.00447944
0.00433918
0.00418955
0.00413801
0.00420564
0.00415233
0.00421403
0.00436226
0.00454669
0.00470559
0.00480623
0.00483769
0.00486744
0.00491169
0.0049071
0.00488097
0.00486643
0.00480678
0.00475502
0.00469148
0.00455197
0.00437315
0.00421438
0.00416151
0.00424456
0.00432895
0.00425079
0.00395727
0.00411473
0.0042633
0.00441186
0.00462191
0.00486389
0.00497089
0.00500911
0.00498496
0.00496554
0.0049621
0.00491744
0.00490235
0.00494347
0.00494755
0.0049671
0.00499823
0.00496567
0.00487711
0.00458034
0.00422768
0.00405854
0.00395914
0.00382391
0.00427206
0.00436085
0.00425322
0.00418083
0.00429466
0.00442818
0.00456684
0.00465922
0.00469598
0.004747
0.00481394
0.0048461
0.00479855
0.00474305
0.00467453
0.00463871
0.00463655
0.00461153
0.0045217
0.00441714
0.00429817
0.00444333
0.00452744
0.00444631
0.00403275
0.00409959
0.00419809
0.0042557
0.00458595
0.00487559
0.00494553
0.00494932
0.00491958
0.00489973
0.00489976
0.0048737
0.00482587
0.00481752
0.00481356
0.00487007
0.00494366
0.00498387
0.00500325
0.0047866
0.00439167
0.00432571
0.00414783
0.00406325
0.00450608
0.00455723
0.00445415
0.00435739
0.00456665
0.00465627
0.00468214
0.00466496
0.00461779
0.00458641
0.00464538
0.004738
0.00466764
0.00436498
0.00409561
0.00423336
0.00426608
0.00425442
0.00419611
0.00409962
0.00389048
0.00434333
0.00478388
0.00482053
0.00435523
0.00436225
0.00422052
0.00392778
0.00431133
0.00451596
0.0045618
0.00454496
0.00447528
0.00430517
0.00454749
0.00476081
0.00471977
0.00427212
0.0027729
0.00281104
0.00283137
0.00283404
0.00279657
0.00278599
0.00274517
0.00272394
0.00266066
0.00259614
0.00253491
0.0027032
0.00284816
0.00304288
0.00305882
0.00313924
0.0030041
0.00284425
0.00265593
0.00206899
0.00262515
0.00313103
0.00332799
0.0035802
0.0036325
0.00419183
0.00441082
0.00453
0.0044438
0.00356657
0.00302596
0.00241837
0.00157279
0.000979951
0.00115026
0.00119634
0.00125648
0.00153482
0.00282203
0.00143829
0.00199179
0.0015577
0.00267552
0.00142178
0.000889569
0.000588541
0.00074728
0.00088349
0.000890222
0.000854687
0.000713279
0.000561692
0.00057419
0.000536751
0.000570496
0.000515545
0.000590906
0.00055299
0.000772897
0.00116401
0.00132046
0.00134942
0.00109052
0.00122949
0.00102718
0.00118452
0.00105764
0.00115264
0.00110576
0.00135229
0.00148209
0.00141917
0.00142333
0.00124561
0.000871286
0.00100991
0.000793452
0.000952639
0.000728928
0.000941543
0.000807292
0.00104899
0.00108136
0.00107825
0.00103819
0.000793145
0.000940159
0.00074004
0.00090489
0.000740249
0.000785602
0.000653461
0.000945853
0.000962943
0.000887732
0.000943484
0.00105829
0.00113503
0.00125305
0.00118997
0.00135993
0.0013181
0.00134302
0.00127212
0.00123734
0.00120908
0.00121148
0.00119152
0.00119802
0.00123658
0.00123847
0.00124335
0.00128273
0.00126395
0.00123364
0.00121549
0.00107989
0.000871232
0.0015175
0.00156493
0.00158786
0.00158724
0.00155099
0.00153378
0.00148116
0.00146708
0.00142123
0.00139408
0.00133259
0.00128181
0.00122414
0.00137579
0.000769766
0.000873952
0.00092266
0.000949967
0.000969155
0.00097795
0.000985194
0.000979758
0.00096771
0.000943748
0.000935506
0.000909422
0.0011637
0.00132351
0.00138329
0.0013992
0.00131158
0.00124887
0.00272715
0.00329944
0.00501878
0.00513006
0.00385061
0.00383971
0.00133043
0.00140273
0.000959135
0.00134792
0.0013898
0.00137564
0.00129955
0.000937287
0.00140652
0.000979489
0.0013196
0.000987249
0.00122171
0.00100065
0.00141743
0.00180514
0.00174069
0.00157619
0.00107049
0.000889476
0.00088592
0.000758612
0.000832629
0.000690712
0.000851614
0.000722726
0.00107874
0.00154108
0.00170466
0.0017388
0.00137099
0.00189148
0.00142202
0.00205821
0.00163335
0.00201333
0.00161544
0.00187009
0.00231396
0.00232427
0.00226916
0.00182891
0.00146629
0.0016457
0.00145809
0.00167915
0.00242493
0.00158925
0.00240918
0.000995723
0.00135719
0.00139868
0.00137929
0.00130032
0.00087596
0.00223082
0.00117923
0.00210128
0.00135933
0.00218399
0.00157932
0.00208374
0.00249075
0.00260056
0.00258837
0.00211323
0.00190036
0.00195677
0.00156105
0.0018734
0.0014025
0.00203981
0.00116556
0.00151789
0.00168211
0.0017714
0.00177918
0.00146322
0.00288871
0.00181329
0.00273683
0.00190241
0.00243684
0.00195326
0.00213727
0.00252381
0.00250821
0.00248734
0.00210924
0.00170627
0.00225204
0.00160706
0.0477277
0.11038
0.0438933
0.111531
0.050531
0.0717046
0.070646
0.0707795
0.0710251
0.0533194
0.116316
0.13745
0.143382
0.145161
0.144101
0.232881
0.1899
0.285354
0.185008
0.108793
0.0471222
0.0650119
0.167929
0.277403
0.416188
0.528037
0.359808
0.372378
0.23762
0.23423
0.220449
0.178272
0.109212
0.0547517
0.00941298
0.0102987
0.0147335
0.0196039
0.0154537
0.00948286
0.00187742
0.00193801
0.00198258
0.00201115
0.00200617
0.00196627
0.00200081
0.00189375
0.00178507
0.00199935
0.00217926
0.00230016
0.0027181
0.00300646
0.00271075
0.00297202
0.00315008
0.00329525
0.00341532
0.00359389
0.00379482
0.00397103
0.00398075
0.00364815
0.00310974
0.00253051
0.00212782
0.00201615
0.00189343
0.00166973
0.00152756
0.00143071
0.00138359
0.00136391
0.00140144
0.00153146
0.00164409
0.00168355
0.00165029
0.00161996
0.00159352
0.00141893
0.00165903
0.00227571
0.00229353
0.00392943
0.00452773
0.00462181
0.00462818
0.00410294
0.00262093
0.00262656
0.00263996
0.00269003
0.00270049
0.00270699
0.00270411
0.00269432
0.0026786
0.00264924
0.00263463
0.00259196
0.00255603
0.0024661
0.00247009
0.00250126
0.00252617
0.00248481
0.00249486
0.00244305
0.00317352
0.00424584
0.00479512
0.00501101
0.00519717
0.00504435
0.00698823
0.00597425
0.00419581
0.00413232
0.004081
0.00483878
0.00487242
0.0044058
0.00442411
0.00403092
0.00251649
0.00250949
0.00251119
0.00268628
0.00273927
0.00283288
0.00285881
0.00288182
0.00289555
0.00289036
0.00288864
0.00286319
0.00284403
0.00277964
0.00275824
0.00274902
0.00151555
0.00165412
0.00171604
0.00172746
0.00175244
0.00174171
0.00173125
0.00171029
0.00169665
0.00166801
0.00163491
0.00158604
0.00149101
0.00135817
0.00149462
0.00253627
0.00253534
0.00413216
0.00466925
0.00470347
0.00522855
0.0049643
0.00470149
0.0050438
0.00455111
0.0045156
0.00408363
0.00253522
0.00256992
0.00152528
0.00151235
0.00176842
0.00171989
0.001838
0.00188853
0.00189451
0.00192094
0.00194586
0.00197703
0.00202743
0.00204252
0.00201072
0.00200471
0.00188818
0.00163146
0.00165075
0.00194641
0.00204187
0.00189583
0.0018626
0.00184798
0.00180239
0.00176787
0.00173491
0.00175729
0.00189188
0.00188931
0.00185555
0.00176539
0.00171868
0.00148945
0.00143819
0.00251469
0.00255475
0.00423031
0.00432233
0.00428448
0.0049369
0.00551247
0.00627308
0.00535405
0.00435647
0.00456019
0.00521451
0.00388211
0.00325159
0.0019365
0.00144709
0.00181419
0.00166215
0.00173365
0.00179611
0.00159527
0.00171441
0.00158536
0.00144075
0.00143285
0.00143125
0.00146666
0.0014816
0.00150861
0.00151231
0.00154925
0.00154583
0.00155044
0.00156939
0.00157779
0.00174328
0.0018948
0.00159473
0.00135196
0.00131704
0.00124363
0.00118388
0.00121265
0.00118326
0.00117595
0.00115424
0.00113457
0.00108257
0.001128
0.00119682
0.00140005
0.00133999
0.00108312
0.000967855
0.000661523
0.00067486
0.000679531
0.000700449
0.000708154
0.000717613
0.00072115
0.00073295
0.000735265
0.000739018
0.000738745
0.000756855
0.000754298
0.000745676
0.00074008
0.000743697
0.000747157
0.000746655
0.00109338
0.00121756
0.00133027
0.00158012
0.00185961
0.00160078
0.00135668
0.0011691
0.000751478
0.000762765
0.000776718
0.000783889
0.000800644
0.000815846
0.000832866
0.00084357
0.000851642
0.000860034
0.000868902
0.000872412
0.000870262
0.0008534
0.000843476
0.000864858
0.000950542
0.00100034
0.00106425
0.00108837
0.00110879
0.00111885
0.00111367
0.00112543
0.00111234
0.00111057
0.00109179
0.00108384
0.0010763
0.00106672
0.00105477
0.00102505
0.00101522
0.00106804
0.0018096
0.00236775
0.00272707
0.0030042
0.00278287
0.00226312
0.00237257
0.00417246
0.00395476
0.00232995
0.00217797
0.00201373
0.00176521
0.00152816
0.00184298
0.00210488
0.00230297
0.00247658
0.00263544
0.0027435
0.00288225
0.00306316
0.00338238
0.00342269
0.00312224
0.00253078
0.00214319
0.0020024
0.00193487
0.00181674
0.0016876
0.00172973
0.00174209
0.00169008
0.00162546
0.00160692
0.0016334
0.00166706
0.00164706
0.00164636
0.00147077
0.00147025
0.00251217
0.00255985
0.0039376
0.00414866
0.00418858
0.0026932
0.00265611
0.00155142
0.00144072
0.00157166
0.00163144
0.00163473
0.00164117
0.00163266
0.00160395
0.001583
0.0015586
0.00153881
0.00152135
0.00149121
0.00143376
0.00132417
0.00144296
0.00161836
0.00169015
0.00170881
0.00171775
0.00174492
0.00178942
0.00182513
0.001908
0.00191667
0.00191612
0.001923
0.00179746
0.00185387
0.00156899
0.00156688
0.00271576
0.00270857
0.00155605
0.0018375
0.00184976
0.00182848
0.0019683
0.0018011
0.0017438
0.00173425
0.00166059
0.00162146
0.00156934
0.00153818
0.00156824
0.00166817
0.00161503
0.00143109
0.00137961
0.0015477
0.00148903
0.00123548
0.00105559
0.00102657
0.000982689
0.000956093
0.00100214
0.00103803
0.00105851
0.00108453
0.00109227
0.00114017
0.00110941
0.00116436
0.00123479
0.00129097
0.00153141
0.00165939
0.0014991
0.00147019
0.00145194
0.00145017
0.0014547
0.00139459
0.00139061
0.00135959
0.00134432
0.00130381
0.00128551
0.00126221
0.00126636
0.00127967
0.0014068
0.00362427
0.00461958
0.00481015
0.00820813
0.00331939
0.00338912
0.00663648
0.00275055
0.00413246
0.00442743
0.00463076
0.00483631
0.00442574
0.00561558
0.0039253
0.00437203
0.00455888
0.00399435
0.0014948
0.00169973
0.00196197
0.00175398
0.00154936
0.00105611
0.00113888
0.00117614
0.00120643
0.00122602
0.00124788
0.00127128
0.00129327
0.00130873
0.001309
0.00126928
0.00122644
0.00112794
0.00109514
0.00113757
0.00118145
0.00103772
0.000977085
0.000988661
0.00100501
0.00101418
0.00101618
0.00102619
0.00102892
0.0010447
0.00103632
0.00104428
0.00102647
0.00103559
0.001022
0.000987068
0.000938133
0.000854867
0.000834466
0.00120191
0.00127982
0.00134444
0.00152545
0.00176117
0.00187922
0.00168415
0.00155279
0.00149048
0.00165346
0.00165393
0.00300446
0.00576931
0.00258285
0.00289505
0.0084435
0.00335434
0.00260802
0.00264766
0.00267555
0.00267924
0.00155714
0.00184439
0.00178847
0.00179548
0.00152277
0.00127843
0.00114654
0.0010251
0.000695054
0.000692721
0.000697951
0.000708598
0.000711902
0.000681369
0.000681287
0.000677387
0.000675858
0.000661505
0.000657501
0.000645846
0.000638769
0.00062199
0.000612888
0.000596898
0.000594066
0.000619467
0.000688597
0.00083238
0.000926703
0.00105308
0.00107239
0.00120847
0.00299462
0.00347314
0.00478415
0.00474553
0.0074852
0.0046769
0.00353314
0.0031932
0.00467162
0.00482558
0.00447713
0.00606616
0.00419849
0.00277941
0.00417377
0.00347193
0.00411426
0.00403531
0.00428187
0.00680832
0.00717734
0.00202145
0.00180205
0.00189561
0.00215049
0.00255319
0.00235191
0.00267876
0.00267771
0.00206762
0.00131406
0.00418535
0.00504192
0.00404966
0.00486566
0.00752725
0.0030233
0.00294848
0.0026089
0.00217774
0.00197941
0.00195295
0.00217749
0.00260548
0.0065277
0.00697988
0.00643367
0.00640777
0.0058126
0.00639068
0.0079853
0.00794976
0.00702327
0.00657226
0.00680473
0.00420826
0.0026195
0.00305221
0.00338228
0.00451281
0.00465276
0.00982802
0.00333389
0.00368256
0.00374055
0.00500447
0.00484455
0.00856994
0.00362818
0.00391349
0.00515699
0.00689519
0.0127242
0.00463741
0.00488717
0.00703242
0.00713955
0.0065242
0.00471046
0.00426748
0.0046506
0.00350355
0.00342486
0.00292355
0.00431635
0.00581258
0.00459434
0.0044614
0.00379632
0.00337702
0.00346099
0.00359126
0.00298264
0.00294132
0.00339539
0.0025177
0.00243611
0.00258003
0.000716157
0.000367107
0.000375299
0.000385037
0.000392953
0.000401099
0.00040707
0.00041414
0.00041735
0.000417689
0.000418741
0.000442891
0.000438819
0.000424954
0.000385877
0.000440359
0.000698811
0.000699308
0.000439895
0.000387815
0.000695831
0.00110885
0.00130739
0.00154675
0.00156602
0.00135117
0.00117137
0.000720897
0.000709579
0.000430109
0.000502313
0.000545486
0.000483795
0.000539908
0.000500391
0.000530028
0.000535454
0.000495352
0.000492613
0.00049452
0.000490725
0.000482007
0.000471345
0.000458356
0.000448132
0.000442538
0.000438182
0.00042866
0.000356242
0.000332038
0.000399301
0.000636866
0.000635934
0.000596079
0.000561993
0.000532877
0.0005196
0.000515862
0.000513013
0.00052196
0.000538856
0.000543624
0.00054838
0.000590945
0.000572623
0.000611647
0.000574015
0.000613297
0.000575672
0.000529575
0.000444664
0.000458793
0.000740128
0.000748012
0.00120875
0.00138294
0.00156823
0.00157638
0.00175953
0.00185294
0.00156898
0.00162893
0.00186704
0.00173899
0.00155031
0.0015563
0.00140005
0.00140126
0.00124113
0.000775539
0.000764979
0.000480432
0.000466558
0.00055633
0.00054657
0.000607873
0.000650526
0.000650714
0.000648594
0.000632112
0.000626231
0.000550671
0.000539885
0.000540594
0.000524224
0.000520754
0.000543051
0.000592695
0.000695655
0.000841464
0.000916297
0.000948347
0.000909606
0.000814499
0.000600989
0.000543186
0.000941339
0.000977195
0.00174813
0.00413946
0.00192562
0.00368895
0.00266329
0.000662781
0.000739471
0.000943008
0.00105671
0.00114094
0.00118908
0.00108665
0.000906569
0.000682689
0.000563788
0.000842256
0.000728307
0.000822678
0.000718578
0.000929937
0.00107528
0.00104025
0.00104811
0.000885793
0.000721615
0.000764224
0.000686153
0.000756343
0.000633144
0.000761798
0.000687771
0.000864292
0.000872386
0.000854217
0.000809673
0.000616485
0.0006468
0.00054255
0.000588527
0.000528377
0.000546063
0.000517449
0.00060339
0.000695281
0.000667254
0.000664617
0.000546054
0.00042785
0.000472542
0.000408548
0.000462396
0.000359327
0.000435307
0.000365053
0.000472579
0.000487189
0.000489829
0.000486743
0.000396045
0.000465537
0.000570452
0.000598928
0.000603822
0.000575237
0.000443367
0.000686164
0.000619436
0.000756387
0.000654329
0.000716193
0.000652232
0.000760241
0.000973666
0.00101656
0.00102335
0.000830243
0.000825013
0.00150455
0.0834025
0.0013534
0.00159961
0.00164941
0.0016434
0.00135869
0.00132564
0.00164167
0.00121456
0.00171985
0.00108284
0.0018341
0.000699329
0.00106311
0.00114139