/*--------------------------------*- C++ -*----------------------------------*\
| =========                 |                                                 |
| \\      /  F ield         | OpenFOAM: The Open Source CFD Toolbox           |
|  \\    /   O peration     | Version:  v2012                                 |
|   \\  /    A nd           | Website:  www.openfoam.com                      |
|    \\/     M anipulation  |                                                 |
\*---------------------------------------------------------------------------*/
FoamFile
{
    version     2.0;
    format      ascii;
    class       volScalarField;
    location    "830";
    object      nut;
}
// * * * * * * * * * * * * * * * * * * * * * * * * * * * * * * * * * * * * * //

dimensions      [0 2 -1 0 0 0 0];


internalField   nonuniform List<scalar> 
18258
(
0.0041993
0.0018273
0.00149848
0.00129892
0.000858715
0.00140571
0.001952
0.0023232
0.00243699
0.00241537
0.00250008
0.00421795
0.00591852
0.00731298
0.00768083
0.00766779
0.00695829
0.00664423
0.00721444
0.00887236
0.00746316
0.00478152
0.00572737
0.00662024
0.00720546
0.00638315
0.00516027
0.00477956
0.00432835
0.00360815
0.00302518
0.00206292
0.00151911
0.00140829
0.00127617
0.00145458
0.00158411
0.00168901
0.00172683
0.00175393
0.00174186
0.00173177
0.00168484
0.00165594
0.00160687
0.00132942
0.00160789
0.00164572
0.00180169
0.00248899
0.00267381
0.00224911
0.00248927
0.00222132
0.00146483
0.00167693
0.00182047
0.00185975
0.00183589
0.00175974
0.00173409
0.00171238
0.00168485
0.00165216
0.00163225
0.00164865
0.00166576
0.00164766
0.00156671
0.00150106
0.00139484
0.00128833
0.00120934
0.00114812
0.00110196
0.00105084
0.00099339
0.000872567
0.000808663
0.00107071
0.00134409
0.00143597
0.0020351
0.00248103
0.00249755
0.00186943
0.00133227
0.00138261
0.00153721
0.00155293
0.00131642
0.00156528
0.00177329
0.00183801
0.00191542
0.00214064
0.00243607
0.00237468
0.00211476
0.00194799
0.00192194
0.00219816
0.00208709
0.00270623
0.00272844
0.00238411
0.00218569
0.00246022
0.0031723
0.00341399
0.00265571
0.00249395
0.00244471
0.00241403
0.00218315
0.00225906
0.00205129
0.00184833
0.00201334
0.0024336
0.00230849
0.00252176
0.00261273
0.00245103
0.00283992
0.00327493
0.0032276
0.00258298
0.00210557
0.00196275
0.00197777
0.00120962
0.00130623
0.00140777
0.00144224
0.0014663
0.00148679
0.0015854
0.00158183
0.00155868
0.00155525
0.00158307
0.000872271
0.000944946
0.000968392
0.000975164
0.00092624
0.000916734
0.000899672
0.00088578
0.000835111
0.000799056
0.000956169
0.00107372
0.00116954
0.0012815
0.00144867
0.00165317
0.00186802
0.00208507
0.00222864
0.00226956
0.00231085
0.00222729
0.00214306
0.00221954
0.00223246
0.00221811
0.0021884
0.00215084
0.00210008
0.00200696
0.00211489
0.00210913
0.00198148
0.00169801
0.00173612
0.00173308
0.00177818
0.00176897
0.00178676
0.0017614
0.00173168
0.0016484
0.00153226
0.00127596
0.00124524
0.00126101
0.00161934
0.00196594
0.00303678
0.00370409
0.00430017
0.00460118
0.00492409
0.0039843
0.00443446
0.00341847
0.00306906
0.00390063
0.00510376
0.00291176
0.00159013
0.00301488
0.0026747
0.00194017
0.00172665
0.00177892
0.00178045
0.00204288
0.00235516
0.00261424
0.00274021
0.00285147
0.00294039
0.00303827
0.00316216
0.00319599
0.00308741
0.00261298
0.00314882
0.0025574
0.00298608
0.00269807
0.00182194
0.0019166
0.00203759
0.00186668
0.00181634
0.00173932
0.00156652
0.00193064
0.0025073
0.00291055
0.00332751
0.00443536
0.00410334
0.00393709
0.00304845
0.00294792
0.00153083
0.00218445
0.00226018
0.00254296
0.0016903
0.00154219
0.0014632
0.00193511
0.00224185
0.00264659
0.00293622
0.00348783
0.00270439
0.00308705
0.00279269
0.00194614
0.00187287
0.00268224
0.00288966
0.00237719
0.00212447
0.0026657
0.00252282
0.00178972
0.00143189
0.00219984
0.00227772
0.00163449
0.00407846
0.00434354
0.00414923
0.00505569
0.0063287
0.00721005
0.00671791
0.00595551
0.00664777
0.00527913
0.00511808
0.00546257
0.00458198
0.00319811
0.00327891
0.00339043
0.003481
0.00373641
0.00396868
0.00425288
0.00452495
0.00411468
0.00341853
0.00258822
0.00178135
0.0017576
0.00174894
0.00157039
0.00232714
0.00351993
0.00349511
0.0019857
0.00115784
0.00130996
0.00147926
0.00146478
0.00106277
0.000800028
0.0013782
0.0015756
0.00160091
0.00156105
0.00147379
0.00154
0.0024731
0.00380995
0.00418618
0.00433563
0.00447703
0.00457688
0.00463239
0.00464992
0.00465964
0.00467161
0.00468219
0.00469835
0.00468392
0.00458432
0.00403246
0.00253555
0.00148238
0.00137723
0.00152004
0.00163367
0.00173295
0.00147475
0.000901582
0.00144003
0.0018439
0.00211895
0.00213688
0.0019941
0.00193424
0.00304983
0.00405495
0.0047794
0.00492586
0.00499083
0.00493562
0.00492802
0.0048199
0.00478573
0.00419596
0.00300464
0.0032852
0.00352755
0.00356848
0.00365134
0.00377574
0.00368845
0.00348432
0.00509226
0.00587561
0.0059511
0.006078
0.00600612
0.00590221
0.00563373
0.00532706
0.0044845
0.0033629
0.00212173
0.00216593
0.0023057
0.00228351
0.00198782
0.00209447
0.00227317
0.00229591
0.00237092
0.00265894
0.0030199
0.00288034
0.00247816
0.00210501
0.00196002
0.00191915
0.00184151
0.00137959
0.00140001
0.00136066
0.00138296
0.00185739
0.00221074
0.00254953
0.00361681
0.00322636
0.00262393
0.00416148
0.00426384
0.00458103
0.00506017
0.00518565
0.00574601
0.0039995
0.00360419
0.00370273
0.00302486
0.00279984
0.00282976
0.00284045
0.00264721
0.00289757
0.00287208
0.00276832
0.00305642
0.00336801
0.00444132
0.00538196
0.00567887
0.00585052
0.00592068
0.00589812
0.00578244
0.00581789
0.00510915
0.00510272
0.00488708
0.00474636
0.00469614
0.00446239
0.0051093
0.00530467
0.00536995
0.00550415
0.00571321
0.00555928
0.00538604
0.00525433
0.00515887
0.00505897
0.00511324
0.00520862
0.00531035
0.00545323
0.00564428
0.00567655
0.00547856
0.00532897
0.0052266
0.00513046
0.00513475
0.00522055
0.0053206
0.00546243
0.00564354
0.00554353
0.00540272
0.0052773
0.00517441
0.00508383
0.00490623
0.00502507
0.00515579
0.00526364
0.00533375
0.00460829
0.00492545
0.00484031
0.00438189
0.00410089
0.00311431
0.00337047
0.00355439
0.00387145
0.00429764
0.00438159
0.0036771
0.00315116
0.00307071
0.00304592
0.00311769
0.00314351
0.0031587
0.00356915
0.00537956
0.00541561
0.00543053
0.00543249
0.00464465
0.00451318
0.00420496
0.00768969
0.00715857
0.0062022
0.00511082
0.00273907
0.00234804
0.0027814
0.00338216
0.00378129
0.00417208
0.00277025
0.0017157
0.00199948
0.0020728
0.00202157
0.00186847
0.00155696
0.00143722
0.0013043
0.00140358
0.00248583
0.00396723
0.00446875
0.0045162
0.00447134
0.00438416
0.00427804
0.00413035
0.00408299
0.00515776
0.00699271
0.00786615
0.00783167
0.00672832
0.00549005
0.00309941
0.00160138
0.00118619
0.00126422
0.0013895
0.00162965
0.00145047
0.00123312
0.00135029
0.00127475
0.00257836
0.004443
0.00564383
0.00670521
0.00660545
0.0057503
0.00468757
0.00443397
0.00453722
0.00460769
0.00466742
0.00472867
0.00477069
0.00474413
0.00431806
0.00266754
0.00159246
0.00141482
0.00152113
0.00178285
0.00189459
0.00191423
0.00188784
0.00163672
0.00270733
0.00429791
0.00273375
0.00149153
0.0016114
0.00159947
0.00282121
0.00281698
0.00275659
0.0042884
0.00453459
0.0045237
0.00425093
0.00405786
0.00240284
0.00272774
0.00273704
0.00275141
0.00279635
0.00141304
0.0015404
0.00158858
0.00171067
0.00149474
0.00189741
0.000491025
0.000681085
0.000791077
0.000860423
0.00092708
0.000909409
0.00174055
0.00176652
0.00168553
0.00164098
0.00208212
0.00223416
0.00228319
0.00210264
0.00194002
0.00206513
0.00206988
0.00195093
0.00184785
0.00191565
0.00191688
0.00183703
0.00156249
0.00146411
0.00160726
0.00159007
0.00157752
0.00283195
0.00282683
0.00267551
0.0043948
0.0043246
0.00484317
0.00481171
0.00480581
0.00478606
0.00483732
0.0048643
0.00488471
0.00490854
0.00489917
0.00485201
0.00674591
0.00477316
0.00416539
0.0024094
0.00232111
0.00163949
0.00143691
0.00169202
0.0018097
0.00196201
0.00191772
0.00202142
0.00201898
0.00214234
0.00198827
0.0017653
0.00270355
0.00288803
0.00282053
0.00287616
0.0028084
0.00279174
0.00277135
0.00273219
0.00268494
0.00159896
0.00156863
0.00183693
0.0019283
0.00207202
0.00209064
0.00213607
0.00202562
0.0017813
0.0017242
0.00198592
0.00195905
0.00199739
0.00188311
0.00187509
0.00167027
0.00171263
0.00345255
0.00637023
0.00328077
0.00364419
0.00330218
0.0037555
0.00328984
0.0028375
0.00290423
0.00255816
0.00266857
0.00279909
0.00284976
0.00299519
0.00353068
0.0033992
0.00298374
0.0028971
0.00284005
0.00267796
0.00241048
0.00252489
0.0025475
0.00260218
0.00289212
0.00331752
0.00371828
0.00451818
0.0043844
0.00384104
0.00351191
0.00368268
0.00374704
0.00471646
0.00440598
0.00437999
0.0046208
0.00457524
0.00434188
0.00411384
0.00397077
0.00340943
0.00346529
0.00396499
0.00383701
0.00395438
0.0038851
0.00403953
0.00411276
0.00394701
0.00366829
0.00385792
0.00385049
0.00427533
0.00415735
0.00385703
0.00352715
0.00377212
0.00372735
0.00430464
0.00405119
0.00378892
0.00348884
0.00334273
0.0037934
0.00372349
0.00422121
0.0043444
0.00434645
0.00378993
0.00370117
0.00440065
0.0042332
0.00409047
0.00426077
0.00352931
0.00362883
0.00446974
0.00456309
0.00433002
0.0036161
0.00367023
0.00314645
0.00370042
0.00460542
0.00434995
0.0035657
0.00295961
0.00413951
0.00435451
0.00460576
0.00435304
0.00473982
0.00510531
0.00416252
0.00452804
0.00591508
0.00451818
0.00524238
0.00535796
0.00538893
0.00539106
0.00541117
0.00543729
0.00572699
0.00556789
0.00354388
0.00423621
0.00411674
0.00344593
0.0029338
0.00323035
0.00347905
0.00352944
0.00361913
0.00375695
0.00369198
0.00356769
0.00522307
0.00595888
0.00608944
0.0062102
0.00610781
0.0059552
0.00560655
0.0051843
0.00431474
0.00322005
0.00201267
0.00205271
0.00218855
0.00216903
0.00188285
0.00141983
0.000933159
0.00138304
0.00142949
0.00134678
0.00122885
0.00108754
0.00112958
0.00204916
0.00369216
0.00536691
0.00598945
0.00649403
0.00700569
0.00745694
0.00779548
0.00804731
0.0082245
0.00833804
0.00836442
0.00821295
0.00749052
0.00715684
0.00674112
0.00639783
0.00592111
0.00554903
0.0062759
0.00689309
0.0072712
0.00769576
0.00789004
0.00780388
0.0067717
0.00657178
0.00757506
0.00933405
0.00793692
0.00997384
0.0117188
0.00912435
0.00819428
0.00818211
0.00915461
0.00933506
0.00900993
0.00849892
0.00791053
0.00716189
0.00754541
0.00789258
0.00822637
0.00853441
0.00932379
0.0094548
0.0093776
0.00921764
0.00901256
0.0087422
0.00833473
0.00776493
0.00706341
0.00634369
0.00551399
0.00375867
0.00191867
0.0021617
0.00213396
0.00214972
0.00216126
0.00103582
0.00114296
0.00115584
0.00116128
0.00109303
0.00124402
0.00179881
0.00289356
0.00208097
0.00171765
0.00118932
0.00139208
0.0023197
0.00392229
0.00442407
0.00451811
0.00478529
0.00631622
0.00690729
0.00729665
0.00761611
0.00780916
0.00771968
0.00748541
0.00706526
0.00653342
0.00631571
0.00595671
0.00563564
0.00545407
0.00527292
0.00494158
0.00386674
0.00373956
0.00389386
0.00384437
0.00367974
0.00393206
0.00407377
0.00406988
0.00411462
0.00415365
0.00427577
0.00441956
0.00454463
0.00461004
0.00463404
0.00464136
0.00465057
0.00465786
0.00467192
0.00465599
0.00455402
0.00399893
0.00250122
0.00146045
0.00135031
0.00148054
0.00156567
0.00160212
0.00142297
0.00091604
0.00142344
0.00184252
0.00188955
0.0020731
0.00213851
0.00226628
0.00252336
0.00291563
0.00300854
0.00267005
0.00252927
0.00247602
0.00241332
0.00206887
0.00257813
0.00283854
0.00283239
0.00280474
0.00303104
0.00372937
0.00358307
0.00316012
0.00312585
0.00309496
0.00280377
0.00276145
0.00301164
0.00304433
0.0031569
0.00370105
0.00443742
0.00411733
0.00375072
0.00359733
0.00332284
0.00292893
0.00264848
0.0032483
0.00266102
0.00141578
0.00120936
0.00119777
0.00120454
0.001165
0.00137999
0.00145065
0.00146816
0.00136184
0.00151085
0.00168103
0.00162532
0.00184304
0.00181908
0.00162934
0.0016158
0.00174249
0.00183447
0.00188244
0.00193967
0.0031701
0.00327568
0.00253311
0.00365659
0.00421543
0.00417295
0.00442433
0.00364558
0.00326844
0.00387786
0.00447724
0.0051292
0.00405927
0.0038398
0.00392683
0.00180922
0.000951992
0.00134289
0.00166717
0.00185826
0.00180262
0.0017027
0.00143946
0.00254865
0.0026185
0.00414467
0.00464927
0.00470783
0.00467877
0.00481921
0.00531721
0.00619012
0.00683652
0.00702559
0.00692401
0.00663282
0.0060913
0.00554922
0.00549927
0.00529638
0.00514458
0.00509243
0.00441597
0.00391782
0.00419045
0.00411891
0.00425715
0.00432114
0.00436729
0.00441425
0.0044931
0.00458826
0.00467449
0.00473294
0.00477156
0.00480408
0.00483754
0.00487132
0.00490798
0.00492741
0.00488007
0.00441011
0.00264668
0.00157877
0.00144046
0.00153703
0.0018064
0.00190191
0.0020442
0.00181573
0.000956369
0.00112461
0.00195426
0.00216579
0.00200357
0.00187521
0.00184179
0.00154293
0.00279294
0.00275625
0.00432353
0.0048624
0.00493049
0.00491707
0.0048793
0.00483682
0.00479722
0.00476485
0.00473927
0.0047119
0.00467223
0.00462363
0.00457797
0.00453185
0.00445239
0.00433874
0.00422113
0.00438766
0.00452828
0.00470911
0.00491869
0.00503448
0.00494844
0.00480736
0.00473502
0.00475613
0.00479536
0.00483696
0.00487449
0.00489236
0.00483852
0.00456072
0.00428074
0.002713
0.00274803
0.00135397
0.00150407
0.00173544
0.00179237
0.00194667
0.00193799
0.00152437
0.00118777
0.00133979
0.00125169
0.0022351
0.00245756
0.00272454
0.00269742
0.00146634
0.00150391
0.00156309
0.00176359
0.00164027
0.00158458
0.00389331
0.00373526
0.0039121
0.00479806
0.00413479
0.00285742
0.00313096
0.00435587
0.00459258
0.00277788
0.00208426
0.00231076
0.00292718
0.00430858
0.0043612
0.00414202
0.00412013
0.00301023
0.00370091
0.00445082
0.00432857
0.00337828
0.00232804
0.00173279
0.000844292
0.00160609
0.0013734
0.00336116
0.00371897
0.00367421
0.00401717
0.00426918
0.00431301
0.0041898
0.00371818
0.00379187
0.00382902
0.00436111
0.00437928
0.00371031
0.00313126
0.00254544
0.00256775
0.00261693
0.00289929
0.0036299
0.00342034
0.00299829
0.00290788
0.00284567
0.00267719
0.00241627
0.00212008
0.00213447
0.00198646
0.00192226
0.0030298
0.00403255
0.00475481
0.00489149
0.00494116
0.00486569
0.0048318
0.00469428
0.0046235
0.00401724
0.00512948
0.00542102
0.00523013
0.00526789
0.00529995
0.00533958
0.00533963
0.00523889
0.00450318
0.00268986
0.00175724
0.00198361
0.00214127
0.00201097
0.00199937
0.00213072
0.00202154
0.00177554
0.00287643
0.00281122
0.00449409
0.00508813
0.00519755
0.00520467
0.00518431
0.00516756
0.00517459
0.0054469
0.00532135
0.00538709
0.00566978
0.00568202
0.00575198
0.005401
0.00533285
0.00528954
0.00526074
0.00521345
0.00508606
0.00450147
0.00436372
0.00495482
0.00510692
0.00517423
0.00522093
0.00527696
0.00535083
0.00556353
0.00572104
0.00577841
0.0055462
0.00546424
0.00533843
0.00515784
0.00511516
0.00510614
0.0051019
0.00507675
0.0049447
0.00435337
0.00279957
0.00286871
0.00170679
0.00171806
0.00197901
0.0020789
0.00204204
0.00189117
0.00184396
0.00316714
0.00360463
0.0038361
0.00413001
0.00394417
0.00392177
0.00448313
0.00433867
0.00387016
0.00402611
0.00361031
0.00344159
0.00332403
0.00334136
0.0017628
0.00190199
0.00198366
0.00195046
0.00186506
0.00166332
0.0015253
0.00278313
0.00276283
0.00272663
0.00162202
0.00158663
0.00186933
0.00181561
0.0016611
0.00141591
0.00155202
0.00239528
0.00267867
0.00415299
0.00430114
0.00460437
0.0049239
0.00504523
0.00507821
0.00509784
0.00512048
0.00516841
0.00522542
0.00524093
0.00523877
0.00528467
0.00527737
0.00527745
0.00524785
0.00521459
0.00517641
0.00513609
0.00507042
0.00493555
0.00461241
0.00429541
0.00484282
0.00488726
0.00497834
0.00507292
0.00511389
0.00512157
0.00510503
0.00507049
0.00502965
0.00498104
0.00497983
0.00511448
0.00514509
0.00516868
0.00515278
0.00513575
0.00513056
0.00510917
0.00507337
0.00497959
0.00488542
0.00484501
0.00476433
0.00489201
0.00494839
0.00495709
0.00500512
0.00508197
0.00510223
0.00509932
0.00506055
0.00502862
0.00498927
0.00492564
0.00484494
0.0045668
0.00462433
0.00470018
0.00479877
0.00489419
0.00497125
0.00501405
0.00501564
0.0049685
0.00493705
0.00493808
0.0048966
0.00491846
0.00494095
0.00491656
0.00491491
0.00492065
0.00486763
0.00476845
0.0046296
0.00448208
0.00435853
0.00429258
0.00418716
0.00451838
0.00464166
0.0047528
0.00485213
0.00494313
0.00503581
0.00506692
0.00505953
0.00500311
0.00497094
0.00496931
0.00492139
0.00491957
0.00496598
0.00496818
0.00499514
0.00504454
0.00502762
0.00495745
0.00478424
0.00461678
0.00447248
0.00433571
0.00418963
0.00413622
0.00420402
0.00415453
0.00421931
0.00436839
0.00455244
0.00471021
0.0048086
0.00483821
0.00486642
0.00490943
0.00490399
0.0048779
0.00486452
0.00480637
0.00475632
0.00469451
0.00455643
0.00437782
0.00421792
0.00416236
0.00424345
0.00432818
0.00424948
0.00395687
0.00411277
0.00425725
0.00440229
0.00461003
0.00485127
0.00496022
0.00499903
0.0049759
0.00495757
0.00495498
0.00491103
0.0048962
0.00493661
0.0049397
0.00495817
0.00498907
0.00495369
0.00486247
0.00456564
0.00421729
0.00405238
0.00395669
0.00382059
0.00427025
0.00435965
0.0042517
0.00417959
0.00429391
0.00442898
0.0045691
0.00466171
0.00469746
0.00474701
0.00481241
0.0048432
0.00479589
0.00474185
0.00467469
0.00463985
0.00463769
0.00461144
0.00451972
0.00441464
0.00429746
0.00444285
0.00452778
0.00444593
0.00402818
0.00409505
0.00418635
0.00423584
0.00456218
0.00485528
0.00493005
0.00493889
0.00491029
0.00489195
0.00489328
0.00486799
0.00482075
0.00481147
0.00480562
0.00485963
0.00493029
0.00496202
0.00497543
0.00475448
0.00436639
0.00431289
0.00414338
0.00405944
0.00450523
0.00455851
0.00445521
0.00435793
0.0045644
0.00465365
0.00468073
0.00466476
0.00461799
0.00458638
0.00464439
0.00473559
0.00466546
0.0043642
0.00409552
0.00423329
0.00426573
0.00425316
0.0041941
0.00409767
0.0038915
0.00434417
0.0047854
0.0048217
0.00435101
0.00435809
0.00421017
0.00390755
0.00428322
0.00448964
0.0045389
0.00452865
0.00446429
0.00429795
0.00454225
0.00475645
0.00471636
0.00426817
0.00277007
0.00280887
0.00283024
0.00283388
0.00279673
0.00278663
0.00274617
0.0027255
0.0026625
0.00259876
0.00253733
0.00270678
0.00285189
0.00304664
0.0030627
0.00314318
0.00300979
0.00285037
0.00266246
0.00207099
0.00262822
0.00313593
0.00333197
0.00358397
0.00363683
0.00419613
0.00441562
0.00453657
0.00445237
0.00357094
0.00302944
0.00242085
0.00157424
0.000980866
0.00115164
0.0011981
0.00126326
0.00154993
0.00282566
0.00144484
0.00199726
0.00156212
0.00268015
0.00143717
0.000896706
0.000594967
0.000760859
0.00090522
0.00091472
0.000875045
0.000728549
0.000570963
0.000583534
0.000543048
0.000576762
0.000517873
0.000593013
0.000552961
0.000767588
0.00114274
0.00131105
0.00134127
0.00108461
0.00122434
0.00102301
0.00118055
0.00105468
0.0011497
0.0011031
0.00134895
0.00147835
0.00141513
0.00141876
0.00124153
0.000868437
0.00100673
0.000791087
0.000950016
0.000727121
0.000939045
0.000805278
0.00104646
0.00107878
0.0010757
0.00103573
0.000791255
0.00093802
0.000738695
0.000910135
0.000747867
0.000801014
0.000667465
0.000970545
0.00098903
0.000910413
0.000972558
0.00109418
0.00117368
0.00128928
0.00121519
0.00137982
0.001328
0.00134077
0.00126985
0.00123503
0.00120692
0.00120947
0.00118952
0.00119586
0.00123415
0.00123568
0.00124024
0.00127889
0.00125995
0.00122907
0.00121033
0.0010755
0.000868229
0.00151258
0.00155975
0.00158332
0.00158326
0.00154825
0.00153041
0.0014767
0.00146253
0.00141627
0.00138966
0.00132775
0.00127752
0.00121976
0.00137056
0.000767209
0.000871005
0.000919353
0.000946781
0.000965547
0.000974258
0.000981007
0.000975372
0.000963076
0.000939574
0.000931874
0.000906171
0.00115895
0.0013181
0.00137846
0.00139499
0.0013078
0.00124579
0.00272793
0.00330177
0.00501502
0.00512493
0.00385017
0.00383771
0.00132723
0.00140209
0.000958346
0.00134683
0.00138893
0.00137487
0.00129878
0.000936779
0.0014062
0.000980357
0.00132059
0.000993856
0.00122836
0.00102321
0.00146297
0.00186756
0.00180503
0.00163558
0.00112675
0.000938468
0.0009442
0.000805142
0.000881921
0.000718163
0.000875261
0.000734123
0.00107924
0.00152161
0.00169394
0.00172808
0.00136265
0.00188083
0.00141422
0.0020487
0.0016279
0.00200877
0.00161229
0.00186466
0.00230736
0.00231797
0.0022631
0.00182417
0.00146147
0.00164072
0.00145346
0.00167445
0.0024197
0.00158586
0.00240884
0.000995087
0.00135673
0.00139867
0.00137967
0.00130098
0.000876432
0.00223047
0.0011801
0.00209819
0.00135889
0.00217726
0.00158597
0.00210992
0.00252522
0.002645
0.00263805
0.0021523
0.00194495
0.00201875
0.00161252
0.00193605
0.00143636
0.00208107
0.00117323
0.00152045
0.00167753
0.00176698
0.00177314
0.00145598
0.00287697
0.00180702
0.00272768
0.00189772
0.00243153
0.00194906
0.00213072
0.00251655
0.00250063
0.00247937
0.00210236
0.00170194
0.00224707
0.00160235
0.0479319
0.110565
0.0440599
0.111716
0.0505586
0.0717545
0.070678
0.0707967
0.0710422
0.0533196
0.116369
0.137531
0.143457
0.145241
0.144195
0.233027
0.190064
0.285562
0.185152
0.10902
0.047329
0.0652242
0.168195
0.277627
0.416496
0.528365
0.360043
0.372609
0.237759
0.234365
0.220597
0.178409
0.109333
0.0548284
0.00941356
0.0103119
0.0147428
0.0196247
0.0154483
0.00945446
0.00186884
0.00192814
0.00197122
0.00199808
0.00199123
0.00194948
0.00198166
0.00187333
0.00176267
0.00196989
0.00214671
0.00231759
0.00272326
0.00300807
0.00271019
0.00297113
0.00314936
0.0032941
0.00341315
0.00359068
0.00379087
0.00396763
0.00397765
0.00364544
0.00310727
0.0025289
0.00212721
0.00201583
0.00189326
0.00166965
0.0015277
0.00143137
0.00138423
0.00136451
0.00140196
0.00153183
0.00164409
0.00168336
0.00164985
0.00161945
0.00159293
0.00141831
0.00165815
0.00227446
0.00229284
0.0039281
0.00452611
0.00461999
0.00462618
0.00410231
0.00262096
0.00262655
0.00263998
0.00269005
0.00270048
0.00270685
0.00270386
0.00269366
0.00267783
0.00264814
0.00263352
0.00259094
0.00255531
0.00246694
0.00247093
0.00250325
0.00252839
0.00248766
0.00249843
0.00244519
0.00315183
0.00422573
0.00478878
0.00500602
0.00519294
0.00504105
0.00697669
0.00595474
0.00418906
0.00413659
0.00408398
0.00484231
0.00487542
0.00440429
0.00442152
0.0040243
0.0025095
0.0024973
0.00249876
0.00267076
0.0027224
0.00281721
0.00284294
0.00286772
0.00288166
0.0028796
0.00287858
0.0028558
0.0028374
0.00277481
0.00275383
0.00274517
0.00151348
0.00165155
0.00171249
0.00172318
0.00174652
0.00173541
0.00172394
0.00170298
0.00168843
0.00166004
0.00162635
0.00157853
0.00148446
0.00135302
0.00148981
0.00253106
0.00253147
0.00413472
0.00467069
0.00470435
0.00523386
0.00497012
0.00470809
0.00505369
0.00455934
0.00452415
0.00408575
0.00253481
0.00256903
0.0015233
0.00150868
0.00176286
0.00171305
0.00183067
0.00188031
0.00188675
0.00191295
0.00193874
0.00196997
0.00202004
0.00203559
0.00200591
0.00200096
0.00188569
0.00162972
0.00164951
0.00194446
0.00203865
0.00189165
0.00185666
0.00184158
0.00179645
0.00176197
0.00172855
0.00175101
0.00188502
0.00188352
0.00185116
0.00176202
0.00171726
0.00149026
0.0014408
0.00251718
0.00254371
0.00419321
0.00431779
0.00428892
0.00493281
0.0054967
0.00625785
0.00533727
0.00433757
0.00450613
0.0051479
0.00382198
0.00316933
0.00188788
0.00142929
0.00175202
0.00166202
0.00173103
0.00179359
0.0015928
0.0017097
0.00158061
0.00143613
0.00142824
0.00142639
0.00146209
0.00147691
0.00150387
0.00150746
0.00154389
0.00154048
0.00154557
0.00156458
0.00157437
0.00173964
0.00189249
0.00159202
0.00134936
0.00131325
0.00123993
0.00117999
0.00120863
0.0011797
0.00117253
0.00115094
0.00113146
0.0010795
0.00112507
0.00119372
0.00139645
0.0013376
0.0010812
0.000966089
0.00066054
0.000673127
0.000677788
0.000698786
0.000706391
0.000715774
0.000719229
0.000730991
0.00073325
0.000736944
0.000736644
0.000754503
0.00075192
0.000743349
0.000737743
0.000741519
0.000745114
0.00074466
0.00109033
0.00121435
0.00132794
0.00157778
0.00185808
0.001599
0.00135457
0.00116653
0.000749816
0.000761203
0.000775244
0.000782431
0.000799264
0.00081451
0.000831658
0.000842495
0.000850746
0.000859343
0.00086839
0.000872162
0.000870174
0.000853577
0.000843779
0.000865348
0.000951004
0.00100075
0.00106446
0.00108853
0.00110931
0.00111976
0.00111424
0.00112573
0.00111233
0.00111038
0.00109119
0.0010829
0.00107498
0.00106501
0.0010528
0.00102272
0.00101273
0.00106554
0.00180428
0.00236066
0.00272193
0.00300046
0.00276824
0.00223949
0.00236133
0.00414576
0.00391996
0.00231941
0.00216259
0.00199295
0.00173865
0.00152595
0.00184242
0.00210262
0.00230038
0.00247468
0.00263393
0.00274186
0.00288001
0.00306015
0.00337929
0.00341966
0.00311956
0.00252916
0.0021427
0.0020027
0.00193539
0.00181719
0.00168806
0.00173024
0.00174261
0.00169063
0.00162604
0.00160747
0.00163386
0.001667
0.00164688
0.00164611
0.00147043
0.00146995
0.00251147
0.00256007
0.00393768
0.00414849
0.00418813
0.00269328
0.00265611
0.0015516
0.00144081
0.00157174
0.00163143
0.00163471
0.00164117
0.00163247
0.00160379
0.00158272
0.00155828
0.0015385
0.00152121
0.00149136
0.00143471
0.00132512
0.00144447
0.00162001
0.00169111
0.00170926
0.00171783
0.00174489
0.0017893
0.00182506
0.00190768
0.00191663
0.00191596
0.00192283
0.00179758
0.00185407
0.00156928
0.00156723
0.00271592
0.00270892
0.00155642
0.00183783
0.00185
0.00182832
0.00196805
0.00180104
0.00174387
0.00173403
0.00166061
0.00162149
0.00156953
0.00153858
0.00156911
0.00166971
0.00161752
0.00143314
0.00138309
0.0015508
0.0014907
0.00123672
0.00105651
0.00102724
0.000983202
0.000956496
0.00100244
0.0010382
0.00105861
0.00108456
0.00109228
0.00114
0.00110936
0.00116447
0.00123487
0.00129085
0.00153131
0.0016593
0.00149905
0.00147028
0.00145202
0.00145003
0.00145448
0.0013946
0.00139062
0.00135966
0.00134443
0.00130406
0.00128584
0.00126269
0.00126698
0.00128055
0.0014079
0.00362918
0.00462463
0.00481615
0.00821701
0.00332236
0.00339403
0.00664553
0.00275323
0.00413715
0.00443422
0.00463661
0.00484158
0.00443001
0.00561707
0.00392733
0.00437077
0.00456522
0.00401812
0.00149057
0.00166884
0.00194048
0.0017471
0.00154393
0.00105299
0.0011365
0.00117422
0.00120472
0.00122466
0.00124657
0.00127011
0.00129216
0.00130767
0.001308
0.00126843
0.00122568
0.00112745
0.0010947
0.00113713
0.00118098
0.00103756
0.000976987
0.000988624
0.00100504
0.00101431
0.00101638
0.00102653
0.00102932
0.00104528
0.00103692
0.00104505
0.0010273
0.00103661
0.00102285
0.0009878
0.000938804
0.000855325
0.00083478
0.00120227
0.00128014
0.00134486
0.00152572
0.00176137
0.0018793
0.00168431
0.00155306
0.00149078
0.00165388
0.00165374
0.00299915
0.00575365
0.0025808
0.00289276
0.00840743
0.00334827
0.00260827
0.00264793
0.00267584
0.00267947
0.00155736
0.00184464
0.00178875
0.00179546
0.00152269
0.00127826
0.00114656
0.0010252
0.000695073
0.000692705
0.000697936
0.000708518
0.00071179
0.000681391
0.000681312
0.000677426
0.000675896
0.000661587
0.000657593
0.000645981
0.000638933
0.000622213
0.000613131
0.000597133
0.000594126
0.000616826
0.000683534
0.000825575
0.000922325
0.00104628
0.00106639
0.00120735
0.00300463
0.00348196
0.00479511
0.00475164
0.00749608
0.00468246
0.00353763
0.00320089
0.00468215
0.00483638
0.00449758
0.00609377
0.0042174
0.00278768
0.00412613
0.00341848
0.00413046
0.00402627
0.00426218
0.00676643
0.00714285
0.00201665
0.00179824
0.00189236
0.00214657
0.00254831
0.00234421
0.0026716
0.00266455
0.00205184
0.00131626
0.00419321
0.00505759
0.00403491
0.00482602
0.00749838
0.00301963
0.00294545
0.0026064
0.00217553
0.00197748
0.00195068
0.0021748
0.00260241
0.00652444
0.00697643
0.00638281
0.00634231
0.00576277
0.00637706
0.00796556
0.00794386
0.00701326
0.00656186
0.00677961
0.00416391
0.00262563
0.00305857
0.00338524
0.00451582
0.00465615
0.00983749
0.00333429
0.00368592
0.00374247
0.00500895
0.00484505
0.00857596
0.00362719
0.00391404
0.00515646
0.00688403
0.0127087
0.00462941
0.00488292
0.0070246
0.00712861
0.00651633
0.00470789
0.0042689
0.00465484
0.00350624
0.00342726
0.00292807
0.00432453
0.00582424
0.00459825
0.00446531
0.00380263
0.00337361
0.00346615
0.00359386
0.00298445
0.00294427
0.003402
0.0025158
0.00243007
0.00258587
0.000716168
0.000367158
0.00037543
0.000385165
0.000393067
0.000401181
0.00040715
0.000414183
0.000417409
0.000417718
0.000418762
0.000442832
0.00043883
0.000424962
0.000385894
0.000440403
0.000698871
0.00069939
0.000439956
0.000387888
0.000695873
0.00110886
0.00130722
0.00154672
0.00156606
0.00135106
0.00117135
0.000720899
0.000709611
0.000430183
0.000502386
0.00054559
0.000483871
0.000539953
0.000500413
0.000530104
0.0005354
0.000495374
0.000492664
0.0004946
0.000490793
0.000482112
0.000471449
0.000458438
0.000448094
0.000442213
0.000437355
0.00042714
0.000356079
0.000331416
0.00039711
0.000631648
0.000630603
0.000591684
0.000558982
0.00053127
0.000518946
0.000515716
0.000513066
0.000522029
0.000538945
0.000543692
0.000548406
0.000590867
0.000572749
0.000611801
0.000574076
0.000613385
0.000575799
0.000529666
0.000444744
0.00045886
0.000740129
0.00074799
0.00120869
0.00138295
0.00156842
0.00157664
0.00175987
0.00185311
0.00156906
0.00162893
0.00186705
0.00173924
0.00155062
0.00155657
0.00140032
0.00140141
0.0012411
0.000775518
0.000764959
0.000480492
0.000466629
0.000556431
0.000546656
0.000608008
0.000650644
0.000650893
0.000648774
0.000632031
0.000626121
0.000550701
0.000539964
0.000540672
0.000524239
0.000520571
0.00054217
0.000590334
0.000691536
0.000835938
0.000910641
0.000943396
0.000905893
0.00081166
0.00059734
0.000541042
0.000936313
0.000973674
0.00173053
0.00409705
0.00188881
0.00366652
0.00264727
0.000660688
0.000737812
0.000940974
0.00105452
0.0011383
0.00118538
0.00108216
0.000902123
0.000679438
0.000561294
0.000840603
0.000726969
0.000822051
0.00071814
0.000929269
0.00107457
0.00103963
0.00104755
0.000885395
0.000721414
0.000764007
0.00068612
0.000756348
0.000633155
0.000761841
0.000687834
0.0008644
0.000872521
0.000854374
0.000809848
0.000616639
0.000646981
0.000542698
0.000588667
0.00052849
0.000546195
0.000517608
0.000603564
0.000695483
0.000667449
0.000664811
0.000546208
0.000427967
0.000472641
0.000408534
0.00046237
0.000359306
0.000435316
0.00036511
0.000472607
0.00048708
0.000489376
0.00048566
0.000394549
0.000463786
0.000569452
0.000598472
0.000603621
0.00057525
0.000443297
0.000686132
0.000619672
0.0007567
0.000654764
0.000716497
0.000652545
0.000760579
0.000974013
0.00101681
0.00102356
0.000830356
0.000825171
0.00150456
0.0833891
0.00135341
0.00159965
0.00164944
0.00164341
0.00135879
0.00132583
0.00164171
0.00121481
0.00171998
0.00108286
0.00183392
0.000699319
0.00106311
0.00114138
0.00113891