/*--------------------------------*- C++ -*----------------------------------*\
| =========                 |                                                 |
| \\      /  F ield         | OpenFOAM: The Open Source CFD Toolbox           |
|  \\    /   O peration     | Version:  v2012                                 |
|   \\  /    A nd           | Website:  www.openfoam.com                      |
|    \\/     M anipulation  |                                                 |
\*---------------------------------------------------------------------------*/
FoamFile
{
    version     2.0;
    format      ascii;
    class       surfaceScalarField;
    location    "860";
    object      phi;
}
// * * * * * * * * * * * * * * * * * * * * * * * * * * * * * * * * * * * * * //

dimensions      [1 0 -1 0 0 0 0];
oriented        oriented;


internalField   nonuniform List<scalar> 
50655
(
0.00257203
-0.00359553
-0.00142002
-0.00512218
0.00141002
0.00356617
-0.0033847
0.0039369
0.00442568
-0.00249231
-0.00284294
0.00306964
-0.00369022
-0.00379277
0.00264395
-0.00175692
-0.00485876
0.000787314
0.000231591
-0.00472736
0.00156676
-0.00176874
-0.00716571
0.00235082
-0.0104438
0.00279014
0.000389222
-0.0112675
-0.00342516
0.00413883
-0.0120256
-0.00481942
0.00547513
-0.0128893
-0.00561878
0.00637833
-0.0261529
-0.00929679
0.0223665
-0.0486737
-0.0282149
0.0501754
-0.0482855
-0.052677
0.0515916
-0.0311185
-0.0711062
0.0531613
-0.00461307
-0.0780668
0.0507783
0.00781088
-0.0548299
0.0415945
-0.00179005
-0.0314707
0.0402988
-0.0212111
-0.02169
0.0403442
-0.017238
-0.0512935
0.0465981
-0.00732526
-0.055495
0.0450246
-0.0390583
0.0314039
-0.0417311
0.0187957
-0.0164242
-0.0163298
-0.0757143
0.0498183
0.0200036
-0.0797952
0.0429653
0.0305135
-0.0293538
0.0185369
0.0341663
-0.00399015
0.03663
0.017748
-0.0205342
0.025563
-0.0179601
0.0287513
0.0166811
-0.00950257
0.0182153
0.00387744
-0.00145279
0.0141295
-0.00625871
0.00690498
0.00313591
-0.00536641
0.000392836
-0.00132584
-0.0053513
-0.00113097
0.00109747
-0.00627586
0.000159838
0.000747446
-0.00753456
0.000153581
0.00108852
-0.00865503
4.02771e-05
0.00106306
-0.00904262
-0.000292819
0.00066405
-0.0093062
-0.000711964
0.00095895
-0.00887383
-0.00113966
0.000691016
-0.00825074
-0.00161184
0.000972082
-0.00702996
-0.00206202
0.000824806
-0.0056021
-0.00252952
0.0010848
-0.00373662
-0.00282701
0.000945359
-0.0019216
-0.00301427
0.00118229
0.00104338
-0.00298257
0.00076177
-0.00236813
0.0026241
-0.00593652
0.0049436
0.00171292
-0.0114208
0.00465554
0.000772232
-0.0133744
0.00508951
-0.00320293
-0.0131353
0.00533813
-0.00564419
-0.0055222
0.00463097
-0.0123005
0.000480672
0.00559058
-0.0116352
0.0005947
0.00356854
-0.00370821
-0.00150788
0.00208499
-0.0029606
0.00214038
-0.000704793
-0.00452262
0.00218751
-0.000641647
-0.00583618
0.00234597
-0.00104879
-0.00710229
0.00230315
-0.00105199
-0.00860371
0.00249572
-0.00100832
-0.0101699
0.00258213
-0.00102929
-0.0114655
0.00237447
-0.00109202
-0.012368
0.00201281
-0.00112333
-0.0128353
0.00159939
-0.00114518
-0.0131528
0.0014334
-0.00112912
-0.0137559
0.00156038
-0.000971482
-0.0139626
0.00111648
-0.000924881
-0.0136678
0.000890781
-0.001201
-0.0136575
0.000776885
-0.000802865
-0.013383
0.000821387
-0.00111192
-0.0131358
0.000896143
-0.00115932
-0.0129913
0.000839221
-0.000999524
-0.0127155
0.000569259
-0.000860617
-0.0121763
0.000120203
-0.000674851
-0.0112747
-0.000456246
-0.000460631
-0.0101533
-0.000916769
-0.000219957
-0.00883533
-0.00101278
-0.000319937
-0.00738666
-0.000763309
-0.000699217
-0.00758313
-0.000694822
0.000879289
-0.0163877
0.000815262
0.00796276
-0.021164
0.000377012
0.00433871
-0.0226146
0.00112908
0.000256305
-0.0426205
0.0163251
0.00356332
-0.0546194
0.00550472
0.00619592
-0.0294826
-0.0164284
-0.00901603
-0.013126
-0.0150087
-0.00148005
-0.0112729
-0.00401584
0.00208473
-0.010025
-0.00311374
0.00177581
-0.00810797
-0.00346638
0.00144779
-0.0047359
-0.00332455
-0.00014279
-0.00320348
-0.00161772
-0.00447971
0.00461343
-0.00343209
-0.00271091
0.00674105
-0.00862348
0.000866453
0.00622112
-0.00993067
0.00615252
0.00591359
-0.0113445
0.0149001
0.00882828
-0.0177569
0.028472
0.0138255
-0.0276799
0.024947
0.0196914
-0.0164479
0.0166559
0.0064259
0.00168048
0.00812733
5.4554e-05
0.00832672
-0.000868626
-0.00383158
0.0126926
-0.00437622
-0.00671606
0.0101073
-0.00755516
0.00543231
0.00431964
0.00100853
-0.0101907
0.0019479
-0.00811019
0.00365221
-0.0052659
-0.00414946
0.00740588
-0.0125884
0.00198112
0.00526308
-0.0143752
0.00571651
0.00235929
-0.0384185
0.0270893
0.0233026
-0.00723845
-0.0132721
0.0372172
-0.0096836
-0.039432
-0.00477083
0.00931563
-0.00912313
-0.000509315
0.00898345
-0.00746144
0.0026983
0.00960608
-0.00671499
0.00461081
0.00962495
-0.00490635
0.00714988
-0.001344
0.011297
-0.00502563
-0.00270507
0.0124757
-0.00195273
-0.00244207
0.00881998
-0.00039079
-0.00421895
-0.00202011
-0.0211104
-0.00220376
0.0295785
-0.0106578
-0.0143482
-0.00174587
-0.00711483
-0.00256926
-0.00732622
0.0159027
0.00123782
-0.0102677
0.0219571
0.0010465
-0.00900306
0.0325372
0.000244021
-0.0132047
0.0832949
-0.00229383
-0.0359893
0.0468442
-0.00192169
0.0455436
-0.00233589
0.0075168
-0.0031794
0.0384677
0.00386885
0.0218234
0.00197179
0.0232378
-0.000312427
0.0113244
0.0139359
0.00625166
-0.00799603
9.33278e-05
0.00681237
0.00521898
-0.00150063
0.00732267
0.00818992
-0.00154011
0.00712426
-0.0150851
0.00798225
-0.00212065
0.00737145
-0.0153173
0.00850655
-0.00128014
0.00743767
-0.016716
0.00841732
-0.00132297
0.00742133
-0.016016
0.00861665
-0.000641941
0.00728746
-0.0166012
0.00861208
-0.00026898
0.00703644
-0.0159954
0.00856599
0.000702004
0.00623998
-0.0154638
0.00823418
0.00576728
0.00442372
-0.0169577
0.00745424
0.00149344
-0.00415866
0.00568613
0.00273204
0.000809144
0.00538455
-0.000283527
0.000632438
0.00714418
-0.000738247
0.00078809
0.00802082
-0.00115232
0.000945443
0.00832296
-0.00120582
0.00128282
0.00838838
-0.00131769
0.00150689
0.0085628
-0.00136248
0.0015085
0.00870912
-0.00135224
0.00127073
0.00872056
-0.00137085
0.000941139
0.00883604
-0.00119566
0.00731083
-0.000262549
0.00935876
-0.00200961
-0.000815603
0.0110372
-0.00185489
-0.000851723
0.0123214
-0.00155155
-0.000665251
0.013107
-0.000314727
-0.000942846
0.0135374
0.000850203
-0.00117616
0.0137146
0.00170768
-0.00133151
0.0137131
0.00223625
-0.00141177
0.013772
0.0022488
-0.00142813
0.0137273
0.00182445
-0.000974757
0.0137349
0.00134687
-0.000593622
0.0139176
0.00122627
-0.000533881
0.0133061
0.00114401
0.000568774
0.0124549
0.00243455
0.000230607
-0.000267724
0.0126963
-0.000412446
0.00243979
-0.000848613
0.0123584
-0.000236947
0.0028025
-0.000641537
0.0114849
-7.3491e-05
0.00311524
-0.000168612
0.0102218
4.99009e-05
0.000295151
0.00327926
0.00862247
0.000720604
0.0033168
0.000130559
0.00687652
0.00103903
0.00305031
0.000138514
0.00587188
0.00096185
0.00224161
8.93647e-05
0.0044283
0.00462154
-0.000848391
0.00287315
0.00427776
-0.000551316
0.00142361
-0.000500876
0.00407438
0.00389524
-0.000403562
0.0056047
-0.000511276
-0.00121433
0.00682922
-0.000406754
-0.000834615
0.00780084
-0.000604302
-0.000383807
0.00816533
-0.000470568
8.93661e-05
0.00822077
-0.000603056
0.000531144
0.00753005
-0.00025558
0.00092971
0.00654915
-0.000288607
0.00125294
0.00472165
0.000304689
0.00150574
0.00200019
0.00117434
0.00152999
-0.00178298
0.00206557
0.00169965
-0.00451259
0.000522216
0.0021894
-0.00602877
-0.00089867
0.00239558
-0.0073088
0.000607637
0.000650446
-0.0137805
0.000484233
0.00594263
-0.0248998
-0.00657789
0.0175814
-0.0310563
-0.0161896
0.0221808
-0.0391576
-0.0261837
0.0340185
-0.0317876
0.0237236
0.0162034
-0.0385289
0.00909788
0.0259623
-0.0166631
0.00683567
-0.00457995
0.00430453
-0.0322729
0.026197
0.00144711
-0.0147368
-0.0232562
0.00568485
-0.0374223
0.00597614
0.0411852
-0.0574166
-0.000651316
0.0290359
-0.0500306
0.0151817
0.0125889
-0.00992906
0.0169491
-0.0102401
0.0109504
-0.00253533
0.0189987
0.00784265
0.011387
-0.0125559
0.0134739
0.00537343
-0.00623727
0.00135577
0.0112545
0.00494081
0.0010288
0.00273665
0.00129527
-0.00100639
0.00148466
0.00275901
-0.00486894
0.00385693
0.00204966
-0.00543361
-0.000442703
0.00216076
-0.00957182
0.00200457
0.00241785
-0.00822318
-0.00367982
0.00202248
-0.0118745
0.00195792
0.00141791
-0.00891468
-0.00417603
0.000593389
-0.0112498
0.00215541
-0.000310634
-0.00732778
-0.00319791
-0.00134806
-0.0081636
0.00229437
-0.00188547
-0.00441023
-0.00170767
-0.00257621
0.00130352
-0.00256784
0.00402215
0.011752
-0.0106471
0.0115336
0.00652123
-0.00945421
0.0130881
0.00884344
-0.00512956
0.0102135
0.0104362
-0.00254179
0.00429069
0.00942249
0.00110334
0.0126161
-0.00200442
-0.00219466
0.000757954
0.01485
-0.00608122
0.00505082
-0.00330218
0.00202326
0.0147305
-0.00761267
-0.00310809
0.00314705
0.00761989
0.010112
-0.0079453
-0.00270964
0.00319346
0.0120059
0.00165198
-0.00673757
-0.00200818
0.00104781
0.0160729
-0.000746677
-0.00452906
0.00747231
-0.000263674
-0.00530575
0.0112966
5.93298e-05
-0.0103911
0.0125526
-0.00903148
-0.0142498
-0.014167
0.00841304
0.00570422
-0.0241206
0.00411808
-0.0185527
0.00624218
-0.0165366
-0.0113717
0.00928652
0.00792486
0.0096346
-0.0341427
-0.0238037
0.0075728
0.0111736
0.00748746
-0.0100609
-0.0324925
-0.00919939
0.00780155
-0.00165324
2.51333e-06
0.0078112
-0.00662362
-0.0104527
0.0115457
-0.00765414
-0.0141924
0.0104977
0.0105871
-0.000769333
-0.00885514
0.0103592
-0.00153621
0.00798785
-0.0077214
0.00378412
0.00104522
0.00471765
-0.00359615
0.00574975
-0.00632577
0.0139817
-0.0121514
-0.00350397
0.010814
-0.0170399
-0.00263582
0.00572897
-0.0169777
-0.000989227
-0.00116707
0.00205165
-0.00825618
0.0084251
0.00963933
-0.00956041
0.0109224
0.0112538
-0.00498789
0.0116385
0.011864
-0.00222411
0.0106288
0.00428206
-0.0109964
0.0109706
0.00297155
-0.00915185
0.0121108
-0.0021748
-0.00494566
0.0117137
-0.00474963
0.00972415
-0.00609051
0.00217893
0.00370842
0.00112829
0.00797676
0.00736625
-0.00153768
0.0110023
0.00864347
0.000354772
0.00742641
0.00652954
-0.00910577
0.0101419
-0.000418819
-0.0069569
0.00387853
0.00252763
0.000253517
0.00174696
-0.0016806
0.00510063
-0.00648539
-0.00144281
-0.00229211
0.018767
-0.00361194
-0.0193448
0.0170179
-0.00141884
-0.00177136
-0.0161902
-0.0118638
-0.000848465
0.0033107
-0.00862936
-0.0106706
-0.0131612
0.00658126
-0.00596233
-0.004951
0.000891619
0.00137896
0.00038672
-0.00208889
-0.00426261
-0.000990927
0.00397896
-0.0026029
-0.000420822
0.00181201
-0.0023835
0.00130707
-0.00381896
0.00677531
0.000698545
-0.0111298
0.000644669
-0.00348367
0.0104913
-0.00346246
-0.00444421
-0.0189907
0.014001
-0.0118438
-0.0194509
-0.0117641
0.00783734
0.00429471
-0.026624
-0.0153608
0.0025756
0.00932225
0.010525
-0.0355961
-0.0164399
0.0130659
0.00183061
0.0104133
-0.0423024
-0.0146019
0.00983261
8.28795e-05
0.0112894
-0.0436693
-0.0107628
0.00323143
-0.00153171
0.0103254
-0.0431552
-0.00614394
-0.00151495
-0.00184204
0.00887694
-0.0394788
-0.00332371
-0.00450602
0.00405929
-0.0347347
-0.00116138
-0.00711563
0.00647834
-0.00305351
-0.0321757
0.0013673
-0.00612003
0.00560404
-0.00351216
-0.0291325
0.0026852
0.00447537
-0.0039987
-0.00630792
-0.0289365
0.00209159
0.00396179
-0.00357242
-0.00278906
-0.0298457
0.000228201
0.00180483
-0.00123087
-0.0277917
-0.00157019
0.00135393
-0.00195139
-0.023003
-0.00260824
0.00153018
-0.00380695
-0.0301966
0.00169173
0.0226528
-0.0172264
-0.0593436
0.0293324
-0.0128844
0.0123258
0.00607233
-0.0199346
-0.00129053
-0.0131794
-0.0252115
-0.00925051
-0.012261
-0.000463404
-0.00877219
-0.0111666
0.000641791
0.000279474
-0.0094392
-0.000553058
0.000504887
-0.00581291
-0.00373983
0.00145105
-0.00311218
-0.00398495
0.00104303
-0.00453495
-0.000264618
-0.00445662
0.000807577
-0.000933149
-0.00684165
0.00205197
0.000269871
-0.0107837
0.00221041
0.00165198
-0.0130971
0.00081998
0.00141486
-0.013366
-0.000350398
0.000549475
-0.0130767
-0.00174778
0.0014045
-0.02365
0.00142522
0.00907336
-0.0568554
0.0175142
0.0154845
-0.101307
0.00886271
0.0350161
-0.117974
-0.00586868
0.0218417
-0.127337
-0.0115893
0.0201778
-0.133776
-0.0164889
0.0220926
-0.13744
-0.0221851
0.0249648
-0.138774
-0.0272645
0.0276875
-0.138698
-0.0307601
0.0297608
-0.137886
-0.0329211
0.0311838
-0.136429
-0.0341704
0.0317972
-0.134287
-0.0348127
0.0317686
-0.130454
-0.0353144
0.0306099
-0.12249
0.0278223
-0.03662
-0.103343
0.0207856
-0.0406919
-0.0534975
0.00328767
-0.0537518
-0.0226303
-0.00124249
-0.0298437
-0.0123899
-0.00429148
-0.00602624
-0.0121119
0.00198859
-0.00232159
-0.0112119
0.00432733
-0.00529814
-0.00877488
0.00384108
-0.00635856
-0.00425852
0.00400676
-0.00860747
-0.00479252
0.00347218
-0.00300941
-0.00806105
-6.56853e-05
0.0032834
-0.00782315
0.00235388
-0.00266295
-0.00893161
0.00102064
-0.0138034
0.00698686
-0.0022136
-0.0166397
0.00715353
-0.00442721
-0.0189189
0.00764927
-0.00547272
-0.0237787
0.00700745
-0.00225234
-0.0533375
0.0187437
0.0106186
-0.0979845
-0.00807423
0.0521475
-0.110992
-0.031674
0.0439614
-0.112457
-0.0418285
0.0424827
-0.107754
-0.0476718
0.0421458
-0.0989484
-0.0521389
0.0424765
-0.0862204
-0.0543529
0.0408004
-0.0691961
-0.0558478
0.0380037
-0.049386
-0.056814
0.0362379
-0.0236636
-0.0481263
0.0217671
-0.0376865
0.0135843
-0.0535158
0.0230958
-0.00773368
-0.0592769
0.0252713
-0.020013
-0.0593133
0.0265975
-0.0270873
-0.0502714
0.0263853
-0.0359535
-0.0401798
0.0243259
-0.0349203
-0.023013
0.0165425
-0.0341765
0.00945305
-0.0329047
0.0272842
0.0380458
-0.0565136
0.0510558
0.0494335
-0.073971
0.0749474
0.0495397
-0.0742511
0.0951446
0.0497775
-0.0707992
0.110904
0.0469962
-0.0636118
0.11913
0.0396936
-0.0487419
0.117095
0.0329382
-0.0317141
0.101379
0.0300737
-0.0150778
0.0545666
0.0398861
0.00635283
0.025502
0.0250704
0.00379778
0.0213882
0.0041822
-0.000173046
0.0194739
0.000590045
0.00122164
0.0158932
0.000298958
0.00317188
0.00914755
-0.000248692
0.00689576
-0.000923456
0.00998323
-0.000966289
-0.00972396
0.00967105
0.000725837
-0.0131183
0.0113172
0.00257305
-0.0142498
0.0122795
0.00408298
-0.0135826
0.0119371
0.00433595
-0.0191829
0.0187521
0.00786897
-0.0286672
0.0248491
0.00384813
0.0236525
-0.0199153
-0.000176076
0.0169243
-0.0130792
-0.000375924
0.00844861
-0.00838442
-0.000536029
0.00775524
-0.00771833
-0.00108207
0.00738125
-0.0069442
0.00632191
-0.00647912
0.00342907
0.00546367
-0.000279491
0.00320182
0.00620119
0.00133526
0.00329555
0.00592553
0.00165825
0.00396255
0.0047917
0.00291168
0.0103235
0.0116274
-0.0011697
0.0194333
-0.00903309
-0.000122182
0.0090895
-0.00421952
0.0145226
-0.0230969
-0.0114355
0.0435521
-0.0155471
-0.00576311
-0.00186527
-0.000984308
0.00358981
0.00487265
-0.0094625
0.00606051
-0.00260363
0.00361265
-0.00178658
-0.00827995
0.00042851
-0.00919499
-0.010265
-0.012657
0.0184649
-0.00486346
-0.0307777
0.00323768
0.00367199
0.00406039
-0.0176017
-0.0497382
0.00588874
0.010164
0.00083351
-0.0582307
-0.015699
0.0262341
-0.00423866
-0.0204245
0.0061762
-0.00325926
-0.0203104
0.00561586
-0.00227593
-0.0206694
0.00531157
-0.000901312
-0.0190476
0.00444222
-0.0150056
0.00403487
-0.021151
0.00226956
0.00404998
-0.021968
-0.00134726
0.00264014
-0.0179101
8.63943e-05
0.00543995
0.00165555
-0.0466422
0.0354874
0.00831108
0.00806742
-0.1152
0.035082
0.0515371
0.0209331
-0.125304
0.0473272
-0.0080036
-0.126152
0.0547883
-0.0218684
-0.118323
0.0645299
-0.0335421
-0.103379
0.0731642
-0.0419942
-0.0842535
0.0768771
-0.0470927
-0.0616147
0.0746376
-0.0485759
-0.0366837
0.0742801
-0.0505915
0.0503758
-0.0330387
0.0588307
0.0457892
-0.0305256
0.0684248
0.0516755
-0.0355092
0.0687236
0.052833
-0.0271593
0.0633244
0.0505663
-0.0205032
0.0438826
-0.00615615
-0.0881777
0.0718737
0.0025586
-0.0979738
0.0755036
-0.0160499
-0.0994875
0.0799588
-0.0265544
-0.0881572
0.0791932
-0.0397903
0.0719257
-0.0409222
0.0879861
0.094562
-0.0368757
0.0976225
0.101738
-0.0331109
0.0944847
0.101143
-0.0189757
0.081914
0.0960778
-0.00889439
0.0903626
0.00673791
-0.0812632
0.103477
0.0129279
-0.0944725
0.110581
-0.0022157
-0.0983625
0.11608
-0.0120086
-0.0904558
0.11699
-0.024119
0.111555
-0.0314927
0.0869992
0.124415
-0.0276315
0.0946713
0.128432
-0.0200915
0.0912573
0.126551
-0.00803358
0.0783353
0.120433
0.00213461
0.112167
0.0166239
-0.0724636
0.116748
0.0193346
-0.0844024
0.125536
0.00589809
-0.0867344
0.132149
-0.00424489
-0.0788111
0.134573
-0.0150437
0.131521
-0.022324
0.0682166
0.132205
-0.0150497
0.0761134
0.134932
-0.00923269
0.0750256
0.131316
0.000943631
0.0640869
0.124883
0.0106552
0.115558
0.0225815
-0.0525927
0.105833
0.0297889
-0.0646359
0.116431
0.0195524
-0.0641923
0.120039
0.00987015
-0.0562512
0.12548
0.000547653
0.126383
-0.00404392
0.035171
0.0192062
0.0614359
0.0447124
0.0514636
0.0948258
0.0134865
0.0547724
0.0925767
0.023278
0.0357456
0.0483361
0.0452682
0.0409139
0.0445395
0.0365456
0.0515277
-0.0123017
0.0268611
0.0153901
0.0143738
-0.0187361
0.0276852
0.0150931
-0.0152958
0.031166
0.0135264
-0.0135427
0.029085
0.014221
-0.0400046
0.0275761
0.0408118
-0.000796834
0.024899
-0.0284238
-0.00828146
0.038552
0.00581183
-0.0370792
-0.00680381
0.0300002
0.00549304
-0.0371474
-0.00459251
0.0291174
-0.036598
0.00509943
0.0259066
0.00347914
0.00381599
0.00515851
0.0049315
0.00716179
0.0068184
0.00762378
0.00905681
0.00894598
0.00840691
-0.00416191
-0.0199778
0.0157056
0.00266979
-0.000606979
0.000596831
0.00625616
0.00290329
0.000299743
-0.000537284
0.000357201
0.00409547
-0.00155424
-0.00244201
-0.0013266
0.00412164
-0.00165433
-0.000491585
0.00117481
0.0106119
0.0121065
0.0316611
-0.0532934
0.00539211
0.0178307
-0.00425566
-0.0073138
0.0569204
0.00124655
-0.0150817
0.00285141
0.00351801
-0.00656007
0.00505534
0.00399454
-0.00621318
-0.0222368
0.00972691
0.017525
-0.00940232
-0.0125598
-0.00031837
0.0179682
-0.00257526
0.023945
-0.00791848
0.0463398
-0.0127375
0.0215389
0.0767312
-0.0246386
-0.0327887
0.00454137
0.00706336
0.0298129
0.00208512
-0.0175819
0.00801464
0.0136834
-0.00405749
-0.0106695
0.00844928
0.0149914
-0.00405327
-0.0114794
0.00755516
0.0144714
-0.00237708
-0.0113067
0.00612151
0.0128259
-0.0104583
-0.00103259
0.0036725
0.0105603
-0.00882022
0.000621618
0.00875869
-0.00792643
0.0027598
0.00846268
-0.00315345
0.00337875
0.00806133
-0.00280247
0.00314875
0.0152363
-0.00810196
0.000849738
0.0393798
-0.0159795
-0.0083828
0.0730089
-0.0389346
0.00468698
0.0831065
-0.0276431
0.0167861
0.08467
-0.0234982
0.0211009
0.0821146
-0.020252
0.0219349
0.0769235
-0.0158492
0.0201375
0.070016
-0.008779
0.0147681
0.0606875
0.00160065
0.00679981
0.0422114
0.0173086
0.000239611
0.0151008
0.041219
-0.0150264
-0.00510569
0.0551436
-0.0358395
-0.00166264
0.0503129
-0.0546278
0.0122367
0.0392498
-0.0539822
0.0153883
0.0263826
-0.0302925
0.00948168
0.0286781
-0.0233888
0.0020509
0.0112245
-0.00401201
0.000343369
0.00376187
-0.0021313
-0.000496119
0.00174642
-0.00096152
-0.00213926
0.00323556
-0.00166193
0.00312905
-0.00227645
0.00327249
0.00518948
-0.00148109
0.000307599
0.00655277
-0.00042775
0.00220366
-0.000171205
0.00652427
-0.00058739
0.00180303
0.00589774
-0.00386995
0.00258066
0.00574056
0.00614565
0.00097009
0.0117531
0.0170025
-0.0110082
0.0156913
-0.0107287
0.0236893
0.0242697
-0.0304372
0.0434298
0.0146094
-0.0449189
0.0504898
0.0133697
-0.0632385
0.0461327
0.0263781
-0.0789841
0.0291508
0.0268487
-0.0899485
0.00745386
0.0198467
-0.0954163
-0.00872486
0.0148203
-0.098793
-0.0209132
0.0145447
-0.100986
-0.0294489
0.0148385
-0.101172
-0.0351758
0.0141729
-0.0977916
-0.0395168
0.0117168
-0.0889096
-0.0439085
0.00647505
-0.0319941
-0.0406762
-0.0447427
-0.0114144
-0.0184813
-0.0104219
-0.0192423
0.00260692
-0.0154205
-0.00709936
0.00131843
-0.0057837
0.000259777
-0.00946511
0.0008572
-0.00379112
0.00165638
-0.00747601
0.000985863
-0.00880277
0.0158731
-0.000181049
-0.00794666
0.0158771
-0.00184204
-0.006139
0.0139595
-0.00216531
-0.00199119
0.0198406
0.00568337
0.0204332
0.107221
-0.0444335
-0.00960719
0.00400047
0.0307171
0.0054509
0.0076159
0.0105399
-0.000247892
0.00842719
0.0143192
0.000667847
0.0151826
0.00192823
-0.0162442
-0.0198159
-0.0126619
0.0309122
-0.0203074
0.0463893
-0.0178983
-0.0510406
0.107155
-0.0246626
-0.0520547
0.122113
-0.0150428
-0.104625
-0.0443233
0.125917
-0.0301878
-0.0753895
-0.0285686
-0.0173539
-0.028873
-0.0142587
-0.00279205
-0.0403817
0.0170409
-0.00205327
-0.0241741
-0.00525864
0.0280154
-0.00539624
-0.0085298
0.0164007
-0.00781316
-0.0092819
0.0145383
-0.00615911
-0.00943775
-0.0118426
-0.0026961
0.0502418
-0.021269
-0.0125974
-0.00607371
0.000617348
-0.0119399
-0.00844518
-0.000106999
-0.00875476
-0.0071042
-0.00156952
-0.0049911
-0.00434094
-0.00157567
-0.000133513
-0.000737517
-0.00372779
-0.00045856
-0.00988989
-2.39267e-06
0.000442568
0.00127842
-0.0016921
0.00137796
-0.00205759
0.00335309
0.00175427
-0.00263339
0.00438163
0.00206286
-0.00196751
0.00372594
0.00175621
0.00267783
0.000706486
0.00449156
0.0026446
-0.00105507
0.00468256
0.00385779
-0.000398612
0.00453427
0.00493354
-0.00048467
0.00483087
-0.000744754
-0.00633216
0.0108897
-0.00417811
-0.00617404
0.0109149
-0.0062512
-0.00531671
0.0100688
-0.00717389
0.00902427
-0.00778084
0.00655652
0.0118865
-0.00566503
0.00797543
0.0136179
-0.00506665
0.00815298
0.0151411
-0.00451029
0.0149462
-0.00311424
-0.00916826
0.0168893
-0.00132038
-0.00929857
0.0178958
-0.00273051
-0.00964964
0.017793
-0.00392842
0.0104937
-0.00400602
0.0128759
-0.000415374
0.0102299
-0.00167438
0.00748248
0.0233211
-0.002894
0.00733119
0.0183313
-0.000374266
0.0173236
0.000744498
-0.00880352
0.0485294
-0.0252305
-0.00517318
0.0422309
-0.0276746
0.0450567
-0.0283231
0.0293065
0.117838
-0.0575524
0.127709
-0.0450616
0.050696
0.135156
-0.0386119
-0.0205779
0.0553346
0.1351
-0.0149382
0.0519683
0.130362
-0.00599835
0.115538
-0.00136896
-0.0501789
0.120008
0.00517084
-0.0558874
0.135341
-0.000353448
-0.0534252
0.141028
-0.00947287
-0.0447903
-0.0146047
0.140106
-0.128401
-0.0232915
0.133803
-0.029298
-0.0128348
-0.0511293
-0.114565
0.0286233
0.119544
-0.10621
-0.0667682
0.118536
-0.0384583
-0.0495993
-0.0680702
-0.00482116
0.0138608
-0.0135213
-0.0193623
-0.0195895
-0.00999967
-0.00603552
-0.0131408
-0.00290849
-0.0140329
-0.00405943
0.00257535
-0.0144071
-0.00817365
0.00316942
-0.0127649
-0.0106127
0.00252521
-0.00981568
-0.0145033
0.00285633
-0.0107438
0.0011397
-0.01379
0.016075
-0.0137347
0.000609682
-0.00948451
-8.16548e-05
-0.0153542
0.01449
-0.00158088
-0.0167586
0.0116636
-0.00271423
-0.0180427
0.00966656
-0.00145915
0.0149572
-0.0254704
0.0110904
0.0252237
0.0187243
0.0207352
-0.0498624
0.0188663
0.0161694
0.0178282
-0.0277718
0.0305875
0.016051
0.0191701
-0.047078
0.0213765
0.0134241
-0.0227342
0.0183926
0.0392896
-0.0422096
0.00893058
0.0152653
0.0201019
0.0463858
-0.01012
-0.0171794
0.0253823
0.0301548
-0.020266
-0.0152976
-0.017247
-0.0206279
0.00991054
-0.0182789
0.00381856
-0.0127796
-0.0179665
0.00437359
-0.0172548
-0.0122876
0.00330478
-0.0161433
-0.0141021
0.00227947
-0.016775
0.00209638
-0.0176792
-0.0170554
0.0174706
0.000372487
-0.0162688
-0.000773168
-0.0183774
0.0156515
-0.00199146
0.0130157
-0.00309217
0.0175517
0.0143374
-0.00279103
0.0174469
-0.00140791
0.0164779
0.0182587
-0.0170292
-0.000365767
0.0184076
0.00133166
-0.0151178
0.00285848
-0.0154822
0.0010093
0.0175176
-0.0154215
-0.00120277
0.0144898
-0.00214723
-0.0075321
-0.0160331
0.0236084
0.0168596
-0.00150889
-0.0143984
-0.017163
-0.0262255
-0.0242876
-0.00259228
-0.105276
0.103947
0.00755
0.00121066
0.0182442
0.0127086
0.0239183
0.0146952
-0.020273
0.0176485
-0.0084662
0.0179666
-0.0122502
-0.00477534
0.00235951
-0.000511976
-0.00555288
0.00485073
-0.00582687
-0.00170903
-0.00210777
-0.00217554
-0.00379325
0.0131663
-0.000991303
-0.00316296
-0.001404
-0.00338452
0.0163894
-0.0200836
-0.0115712
0.0154822
0.00689149
-0.0116124
0.0176162
0.00912416
-0.0132791
0.0202376
0.00894436
-0.0142163
0.0229983
0.00892835
0.0302331
0.0120115
0.00990358
0.0135112
0.0125168
0.00949909
0.0132945
0.00992904
0.00786054
0.0119401
0.00976526
0.0060835
0.0108128
0.00842641
0.0100052
0.00700837
-0.00221366
0.00342937
-0.00262859
0.00417093
-0.00329882
0.0047673
-0.00393468
0.00541329
0.00652352
0.00166352
0.00290876
0.001429
0.00051241
0.000411106
0.00139686
-0.000146909
0.00198991
-0.00155075
-3.10038e-05
-0.000932147
0.00195566
0.000962953
-0.000328641
0.00079056
-0.000431386
0.00183061
-0.00111778
0.00121684
-0.000533552
0.000312286
-3.53304e-06
0.00202787
-0.00174943
3.05513e-05
0.00379763
-0.000557341
-0.00359971
0.0111698
-0.00639892
0.0035906
-0.0180542
0.00335654
0.0170867
0.00389979
-0.0181579
0.0204614
0.00715817
0.00294464
0.00677679
-0.0170891
0.0208751
0.000293964
0.00596494
0.0198203
-0.0148548
-0.0136317
0.0142059
0.00503408
0.0109942
-0.00739545
0.017201
-0.0076649
0.0172956
0.0109126
-0.000414963
0.0200047
0.00718303
0.00333819
-0.00115407
0.00152994
-0.00352402
0.000372522
-0.00229404
0.0126149
0.00135534
-0.00233922
0.000785816
0.000620324
-0.000777922
0.0015111
-0.000568465
0.00155961
-0.000393416
-0.00124253
0.0010662
-0.00207121
0.000898389
-0.000210955
-0.000224555
-0.00163719
-0.000454412
-0.00209776
0.000247838
-0.00185831
0.00140434
-0.00138246
0.000391052
0.000112182
-0.00188695
0.000171241
-0.00141879
-0.000659963
-0.00126849
-0.00240795
0.00115006
0.00124009
0.000226112
0.000471246
-0.00130083
0.000448002
-0.00168375
-0.000480001
0.000537806
0.000388681
0.000110031
6.78317e-05
-0.000659216
0.00104459
0.000303794
0.000311871
-0.000893835
-0.00161373
0.00281603
-0.00077622
0.000268415
0.000180581
-0.000891377
-0.0011323
0.00380684
0.00137599
-0.000362243
-0.00303554
0.0122961
-0.00265302
-0.00129697
-0.0017501
7.46044e-06
-0.000831145
0.000257369
-0.000726126
0.000330672
-4.28112e-05
-0.00112138
-4.65572e-05
0.00188463
-0.000308165
-0.00162635
-0.00132521
0.00321298
-0.000895729
-0.00017525
-0.00124925
0.00111813
0.00204563
0.000344045
0.000325044
0.000922464
-0.000131949
0.00191759
-0.00142165
-0.000174252
-0.00137302
0.00320559
8.06672e-05
-0.000649852
0.000196114
0.00286625
-0.00405987
0.0133281
-0.00111724
-0.0180686
0.000729858
0.00705636
0.0245854
-0.0164953
0.0219364
0.00640708
-0.0177823
0.02262
-0.00211156
-0.0149111
-0.00440013
-0.0206989
-0.0218784
-0.00632587
-0.0219093
-0.005741
0.0151755
-0.00261911
0.0198073
0.0318109
0.037477
-0.023625
-0.101178
0.0666495
-0.0967834
0.0701119
-0.10787
0.0713223
-0.0171189
-0.110112
0.0687304
-0.024881
-0.106642
0.0674714
-0.0296867
-0.0981375
0.0662918
-0.0332211
-0.0860067
0.0636016
-0.0358262
-0.0685373
0.0576077
-0.0379571
-0.0486774
0.0531464
-0.0376685
-0.0385126
0.0425356
-0.0316805
0.00468253
-0.0300222
0.017487
0.0320461
-0.045518
0.0149888
0.044879
-0.0430482
-0.00699344
0.0480141
-0.0264432
-0.0341482
0.026716
-0.0509259
-0.012988
0.0292986
-0.059707
-0.0245285
0.0328068
-0.0621317
-0.0309985
0.0328969
-0.0558187
-0.0381622
0.0313229
-0.0478422
-0.0352286
0.0267494
-0.0304427
-0.0335314
0.0156647
0.00320639
-0.0340878
0.0200754
0.0446408
-0.0621467
0.0428003
0.0556463
-0.0791372
0.0680587
0.0549277
-0.0810059
0.0880673
0.0524521
-0.0732852
0.0990859
0.0478386
-0.0597138
0.0997578
0.0401537
-0.0416479
0.093616
0.0342888
-0.0289575
0.0815389
0.0311423
-0.0197854
0.0461559
0.0378412
-0.00303172
0.0222821
0.02281
0.000867361
0.0191923
0.00393773
-0.000952702
0.0178451
0.000534054
0.000710386
0.0146757
0.000156476
0.00290257
0.00843951
1.90389e-05
0.0061182
0.00901269
-0.000660792
0.00707419
0.00354626
-0.00167839
0.00447396
0.00387224
-0.00131911
0.00468043
0.00175133
-0.00202061
0.00560913
0.00195846
-0.00296601
0.00528361
0.00313144
-0.00288373
0.00413533
0.00338623
-0.0023075
0.0031279
0.00271053
-0.00175771
0.0051109
0.00166956
-0.00372956
0.00973612
0.00258945
-0.00743317
-0.0248586
0.0332121
0.000764671
-0.051426
0.0233713
0.00243707
-0.0639269
0.0115104
0.000156573
-0.0672225
0.000725245
0.00169752
-0.0692729
-0.0133033
0.0144493
-0.0734678
-0.0285794
0.0318522
-0.0745183
-0.0439043
0.0440177
-0.07185
-0.0578562
0.0542428
-0.0619294
-0.0704793
0.0596067
-0.0443114
-0.0805406
0.0619654
-0.0169481
-0.0870545
0.0587278
0.0168593
-0.0830389
0.0482708
0.032314
-0.0576511
0.041235
0.0315532
-0.0444656
0.0443041
0.0240195
-0.0349928
0.0416232
0.0101389
-0.0261078
0.0391612
-0.000485124
-0.02326
0.0330822
-0.0350512
0.0338169
-0.0505793
-0.0198484
0.0345787
-0.0577295
-0.0346279
0.0409676
-0.0581923
-0.0494259
0.0490141
-0.0496682
-0.0644296
0.0550305
-0.0258446
-0.0818825
0.0571602
0.00421253
-0.0833083
0.0523753
0.0097586
-0.04757
0.0411587
-0.00751688
-0.0269129
0.0433786
-0.0207223
-0.0286865
0.0411063
-0.00456991
-0.0604197
0.0435292
-0.0522662
0.043137
-0.0150635
-0.0690519
0.00179327
0.0183259
-0.0551936
-0.0395002
0.028442
-0.040045
0.000367085
0.0323418
-0.0484884
0.0167816
0.0309348
-0.0783527
0.0312655
0.0415489
-0.12682
0.031959
0.054717
-0.123759
0.0277638
0.0572784
-0.0966373
0.0287151
0.0521892
-0.073182
0.0279397
0.041627
-0.0522806
0.0273548
-0.0306759
0.0283719
-0.0374132
-0.0471235
0.0268821
-0.0394104
-0.0565201
0.0225951
-0.0336113
-0.0674831
0.016248
-0.00509793
-0.0828979
-0.00426446
0.0353366
-0.118165
-0.00631398
0.0606306
-0.124574
0.0112196
0.0752458
-0.118099
0.0219419
0.0819213
-0.103456
0.0253048
0.0809599
-0.0845806
0.0266959
0.0769711
-0.0636001
0.0227023
0.0700923
-0.0416931
0.0190208
0.065989
-0.0199707
0.00981261
0.061002
0.000358237
0.0044126
0.0492831
0.0157366
0.00656605
0.0261462
0.0322844
0.0133077
-0.00754529
0.00347096
0.0458272
0.0166197
0.00846124
-0.00286411
-0.00891988
-0.00437641
0.0153879
-0.00185741
-0.00173478
0.0108178
-0.00142965
0.00499759
0.00087389
0.0154995
1.77151e-05
-0.00837163
0.0035709
-0.00656966
0.0268703
0.00373478
-0.00863649
-0.00765589
-0.000478984
0.00153329
-0.00791406
-0.00273224
0.00148562
-0.0065196
-0.0040079
0.000673704
-0.00488513
-0.00498638
0.000406381
0.00191943
-0.00364359
-0.000504692
0.00454321
-0.000977515
-0.00183945
-0.000324705
-0.000317613
-0.00120107
-0.000709092
-0.00059517
-0.000575158
-0.00054628
0.00040978
-0.00105866
-0.00327473
0.0129796
-0.00543951
-0.0117217
0.00301002
0.022677
-0.00761659
-0.00968544
0.0650948
-0.0311898
-0.028991
0.0175453
0.0634236
-0.0248644
0.0280649
0.0490286
-0.0197754
0.0334055
0.0121982
-0.01111
0.0487004
-0.0269249