/*--------------------------------*- C++ -*----------------------------------*\
| =========                 |                                                 |
| \\      /  F ield         | OpenFOAM: The Open Source CFD Toolbox           |
|  \\    /   O peration     | Version:  v2012                                 |
|   \\  /    A nd           | Website:  www.openfoam.com                      |
|    \\/     M anipulation  |                                                 |
\*---------------------------------------------------------------------------*/
FoamFile
{
    version     2.0;
    format      ascii;
    class       volScalarField;
    location    "340";
    object      nut;
}
// * * * * * * * * * * * * * * * * * * * * * * * * * * * * * * * * * * * * * //

dimensions      [0 2 -1 0 0 0 0];


internalField   nonuniform List<scalar> 
18258
(
0.0041969
0.00182673
0.00149809
0.00129855
0.000858494
0.00140526
0.00195142
0.00232251
0.0024363
0.00241479
0.00249958
0.0042173
0.00591778
0.0073123
0.00768049
0.00766806
0.00695903
0.0066449
0.00721713
0.00887358
0.00746151
0.00478109
0.00572492
0.00662015
0.00721019
0.00638893
0.00516541
0.00478337
0.00433181
0.00361155
0.0030294
0.00207063
0.0015179
0.00140681
0.00127541
0.00145401
0.00158378
0.00168909
0.00172678
0.00175391
0.0017419
0.00173188
0.00168497
0.00165568
0.00160594
0.00132741
0.00159931
0.0016516
0.00180715
0.00249277
0.00267606
0.00225024
0.00248999
0.0022217
0.00146492
0.0016772
0.00182079
0.00186003
0.00183611
0.00175989
0.00173418
0.00171241
0.00168484
0.00165211
0.00163216
0.00164851
0.00166557
0.00164744
0.00156645
0.00150078
0.00139452
0.00128801
0.001209
0.00114779
0.00110163
0.00105051
0.000993083
0.000872298
0.00080841
0.00107038
0.00134366
0.0014355
0.00203442
0.00248021
0.00249677
0.00186898
0.00133197
0.00138231
0.00153692
0.0015527
0.00131629
0.0015652
0.00177322
0.00183792
0.00191528
0.00214048
0.00243577
0.00237433
0.00211449
0.00194788
0.00192031
0.00219726
0.00208651
0.00270547
0.00272735
0.002382
0.00218561
0.00245994
0.0031718
0.00341346
0.00265558
0.00249379
0.00244459
0.00241397
0.00218304
0.00225882
0.00205097
0.00184802
0.00201291
0.00243311
0.00230816
0.00252156
0.00261246
0.00245063
0.00283928
0.00327389
0.00322638
0.00258197
0.00210476
0.001962
0.00197698
0.00120914
0.0013057
0.00140721
0.00144166
0.00146569
0.00148617
0.00158474
0.00158117
0.00155806
0.00155463
0.00158251
0.000871946
0.000944588
0.00096801
0.000974774
0.000925859
0.00091636
0.00089932
0.000885436
0.000834786
0.000798756
0.000955813
0.00107332
0.0011691
0.00128104
0.00144821
0.00165273
0.00186761
0.00208471
0.00222834
0.00226932
0.00231066
0.00222716
0.00214297
0.0022195
0.00223246
0.00221816
0.00218848
0.00215097
0.00210026
0.00200722
0.00211526
0.00210952
0.00198182
0.00169826
0.00173639
0.00173339
0.00177849
0.00176922
0.00178695
0.00176148
0.00173159
0.0016482
0.00153177
0.00127529
0.00124734
0.00126273
0.00162103
0.00196763
0.00303895
0.00370586
0.00430091
0.00460092
0.0049225
0.00398447
0.00443532
0.00342021
0.00307034
0.00390179
0.00510461
0.00291248
0.00159125
0.00301714
0.00267758
0.00194333
0.00172963
0.00178227
0.00178212
0.00204201
0.00235457
0.00261473
0.00274121
0.00285261
0.00294175
0.00303978
0.0031638
0.0031977
0.00308899
0.00261414
0.0031507
0.00255966
0.0029896
0.00270305
0.00182779
0.0019056
0.00203063
0.00186223
0.00181273
0.00173461
0.00156422
0.00193568
0.00250935
0.00291205
0.00332907
0.00443795
0.00410565
0.00393904
0.00304981
0.0029493
0.00153146
0.00218518
0.00226211
0.00254674
0.00169247
0.00154482
0.00146625
0.00193639
0.00224323
0.00264797
0.00293815
0.00349006
0.00270708
0.00309113
0.00279751
0.001951
0.00187605
0.00268542
0.0028923
0.00237868
0.00212462
0.0026667
0.0025245
0.00179138
0.00142948
0.00219699
0.00227362
0.00163329
0.00408158
0.00434854
0.0041505
0.00505754
0.00632936
0.00721289
0.00672434
0.00596071
0.00664921
0.00527706
0.00511908
0.00546753
0.00458629
0.00319878
0.00327926
0.0033905
0.003481
0.00373637
0.00396862
0.0042528
0.00452466
0.00411425
0.00341796
0.00258756
0.00178074
0.00175708
0.00174848
0.00157
0.0023266
0.00351904
0.00349431
0.00198537
0.00115772
0.0013099
0.00147924
0.00146479
0.00106274
0.00080001
0.00137817
0.00157556
0.00160087
0.00156101
0.00147376
0.00153997
0.00247305
0.00380989
0.00418616
0.00433564
0.00447707
0.00457694
0.00463246
0.00464998
0.00465969
0.00467165
0.00468221
0.00469837
0.00468395
0.00458437
0.00403252
0.0025356
0.00148238
0.0013772
0.00152
0.00163362
0.00173289
0.00147469
0.000901562
0.00143998
0.00184384
0.00211894
0.00213689
0.00199413
0.00193429
0.00304994
0.00405512
0.00477966
0.00492619
0.00499126
0.00493615
0.00492869
0.00482075
0.00478684
0.00419725
0.00300481
0.00328529
0.00352765
0.00356852
0.00365136
0.00377575
0.00368859
0.00348473
0.00509151
0.00587531
0.00595086
0.00607761
0.00600565
0.00590182
0.00563353
0.00532701
0.00448447
0.00336288
0.00212175
0.00216595
0.00230571
0.00228351
0.00198777
0.00209437
0.00227313
0.00229588
0.00237091
0.00265898
0.00301997
0.0028804
0.00247823
0.00210513
0.00196012
0.00191919
0.00184148
0.00137953
0.00140002
0.00136072
0.00138306
0.00185749
0.00221084
0.00254969
0.00361709
0.00322654
0.002624
0.00416205
0.00426466
0.00458238
0.00506187
0.00518728
0.00574814
0.00399986
0.00360431
0.00370283
0.00302493
0.00279987
0.00282977
0.00284044
0.00264715
0.00289755
0.00287209
0.00276832
0.00305641
0.00336803
0.00444132
0.00538191
0.00567873
0.00585032
0.00592058
0.00589837
0.00578322
0.00581908
0.00511069
0.00510514
0.00488918
0.00474833
0.00469804
0.00446437
0.00511067
0.00530609
0.00537144
0.00550572
0.00571486
0.00556039
0.00538717
0.00525543
0.00515991
0.00505996
0.00511401
0.00520941
0.00531114
0.00545399
0.00564489
0.00567678
0.00547899
0.00532951
0.00522718
0.00513107
0.00513522
0.00522098
0.00532095
0.00546265
0.00564358
0.00554353
0.00540286
0.00527755
0.00517474
0.0050842
0.00490652
0.00502533
0.00515598
0.00526375
0.00533377
0.00460834
0.00492557
0.00484049
0.0043821
0.0041011
0.00311446
0.00337063
0.00355456
0.00387163
0.0042978
0.00438171
0.00367717
0.00315122
0.00307074
0.00304593
0.0031177
0.00314353
0.00315876
0.00356924
0.00538032
0.00541657
0.0054317
0.00543389
0.00464566
0.00451389
0.00420528
0.00769238
0.0071614
0.00620438
0.00511233
0.00273924
0.00234814
0.00278148
0.00338235
0.00378159
0.00417252
0.00277046
0.00171592
0.0019998
0.00207317
0.00202195
0.00186877
0.00155708
0.00143733
0.00130441
0.00140372
0.00248609
0.00396747
0.0044689
0.00451626
0.00447134
0.00438412
0.00427795
0.00413017
0.00408239
0.00515698
0.00699194
0.00786567
0.00783113
0.00672794
0.0054901
0.00310006
0.00160269
0.00118873
0.0012637
0.00138913
0.00162894
0.0014492
0.00123487
0.00135195
0.00127561
0.00257965
0.00444422
0.00564482
0.00670531
0.00660543
0.00575013
0.00468722
0.00443379
0.00453718
0.00460769
0.00466747
0.00472876
0.00477085
0.0047444
0.00431846
0.00266795
0.00159267
0.00141499
0.00152133
0.00178309
0.00189489
0.00191453
0.00188811
0.0016369
0.00270751
0.00429829
0.00273394
0.00149168
0.0016116
0.00159969
0.00282165
0.00281739
0.00275687
0.00428876
0.00453496
0.00452416
0.00425137
0.00405832
0.00240307
0.00272804
0.00273735
0.00275173
0.00279672
0.00141319
0.00154058
0.00158881
0.00171097
0.00149516
0.00189756
0.000491059
0.000681181
0.000791194
0.000860501
0.00092714
0.000909445
0.00174059
0.00176662
0.00168574
0.00164136
0.00208247
0.00223444
0.00228344
0.00210282
0.00194017
0.00206536
0.00207014
0.00195121
0.00184807
0.00191586
0.00191706
0.00183714
0.00156257
0.00146418
0.00160739
0.00159021
0.00157769
0.00283235
0.00282719
0.00267578
0.00439532
0.00432514
0.00484371
0.00481216
0.00480615
0.00478636
0.00483754
0.0048646
0.00488515
0.00490905
0.00489964
0.00485253
0.00675112
0.00477332
0.00416555
0.00240948
0.00232118
0.0016395
0.0014369
0.00169201
0.0018097
0.00196201
0.00191771
0.00202143
0.002019
0.00214235
0.0019883
0.00176534
0.00270367
0.00288817
0.00282068
0.00287633
0.00280856
0.00279191
0.00277149
0.00273231
0.00268504
0.00159898
0.00156864
0.00183693
0.0019283
0.00207203
0.00209066
0.0021361
0.00202567
0.00178137
0.00172427
0.00198598
0.00195911
0.00199741
0.00188313
0.00187514
0.00167033
0.00171271
0.00345341
0.00637474
0.00328138
0.00364503
0.00330263
0.00375625
0.00329029
0.0028377
0.0029044
0.00255825
0.00266866
0.00279922
0.00284989
0.00299534
0.00353083
0.00339935
0.00298389
0.00289724
0.00284018
0.00267803
0.00241052
0.00252499
0.00254763
0.00260232
0.00289224
0.00331795
0.00371889
0.00451955
0.00438575
0.00384188
0.00351275
0.00368386
0.00374789
0.00471808
0.00440767
0.00438152
0.00462221
0.00457648
0.00434326
0.00411516
0.00397204
0.00341016
0.00346599
0.00396622
0.00383821
0.00395567
0.00388641
0.00404083
0.00411415
0.00394842
0.00366947
0.00385889
0.00385131
0.00427643
0.00415846
0.00385794
0.00352823
0.00377294
0.00372802
0.00430572
0.00405225
0.00378984
0.00348949
0.00334321
0.00379413
0.00372419
0.00422232
0.00434546
0.00434758
0.00379067
0.00370185
0.00440193
0.00423456
0.00409166
0.00426209
0.00353018
0.00362964
0.00447118
0.00456463
0.00433146
0.00361702
0.00367108
0.003147
0.00370143
0.00460708
0.00435164
0.00356696
0.00296045
0.004141
0.00435597
0.00460793
0.00435483
0.00474201
0.00510774
0.00416387
0.00452961
0.00591797
0.00451846
0.00524287
0.00535861
0.00538974
0.00539206
0.00541242
0.00543887
0.00572917
0.00557116
0.00354469
0.0042376
0.0041173
0.00344575
0.00293304
0.00322979
0.00347855
0.00352897
0.00361863
0.00375644
0.00369166
0.00356846
0.00522319
0.00595771
0.00608971
0.00621081
0.00610819
0.00595458
0.00560484
0.00518131
0.00431097
0.00321719
0.00201064
0.00205076
0.00218666
0.00216733
0.00188162
0.00141896
0.000932342
0.00138141
0.00142701
0.00134383
0.00122553
0.00108367
0.00112385
0.0020425
0.00372831
0.0053782
0.00600067
0.00651
0.00701731
0.00746101
0.00779464
0.00804321
0.00821882
0.00833182
0.0083579
0.00820651
0.00749389
0.00716334
0.00675066
0.00640978
0.00593321
0.0055545
0.00628167
0.00689718
0.0072733
0.007696
0.00788872
0.00780218
0.00677001
0.00657582
0.00758237
0.00934054
0.00794388
0.00998111
0.0117246
0.00913266
0.00819896
0.00818324
0.00915265
0.00933271
0.00900922
0.00850072
0.00791544
0.00717025
0.00755311
0.0078983
0.00822869
0.00853308
0.00931192
0.00944367
0.00936747
0.00920775
0.00900413
0.00873784
0.00833656
0.00777634
0.00707849
0.00635361
0.00552364
0.00378829
0.00190911
0.00215003
0.00212273
0.00216636
0.00216617
0.0010324
0.00113867
0.00115105
0.00115611
0.00108817
0.00123765
0.00179041
0.00287658
0.00206973
0.00170659
0.00118505
0.00138923
0.0023147
0.00391615
0.00441356
0.00450728
0.00490117
0.00634748
0.00691777
0.00729948
0.00761578
0.00780128
0.00771105
0.00747878
0.00706256
0.00654245
0.00632556
0.0059703
0.00564736
0.00546415
0.00527941
0.00495035
0.00388525
0.00373887
0.00389262
0.00384528
0.00368086
0.00393218
0.00407328
0.00406892
0.00411331
0.00415212
0.00427405
0.0044177
0.00454267
0.00460803
0.00463202
0.00463934
0.00464854
0.00465582
0.00466988
0.00465397
0.00455207
0.00399726
0.00250026
0.00145995
0.00134995
0.00148016
0.00156529
0.00160176
0.00142265
0.000915798
0.00142313
0.00184206
0.00188902
0.00207233
0.00213756
0.00226506
0.00252222
0.00291451
0.0030075
0.00266917
0.0025286
0.00247535
0.00241256
0.002068
0.0025768
0.00283768
0.00283162
0.00280398
0.00303012
0.00372827
0.00358209
0.00315924
0.00312493
0.00309399
0.00280211
0.00275947
0.00301054
0.00304328
0.00315599
0.0037001
0.00443635
0.00411636
0.00374968
0.00359593
0.00332137
0.00292648
0.00264628
0.0032484
0.0026618
0.0014124
0.0012052
0.00119621
0.00120261
0.00116241
0.00137626
0.00144616
0.001463
0.00135698
0.0015061
0.0016764
0.00162193
0.00184058
0.0018158
0.00162516
0.00161189
0.00173981
0.00183313
0.0018816
0.00193807
0.00316619
0.00326967
0.00252907
0.0036505
0.00421184
0.00417448
0.00442455
0.00364412
0.00326479
0.00387376
0.00447553
0.0051322
0.00405994
0.00383838
0.00392766
0.00180847
0.000951531
0.00134234
0.00166628
0.00185631
0.00180018
0.00170027
0.00143726
0.00254469
0.00261468
0.0041385
0.0046425
0.00470006
0.00467247
0.00482512
0.00533419
0.00622296
0.00684052
0.00702026
0.00691756
0.0066302
0.00609624
0.00556535
0.00551258
0.00530941
0.00515475
0.00510153
0.00442929
0.00391807
0.00418693
0.00411876
0.00425641
0.0043199
0.00436556
0.00441214
0.00449067
0.00458551
0.00467142
0.0047297
0.00476822
0.00480067
0.00483408
0.00486782
0.00490443
0.00492379
0.00487644
0.00440685
0.00264504
0.00157794
0.00143982
0.00153635
0.00180558
0.00190101
0.00204325
0.00181505
0.000956044
0.00112424
0.00195362
0.00216472
0.00200247
0.0018742
0.00184087
0.00154216
0.00279108
0.00275426
0.00431968
0.00485791
0.00492589
0.0049125
0.00487479
0.00483241
0.00479312
0.004761
0.00473566
0.00470854
0.00466916
0.0046211
0.00457556
0.00452934
0.00444988
0.00433542
0.00422195
0.00439407
0.00452615
0.0047057
0.00491918
0.0050377
0.00495123
0.00480763
0.00473221
0.00475158
0.00479048
0.00483186
0.00486913
0.00488673
0.00483313
0.00455589
0.00427667
0.00271079
0.00274578
0.00135321
0.00150329
0.00173454
0.00179142
0.00194581
0.00193739
0.00152412
0.00118732
0.00133908
0.00125098
0.00223374
0.00245588
0.00272249
0.00269531
0.00146548
0.00150291
0.00156203
0.00176264
0.00163932
0.00158357
0.00388888
0.00373117
0.00390824
0.00479408
0.00413143
0.00285571
0.00312992
0.00435411
0.00459036
0.00277709
0.00208316
0.0023103
0.00292674
0.00430731
0.00435972
0.00414028
0.0041185
0.00301025
0.00370021
0.0044485
0.00432637
0.00337813
0.00232816
0.00173219
0.000843998
0.00160561
0.00137315
0.00335968
0.00371716
0.00367212
0.00401503
0.00426687
0.00431078
0.00418768
0.00371647
0.00379004
0.00382713
0.00435878
0.00437695
0.00370855
0.00312995
0.00254443
0.00256667
0.00261582
0.00289821
0.00362872
0.00341917
0.0029972
0.00290682
0.00284463
0.00267629
0.00241545
0.00211949
0.00213385
0.00198588
0.00192171
0.00302896
0.0040315
0.00475365
0.00489034
0.00494
0.0048645
0.00483054
0.00469293
0.00462205
0.00401587
0.00512684
0.00541832
0.00522783
0.00526586
0.00529815
0.00533793
0.00533807
0.00523738
0.00450182
0.00268906
0.00175673
0.00198303
0.00214065
0.00201041
0.00199881
0.00213009
0.00202093
0.001775
0.00287555
0.0028103
0.00449254
0.00508637
0.00519566
0.00520258
0.00518199
0.00516495
0.00517173
0.00544388
0.00531892
0.00538731
0.00567304
0.00568478
0.0057542
0.00540276
0.00533429
0.00529071
0.00526167
0.00521419
0.00508661
0.00450179
0.00436404
0.00495538
0.00510769
0.0051752
0.0052221
0.00527833
0.00535238
0.00556525
0.00572311
0.00578081
0.00554527
0.00546122
0.00533494
0.00515438
0.00511192
0.00510322
0.00509929
0.00507444
0.00494266
0.00435167
0.00279854
0.00286772
0.00170622
0.00171751
0.00197838
0.00207827
0.00204145
0.00189064
0.00184346
0.00316494
0.00360225
0.00383379
0.00412737
0.00394155
0.00391914
0.00448035
0.004336
0.0038689
0.00402444
0.00360805
0.00343966
0.00332173
0.00333866
0.00176228
0.00190142
0.00198304
0.00194982
0.00186443
0.00166273
0.00152475
0.00278207
0.00276176
0.00272553
0.00162145
0.0015861
0.00186872
0.00181505
0.0016606
0.00141547
0.00155152
0.00239428
0.00267756
0.00415108
0.00429918
0.00460238
0.00492157
0.00504254
0.00507514
0.00509441
0.00511676
0.00516458
0.00522175
0.00523783
0.00523683
0.0052855
0.00527819
0.00527835
0.00524889
0.00521566
0.00517743
0.00513699
0.00507116
0.0049361
0.00461275
0.00429567
0.00484308
0.00488763
0.00497885
0.00507356
0.00511461
0.0051223
0.00510567
0.00507093
0.00502978
0.00498093
0.00497941
0.00511195
0.00514214
0.00516514
0.00514885
0.00513173
0.00512672
0.0051057
0.00507035
0.00497698
0.00488308
0.00484273
0.0047621
0.00488968
0.00494598
0.00495459
0.00500242
0.00507888
0.00509871
0.00509549
0.00505665
0.00502495
0.00498607
0.00492286
0.00484224
0.0045657
0.00462389
0.00469984
0.00479871
0.00489439
0.00497163
0.00501453
0.00501611
0.00496894
0.0049374
0.00493833
0.00489675
0.00491861
0.0049412
0.00491689
0.0049153
0.00492101
0.00486786
0.00476858
0.00462962
0.00448206
0.00435872
0.00429338
0.00418815
0.00451638
0.00463951
0.00475004
0.00484868
0.00493926
0.00503188
0.0050633
0.00505639
0.00500027
0.00496833
0.00496683
0.00491901
0.00491717
0.00496346
0.00496553
0.0049923
0.00504156
0.00502432
0.00495406
0.00478108
0.00461414
0.00447044
0.00433423
0.00418837
0.00413913
0.00420694
0.00415621
0.00421995
0.00436867
0.00455263
0.0047104
0.00480892
0.00483857
0.00486674
0.00490969
0.00490415
0.00487809
0.0048648
0.00480672
0.0047567
0.0046949
0.00455682
0.00437832
0.00421875
0.00416396
0.00424562
0.00433064
0.00425182
0.0039561
0.00411179
0.00425576
0.00440002
0.0046072
0.00484808
0.00495713
0.00499599
0.00497303
0.00495489
0.00495245
0.00490862
0.0048938
0.00493406
0.00493697
0.00495522
0.00498588
0.00495022
0.00485881
0.00456221
0.00421511
0.00405081
0.00395551
0.00381924
0.00427242
0.00436201
0.00425369
0.00418136
0.00429544
0.0044301
0.00456992
0.00466232
0.00469791
0.00474738
0.00481271
0.0048434
0.00479611
0.00474217
0.00467508
0.00464035
0.00463847
0.00461244
0.00452096
0.00441619
0.00429904
0.00444456
0.0045301
0.00444806
0.00402656
0.00409336
0.00418427
0.00423234
0.00455729
0.00485073
0.00492606
0.0049356
0.00490728
0.00488919
0.00489073
0.0048656
0.00481838
0.00480893
0.00480278
0.00485637
0.00492631
0.00495697
0.00496973
0.00474845
0.00436311
0.00431192
0.00414203
0.00405821
0.00450732
0.00456086
0.00445662
0.00435914
0.00456544
0.00465453
0.00468151
0.00466546
0.0046185
0.00458674
0.00464468
0.00473581
0.00466566
0.00436444
0.00409575
0.00423356
0.00426605
0.00425353
0.00419456
0.00409818
0.00389238
0.00434555
0.00478802
0.00482406
0.00434954
0.00435687
0.00421045
0.0039058
0.00427867
0.00448489
0.00453427
0.00452466
0.00446111
0.00429535
0.00453985
0.00475412
0.00471411
0.004266
0.00276857
0.00280741
0.00282884
0.00283258
0.00279552
0.00278551
0.00274517
0.00272464
0.00266187
0.00259845
0.00253722
0.00270663
0.0028513
0.0030457
0.00306175
0.00314212
0.00300994
0.00285137
0.00266427
0.00207227
0.00262992
0.00313815
0.00333374
0.0035855
0.00363822
0.00419611
0.00441499
0.00453541
0.00445126
0.00357012
0.00302886
0.00242051
0.00157406
0.000980766
0.00115157
0.0011981
0.00126435
0.0015524
0.00282624
0.00144651
0.0019985
0.00156285
0.00268046
0.00143901
0.000897835
0.000595556
0.000761658
0.000905452
0.000914661
0.000874991
0.000728453
0.000570538
0.000583057
0.000542591
0.000576229
0.00051774
0.000592884
0.000552897
0.000764785
0.00113058
0.00130569
0.00133686
0.00108154
0.00122189
0.00102105
0.00117888
0.00105353
0.00114867
0.00110225
0.00134796
0.00147729
0.00141397
0.0014174
0.00124029
0.000867501
0.0010057
0.000790254
0.000949104
0.000726386
0.000937902
0.000804315
0.0010452
0.00107743
0.00107429
0.00103429
0.000790075
0.00093637
0.00073748
0.000908587
0.00074751
0.000800371
0.000666905
0.000970178
0.000988726
0.000910283
0.000972193
0.00109332
0.00117202
0.00128628
0.00121185
0.00137631
0.00132496
0.00133792
0.00126758
0.00123329
0.0012054
0.00120814
0.00118829
0.00119465
0.00123289
0.00123436
0.00123887
0.00127737
0.0012585
0.00122748
0.00120857
0.00107399
0.000867203
0.00151081
0.0015579
0.00158173
0.00158185
0.00154721
0.001529
0.00147444
0.00146017
0.0014134
0.00138695
0.00132462
0.00127459
0.00121669
0.00136745
0.000765667
0.000869363
0.000917664
0.00094527
0.000963958
0.000972732
0.000979345
0.000973684
0.000961323
0.000938033
0.000930593
0.000905043
0.00115733
0.00131631
0.00137685
0.00139354
0.00130635
0.0012445
0.00272841
0.00330334
0.00501327
0.00512329
0.00385068
0.00383746
0.00132579
0.00140174
0.000957821
0.00134608
0.0013882
0.00137411
0.00129793
0.000936052
0.00140491
0.000979598
0.00131769
0.000992248
0.00122208
0.00102062
0.00145985
0.00186385
0.00180137
0.00163231
0.0011252
0.000937058
0.000943043
0.000803835
0.000880625
0.000717005
0.000874146
0.000733187
0.00107479
0.0015099
0.00168812
0.00172281
0.00135889
0.00187597
0.00141079
0.00204434
0.00162552
0.00200682
0.00161145
0.00186329
0.00230579
0.00231648
0.00226157
0.00182281
0.00145965
0.00163893
0.00145152
0.00167257
0.00241769
0.00158437
0.00240857
0.000994663
0.00135626
0.00139831
0.0013794
0.00130076
0.000876167
0.00222908
0.00117948
0.00209434
0.00135608
0.00216921
0.00158213
0.00210539
0.00251829
0.00263821
0.00263163
0.00214738
0.00194198
0.00201712
0.00161157
0.00193512
0.00143497
0.00207934
0.00117305
0.00151975
0.00167451
0.0017647
0.00177033
0.00145281
0.00287212
0.00180453
0.00272407
0.00189599
0.00242973
0.00194791
0.00212894
0.00251472
0.00249865
0.00247718
0.00210037
0.00170055
0.00224542
0.00160054
0.0480025
0.110637
0.0441289
0.111808
0.0505766
0.0717928
0.0707127
0.0708289
0.071081
0.0533665
0.116468
0.13761
0.143522
0.145303
0.144258
0.23312
0.190146
0.285655
0.185195
0.109087
0.0473861
0.0652727
0.168254
0.277678
0.416616
0.528543
0.36018
0.372766
0.23786
0.234475
0.220734
0.178579
0.109547
0.0549596
0.00940732
0.0102943
0.0147302
0.0196173
0.015428
0.00943003
0.00186502
0.00192391
0.00196656
0.00199289
0.00198537
0.00194273
0.00197345
0.00186374
0.00175156
0.00195589
0.00213175
0.0023263
0.00272664
0.0030095
0.00271071
0.00297105
0.00314913
0.00329381
0.00341284
0.00359033
0.00379047
0.00396709
0.00397698
0.00364465
0.00310639
0.00252806
0.00212654
0.0020153
0.00189284
0.00166934
0.00152749
0.0014313
0.0013842
0.00136452
0.001402
0.00153186
0.0016441
0.00168336
0.00164982
0.00161942
0.00159291
0.00141829
0.00165812
0.00227442
0.00229285
0.00392812
0.0045262
0.00462012
0.00462635
0.00410249
0.00262106
0.00262668
0.0026401
0.00269018
0.00270061
0.00270701
0.00270401
0.00269384
0.00267802
0.00264837
0.00263376
0.00259123
0.00255563
0.00246749
0.0024715
0.00250425
0.00252948
0.00248887
0.00249983
0.00244609
0.00314898
0.00422244
0.00478663
0.00500398
0.00519114
0.00503949
0.00697346
0.00595122
0.0041891
0.0041388
0.0040857
0.00484527
0.00487824
0.00440378
0.00442086
0.004026
0.00250971
0.00249628
0.00249767
0.00266848
0.00271976
0.00281454
0.00284017
0.00286503
0.00287892
0.00287715
0.00287617
0.00285378
0.00283547
0.00277314
0.00275222
0.00274365
0.00151267
0.0016506
0.00171135
0.00172197
0.00174509
0.00173404
0.00172256
0.0017017
0.0016871
0.00165884
0.00162518
0.00157768
0.00148404
0.00135281
0.00148986
0.00253177
0.00253249
0.00413891
0.00467073
0.00470409
0.00523758
0.00497349
0.00471149
0.00505862
0.00456193
0.00452661
0.00408932
0.00253682
0.00257092
0.00152424
0.00150906
0.0017631
0.00171286
0.00183018
0.00187948
0.00188581
0.00191183
0.00193764
0.00196873
0.00201844
0.00203386
0.00200443
0.00199958
0.00188463
0.0016289
0.00164875
0.00194341
0.00203727
0.0018903
0.00185518
0.00184023
0.00179549
0.00176118
0.00172782
0.00175047
0.00188461
0.00188359
0.00185166
0.00176299
0.00171875
0.00149206
0.00144339
0.00251992
0.00254299
0.00418339
0.00431666
0.00429125
0.0049337
0.00549433
0.00625444
0.00533369
0.00433199
0.00448452
0.00512092
0.00379681
0.00314139
0.00187005
0.00142584
0.00173385
0.00166401
0.00173213
0.00179466
0.00159354
0.0017098
0.0015804
0.00143583
0.00142785
0.00142589
0.00146156
0.00147632
0.00150317
0.00150669
0.00154279
0.00153933
0.00154436
0.00156334
0.00157324
0.0017384
0.00189125
0.00159088
0.0013484
0.00131224
0.00123899
0.00117914
0.00120782
0.00117916
0.00117207
0.00115058
0.00113119
0.0010793
0.00112496
0.0011937
0.00139651
0.00133798
0.00108144
0.000966225
0.000660673
0.00067304
0.000677699
0.000698687
0.000706257
0.000715601
0.000719029
0.000730748
0.000732982
0.000736644
0.000736331
0.000754042
0.000751436
0.000742838
0.000737228
0.000741031
0.000744614
0.000744142
0.00108953
0.00121344
0.00132697
0.00157664
0.00185689
0.00159784
0.00135354
0.00116569
0.000749309
0.000760708
0.000774727
0.000781914
0.000798708
0.000813941
0.000831058
0.000841893
0.000850135
0.000858745
0.000867793
0.000871599
0.000869626
0.00085309
0.000843317
0.00086493
0.000950509
0.00100022
0.00106383
0.00108788
0.00110875
0.00111933
0.00111372
0.00112512
0.00111162
0.00110963
0.0010903
0.00108192
0.00107386
0.0010638
0.00105149
0.00102134
0.00101129
0.00106408
0.00180123
0.00235645
0.0027177
0.00299608
0.0027597
0.00222842
0.00235479
0.00413111
0.00390301
0.00231349
0.00215505
0.00198342
0.0017266
0.00152573
0.00184319
0.00210255
0.00229987
0.00247418
0.00263343
0.00274136
0.00287948
0.0030595
0.00337849
0.00341878
0.00311867
0.00252842
0.00214214
0.00200231
0.00193509
0.00181693
0.00168787
0.00173007
0.00174248
0.00169055
0.00162603
0.0016075
0.0016339
0.00166701
0.00164688
0.00164611
0.00147043
0.00146996
0.00251148
0.00256009
0.00393772
0.00414856
0.00418825
0.00269327
0.00265615
0.00155162
0.00144085
0.00157178
0.00163146
0.00163474
0.0016412
0.00163252
0.00160386
0.00158282
0.00155839
0.00153862
0.00152138
0.00149158
0.00143506
0.0013255
0.00144499
0.00162048
0.00169142
0.00170947
0.00171798
0.00174499
0.0017894
0.00182513
0.00190768
0.0019166
0.00191593
0.00192279
0.00179758
0.00185403
0.00156927
0.00156721
0.00271587
0.00270885
0.0015564
0.00183775
0.00184994
0.00182821
0.00196797
0.00180097
0.00174381
0.00173401
0.00166066
0.00162158
0.00156964
0.00153874
0.00156936
0.00167012
0.0016181
0.00143375
0.00138388
0.00155151
0.00149115
0.00123703
0.00105673
0.00102741
0.000983335
0.000956598
0.00100253
0.00103828
0.00105867
0.0010846
0.0010923
0.00113996
0.00110932
0.00116441
0.0012348
0.00129076
0.0015312
0.00165922
0.00149897
0.00147022
0.00145196
0.00144999
0.00145445
0.00139463
0.00139067
0.00135973
0.00134451
0.00130415
0.00128595
0.00126283
0.00126715
0.00128078
0.00140818
0.00363041
0.00462611
0.00481741
0.00821991
0.00332298
0.00339503
0.00665048
0.00275329
0.00413838
0.00443618
0.00463805
0.00484347
0.00443182
0.00562043
0.00392805
0.00437104
0.00456728
0.00402285
0.00149033
0.00166483
0.00193782
0.00174616
0.00154317
0.00105248
0.00113598
0.00117373
0.00120424
0.00122425
0.00124617
0.00126976
0.00129181
0.00130734
0.00130768
0.00126813
0.0012254
0.0011272
0.00109446
0.00113688
0.00118073
0.00103736
0.000976801
0.000988448
0.00100487
0.00101415
0.00101623
0.00102639
0.00102919
0.00104516
0.0010368
0.00104495
0.0010272
0.00103652
0.00102274
0.000987689
0.000938693
0.000855216
0.000834663
0.00120209
0.00127996
0.00134469
0.00152554
0.0017612
0.00187916
0.00168425
0.00155307
0.0014908
0.00165391
0.00165375
0.00299953
0.00575654
0.00258093
0.00289279
0.00840972
0.00334813
0.00260827
0.00264788
0.00267578
0.00267942
0.00155734
0.00184454
0.00178856
0.0017953
0.00152255
0.00127815
0.00114648
0.00102515
0.000695044
0.000692678
0.000697909
0.000708497
0.000711772
0.000681404
0.000681325
0.000677446
0.000675919
0.000661623
0.000657631
0.000646024
0.00063898
0.000622266
0.000613186
0.000597191
0.000594174
0.0006167
0.000683255
0.000825112
0.000922124
0.00104596
0.00106616
0.00120734
0.003007
0.00348384
0.00479848
0.00475358
0.00749892
0.00468414
0.00353871
0.00320229
0.00468453
0.00483934
0.00450233
0.00610033
0.00422118
0.00278981
0.00412453
0.00341588
0.00413676
0.0040297
0.00426431
0.00676437
0.00713692
0.00201562
0.00179736
0.00189149
0.00214553
0.00254709
0.00234281
0.00267019
0.00266251
0.00204964
0.00131683
0.00419523
0.00506349
0.00403584
0.00482403
0.00749043
0.00301842
0.0029443
0.00260539
0.00217473
0.00197683
0.00194995
0.0021739
0.00260133
0.00651976
0.00697265
0.0063761
0.00633648
0.0057604
0.00638063
0.00796185
0.00793918
0.00700785
0.00655609
0.00677396
0.00416237
0.00262764
0.00305982
0.00338618
0.00451691
0.00465696
0.00983629
0.00333487
0.00368657
0.00374267
0.00500924
0.00484573
0.00857374
0.00362787
0.00391421
0.00515648
0.00688239
0.0127024
0.00462928
0.00488201
0.00702222
0.00712599
0.00651456
0.00470812
0.00426984
0.00465559
0.00350692
0.00342814
0.00292913
0.00432631
0.00582548
0.0045996
0.00446658
0.00380377
0.00337407
0.00346718
0.00359444
0.00298513
0.00294509
0.00340345
0.00251746
0.00243015
0.00258728
0.000716252
0.000367179
0.000375456
0.000385191
0.000393091
0.000401204
0.00040717
0.000414196
0.000417419
0.000417726
0.000418769
0.000442822
0.000438816
0.000424944
0.000385878
0.000440382
0.000698837
0.000699352
0.000439931
0.000387866
0.000695831
0.00110876
0.00130708
0.00154655
0.00156586
0.00135089
0.00117123
0.000720847
0.000709559
0.000430156
0.000502353
0.000545557
0.000483845
0.000539925
0.00050039
0.000530086
0.00053539
0.000495382
0.000492673
0.00049461
0.000490809
0.000482135
0.000471474
0.000458461
0.00044811
0.000442209
0.000437319
0.000427059
0.000356087
0.000331396
0.000396986
0.000631284
0.000630262
0.000591419
0.000558809
0.000531186
0.000518922
0.000515724
0.000513086
0.000522047
0.000538957
0.000543701
0.000548414
0.00059086
0.000572729
0.000611778
0.000574043
0.000613348
0.000575762
0.00052963
0.000444714
0.000458825
0.000740063
0.000747921
0.00120854
0.00138276
0.00156822
0.00157643
0.00175969
0.001853
0.00156903
0.00162888
0.00186692
0.00173907
0.00155042
0.00155636
0.00140012
0.0014012
0.00124093
0.000775429
0.000764875
0.000480446
0.00046659
0.000556386
0.000546615
0.000607965
0.000650602
0.000650864
0.000648748
0.000632022
0.000626117
0.000550709
0.000539972
0.000540683
0.000524252
0.000520571
0.000542122
0.000590186
0.000691265
0.000835558
0.00091021
0.000942951
0.000905468
0.000811278
0.000597025
0.000540783
0.000935815
0.000973198
0.00172927
0.00409669
0.00188705
0.00366439
0.00264541
0.000660374
0.000737482
0.00094056
0.00105407
0.00113783
0.00118489
0.00108171
0.000901741
0.000679161
0.00056108
0.000840323
0.000726734
0.000821835
0.000717972
0.000929044
0.00107432
0.00103941
0.00104735
0.000885237
0.000721305
0.000763892
0.000686029
0.000756249
0.000633081
0.000761755
0.000687753
0.000864297
0.000872419
0.000854276
0.000809756
0.00061657
0.00064691
0.00054264
0.000588603
0.000528436
0.000546148
0.000517567
0.000603514
0.000695427
0.000667399
0.000664765
0.000546173
0.000427946
0.00047262
0.000408523
0.00046236
0.000359309
0.000435321
0.000365114
0.000472614
0.000487081
0.000489352
0.000485593
0.000394454
0.000463708
0.000569419
0.000598477
0.000603636
0.000575252
0.000443309
0.000686131
0.00061963
0.00075664
0.000654699
0.000716438
0.000652484
0.000760507
0.000973914
0.0010167
0.00102343
0.000830252
0.000825094
0.00150446
0.0833935
0.00135333
0.00159957
0.00164937
0.00164336
0.00135877
0.00132577
0.00164167
0.00121477
0.00171994
0.00108284
0.00183391
0.000699311
0.00106311
0.00114138
0.00113891