/*--------------------------------*- C++ -*----------------------------------*\
| =========                 |                                                 |
| \\      /  F ield         | OpenFOAM: The Open Source CFD Toolbox           |
|  \\    /   O peration     | Version:  v2012                                 |
|   \\  /    A nd           | Website:  www.openfoam.com                      |
|    \\/     M anipulation  |                                                 |
\*---------------------------------------------------------------------------*/
FoamFile
{
    version     2.0;
    format      ascii;
    class       surfaceScalarField;
    location    "340";
    object      phi;
}
// * * * * * * * * * * * * * * * * * * * * * * * * * * * * * * * * * * * * * //

dimensions      [1 0 -1 0 0 0 0];
oriented        oriented;


internalField   nonuniform List<scalar> 
50655
(
0.00256992
-0.00360981
-0.00137794
-0.0051088
0.00127301
0.00366394
-0.00342465
0.0038607
0.00454442
-0.002497
-0.00278756
0.00296952
-0.00368543
-0.00376119
0.00271607
-0.00180523
-0.00480665
0.000867008
0.00013136
-0.00466317
0.00165515
-0.00186922
-0.00720687
0.00245616
-0.0104987
0.00288075
0.000312328
-0.0113205
-0.00349089
0.00420265
-0.0120706
-0.00486035
0.00550803
-0.0129282
-0.00564852
0.00640204
-0.0262156
-0.00933533
0.0224288
-0.0487438
-0.0283062
0.0502741
-0.0483299
-0.0527671
0.051656
-0.03109
-0.0711701
0.0531523
-0.00452399
-0.0780817
0.0507327
0.00790351
-0.0547489
0.04151
-0.0017269
-0.0314293
0.0402869
-0.0210989
-0.0217256
0.0403308
-0.0170637
-0.0513198
0.0465622
-0.00718379
-0.0554022
0.0449647
-0.0389323
0.0314195
-0.0415515
0.0188144
-0.0164965
-0.0162655
-0.0755813
0.0498006
0.0200304
-0.0798276
0.0430354
0.0305898
-0.0294259
0.0185594
0.0341987
-0.00394624
0.0366394
0.01786
-0.0206232
0.0255454
-0.0180335
0.0288516
0.01662
-0.00950743
0.0182637
0.0036302
-0.00135088
0.0142137
-0.00640544
0.00693792
0.00300243
-0.00540816
0.000261375
-0.00129935
-0.00538262
-0.00117367
0.00112974
-0.00630536
0.000177993
0.000727455
-0.00756904
0.000166214
0.00108087
-0.00869585
4.82376e-05
0.00106144
-0.00908597
-0.000288578
0.000662328
-0.00934728
-0.000708373
0.000953098
-0.00891167
-0.00113658
0.000684679
-0.00828232
-0.00160783
0.000961812
-0.00705819
-0.0020582
0.000817643
-0.0056268
-0.00252375
0.00107549
-0.00375954
-0.00282019
0.000936759
-0.00193849
-0.00300499
0.00116699
0.00102147
-0.00297756
0.000777421
-0.00243575
0.00265416
-0.00571838
0.00494561
0.00150842
-0.0113157
0.00467762
0.000863148
-0.0133331
0.00510129
-0.00315083
-0.0131064
0.00534126
-0.00563493
-0.00549424
0.00463063
-0.0122992
0.000488163
0.00559491
-0.011619
0.000596595
0.00357009
-0.00370416
-0.00150646
0.00208547
-0.00295483
0.00214195
-0.000710715
-0.00451437
0.00218989
-0.000646505
-0.00582666
0.00234913
-0.00105321
-0.00709267
0.00230666
-0.0010556
-0.00859358
0.00249861
-0.00101172
-0.0101592
0.00258449
-0.00103227
-0.0114541
0.00237648
-0.00109471
-0.0123558
0.00201449
-0.00112576
-0.0128219
0.00160058
-0.00114751
-0.0131378
0.00143404
-0.00113142
-0.0137389
0.00156087
-0.000974017
-0.0139444
0.00111799
-0.000927618
-0.0136497
0.000893626
-0.00120376
-0.01364
0.000780836
-0.000806172
-0.0133662
0.000826148
-0.00111598
-0.0131199
0.000901454
-0.00116378
-0.0129759
0.00084493
-0.0010046
-0.0127009
0.000575617
-0.000866273
-0.0121623
0.000127172
-0.000681204
-0.0112625
-0.00044719
-0.000467811
-0.0101433
-0.000906036
-0.000228519
-0.00882704
-0.00100171
-0.000329329
-0.00737976
-0.000752308
-0.000708822
-0.00757828
-0.000685925
0.000872442
-0.0163818
0.000831085
0.0079459
-0.0211477
0.000420363
0.00428489
-0.0225869
0.001164
0.000210023
-0.0425477
0.0163597
0.00348368
-0.0545206
0.00565923
0.00601531
-0.0294421
-0.0162247
-0.00916129
-0.0131036
-0.0149146
-0.00155609
-0.0112429
-0.00397234
0.00203366
-0.00998495
-0.00305595
0.00170791
-0.0080668
-0.0034042
0.00138455
-0.004711
-0.00327152
-0.00017956
-0.00316002
-0.00163628
-0.00441834
0.00457321
-0.00340978
-0.0026324
0.00672389
-0.00862346
0.000965059
0.00619882
-0.00992847
0.00626994
0.00588649
-0.0113362
0.0150725
0.0087562
-0.0177399
0.0286013
0.0137111
-0.0275224
0.0248584
0.0196326
-0.0161711
0.0163784
0.00633074
0.00196451
0.0074652
8.84681e-05
0.00867742
-0.00137821
-0.00413937
0.0128479
-0.00455308
-0.0068878
0.0099463
-0.00757963
0.00538527
0.00447175
0.000967732
-0.0102358
0.00226747
-0.00834017
0.00354297
-0.00489446
-0.00443955
0.00733632
-0.0123896
0.00206102
0.00538975
-0.0143189
0.00567102
0.00245216
-0.0385857
0.026823
0.0232395
-0.00674451
-0.0133653
0.0369903
-0.00985701
-0.0392201
-0.0048704
0.00925306
-0.00912623
-0.000605057
0.00894923
-0.00745815
0.00261951
0.00956976
-0.00671792
0.00455024
0.00958953
-0.0049063
0.00710311
-0.001345
0.011246
-0.00493537
-0.00272885
0.0124225
-0.00187262
-0.00246229
0.00881901
-0.000399502
-0.00410988
-0.00203607
-0.0210569
-0.0020963
0.0295397
-0.0106709
-0.0143067
-0.00164027
-0.00712829
-0.00245857
-0.00734056
0.0158618
0.00136456
-0.0102792
0.0219071
0.00116622
-0.009008
0.03244
0.000396672
-0.0132027
0.0831723
-0.00208278
-0.0360102
0.0467676
-0.00197672
0.0455084
-0.00213702
0.0074038
-0.00308656
0.0384333
0.00384685
0.0217682
0.00194856
0.0232269
-0.000321777
0.0113097
0.0139357
0.00621873
-0.00791576
0.000106487
0.00680625
0.00521302
-0.00147511
0.00731747
0.00818261
-0.00152017
0.00711836
-0.0150663
0.00797493
-0.00209031
0.00736602
-0.0153149
0.00849915
-0.00125884
0.00743273
-0.0166965
0.00841182
-0.00129486
0.00741663
-0.0160122
0.0086108
-0.000626239
0.00727918
-0.0165729
0.00860451
-0.000250982
0.00702764
-0.0159797
0.00855679
0.00070964
0.00623132
-0.0154379
0.00822735
0.00576256
0.00441932
-0.0169374
0.00745059
0.0014903
-0.00414788
0.00567298
0.00273283
0.000803966
0.00537827
-0.000279589
0.000622724
0.00713585
-0.000734045
0.00077565
0.00801177
-0.00114935
0.000930154
0.00831497
-0.00120327
0.00126683
0.0083834
-0.00131669
0.00149028
0.00855818
-0.00136219
0.00149273
0.00870255
-0.00135194
0.00125617
0.00871358
-0.00137099
0.000929952
0.00882831
-0.0011965
0.00730424
-0.000264364
0.00935084
-0.00199344
-0.000819446
0.0110273
-0.00183863
-0.00085497
0.0123094
-0.00153581
-0.000668226
0.0130942
-0.000302261
-0.000945357
0.0135234
0.000860804
-0.00117859
0.0137004
0.00171643
-0.00133366
0.0136987
0.00224397
-0.0014136
0.013757
0.00225629
-0.00142966
0.0137115
0.00183151
-0.000976357
0.0137184
0.00135268
-0.000594743
0.013901
0.00122968
-0.000534274
0.0132911
0.00114507
0.000567576
0.0124421
0.00243244
0.000231284
-0.000268088
0.0126847
-0.000412641
0.00243822
-0.000847407
0.0123477
-0.000237147
0.00280159
-0.000640037
0.0114746
-7.37314e-05
0.00311479
-0.00016667
0.010212
4.92564e-05
0.000297491
0.00327912
0.00861311
0.000723213
0.00331699
0.000129619
0.00686789
0.00104193
0.00305092
0.000137155
0.00586312
0.000965123
0.0022434
8.7946e-05
0.00442026
0.00462634
-0.000850737
0.00286757
0.00428166
-0.000555298
0.00142216
-0.000505834
0.00407679
0.00389598
-0.000405278
0.00560632
-0.000513527
-0.00121296
0.00683137
-0.000408305
-0.000833601
0.00780455
-0.000606193
-0.000383464
0.00817015
-0.000471539
8.92174e-05
0.00822742
-0.000604359
0.00053063
0.0075383
-0.000256562
0.000929085
0.0065608
-0.000291634
0.00125258
0.00474163
0.000296672
0.00150542
0.00204553
0.00114648
0.00153249
-0.00172995
0.00206293
0.0016946
-0.00448126
0.000558517
0.0021748
-0.00600677
-0.000875059
0.00238131
-0.0072928
0.00062233
0.000641751
-0.0137615
0.000503907
0.00591989
-0.024856
-0.0065522
0.0175309
-0.0310114
-0.0161495
0.0221398
-0.0391565
-0.0260929
0.0339714
-0.0316907
0.0236434
0.016212
-0.0384806
0.0091564
0.0259247
-0.0166891
0.00690784
-0.00457674
0.0043546
-0.0322657
0.0261479
0.00149233
-0.014716
-0.0233251
0.00574018
-0.0375183
0.00606686
0.0412133
-0.0574048
-0.000804556
0.0290223
-0.0499995
0.0151798
0.0125955
-0.00997459
0.0169606
-0.0102617
0.0109465
-0.00252339
0.0189533
0.00789052
0.0113268
-0.0125551
0.0135137
0.00530463
-0.00620567
0.00134296
0.011264
0.0048899
0.0010256
0.00271459
0.00129003
-0.00102036
0.00153213
0.00273976
-0.00487783
0.00384681
0.00205206
-0.00544339
-0.000478653
0.00216973
-0.00958069
0.00199223
0.00242126
-0.0082297
-0.00368632
0.00202361
-0.0118827
0.0019578
0.00141872
-0.00891963
-0.00418131
0.000594119
-0.0112552
0.00215391
-0.000309584
-0.00733021
-0.00320384
-0.00134706
-0.0081665
0.00229111
-0.00188329
-0.00441154
-0.00171415
-0.00257357
0.00129958
-0.00256537
0.00400262
0.0117565
-0.0106382
0.0115219
0.0065248
-0.00946598
0.0130666
0.00885348
-0.00512661
0.0101345
0.0104593
-0.00249567
0.00414353
0.00945299
0.0011631
0.0126548
-0.00216608
-0.00220817
0.000749234
0.0149652
-0.00593358
0.00484635
-0.00332415
0.00202557
0.0148795
-0.00751363
-0.00312402
0.00316094
0.00748911
0.0102837
-0.00789822
-0.00273114
0.00320698
0.011944
0.00176916
-0.00671997
-0.00203785
0.00106526
0.0161221
-0.000718564
-0.00449395
0.0074453
-0.000314166
-0.00521416
0.0112227
0.000102618
-0.010381
0.0126681
-0.00896361
-0.0142734
-0.0141639
0.00843873
0.00573558
-0.0241705
0.00411308
-0.0185913
0.00623876
-0.0165428
-0.0113935
0.0092759
0.00796017
0.00961364
-0.0341633
-0.0238023
0.00755671
0.0112131
0.00751097
-0.0100476
-0.0325674
-0.00919178
0.00782715
-0.00164375
1.00821e-05
0.00782226
-0.00660379
-0.0104835
0.0115299
-0.00765671
-0.014188
0.0105024
0.0105702
-0.0007665
-0.00886156
0.0103524
-0.00152776
0.00796496
-0.00773227
0.00384263
0.001025
0.00466008
-0.00359569
0.00580421
-0.00632096
0.0139812
-0.012158
-0.00353608
0.0108093
-0.0170538
-0.00261063
0.00570448
-0.016987
-0.000988797
-0.00117888
0.00204174
-0.00826028
0.00843238
0.00965452
-0.00958922
0.0109252
0.0112785
-0.00499801
0.0115801
0.0119014
-0.00217724
0.0106656
0.00436507
-0.0109775
0.0110189
0.00304011
-0.00918617
0.0121598
-0.00213322
-0.00497979
0.0117509
-0.00476241
0.00974931
-0.00613418
0.00224466
0.00376964
0.00105168
0.00800236
0.0075174
-0.00161146
0.0110123
0.00873376
0.000329043
0.00752753
0.00653386
-0.00921227
0.0102215
-0.000273177
-0.00713899
0.00381767
0.00275436
0.000170203
0.00163621
-0.00151748
0.00498885
-0.00651497
-0.00150831
-0.0022771
0.018723
-0.00359959
-0.0193777
0.0169293
-0.00143411
-0.00174081
-0.0162191
-0.0118868
-0.000916577
0.00335415
-0.00864949
-0.0106957
-0.0131796
0.00658726
-0.00595776
-0.00496287
0.000878608
0.00137915
0.000388505
-0.00209374
-0.00425498
-0.000992842
0.00397774
-0.00259798
-0.000421707
0.0018055
-0.00237802
0.00129297
-0.0038106
0.00676989
0.000699643
-0.0111514
0.000655031
-0.00347879
0.0104577
-0.0034649
-0.0044472
-0.0189277
0.0139479
-0.0118554
-0.0193907
-0.0118098
0.00787685
0.0043038
-0.0265842
-0.0154284
0.00260068
0.0093459
0.0105643
-0.0355521
-0.0165016
0.0130866
0.00185243
0.0104282
-0.0422543
-0.0146549
0.00985557
9.93904e-05
0.0112987
-0.0436216
-0.010812
0.00326033
-0.00151658
0.010331
-0.043113
-0.0061996
-0.00147605
-0.00182474
0.0088819
-0.0394388
-0.00338556
-0.00446808
0.0040854
-0.0347023
-0.00123553
-0.00707651
0.00649487
-0.0030275
-0.0321429
0.00127516
-0.00608211
0.00562504
-0.00347939
-0.0290973
0.00257249
0.00450254
-0.00395741
-0.00626596
-0.028905
0.00195762
0.00399799
-0.00351875
-0.00274125
-0.0298081
8.89033e-05
0.00189732
-0.00119022
-0.0277505
-0.00171853
0.00145355
-0.0019062
-0.0229236
-0.00275725
0.00159902
-0.00376499
-0.0300882
0.00175858
0.0226069
-0.0172766
-0.0591911
0.0293136
-0.0130525
0.0124639
0.00589635
-0.0198592
-0.00148907
-0.0133036
-0.0251659
-0.00904152
-0.0122432
-0.000537739
-0.00871622
-0.0111387
0.000550886
0.000309216
-0.009411
-0.000675241
0.000558842
-0.00578782
-0.00383693
0.00148801
-0.00308405
-0.00403801
0.00105629
-0.00454227
-0.000247724
-0.00446204
0.000790712
-0.000918187
-0.00685325
0.002043
0.000285017
-0.0107932
0.00219551
0.00166481
-0.0131036
0.000806278
0.00142548
-0.0133687
-0.000362755
0.000558135
-0.0130767
-0.00175635
0.0014103
-0.0236486
0.00141632
0.00908091
-0.056852
0.0174903
0.0155064
-0.101264
0.00877265
0.0350664
-0.117892
-0.00596541
0.0218994
-0.127213
-0.0116926
0.0202393
-0.133607
-0.0165913
0.0221503
-0.13723
-0.0222787
0.0250174
-0.138539
-0.0273353
0.0277336
-0.138454
-0.0308095
0.0298
-0.137642
-0.0329558
0.0312185
-0.136186
-0.0342028
0.0318312
-0.13404
-0.034854
0.0318058
-0.130198
-0.0353658
0.0306526
-0.12223
0.0278749
-0.0366765
-0.103104
0.0208558
-0.0407413
-0.0533597
0.00340465
-0.0537676
-0.0225797
-0.00118624
-0.0298127
-0.0123646
-0.00426652
-0.00602586
-0.0120864
0.00199726
-0.00233052
-0.011187
0.00433849
-0.00530858
-0.00875381
0.00385488
-0.00636859
-0.00423883
0.00402344
-0.00862278
-0.00478124
0.00349194
-0.00302075
-0.00804967
-4.93956e-05
0.003267
-0.00781048
0.00237263
-0.00268299
-0.00894206
0.00104377
-0.0138131
0.00697306
-0.00220058
-0.0166423
0.00714061
-0.00442141
-0.0189155
0.00764012
-0.00546953
-0.0237693
0.00700076
-0.00225168
-0.0533031
0.0187302
0.0106071
-0.0978952
-0.00808815
0.0521065
-0.110882
-0.0316684
0.0439344
-0.112348
-0.0418157
0.0424712
-0.107664
-0.0476574
0.0421514
-0.0988961
-0.0521259
0.0425009
-0.0862218
-0.0543449
0.040846
-0.0692722
-0.0558449
0.0380755
-0.0495554
-0.0568236
0.0363408
-0.0238844
-0.048105
0.0217973
-0.0375752
0.0132521
-0.0534365
0.0234716
-0.00807754
-0.059291
0.0257486
-0.0203968
-0.0593829
0.0270716
-0.027506
-0.0503927
0.0268416
-0.036358
-0.0403364
0.0246947
-0.0352538
-0.0231474
0.0167277
-0.0343838
0.00932601
-0.0329121
0.02713
0.0382135
-0.0566542
0.0508658
0.0496101
-0.0741118
0.0747039
0.0496932
-0.0743511
0.0948625
0.0498901
-0.0708731
0.110571
0.0470677
-0.0636325
0.118764
0.0397264
-0.0487415
0.116708
0.0329391
-0.0316942
0.101037
0.0300438
-0.0150929
0.0543853
0.0397999
0.0062783
0.0254172
0.0249991
0.00377267
0.021317
0.00417255
-0.00017701
0.0194089
0.000590781
0.0012147
0.015835
0.000297098
0.00316688
0.00910841
-0.000250771
0.00687886
-0.000930522
0.00995116
-0.000977275
-0.00969473
0.00964573
0.000705834
-0.0130804
0.0112884
0.00254109
-0.0142076
0.0122492
0.00403871
-0.0135394
0.0119062
0.00427529
-0.019126
0.0187115
0.00777605
-0.0285688
0.0247829
0.00376356
0.0235682
-0.0198394
-0.000240431
0.0168548
-0.01303
-0.000429597
0.00841836
-0.00836485
-0.000589666
0.00773348
-0.00769662
-0.00112038
0.00736257
-0.00694085
0.00630967
-0.00648206
0.00346055
0.00545303
-0.000293827
0.00324388
0.00618659
0.0013206
0.00333824
0.00591031
0.00165108
0.00399461
0.00478076
0.002903
0.0103397
0.0115714
-0.00116738
0.0193694
-0.00896199
-0.00011316
0.00911772
-0.00418836
0.0143994
-0.0229765
-0.0113946
0.043419
-0.015527
-0.00575101
-0.00177704
-0.000977416
0.0035683
0.00486881
-0.00943026
0.00604524
-0.00260085
0.0036283
-0.00178635
-0.00824264
0.00044773
-0.00914942
-0.010251
-0.0126412
0.0183913
-0.00477408
-0.0306917
0.0032213
0.00365417
0.00405476
-0.0175112
-0.0495842
0.00586184
0.0101085
0.000849611
-0.0580561
-0.015637
0.0261702
-0.00420979
-0.0203657
0.00616159
-0.00323454
-0.0202503
0.00560312
-0.00225901
-0.0206085
0.00530084
-0.000891613
-0.0189932
0.00443281
-0.0149617
0.00402782
-0.0210866
0.00225883
0.00403835
-0.0218996
-0.0013412
0.00263087
-0.0178516
8.66611e-05
0.00543494
0.00164762
-0.0464952
0.0353822
0.00829737
0.00803432
-0.114835
0.0350271
0.0513836
0.0208382
-0.124912
0.0472795
-0.00801367
-0.125767
0.0547701
-0.0218425
-0.117966
0.0645441
-0.0334956
-0.103067
0.0732175
-0.0419305
-0.083993
0.0769736
-0.0470253
-0.0614958
0.0747697
-0.0484129
-0.0367664
0.0744274
-0.0503606
0.0505421
-0.0329348
0.0589522
0.0459984
-0.0303213
0.0685227
0.0519495
-0.0353033
0.0688335
0.0531085
-0.0269726
0.0633945
0.0508389
-0.0202588
0.0440912
-0.00589758
-0.0882696
0.0719268
0.00279645
-0.0980659
0.0755631
-0.0158365
-0.0995518
0.0800156
-0.0263635
-0.088259
0.0792259
-0.0395115
0.0718898
-0.0406315
0.0880722
0.0943548
-0.0366583
0.0976562
0.101591
-0.0328781
0.0945218
0.101049
-0.0188289
0.0819488
0.0960131
-0.0087679
0.0903208
0.00687055
-0.0812751
0.103369
0.0130139
-0.0944872
0.110431
-0.00212774
-0.0983852
0.115884
-0.0118976
-0.0905205
0.116737
-0.023972
0.111261
-0.0313749
0.0870345
0.124062
-0.0275534
0.0946772
0.128106
-0.019989
0.0912524
0.126283
-0.00795092
0.0783271
0.120218
0.0022026
0.112011
0.016677
-0.0724462
0.116564
0.0193591
-0.0843852
0.125286
0.00593365
-0.0867233
0.13184
-0.00419802
-0.0788147
0.134212
-0.0149938
0.131138
-0.0222836
0.0681942
0.131812
-0.0150349
0.0760852
0.134559
-0.00921482
0.0749975
0.130991
0.000959376
0.0640659
0.124619
0.0106622
0.115367
0.0225803
-0.0525732
0.105657
0.0297601
-0.0645971
0.116175
0.0195251
-0.0641514
0.11973
0.00985181
-0.0562118
0.125129
0.000527328
0.126003
-0.00406607
0.0351433
0.0191129
0.0612604
0.0445741
0.0514113
0.0945556
0.01343
0.0547125
0.0923321
0.0232215
0.0357266
0.0482339
0.0451553
0.040832
0.0444732
0.0364774
0.0514534
-0.0122932
0.0268188
0.0153667
0.0143646
-0.0187179
0.0276331
0.0150674
-0.0152776
0.0310928
0.0134975
-0.0135305
0.0290096
0.0141896
-0.0399236
0.0275123
0.0407162
-0.0008013
0.0248263
-0.0283612
-0.00826263
0.0384384
0.00579589
-0.036973
-0.00678578
0.0299129
0.00547284
-0.0370392
-0.00458263
0.0290314
-0.0364891
0.00508469
0.0258311
0.0034654
0.0037989
0.00514382
0.00490713
0.00714388
0.00678965
0.00760101
0.0090352
0.00889522
0.00837463
-0.00412377
-0.0199057
0.0156569
0.00266115
-0.000615272
0.000582853
0.0062363
0.00289419
0.000295364
-0.000532439
0.000350891
0.00408341
-0.00154498
-0.00243463
-0.00131905
0.00410039
-0.00165572
-0.000487191
0.0011791
0.0105791
0.0120614
0.0315509
-0.0530982
0.00539625
0.0177318
-0.0042221
-0.00727048
0.0567276
0.00123116
-0.0150605
0.00282791
0.00354298
-0.00654002
0.00504102
0.00396608
-0.00619391
-0.02217
0.00966479
0.0175059
-0.00940096
-0.0124946
-0.000318029
0.017891
-0.00256277
0.0239108
-0.0078733
0.0461895
-0.0126835
0.0216063
0.0764799
-0.0249397
-0.0325565
0.00464384
0.00709305
0.0297217
0.00215607
-0.0175239
0.00804282
0.0136405
-0.00404535
-0.0106373
0.00847823
0.0149356
-0.0040406
-0.011437
0.00758029
0.0144073
-0.00235676
-0.0112591
0.00613073
0.0127617
-0.0104084
-0.00100232
0.00367126
0.0105035
-0.00877512
0.000643742
0.00870407
-0.00788129
0.00276806
0.00840707
-0.0031559
0.00338218
0.00800495
-0.00279836
0.00314542
0.015135
-0.00807219
0.00086494
0.0391336
-0.0159454
-0.00827212
0.0725845
-0.0388971
0.00482768
0.082621
-0.0276622
0.0168662
0.084151
-0.0235192
0.0211554
0.0815558
-0.0202477
0.0219704
0.0763341
-0.0157921
0.0201109
0.0692362
-0.00866779
0.0148473
0.0596349
0.00186288
0.00681038
0.040987
0.0179244
-0.0002044
0.0133122
0.0419044
-0.0151475
-0.00632904
0.0554337
-0.0366947
-0.00213227
0.0502409
-0.0553096
0.0121184
0.0392773
-0.054361
0.0156436
0.0262328
-0.0305163
0.00981542
0.0290078
-0.023797
0.00226851
0.0114146
-0.004086
0.000539597
0.00392188
-0.00226993
-0.000259838
0.00182744
-0.00108259
-0.00199867
0.00331119
-0.00164188
0.00318054
-0.00228747
0.00311177
0.00529246
-0.00144808
8.28238e-07
0.00670657
-0.000359865
0.00200045
-0.000193757
0.00653445
-0.000640765
0.00153276
0.00604024
-0.00365299
0.00250166
0.00535951
0.00631277
0.00110386
0.0116008
0.017204
-0.0104784
0.0150609
-0.0100994
0.02325
0.0237776
-0.0293376
0.0432789
0.0143175
-0.043446
0.0506827
0.0127315
-0.0617911
0.0466915
0.0261349
-0.0779662
0.0297974
0.0273169
-0.0890918
0.00796547
0.0201121
-0.0947691
-0.00846612
0.0150332
-0.0982756
-0.0207997
0.0146722
-0.100498
-0.0294106
0.0148865
-0.100712
-0.0352028
0.0142327
-0.0973555
-0.0395831
0.0117856
-0.0885023
-0.0439905
0.00656682
-0.0318219
-0.0405196
-0.0448183
-0.0112229
-0.0183861
-0.0104295
-0.0191235
0.00262981
-0.015343
-0.00711365
0.00132748
-0.00573637
0.000265116
-0.00941388
0.000857418
-0.00381201
0.00166927
-0.00750142
0.00100369
-0.00882846
0.0158015
-0.000173276
-0.00797514
0.0158163
-0.00183435
-0.00617041
0.0139144
-0.00216009
-0.00212078
0.0197854
0.00574553
0.0205341
0.106876
-0.0447291
-0.00944829
0.00402468
0.0306832
0.0055063
0.0076331
0.0105005
-0.000246591
0.00844161
0.0142602
0.000668932
0.0151131
0.00192627
-0.0162691
-0.0197114
-0.012678
0.030754
-0.020217
0.0462304
-0.0178289
-0.0512213
0.106765
-0.0244847
-0.0522869
0.121709
-0.0149326
-0.104292
-0.0445501
0.12554
-0.0301492
-0.0751453
-0.0286676
-0.0175128
-0.0288222
-0.0143863
-0.00298171
-0.0402544
0.0169992
-0.00217046
-0.0241242
-0.00527733
0.0279169
-0.00548689
-0.00857202
0.0163299
-0.00788593
-0.0093358
0.0144016
-0.00620562
-0.00948429
-0.0118184
-0.00276444
0.0501006
-0.0212203
-0.0125601
-0.00613125
0.000615226
-0.0119036
-0.00851946
-0.000104476
-0.00873329
-0.00718821
-0.00156134
-0.00495688
-0.00446838
-0.00157818
1.22234e-05
-0.000774675
-0.00381299
-0.000447716
-0.00984129
2.14204e-05
0.000443773
0.00126983
-0.00171789
0.00136779
-0.00209547
0.0033615
0.00174701
-0.00266426
0.00436552
0.00205674
-0.00198825
0.00370643
0.00175098
0.00266327
0.000705953
0.00452715
0.00262563
-0.00106648
0.00473475
0.00382897
-0.000405908
0.00459451
0.00490982
-0.000485105
0.00482493
-0.000755364
-0.00641235
0.0108617
-0.00420322
-0.00623044
0.010885
-0.00626874
-0.00535389
0.0100404
-0.00719349
0.00900119
-0.00779722
0.00658414
0.0118574
-0.00567284
0.00801908
0.0135819
-0.00507513
0.00821592
0.0151018
-0.00452025
0.0149091
-0.00312638
-0.00922204
0.0168473
-0.00133594
-0.00933506
0.0178525
-0.00274373
-0.00966695
0.0177494
-0.00394004
0.0104669
-0.00401449
0.0128608
-0.000418339
0.0102403
-0.00167498
0.00751155
0.0232675
-0.00290255
0.00737416
0.0182876
-0.000387876
0.0172821
0.0007294
-0.00887781
0.0484394
-0.025176
-0.00521634
0.0421014
-0.0276198
0.0449602
-0.0282672
0.0294723
0.117558
-0.057547
0.127386
-0.0450309
0.0508762
0.134814
-0.0387449
-0.0206059
0.0555232
0.13471
-0.0149329
0.0521253
0.129941
-0.00595004
0.115126
-0.00127237
-0.0502985
0.119575
0.00524622
-0.0560328
0.134912
-0.000319023
-0.0535576
0.140636
-0.00948401
-0.0448878
-0.0146393
0.139763
-0.128103
-0.0233389
0.133507
-0.0293425
-0.0128548
-0.0511928
-0.114268
0.0286539
0.119256
-0.105971
-0.0668418
0.118301
-0.0383527
-0.0495107
-0.0681293
-0.00473273
0.0138803
-0.0135359
-0.01932
-0.0195313
-0.00996526
-0.00601948
-0.0131144
-0.0029001
-0.0140006
-0.0040766
0.00257774
-0.0143742
-0.00819406
0.00317875
-0.0127365
-0.0106288
0.00253584
-0.00979502
-0.01452
0.00286534
-0.0107581
0.00114691
-0.0137601
0.0160428
-0.0137526
0.000615606
-0.00950336
-6.67725e-05
-0.015365
0.0144646
-0.00157648
-0.0167625
0.0116449
-0.00271168
-0.0180425
0.00965514
-0.00145844
0.0149443
-0.0254695
0.0110891
0.0251962
0.0187256
0.0207332
-0.049847
0.018843
0.0161754
0.0178348
-0.0277886
0.0305481
0.0160585
0.0191791
-0.0470784
0.0213521
0.013435
-0.0227718
0.0184044
0.0392668
-0.0422321
0.00893896
0.0152778
0.0201065
0.0463048
-0.0100997
-0.0171461
0.0253998
0.0300643
-0.0202216
-0.0152644
-0.0172086
-0.0205748
0.00992569
-0.018239
0.00381402
-0.0127918
-0.0179234
0.00437083
-0.0172153
-0.0123075
0.0033078
-0.0161066
-0.0141216
0.00228563
-0.0167928
0.00210212
-0.0176473
-0.0170713
0.0174351
0.000374148
-0.0162823
-0.000771039
-0.0183852
0.0156259
-0.00199019
0.0129981
-0.00309248
0.0175623
0.0143163
-0.00279225
0.0174163
-0.00140807
0.016495
0.0182247
-0.0170415
-0.000367052
0.0183689
0.0013325
-0.0151347
0.00285664
-0.0154953
0.00100596
0.017483
-0.0153974
-0.00120574
0.0144665
-0.00214915
-0.00752279
-0.0160084
0.0235701
0.016871
-0.00150283
-0.0143647
-0.0171212
-0.0261803
-0.0242461
-0.00254548
-0.105245
0.103713
0.00754317
0.00121442
0.0182408
0.0127153
0.023913
0.014698
-0.0202459
0.0176575
-0.00845665
0.0179698
-0.0122381
-0.00477066
0.00236126
-0.000510893
-0.00555083
0.00484842
-0.00582146
-0.00170724
-0.00210799
-0.00217587
-0.00379056
0.0131634
-0.000990105
-0.0031627
-0.00140222
-0.00338242
0.0163758
-0.0200676
-0.0115594
0.0154717
0.00687977
-0.0115984
0.0175896
0.00910614
-0.0132578
0.0201969
0.0089256
-0.0141903
0.0229413
0.00890744
0.0301489
0.0119825
0.00987164
0.0134659
0.012483
0.00947025
0.01326
0.00990352
0.00784096
0.0119129
0.00974249
0.00607059
0.0108018
0.00840419
0.0100038
0.00699218
-0.00219474
0.00341914
-0.0026048
0.00415842
-0.00326755
0.00475434
-0.00390137
0.0053963
0.00650518
0.00166283
0.00290002
0.00142127
0.00051123
0.000410146
0.00139253
-0.000142304
0.00198358
-0.00154969
-2.67049e-05
-0.000929156
0.00194374
0.000965563
-0.000332714
0.000793291
-0.0004365
0.00182523
-0.0011142
0.00121329
-0.000538709
0.000311282
-6.67384e-06
0.00202162
-0.00174025
2.66144e-05
0.00379357
-0.000563068
-0.00358857
0.0111373
-0.00637871
0.00356727
-0.018004
0.00336315
0.0170397
0.00387729
-0.0181176
0.0204117
0.00714125
0.00292947
0.00676657
-0.017063
0.0208292
0.000284488
0.00596558
0.019778
-0.014841
-0.0136317
0.0141782
0.00504053
0.0109727
-0.00738607
0.0172059
-0.0076542
0.0172629
0.0109157
-0.000400323
0.0199662
0.00717594
0.00334317
-0.00114819
0.00152928
-0.0035124
0.000377029
-0.00229147
0.0125891
0.00135512
-0.0023359
0.000799324
0.000617926
-0.000777264
0.00151261
-0.000567996
0.00156125
-0.000391515
-0.00124531
0.00106755
-0.00206968
0.000899419
-0.000211306
-0.000226541
-0.00163332
-0.000457109
-0.00209209
0.000247267
-0.00185455
0.0013993
-0.00137997
0.000392557
0.00011224
-0.00188603
0.000170292
-0.00141247
-0.000661982
-0.00126175
-0.00240615
0.00114905
0.00124396
0.000231504
0.000478804
-0.00129359
0.000448034
-0.00168424
-0.000480227
0.000534833
0.000391912
0.000108799
7.07452e-05
-0.000661123
0.00104471
0.000306311
0.000315759
-0.0008882
-0.00161296
0.00281352
-0.000775688
0.000276748
0.000178176
-0.000885526
-0.00113143
0.00380216
0.00137871
-0.000358773
-0.00302156
0.012264
-0.00264213
-0.00129193
-0.0017475
1.38053e-05
-0.000829726
0.000262514
-0.000727649
0.000328546
-3.94176e-05
-0.00112123
-4.3369e-05
0.00188097
-0.000306633
-0.00162102
-0.00132057
0.00321102
-0.000893611
-0.000167584
-0.0012422
0.00111863
0.00204099
0.000342282
0.000323621
0.000920321
-0.000127888
0.00191349
-0.00142314
-0.000170078
-0.00136911
0.00319052
8.77067e-05
-0.000654156
0.000202191
0.00285779
-0.00405173
0.0132944
-0.00114054
-0.0180429
0.000758894
0.00704943
0.0245272
-0.0164875
0.0218843
0.00640953
-0.0177705
0.0225701
-0.00209343
-0.014881
-0.00438919
-0.0206835
-0.0218554
-0.00631359
-0.0218879
-0.00573326
0.0151514
-0.00262401
0.0197839
0.0317756
0.0374401
-0.0235828
-0.101062
0.0665389
-0.0967368
0.0700357
-0.107805
0.0712583
-0.0170998
-0.110049
0.0686896
-0.0248507
-0.106598
0.0674596
-0.0296497
-0.0981325
0.0663163
-0.0331822
-0.086059
0.0636716
-0.0357933
-0.0686728
0.0577474
-0.0379418
-0.0489422
0.0533894
-0.0376794
-0.0388629
0.0427465
-0.0317758
0.00387875
-0.0299009
0.0162718
0.0324415
-0.0455021
0.0141953
0.044515
-0.043106
-0.00720167
0.0475427
-0.026557
-0.0342918
0.0266515
-0.0510315
-0.0128806
0.0291531
-0.0596807
-0.0245275
0.0326739
-0.0619941
-0.0310848
0.032872
-0.0555964
-0.0383275
0.0314035
-0.0475725
-0.0354215
0.0268948
-0.0301825
-0.0336836
0.0158264
0.00335773
-0.033979
0.0202507
0.0444364
-0.0619662
0.042832
0.0555203
-0.0788677
0.0680656
0.0548362
-0.0808898
0.0881569
0.0523463
-0.0732622
0.0994272
0.0477168
-0.0598438
0.100504
0.0399546
-0.0418539
0.0952853
0.0339963
-0.0295878
0.083608
0.0306066
-0.0196495
0.0471593
0.0376685
-0.00179338
0.0226854
0.0229485
0.001329
0.0194733
0.00390623
-0.000798896
0.0180896
0.000486963
0.000793942
0.0149597
0.000140955
0.00287861
0.00868917
1.94643e-05
0.00615216
0.00913276
-0.00053121
0.00723509
0.00339625
-0.0015692
0.00462867
0.00387892
-0.0013196
0.00482168
0.00166433
-0.00192014
0.00578369
0.00185724
-0.0028981
0.00549829
0.00304124
-0.00283366
0.00437634
0.00332484
-0.00227244
0.00341032
0.00270193
-0.00179052
0.00556421
0.00167426
-0.00390516
0.0120532
0.00179692
-0.00850443
-0.01432
0.030875
-0.0051197
-0.0441401
0.0253642
0.00369669
-0.0586539
0.0111293
0.00255059
-0.0654148
-0.00152642
0.00741439
-0.0706658
-0.0163205
0.0206671
-0.0757137
-0.0313083
0.0354341
-0.0768146
-0.0459287
0.0460925
-0.0738063
-0.0592467
0.0552933
-0.0633827
-0.0713563
0.0599806
-0.0453118
-0.0811981
0.06217
-0.0173931
-0.0878618
0.0589798
0.0169255
-0.0840786
0.0487992
0.0324428
-0.0587621
0.0422835
0.0314735
-0.045174
0.0452209
0.0238503
-0.0355727
0.0422926
0.00991107
-0.0264805
0.0395926
-0.000558223
-0.0233751
0.0330425
-0.0348856
0.0335781
-0.0504547
-0.0195418
0.0343131
-0.0576505
-0.0343138
0.0406989
-0.0580598
-0.0491531
0.0486879
-0.0495316
-0.0641979
0.0547945
-0.0255695
-0.0817825
0.0569218
0.00460508
-0.0831856
0.052135
0.00986702
-0.047121
0.0409937
-0.00781416
-0.0264507
0.043322
-0.02106
-0.028429
0.040889
-0.00471804
-0.0605502
0.0434701
-0.0524074
0.0431739
-0.0150693
-0.0691349
0.00166872
0.0185605
-0.0549093
-0.0401554
0.0286164
-0.0394069
4.65313e-05
0.0322023
-0.0477295
0.0167989
0.0305855
-0.0775107
0.0310822
0.0412833
-0.126518
0.031696
0.0547089
-0.12349
0.0273364
0.0573689
-0.0962995
0.0285103
0.0524041
-0.0728053
0.0277113
0.0418049
-0.0518246
0.02725
-0.030209
0.0282743
-0.0369748
-0.0476898
0.0271041
-0.0390173
-0.0574305
0.022971
-0.0334971
-0.0685696
0.016905
-0.00526739
-0.0846941
-0.00329574
0.0353583
-0.119787
-0.00592287
0.0613993
-0.125494
0.0105853
0.0767007
-0.118807
0.0213066
0.0841235
-0.104666
0.0248913
0.0835218
-0.086618
0.0269831
0.079424
-0.0664303
0.0236171
0.0716007
-0.0452659
0.0208091
0.0639189
-0.0239767
0.0143798
0.0558173
-0.00257675
0.00821041
0.0421721
0.0155366
0.0083113
0.0173911
0.0355269
0.0137021
-0.00939682
-0.00049908
0.0474206
0.00975563
0.00823644
-0.00350152
-0.0087733
-0.00551231
0.0147961
-0.00308546
-0.0041098
0.0104789
-0.00265411
0.00839574
-0.00155261
0.0135282
-0.00107215
-0.00318346
0.00110501
-0.00671559
0.0271582
0.00200056
-0.00901569
-0.00776149
-0.00151709
0.00144121
-0.00799982
-0.00381749
0.00132655
-0.00670263
-0.00495996
0.000494968
-0.00495217
-0.00560468
0.000271283
0.00223277
-0.00398602
-0.000551245
0.00494782
-0.00106408
-0.00208079
-0.000315466
-0.00044203
-0.00132723
-0.000742241
-0.000639342
-0.000568012
-0.000580767
0.000403972
-0.00110259
-0.00339926
0.0130628
-0.0054254
-0.0118498
0.00299693
0.0221272
-0.00783468
-0.00990566
0.0593512
-0.0308522
-0.0292747
0.0168009
0.0539601
-0.0215452
0.0297252
0.0315475
-0.0137507
0.0377925
-0.00849977
-0.00350132
0.0500254
-0.038122