/*--------------------------------*- C++ -*----------------------------------*\
| =========                 |                                                 |
| \\      /  F ield         | OpenFOAM: The Open Source CFD Toolbox           |
|  \\    /   O peration     | Version:  v2012                                 |
|   \\  /    A nd           | Website:  www.openfoam.com                      |
|    \\/     M anipulation  |                                                 |
\*---------------------------------------------------------------------------*/
FoamFile
{
    version     2.0;
    format      ascii;
    class       volScalarField;
    location    "365";
    object      nut;
}
// * * * * * * * * * * * * * * * * * * * * * * * * * * * * * * * * * * * * * //

dimensions      [0 2 -1 0 0 0 0];


internalField   nonuniform List<scalar> 
18258
(
0.00417743
0.00181956
0.0014898
0.00129008
0.000856248
0.00139983
0.00194458
0.00231507
0.00242927
0.00240948
0.00249568
0.00421297
0.00591373
0.00730996
0.00768002
0.0076687
0.00696345
0.00665016
0.00722666
0.00887792
0.0074543
0.00477713
0.00571684
0.00661481
0.00721
0.00638841
0.00516825
0.00478295
0.00432965
0.00360966
0.00303062
0.00208375
0.00151242
0.00140114
0.0012713
0.0014497
0.00157934
0.0016848
0.0017222
0.00174936
0.00173755
0.00172773
0.001681
0.00165111
0.00160009
0.00131988
0.0015793
0.00166714
0.00182091
0.00250549
0.00268664
0.00225724
0.00249525
0.00222533
0.0014665
0.00167889
0.0018224
0.00186144
0.00183736
0.00176099
0.00173523
0.00171343
0.00168583
0.00165308
0.00163314
0.00164956
0.00166672
0.00164871
0.00156782
0.00150231
0.00139629
0.00128997
0.00121119
0.00115015
0.00110412
0.00105291
0.000995358
0.000874305
0.00081031
0.00107286
0.0013469
0.00143917
0.00203992
0.00248721
0.00250431
0.00187477
0.00133619
0.00138687
0.00154161
0.00155678
0.00131892
0.00156723
0.00177488
0.00183943
0.00191679
0.00214275
0.00244071
0.00237974
0.00211971
0.00195421
0.00190055
0.00218433
0.00207995
0.00269758
0.00271386
0.00235923
0.00219492
0.00246876
0.00318425
0.00342315
0.00265804
0.00249705
0.00244794
0.00241603
0.00218583
0.00226327
0.00205605
0.00185262
0.00201875
0.00243873
0.00231285
0.00252552
0.00261752
0.00245598
0.00284604
0.00328173
0.00323456
0.00258828
0.00211122
0.00196797
0.00198276
0.00121264
0.00130947
0.00141044
0.001445
0.00146934
0.00148998
0.00158849
0.0015849
0.00156147
0.00155802
0.00158455
0.000873572
0.000946559
0.000970171
0.000976976
0.000928121
0.000918517
0.000901311
0.000887361
0.000837051
0.000800961
0.0009583
0.001076
0.00117191
0.00128409
0.00145117
0.00165556
0.00187035
0.00208739
0.00223091
0.0022718
0.00231307
0.00222936
0.00214497
0.00222147
0.00223441
0.00222008
0.00219033
0.00215275
0.00210198
0.00200884
0.00211649
0.00211047
0.00198271
0.00169993
0.00173778
0.00173491
0.00178019
0.00177118
0.00178909
0.00176365
0.00173348
0.00164965
0.00153215
0.00127418
0.0012515
0.00126555
0.00162329
0.00196941
0.00304066
0.00370604
0.00429857
0.00459638
0.00491422
0.00398066
0.00443283
0.00342017
0.00306944
0.00389975
0.00509948
0.00291006
0.00159103
0.00301836
0.00268019
0.00194776
0.00173433
0.00178814
0.00178609
0.00204261
0.0023565
0.00261924
0.00274614
0.00285709
0.00294579
0.00304338
0.00316691
0.00320127
0.00309255
0.00261795
0.00315519
0.0025661
0.0030016
0.0027179
0.00184223
0.00188947
0.00202001
0.00185512
0.00180672
0.00172522
0.00155971
0.0019427
0.00250425
0.00290404
0.00331958
0.00442868
0.00409687
0.00392686
0.00304056
0.00294039
0.00152608
0.00217601
0.00226194
0.00254851
0.00169368
0.00154686
0.0014698
0.00194152
0.0022491
0.00265246
0.00294201
0.00349307
0.00271273
0.0031032
0.00281189
0.00196398
0.00188545
0.00269633
0.00290188
0.0023837
0.00212847
0.0026726
0.00253152
0.00179724
0.00142547
0.00219264
0.00226633
0.00163208
0.00406527
0.00434981
0.00413749
0.00503457
0.00630773
0.00719282
0.00671082
0.00595373
0.00663155
0.00526372
0.0051099
0.00545786
0.00458604
0.00320761
0.00328622
0.00339656
0.00348794
0.00374454
0.00397771
0.00426251
0.00453293
0.00412076
0.0034231
0.00259176
0.00178317
0.00175826
0.00174904
0.00157059
0.00232768
0.00352313
0.00350066
0.00199
0.00115951
0.00131056
0.00147954
0.00146492
0.00106359
0.000800272
0.00137846
0.00157623
0.00160176
0.00156205
0.00147486
0.00154126
0.00247526
0.00381344
0.0041902
0.00433998
0.00448175
0.00458194
0.00463778
0.00465561
0.00466563
0.00467787
0.00468864
0.00470491
0.00469048
0.00459071
0.004038
0.00253888
0.001484
0.00137838
0.00152125
0.00163488
0.00173401
0.00147549
0.000902346
0.001441
0.00184533
0.00212109
0.00213926
0.0019965
0.00193674
0.00305404
0.00406074
0.00478654
0.00493369
0.00499942
0.00494493
0.00493837
0.00483136
0.00479892
0.0042094
0.00300789
0.00328759
0.00352962
0.00356948
0.00365152
0.00377496
0.00368763
0.00348532
0.00508988
0.00587621
0.00595202
0.00607886
0.00600746
0.00590476
0.00563774
0.00533216
0.00448928
0.00336678
0.00212456
0.0021691
0.00230932
0.00228731
0.00199127
0.00209745
0.00227629
0.0022991
0.00237438
0.00266262
0.00302408
0.00288502
0.00248336
0.00210876
0.00196341
0.00192154
0.00184313
0.0013798
0.00140096
0.00136241
0.00138521
0.00186141
0.00221556
0.00255496
0.00362304
0.0032318
0.00262829
0.00416669
0.0042705
0.00458846
0.00506958
0.00519507
0.00575585
0.00400451
0.00360904
0.00370733
0.0030287
0.00280351
0.00283343
0.00284412
0.00265101
0.00290157
0.00287591
0.00277179
0.00306007
0.00337164
0.00444562
0.00538627
0.00568255
0.0058536
0.00592375
0.00590229
0.00578901
0.00582697
0.00511992
0.00511875
0.00490141
0.00476086
0.00471141
0.00447968
0.00512313
0.00531776
0.00538257
0.00551661
0.0057256
0.00556854
0.00539619
0.00526482
0.00516968
0.00507036
0.00512324
0.005218
0.00531924
0.00546139
0.00565099
0.00568156
0.00548504
0.00533642
0.00523479
0.00513935
0.00514278
0.00522781
0.00532701
0.00546787
0.00564779
0.00554771
0.00540772
0.00528312
0.005181
0.00509114
0.00491292
0.00503119
0.00516133
0.00526858
0.00533816
0.00461265
0.00493039
0.00484563
0.00438721
0.00410634
0.00311846
0.0033749
0.00355885
0.00387627
0.00430272
0.00438642
0.00368113
0.00315469
0.00307418
0.00304942
0.00312151
0.00314731
0.00316252
0.00357336
0.00538345
0.00542119
0.00543757
0.00544057
0.00465267
0.00452021
0.0042096
0.00769709
0.00716753
0.00621067
0.00512059
0.00274347
0.00235161
0.00278538
0.0033874
0.00378757
0.00418018
0.00277484
0.00171926
0.00200399
0.00207823
0.00202792
0.00187453
0.00156139
0.0014413
0.00130817
0.00140774
0.00249266
0.00397693
0.00447931
0.00452676
0.00448192
0.00439501
0.00428966
0.00414305
0.00408186
0.00512852
0.00691835
0.00784788
0.00782119
0.00672036
0.00547073
0.0030787
0.00157684
0.0011466
0.00125852
0.00138196
0.00162647
0.00145154
0.00120627
0.00132145
0.00125804
0.00255227
0.00441452
0.00564416
0.00669165
0.00657293
0.00570042
0.00467928
0.00444469
0.00454927
0.00461804
0.00467773
0.00473909
0.00478132
0.00475501
0.00432845
0.0026748
0.00159684
0.00141883
0.00152583
0.00178824
0.00190004
0.00191909
0.00189211
0.00164001
0.00271163
0.00430649
0.00273851
0.00149443
0.00161494
0.00160338
0.00282827
0.00282371
0.00276231
0.00429751
0.00454362
0.00453196
0.00425844
0.00406576
0.00240715
0.00273132
0.00274029
0.00275476
0.0028
0.00141429
0.00154159
0.00158957
0.00171107
0.00149882
0.00190213
0.000492201
0.000682203
0.000792313
0.000861272
0.000927796
0.000910096
0.0017407
0.0017658
0.0016857
0.00164186
0.0020839
0.00223634
0.00228579
0.00210555
0.00194289
0.00206823
0.00207264
0.00195311
0.00185008
0.00191844
0.00191983
0.00183963
0.00156468
0.00146614
0.00160968
0.00159237
0.00157959
0.00283688
0.0028318
0.00267984
0.00440292
0.00433226
0.00485215
0.00482075
0.00481537
0.00479617
0.00484737
0.004874
0.00489412
0.00491787
0.0049081
0.00486097
0.00676773
0.0047806
0.00417183
0.00241265
0.00232405
0.00164136
0.0014384
0.00169376
0.00181154
0.00196396
0.00191955
0.00202364
0.00202137
0.00214473
0.00199068
0.00176762
0.00270748
0.00289244
0.00282501
0.00288091
0.0028131
0.00279658
0.00277592
0.0027364
0.00268883
0.00160095
0.00157042
0.00183897
0.0019304
0.00207426
0.00209306
0.0021385
0.00202818
0.00178378
0.00172667
0.0019885
0.00196166
0.00199977
0.00188541
0.00187764
0.00167277
0.00171517
0.0034606
0.00639313
0.00328752
0.00365203
0.00330797
0.00376268
0.00329539
0.00284163
0.00290835
0.0025615
0.00267202
0.00280285
0.00285357
0.00299911
0.00353514
0.00340381
0.00298792
0.00290119
0.00284397
0.00268138
0.00241344
0.00252847
0.00255147
0.00260627
0.0028965
0.00332305
0.00372558
0.00452738
0.00439355
0.00384893
0.00351874
0.00369051
0.00375372
0.00472574
0.00441545
0.00438914
0.0046292
0.00458285
0.00435008
0.00412217
0.00397899
0.00341565
0.00347163
0.00397405
0.00384557
0.00396318
0.00389395
0.0040476
0.00412107
0.00395594
0.00367661
0.00386325
0.00385461
0.00428148
0.00416464
0.00386274
0.00353543
0.00377714
0.00373036
0.00431041
0.00405836
0.00379569
0.003493
0.00334511
0.00379682
0.00372792
0.00422814
0.00434973
0.00435156
0.00379293
0.00370526
0.00440775
0.00424105
0.0040954
0.00426586
0.00353197
0.00363366
0.00447709
0.00457103
0.00433595
0.00361879
0.00367505
0.00315113
0.00370655
0.00461384
0.00435734
0.00357114
0.00296217
0.00414613
0.00436277
0.00461612
0.00436197
0.00475169
0.00511898
0.0041717
0.00453877
0.00593232
0.00452542
0.00525178
0.00536851
0.00540067
0.00540418
0.00542605
0.00545445
0.00574858
0.00559688
0.00355344
0.00425198
0.00412837
0.0034505
0.00293125
0.00322941
0.00347798
0.00352778
0.0036168
0.00375445
0.00369082
0.00357289
0.00522617
0.00596227
0.00609566
0.00621897
0.00611786
0.00596628
0.00561685
0.00518734
0.00429686
0.00320318
0.00199619
0.00203445
0.00216806
0.00214689
0.00186257
0.00140627
0.000923433
0.00137169
0.00141748
0.00133397
0.00121472
0.00106944
0.0011023
0.00202542
0.00412389
0.00549812
0.00603667
0.00647908
0.00696197
0.00742738
0.00778079
0.00803503
0.00820547
0.00830868
0.00832562
0.00815612
0.00743224
0.00711346
0.00671793
0.00639508
0.00593865
0.00556245
0.0062834
0.00689409
0.00726863
0.00769114
0.0078848
0.00780108
0.00678129
0.00659524
0.00759171
0.00934027
0.00794241
0.0099721
0.0117227
0.00914485
0.00821922
0.00820392
0.00915084
0.00932638
0.00899731
0.00848539
0.00789967
0.00716041
0.00752602
0.00785418
0.00816655
0.00845296
0.00926103
0.00941703
0.00935443
0.00921653
0.0090323
0.00876561
0.00833653
0.00773817
0.00706732
0.00642174
0.0056772
0.00414789
0.00186905
0.00218939
0.00213942
0.00241078
0.00228505
0.00100902
0.00110359
0.00111853
0.0011267
0.00106712
0.00121242
0.00175993
0.00287478
0.0020659
0.0016927
0.00117417
0.00138774
0.00232152
0.00395238
0.00446327
0.00453866
0.00458884
0.0059629
0.00685051
0.00728054
0.0076122
0.00783402
0.00772435
0.007469
0.00702191
0.00649646
0.00628748
0.00595688
0.00564703
0.00547833
0.00529596
0.00497895
0.00394974
0.00372264
0.00387474
0.00383852
0.00367668
0.00392291
0.00406187
0.00405682
0.00410094
0.00414001
0.00426228
0.00440642
0.00453211
0.00459849
0.00462373
0.00463242
0.00464308
0.00465183
0.00466728
0.00465262
0.00455176
0.00399751
0.00249961
0.0014588
0.0013486
0.00147873
0.00156376
0.00160013
0.00142074
0.000914335
0.0014211
0.00183943
0.0018866
0.00207
0.00213573
0.00226524
0.00252479
0.00291848
0.0030122
0.00267305
0.00253185
0.00247707
0.00241398
0.00205811
0.00256498
0.00283729
0.00283293
0.00280728
0.00303445
0.00373457
0.00358729
0.00316249
0.00312569
0.0030931
0.00278933
0.00274567
0.00300868
0.00304277
0.00315862
0.00370536
0.00444492
0.00412247
0.00375324
0.00359478
0.00331794
0.00291341
0.00263286
0.0032655
0.00268964
0.00138506
0.00117439
0.00118216
0.00118112
0.00113359
0.00134246
0.00141187
0.00143188
0.00133716
0.00148502
0.00165366
0.00160263
0.00181777
0.00179062
0.00159803
0.00158008
0.00172048
0.00182651
0.00187882
0.00191894
0.00314067
0.00323137
0.00251168
0.00364505
0.00420078
0.00420769
0.00446069
0.00365782
0.00326981
0.00388393
0.00450554
0.00519746
0.00409492
0.00386333
0.00396581
0.00180915
0.000951685
0.00134328
0.0016677
0.00185723
0.00180138
0.00170248
0.00144003
0.00256155
0.0026295
0.00417555
0.00468224
0.0047391
0.0047027
0.00472431
0.00518542
0.00601849
0.00681492
0.00704207
0.00693432
0.00662833
0.00606977
0.00552797
0.0054883
0.00530831
0.00516521
0.00512381
0.00447353
0.00391466
0.00415808
0.00410702
0.004243
0.00430596
0.00435161
0.00439874
0.00447816
0.00457425
0.00466194
0.00472251
0.00476355
0.00479855
0.00483442
0.00487051
0.00490943
0.00493125
0.00488626
0.0044176
0.00264887
0.00157853
0.00143954
0.00153598
0.00180544
0.00190099
0.00204299
0.00181358
0.000955001
0.00112376
0.00195228
0.00216567
0.00200377
0.00187515
0.00184222
0.00154297
0.00279707
0.00276165
0.00433678
0.00487542
0.00494129
0.00492506
0.0048844
0.00483865
0.00479435
0.00475797
0.00472898
0.00469887
0.00465719
0.00460808
0.00456067
0.00451131
0.00442946
0.00430908
0.00420146
0.00438399
0.0044967
0.00469414
0.00491891
0.00503049
0.00493661
0.00479062
0.00472284
0.00475307
0.00479781
0.00484424
0.00488653
0.00490968
0.00485787
0.00458078
0.00429888
0.00272069
0.00275658
0.00135447
0.00150432
0.00173611
0.00179321
0.00194729
0.00193805
0.00152271
0.00118616
0.00133835
0.00125161
0.0022379
0.00246144
0.00273097
0.00270411
0.001467
0.0015047
0.00156353
0.00176361
0.00163847
0.00158433
0.00394032
0.0037667
0.00393654
0.00483442
0.00416281
0.00287242
0.00314852
0.00438123
0.00462178
0.00279331
0.00209348
0.00232387
0.00294407
0.00433344
0.0043886
0.00417032
0.00414545
0.00302511
0.00371527
0.00447134
0.0043514
0.00339159
0.00233795
0.00174052
0.00084322
0.00160412
0.00137168
0.00336519
0.00372482
0.00368225
0.00402941
0.00427913
0.00432312
0.00420264
0.00372362
0.00379792
0.00383608
0.00437358
0.00439555
0.0037164
0.00313584
0.00254351
0.002567
0.00261768
0.00290202
0.00363461
0.00342398
0.0030003
0.00290851
0.00284496
0.00267542
0.0024137
0.0021171
0.00213197
0.00198453
0.00192073
0.00302834
0.00403184
0.00475511
0.00489191
0.00494126
0.00486494
0.00482978
0.00469072
0.00461824
0.00401123
0.00511941
0.00541198
0.00522433
0.00526473
0.00529911
0.00534081
0.00534268
0.00524271
0.00450362
0.00268886
0.00175605
0.00198213
0.00213928
0.0020085
0.00199742
0.00212927
0.00202069
0.001775
0.002876
0.00281101
0.00449544
0.00509233
0.00520057
0.00520539
0.00518313
0.00516418
0.00516944
0.00544048
0.00531794
0.00540169
0.00569892
0.00570514
0.00577245
0.00541863
0.00534869
0.0053037
0.00527343
0.00522479
0.00509605
0.00450931
0.00437167
0.00496495
0.00511836
0.00518673
0.00523425
0.0052908
0.00536465
0.0055771
0.00573564
0.0057975
0.00555449
0.00545977
0.00533217
0.00515255
0.0051109
0.00510393
0.00510095
0.00507751
0.00494689
0.00435415
0.0027995
0.00286889
0.00170652
0.00171758
0.00197825
0.00207756
0.00204027
0.00188929
0.00184197
0.00317509
0.00361613
0.0038433
0.00414507
0.00396004
0.00393546
0.00449921
0.00435436
0.00388097
0.00403847
0.00361888
0.00344606
0.00334245
0.00336299
0.00176108
0.00190046
0.0019825
0.00194982
0.00186431
0.00166294
0.00152487
0.00278315
0.00276279
0.00272733
0.00162128
0.00158566
0.00186823
0.0018142
0.0016595
0.00141449
0.0015508
0.00239544
0.00267943
0.00415422
0.00430346
0.00460571
0.00492467
0.00504473
0.0050765
0.00509568
0.00511664
0.00516432
0.00522083
0.00523771
0.00523872
0.00528721
0.00527807
0.00528023
0.00525415
0.00522325
0.0051865
0.00514671
0.00508091
0.00494536
0.00462087
0.00430275
0.00485093
0.00489575
0.004987
0.00508104
0.00512076
0.00512623
0.00510627
0.00506723
0.00502053
0.00496786
0.00496462
0.00510634
0.00514265
0.00516787
0.0051523
0.00513419
0.00512892
0.00510651
0.00507051
0.00497783
0.00488455
0.00484507
0.0047641
0.00489002
0.00494624
0.00495403
0.00500096
0.00507649
0.00509828
0.00509779
0.00505962
0.00502812
0.00498669
0.00491818
0.00482515
0.00453048
0.00459612
0.00467657
0.00478279
0.00488521
0.004968
0.00501506
0.00501967
0.0049748
0.00494442
0.00494582
0.00490411
0.00492567
0.00494772
0.00492194
0.00491781
0.00491947
0.00486014
0.00475526
0.00461036
0.0044582
0.00433546
0.00427868
0.00417872
0.00449677
0.00463101
0.00474829
0.0048511
0.00494335
0.00503641
0.00506366
0.00505253
0.00499719
0.00496584
0.00496507
0.0049176
0.00491395
0.0049597
0.00496104
0.00498714
0.00503424
0.00502249
0.0049571
0.00478212
0.00461298
0.00446546
0.00432302
0.00416976
0.00416602
0.00423413
0.00416479
0.00421099
0.00435314
0.0045364
0.00469672
0.00480236
0.00483732
0.00486927
0.00491476
0.00491061
0.00488371
0.00486821
0.00480685
0.00475282
0.00468672
0.0045453
0.00436823
0.00421595
0.00417578
0.00426732
0.00435212
0.0042727
0.00394327
0.00410108
0.00425205
0.00439973
0.00460978
0.00485299
0.00495588
0.00499257
0.00496828
0.00494933
0.00494702
0.00490364
0.00488717
0.00492723
0.00493064
0.00495036
0.00498143
0.00495452
0.00487264
0.00457548
0.00422051
0.00404977
0.00394788
0.00381448
0.00429357
0.00438409
0.0042751
0.00420071
0.00431143
0.00443753
0.00456949
0.00465817
0.00469421
0.00474629
0.00481474
0.00484814
0.00480005
0.00474336
0.00467398
0.00463888
0.00464104
0.0046217
0.00453812
0.00443731
0.00431511
0.00446084
0.00454764
0.00446525
0.00402266
0.0040886
0.00419526
0.00425445
0.0045885
0.00487745
0.00493987
0.0049376
0.00490454
0.00488298
0.00488294
0.00485755
0.00480912
0.00480052
0.00479711
0.00485614
0.00493381
0.00498342
0.00501005
0.00479499
0.00439922
0.00433242
0.00413853
0.00405452
0.00452526
0.00457629
0.00446682
0.00436897
0.00458234
0.00467133
0.00469399
0.00467263
0.00462075
0.00458666
0.00464557
0.00473914
0.00466853
0.004365
0.00409586
0.00423556
0.00427137
0.00426254
0.00420614
0.00410966
0.00389748
0.00435541
0.00480407
0.00483766
0.00434576
0.00435351
0.0042323
0.00393981
0.0043233
0.00452276
0.00456315
0.00453869
0.00446328
0.00429056
0.00453121
0.00474381
0.00470274
0.00425672
0.00276181
0.00279909
0.00281774
0.00281953
0.00278329
0.00277299
0.00273341
0.00271292
0.0026517
0.00258912
0.00252998
0.00269672
0.00283883
0.00303176
0.00304862
0.00312888
0.00300031
0.00284454
0.00265985
0.00207742
0.00263489
0.00314137
0.00333592
0.00358659
0.00363747
0.00418317
0.00439594
0.00450878
0.00441996
0.00354836
0.00301048
0.0024065
0.00156527
0.000975521
0.00114528
0.0011915
0.00125355
0.0015355
0.00282279
0.00144289
0.00199465
0.0015588
0.00267633
0.00142307
0.000890867
0.000589446
0.000750138
0.000889797
0.000898772
0.000863508
0.00072083
0.000569119
0.000581743
0.00054436
0.000578569
0.00052173
0.000597658
0.00055705
0.000766516
0.00111708
0.00129753
0.00133019
0.00107698
0.00121818
0.00101813
0.00117632
0.0010517
0.00114693
0.00110065
0.00134615
0.00147531
0.00141194
0.00141523
0.00123833
0.000865965
0.00100402
0.000788715
0.000947307
0.000724675
0.000935115
0.000801843
0.00104186
0.00107382
0.00107051
0.00103048
0.000787025
0.000932668
0.000734548
0.000902567
0.00074256
0.000790767
0.000657718
0.00095415
0.000971888
0.00089652
0.00095191
0.00106682
0.00114212
0.00125589
0.00119014
0.00135764
0.00131292
0.00133145
0.00126197
0.00122794
0.00120045
0.0012035
0.00118401
0.00119058
0.00122895
0.00123059
0.00123524
0.00127393
0.00125547
0.00122462
0.0012057
0.00107121
0.000865033
0.00150706
0.00155398
0.00157791
0.00157816
0.0015436
0.00152506
0.00146924
0.00145486
0.00140715
0.00138086
0.00131786
0.00126812
0.00121004
0.00136162
0.000762626
0.000866193
0.000914517
0.000942405
0.000961098
0.000970025
0.000976593
0.000970998
0.000958625
0.000935485
0.000928207
0.000902745
0.00115442
0.00131342
0.001374
0.00139056
0.00130315
0.00124122
0.00272641
0.00330345
0.00501087
0.00512215
0.00385143
0.00383727
0.00132342
0.00139981
0.000955844
0.00134311
0.00138491
0.00137057
0.00129429
0.000933236
0.00140076
0.00097668
0.00131151
0.0009854
0.00120767
0.00100244
0.00142566
0.00181899
0.00175634
0.00159115
0.00108958
0.000908137
0.000908778
0.000778073
0.000854016
0.000704416
0.000864456
0.00072899
0.00106828
0.00149552
0.00167961
0.00171571
0.00135421
0.00186972
0.00140649
0.00203864
0.00162234
0.00200397
0.00161058
0.0018622
0.00230449
0.00231507
0.00225989
0.00182105
0.00145719
0.0016366
0.00144882
0.00166991
0.00241559
0.00158224
0.00240713
0.0009933
0.00135412
0.0013959
0.00137679
0.00129805
0.00087398
0.00222443
0.0011768
0.00208809
0.00135076
0.00215855
0.00157129
0.00208286
0.00248904
0.00260397
0.00259304
0.00211818
0.0019126
0.00197849
0.00157927
0.00189618
0.00141436
0.00205378
0.00116915
0.00151746
0.00167057
0.00176169
0.001767
0.00144943
0.00286689
0.00180195
0.00272029
0.00189424
0.00242811
0.00194725
0.00212811
0.00251408
0.00249793
0.00247624
0.00209946
0.00169955
0.00224416
0.00159876
0.0480646
0.11072
0.0442164
0.112001
0.0506583
0.0719489
0.0708849
0.0710155
0.0712885
0.0535773
0.116805
0.137904
0.143777
0.145535
0.144466
0.233419
0.190358
0.285892
0.185244
0.109135
0.0474135
0.0652828
0.168265
0.277719
0.416888
0.529055
0.360602
0.373291
0.238214
0.234874
0.221196
0.179057
0.109962
0.0552168
0.00939012
0.0102358
0.0146788
0.0195758
0.0153617
0.00937346
0.00185753
0.00191628
0.00195887
0.001985
0.00197681
0.00193249
0.00195959
0.00184525
0.00172936
0.00193073
0.00210684
0.00234544
0.00274084
0.00302086
0.00272095
0.00297922
0.00315579
0.00329989
0.00341958
0.00359817
0.00379928
0.00397518
0.00398444
0.0036512
0.00311264
0.00253185
0.00212735
0.00201509
0.00189209
0.00166849
0.00152615
0.00142832
0.0013815
0.00136223
0.00140007
0.00153032
0.00164351
0.00168324
0.00165039
0.00162011
0.00159373
0.00141917
0.00165941
0.00227625
0.00229359
0.00392972
0.00452808
0.00462233
0.00462889
0.00410266
0.00262066
0.0026266
0.00264018
0.00269109
0.00270186
0.00270975
0.00270721
0.00269875
0.00268324
0.00265475
0.00264017
0.00259757
0.00256129
0.00247003
0.0024741
0.00250707
0.00253242
0.00249072
0.00250108
0.0024477
0.0031875
0.00425827
0.00479992
0.00501527
0.00520063
0.00504758
0.00699629
0.00598702
0.00420846
0.00414488
0.00409216
0.00485861
0.00489052
0.0043996
0.00441721
0.00404763
0.00252487
0.00251667
0.00251818
0.00269325
0.0027461
0.00283725
0.0028626
0.00288302
0.00289608
0.00288727
0.00288453
0.00285633
0.00283636
0.00277077
0.00274904
0.00273967
0.00151064
0.00164883
0.00171095
0.00172331
0.00175005
0.00174061
0.00173214
0.00171188
0.00169933
0.00167126
0.00163937
0.00159071
0.00149552
0.00136236
0.00149998
0.00254573
0.00254538
0.00415525
0.00466316
0.0046964
0.00524997
0.00498261
0.00471976
0.00506853
0.00455691
0.00451883
0.00410273
0.00254836
0.00258255
0.00153326
0.0015185
0.00177583
0.00172604
0.0018446
0.00189481
0.00189939
0.00192483
0.00194884
0.00197901
0.0020269
0.00203981
0.00200521
0.00199771
0.00188161
0.00162607
0.00164504
0.00193907
0.00203387
0.00189055
0.00186017
0.00184765
0.00180445
0.00177089
0.00173875
0.00176229
0.0018986
0.00189731
0.00186418
0.00177513
0.00172961
0.00150015
0.00145096
0.00253085
0.00255745
0.0041949
0.00431344
0.00429649
0.00495372
0.00552477
0.00628124
0.00535869
0.00434216
0.00446221
0.00510124
0.00378414
0.00314949
0.00186731
0.00143376
0.0017476
0.00167454
0.00174328
0.00180601
0.00160317
0.00172123
0.00159046
0.00144505
0.00143651
0.00143458
0.00146956
0.0014843
0.00151071
0.0015142
0.00154931
0.00154548
0.00154858
0.0015672
0.00157335
0.00173808
0.00188655
0.00158869
0.0013477
0.00131503
0.00124213
0.00118349
0.00121279
0.00118482
0.00117776
0.00115648
0.00113705
0.00108532
0.00113128
0.00120082
0.0014052
0.00134562
0.0010873
0.000971138
0.000663736
0.0006766
0.000681265
0.000702074
0.000709703
0.000719036
0.000722516
0.000734109
0.000736348
0.000739975
0.000739659
0.000757017
0.000754337
0.000745411
0.000739796
0.000743337
0.000746514
0.000745785
0.00109198
0.00121539
0.0013254
0.00157343
0.00185037
0.00159285
0.00135086
0.00116644
0.000750109
0.000761347
0.000774932
0.000782083
0.000798299
0.000813296
0.00082975
0.000840192
0.000847819
0.000855979
0.000864526
0.000867932
0.000865654
0.000848967
0.000839072
0.000860555
0.000945787
0.000995409
0.00105897
0.00108307
0.00110373
0.00111421
0.00110894
0.00112052
0.00110731
0.00110554
0.00108654
0.00107851
0.0010707
0.00106102
0.0010489
0.00101915
0.00100918
0.00106185
0.00179612
0.00234785
0.00270296
0.00297654
0.00274292
0.00221628
0.00234053
0.00410477
0.00387828
0.00229965
0.00214173
0.00196903
0.00170872
0.00152982
0.00185326
0.00211151
0.00230737
0.00248031
0.00263848
0.00274607
0.00288475
0.0030658
0.00338495
0.00342492
0.00312413
0.00253114
0.00214159
0.00199895
0.00193072
0.0018129
0.00168427
0.0017266
0.00173917
0.00168751
0.00162336
0.0016053
0.00163201
0.0016665
0.00164668
0.00164607
0.00147066
0.00147011
0.0025122
0.00255845
0.0039358
0.00414712
0.00418769
0.00269161
0.00265506
0.00155073
0.00144043
0.00157147
0.00163162
0.0016352
0.00164213
0.00163427
0.00160583
0.00158523
0.00156093
0.00154127
0.0015237
0.00149338
0.00143539
0.00132613
0.00144507
0.00161968
0.00169168
0.0017105
0.00171968
0.00174676
0.00179156
0.00182698
0.0019096
0.0019173
0.00191631
0.00192288
0.00179684
0.00185278
0.0015679
0.00156541
0.00271347
0.00270563
0.00155437
0.00183545
0.00184825
0.00182763
0.00196799
0.00180076
0.00174384
0.00173533
0.001662
0.00162305
0.00157062
0.0015395
0.00156945
0.00166945
0.0016163
0.00143288
0.00138044
0.00154858
0.00149009
0.00123618
0.00105608
0.00102709
0.000983199
0.000956564
0.00100266
0.0010388
0.00105936
0.0010854
0.00109306
0.0011408
0.00110965
0.00116397
0.00123438
0.00129049
0.00153053
0.00165886
0.0014986
0.00146995
0.00145175
0.0014508
0.00145559
0.00139569
0.00139178
0.00136081
0.00134551
0.0013047
0.00128639
0.00126309
0.0012672
0.00128047
0.00140775
0.00362545
0.00462365
0.0048139
0.00823298
0.00332217
0.00339186
0.00667634
0.00274785
0.00413956
0.00443689
0.00463675
0.00484359
0.00443185
0.00564612
0.00393104
0.00437929
0.00456279
0.00399599
0.00149871
0.00171388
0.00197452
0.00175911
0.00155342
0.00105816
0.00114008
0.00117694
0.00120703
0.0012264
0.00124817
0.00127138
0.0012932
0.00130841
0.00130848
0.00126847
0.00122543
0.00112665
0.00109376
0.00113597
0.00117958
0.00103575
0.0009752
0.000986578
0.00100262
0.00101155
0.00101331
0.001023
0.00102552
0.00104091
0.00103244
0.00104006
0.00102212
0.00103083
0.00101762
0.000983121
0.000934426
0.000851951
0.000831913
0.00119837
0.00127629
0.00134075
0.00152214
0.00175825
0.00187657
0.00168218
0.00155157
0.00148932
0.00165207
0.00165356
0.00301075
0.0057841
0.00258504
0.00289402
0.00845411
0.00335715
0.00260631
0.00264533
0.00267291
0.00267679
0.00155551
0.00184205
0.00178564
0.00179368
0.00152153
0.00127773
0.00114603
0.00102461
0.000695025
0.000692819
0.000698042
0.000708913
0.000712326
0.000681815
0.000681738
0.000677866
0.000676369
0.000661979
0.000657977
0.000646255
0.000639144
0.000622233
0.000613114
0.00059714
0.000594466
0.0006222
0.000693721
0.000838978
0.000931393
0.0010603
0.0010789
0.00120956
0.00299782
0.00347285
0.00479195
0.00475029
0.00749081
0.00468037
0.00353375
0.00319133
0.00467228
0.00483017
0.00448279
0.00607137
0.00419823
0.0027834
0.004233
0.00352936
0.00413873
0.00407397
0.00432605
0.00686284
0.00720151
0.00202428
0.00180393
0.00189688
0.00215257
0.00255643
0.00235668
0.00268347
0.00268574
0.00207683
0.00131509
0.00419096
0.00507102
0.00408584
0.00491776
0.00753949
0.00302598
0.00295062
0.00261015
0.00217846
0.00197966
0.00195361
0.00217875
0.0026074
0.00652667
0.00698465
0.00647068
0.00646787
0.00587198
0.00643201
0.00799895
0.00794909
0.00702561
0.00657022
0.00681873
0.00426531
0.00262633
0.0030513
0.00338414
0.0045165
0.00465701
0.00981482
0.00334115
0.00368501
0.00374135
0.0050018
0.00485292
0.00854794
0.00363899
0.00391704
0.00516316
0.00689982
0.0126786
0.0046529
0.00488654
0.00702143
0.00713076
0.00652055
0.00472216
0.00427421
0.0046491
0.00350368
0.00342685
0.00292383
0.00431478
0.0057965
0.0045973
0.00446334
0.00379057
0.00339287
0.00345754
0.00359049
0.00298414
0.002942
0.00339151
0.00253607
0.00244584
0.00258247
0.000716756
0.000367236
0.000375367
0.000385164
0.000393103
0.000401313
0.000407268
0.00041439
0.000417521
0.000417917
0.000419078
0.000443068
0.000438833
0.000424939
0.000385854
0.000440216
0.000698593
0.000698978
0.000439634
0.00038754
0.0006955
0.00110806
0.00130628
0.00154494
0.00156378
0.00134951
0.00117021
0.000720495
0.000709126
0.000429767
0.000501951
0.000545075
0.000483524
0.00053971
0.00050029
0.00052984
0.000535622
0.00049572
0.000492831
0.000494687
0.00049098
0.000482205
0.000471542
0.000458518
0.000448364
0.000442972
0.00043905
0.000430146
0.000356549
0.000332762
0.000401419
0.000641617
0.000641393
0.000600481
0.000564974
0.000534494
0.000520348
0.000516221
0.000513239
0.00052221
0.000539019
0.00054381
0.000548744
0.000591199
0.00057229
0.00061123
0.00057372
0.000612866
0.000575143
0.000529114
0.000444268
0.000458347
0.000739531
0.000747411
0.00120726
0.00138066
0.0015654
0.00157316
0.00175644
0.00185035
0.00156743
0.00162732
0.00186452
0.001736
0.00154683
0.00155305
0.00139672
0.00139839
0.00123918
0.00077464
0.000764162
0.000479845
0.000466048
0.000555701
0.000546042
0.000607241
0.00064995
0.00065016
0.000648079
0.00063235
0.000626583
0.000550981
0.000540019
0.000540749
0.000524471
0.000521065
0.00054382
0.0005946
0.000699078
0.000846136
0.000920932
0.000952038
0.000912356
0.000816484
0.000604184
0.000544825
0.000945609
0.000979829
0.001766
0.00420289
0.00196651
0.00371117
0.00267689
0.000664167
0.000740298
0.000943917
0.00105758
0.00114207
0.00119143
0.00108994
0.000909923
0.000684934
0.000565647
0.000843084
0.000728978
0.000822505
0.000718202
0.000929425
0.00107451
0.00103935
0.00104702
0.000884701
0.000720527
0.000763088
0.000684866
0.000754859
0.000632003
0.000760382
0.000686374
0.000862457
0.000870527
0.00085238
0.000807905
0.000615116
0.000645401
0.00054142
0.000587397
0.000527477
0.000545229
0.000516653
0.000602464
0.000694254
0.000666338
0.000663763
0.000545414
0.000427457
0.000472194
0.000408565
0.000462469
0.000359566
0.000435517
0.000365089
0.000472709
0.000487409
0.000490194
0.000487527
0.0003972
0.000467306
0.000571489
0.000599646
0.000604379
0.000575243
0.00044376
0.000686372
0.000618538
0.000755223
0.000652802
0.000715023
0.000650968
0.000758716
0.000971788
0.00101471
0.00102144
0.000828814
0.000823671
0.00150356
0.0834855
0.00135255
0.00159876
0.00164874
0.00164289
0.00135821
0.00132477
0.0016413
0.00121363
0.0017193
0.00108261
0.00183454
0.00069928
0.00106313
0.00114144
0.00113904
0.00105861
0.000710446
0.00210139