/*--------------------------------*- C++ -*----------------------------------*\
| =========                 |                                                 |
| \\      /  F ield         | OpenFOAM: The Open Source CFD Toolbox           |
|  \\    /   O peration     | Version:  v2012                                 |
|   \\  /    A nd           | Website:  www.openfoam.com                      |
|    \\/     M anipulation  |                                                 |
\*---------------------------------------------------------------------------*/
FoamFile
{
    version     2.0;
    format      ascii;
    class       volScalarField;
    location    "100";
    object      epsilon;
}
// * * * * * * * * * * * * * * * * * * * * * * * * * * * * * * * * * * * * * //

dimensions      [0 2 -3 0 0 0 0];


internalField   nonuniform List<scalar> 
18258
(
0.0245898
0.0124451
0.00940471
0.00749321
0.0128424
0.0128134
0.0132667
0.0176427
0.0245075
0.0373733
0.0539225
0.0483423
0.0436338
0.0453104
0.0474433
0.0450212
0.0351267
0.0305099
0.0406549
0.0673573
0.0608839
0.0499599
0.0608095
0.0518649
0.0671104
0.0851261
0.0654595
0.0586005
0.0526188
0.0498149
0.0436522
0.0272103
0.0325628
0.0514105
0.0720115
0.0797671
0.0861886
0.0914079
0.0969719
0.0996297
0.100293
0.0952506
0.0859786
0.069891
0.0507188
0.0377339
0.0268828
0.0338118
0.0469708
0.0459091
0.0560586
0.0856618
0.107866
0.0808898
0.0517872
0.0827057
0.112703
0.144442
0.17092
0.193329
0.200994
0.197528
0.18597
0.169223
0.147769
0.12278
0.101784
0.0848565
0.0670733
0.0572718
0.0463139
0.0383975
0.0328233
0.0291555
0.0269479
0.0252428
0.0240943
0.0250343
0.0249289
0.0177903
0.013994
0.0131441
0.00940205
0.00781389
0.00812889
0.00773368
0.00802502
0.0070796
0.00607292
0.00528518
0.00448979
0.00656712
0.00709068
0.00733901
0.00736846
0.00789423
0.00804405
0.0077339
0.00781136
0.00710038
0.00810701
0.0124061
0.0139425
0.017647
0.0160164
0.0115279
0.00890759
0.00998408
0.0105779
0.0133042
0.0127714
0.0134908
0.0119568
0.0109505
0.0092303
0.00892677
0.00913238
0.00970348
0.0100828
0.0117413
0.0115949
0.0107833
0.0119042
0.0131177
0.0128264
0.0122503
0.0116423
0.0142862
0.0114303
0.0121102
0.0136027
0.0219115
0.021444
0.0260346
0.0255506
0.025954
0.0261215
0.0315455
0.0316678
0.0320273
0.0323492
0.0340898
0.05708
0.0508329
0.049757
0.0495618
0.0428296
0.0423987
0.041759
0.04259
0.0359609
0.0345972
0.0313829
0.0310212
0.0345958
0.0436284
0.0610156
0.0881411
0.121941
0.158147
0.188331
0.209259
0.230967
0.236392
0.250303
0.255107
0.256139
0.250631
0.242357
0.233039
0.220328
0.201902
0.189256
0.148938
0.105538
0.059272
0.0787418
0.0908927
0.100702
0.102574
0.10369
0.0994832
0.0930109
0.0816622
0.0658656
0.0429608
0.0506183
0.0682284
0.0702351
0.0707644
0.0560079
0.0536773
0.0495438
0.0492799
0.064564
0.0746633
0.0629235
0.0876364
0.10284
0.0897554
0.0649599
0.0995714
0.147482
0.0829584
0.0709149
0.0553732
0.0543979
0.0460669
0.0380825
0.0623737
0.0933954
0.129439
0.151126
0.173205
0.191001
0.204417
0.218579
0.189967
0.172434
0.115883
0.203356
0.155237
0.0789659
0.0592081
0.0598555
0.0387743
0.0473042
0.0534311
0.0495982
0.0373008
0.0265261
0.0282086
0.0486305
0.066281
0.079351
0.0634078
0.080485
0.0901293
0.0977049
0.103007
0.132133
0.097479
0.10945
0.079436
0.107238
0.076743
0.049502
0.0534393
0.101522
0.161725
0.222111
0.259363
0.148647
0.0757447
0.0566176
0.0579301
0.0546303
0.0487431
0.060507
0.107454
0.07187
0.0467182
0.0405689
0.0481762
0.0394684
0.0296749
0.0312185
0.0395883
0.0556671
0.0698169
0.0836797
0.126745
0.120903
0.146179
0.154289
0.129732
0.124859
0.0801779
0.0828279
0.123037
0.0913992
0.0737871
0.103515
0.14626
0.200093
0.246175
0.286408
0.31216
0.302076
0.273541
0.17321
0.0759372
0.0229794
0.0179176
0.0169772
0.0174525
0.0106055
0.00633803
0.00587949
0.00668801
0.00706033
0.0059846
0.00551805
0.00551285
0.00583589
0.0102897
0.00883967
0.0109239
0.0132222
0.0157782
0.0188313
0.0195532
0.0129695
0.00877679
0.00823459
0.00816837
0.008098
0.00806774
0.00807915
0.00811976
0.00813597
0.00810377
0.00802494
0.00788731
0.00775112
0.00769336
0.00833212
0.0112343
0.0154145
0.0149018
0.0136073
0.0122467
0.0110802
0.00874153
0.0152117
0.0128959
0.0109797
0.0134521
0.0165739
0.0209503
0.0246227
0.017768
0.0142289
0.0128816
0.0127596
0.0126505
0.0127037
0.0125904
0.012669
0.0124875
0.0131155
0.0136465
0.0170428
0.0190749
0.021245
0.0227313
0.0232781
0.0239939
0.0211998
0.0229721
0.0227547
0.0235354
0.0233427
0.0226546
0.0207454
0.0189507
0.0177231
0.0191375
0.0237062
0.0323624
0.0267518
0.0207605
0.0167969
0.0137365
0.0150129
0.0167022
0.0168801
0.0158972
0.0156685
0.015466
0.0139445
0.0131549
0.0111486
0.0105449
0.0100829
0.0102302
0.0144363
0.0135859
0.0137889
0.0145131
0.015594
0.0147467
0.0151854
0.0143405
0.0145848
0.0150033
0.0170855
0.0186516
0.0178968
0.0165733
0.0160697
0.0137906
0.015901
0.0157651
0.017081
0.0186597
0.0191477
0.0190738
0.0184326
0.0168204
0.0187144
0.0220864
0.0257403
0.0247396
0.0244371
0.0204891
0.0192929
0.0202733
0.0215517
0.0224613
0.0225514
0.0224155
0.0225408
0.0266633
0.0264106
0.0251624
0.023065
0.0205801
0.0179232
0.0153692
0.0168506
0.018343
0.019741
0.0210118
0.0207293
0.0192085
0.0178492
0.0166131
0.0151113
0.0148046
0.0162648
0.0174886
0.0189153
0.0206163
0.0206701
0.0189728
0.0174854
0.0162038
0.0147251
0.0146667
0.0161705
0.0174665
0.0188757
0.0203455
0.0197047
0.0185636
0.0173207
0.0160816
0.0146272
0.0146889
0.0160111
0.0170752
0.01815
0.0190868
0.0199367
0.0179863
0.0170848
0.0171879
0.0162026
0.0194011
0.0186385
0.0195795
0.0181172
0.0168762
0.0178742
0.0210613
0.0240976
0.0246346
0.0243514
0.0202098
0.0206694
0.0206576
0.0192412
0.0160024
0.0154054
0.0181863
0.0209313
0.0213979
0.0200858
0.0169776
0.0133322
0.0143536
0.0175169
0.0198403
0.0185792
0.0184168
0.017002
0.0159221
0.0162216
0.0139364
0.016678
0.026765
0.0242128
0.0221839
0.0197025
0.0156906
0.0106218
0.0115204
0.0126775
0.0130918
0.0105801
0.00792325
0.00711474
0.00692071
0.00676077
0.00653822
0.00616141
0.00559253
0.00545349
0.0109576
0.0271266
0.0368277
0.0359673
0.0241138
0.0210945
0.0209132
0.0206226
0.0119449
0.00845045
0.00856513
0.0102195
0.00808913
0.0105557
0.0170262
0.0111375
0.014899
0.0112303
0.0147262
0.0232103
0.0223173
0.0151039
0.00815474
0.00688481
0.00737359
0.00767755
0.00788452
0.00808184
0.00831518
0.00870075
0.0100224
0.0157498
0.0203354
0.0177873
0.0167973
0.0153233
0.0188704
0.0213622
0.0233108
0.0260891
0.0161397
0.0118245
0.0166835
0.0273228
0.0247932
0.023325
0.0171783
0.0177281
0.0171684
0.0110393
0.0107043
0.010631
0.0114441
0.0128325
0.0147623
0.0159371
0.0166945
0.0170293
0.0179483
0.0232581
0.021771
0.0212595
0.0174665
0.0135044
0.0154511
0.0517593
0.0196798
0.0207952
0.019026
0.019293
0.0205774
0.0152445
0.0136192
0.013054
0.0147626
0.02166
0.0216667
0.0215185
0.0183516
0.0175591
0.0210167
0.0221184
0.0225259
0.0218963
0.021445
0.0195657
0.016764
0.0182007
0.0197229
0.0209274
0.0229519
0.0233015
0.0180447
0.0173163
0.0159125
0.0105954
0.0113433
0.00977272
0.00973876
0.00969656
0.0094116
0.00896288
0.00926127
0.00938619
0.00938685
0.00903867
0.00933691
0.00838167
0.00872355
0.00981927
0.0152839
0.0148458
0.0176555
0.0195735
0.0168088
0.0156459
0.0142784
0.0132519
0.0155161
0.0143501
0.0169361
0.0213115
0.0266351
0.0192369
0.0182402
0.0180171
0.0176118
0.0174516
0.0175056
0.0168015
0.0157851
0.015208
0.0236975
0.021381
0.0182449
0.0172921
0.0158531
0.0181184
0.0175587
0.0214808
0.0270016
0.0272085
0.0216502
0.0217292
0.019053
0.0201634
0.0223706
0.0272462
0.0271704
0.0145156
0.009651
0.0155233
0.0158659
0.0184861
0.0170907
0.0186271
0.0198203
0.0205503
0.0204056
0.0177892
0.0189729
0.0197634
0.020749
0.0186797
0.0166616
0.0174599
0.0162367
0.0153344
0.0148302
0.0127447
0.0129929
0.0139664
0.0154183
0.0163579
0.0178548
0.0195144
0.0195502
0.0202203
0.0198105
0.0192183
0.0253543
0.024084
0.0256375
0.0283746
0.0225476
0.0178957
0.0147563
0.0150737
0.0148422
0.0147519
0.0154919
0.0168592
0.0152316
0.0146058
0.0171281
0.0195049
0.0247959
0.0332236
0.0289477
0.0263605
0.0334015
0.0315448
0.0384211
0.0287995
0.0282754
0.0209608
0.0264165
0.030661
0.0394035
0.0256324
0.0210562
0.0225221
0.0256651
0.0349754
0.0329698
0.0333288
0.0414062
0.0401652
0.036391
0.0313309
0.0355275
0.0213612
0.0303642
0.0324254
0.0269976
0.0258665
0.0309204
0.0312274
0.0332079
0.0285553
0.0269203
0.0180119
0.0276085
0.031561
0.0332856
0.0280133
0.0206771
0.0281858
0.0206563
0.0192896
0.0204044
0.0138457
0.0127937
0.014878
0.0139495
0.0112675
0.0122239
0.011246
0.0112395
0.0113281
0.0114518
0.0115952
0.0118676
0.011858
0.0129574
0.0134769
0.0127922
0.0117173
0.0123211
0.012556
0.0161282
0.018238
0.0205095
0.0220963
0.0229273
0.0240857
0.0229204
0.024809
0.0236024
0.025339
0.0251162
0.024023
0.0213244
0.0185285
0.0161115
0.0168061
0.0205095
0.0271698
0.0223006
0.0173013
0.0140446
0.0116779
0.0129273
0.0161068
0.00855957
0.00768645
0.00732793
0.00710242
0.00692518
0.00606696
0.00554465
0.00621583
0.0121495
0.0163072
0.0214756
0.027421
0.0329746
0.0376775
0.0412906
0.044019
0.0458289
0.0463171
0.0436289
0.0342417
0.0296687
0.0257308
0.0215369
0.017749
0.0176158
0.0254809
0.0330652
0.0403899
0.0466281
0.0510332
0.0487489
0.032643
0.0311982
0.0484831
0.0803217
0.0758711
0.0990928
0.11295
0.065177
0.0477238
0.0457719
0.0615096
0.0645261
0.0571064
0.0475514
0.0375407
0.0274421
0.031894
0.0361598
0.0401428
0.0444731
0.0568118
0.0595889
0.0583572
0.0554986
0.0520022
0.0477607
0.0417626
0.0342236
0.0258503
0.0184654
0.01298
0.00685533
0.00720213
0.00756635
0.00719361
0.00786329
0.00816646
0.00873449
0.00835621
0.00844779
0.00810817
0.00802053
0.00702848
0.00638996
0.0099542
0.00925386
0.00915148
0.00967003
0.0129135
0.00984759
0.00715947
0.00659155
0.00669921
0.0136208
0.0214518
0.0268088
0.0312813
0.035627
0.0375846
0.0362523
0.0331717
0.0279849
0.0229128
0.0207837
0.0179489
0.0153805
0.0141881
0.0153695
0.0129112
0.00740294
0.0051446
0.00567728
0.00563513
0.00516472
0.00619573
0.00689106
0.00751183
0.00794441
0.0082623
0.008323
0.00825623
0.00815706
0.00810008
0.00806461
0.00801988
0.00793932
0.00782997
0.0076765
0.0075314
0.00746043
0.00804434
0.0106286
0.0145186
0.0143315
0.0132364
0.0121405
0.0112949
0.00956201
0.0153618
0.0130988
0.0109764
0.0101348
0.00994799
0.0102023
0.0110954
0.0126858
0.0136888
0.0157366
0.0157729
0.0156782
0.0159793
0.0157335
0.0132924
0.0150663
0.0176968
0.0185123
0.0191079
0.0188816
0.017363
0.0194191
0.0205529
0.0200042
0.0194045
0.0165937
0.0193149
0.0232694
0.0237016
0.0239868
0.0213246
0.0184882
0.021678
0.0228403
0.0224073
0.0233026
0.0214318
0.0222016
0.0284233
0.014671
0.0131915
0.00813288
0.0091474
0.00941636
0.00905688
0.00865087
0.00888199
0.00895512
0.00845561
0.00917313
0.0094966
0.00875297
0.0117308
0.0107893
0.0103299
0.00989883
0.0103408
0.0109217
0.0112091
0.0124581
0.0197948
0.0203103
0.0183003
0.0208088
0.021604
0.0181205
0.020517
0.0213518
0.0215332
0.0219474
0.0234053
0.0220728
0.0242557
0.023457
0.0221243
0.0213242
0.0377915
0.0250006
0.0163989
0.0150614
0.0146076
0.0146025
0.0163531
0.0121907
0.0137606
0.00953668
0.00825688
0.00785406
0.00781635
0.00940657
0.0138967
0.0225102
0.0264131
0.027711
0.026413
0.0233959
0.0184622
0.0145496
0.0141158
0.0128222
0.0119477
0.0118284
0.00842839
0.00564289
0.00641442
0.00664068
0.00722382
0.00763452
0.00796766
0.00821977
0.00835763
0.00842458
0.00849874
0.00861401
0.00873795
0.00884274
0.00892248
0.00897508
0.00902933
0.00913612
0.00942591
0.0106011
0.015157
0.0194945
0.0184078
0.0169556
0.0156601
0.0163902
0.0171185
0.017862
0.0220546
0.0190985
0.02195
0.0205008
0.0194902
0.0181013
0.018936
0.0206893
0.0164795
0.016406
0.0112034
0.00978381
0.00940993
0.00919753
0.00902741
0.00885904
0.00872046
0.0085957
0.00847718
0.00837381
0.00829467
0.00821927
0.00806926
0.00780337
0.00742202
0.0069452
0.00654727
0.00720054
0.00728697
0.0080538
0.00953482
0.0104652
0.0100477
0.00910944
0.00847984
0.00840302
0.00855124
0.00873525
0.00894668
0.00923861
0.00972344
0.0106966
0.0113483
0.0160392
0.0167863
0.0200837
0.0199212
0.0178735
0.0172378
0.0188621
0.0175109
0.0127818
0.0172973
0.0167099
0.020733
0.0153697
0.0145398
0.0150062
0.0155007
0.0182186
0.0170617
0.0155321
0.0156909
0.0125089
0.0139415
0.0160405
0.0176523
0.0277682
0.0271005
0.0341936
0.0346639
0.058635
0.0556634
0.0488556
0.0533747
0.0238036
0.045466
0.0532518
0.0485995
0.0420121
0.0267887
0.0425025
0.0644384
0.0920077
0.0664901
0.0543267
0.100177
0.074145
0.0364974
0.026502
0.0150149
0.015182
0.0249464
0.0289351
0.0238877
0.0230705
0.0331336
0.0345375
0.0277503
0.0284738
0.0308877
0.0298816
0.0322485
0.027864
0.0273247
0.0154599
0.0126862
0.0136837
0.0153953
0.0164148
0.0159711
0.0168123
0.0174681
0.0160291
0.0150157
0.0144741
0.0124031
0.0131806
0.0161616
0.0203832
0.0239005
0.0172635
0.0138741
0.0125795
0.0123837
0.0121497
0.0120183
0.0116833
0.0114816
0.0109986
0.0111926
0.00974649
0.00976599
0.0103257
0.0105113
0.0107336
0.010903
0.0110277
0.0111334
0.011993
0.018761
0.0259466
0.020747
0.0164357
0.0139544
0.0151414
0.0170641
0.0209674
0.0264021
0.0178419
0.0176687
0.0115277
0.0107597
0.010561
0.0103856
0.0102187
0.0101022
0.010149
0.0101499
0.0119054
0.0117065
0.0137878
0.0148388
0.0122355
0.0117858
0.011299
0.0110011
0.0108351
0.0107433
0.0108264
0.0116848
0.0115175
0.0105895
0.0105008
0.0106275
0.0108488
0.0111816
0.0116402
0.0121565
0.0131001
0.0129008
0.0113294
0.0112467
0.0105575
0.0102395
0.0100139
0.010009
0.0100783
0.0102347
0.0104484
0.0113445
0.0171368
0.0173164
0.026626
0.0266021
0.0211299
0.0176548
0.0154995
0.014242
0.0135129
0.0340518
0.0300781
0.0475585
0.0379348
0.0303991
0.048842
0.0691648
0.0539108
0.0871403
0.0942797
0.0701014
0.0635655
0.0204317
0.0157023
0.0153994
0.0168966
0.0185936
0.0212352
0.0218267
0.0266631
0.028769
0.0172016
0.0165108
0.0155598
0.0248488
0.0230007
0.0196394
0.0177465
0.0163514
0.0188744
0.0206795
0.0149058
0.0149809
0.00964697
0.0106885
0.010444
0.0101227
0.0100118
0.00991343
0.00992786
0.0100132
0.0103035
0.0108256
0.0112474
0.0114215
0.0117224
0.0114862
0.0112127
0.0108963
0.0107066
0.0105143
0.0103552
0.010231
0.0102604
0.0105736
0.0107136
0.00940045
0.00975151
0.00986342
0.00987678
0.00990866
0.00987131
0.00972881
0.00951319
0.0093011
0.00908688
0.009133
0.0100022
0.0101686
0.0102003
0.0100076
0.00987647
0.0098762
0.00983615
0.0098505
0.00983598
0.00969281
0.00935896
0.00860413
0.00847193
0.00911299
0.00949065
0.00969991
0.00980093
0.00975007
0.00966119
0.00941363
0.00924796
0.00906793
0.00873424
0.00824289
0.00675298
0.00703566
0.00739277
0.00790347
0.00843219
0.00889596
0.00920827
0.00937346
0.00946693
0.00938441
0.00908989
0.00855663
0.00850165
0.00889556
0.00907502
0.0090294
0.00875802
0.00833381
0.00775787
0.00704948
0.00637157
0.00587343
0.00567283
0.00530475
0.00664515
0.00726456
0.00780654
0.00828527
0.00875856
0.00929116
0.00954284
0.00964678
0.00960353
0.0094177
0.00904478
0.00846986
0.00849722
0.0090346
0.00940127
0.00956797
0.00959757
0.00935765
0.00889124
0.00795485
0.00713671
0.00649695
0.00591036
0.0052931
0.00522609
0.00547873
0.00520327
0.00535889
0.00591415
0.0067068
0.00748783
0.00810985
0.00854914
0.00874157
0.0086948
0.00844313
0.00834303
0.00846368
0.00840012
0.00808525
0.00750797
0.00675805
0.00596568
0.00535685
0.00521212
0.00556886
0.00590414
0.00558969
0.00446686
0.00504706
0.00562549
0.00619909
0.00712586
0.00833946
0.00900302
0.00936157
0.00949285
0.00938506
0.00902863
0.00851403
0.00852041
0.009033
0.00939309
0.0094893
0.00938689
0.00902166
0.00845194
0.00698607
0.0055338
0.00492163
0.0045169
0.00402556
0.00565283
0.00602428
0.00560079
0.00532165
0.00574591
0.00626542
0.0068721
0.00738152
0.0078148
0.0081287
0.00823885
0.0082122
0.00807778
0.00807562
0.0080136
0.00780328
0.00755845
0.00735905
0.00694527
0.00651348
0.00598773
0.00654167
0.00683344
0.00640204
0.00474052
0.00507648
0.00563962
0.00587822
0.00725365
0.00872494
0.0092247
0.0094756
0.00959659
0.0094764
0.00906923
0.00852464
0.00853195
0.00917067
0.00966706
0.00985019
0.00994248
0.00989684
0.00991935
0.00877803
0.00711993
0.00671128
0.00542828
0.00490348
0.00671431
0.0071526
0.00694882
0.00668747
0.00762791
0.00800539
0.00812846
0.00813223
0.00813878
0.00811096
0.00802436
0.00796032
0.00784549
0.00828253
0.00891753
0.00882214
0.00873241
0.00858649
0.00824449
0.00780667
0.0072983
0.00797727
0.00856248
0.00825226
0.00608679
0.00654983
0.00784158
0.00793266
0.00914971
0.0103465
0.0107155
0.01082
0.0107575
0.0106999
0.00957328
0.00851272
0.0083667
0.00986568
0.0161801
0.0160485
0.0161195
0.0160769
0.0154193
0.0152436
0.0145992
0.0143345
0.0135515
0.0130825
0.0123212
0.0144592
0.0183452
0.0205199
0.0229863
0.0255614
0.0242502
0.0195596
0.0172294
0.0104732
0.00825904
0.00711951
0.00613796
0.0053997
0.00516669
0.00760118
0.0094939
0.0116889
0.0136356
0.0139481
0.0163754
0.0203192
0.0309066
0.0490003
0.0412423
0.0388308
0.039164
0.0977724
2.55401
2.74766
2.49578
2.88667
3.34648
0.375956
0.153604
0.28919
0.317589
0.371994
0.356844
0.324675
0.298957
0.318046
0.305249
0.318927
0.297047
0.296566
0.257404
0.251239
0.234214
0.522303
0.910838
1.1291
1.60338
1.65445
1.87143
1.85293
1.88998
1.75614
1.87623
1.63447
1.35615
1.27716
1.20147
1.2888
1.39653
1.21447
1.09885
0.989423
0.895348
0.759639
0.965313
0.732346
0.690535
0.687531
0.716296
0.951076
0.859105
0.990711
0.947124
1.01619
0.659267
0.749224
0.559752
0.470723
0.3942
0.473574
0.630065
0.818881
0.977978
0.739519
0.964748
0.875504
0.840867
0.805376
0.741339
0.707621
0.699901
0.722881
0.736542
0.75244
0.779137
0.800451
0.817983
0.968412
1.02726
1.01334
0.833625
0.753244
0.524205
0.561178
0.600231
0.605688
0.570395
0.546703
0.485708
0.471671
0.421817
0.404999
0.362333
0.344631
0.31085
0.433335
0.747556
0.781041
0.850571
0.909849
0.956289
0.979305
0.990071
0.971123
0.936108
0.875562
0.849691
0.791008
0.888937
1.06747
1.07292
0.990232
0.837112
0.79272
3.60296
4.35999
2.91291
6.20539
9.2731
15.4638
7.39434
2.06644
3.4285
2.35462
2.08874
2.03053
2.13295
3.34154
2.4294
3.20185
2.61587
2.85411
2.15317
2.63722
2.61488
2.04571
1.75264
1.50468
1.48071
1.22452
1.25996
1.03427
0.968429
0.849601
0.675639
0.774566
0.685022
1.36753
2.05736
2.60135
4.13215
4.55168
5.01853
7.92892
6.57055
8.34076
5.06205
5.08448
3.76733
3.54772
3.58261
4.91522
6.90464
4.78658
8.27901
4.65368
15.2541
33.8953
9.23091
18.9291
10.9336
9.8994
9.54709
9.83612
13.9233
9.39189
15.3515
12.6068
16.8017
15.8707
17.6939
14.2682
10.5751
11.8035
12.7995
16.5583
12.0444
14.4185
11.0701
10.8804
9.92122
8.08796
6.84627
5.09565
5.71728
6.73117
7.60601
11.8944
15.0294
17.4775
21.0457
15.7568
18.0475
10.9388
11.9156
9.23821
8.65673
8.76878
11.5323
20.5617
14.6032
26.3547
0.492145
0.225218
0.538352
0.228151
0.487253
0.389581
0.401928
0.402638
0.397583
0.45754
0.218366
0.184076
0.176681
0.174679
0.176262
0.099981
0.124129
0.0803159
0.12693
0.228505
0.499675
0.363591
0.140314
0.0826404
0.0545531
0.0428662
0.0633221
0.0610707
0.0976538
0.0989169
0.105016
0.13103
0.225075
0.426283
31.0791
6.98262
1.08256
0.502141
0.278412
0.171862
0.143696
0.161386
0.172219
0.173022
0.160166
0.133369
0.093614
0.0610367
0.0398072
0.0328132
0.0234806
0.0300333
0.0398978
0.0531121
0.0487177
0.0643172
0.0826861
0.105358
0.129433
0.148655
0.163172
0.167336
0.155557
0.121893
0.0802138
0.0443741
0.0266806
0.0230446
0.02111
0.0196028
0.0169469
0.0147462
0.0133091
0.0113764
0.0100304
0.0090523
0.00873598
0.00885575
0.00965859
0.012203
0.0146703
0.0189782
0.0180814
0.0135361
0.0126902
0.00785841
0.00726227
0.0074098
0.00766185
0.00848576
0.0132678
0.0135784
0.0134564
0.0134875
0.0133075
0.0133016
0.0131363
0.0129854
0.0127723
0.0123748
0.0120885
0.0115842
0.0113023
0.0106495
0.0106772
0.0111144
0.0114325
0.0103911
0.0103301
0.00952285
0.0188619
0.0462259
0.069353
0.0779363
0.0878075
0.0806542
0.0412485
0.0222362
0.00783097
0.00790261
0.00835807
0.00901967
0.00853371
0.00634669
0.00699121
0.0087106
0.0120607
0.0118234
0.0118501
0.0133412
0.0137849
0.0151528
0.0156847
0.01611
0.0163436
0.0164061
0.0165736
0.0163569
0.0164807
0.0162462
0.0163323
0.0159171
0.0282413
0.0266438
0.0274537
0.0274128
0.0285191
0.0279379
0.0273276
0.0263407
0.0255971
0.0241061
0.0225736
0.0211932
0.0194683
0.0202801
0.0197878
0.0124038
0.0118177
0.00869344
0.00811
0.00768661
0.0104718
0.00958987
0.00810413
0.00954432
0.00717953
0.0074565
0.00815368
0.0116083
0.0121717
0.0193779
0.0190862
0.0169138
0.0178194
0.0186041
0.0197409
0.0207747
0.0221374
0.023151
0.0242466
0.0261587
0.0266316
0.0249718
0.0247098
0.0234868
0.0254054
0.0243713
0.0226712
0.0243584
0.0259261
0.0283994
0.0280443
0.0258678
0.0245635
0.0231772
0.0209297
0.0183715
0.0172202
0.0162947
0.0166107
0.015603
0.0183737
0.0168686
0.0114669
0.011626
0.00826381
0.00668664
0.00631072
0.00919374
0.0128129
0.0274425
0.0169609
0.00901129
0.00939357
0.0149187
0.028879
0.016783
0.0240562
0.0155406
0.0137801
0.0143846
0.0140673
0.0153622
0.0176784
0.0185461
0.022134
0.0248497
0.0268024
0.0276607
0.0289655
0.0293128
0.0307193
0.0311468
0.0338741
0.0341208
0.0341937
0.033722
0.0314152
0.0282707
0.0261652
0.0322824
0.03728
0.040442
0.0429085
0.0454048
0.0441324
0.0404042
0.0395685
0.0376787
0.0366485
0.03532
0.0322372
0.0283715
0.0234348
0.0230117
0.0292887
0.0351905
0.0525503
0.0560167
0.0557198
0.0580254
0.0584336
0.0600912
0.0604654
0.0630971
0.0636255
0.0647431
0.0650649
0.070343
0.071213
0.0721773
0.072514
0.0721878
0.0731754
0.0732293
0.0497993
0.0447169
0.040861
0.0340179
0.0285871
0.036285
0.0450539
0.0501236
0.0762684
0.0767093
0.08078
0.0834332
0.0888487
0.0927139
0.098109
0.102886
0.107785
0.111496
0.113917
0.114403
0.115088
0.114183
0.112957
0.122294
0.158462
0.175599
0.207323
0.222855
0.23671
0.241528
0.231708
0.234977
0.225832
0.227969
0.220332
0.217216
0.210595
0.202743
0.198096
0.190253
0.185335
0.213994
0.159793
0.122175
0.0820445
0.0651733
0.0536576
0.0460242
0.0537355
0.0413008
0.0341634
0.0538805
0.0479762
0.0364497
0.0222599
0.0178574
0.0313898
0.0466415
0.0633681
0.0807758
0.0966545
0.107008
0.10957
0.108454
0.103861
0.0962025
0.0812042
0.0613893
0.0424323
0.0351313
0.0324316
0.0284006
0.0223927
0.0179787
0.0158523
0.0142591
0.0124812
0.0112197
0.0106643
0.0108252
0.0111368
0.0133362
0.0174306
0.0174214
0.0116683
0.011208
0.00770801
0.00779232
0.00804907
0.013372
0.01352
0.0209642
0.0234223
0.0220587
0.0227505
0.0224906
0.0228025
0.0224671
0.0212989
0.0204849
0.0195448
0.0187198
0.0180023
0.0171873
0.0164053
0.0177617
0.0167485
0.0141057
0.0141933
0.0147868
0.0154061
0.0162696
0.0175123
0.0185662
0.0212396
0.0213852
0.0208628
0.0209509
0.019479
0.0187572
0.0200174
0.0195398
0.0133144
0.0131374
0.0191816
0.0188192
0.018708
0.0225262
0.0209503
0.0214766
0.0226327
0.0225585
0.0196465
0.0183133
0.0167791
0.0156261
0.0142767
0.012785
0.0124646
0.0152732
0.0136537
0.0111411
0.0122229
0.0146601
0.0172963
0.0187409
0.020723
0.0234447
0.0243896
0.0266214
0.0280298
0.0301008
0.0309215
0.0356992
0.0363343
0.034132
0.0322771
0.0312505
0.0274615
0.0235462
0.0259685
0.0268653
0.0272461
0.0273959
0.0272847
0.023732
0.0233079
0.0218139
0.0213051
0.0197426
0.0191971
0.0180564
0.01731
0.0163075
0.0144686
0.0134951
0.0127283
0.0124314
0.0174914
0.0110004
0.0107611
0.0161994
0.010016
0.0117878
0.0115224
0.0120102
0.0125548
0.0104905
0.0153306
0.0105131
0.0113361
0.011408
0.0142868
0.00999631
0.0137602
0.050787
0.0875822
0.10636
0.194134
0.236028
0.257654
0.279255
0.294957
0.311251
0.329281
0.347123
0.360693
0.362463
0.337318
0.319162
0.254818
0.228319
0.252059
0.282181
0.194998
0.167432
0.169699
0.17057
0.173108
0.174348
0.17792
0.175866
0.180854
0.176504
0.183705
0.177744
0.184164
0.176694
0.161256
0.144677
0.112146
0.1014
0.065411
0.0506865
0.0396968
0.0288255
0.0210345
0.0189032
0.0179043
0.0165442
0.0166335
0.0127656
0.0132065
0.00844399
0.00620821
0.00991851
0.00974882
0.00726409
0.00987602
0.0112794
0.0117876
0.0123185
0.0126091
0.0192862
0.0193021
0.0246898
0.0245987
0.029172
0.0347989
0.0360791
0.0397437
0.0572198
0.0577603
0.0575019
0.0573655
0.0569584
0.0497706
0.0494916
0.0484088
0.0478356
0.0449199
0.0443761
0.0423071
0.0411832
0.0382305
0.0374117
0.0362674
0.0365932
0.0384249
0.0506886
0.0884017
0.027755
0.025814
0.0191139
0.0142097
0.0205277
0.0158728
0.0152197
0.0135788
0.0187649
0.0134889
0.0137806
0.0165722
0.0170444
0.0162589
0.020606
0.0261007
0.023109
0.0250055
0.106399
0.0595881
0.0205285
0.0411671
0.0667878
0.150785
0.199128
0.135102
0.154936
0.179588
0.162921
0.136646
0.103102
0.0783606
0.0541818
0.0403446
0.0117375
0.0132869
0.0180657
0.0374915
0.0559009
0.101371
0.0824076
0.107993
0.14764
0.171773
0.207739
0.198497
0.170498
0.146948
0.1457
0.163519
0.152541
0.0981106
0.0940546
0.0758023
0.172128
0.218192
0.183232
0.228507
0.237184
0.13317
0.0306025
0.018456
0.0152205
0.0140249
0.0125757
0.0194852
0.011602
0.0117937
0.0124886
0.0134011
0.0170929
0.0293686
0.0135726
0.0150187
0.0184282
0.0159296
0.0149054
0.0147011
0.0145919
0.0151975
0.0165528
0.0216076
0.0217466
0.0214578
0.0161085
0.017393
0.0157964
0.0200748
0.0213205
0.0336022
0.0153327
0.0162965
0.0216853
0.48359
0.0248417
0.0179451
0.0233023
0.0219609
0.0303495
0.043854
0.454446
0.0436433
0.0351454
0.0589568
0.0614268
0.0661822
0.0698625
0.0733712
0.0758665
0.079784
0.0823819
0.0836184
0.0849101
0.100471
0.100369
0.0992653
0.103884
0.0979173
0.057846
0.0580346
0.0976497
0.105378
0.0595702
0.0410993
0.0385459
0.0312288
0.0323462
0.041889
0.0440045
0.0617792
0.0616041
0.102723
0.0936828
0.095083
0.0968907
0.0919069
0.0924248
0.0944828
0.0946235
0.0759326
0.0735581
0.0717934
0.0688002
0.065274
0.0623593
0.0593532
0.0560412
0.0529401
0.0522601
0.0557363
0.0582684
0.0647997
0.0684005
0.197976
0.134606
0.0976963
0.0745522
0.062665
0.0581245
0.0585085
0.0620384
0.0653566
0.0669638
0.0677528
0.0711871
0.0929238
0.095096
0.0979265
0.0953748
0.0991451
0.0971672
0.0947087
0.104629
0.112427
0.0657308
0.0678032
0.0478134
0.0445738
0.0325357
0.0330909
0.0236499
0.0196403
0.0196458
0.0196373
0.0198484
0.0227108
0.0316895
0.0317824
0.0464037
0.0463032
0.0517531
0.075408
0.0724791
0.129216
0.118476
0.108774
0.101488
0.101848
0.103997
0.106627
0.101646
0.098236
0.0927259
0.0729071
0.0688296
0.0666948
0.0653927
0.0637022
0.0659344
0.0859538
0.135567
0.205635
0.30334
0.400197
0.415768
0.37944
0.229108
0.273464
0.133874
0.156535
0.175407
0.149866
0.15663
0.307079
0.2545
0.358352
0.464993
0.517488
0.582124
0.617736
0.599991
0.470171
0.302406
0.309527
0.414614
0.747383
0.840031
0.737629
0.757783
0.654571
0.537891
0.519884
0.495551
0.559377
0.610498
0.576075
0.593672
0.538161
0.513599
0.443626
0.49508
0.361765
0.325871
0.30635
0.297555
0.356584
0.288609
0.325106
0.267282
0.273599
0.222446
0.228011
0.190362
0.145765
0.138229
0.128177
0.143547
0.162827
0.149226
0.153974
0.134484
0.115199
0.0917032
0.0989047
0.0738584
0.0695851
0.069866
0.0780995
0.119827
0.353506
0.170253
0.162914
0.168082
0.178251
0.321072
0.283861
0.723562
0.506931
0.708007
0.473871
0.562148
0.47024
0.362756
0.378278
0.417996
0.598144
0.821181
6.64944
0.284675
4.26136
3.16393
3.32299
3.46908
4.44721
7.80514
7.11122
9.38552
6.8053
9.08398
4.98004
4.97462
4.32669
4.47173
4.43743
4.25676
5.14995
6.53153
0.236506
0.0907498
0.085403
0.0856134
0.0873946
0.197831
0.0525765
0.201989
0.0539559
0.213396
0.0495048
0.246571
0.196841
0.0382307
0.0192564
0.0200889
0.0168067
0.0203757
0.0169227
0.0250485
0.023541
0.023691
0.0265334
0.075537
0.288886
13.5219
1.5705
0.649196
0.747735
1.12503
0.759544
1.14901
1.60445
1.07179
0.529405
0.343462
0.406193
0.491034
0.468894
0.603104
0.873493
0.855503
0.671432
0.675803
0.591719
0.842579
0.851461
1.01608
1.19127
1.09357
0.84892
0.665006
0.55772
0.976938
0.988404
0.923372
0.380584
0.104792
0.045029
0.0462886
0.034987
0.0367133
0.0345549
0.0506559
0.145466
0.206683
0.120772
0.406406
0.395397
0.550089
0.393029
0.403926
0.316346
0.343145
0.521556
0.570991
0.63101
0.663956
0.711866
0.649649
1.2506
2.13308
2.40829
12.661
17.2523
3.12871
3.0601
13.8838
0.313592
0.0834668
0.023259
0.0174182
0.0162136
0.0161289
0.015
0.0155377
0.0159987
0.0169626
0.0188269
0.0231922
0.0458242
0.201427
0.20339
0.0643265
0.0324206
0.0229663
0.0196138
0.017045
0.0163858
0.0155307
0.0154585
0.0150068
0.0156546
0.0174553
0.0237547
0.0773122
0.271086
11.3327
2.42473
2.24812
8.37533
5.7915
0.206746
0.0437946
0.0200927
0.0169258
0.015883
0.0167535
0.0162649
0.0182096
0.0184004
0.0230126
0.0250167
0.0317568
0.0570567
0.110144
0.315391
9.57621
8.64664
8.36908
7.80654
0.310015
0.115149
0.0543728
0.0382203
0.0346161
0.0338097
0.0226457
0.0236707
0.0189815
0.0216418
0.0182961
0.0226863
0.0483197
0.211928
5.35002
1.56678
1.69663
1.20782
0.609588
0.650806
0.662724
0.681631
1.75083
3.9904
4.92082
3.3799
3.32534
4.65562
3.13792
2.45655
1.80789
1.72884
2.51995
1.94681
1.81376
1.34391
1.45177
1.05972
1.45888
0.805303
0.972777
1.0681
1.52361
1.39149
1.40538
0.904727
1.04622
1.46871
1.72209
1.64748
0.840099
1.22481
1.00992
0.651174
0.601806
0.625965
0.595058
0.568801
0.568636
0.573851
0.55432
0.571706
0.552698
0.585231
0.545413
0.530178
0.504298
0.523492
0.540455
0.571908
0.357542
0.419641
0.424341
0.437798
0.448784
0.3695
0.445862
0.434267
0.649772
0.982892
0.808478
1.10822
0.659222
0.986614
1.98405
5.18231
2.2731
0.795942
1.32845
1.57645
1.13033
0.622814
2.54149
3.55916
1.22584
1.78296
10.4087
8.43868
16.5437
10.9045
18.4943
5.96367
4.60145
17.7207
6.61203
6.82902
4.45853
4.47815
2.91924
1.55891
1.59832
1.70837
1.20442
1.27377
1.18623
1.11937
1.45285
1.41373
1.85134
2.00161
2.53671
1.78905
1.74563
2.54858
1.04532
1.36921
1.80105
1.79243
1.33257
2.2905
3.09664
2.88818
2.07524
2.291
3.44828
4.74596
4.47919
3.09334
3.86989
10.0207
13.3784
13.5832
4.16369
19.336
18.2315
2.0155
0.538925
0.301475
0.0834103
0.0436527
0.0368463
0.0390037
0.1435
0.0460833
0.0570929
0.0452214
0.0697749
0.0685949
0.0855151
0.210376
0.123164
0.206883
0.1494
0.177947
0.11407
0.182379
0.213324
0.221622
0.175328
0.108099
0.200177
0.288755
0.0989196
0.332295
0.365278
0.241871
0.311394
0.371185
0.182251
0.969289
0.180649
0.12098
0.137407
0.370238
1.20911
0.206375
0.445943
4.39309
14.6382
3.61999
0.909038
0.655433
0.0552449
0.029971
0.0307663
0.0276709
0.0195191
0.0796038
0.0940462
0.389828
0.199279
0.273843
0.654598
2.92735
2.37574
1.08736
5.39912
10.244