/*--------------------------------*- C++ -*----------------------------------*\
| =========                 |                                                 |
| \\      /  F ield         | OpenFOAM: The Open Source CFD Toolbox           |
|  \\    /   O peration     | Version:  v2012                                 |
|   \\  /    A nd           | Website:  www.openfoam.com                      |
|    \\/     M anipulation  |                                                 |
\*---------------------------------------------------------------------------*/
FoamFile
{
    version     2.0;
    format      ascii;
    class       volScalarField;
    location    "70";
    object      k;
}
// * * * * * * * * * * * * * * * * * * * * * * * * * * * * * * * * * * * * * //

dimensions      [0 2 -2 0 0 0 0];


internalField   nonuniform List<scalar> 
18258
(
0.0380752
0.0178253
0.0154129
0.013744
0.0145644
0.0175712
0.0197945
0.0246116
0.0294337
0.0349348
0.0414051
0.0495602
0.0548902
0.0612937
0.0637846
0.0620074
0.051804
0.0478731
0.0586511
0.0835426
0.0729986
0.0528213
0.0644014
0.0632726
0.0732362
0.0774064
0.0610235
0.0562259
0.0510721
0.0456287
0.0390915
0.0243964
0.0236487
0.0285726
0.0318983
0.0357176
0.0386814
0.0411315
0.0428136
0.0436617
0.0435839
0.0422721
0.0395194
0.0353331
0.0296796
0.0235312
0.0228975
0.0202288
0.0258234
0.0308106
0.0359072
0.0413691
0.0501398
0.0417867
0.0278638
0.0376605
0.0458081
0.0526756
0.0573107
0.0600506
0.0610955
0.0604528
0.0584122
0.0553711
0.0515867
0.0473731
0.0433988
0.0393988
0.0341382
0.0308124
0.0265699
0.0230951
0.0205225
0.0187003
0.0175094
0.016577
0.0157732
0.0150914
0.014499
0.0141488
0.0140612
0.0140781
0.0141265
0.0142136
0.0145349
0.0121057
0.0102512
0.00975305
0.00959945
0.00912633
0.00781706
0.0106159
0.0119432
0.0125319
0.0128833
0.0140756
0.0142251
0.0134079
0.014419
0.0198236
0.0211397
0.0213616
0.0209289
0.0265946
0.0266069
0.0260362
0.0239271
0.0182719
0.0173996
0.0213886
0.0204738
0.0198197
0.0183673
0.0176915
0.0152074
0.0149038
0.0141246
0.0138041
0.0145605
0.0178538
0.0173504
0.0176438
0.0188311
0.0191136
0.0203653
0.0213981
0.0205447
0.0203189
0.0157211
0.0156171
0.0166497
0.0164909
0.0169741
0.0201656
0.0202005
0.0203327
0.0204313
0.0229342
0.0229523
0.0229322
0.0230458
0.0243079
0.0230071
0.022429
0.0224652
0.0225033
0.0205893
0.0205537
0.0203698
0.0204542
0.0176382
0.0168396
0.0176179
0.0186135
0.0205543
0.0240745
0.030517
0.0394067
0.0493702
0.0593807
0.0668998
0.0709649
0.0750872
0.0743153
0.0748299
0.0766948
0.076988
0.0758988
0.0741866
0.0721454
0.0692416
0.0645694
0.0641978
0.0568938
0.0465023
0.031989
0.0372494
0.0398664
0.0424457
0.0427495
0.0432675
0.042225
0.0406868
0.0373886
0.0327051
0.0248372
0.0257135
0.0304938
0.0354543
0.0394933
0.0439124
0.0477854
0.0498222
0.0515649
0.0616708
0.059201
0.0571534
0.0586717
0.0603513
0.0638096
0.0622237
0.0580695
0.0518687
0.0533327
0.0461528
0.0341615
0.0317448
0.0294235
0.0267856
0.0365151
0.047204
0.0574238
0.0628885
0.0686442
0.0728319
0.0764951
0.0806889
0.0756013
0.0708608
0.0535889
0.0767671
0.0590725
0.0447395
0.0363363
0.0293835
0.0295392
0.0325976
0.0326383
0.0307814
0.0263777
0.0214503
0.0259194
0.0387086
0.0479574
0.0554128
0.0570335
0.0614972
0.0635141
0.0585669
0.0589212
0.0490504
0.050393
0.0532686
0.0478305
0.0452951
0.036267
0.0277116
0.031656
0.045859
0.0628315
0.0772465
0.0915861
0.0590808
0.0443788
0.0362209
0.0302612
0.0293584
0.0333969
0.038939
0.0479467
0.0379531
0.0335139
0.0300394
0.0274438
0.0232195
0.0250661
0.0266878
0.0264158
0.0460795
0.0497976
0.0545794
0.0749759
0.0827777
0.0985421
0.0969368
0.0841055
0.0874281
0.0607689
0.0604442
0.0772728
0.0610107
0.0458852
0.0562758
0.0694243
0.0829696
0.0957466
0.10665
0.11536
0.1188
0.108862
0.0799988
0.0467304
0.0219927
0.019726
0.0191232
0.0183349
0.017363
0.0162219
0.015319
0.0121687
0.00967291
0.00966018
0.0098758
0.00976762
0.00831412
0.00971866
0.0118155
0.014
0.0154941
0.0166893
0.017698
0.0184163
0.0190045
0.0194062
0.0197095
0.0199766
0.0202059
0.0203825
0.0205066
0.020581
0.0206083
0.0205832
0.0205008
0.0203599
0.0201565
0.0198715
0.0193972
0.017848
0.0160267
0.0152516
0.0153289
0.0150961
0.0148218
0.0121711
0.0124886
0.01456
0.0151743
0.0179474
0.0199785
0.021678
0.0231269
0.0246548
0.0254404
0.0262754
0.0265326
0.026568
0.0264426
0.0262622
0.0260009
0.025656
0.0245477
0.0214859
0.0251486
0.0275896
0.0293397
0.0307418
0.0316889
0.0317892
0.0289376
0.0367649
0.0389623
0.039892
0.0401516
0.0392377
0.0370578
0.0343474
0.032076
0.030514
0.0293633
0.0271666
0.0249155
0.0226199
0.0202265
0.0170552
0.0184418
0.0203452
0.020563
0.0203047
0.0213954
0.0227093
0.0210079
0.01879
0.0160492
0.0151101
0.0147433
0.0146294
0.0152289
0.0147729
0.0145271
0.0149069
0.0177067
0.0187695
0.0204957
0.0238916
0.0227473
0.020789
0.0282171
0.0297971
0.0302719
0.0306872
0.0306027
0.0299056
0.0266673
0.0251376
0.026502
0.024955
0.0242689
0.0242906
0.0239067
0.021916
0.0241865
0.0261571
0.0277312
0.0285913
0.0300409
0.031662
0.0339998
0.0359839
0.0378189
0.0389171
0.0388741
0.0381632
0.0381861
0.0388508
0.0383742
0.0367615
0.034676
0.0325374
0.0294722
0.0294361
0.0314686
0.0330481
0.0346966
0.0364315
0.0358794
0.0339785
0.0323522
0.0309135
0.029143
0.029071
0.0308162
0.0323014
0.0340799
0.0362629
0.0365268
0.0343266
0.032446
0.0308718
0.0290951
0.0290886
0.0308636
0.032449
0.0342325
0.0361409
0.0351783
0.0337394
0.0321765
0.0306553
0.0289267
0.0284811
0.0301306
0.0315397
0.0328484
0.0338405
0.0320163
0.0315477
0.0305134
0.0291172
0.0273327
0.026051
0.0265646
0.0279604
0.0280608
0.0285054
0.0295824
0.0293142
0.0289714
0.0288042
0.0284976
0.0262433
0.0266749
0.0268174
0.027568
0.0311559
0.0306291
0.0331304
0.0353638
0.0329713
0.0316143
0.0282704
0.0342588
0.0341007
0.0347311
0.033358
0.0236097
0.0217765
0.0228421
0.0243722
0.0259705
0.0252467
0.0225538
0.0222559
0.0227222
0.0219294
0.0201186
0.0171779
0.0129571
0.0129542
0.0128975
0.0136025
0.016391
0.0180834
0.0182058
0.0180276
0.0176592
0.0170369
0.016004
0.0146732
0.0193168
0.0477779
0.0565553
0.0598247
0.0580004
0.0434547
0.0393069
0.0318515
0.0256963
0.0211721
0.0184936
0.0155965
0.0156634
0.0191167
0.0206414
0.0238782
0.0202583
0.026316
0.0283647
0.029715
0.0435089
0.04706
0.0428387
0.0321314
0.0184693
0.0180792
0.0192348
0.0197514
0.0201651
0.0205485
0.0209375
0.0213784
0.0208586
0.0182701
0.0160252
0.0160597
0.0166465
0.0191667
0.0207001
0.0216544
0.0214836
0.0219502
0.0235902
0.0223965
0.0210131
0.020656
0.0198075
0.022619
0.0230769
0.0226467
0.0226541
0.0230976
0.0231728
0.0232742
0.0239566
0.0197788
0.0221546
0.0227691
0.023062
0.023845
0.0193297
0.0195494
0.0196398
0.0185032
0.0150317
0.0177167
0.0165405
0.0121303
0.0134748
0.0136624
0.0143224
0.0146319
0.0176366
0.0169732
0.0161383
0.0165371
0.0226155
0.0235353
0.0236139
0.0208071
0.0195133
0.0220569
0.0227404
0.0222986
0.0213705
0.0214784
0.0204702
0.0185611
0.0178292
0.017968
0.019379
0.020224
0.0203271
0.0238936
0.0233854
0.0218148
0.0228328
0.0234623
0.0230368
0.0228769
0.0226537
0.0221009
0.0217038
0.0222845
0.0226251
0.0227255
0.022282
0.0225312
0.0254039
0.0216055
0.0214131
0.0203399
0.0196822
0.0180457
0.017815
0.0179278
0.017898
0.0178127
0.0169771
0.0188252
0.01807
0.0202385
0.0218512
0.0229979
0.0241686
0.0243288
0.023898
0.0238589
0.023461
0.0234202
0.0228629
0.0220112
0.0214216
0.0206525
0.0194404
0.0194499
0.0194121
0.0192712
0.0206834
0.0205839
0.0221494
0.0232668
0.0229768
0.0220145
0.0219002
0.0207245
0.0206889
0.0217296
0.0226193
0.0228806
0.0237607
0.0263931
0.0239414
0.0255385
0.0262531
0.0269698
0.0262967
0.0251787
0.0258992
0.0242159
0.0230902
0.0244067
0.0251277
0.0263851
0.0271775
0.0251343
0.024109
0.0229252
0.0220784
0.0211169
0.0185811
0.0191421
0.0198793
0.0210823
0.0228915
0.025602
0.0282589
0.0312776
0.0312949
0.0289537
0.0273616
0.0321301
0.0315763
0.0366514
0.037193
0.0331148
0.0304297
0.0275855
0.02713
0.0261681
0.025605
0.0243495
0.0256364
0.0260755
0.0250891
0.0274823
0.0289824
0.0333411
0.0387489
0.0352443
0.0325955
0.0380126
0.0370856
0.042818
0.0365448
0.0349757
0.0286551
0.0334593
0.0360947
0.043585
0.0340415
0.0298599
0.0297334
0.0313022
0.0388162
0.0371171
0.0395348
0.0449782
0.0443755
0.0396783
0.0363155
0.0417681
0.0317945
0.0375537
0.0396064
0.0331012
0.0324874
0.0393319
0.0400039
0.0403695
0.0344797
0.0333845
0.0251695
0.0336207
0.0401852
0.0401542
0.0334168
0.0265758
0.0362512
0.0317605
0.0315562
0.0315662
0.0271001
0.0271122
0.0263803
0.0267074
0.0275229
0.0249092
0.0257467
0.0260007
0.0261313
0.0262081
0.0263285
0.0265872
0.0271299
0.0276813
0.0229181
0.024233
0.0230876
0.0218691
0.0205869
0.0244453
0.0270033
0.0289044
0.0304542
0.0316669
0.0321276
0.0302783
0.0377013
0.039251
0.0410948
0.041424
0.0400468
0.0371238
0.0337006
0.030879
0.0292189
0.0280153
0.0257776
0.0236098
0.0214757
0.0192894
0.0164001
0.01493
0.0137293
0.0122852
0.0121668
0.0118045
0.0113899
0.0110616
0.0112329
0.0136329
0.0152244
0.0151139
0.0142234
0.0203286
0.0351389
0.0457801
0.0532732
0.0584627
0.0619491
0.0640109
0.06447
0.0618626
0.052306
0.0477008
0.0432396
0.0387058
0.0342637
0.03349
0.0425682
0.0506295
0.0572527
0.0629761
0.0662654
0.0641906
0.0491308
0.0490039
0.0655013
0.0925933
0.0820048
0.104934
0.123311
0.0830327
0.0669941
0.0649715
0.0782426
0.0811403
0.0754998
0.067187
0.0577555
0.0470676
0.0517926
0.0561317
0.0600947
0.0641017
0.0753038
0.0778268
0.0767061
0.0737352
0.0694635
0.0634165
0.0544449
0.0411119
0.0229102
0.0147696
0.0167761
0.0177018
0.0158359
0.016957
0.0166264
0.0167311
0.0167393
0.0120143
0.0125107
0.0129438
0.0130579
0.0125631
0.0129821
0.0144381
0.019655
0.0171228
0.0160756
0.0133587
0.015495
0.017614
0.0186424
0.0185082
0.0179735
0.0172445
0.0221056
0.0376959
0.0454449
0.0506036
0.0544118
0.0538974
0.0511009
0.0458851
0.039735
0.0373478
0.0336749
0.0309799
0.029876
0.030548
0.0271244
0.0178788
0.014831
0.0158883
0.0156181
0.0145537
0.0164783
0.0176922
0.018462
0.0190841
0.0195488
0.0199023
0.0201489
0.0203053
0.0203753
0.0203788
0.0203331
0.0202454
0.0201163
0.0199447
0.0197214
0.0194183
0.0189139
0.0172703
0.0154822
0.0147968
0.0148846
0.0146594
0.0143034
0.0124271
0.0126557
0.0145445
0.0151459
0.014692
0.0152203
0.0156155
0.0167053
0.0187602
0.0208898
0.0227172
0.0214719
0.0208936
0.0209175
0.0204754
0.0177889
0.0211807
0.0235851
0.0240832
0.0242694
0.0250215
0.0265468
0.0275765
0.0267153
0.0263252
0.0258141
0.023243
0.0250386
0.0279877
0.0283602
0.0288585
0.0293528
0.0298053
0.0311734
0.0306503
0.0300134
0.0295182
0.0272813
0.0264428
0.0309336
0.0220649
0.017359
0.014991
0.0120139
0.0120954
0.0121549
0.0130782
0.0138579
0.0144845
0.0137759
0.0148014
0.0155453
0.014252
0.0166718
0.0161135
0.0155079
0.0143494
0.0142214
0.0143763
0.0154724
0.0171362
0.0277929
0.0295223
0.0242296
0.0315377
0.033129
0.0285583
0.0321409
0.0301504
0.0295299
0.0324334
0.0351001
0.0353032
0.0330861
0.0323332
0.0308711
0.0207496
0.0201089
0.0194009
0.0176501
0.0183286
0.0179657
0.0173941
0.0169499
0.019436
0.0205455
0.0210923
0.0206532
0.0202242
0.019738
0.0194024
0.0238721
0.0317603
0.0405466
0.0444428
0.0436261
0.0402045
0.0339536
0.0288681
0.0287548
0.0272105
0.0263924
0.0264756
0.0206088
0.0157829
0.0175134
0.0175269
0.018569
0.0192143
0.0197113
0.0201012
0.0204201
0.020685
0.0209322
0.0211734
0.0213848
0.0215631
0.0217134
0.0218243
0.0219359
0.0220598
0.0222548
0.0224164
0.0209895
0.0185166
0.0172649
0.0171236
0.0178249
0.0187161
0.019848
0.0191563
0.0154404
0.0155122
0.0219569
0.0222425
0.0208419
0.0194415
0.0196046
0.018778
0.0223399
0.0220771
0.0226628
0.0224962
0.0222784
0.0220591
0.0218291
0.0215844
0.0213727
0.0211895
0.0210289
0.0208847
0.0207562
0.020606
0.0203643
0.0199711
0.0193389
0.0185175
0.017546
0.0187075
0.0191213
0.0205997
0.0227005
0.0241208
0.0234058
0.0219458
0.0209837
0.0208824
0.0211056
0.021375
0.0216685
0.022013
0.0223569
0.0226891
0.022637
0.0215298
0.0221489
0.0172313
0.0181348
0.0184159
0.0183587
0.0200943
0.0193229
0.014727
0.0151708
0.0157993
0.0169484
0.0193803
0.0196903
0.0209149
0.0211319
0.0170684
0.0167328
0.0163213
0.0174207
0.0151214
0.0156354
0.0259385
0.0268029
0.0346367
0.0378483
0.0396402
0.0331349
0.0456891
0.0524145
0.0503665
0.0410119
0.0234434
0.0345995
0.0422021
0.048757
0.0455612
0.0353325
0.0447141
0.047395
0.0631595
0.0586034
0.05221
0.0631988
0.0446992
0.0268172
0.0158557
0.0164449
0.0153139
0.0307652
0.0348801
0.0314625
0.0322902
0.0400271
0.0410716
0.0362209
0.0346405
0.0364126
0.0359746
0.0398742
0.037079
0.0338561
0.0232568
0.0189923
0.0197443
0.0210652
0.0228129
0.0251245
0.0250619
0.0239814
0.0227011
0.0218099
0.0208342
0.0183454
0.0177867
0.0197506
0.0213958
0.0227919
0.0242859
0.0250784
0.0259085
0.0260941
0.0260067
0.0257061
0.0253046
0.0247856
0.0241444
0.0227797
0.0241571
0.02475
0.0248869
0.0251071
0.025357
0.0255557
0.0256091
0.0254398
0.0245705
0.0238215
0.0226799
0.0215452
0.0199328
0.0178166
0.0184859
0.0202355
0.0218246
0.0229423
0.0239846
0.0235555
0.023985
0.0245686
0.0246594
0.0245934
0.0244525
0.0243762
0.0245333
0.0252562
0.027019
0.026423
0.0288023
0.0301674
0.0276757
0.0263915
0.025758
0.0254023
0.0252186
0.0250569
0.0248726
0.0243105
0.0237473
0.0242511
0.0244911
0.0247507
0.0250696
0.0255479
0.0262471
0.027378
0.0287973
0.0284635
0.0265806
0.0266323
0.0254895
0.024593
0.0241632
0.0240415
0.0240181
0.0240069
0.0238708
0.0233861
0.0231005
0.0235208
0.0225356
0.0226329
0.0216639
0.0203209
0.0188885
0.0174349
0.0167797
0.0351234
0.0351341
0.0457904
0.042265
0.0368951
0.0468772
0.0598689
0.0519011
0.0627621
0.0664885
0.0539778
0.0502758
0.0277295
0.0242502
0.0174982
0.0190213
0.0203549
0.0215403
0.0213487
0.0222516
0.0221267
0.023053
0.0225099
0.021682
0.0212373
0.0202325
0.0202982
0.0190374
0.017499
0.0173608
0.0189969
0.019928
0.0210907
0.0210234
0.0224451
0.0230136
0.0234216
0.023658
0.0237698
0.023914
0.0241476
0.0246333
0.0254463
0.0259784
0.0260816
0.0264015
0.0263124
0.0259579
0.0254143
0.0250345
0.0246832
0.0243943
0.0241046
0.0238194
0.0233825
0.0227313
0.0226051
0.0231328
0.0235018
0.0237847
0.0239593
0.023996
0.0238799
0.0236625
0.0234506
0.02314
0.0231391
0.0242729
0.0243934
0.0243818
0.0240623
0.023918
0.0239186
0.0238189
0.0236517
0.0232728
0.0228577
0.0223278
0.0212558
0.0213766
0.0222927
0.0228161
0.0232454
0.0236574
0.0236945
0.0235108
0.0230904
0.0227781
0.0225868
0.0222147
0.0216993
0.0196419
0.0200338
0.0206217
0.0213547
0.0220913
0.0227157
0.0230912
0.0232064
0.023105
0.0228648
0.0224669
0.0216765
0.0216694
0.0222796
0.0225341
0.0225883
0.0224098
0.0219368
0.021094
0.0199817
0.0188262
0.0178516
0.0172477
0.0164154
0.0189092
0.0197603
0.0204609
0.0211003
0.0218929
0.0227835
0.0233116
0.0234454
0.0231854
0.0228056
0.0222844
0.0214486
0.0214899
0.0222865
0.0228111
0.0231633
0.0233998
0.022997
0.0220251
0.020466
0.0190717
0.018088
0.0172118
0.0161522
0.0148055
0.0153386
0.015466
0.0163742
0.0177343
0.0193115
0.0207109
0.0215656
0.0219953
0.0221357
0.0220327
0.0215926
0.0214517
0.0217334
0.0217069
0.0213676
0.0206204
0.0193878
0.0177443
0.0162589
0.015474
0.0157295
0.0162564
0.0156832
0.014384
0.0155498
0.0164004
0.0173459
0.0188719
0.0209092
0.0223424
0.0230301
0.023072
0.022808
0.022277
0.0215027
0.0214882
0.0222664
0.0228281
0.0231301
0.0230443
0.0222617
0.0209027
0.0185393
0.0161675
0.0153223
0.0147024
0.0136676
0.0157632
0.0164594
0.0158407
0.0154362
0.01645
0.0177806
0.0192098
0.0202873
0.0209338
0.0213247
0.0214207
0.0212603
0.0210355
0.0211278
0.0210714
0.020776
0.020312
0.0196859
0.018683
0.0177621
0.0169362
0.0178467
0.0179517
0.0171508
0.0152105
0.016147
0.0173836
0.0172534
0.019138
0.0212739
0.0224507
0.0230778
0.023169
0.0228572
0.0222355
0.0214403
0.0213515
0.0221894
0.0229027
0.0233706
0.0236169
0.0232965
0.0230528
0.0217678
0.0200531
0.0198527
0.0168589
0.0153986
0.0175139
0.0184682
0.0187518
0.0184601
0.0199337
0.0205266
0.0208045
0.0210267
0.0211073
0.0210154
0.0208984
0.0207973
0.0205296
0.0206241
0.0208401
0.0210529
0.0208852
0.0205201
0.01997
0.0193771
0.0183964
0.0198097
0.0208042
0.0202372
0.01793
0.0190742
0.0213383
0.0204029
0.0214993
0.0225874
0.0231262
0.0234605
0.0233566
0.0227771
0.0220306
0.0211849
0.0209058
0.0216563
0.0225327
0.0226348
0.0227759
0.0227616
0.0220604
0.0218749
0.0211655
0.0208572
0.0199621
0.0193071
0.0184685
0.0206392
0.0239007
0.0261211
0.0276193
0.0294382
0.0278438
0.024236
0.0218598
0.015103
0.0151201
0.0153492
0.0148029
0.0144984
0.0143718
0.01899
0.0217561
0.0243888
0.0260217
0.0235635
0.0234952
0.0233698
0.0232341
0.0230655
0.0228968
0.0226284
0.0231803
0.0404291
0.282847
0.207299
0.233715
0.222186
0.31496
0.0739323
0.0385618
0.0430147
0.0505142
0.0592538
0.05794
0.0541947
0.047507
0.0432431
0.0428408
0.0420701
0.041862
0.0397518
0.039696
0.0385684
0.0484743
0.0993238
0.12253
0.135593
0.143903
0.153062
0.14878
0.157941
0.150316
0.151145
0.152946
0.157739
0.150497
0.143199
0.139377
0.135218
0.118031
0.118401
0.0999054
0.103816
0.0862925
0.0904011
0.094352
0.0936292
0.092237
0.0918495
0.0919478
0.0925544
0.0955229
0.0909575
0.0977192
0.0913191
0.0748802
0.0726337
0.0751309
0.0693725
0.0608947
0.0686822
0.0839148
0.099541
0.115247
0.098165
0.120528
0.113443
0.112811
0.107561
0.102065
0.0986616
0.098312
0.0991624
0.100448
0.103233
0.105271
0.107057
0.109994
0.118773
0.120744
0.118883
0.101401
0.0862201
0.0946885
0.0994537
0.103248
0.103547
0.0989158
0.0965041
0.0898429
0.0881628
0.0823844
0.0797956
0.0741555
0.0708362
0.0659646
0.0821506
0.0805632
0.0875839
0.0938607
0.0982754
0.101883
0.103582
0.10478
0.103638
0.101277
0.096623
0.0948777
0.0902936
0.108697
0.127233
0.130508
0.126196
0.112397
0.106639
0.339897
0.411961
0.412797
0.610866
0.650828
0.838633
0.335296
0.181018
0.193456
0.189972
0.181506
0.177905
0.177069
0.187909
0.195635
0.18695
0.196361
0.176484
0.172269
0.170209
0.199709
0.198551
0.179757
0.157862
0.126736
0.103973
0.103397
0.0864404
0.0867939
0.0753615
0.0758072
0.0771231
0.0983775
0.174389
0.207155
0.232784
0.258546
0.317987
0.289175
0.437233
0.351272
0.437044
0.302953
0.32659
0.312424
0.303995
0.302265
0.318534
0.340176
0.299643
0.371906
0.298629
0.645955
0.781427
0.499118
0.461357
0.409408
0.395303
0.385318
0.379541
0.370376
0.484289
0.44933
0.544183
0.505272
0.625823
0.559903
0.572622
0.538633
0.579422
0.599386
0.613872
0.494465
0.542787
0.42433
0.458272
0.381707
0.417135
0.293678
0.294518
0.336925
0.370995
0.396233
0.452772
0.70709
0.602338
0.811117
0.582262
0.703715
0.489125
0.534213
0.510359
0.492858
0.494553
0.522728
0.62822
0.608013
0.69273
0.514663
0.526961
0.516653
0.533989
0.523387
0.558265
0.562922
0.564067
0.562
0.523335
0.533904
0.532123
0.53194
0.531967
0.532303
0.509553
0.512721
0.505201
0.510978
0.526896
0.514562
0.514486
0.512336
0.504775
0.502725
0.502243
0.503997
0.503769
0.508894
0.508764
0.509093
0.512126
0.526823
0.514375
1.80821
0.895019
0.426502
0.337217
0.221309
0.135735
0.0551547
0.059457
0.0621669
0.0628026
0.0604106
0.0547187
0.0464371
0.0369573
0.0293707
0.0280642
0.0241914
0.0225284
0.0288377
0.03649
0.0325844
0.0411121
0.0495907
0.0584291
0.066531
0.0734758
0.079394
0.0831162
0.0810657
0.0694029
0.0521364
0.0358238
0.0264039
0.0240674
0.0225027
0.0203199
0.0181093
0.0166122
0.0154493
0.0140478
0.0132442
0.0130497
0.0131024
0.0132473
0.0135495
0.0150612
0.0163438
0.0175037
0.0184143
0.0186596
0.0183537
0.018891
0.0195039
0.0198926
0.0202233
0.0202619
0.0203379
0.0205936
0.0205517
0.0207562
0.0206358
0.0205606
0.020394
0.0201271
0.019906
0.0194928
0.0192442
0.0188033
0.018471
0.0177298
0.017761
0.0182305
0.0185827
0.0177506
0.0178656
0.0169321
0.0192102
0.0348697
0.0563424
0.0630078
0.069259
0.0651339
0.0520567
0.0323704
0.0187539
0.0197353
0.020051
0.0218053
0.0207633
0.0185173
0.0203308
0.0220556
0.0201518
0.0198372
0.0198276
0.0206995
0.0210148
0.0218226
0.0221434
0.0225371
0.0227492
0.0229585
0.0231155
0.0229655
0.0230151
0.0225415
0.0225022
0.0221818
0.0218985
0.0222883
0.0231378
0.0231545
0.0236797
0.0233632
0.0228496
0.0223314
0.0219234
0.0213203
0.0208122
0.020227
0.0194691
0.0190561
0.0197819
0.0206198
0.0200159
0.0224689
0.0223042
0.0212267
0.0238082
0.0232263
0.0210352
0.0227953
0.0206655
0.0214527
0.0213753
0.0199446
0.0206032
0.0198116
0.0195371
0.0197504
0.0199859
0.020559
0.0210294
0.0212848
0.0218644
0.0224942
0.0231537
0.0245798
0.0248319
0.0239877
0.0238753
0.022421
0.0215444
0.0212377
0.0224155
0.0240226
0.0237063
0.0244594
0.0242759
0.0228659
0.0221167
0.0213332
0.0206688
0.0204051
0.020185
0.0195099
0.0195854
0.0186948
0.0191082
0.017961
0.0199679
0.0201168
0.0212835
0.0198298
0.0180383
0.0205325
0.0243136
0.0384772
0.0267159
0.0183519
0.0225153
0.0295852
0.0348945
0.0249668
0.0223069
0.0169277
0.017073
0.0176303
0.0175363
0.0186702
0.0185524
0.0196094
0.0202761
0.0204032
0.0209434
0.021188
0.0219199
0.022138
0.0228424
0.0230182
0.0244513
0.024493
0.0244984
0.0244713
0.0238212
0.0237826
0.0240411
0.0244871
0.0241284
0.0245617
0.0245739
0.024703
0.024693
0.0232188
0.0229178
0.0221797
0.021721
0.0208628
0.0204534
0.0199271
0.0197369
0.0191799
0.0193171
0.0198666
0.0200268
0.0207433
0.0207543
0.0214917
0.0216664
0.022094
0.0222033
0.0228548
0.02297
0.0232241
0.0232716
0.0246217
0.0247163
0.0246985
0.0246628
0.0246373
0.0248428
0.0248499
0.0248255
0.0248792
0.0252244
0.0251335
0.0249719
0.0262261
0.0268953
0.0259757
0.0255534
0.0257939
0.0268609
0.0274351
0.0287408
0.0296573
0.0308965
0.0318308
0.0327475
0.0334155
0.0339235
0.0339684
0.0339791
0.0333933
0.0329668
0.0346358
0.0411534
0.0443693
0.0496285
0.051963
0.0538093
0.0544017
0.0531291
0.0537926
0.0523798
0.0525377
0.0511788
0.0505783
0.0495992
0.0483889
0.0475338
0.0458631
0.0450237
0.0495698
0.0559867
0.056152
0.0495997
0.0465601
0.0403186
0.0333879
0.0372601
0.0436408
0.0385028
0.0370707
0.0339101
0.0285044
0.0217124
0.0129836
0.0186812
0.0271404
0.0350668
0.0430925
0.050099
0.0547749
0.0571954
0.0587204
0.0608596
0.0593912
0.0524207
0.0420619
0.033489
0.0303933
0.0289026
0.0261393
0.0223283
0.0200466
0.0188727
0.0175912
0.0160329
0.0149502
0.0146214
0.0146419
0.0146938
0.0160329
0.0172641
0.0172932
0.0184423
0.0185489
0.019044
0.0196061
0.0199759
0.0207632
0.0207023
0.0196953
0.0200404
0.0203067
0.0209728
0.0208489
0.0210098
0.0207316
0.0200096
0.0195004
0.0189626
0.0184747
0.0181225
0.0175689
0.0169399
0.016881
0.0172462
0.016898
0.017238
0.0176332
0.0179314
0.0185066
0.019317
0.0200352
0.0218107
0.0220205
0.0217051
0.0218027
0.0204192
0.0203672
0.0193815
0.0191775
0.0208468
0.0207356
0.0189939
0.0204314
0.0203555
0.0220151
0.0220163
0.0213873
0.0216547
0.0214728
0.0197025
0.0188763
0.0179146
0.0172019
0.0167132
0.0163893
0.0161229
0.0166029
0.0158948
0.0151429
0.015317
0.0153046
0.0153635
0.0156871
0.0160653
0.0167607
0.0173898
0.0183481
0.0189223
0.0197447
0.0200491
0.0219014
0.0218386
0.0217655
0.021784
0.0217933
0.0222592
0.0214901
0.0214602
0.0216808
0.0216961
0.0216586
0.0216264
0.0198468
0.0196582
0.0188868
0.0186047
0.0177563
0.0174354
0.0168285
0.0165581
0.0162216
0.0160519
0.0241992
0.0267015
0.027218
0.0417079
0.0212375
0.0212951
0.0361346
0.0184249
0.0244226
0.0252095
0.0262466
0.0270784
0.0238115
0.0321859
0.0223257
0.024045
0.025048
0.0268289
0.0138776
0.0141099
0.0145025
0.0207846
0.0257481
0.0328675
0.0461725
0.0521891
0.056964
0.0604889
0.0631623
0.0662706
0.0691009
0.0714117
0.072066
0.0690941
0.0665785
0.057885
0.0543172
0.0581801
0.062828
0.0496947
0.0448978
0.0455374
0.0462441
0.0468747
0.0472443
0.0480616
0.0479842
0.049157
0.0484626
0.0497186
0.0487068
0.0499239
0.0483666
0.0451364
0.0417415
0.0348528
0.0325983
0.0314188
0.0286159
0.0260175
0.0234225
0.0214728
0.0210899
0.0193703
0.0176509
0.0173313
0.0160557
0.0160338
0.0171184
0.0201814
0.0172472
0.0183983
0.0266668
0.01983
0.0188111
0.0194253
0.019966
0.0201818
0.019108
0.0208111
0.0230334
0.0228586
0.0228736
0.0228436
0.0221609
0.0220399
0.0217178
0.0217669
0.0218
0.0218998
0.0218536
0.0200929
0.0200401
0.0197952
0.0196695
0.0189476
0.0188012
0.0182727
0.0179914
0.0172054
0.0169606
0.0165134
0.0164849
0.014854
0.0146883
0.0152483
0.0150146
0.0146574
0.0143581
0.0144228
0.0256769
0.024921
0.0287963
0.0274808
0.0406654
0.0272352
0.0240882
0.0244206
0.0296624
0.029374
0.0319468
0.0433545
0.0328313
0.026425
0.037118
0.0292242
0.0311882
0.0362925
0.0417981
0.0789222
0.101409
0.0454519
0.0483441
0.0563095
0.0554296
0.0545251
0.0379568
0.0382225
0.0280346
0.0190625
0.0143347
0.0248513
0.0318592
0.0323318
0.0411099
0.084029
0.0486279
0.0555688
0.0629523
0.0621621
0.0657465
0.0625571
0.0605288
0.0612053
0.102552
0.115591
0.0645635
0.0630549
0.05562
0.0653046
0.111312
0.136431
0.118467
0.126082
0.115697
0.0412054
0.0272086
0.0251614
0.0246436
0.0275799
0.026904
0.0482503
0.0216992
0.0231191
0.023827
0.0287586
0.0314337
0.0550928
0.024103
0.0263938
0.0336604
0.035858
0.0480006
0.0280601
0.0289498
0.0355871
0.0374438
0.0407701
0.0347108
0.032897
0.0300541
0.0268448
0.0252477
0.0255656
0.0322481
0.0486746
0.0286775
0.0291651
0.0311344
0.130942
0.0318815
0.0276475
0.0278892
0.026702
0.0342868
0.0370311
0.10276
0.0339946
0.0171648
0.0164766
0.0170247
0.0177907
0.0183717
0.0189129
0.0193361
0.0198935
0.0202813
0.0203913
0.0205524
0.0229042
0.0228618
0.0223582
0.0218056
0.0226405
0.0219279
0.0219931
0.0226159
0.0220959
0.0221833
0.023245
0.0243124
0.0238899
0.0245064
0.0258175
0.024703
0.0229392
0.0227711
0.0229505
0.0236576
0.0248643
0.0236277
0.0242593
0.023415
0.0244555
0.024454
0.0211178
0.0207667
0.0206061
0.0201232
0.0195275
0.0189311
0.0182629
0.0175013
0.016646
0.0158596
0.0151549
0.0159278
0.0154787
0.0146468
0.0154415
0.0154645
0.0159095
0.0166207
0.0173947
0.0180697
0.018805
0.0195537
0.0202166
0.0207601
0.0209258
0.0214952
0.0254237
0.0255421
0.0267804
0.0254778
0.0268549
0.0258282
0.0244263
0.0235414
0.0247574
0.0239815
0.0244519
0.0261486
0.0270509
0.0247273
0.0250906
0.0225638
0.0211477
0.0194137
0.0198245
0.0214195
0.0220598
0.0245665
0.0245414
0.028092
0.0278966
0.0276238
0.0262773
0.02559
0.0271408
0.0256251
0.026816
0.0256664
0.027156
0.0283337
0.0287871
0.0280883
0.0269917
0.0261062
0.0217833
0.0210094
0.0207159
0.0201496
0.0194876
0.0188683
0.0187654
0.0199481
0.0222267
0.0255313
0.0297716
0.0347613
0.0359973
0.0163991
0.0198638
0.0169806
0.0243087
0.0231073
0.0462861
0.0206759
0.0616982
0.0548201
0.0344138
0.0491276
0.0573344
0.063387
0.067567
0.0599218
0.0457883
0.0325712
0.0295361
0.0315607
0.0664278
0.066788
0.0795999
0.0767839
0.0811656
0.0797259
0.0774407
0.0762187
0.0747709
0.0709625
0.0708832
0.0689759
0.069228
0.0614712
0.0625839
0.0630903
0.0606155
0.0578594
0.0555791
0.053406
0.0510984
0.0471278
0.0457812
0.0431939
0.0413252
0.0378852
0.0374258
0.0369443
0.0347161
0.0331183
0.0318335
0.030534
0.0287799
0.0289013
0.0271473
0.026959
0.021985
0.0216452
0.0206707
0.0202769
0.0197503
0.0191371
0.0186332
0.0182338
0.0346068
0.0305646
0.032447
0.0337863
0.0343129
0.0405077
0.0474752
0.0728171
0.0676094
0.0750204
0.0637768
0.06644
0.0654114
0.0648554
0.0674883
0.0711411
0.0764408
0.08898
0.336515
0.513998
0.255565
0.239168
0.248461
0.253143
0.260808
0.343401
0.362503
0.361305
0.363596
0.333271
0.318779
0.196795
0.226372
0.238326
0.236837
0.223299
0.192645
0.349541
0.522866
0.518901
0.52367
0.523782
0.518753
0.52268
0.5029
0.514255
0.501762
0.515041
0.502316
0.52181
0.519107
0.504363
0.50113
0.501144
0.500905
0.50136
0.50154
0.504863
0.506027
0.506078
0.505075
0.503753
0.514749
0.365373
0.0735363
0.0517192
0.0797757
0.110183
0.084475
0.128449
0.155762
0.109627
0.0595839
0.0462809
0.0536083
0.0615995
0.0602296
0.0765844
0.105771
0.101742
0.0822129
0.0831034
0.0761021
0.108335
0.104975
0.129939
0.161913
0.163971
0.109385
0.0823786
0.0726275
0.133214
0.154771
0.149824
0.0544036
0.0247847
0.0198887
0.020489
0.0309604
0.0158249
0.0174052
0.0175682
0.0219406
0.0542053
0.0239165
0.0599071
0.0633801
0.142936
0.115501
0.145813
0.0851603
0.104817
0.059263
0.0703756
0.0805263
0.0875389
0.0861619
0.0721826
0.158559
0.221074
0.13802
0.493302
0.494696
0.159345
0.202021
0.561603
0.513234
0.503267
0.501725
0.50168
0.501844
0.501801
0.500957
0.500904
0.50072
0.500759
0.500713
0.501159
0.504764
0.520583
0.514756
0.505245
0.501385
0.500822
0.500794
0.500684
0.500721
0.50074
0.500793
0.501002
0.501031
0.501123
0.501632
0.503892
0.512283
0.444514
0.168658
0.183443
0.410486
0.365885
0.511635
0.504626
0.501349
0.50092
0.500838
0.500812
0.500781
0.500956
0.500881
0.501387
0.501223
0.501283
0.502784
0.508295
0.506472
0.450959
0.375749
0.425274
0.335423
0.506749
0.507811
0.503269
0.502882
0.50323
0.503389
0.501498
0.501504
0.500974
0.501038
0.500872
0.501325
0.504771
0.511216
0.349758
0.172597
0.179101
0.261664
0.0872233
0.0891157
0.0898285
0.0908635
0.230111
0.391592
0.503061
0.426951
0.44854
0.507253
0.364179
0.345717
0.277237
0.302631
0.382474
0.336195
0.3063
0.242057
0.278206
0.242732
0.300546
0.215632
0.23452
0.221644
0.281065
0.286046
0.287324
0.22747
0.216935
0.271222
0.289194
0.322316
0.219218
0.262055
0.202446
0.191952
0.0847226
0.085478
0.0766122
0.066156
0.0676855
0.0764088
0.0757216
0.0822158
0.079793
0.0843129
0.0819175
0.0791911
0.0716425
0.073337
0.0665705
0.0687479
0.128395
0.165611
0.149484
0.150148
0.17765
0.124536
0.152935
0.139616
0.183885
0.229425
0.159032
0.19218
0.164539
0.243782
0.361047
0.717077
0.279822
0.17374
0.288983
0.343586
0.284752
0.186527
0.446842
0.548429
0.300328
0.370251
1.23418
1.06402
1.80822
0.968582
1.05944
0.608211
0.581246
0.999691
0.618818
0.613584
0.513029
0.545012
0.425345
0.275625
0.266592
0.255775
0.198911
0.223296
0.215904
0.243384
0.267859
0.225001
0.270624
0.309273
0.355647
0.301154
0.25413
0.317162
0.180677
0.225539
0.279256
0.257959
0.208723
0.268673
0.362611
0.301706
0.251231
0.32121
0.420557
0.467652
0.396998
0.328582
0.362163
0.862298
0.803134
0.828356
0.497113
1.91359
1.58616
0.23421
0.0809181
0.0449918
0.0253662
0.0218161
0.0189112
0.0184092
0.0467829
0.0201917
0.0236391
0.0206555
0.0241947
0.0251234
0.0287741
0.0435489
0.0332669
0.0411133
0.0322885
0.0345197
0.0307227
0.0380507
0.0394936
0.0385599
0.0308077
0.0289815
0.0386183
0.0457071
0.027533
0.0487612
0.0519269
0.0359155
0.0459923
0.0525558
0.0290983
0.119424
0.0471168
0.0427447
0.0432327
0.0694976
0.155538
0.0543624
0.0803935
0.464647
1.43116
0.41382
0.145914
0.112297
0.041203
0.0366146