/*--------------------------------*- C++ -*----------------------------------*\
| =========                 |                                                 |
| \\      /  F ield         | OpenFOAM: The Open Source CFD Toolbox           |
|  \\    /   O peration     | Version:  v2012                                 |
|   \\  /    A nd           | Website:  www.openfoam.com                      |
|    \\/     M anipulation  |                                                 |
\*---------------------------------------------------------------------------*/
FoamFile
{
    version     2.0;
    format      ascii;
    class       volScalarField;
    location    "70";
    object      nut;
}
// * * * * * * * * * * * * * * * * * * * * * * * * * * * * * * * * * * * * * //

dimensions      [0 2 -1 0 0 0 0];


internalField   nonuniform List<scalar> 
18258
(
0.00428648
0.00193719
0.00166931
0.00150288
0.000986874
0.00157117
0.0021146
0.0025006
0.00260961
0.00253969
0.00258755
0.00430523
0.00599168
0.00734931
0.00768906
0.00767254
0.00694248
0.00668552
0.00735
0.00900981
0.00756212
0.00484563
0.00582204
0.00671156
0.00724151
0.00641195
0.00518841
0.00482763
0.00438795
0.0036741
0.00309122
0.00211311
0.00150296
0.00140045
0.00127138
0.00145143
0.00158258
0.00168917
0.00172776
0.00175559
0.00174394
0.00173391
0.00168612
0.00165474
0.00160107
0.00131971
0.00159186
0.00151661
0.00168391
0.00233242
0.00251785
0.00213109
0.00238736
0.00214961
0.00143549
0.00164403
0.00178468
0.0018274
0.00180969
0.00173989
0.00171878
0.00170089
0.00167673
0.00164702
0.00162961
0.00164795
0.00166584
0.00164748
0.00156611
0.00149891
0.00138916
0.00127879
0.00119554
0.0011306
0.00108191
0.00103274
0.000977238
0.000859138
0.000796337
0.0010566
0.00132649
0.00141684
0.00200466
0.00244354
0.00245909
0.00182883
0.00129307
0.00133797
0.00149386
0.0015203
0.00129508
0.00156398
0.00178831
0.00186582
0.00194991
0.00217752
0.00239375
0.00229926
0.00217925
0.00245769
0.00247436
0.00245128
0.00225762
0.00291393
0.00301297
0.0029438
0.00278053
0.00258298
0.00300577
0.00333301
0.0027395
0.00253338
0.00247582
0.00246154
0.00220828
0.00226017
0.00203385
0.00183135
0.00198541
0.00244152
0.00232167
0.00254864
0.00263714
0.00247124
0.00286404
0.00330271
0.00324067
0.00259064
0.00206543
0.00192483
0.00194145
0.00118605
0.00128162
0.00140875
0.00144247
0.00145911
0.00147541
0.00156507
0.00156154
0.00153904
0.00153648
0.00157794
0.000863161
0.000931534
0.000954886
0.000961653
0.000917726
0.00091231
0.000899138
0.000886231
0.000820858
0.000783403
0.000939402
0.0010563
0.00115147
0.00125897
0.00142875
0.00163494
0.00184922
0.00206374
0.00220432
0.00224169
0.00228039
0.00219418
0.00210874
0.00218154
0.00219325
0.00217926
0.00215108
0.0021148
0.00206404
0.00196937
0.00207618
0.00207137
0.00194816
0.00166218
0.001699
0.00169388
0.00173693
0.00172839
0.00174709
0.00172481
0.00169888
0.00162037
0.00151181
0.00127847
0.00124211
0.00126491
0.00163041
0.00198431
0.00307125
0.00375291
0.00436413
0.00466992
0.00501698
0.00405356
0.00450829
0.00346674
0.00311429
0.00396331
0.00518736
0.00295736
0.00161341
0.0030532
0.00270479
0.00195141
0.00173216
0.00177918
0.00177188
0.0020083
0.00229835
0.00253338
0.00264452
0.00275177
0.00283077
0.00292324
0.00304209
0.00307419
0.00297053
0.00251669
0.00301169
0.00242264
0.0028098
0.00253222
0.0017089
0.0018695
0.00199492
0.00182436
0.00176991
0.00169235
0.00154765
0.00204746
0.00259852
0.00297546
0.0033725
0.00449577
0.00414631
0.00396222
0.00307956
0.00297199
0.00156246
0.00223109
0.00229527
0.00258377
0.00171487
0.00156121
0.00146513
0.00187888
0.00214775
0.00253244
0.00280528
0.00334261
0.00255561
0.0029015
0.00262052
0.001827
0.00176336
0.00252389
0.00272865
0.00226358
0.0020402
0.00253317
0.00238498
0.00169068
0.00136164
0.00210334
0.00219971
0.00162024
0.00384661
0.00392192
0.00383081
0.00466897
0.00592658
0.00681375
0.00631045
0.00560111
0.00630499
0.00494701
0.00476133
0.00511941
0.00428578
0.00302781
0.00313762
0.00327617
0.00337778
0.00363373
0.00386395
0.00414269
0.00444098
0.00405853
0.00339457
0.00258863
0.00181106
0.00180781
0.00179776
0.00161257
0.00238735
0.00357924
0.00352536
0.00199081
0.00116903
0.00133684
0.00151151
0.00149273
0.00106642
0.000808671
0.00139245
0.00158908
0.00161268
0.00157117
0.00148243
0.00154813
0.00248585
0.00382965
0.00420838
0.00435847
0.00449994
0.00459936
0.00465378
0.00466983
0.00467819
0.00468924
0.00469945
0.00471583
0.00470184
0.00460237
0.00404839
0.00254445
0.00148924
0.00138617
0.00153077
0.00164625
0.00174807
0.00148914
0.000908238
0.00145185
0.00185742
0.00213149
0.00214829
0.002004
0.00194328
0.00306369
0.0040738
0.00480182
0.00494825
0.00501217
0.00495476
0.00494475
0.00483333
0.00479563
0.00420134
0.00302043
0.00330364
0.00354829
0.00359144
0.00367625
0.00380276
0.00371429
0.00350529
0.00514153
0.00590972
0.00598676
0.00611405
0.00603568
0.00591954
0.00563001
0.00530542
0.00446147
0.00334312
0.00210616
0.00214845
0.00228589
0.00226276
0.00196917
0.00208261
0.00226515
0.00228835
0.00236496
0.00265525
0.00301973
0.00287722
0.0024672
0.00210273
0.00196144
0.00192822
0.00185489
0.00139776
0.00141378
0.00136769
0.0013846
0.00184908
0.00219982
0.00253964
0.00361496
0.00322375
0.00262053
0.004188
0.00428684
0.0046139
0.00509725
0.00522899
0.00582742
0.00402336
0.00361116
0.00370782
0.00302368
0.00279564
0.00282164
0.00283117
0.00263041
0.00287916
0.00285361
0.00275073
0.00303823
0.00336034
0.00443628
0.00538999
0.00570176
0.0058865
0.00596309
0.00593863
0.00580979
0.00583398
0.00512465
0.00510847
0.00489766
0.0047567
0.00470396
0.00446344
0.00512214
0.00532184
0.00538776
0.0055205
0.00572616
0.00558175
0.00540831
0.00527729
0.00518104
0.00507693
0.0051355
0.00523572
0.00533997
0.00548501
0.00567966
0.00571849
0.00551745
0.00536418
0.00525717
0.00515589
0.0051624
0.00525324
0.00535806
0.00550334
0.00568478
0.00557787
0.00544054
0.00531305
0.00520691
0.00511214
0.0049332
0.00505486
0.00518696
0.00529348
0.00535702
0.00461885
0.00494659
0.00486486
0.00440483
0.00412185
0.0031293
0.00338669
0.00357114
0.00388888
0.00431395
0.0043944
0.00368067
0.00315102
0.00306412
0.00303801
0.0031084
0.00313571
0.00315636
0.00357034
0.00546802
0.00549657
0.00548869
0.00547685
0.00465992
0.00453247
0.00423621
0.00788686
0.00730775
0.00628979
0.00513528
0.00273367
0.00234393
0.00278079
0.00338156
0.00377788
0.00416606
0.00276856
0.00170603
0.00198259
0.00204555
0.00198114
0.00182685
0.00152516
0.00140724
0.00127476
0.00137207
0.0024384
0.00390883
0.00440508
0.0044488
0.00439567
0.00428955
0.00414186
0.00395594
0.00453782
0.00715462
0.00781311
0.00808749
0.00797603
0.00680156
0.00575744
0.00339794
0.00188522
0.00161986
0.00165537
0.00162041
0.00173951
0.00187057
0.00168793
0.0016942
0.00164763
0.00294782
0.00491318
0.00558926
0.00686946
0.00714949
0.0067985
0.00587133
0.00444497
0.00439928
0.0045462
0.00462109
0.00468611
0.00472815
0.00469915
0.00427105
0.00262574
0.0015658
0.00138766
0.00148811
0.00174625
0.00186157
0.00188987
0.00187149
0.00162829
0.00270661
0.00429095
0.00273165
0.00148471
0.00159831
0.00158045
0.00279035
0.00279335
0.0027445
0.00427021
0.00453181
0.00453938
0.00426223
0.00405824
0.00240318
0.00274395
0.0027567
0.00277168
0.00281581
0.00142399
0.0015533
0.00160273
0.00172721
0.0015026
0.00188413
0.000488211
0.000680661
0.000791574
0.00086791
0.000936336
0.000917813
0.00176663
0.00180303
0.00171637
0.00165168
0.00209732
0.0022555
0.00230025
0.00211224
0.00194707
0.0020744
0.00208307
0.00196408
0.00185918
0.00192504
0.00192379
0.00184391
0.001568
0.0014693
0.00161263
0.00159696
0.00158553
0.00284234
0.00283719
0.00268528
0.00441355
0.00434543
0.00486576
0.00482903
0.00480553
0.00476635
0.00481991
0.00486538
0.00490216
0.00493119
0.00492183
0.00487385
0.00691264
0.0047946
0.00418392
0.00242073
0.00233219
0.00164748
0.00144489
0.00170206
0.00182097
0.00197477
0.00193082
0.00203355
0.00202998
0.00215473
0.00199907
0.00177437
0.00271697
0.00290301
0.00283552
0.00289165
0.00282307
0.00280606
0.00278531
0.00274589
0.00269822
0.00160723
0.00157695
0.00184745
0.00193992
0.00208473
0.00210308
0.00214888
0.00203709
0.00179091
0.00173352
0.0019971
0.00196995
0.00200899
0.00189353
0.00188511
0.001679
0.00172188
0.00347945
0.00648447
0.00330327
0.00367751
0.00333133
0.00379873
0.00331812
0.00285616
0.00292052
0.00257046
0.00268112
0.00281151
0.00286194
0.00300714
0.0035442
0.00340878
0.00299265
0.00290702
0.0028511
0.00269028
0.00242203
0.0025334
0.00255257
0.00260539
0.00289521
0.00332412
0.00372165
0.00453722
0.00439942
0.00384692
0.00351926
0.00368668
0.00375518
0.00473919
0.00441807
0.00439806
0.00465583
0.00462494
0.00438762
0.00414936
0.00400039
0.00343109
0.00349153
0.00400037
0.00386547
0.00397991
0.00390525
0.00406532
0.0041348
0.00396267
0.0036782
0.00388794
0.00388656
0.004308
0.00418088
0.00387961
0.0035361
0.00379596
0.00376747
0.00434092
0.00407408
0.00381093
0.00351128
0.00337926
0.0038351
0.00375452
0.00425063
0.00438559
0.00439305
0.00383706
0.00373544
0.00443651
0.00426726
0.00414054
0.00431346
0.0035825
0.00365922
0.00450961
0.00460142
0.00437812
0.00367059
0.00370097
0.00316519
0.00372068
0.00464014
0.00438465
0.0035955
0.00300418
0.00418054
0.00439118
0.0046509
0.00439535
0.00478374
0.00516463
0.00420008
0.00457837
0.00600482
0.00454202
0.00527282
0.00538832
0.00541608
0.0054126
0.00542538
0.00544275
0.00572225
0.00554667
0.00354945
0.00423249
0.00413123
0.00346726
0.00295656
0.00325711
0.00351037
0.00356471
0.00365902
0.00380143
0.00373401
0.00358559
0.00520661
0.00593156
0.00607638
0.00621019
0.0060976
0.00592483
0.00557669
0.00520554
0.00436603
0.00326577
0.00205269
0.00209477
0.00223393
0.00221636
0.00192571
0.00144873
0.000958182
0.00142093
0.00148322
0.00140986
0.00129933
0.00117112
0.00124686
0.0022241
0.00358502
0.00401327
0.00395168
0.0047166
0.00615987
0.00700293
0.00752937
0.00787706
0.00810074
0.00823094
0.00825327
0.00808899
0.00741948
0.00711632
0.00673791
0.00643757
0.00602761
0.00566094
0.00636775
0.00696036
0.00730969
0.00769739
0.00784417
0.0077317
0.0067257
0.00672942
0.00775523
0.00946544
0.00799424
0.0100247
0.0118714
0.00931261
0.00832679
0.00824118
0.00908247
0.00928617
0.00901266
0.00853853
0.00797962
0.00725785
0.00760321
0.00790856
0.00819573
0.00846135
0.00916983
0.00931891
0.00925158
0.0090705
0.00880669
0.00842111
0.00781344
0.00679962
0.00508062
0.00405944
0.00422405
0.00380281
0.0021342
0.00239999
0.00238638
0.00238267
0.00237228
0.00112527
0.00124685
0.00127135
0.00128937
0.00120745
0.00139332
0.00199425
0.00319676
0.00238771
0.00206487
0.00126759
0.00144157
0.00241335
0.00398907
0.00441854
0.00442197
0.00433312
0.00488766
0.00636041
0.00696475
0.00733661
0.00759853
0.00755624
0.00735253
0.00696601
0.00648183
0.0062906
0.00596687
0.00572095
0.00561067
0.00540436
0.00509708
0.00411584
0.00375172
0.00390728
0.00386407
0.00369127
0.00393966
0.00408063
0.00407625
0.00412085
0.00416001
0.0042822
0.00442579
0.00455024
0.0046143
0.00463645
0.00464174
0.004649
0.0046546
0.00466739
0.00465081
0.00454914
0.00399592
0.00250326
0.00146375
0.00135459
0.00148538
0.00157115
0.0016082
0.00142911
0.000919966
0.00143009
0.0018507
0.00189425
0.0020742
0.0021349
0.00225631
0.00250659
0.00289799
0.0029914
0.00265743
0.00252115
0.00247067
0.00240573
0.00208431
0.00259964
0.00283509
0.0028287
0.00279694
0.00301938
0.00371145
0.00357107
0.00315295
0.00312449
0.00309419
0.00283082
0.00279555
0.00301645
0.00304732
0.00315125
0.00368881
0.00441496
0.00410224
0.00374258
0.00360315
0.00333326
0.00296933
0.00268732
0.00322273
0.00268986
0.00154292
0.00143892
0.0012544
0.00125236
0.00123094
0.00146223
0.00154768
0.00158735
0.0014777
0.00162591
0.00179128
0.0017051
0.00190496
0.00189173
0.00172194
0.00166936
0.00174382
0.00180112
0.00189296
0.00197945
0.00327192
0.00345406
0.00267314
0.00379607
0.0042544
0.00405655
0.00435233
0.00364581
0.00333666
0.00394175
0.00446496
0.00497473
0.00399242
0.0038248
0.00385718
0.00180678
0.000951763
0.00134297
0.00167227
0.00188563
0.0018357
0.0017295
0.00146164
0.0025869
0.00263668
0.00412237
0.00460843
0.00465285
0.00461308
0.00456766
0.00505572
0.00581944
0.00656401
0.00686373
0.00679437
0.00651765
0.00598747
0.00552374
0.00551743
0.00536406
0.00526594
0.00525771
0.00461752
0.00401886
0.00419453
0.00413268
0.0042683
0.00432967
0.00437283
0.00441696
0.00449304
0.00458492
0.00466718
0.00472307
0.00475951
0.00479015
0.00482156
0.00485203
0.0048842
0.00489725
0.00484424
0.00437395
0.00263444
0.00157584
0.00144096
0.00153778
0.00180664
0.0019017
0.00204428
0.00181816
0.000957818
0.0011262
0.0019574
0.0021624
0.00199891
0.00187139
0.00183612
0.00153845
0.00277338
0.00273321
0.00427282
0.00480913
0.00488259
0.00487535
0.00484281
0.0048047
0.0047711
0.00474419
0.00472419
0.0047026
0.00467032
0.00462852
0.00458598
0.00454058
0.00446608
0.00434885
0.00427923
0.00444729
0.00450277
0.00467127
0.00490668
0.00506621
0.00499485
0.004835
0.00472771
0.00472132
0.00475387
0.0047903
0.00482277
0.00483569
0.00477512
0.00449541
0.00421735
0.00268164
0.00271626
0.00134627
0.00149789
0.00172762
0.00178354
0.00194137
0.00193602
0.00152741
0.00118776
0.00133621
0.00124426
0.00221602
0.00243413
0.00269319
0.00266633
0.00145724
0.00149328
0.0015523
0.00175627
0.00163563
0.00157474
0.00378954
0.00366683
0.00385752
0.00472422
0.00408113
0.00283474
0.0031139
0.00432548
0.00455092
0.00276321
0.00206899
0.00230061
0.00291654
0.00428446
0.00432947
0.00410308
0.00409029
0.0030063
0.00369208
0.00442244
0.00429701
0.00337495
0.00232774
0.00172438
0.000845183
0.00160844
0.00137831
0.00335628
0.00371018
0.00365666
0.00399448
0.00425209
0.00429663
0.00416757
0.00370999
0.00378292
0.00381775
0.00433952
0.00434918
0.00369977
0.00312133
0.00254415
0.00256139
0.00260608
0.00288381
0.00361059
0.00340463
0.00298739
0.00290154
0.00284412
0.00268009
0.00241935
0.00212827
0.00214234
0.00199412
0.0019301
0.00304077
0.00404486
0.00476824
0.00490718
0.00495893
0.00488526
0.00485376
0.00471902
0.00465217
0.0040472
0.00518155
0.00546549
0.00526583
0.00529802
0.00532394
0.005356
0.00534742
0.00524128
0.0045116
0.00269804
0.00176362
0.00199031
0.00214854
0.00201833
0.00200593
0.00213689
0.00202672
0.00178013
0.00288329
0.00281589
0.0044964
0.00508428
0.0052004
0.00521918
0.00520734
0.00519817
0.00521164
0.0054944
0.00537009
0.0054072
0.00564543
0.00567437
0.00575157
0.00540542
0.00534349
0.00530752
0.00528509
0.00524218
0.00511553
0.00452616
0.00438639
0.00498075
0.00513223
0.00519584
0.00523853
0.00529151
0.00536587
0.0055819
0.00573969
0.00577691
0.00558253
0.00551971
0.00538594
0.00519403
0.00514609
0.00512998
0.00511835
0.00508123
0.00494165
0.00435319
0.00280164
0.00287169
0.00170945
0.00172181
0.00198351
0.00208448
0.00204814
0.00189705
0.00185018
0.00314937
0.00358131
0.00382004
0.00410234
0.00391468
0.0038962
0.00445592
0.00431178
0.00385897
0.00401092
0.00359244
0.00342495
0.0032953
0.0033046
0.00176785
0.00190705
0.00198824
0.0019541
0.00186822
0.0016655
0.00152708
0.00278415
0.00276382
0.00272523
0.00162451
0.00158949
0.00187311
0.00181984
0.00166546
0.00141946
0.00155525
0.00239414
0.00267666
0.00414459
0.00428989
0.00459853
0.0049187
0.00504878
0.00509472
0.00512045
0.00514949
0.0052012
0.00526774
0.0052891
0.0052816
0.00531389
0.00532299
0.00532043
0.005283
0.00524321
0.00520214
0.00516119
0.00509621
0.00496028
0.00463525
0.00431745
0.00486708
0.00491278
0.00500685
0.00510643
0.00515104
0.00516387
0.00515469
0.00512973
0.00509899
0.00505421
0.00504648
0.00516865
0.00518931
0.00519924
0.00517288
0.00515881
0.00515551
0.00513591
0.00509214
0.00498238
0.00488337
0.00483689
0.00475528
0.00488473
0.00494521
0.00496233
0.00502089
0.00511197
0.00513491
0.00512228
0.0050793
0.00504528
0.00502244
0.00497834
0.00491829
0.00467931
0.00472762
0.004799
0.0048851
0.00496826
0.00503496
0.00506914
0.00506307
0.00500577
0.00496768
0.00496454
0.00491894
0.00494224
0.00497178
0.00495572
0.00496458
0.00498356
0.00494624
0.00485701
0.00473048
0.00459291
0.00447267
0.00439601
0.00428831
0.00460254
0.00470537
0.00478839
0.00486237
0.00495148
0.00504779
0.00509885
0.00509734
0.00502963
0.00498527
0.00497219
0.00491708
0.00491877
0.0049753
0.00499166
0.00503296
0.00509732
0.00506909
0.00496818
0.00479285
0.00462831
0.00450792
0.00439729
0.00425959
0.00407819
0.00415112
0.00416839
0.0042885
0.00446151
0.00465204
0.00481055
0.00489355
0.00490459
0.0049176
0.0049473
0.00493053
0.00490867
0.00491131
0.00487073
0.00483715
0.00478948
0.00465949
0.00446456
0.00427694
0.00417367
0.00420827
0.00427786
0.00420145
0.00402366
0.00418386
0.00429711
0.00441892
0.00460783
0.00484634
0.00500182
0.00506131
0.00502575
0.00499175
0.00497138
0.00491416
0.00490356
0.00496082
0.00498605
0.00502683
0.00506007
0.00499112
0.00484393
0.00456468
0.00426351
0.00415157
0.00406788
0.00392301
0.0042131
0.00430416
0.00422125
0.00416602
0.00429977
0.0044676
0.00463661
0.0047483
0.0047834
0.00482098
0.00486801
0.00487907
0.00483682
0.00480447
0.00475399
0.00472457
0.00471004
0.00465373
0.0045393
0.00442528
0.00432433
0.00444969
0.00447686
0.00438773
0.00413197
0.00424571
0.00439145
0.0043645
0.00459344
0.00484369
0.00496945
0.00501973
0.00498749
0.0049483
0.00492463
0.00487943
0.00483562
0.00484843
0.00486799
0.0049424
0.00501167
0.00499611
0.00497369
0.00482485
0.004621
0.00462831
0.00430958
0.00414802
0.00442388
0.00451077
0.00449838
0.00443387
0.00461717
0.00469343
0.00472182
0.00472961
0.0046984
0.00466668
0.00471158
0.00478089
0.00471392
0.00443166
0.004169
0.00430817
0.00432932
0.00430374
0.00424865
0.00417179
0.00397555
0.00438266
0.0047487
0.00474905
0.00446998
0.00454665
0.0045479
0.00418679
0.00439514
0.00451888
0.00456839
0.004588
0.00453701
0.00435495
0.00458013
0.00477305
0.00473236
0.0043016
0.00281051
0.0028533
0.00287601
0.00288046
0.00283498
0.00282338
0.00277448
0.00275116
0.00267974
0.00261072
0.00254369
0.0027127
0.0028602
0.00305539
0.00306626
0.00314272
0.00300057
0.0028355
0.00264087
0.00205891
0.00261334
0.00311852
0.0033224
0.00358214
0.0036411
0.00421907
0.00443835
0.00454954
0.00445328
0.00357194
0.00302782
0.00241751
0.00157153
0.000978036
0.00114646
0.00119097
0.00124818
0.0015274
0.00282334
0.0014335
0.00198773
0.00155212
0.00267708
0.00137829
0.000888003
0.000589723
0.000754946
0.000904633
0.000916166
0.00088003
0.000735631
0.000581222
0.000594214
0.000553637
0.000588375
0.000525665
0.000601753
0.000560032
0.000798679
0.00118062
0.0013091
0.00133662
0.00108032
0.00121975
0.00101991
0.00117744
0.00105301
0.001149
0.00110308
0.00134923
0.00147926
0.00141639
0.00142026
0.00124344
0.000870187
0.0010088
0.000792456
0.000951958
0.000726923
0.00093676
0.000803551
0.00104374
0.00107482
0.00107071
0.0010299
0.000785913
0.000928562
0.000731157
0.000900989
0.000742327
0.000799862
0.000666846
0.000969447
0.000988626
0.000912789
0.000969107
0.00108505
0.00115988
0.00126983
0.00120152
0.00135988
0.0013111
0.00132421
0.00125688
0.00122729
0.00120158
0.00120659
0.00118828
0.00119576
0.0012351
0.00123751
0.00124336
0.00128266
0.00126476
0.00123221
0.0012115
0.00107627
0.00086908
0.00151399
0.00156082
0.00158498
0.00158491
0.00155015
0.00153047
0.00147333
0.00145826
0.00140986
0.00138297
0.00131944
0.00126884
0.00121028
0.00136001
0.000762134
0.00086597
0.000914547
0.00094279
0.000961632
0.000970871
0.000977532
0.000972174
0.000960056
0.000937784
0.000931451
0.000906615
0.00115957
0.00131964
0.00138237
0.00140047
0.00131156
0.00124848
0.00276587
0.00335196
0.00506391
0.00517289
0.00389828
0.00387728
0.00132714
0.00140632
0.000961033
0.00135003
0.00139113
0.00137541
0.00129701
0.000933274
0.00139628
0.000973385
0.00130611
0.000985112
0.00121164
0.00101449
0.00145084
0.00185514
0.0017951
0.00162822
0.00112341
0.000935488
0.000935709
0.000800579
0.000874432
0.00071829
0.000878955
0.000741131
0.00111907
0.0015516
0.00169118
0.00172241
0.0013574
0.00187269
0.00141057
0.00204318
0.00162495
0.00200603
0.00161311
0.00186354
0.00230611
0.00231772
0.00226373
0.00182534
0.00146085
0.00164135
0.00145255
0.00167497
0.00241853
0.00158428
0.00241466
0.000997499
0.00136028
0.00140223
0.00138283
0.0013034
0.000876745
0.00222335
0.00117612
0.00208069
0.00134695
0.0021498
0.00157548
0.00209686
0.00250666
0.00262727
0.00261724
0.00213751
0.00193402
0.00200415
0.00160293
0.00192139
0.00143015
0.00207364
0.00117158
0.00152535
0.00168672
0.00176835
0.0017742
0.00145816
0.00286982
0.00180501
0.0027223
0.00189539
0.00242827
0.00194714
0.00212593
0.00251104
0.00249539
0.00247447
0.00209885
0.00170104
0.00224646
0.00160037
0.0479744
0.110529
0.0440963
0.11161
0.0503343
0.0715474
0.0705085
0.0706767
0.0710301
0.0534993
0.116771
0.137678
0.143427
0.14511
0.143999
0.232723
0.189809
0.285194
0.185001
0.109042
0.0473894
0.0653391
0.168245
0.277434
0.416038
0.527837
0.359599
0.372309
0.23756
0.234351
0.220898
0.179058
0.110201
0.0554224
0.00935297
0.0101988
0.0147313
0.0197643
0.0155642
0.00950577
0.00186124
0.00191907
0.00195958
0.00198254
0.0019702
0.00192178
0.00194579
0.00184179
0.00173034
0.00191953
0.00205767
0.00212243
0.00249161
0.00280225
0.0024964
0.00280255
0.00302038
0.00319189
0.00332274
0.00350425
0.00370711
0.00390102
0.0039317
0.00362257
0.00309266
0.00254855
0.00218418
0.00207796
0.00195944
0.00172612
0.00158105
0.00149308
0.00144083
0.00141389
0.00144612
0.00157431
0.00167875
0.0017123
0.00166918
0.00163649
0.00160766
0.00142966
0.00166862
0.00228872
0.00232018
0.00397329
0.00457884
0.00467234
0.00467653
0.00416791
0.00266782
0.00267355
0.00268719
0.00273773
0.00274722
0.00274858
0.00274422
0.00272819
0.00271299
0.00268555
0.00267333
0.00263968
0.00260511
0.00252268
0.00252636
0.00256206
0.0025883
0.00256162
0.00258472
0.00252127
0.00268495
0.00361986
0.00460436
0.00489147
0.00511794
0.00495896
0.00667593
0.00543815
0.00415073
0.00423702
0.00416487
0.0048446
0.00481349
0.0045456
0.0046776
0.00436801
0.00269383
0.00267021
0.00266888
0.00275982
0.00279294
0.00284844
0.00286269
0.00288674
0.00289994
0.00291128
0.00291359
0.00289695
0.00288093
0.00281123
0.00278843
0.0027795
0.00153078
0.00167406
0.00174129
0.00175032
0.00177003
0.00175867
0.0017399
0.00172079
0.00170711
0.00168883
0.00167322
0.00164322
0.00158223
0.00144508
0.00159616
0.00272746
0.00272215
0.00452207
0.00492715
0.00488064
0.00516903
0.00502827
0.00479825
0.00505879
0.00481655
0.00484557
0.00443373
0.00274136
0.00277975
0.00164051
0.00161828
0.00188559
0.00182894
0.00191996
0.00194538
0.00193226
0.00194469
0.00196863
0.001997
0.00205608
0.00206905
0.00204459
0.00204213
0.00191482
0.00164812
0.0016686
0.00197713
0.00208509
0.00192664
0.00188584
0.00187376
0.00182274
0.00179124
0.00176174
0.00180003
0.00195892
0.00198762
0.00196001
0.00189158
0.00184478
0.00161226
0.00156292
0.00274303
0.00275506
0.0044121
0.00460769
0.00442393
0.00471987
0.00510191
0.0058473
0.00486691
0.00403399
0.00447337
0.00503414
0.00364495
0.00307032
0.00174152
0.00151695
0.00175906
0.00178949
0.00184258
0.0019054
0.0016723
0.00178502
0.00163092
0.00147751
0.00146062
0.00145494
0.00148881
0.0015023
0.00152783
0.00153073
0.00157184
0.0015674
0.00157019
0.00158924
0.00160393
0.0017736
0.00193784
0.00162974
0.00137787
0.00133406
0.00125927
0.00119969
0.00123039
0.00119854
0.00119204
0.00117159
0.00115366
0.0011029
0.00115397
0.00123148
0.0014487
0.00139166
0.00111891
0.00099423
0.00067883
0.000687733
0.00069234
0.000713068
0.00072019
0.000728842
0.000731928
0.000743286
0.000745139
0.000748558
0.000748095
0.00076791
0.000764915
0.000755288
0.000749613
0.000752749
0.000755878
0.000755512
0.0011071
0.00123461
0.00136104
0.00161928
0.00190637
0.00164506
0.00139287
0.0011902
0.000762451
0.000773434
0.00079033
0.000797654
0.000817137
0.000833005
0.000852004
0.000862995
0.000871998
0.000880158
0.000889399
0.000892061
0.000889611
0.000871042
0.000860515
0.000881271
0.000965871
0.00101514
0.00107811
0.00110143
0.0011205
0.0011295
0.00112306
0.00113404
0.00111939
0.0011164
0.00109562
0.00108567
0.00107617
0.00106413
0.00105048
0.0010183
0.00100709
0.00105952
0.00179255
0.00234622
0.00271456
0.00298674
0.00269537
0.00213158
0.00230845
0.00406419
0.00381175
0.00227679
0.00211101
0.00192606
0.00167686
0.00130285
0.00157637
0.00189989
0.00214087
0.00236206
0.00255327
0.002683
0.00282798
0.00300649
0.00333365
0.00338765
0.00309988
0.00254557
0.00220133
0.00209073
0.00202719
0.00190055
0.00176381
0.00179821
0.00181054
0.0017549
0.00168253
0.00165449
0.00167777
0.0016988
0.00167453
0.001671
0.0014898
0.00149083
0.0025429
0.00261168
0.00401344
0.00422297
0.00425872
0.00274494
0.00270539
0.00157992
0.00146662
0.00159971
0.00165918
0.00166179
0.00166789
0.00165714
0.00162876
0.00160837
0.00158693
0.00156881
0.00155637
0.00152757
0.00147415
0.00135965
0.00148862
0.00167561
0.00174464
0.00176007
0.00176269
0.00178646
0.00182539
0.00185853
0.00193736
0.00194903
0.00194588
0.00195317
0.00182978
0.00188773
0.00159872
0.00159811
0.00277038
0.0027665
0.00158957
0.00187615
0.00188507
0.0018553
0.00199709
0.00183029
0.00177481
0.00176252
0.00169278
0.00165725
0.00161092
0.00158395
0.00162159
0.00173061
0.00168827
0.00148721
0.00146128
0.00163321
0.0015542
0.00129003
0.00110161
0.00106784
0.0010194
0.000988675
0.00103258
0.00106516
0.00108336
0.00110668
0.00111338
0.00115868
0.0011282
0.00118571
0.00125702
0.00131014
0.00155418
0.00168588
0.00152337
0.00149672
0.00147814
0.00147425
0.00147835
0.00142163
0.0014184
0.00139035
0.0013766
0.00133996
0.00132338
0.00130287
0.00130976
0.00132695
0.00146077
0.00379539
0.00483271
0.00506471
0.00855562
0.00348808
0.00357242
0.00699792
0.00287018
0.00432352
0.00467979
0.0048757
0.00505834
0.00460948
0.00585056
0.00404062
0.00443347
0.0047967
0.00453788
0.00155382
0.00143876
0.00122454
0.00122689
0.00118783
0.000867043
0.00103913
0.00110921
0.00115898
0.00119415
0.00122048
0.00125054
0.00127676
0.00129752
0.0013023
0.00126891
0.00123104
0.00114083
0.00111116
0.00115423
0.00119952
0.00106207
0.0010026
0.00101518
0.00103432
0.00104447
0.00104817
0.00105942
0.00106367
0.00108115
0.0010735
0.00108251
0.00106647
0.00107713
0.00106065
0.00102128
0.000971414
0.000882429
0.000859527
0.00123801
0.00132026
0.00138894
0.00156981
0.00181216
0.00193729
0.00173402
0.00158883
0.00152484
0.00169558
0.0016809
0.00304849
0.00585042
0.00261729
0.00296199
0.00858604
0.00339242
0.00266256
0.00270582
0.00273406
0.00273558
0.00159322
0.00188679
0.00182312
0.00182362
0.00154495
0.00129595
0.00116614
0.00104381
0.000707096
0.000704564
0.000709877
0.000720254
0.000723394
0.000694545
0.000694563
0.000691272
0.000690031
0.000677182
0.000673606
0.000663197
0.000657155
0.000641837
0.000633724
0.000617815
0.000613213
0.00058493
0.000582219
0.000592937
0.000861933
0.000949474
0.00102871
0.00122798
0.00329276
0.00366263
0.0049802
0.00494325
0.00789005
0.00488185
0.00370109
0.0033796
0.00495242
0.00504871
0.00496473
0.00711399
0.00482221
0.00312471
0.00301332
0.00296719
0.00462421
0.0045053
0.00430195
0.00540346
0.00566346
0.00182136
0.00166681
0.00180365
0.0020155
0.00237552
0.0019827
0.00236059
0.0022031
0.00159789
0.00138646
0.00436794
0.00559041
0.00400921
0.00431193
0.006885
0.0028989
0.00284415
0.00255414
0.00213356
0.00194826
0.00190108
0.00210719
0.00251711
0.00665933
0.007028
0.00417821
0.0051566
0.00465125
0.00617743
0.00742478
0.00801542
0.00702432
0.00653893
0.00583884
0.00282665
0.00289301
0.00322937
0.00353517
0.00472317
0.00491837
0.010337
0.00348888
0.00386441
0.00391789
0.00528881
0.0050531
0.00905554
0.00373607
0.00403719
0.00534831
0.0070369
0.0133549
0.0046816
0.00499377
0.00723874
0.0073108
0.00667338
0.00485165
0.00444664
0.00488418
0.00366034
0.00357471
0.003069
0.00459147
0.00623171
0.00479652
0.00466863
0.00403373
0.0034061
0.00367307
0.00374497
0.00306567
0.0030388
0.00359066
0.00249888
0.00230877
0.00277972
0.00073288
0.000379043
0.000388009
0.000396957
0.00040405
0.000411203
0.00041684
0.000422862
0.000425899
0.000425727
0.000426654
0.000450075
0.000446533
0.00043223
0.000392577
0.000448144
0.000711271
0.000712018
0.000447729
0.000395023
0.000707735
0.00112713
0.00132494
0.00157013
0.00159078
0.0013703
0.00118992
0.00073224
0.00072144
0.000437822
0.000511038
0.000555272
0.000492467
0.00054908
0.000508918
0.000540033
0.000544248
0.000504417
0.000501999
0.000504567
0.000501213
0.000493668
0.000483496
0.000470665
0.000459136
0.000448936
0.000434792
0.000409287
0.000364748
0.000330713
0.000360343
0.000398003
0.00043831
0.000460638
0.000485276
0.000502014
0.000514508
0.000522913
0.000523998
0.000532903
0.000549585
0.000553765
0.00055811
0.000600298
0.000583779
0.000623395
0.000583631
0.000623499
0.000585979
0.000538724
0.000452498
0.000466534
0.0007517
0.000759146
0.00122737
0.001405
0.0015971
0.00160805
0.0018018
0.00190043
0.00160786
0.00167151
0.00191881
0.00178427
0.00158863
0.00159122
0.00143026
0.00142705
0.00126124
0.000787131
0.000776545
0.000488229
0.000474337
0.00056563
0.00055571
0.000618477
0.000661309
0.000662637
0.000660865
0.000641524
0.000635749
0.000560172
0.000549764
0.000550803
0.000533396
0.000524566
0.000525728
0.000519763
0.000535811
0.000586517
0.000608533
0.000630717
0.000656326
0.000630162
0.000381139
0.000374497
0.000622924
0.000741205
0.00079184
0.00292937
0.000790479
0.00200257
0.00169077
0.000536035
0.000653544
0.000825067
0.000917582
0.000988609
0.000964984
0.000835394
0.000685149
0.000524397
0.000437184
0.000745442
0.000651293
0.000808117
0.000712802
0.000922188
0.00107064
0.0010382
0.00104834
0.000887966
0.000725799
0.000768336
0.000693978
0.00076656
0.000639515
0.000768873
0.000695649
0.000875344
0.000884026
0.000866149
0.000821593
0.000626087
0.000657201
0.000551123
0.00059761
0.000536066
0.000554143
0.000525761
0.000613228
0.000706799
0.000678373
0.000675805
0.000555287
0.000435137
0.000480209
0.000414313
0.000468685
0.000364367
0.000441929
0.000371268
0.000480048
0.000491538
0.00048399
0.000460173
0.000348632
0.000414569
0.000547908
0.000594086
0.000606098
0.000580209
0.000448145
0.000693841
0.000628867
0.000769266
0.000668266
0.000729345
0.000664837
0.000773717
0.000989688
0.00103189
0.00103844
0.000841356
0.000834712
0.00151091
0.0828235
0.00135933
0.00160594
0.00165463
0.00164787
0.00136296
0.00133365
0.00164688
0.00122328
0.00172672
0.00108721
0.00183516
0.000699595
0.00106387
0.00114188