/*--------------------------------*- C++ -*----------------------------------*\
| =========                 |                                                 |
| \\      /  F ield         | OpenFOAM: The Open Source CFD Toolbox           |
|  \\    /   O peration     | Version:  v2012                                 |
|   \\  /    A nd           | Website:  www.openfoam.com                      |
|    \\/     M anipulation  |                                                 |
\*---------------------------------------------------------------------------*/
FoamFile
{
    version     2.0;
    format      ascii;
    class       volScalarField;
    location    "425";
    object      nut;
}
// * * * * * * * * * * * * * * * * * * * * * * * * * * * * * * * * * * * * * //

dimensions      [0 2 -1 0 0 0 0];


internalField   nonuniform List<scalar> 
18258
(
0.00417844
0.00182016
0.00149058
0.00129098
0.000856487
0.00140039
0.00194526
0.00231575
0.00242986
0.00240988
0.00249593
0.00421316
0.00591382
0.00730988
0.00767987
0.0076686
0.00696321
0.00665013
0.00722813
0.00887834
0.00745341
0.0047771
0.00571596
0.00661538
0.00721365
0.00639306
0.00517188
0.00478603
0.00433251
0.00361205
0.00303284
0.00208582
0.00151312
0.00140166
0.00127188
0.00145043
0.00158018
0.00168562
0.00172289
0.00175001
0.00173817
0.00172834
0.00168158
0.00165147
0.00160017
0.00131946
0.0015765
0.00166858
0.00182324
0.00250729
0.00268771
0.00225776
0.00249558
0.00222542
0.00146644
0.00167895
0.00182252
0.00186158
0.00183748
0.00176109
0.0017353
0.00171347
0.00168584
0.00165307
0.0016331
0.00164949
0.00166664
0.00164861
0.00156769
0.00150216
0.00139611
0.00128977
0.00121095
0.00114989
0.00110385
0.00105264
0.000995093
0.000874067
0.000810082
0.00107256
0.00134651
0.00143874
0.00203929
0.00248643
0.00250351
0.00187415
0.00133575
0.0013864
0.00154112
0.00155634
0.00131861
0.00156696
0.00177463
0.0018392
0.00191657
0.00214246
0.00244017
0.0023791
0.00211906
0.00195342
0.00190264
0.0021858
0.00208061
0.0026983
0.00271529
0.00236167
0.00219382
0.00246779
0.003183
0.00342233
0.00265783
0.00249678
0.00244761
0.00241575
0.00218546
0.00226276
0.00205549
0.00185211
0.00201814
0.00243814
0.00231235
0.00252508
0.00261704
0.00245547
0.00284539
0.00328095
0.00323367
0.00258756
0.00211052
0.00196731
0.00198212
0.00121225
0.00130905
0.00141005
0.0014446
0.00146893
0.00148955
0.00158806
0.00158447
0.00156107
0.00155762
0.00158435
0.000873384
0.000946319
0.000969914
0.000976717
0.000927865
0.000918267
0.000901072
0.000887129
0.000836798
0.000800713
0.000958022
0.0010757
0.00117162
0.00128381
0.00145092
0.00165534
0.00187015
0.00208721
0.00223074
0.00227163
0.00231291
0.00222925
0.00214486
0.00222139
0.00223436
0.00222008
0.00219036
0.00215282
0.0021021
0.00200901
0.00211677
0.00211073
0.00198287
0.00169996
0.00173785
0.00173499
0.00178025
0.00177122
0.00178911
0.00176363
0.0017334
0.00164951
0.00153188
0.00127392
0.00125235
0.00126629
0.00162403
0.00197015
0.00304158
0.0037068
0.00429895
0.00459634
0.00491356
0.00398071
0.00443324
0.00342085
0.00306989
0.00390012
0.0050995
0.0029102
0.00159152
0.00301929
0.00268142
0.00194907
0.00173555
0.00178947
0.0017867
0.00204222
0.00235623
0.00261943
0.00274657
0.00285757
0.00294643
0.00304408
0.00316775
0.00320215
0.0030934
0.00261852
0.00315625
0.00256734
0.00300341
0.00272036
0.00184478
0.00188446
0.00201711
0.00185353
0.0018056
0.00172405
0.00155935
0.00194344
0.00250549
0.00290598
0.00332227
0.00443217
0.00410027
0.00393064
0.0030432
0.00294301
0.00152717
0.00217753
0.00226285
0.00255042
0.00169471
0.00154808
0.00147113
0.00194186
0.00224967
0.00265325
0.00294308
0.00349436
0.00271424
0.00310538
0.00281435
0.00196611
0.00188688
0.00269805
0.00290341
0.0023846
0.00212861
0.00267339
0.00253254
0.00179803
0.00142485
0.00219197
0.00226544
0.00163159
0.00407177
0.00435599
0.00413935
0.00503799
0.00631011
0.0071977
0.0067165
0.00595833
0.0066352
0.00526372
0.00511108
0.00546169
0.00458891
0.00320786
0.00328636
0.00339664
0.00348798
0.00374451
0.00397752
0.00426203
0.00453259
0.00412047
0.00342284
0.00259147
0.00178288
0.00175804
0.00174888
0.00157044
0.00232744
0.00352255
0.00349995
0.00198948
0.00115927
0.00131039
0.00147939
0.00146479
0.00106344
0.000800198
0.00137835
0.0015761
0.00160164
0.00156194
0.00147476
0.00154117
0.00247512
0.00381326
0.00419006
0.00433989
0.00448171
0.00458194
0.0046378
0.00465563
0.00466562
0.00467783
0.00468854
0.00470475
0.00469025
0.00459042
0.00403769
0.00253863
0.00148387
0.00137828
0.00152114
0.00163476
0.0017339
0.00147541
0.000902277
0.00144091
0.0018452
0.00212091
0.00213908
0.00199632
0.00193657
0.00305378
0.0040604
0.00478616
0.0049333
0.004999
0.00494447
0.00493785
0.00483077
0.00479825
0.00420872
0.00300772
0.00328742
0.00352944
0.00356931
0.00365137
0.00377487
0.00368756
0.00348519
0.00508998
0.00587606
0.0059518
0.00607859
0.00600711
0.00590432
0.00563723
0.00533162
0.0044888
0.0033664
0.00212429
0.0021688
0.00230897
0.00228694
0.00199092
0.00209715
0.002276
0.00229881
0.00237407
0.00266234
0.00302378
0.00288467
0.00248296
0.0021085
0.00196317
0.00192137
0.00184299
0.00137974
0.00140087
0.00136228
0.00138506
0.00186111
0.00221519
0.00255456
0.00362259
0.0032314
0.00262796
0.0041665
0.00427021
0.00458822
0.00506929
0.00519488
0.00575595
0.00400431
0.00360873
0.00370704
0.00302843
0.00280322
0.00283312
0.0028438
0.00265063
0.00290118
0.00287555
0.00277146
0.00305972
0.00337134
0.00444527
0.00538589
0.00568216
0.00585318
0.00592329
0.00590177
0.00578839
0.00582629
0.00511951
0.00511803
0.00490067
0.00476011
0.00471066
0.00447884
0.00512242
0.00531704
0.00538179
0.00551575
0.00572473
0.00556778
0.00539545
0.00526416
0.0051691
0.00506979
0.00512278
0.00521754
0.00531872
0.0054608
0.00565039
0.00568109
0.00548461
0.00533604
0.00523444
0.00513898
0.00514246
0.00522754
0.00532673
0.00546756
0.00564742
0.00554742
0.00540749
0.00528292
0.00518078
0.00509086
0.00491264
0.00503098
0.00516114
0.00526837
0.0053379
0.0046124
0.00493018
0.00484542
0.00438699
0.00410607
0.00311823
0.00337466
0.00355865
0.00387604
0.00430247
0.00438617
0.00368089
0.00315446
0.00307391
0.00304914
0.00312119
0.003147
0.00316225
0.00357309
0.00538386
0.00542145
0.00543767
0.00544057
0.00465243
0.00451999
0.00420948
0.00769843
0.00716831
0.00621097
0.00512033
0.00274315
0.00235134
0.00278509
0.00338703
0.00378713
0.00417957
0.00277449
0.00171898
0.00200363
0.00207778
0.00202739
0.00187401
0.00156101
0.00144096
0.00130785
0.0014074
0.00249212
0.00397619
0.00447853
0.00452601
0.0044812
0.00439429
0.00428887
0.00414212
0.0040815
0.00513034
0.006924
0.00784899
0.00782145
0.00672022
0.00547191
0.00308054
0.00157953
0.00115117
0.00125877
0.00138259
0.00162655
0.00145085
0.00120904
0.00132461
0.0012598
0.00255489
0.00441702
0.00564382
0.0066925
0.00657545
0.00570439
0.00467991
0.00444405
0.00454859
0.0046175
0.00467716
0.00473847
0.00478062
0.00475423
0.00432765
0.00267422
0.00159649
0.00141851
0.00152544
0.00178779
0.00189959
0.0019187
0.00189177
0.00163975
0.0027113
0.00430587
0.00273815
0.0014942
0.00161466
0.00160306
0.00282769
0.00282316
0.00276186
0.00429685
0.00454306
0.00453158
0.00425797
0.0040652
0.00240683
0.00273109
0.0027401
0.00275458
0.0027998
0.00141424
0.00154156
0.00158956
0.00171112
0.00149856
0.00190176
0.000492114
0.000682126
0.000792231
0.000861201
0.000927726
0.000910021
0.00174061
0.0017658
0.00168566
0.00164186
0.00208381
0.00223615
0.00228556
0.00210528
0.00194264
0.00206798
0.00207243
0.00195298
0.00184995
0.00191823
0.0019196
0.00183941
0.0015645
0.00146597
0.0016095
0.00159221
0.00157947
0.00283657
0.00283147
0.00267954
0.00440259
0.00433196
0.00485193
0.00482045
0.00481488
0.00479553
0.00484682
0.00487362
0.00489393
0.00491777
0.00490802
0.00486076
0.00676837
0.00478029
0.00417147
0.0024124
0.00232381
0.00164121
0.00143827
0.00169361
0.00181138
0.00196378
0.00191938
0.00202344
0.00202117
0.00214453
0.0019905
0.00176746
0.00270723
0.00289216
0.00282473
0.00288062
0.00281281
0.00279629
0.00277564
0.00273612
0.00268855
0.0016008
0.00157028
0.0018388
0.00193022
0.00207406
0.00209286
0.0021383
0.00202799
0.00178361
0.0017265
0.00198831
0.00196147
0.00199958
0.00188523
0.00187745
0.00167261
0.001715
0.00346008
0.00639214
0.0032871
0.00365163
0.00330765
0.00376235
0.00329508
0.00284138
0.0029081
0.00256129
0.00267178
0.00280262
0.00285335
0.0029989
0.0035349
0.00340353
0.00298766
0.00290092
0.0028437
0.00268112
0.0024132
0.00252821
0.00255118
0.00260599
0.0028962
0.00332275
0.00372519
0.00452708
0.00439319
0.00384851
0.00351837
0.00369012
0.00375341
0.00472546
0.00441508
0.00438878
0.00462902
0.00458275
0.00434989
0.00412178
0.00397848
0.00341515
0.00347124
0.00397348
0.00384484
0.0039624
0.00389311
0.00404682
0.00412028
0.0039551
0.00367583
0.00386265
0.00385407
0.00428085
0.00416396
0.00386213
0.00353466
0.0037766
0.00372992
0.00430981
0.00405773
0.00379511
0.00349254
0.00334474
0.0037964
0.00372751
0.00422755
0.00434917
0.00435104
0.00379254
0.00370487
0.00440718
0.00424052
0.00409493
0.00426544
0.0035317
0.0036333
0.00447658
0.00457055
0.00433552
0.00361854
0.00367472
0.00315083
0.00370622
0.00461344
0.00435696
0.00357086
0.002962
0.00414571
0.00436233
0.00461535
0.00436118
0.0047509
0.00511843
0.00417133
0.00453849
0.00593217
0.00452499
0.00525129
0.00536802
0.00540014
0.00540358
0.00542535
0.00545359
0.00574747
0.00559542
0.00355289
0.00425101
0.00412724
0.0034497
0.00293087
0.00322896
0.00347762
0.00352759
0.00361679
0.00375459
0.00369097
0.00357273
0.00522559
0.00596119
0.00609497
0.00621818
0.00611677
0.00596463
0.00561474
0.00518478
0.00429414
0.00320115
0.00199485
0.00203322
0.00216693
0.002146
0.00186207
0.00140595
0.000923153
0.00137099
0.00141617
0.00133225
0.00121267
0.00106697
0.00109846
0.00202115
0.00414261
0.00550595
0.00604258
0.00648398
0.00696712
0.00742882
0.00777894
0.00803189
0.00820301
0.0083081
0.00832695
0.008161
0.00744856
0.00712991
0.00673296
0.00640769
0.00594659
0.00556407
0.00628665
0.00689715
0.00727051
0.00769159
0.00788393
0.00779995
0.00677725
0.00659353
0.00759453
0.0093444
0.00794798
0.00997899
0.0117273
0.00914668
0.00821751
0.00820028
0.00914981
0.00932494
0.00899834
0.00848931
0.00790623
0.00716837
0.0075376
0.00786819
0.00818181
0.0084686
0.00926208
0.00941429
0.00934979
0.00920855
0.00902236
0.00875736
0.0083331
0.00774006
0.00707192
0.00642726
0.00568449
0.00416278
0.00186309
0.00219593
0.0021468
0.00242479
0.00229463
0.00101134
0.00110093
0.0011155
0.00112322
0.00106386
0.00120814
0.0017544
0.00286168
0.00205838
0.00168632
0.00117131
0.00138582
0.00231805
0.00394703
0.00445734
0.00453202
0.00458602
0.00600991
0.00685715
0.00728074
0.00761025
0.0078241
0.00771722
0.00746785
0.00702767
0.00651498
0.00630456
0.00597188
0.00565661
0.0054828
0.00529642
0.00497847
0.00394764
0.00372532
0.00387643
0.00384102
0.00367922
0.00392548
0.00406381
0.00405792
0.00410124
0.00413965
0.00426137
0.00440506
0.00453039
0.00459649
0.00462151
0.00463006
0.0046406
0.00464927
0.00466466
0.00464999
0.00454919
0.00399533
0.00249853
0.00145835
0.00134827
0.00147835
0.00156336
0.00159974
0.00142047
0.000914174
0.00142081
0.00183901
0.0018861
0.00206934
0.00213494
0.0022642
0.00252353
0.00291698
0.0030107
0.00267195
0.00253103
0.0024764
0.00241329
0.00205764
0.00256414
0.00283653
0.00283215
0.00280632
0.00303319
0.00373271
0.00358584
0.00316137
0.00312479
0.00309224
0.00278822
0.00274434
0.00300769
0.00304176
0.00315744
0.00370387
0.0044427
0.00412083
0.00375178
0.00359347
0.00331666
0.00291167
0.00263134
0.00326601
0.00269075
0.00138312
0.00117275
0.00118138
0.00117987
0.00113169
0.00133966
0.00140854
0.00142824
0.00133397
0.00148199
0.00165069
0.00160021
0.0018167
0.0017888
0.00159533
0.0015772
0.00171865
0.00182559
0.00187824
0.00191829
0.00313921
0.00322911
0.00250989
0.00364321
0.00419952
0.00420898
0.00446214
0.00365775
0.00326873
0.00388299
0.00450646
0.00520172
0.00409635
0.0038636
0.00396741
0.00180864
0.000951389
0.0013429
0.00166709
0.00185593
0.00179966
0.00170067
0.00143835
0.00255819
0.00262593
0.00416866
0.00467457
0.00473106
0.00469406
0.00472807
0.00520353
0.00605933
0.00681941
0.00703583
0.00692938
0.00663058
0.00608186
0.00555139
0.00550582
0.0053207
0.0051717
0.00512596
0.00447448
0.00391801
0.00415945
0.00410963
0.00424507
0.00430716
0.00435179
0.00439797
0.00447654
0.00457182
0.00465869
0.00471866
0.0047592
0.00479379
0.00482933
0.00486514
0.00490381
0.00492544
0.0048804
0.00441239
0.00264668
0.00157761
0.00143891
0.00153533
0.00180462
0.00190013
0.00204217
0.00181315
0.000954791
0.00112337
0.00195172
0.00216451
0.00200256
0.00187404
0.001841
0.00154199
0.00279433
0.00275869
0.00433076
0.00486848
0.00493427
0.00491819
0.00487776
0.00483232
0.00478873
0.00475303
0.00472474
0.00469539
0.00465458
0.00460693
0.00456022
0.00451124
0.00442973
0.00430946
0.00420936
0.00439471
0.00450104
0.00469468
0.00492416
0.00503968
0.00494383
0.00479275
0.00471952
0.00474696
0.00479112
0.00483722
0.00487917
0.0049019
0.00485019
0.00457374
0.00429304
0.00271742
0.00275313
0.00135347
0.00150329
0.00173486
0.00179189
0.00194603
0.001937
0.00152227
0.00118577
0.00133778
0.00125099
0.00223646
0.00245947
0.00272816
0.00270113
0.0014659
0.00150355
0.00156246
0.00176244
0.00163769
0.00158347
0.0039324
0.00375953
0.00393033
0.00482667
0.00415609
0.0028683
0.00314435
0.00437521
0.00461526
0.00278974
0.002091
0.00232106
0.00294034
0.00432774
0.00438265
0.0041644
0.0041398
0.00302178
0.0037117
0.00446633
0.00434609
0.00338827
0.00233559
0.0017387
0.000842966
0.00160362
0.00137134
0.00336333
0.00372258
0.00367977
0.00402617
0.004276
0.00431995
0.00419926
0.00372131
0.00379553
0.00383346
0.00437
0.00439153
0.00371386
0.00313378
0.00254243
0.00256578
0.00261631
0.00290045
0.00363262
0.00342205
0.00299865
0.00290702
0.00284362
0.00267433
0.00241283
0.0021165
0.00213129
0.00198385
0.00192003
0.00302716
0.00403019
0.00475313
0.00488998
0.00493948
0.0048634
0.00482847
0.00468969
0.00461747
0.00401078
0.00511866
0.0054107
0.00522266
0.00526267
0.00529671
0.0053381
0.00533976
0.00523977
0.00450138
0.0026877
0.00175538
0.0019814
0.00213856
0.00200791
0.00199678
0.00212848
0.00201986
0.00177422
0.00287464
0.00280957
0.00449284
0.00508904
0.00519725
0.00520229
0.00518031
0.0051617
0.0051673
0.00543864
0.00531645
0.00539979
0.00569722
0.00570396
0.00577143
0.00541778
0.00534794
0.00530305
0.00527284
0.00522424
0.00509552
0.00450885
0.00437123
0.00496444
0.00511784
0.00518619
0.00523369
0.00529024
0.00536409
0.00557655
0.005735
0.00579646
0.00555264
0.00545802
0.00533012
0.00515017
0.00510822
0.00510092
0.0050977
0.00507407
0.00494352
0.00435143
0.00279792
0.00286732
0.00170567
0.00171678
0.00197739
0.00207676
0.00203957
0.0018887
0.00184143
0.00317263
0.00361306
0.00384066
0.0041411
0.00395614
0.00393182
0.00449488
0.00435016
0.00387778
0.00403501
0.00361611
0.00344408
0.00333807
0.00335788
0.00176051
0.00189978
0.0019817
0.00194894
0.00186345
0.0016621
0.00152408
0.00278151
0.00276117
0.00272566
0.00162052
0.00158499
0.00186745
0.00181353
0.00165896
0.00141404
0.00155022
0.00239407
0.00267779
0.00415141
0.00430031
0.0046026
0.00492117
0.00504114
0.0050731
0.0050925
0.00511378
0.00516174
0.00521862
0.00523583
0.00523738
0.00528724
0.00527833
0.00528045
0.00525418
0.00522312
0.00518625
0.00514637
0.00508053
0.00494494
0.00462047
0.0043024
0.00485063
0.00489546
0.00498677
0.00508094
0.00512081
0.00512647
0.00510677
0.00506802
0.00502165
0.00496909
0.0049659
0.00510553
0.0051407
0.00516531
0.00514931
0.00513097
0.00512547
0.00510291
0.00506681
0.00497419
0.00488111
0.0048416
0.00476084
0.00488667
0.00494268
0.00495043
0.00499725
0.00507272
0.00509459
0.00509423
0.00505633
0.00502523
0.00498444
0.00491681
0.00482546
0.00453363
0.00459873
0.00467898
0.00478469
0.0048866
0.00496894
0.00501565
0.00501997
0.00497487
0.00494434
0.00494566
0.0049039
0.00492559
0.00494775
0.00492213
0.00491828
0.00492032
0.00486153
0.00475713
0.00461271
0.00446085
0.00433784
0.00427999
0.00417947
0.00449736
0.00463009
0.00474634
0.00484829
0.00494001
0.00503281
0.00505993
0.0050488
0.00499347
0.00496217
0.00496148
0.00491424
0.00491062
0.00495613
0.00495741
0.00498356
0.00503089
0.00501928
0.00495421
0.00477952
0.00461087
0.00446413
0.00432263
0.00417043
0.00416383
0.00423204
0.00416442
0.00421233
0.00435519
0.0045386
0.00469874
0.00480375
0.0048382
0.00486977
0.004915
0.00491065
0.00488388
0.00486865
0.00480764
0.00475402
0.00468835
0.00454723
0.00436997
0.00421696
0.00417538
0.00426581
0.00435048
0.00427089
0.00394324
0.0041007
0.00425076
0.00439754
0.00460719
0.00485036
0.00495306
0.00498933
0.00496483
0.00494581
0.00494354
0.00490039
0.00488407
0.00492392
0.00492729
0.00494717
0.00497871
0.00495193
0.00487017
0.00457269
0.00421776
0.00404805
0.00394705
0.0038132
0.00429178
0.00438245
0.00427361
0.00419973
0.00431097
0.00443789
0.00457062
0.00465958
0.00469548
0.00474725
0.00481535
0.00484841
0.00480039
0.00474404
0.00467498
0.00464002
0.00464196
0.00462206
0.0045377
0.00443645
0.00431446
0.00445984
0.00454669
0.00446409
0.0040208
0.00408682
0.00419092
0.00424805
0.00458336
0.00487378
0.00493681
0.0049345
0.0049014
0.00487982
0.00487986
0.00485466
0.0048065
0.00479772
0.00479413
0.00485297
0.00493053
0.00497901
0.00500446
0.00478765
0.0043904
0.0043271
0.00413673
0.00405286
0.00452413
0.00457574
0.00446643
0.00436885
0.00458174
0.00467084
0.004694
0.00467311
0.0046216
0.00458756
0.00464626
0.00473951
0.00466889
0.00436562
0.0040966
0.00423625
0.0042718
0.00426263
0.00420591
0.00410927
0.00389762
0.00435508
0.00480382
0.00483728
0.00434407
0.00435187
0.0042276
0.00393231
0.00431615
0.00451665
0.00455795
0.00453472
0.00446019
0.00428806
0.00452886
0.00474153
0.00470089
0.00425496
0.0027609
0.00279855
0.00281768
0.00281991
0.00278397
0.00277414
0.00273482
0.00271478
0.00265368
0.00259153
0.00253216
0.00270004
0.00284272
0.00303589
0.00305274
0.00313305
0.0030048
0.00284827
0.00266268
0.0020792
0.00263707
0.0031438
0.00333789
0.00358847
0.00363967
0.00418704
0.00440025
0.00451346
0.00442498
0.00355063
0.00301214
0.0024076
0.00156592
0.000975923
0.00114587
0.00119225
0.00125635
0.00154134
0.00282398
0.00144547
0.0019967
0.00156027
0.00267688
0.0014278
0.000892889
0.000590483
0.000751273
0.000890974
0.000899607
0.000863698
0.000720284
0.000567509
0.000580022
0.000542467
0.000576483
0.000520309
0.000596093
0.000555925
0.000763891
0.0011106
0.00129514
0.00132824
0.00107563
0.00121716
0.0010173
0.00117571
0.00105132
0.00114669
0.00110054
0.00134601
0.00147517
0.00141169
0.00141485
0.00123796
0.000865672
0.0010037
0.000788469
0.000947062
0.000724531
0.000934908
0.000801681
0.00104166
0.00107363
0.00107033
0.00103031
0.000786903
0.00093249
0.000734417
0.0009021
0.000742319
0.000790484
0.000657692
0.000954687
0.000972691
0.000897138
0.000953494
0.00106876
0.00114338
0.00125592
0.00118952
0.00135694
0.00131239
0.0013315
0.00126195
0.00122799
0.00120046
0.00120348
0.00118395
0.00119046
0.00122876
0.00123032
0.0012349
0.00127346
0.001255
0.00122406
0.00120499
0.00107069
0.000864735
0.00150647
0.00155343
0.00157757
0.001578
0.00154366
0.00152496
0.00146857
0.00145414
0.00140607
0.0013799
0.00131661
0.00126701
0.00120882
0.00136022
0.000762025
0.000865544
0.000913833
0.000941852
0.000960487
0.000969465
0.000975919
0.000970299
0.000957865
0.000934886
0.000927793
0.000902429
0.00115389
0.00131273
0.00137346
0.00139012
0.00130274
0.00124094
0.00272576
0.00330283
0.00500696
0.00511855
0.00384997
0.00383561
0.00132285
0.00139987
0.000955764
0.00134301
0.00138489
0.00137058
0.00129429
0.000933245
0.00140089
0.000976978
0.0013117
0.00098573
0.00120712
0.00100271
0.00142738
0.00182187
0.00175969
0.00159397
0.00109084
0.000906966
0.00090683
0.000774861
0.000850294
0.000701415
0.000861327
0.000726729
0.0010643
0.00148913
0.00167691
0.00171319
0.00135235
0.00186757
0.00140493
0.00203688
0.00162142
0.00200335
0.00161025
0.00186151
0.00230372
0.00231438
0.00225924
0.00182051
0.00145647
0.00163586
0.00144804
0.00166915
0.00241447
0.00158151
0.00240696
0.000993095
0.00135396
0.00139586
0.00137685
0.00129821
0.000874148
0.00222488
0.00117722
0.0020885
0.0013509
0.00215785
0.00157137
0.00208439
0.0024911
0.00260637
0.00259536
0.00211942
0.00191255
0.00197824
0.0015775
0.00189393
0.00141224
0.00205121
0.00116856
0.0015167
0.00166888
0.00176061
0.00176561
0.00144779
0.00286441
0.00180063
0.00271841
0.00189331
0.00242708
0.00194645
0.00212676
0.00251261
0.00249639
0.00247461
0.00209804
0.00169867
0.00224314
0.00159778
0.0481079
0.110767
0.0442535
0.112046
0.0506689
0.0719655
0.0708964
0.0710218
0.0712897
0.0535627
0.116804
0.137921
0.143799
0.145561
0.144494
0.233459
0.1904
0.285945
0.185285
0.109185
0.0474576
0.0653287
0.168326
0.277779
0.416962
0.529129
0.36066
0.373347
0.238253
0.234908
0.221223
0.179062
0.109947
0.0551939
0.00939784
0.0102443
0.0146885
0.0195823
0.0153411
0.00935007
0.00185443
0.00191295
0.0019553
0.00198115
0.00197263
0.00192795
0.00195443
0.00184022
0.00172422
0.00192398
0.00209944
0.00235014
0.00274263
0.00302151
0.00272112
0.00297906
0.0031556
0.00329976
0.00341947
0.00359802
0.00379903
0.00397483
0.00398408
0.00365086
0.00311219
0.00253152
0.00212721
0.00201505
0.00189211
0.00166854
0.00152624
0.00142857
0.00138172
0.0013624
0.00140019
0.00153039
0.00164348
0.00168317
0.00165026
0.00162
0.00159363
0.00141909
0.00165931
0.00227613
0.0022936
0.00392975
0.00452825
0.00462257
0.00462919
0.0041032
0.00262112
0.00262706
0.00264063
0.00269153
0.00270227
0.00271004
0.00270746
0.00269885
0.0026833
0.00265467
0.00264007
0.00259741
0.00256118
0.00247021
0.00247428
0.00250738
0.00253273
0.00249123
0.00250179
0.00244814
0.00318218
0.00425376
0.00479877
0.00501428
0.00519992
0.00504706
0.0069936
0.00598253
0.00420666
0.00414558
0.00409238
0.00485891
0.00489075
0.00439853
0.00441595
0.00404452
0.0025218
0.00251203
0.00251348
0.00268891
0.00274163
0.00283337
0.00285873
0.00287963
0.00289278
0.00288458
0.002882
0.00285427
0.00283445
0.00276916
0.00274749
0.00273832
0.0015099
0.00164801
0.00170999
0.00172219
0.00174862
0.00173915
0.00173044
0.00171017
0.00169729
0.00166926
0.00163707
0.0015885
0.00149304
0.00136028
0.00149807
0.00254327
0.00254325
0.00415526
0.00466303
0.00469594
0.00525127
0.00498392
0.00472111
0.00507097
0.00455847
0.00452016
0.00410199
0.00254733
0.00258147
0.00153233
0.00151696
0.00177374
0.00172353
0.00184243
0.00189262
0.00189746
0.00192287
0.0019473
0.00197751
0.00202544
0.00203831
0.00200413
0.00199691
0.00188092
0.00162547
0.00164464
0.00193863
0.00203335
0.00188964
0.00185887
0.00184638
0.00180318
0.00176958
0.00173716
0.00176067
0.00189669
0.00189551
0.00186272
0.00177378
0.00172882
0.00150006
0.00145158
0.00253041
0.00255333
0.00418329
0.00431136
0.00429759
0.00495297
0.00552112
0.00627783
0.00535525
0.00433909
0.00444576
0.00507959
0.00376395
0.00312361
0.00185278
0.00142957
0.00173013
0.00167414
0.00174218
0.00180504
0.00160239
0.00171985
0.00158923
0.00144386
0.00143536
0.00143336
0.00146854
0.00148327
0.00150973
0.0015132
0.00154829
0.00154443
0.00154754
0.00156616
0.00157265
0.00173736
0.00188637
0.00158835
0.00134725
0.00131424
0.00124135
0.00118272
0.00121205
0.0011841
0.00117706
0.00115576
0.00113637
0.00108457
0.00113057
0.00120003
0.00140423
0.00134499
0.00108683
0.000970732
0.00066353
0.000676174
0.000680834
0.000701711
0.000709314
0.00071864
0.000722097
0.000733709
0.00073593
0.000739551
0.000739227
0.000756588
0.000753892
0.000744944
0.000739324
0.000742885
0.000746086
0.000745369
0.00109136
0.00121478
0.00132519
0.00157331
0.00185065
0.00159307
0.00135091
0.0011661
0.000749837
0.000761098
0.000774796
0.000781976
0.000798304
0.000813356
0.000829924
0.000840446
0.000848182
0.000856442
0.00086509
0.000868612
0.000866417
0.000849829
0.000839997
0.000861558
0.000946879
0.000996528
0.00106009
0.0010842
0.00110505
0.0011157
0.00111037
0.00112186
0.00110853
0.00110668
0.0010875
0.00107932
0.00107135
0.00106149
0.00104925
0.00101931
0.00100927
0.00106206
0.0017959
0.00234731
0.0027029
0.0029767
0.00273877
0.00220892
0.00233721
0.00409573
0.00386665
0.00229634
0.00213681
0.00196253
0.00170072
0.00153086
0.00185375
0.00211133
0.00230694
0.00247993
0.00263822
0.00274589
0.00288458
0.00306553
0.00338464
0.00342462
0.0031238
0.00253098
0.00214166
0.00199926
0.00193113
0.0018133
0.00168462
0.00172693
0.00173949
0.00168779
0.0016236
0.00160549
0.00163215
0.0016665
0.00164666
0.00164606
0.00147066
0.00147011
0.00251222
0.00255874
0.00393624
0.00414763
0.00418823
0.00269213
0.00265555
0.00155102
0.00144069
0.00157175
0.00163189
0.00163544
0.00164233
0.0016344
0.00160596
0.00158531
0.00156099
0.00154131
0.00152375
0.00149347
0.00143564
0.00132635
0.0014454
0.0016201
0.001692
0.00171073
0.00171985
0.00174693
0.0017917
0.00182716
0.00190973
0.00191754
0.00191659
0.00192318
0.00179717
0.00185314
0.00156821
0.00156574
0.00271401
0.00270622
0.00155471
0.00183585
0.00184863
0.00182792
0.00196827
0.00180104
0.00174409
0.00173546
0.00166217
0.00162322
0.00157083
0.00153973
0.00156977
0.00166988
0.00161684
0.00143334
0.00138128
0.00154931
0.00149055
0.00123655
0.00105638
0.00102734
0.000983412
0.000956756
0.00100284
0.00103894
0.00105948
0.00108551
0.00109317
0.00114088
0.00110977
0.00116416
0.00123458
0.00129069
0.00153079
0.00165913
0.00149885
0.00147017
0.00145197
0.00145093
0.0014557
0.00139583
0.00139192
0.00136095
0.00134566
0.0013049
0.0012866
0.00126332
0.00126746
0.00128078
0.00140811
0.00362725
0.00462574
0.00481625
0.00823719
0.00332293
0.00339281
0.00667763
0.00274822
0.00413996
0.00443806
0.00463847
0.00484528
0.0044331
0.0056457
0.00393093
0.0043783
0.00456433
0.00400107
0.00149764
0.00170719
0.00196992
0.00175755
0.00155219
0.00105751
0.00113964
0.00117663
0.00120677
0.00122623
0.00124803
0.0012713
0.00129316
0.0013084
0.00130851
0.00126854
0.00122553
0.00112678
0.00109391
0.00113615
0.00117979
0.00103597
0.000975403
0.00098681
0.0010029
0.00101187
0.00101366
0.0010234
0.00102595
0.00104139
0.00103294
0.00104061
0.00102268
0.00103144
0.00101817
0.000983624
0.000934894
0.000852324
0.000832241
0.00119882
0.00127674
0.00134122
0.00152256
0.00175862
0.00187691
0.00168244
0.00155176
0.0014895
0.00165225
0.00165357
0.00301032
0.00578481
0.00258489
0.00289431
0.00845606
0.00335706
0.00260664
0.00264574
0.00267339
0.00267727
0.00155582
0.00184246
0.00178609
0.00179405
0.00152181
0.00127794
0.00114621
0.00102478
0.000695112
0.000692896
0.000698119
0.000708968
0.00071237
0.000681885
0.000681808
0.000677937
0.000676438
0.00066206
0.000658058
0.000646348
0.000639244
0.000622352
0.000613235
0.000597255
0.000594528
0.000621488
0.000692339
0.00083717
0.000930212
0.00105846
0.0010773
0.00120947
0.00300033
0.00347535
0.00479462
0.00475263
0.00749577
0.00468269
0.00353548
0.00319373
0.00467569
0.00483333
0.00448745
0.00607836
0.00420307
0.0027855
0.0042213
0.00351722
0.00414116
0.00407099
0.00432073
0.00685426
0.00719541
0.00202334
0.00180323
0.00189634
0.00215185
0.00255548
0.00235512
0.00268195
0.00268267
0.00207304
0.00131561
0.00419196
0.00507342
0.004081
0.00490782
0.00753596
0.00302526
0.00295009
0.00260976
0.00217816
0.00197948
0.00195331
0.00217831
0.00260688
0.00652776
0.00698459
0.00646087
0.00645405
0.00586109
0.00642976
0.00799896
0.00795078
0.00702557
0.00657038
0.00681508
0.00425403
0.0026277
0.00305342
0.00338559
0.00451847
0.00465906
0.00982279
0.00334161
0.0036863
0.00374283
0.00500487
0.00485461
0.00855501
0.00363933
0.00391825
0.00516491
0.00690073
0.0126876
0.00465216
0.00488764
0.0070241
0.00713303
0.00652255
0.00472295
0.00427583
0.00465183
0.00350532
0.00342823
0.00292548
0.00431789
0.00580236
0.00459947
0.00446558
0.00379371
0.00339201
0.00346019
0.00359223
0.00298525
0.00294334
0.0033943
0.00253551
0.00244442
0.00258418
0.000716804
0.00036728
0.000375435
0.000385231
0.000393168
0.000401369
0.000407324
0.000414435
0.000417573
0.000417962
0.000419109
0.000443103
0.000438884
0.00042499
0.000385902
0.000440281
0.000698697
0.000699094
0.000439708
0.000387611
0.00069561
0.00110825
0.00130652
0.00154528
0.00156415
0.00134979
0.00117044
0.000720606
0.000709246
0.000429847
0.000502039
0.000545175
0.000483605
0.000539788
0.000500356
0.000529924
0.000535671
0.000495756
0.000492885
0.000494749
0.000491037
0.000482272
0.000471607
0.000458576
0.000448384
0.000442907
0.000438836
0.000429732
0.000356529
0.000332606
0.000400819
0.000640252
0.000639612
0.00059904
0.000564008
0.000534
0.000520169
0.000516207
0.00051329
0.000522267
0.000539086
0.000543872
0.000548784
0.000591244
0.000572394
0.000611345
0.000573809
0.000612972
0.000575256
0.000529213
0.000444353
0.000458435
0.000739661
0.000747538
0.00120752
0.00138101
0.00156583
0.00157363
0.0017569
0.00185075
0.0015677
0.00162757
0.00186488
0.00173641
0.00154731
0.00155351
0.00139718
0.0013988
0.00123948
0.000774794
0.00076431
0.000479946
0.000466142
0.000555816
0.000546147
0.000607365
0.000650073
0.000650287
0.000648206
0.000632393
0.000626618
0.000551024
0.000540082
0.000540811
0.000524512
0.000521051
0.000543612
0.000593993
0.000698026
0.000844782
0.000919663
0.000951104
0.00091154
0.000815876
0.000603275
0.00054433
0.000944383
0.000979024
0.00176169
0.00419138
0.00195673
0.00370618
0.00267359
0.000663728
0.000739997
0.000943567
0.00105721
0.00114162
0.00119068
0.00108893
0.000908862
0.000684152
0.000565042
0.000842767
0.000728726
0.000822464
0.000718204
0.000929426
0.00107455
0.00103941
0.00104712
0.000884814
0.000720656
0.000763221
0.000685029
0.000755048
0.00063215
0.00076057
0.000686558
0.0008627
0.000870775
0.000852627
0.000808144
0.000615302
0.000645594
0.000541576
0.000587555
0.000527606
0.000545357
0.000516778
0.000602611
0.000694421
0.000666493
0.000663913
0.000545532
0.000427541
0.000472276
0.000408603
0.000462506
0.000359581
0.000435547
0.000365132
0.000472751
0.000487414
0.000490104
0.000487262
0.000396813
0.000466825
0.000571235
0.000599545
0.000604352
0.000575294
0.000443764
0.000686403
0.000618661
0.000755392
0.000653009
0.000715199
0.000651152
0.000758935
0.000972058
0.00101498
0.00102171
0.000829016
0.000823863
0.00150366
0.0834759
0.00135265
0.00159886
0.00164882
0.00164295
0.00135828
0.00132487
0.00164135
0.00121374
0.00171938
0.00108265
0.0018345
0.00069929
0.00106313
0.00114144