/*--------------------------------*- C++ -*----------------------------------*\
| =========                 |                                                 |
| \\      /  F ield         | OpenFOAM: The Open Source CFD Toolbox           |
|  \\    /   O peration     | Version:  v2012                                 |
|   \\  /    A nd           | Website:  www.openfoam.com                      |
|    \\/     M anipulation  |                                                 |
\*---------------------------------------------------------------------------*/
FoamFile
{
    version     2.0;
    format      ascii;
    class       volScalarField;
    location    "965";
    object      alphat;
}
// * * * * * * * * * * * * * * * * * * * * * * * * * * * * * * * * * * * * * //

dimensions      [1 -1 -1 0 0 0 0];


internalField   nonuniform List<scalar> 
18258
(
0.00484424
0.00211042
0.00173043
0.00149971
0.000992211
0.00162379
0.00225495
0.00268419
0.00281597
0.00279173
0.0028904
0.00487731
0.00684452
0.00845885
0.00888639
0.00887386
0.00805615
0.00769273
0.00836066
0.0102762
0.00863474
0.00553335
0.00662269
0.00766366
0.00835569
0.00740592
0.00598791
0.00554286
0.00501914
0.00418523
0.00351305
0.00240918
0.00175305
0.00162395
0.00147316
0.00167999
0.00183047
0.00195298
0.00199659
0.00202819
0.0020145
0.00200304
0.00194877
0.00191417
0.00185535
0.00153117
0.0018357
0.00192114
0.00210048
0.00289197
0.00310251
0.00260821
0.00288609
0.00257396
0.00169583
0.00194214
0.0021084
0.00215373
0.00212576
0.00203725
0.00200726
0.00198185
0.00194973
0.00191166
0.0018884
0.00190716
0.00192679
0.00190572
0.0018119
0.00173591
0.00161297
0.00148976
0.00139841
0.00132765
0.00127431
0.00121519
0.00114876
0.00100905
0.000935156
0.00123819
0.00155438
0.00166078
0.00235389
0.00286994
0.0028896
0.00216295
0.00154131
0.0015996
0.00177849
0.00179664
0.00152271
0.0018109
0.00205162
0.00212652
0.00221608
0.00247681
0.00281847
0.00274692
0.00244628
0.00225384
0.00221581
0.00253837
0.00241159
0.00312732
0.00315136
0.0027491
0.00252956
0.00284674
0.00367112
0.00395118
0.00307337
0.00288643
0.00282937
0.00279334
0.0025261
0.00261416
0.00237376
0.00213879
0.00232998
0.00281636
0.00267155
0.00291833
0.00302399
0.00283674
0.00328675
0.00378959
0.0037342
0.0029881
0.00243568
0.0022704
0.00228765
0.00139911
0.00151089
0.00162837
0.00166824
0.00169609
0.00171981
0.00183374
0.00182961
0.00180276
0.00179878
0.00183067
0.00100879
0.00109289
0.00112005
0.00112788
0.00107136
0.00106036
0.00104062
0.00102455
0.000965942
0.000924224
0.00110592
0.00124186
0.00135271
0.00148233
0.00167582
0.0019126
0.00216146
0.00241299
0.00257949
0.00262712
0.00267516
0.00257857
0.0024811
0.00256982
0.00258485
0.00256825
0.00253386
0.00249042
0.00243176
0.00232417
0.00244958
0.00244306
0.00229514
0.00196633
0.00201065
0.00200731
0.0020596
0.00204876
0.00206917
0.00203939
0.00200432
0.0019073
0.0017717
0.00147452
0.00144785
0.00146494
0.00187958
0.00228075
0.00352168
0.00429286
0.00497958
0.00532492
0.00569454
0.00461235
0.00513572
0.00396241
0.00355643
0.00451863
0.00590928
0.00337221
0.00184373
0.00349675
0.00310482
0.00225582
0.00200819
0.00206999
0.00206666
0.00236246
0.00272557
0.00302983
0.00317757
0.00330695
0.00341069
0.00352438
0.00366836
0.00370743
0.00358124
0.00303002
0.00365406
0.00296892
0.00346808
0.00313771
0.00212533
0.0021903
0.0023406
0.00214907
0.00209278
0.00199975
0.00180658
0.00224822
0.00290649
0.00337176
0.00385502
0.0051402
0.00475561
0.0045621
0.0035318
0.00341553
0.00177258
0.00252839
0.00262155
0.00295445
0.00196289
0.00179288
0.00170276
0.00224481
0.00260122
0.00307023
0.00340769
0.00404799
0.00314026
0.00358636
0.0032468
0.00226653
0.0021771
0.00311431
0.00335347
0.00275769
0.00246102
0.00308903
0.00292531
0.00207657
0.00165016
0.00253759
0.00262436
0.00188936
0.0047158
0.00503737
0.00481066
0.00586377
0.00733764
0.00836447
0.00780198
0.00691488
0.00770898
0.00611431
0.00593494
0.00634275
0.00532009
0.0037062
0.00379957
0.00392853
0.00403414
0.00433093
0.00460086
0.00493087
0.00524524
0.00476786
0.00395851
0.00299524
0.00206041
0.00203278
0.00202271
0.00181631
0.00269171
0.00407175
0.00404413
0.00229767
0.00133936
0.00151509
0.00171098
0.00169429
0.00122919
0.00092526
0.00159393
0.0018226
0.00185209
0.00180614
0.00170531
0.00178198
0.00286171
0.00440868
0.00484429
0.00501736
0.00518106
0.0052966
0.00536076
0.0053809
0.00539195
0.0054056
0.00541763
0.00543615
0.0054193
0.00530395
0.00466537
0.00293347
0.00171473
0.00159278
0.00175785
0.00188919
0.00200384
0.00170502
0.00104258
0.00166516
0.0021322
0.00245083
0.00247177
0.00230685
0.0022378
0.00352861
0.00469171
0.0055304
0.00570036
0.00577609
0.00571283
0.00570481
0.00558063
0.00554245
0.00486098
0.00347688
0.00380144
0.00408191
0.00412894
0.00422463
0.0043683
0.00426761
0.00403223
0.00588923
0.00679667
0.00688384
0.00702967
0.00694575
0.00682538
0.00651522
0.00616091
0.00518641
0.00388931
0.00245404
0.00250511
0.0026666
0.00264081
0.00229847
0.00242192
0.00262887
0.00265526
0.00274219
0.00307562
0.00349346
0.00333227
0.00286745
0.00243561
0.00226773
0.00222003
0.00212982
0.00159518
0.00161918
0.00157407
0.00160013
0.00214935
0.00255805
0.00295028
0.00418491
0.00373294
0.00303564
0.00481571
0.00493531
0.00530358
0.00585883
0.00600373
0.00665298
0.00462774
0.00416981
0.00428351
0.00349898
0.00323854
0.00327294
0.00328523
0.00306147
0.00335104
0.00332171
0.00320171
0.00353486
0.00389562
0.00513707
0.0062251
0.00656847
0.00676716
0.00684911
0.00682463
0.00669306
0.00673605
0.00591785
0.00591416
0.0056636
0.00550055
0.0054425
0.00517268
0.00591816
0.00614425
0.00621983
0.00637523
0.00661713
0.00643662
0.00623663
0.00608426
0.00597372
0.00585805
0.00591971
0.00603006
0.00614771
0.00631269
0.00653282
0.00656844
0.00634049
0.00616801
0.00604985
0.00593875
0.00594297
0.00604202
0.00615734
0.00632075
0.00652918
0.00641299
0.00625101
0.00610656
0.00598797
0.00588343
0.00567743
0.00581467
0.0059655
0.00608972
0.0061701
0.00533083
0.00569829
0.0056002
0.00507015
0.00474518
0.00360349
0.0038998
0.00411257
0.00447933
0.00497211
0.00506893
0.00425349
0.00364503
0.00355171
0.003523
0.00360585
0.00363577
0.0036536
0.00412853
0.00622451
0.00626711
0.00628544
0.00628869
0.00537633
0.00522321
0.00486504
0.00890216
0.00828847
0.00718096
0.00591741
0.00316896
0.00271624
0.00321758
0.00391302
0.00437502
0.0048279
0.00320525
0.00198549
0.00231413
0.0023991
0.00233993
0.00216239
0.00180091
0.00166242
0.00150883
0.00162393
0.00287646
0.0045901
0.00517001
0.00522469
0.0051727
0.00507185
0.00494913
0.0047781
0.00471681
0.00595254
0.00806416
0.0090914
0.00905322
0.00777781
0.00634451
0.00358172
0.00185041
0.00137035
0.00145927
0.00160462
0.00188237
0.00167395
0.00142522
0.00156001
0.00147319
0.00297995
0.00513525
0.00652951
0.00775183
0.00763127
0.0066367
0.00541728
0.00512994
0.00525041
0.00533156
0.00540071
0.00547162
0.00552035
0.0054899
0.0049973
0.00308767
0.00184293
0.00163716
0.00176024
0.00206308
0.00219266
0.00221544
0.00218487
0.00189403
0.00313239
0.00497362
0.00316317
0.00172594
0.00186484
0.00185107
0.00326561
0.00326062
0.00319013
0.00496288
0.00524765
0.00523534
0.00491939
0.00469599
0.00278058
0.00315638
0.00316715
0.00318385
0.0032361
0.00163479
0.00178217
0.00183792
0.00197908
0.00173023
0.0021959
0.000568292
0.000788067
0.000915482
0.000995352
0.00107236
0.00105192
0.00201254
0.00204237
0.00194924
0.00189883
0.00240922
0.00258482
0.00264166
0.00243279
0.00224467
0.00238967
0.00239508
0.00225745
0.00213813
0.00221664
0.00221804
0.00212538
0.00180773
0.00169395
0.00185975
0.00183985
0.00182533
0.00327778
0.00327178
0.00309635
0.00508654
0.00500529
0.00560554
0.00556882
0.00556161
0.00553863
0.00559782
0.00562936
0.00565344
0.00568125
0.00567015
0.00561564
0.00781764
0.0055234
0.00481996
0.00278779
0.0026855
0.00189662
0.00166215
0.00195719
0.00209328
0.00226942
0.00221814
0.00233832
0.00233553
0.0024782
0.00230021
0.00204243
0.00312816
0.00334179
0.00326379
0.00332831
0.00324994
0.00323077
0.00320706
0.00316161
0.0031068
0.00184989
0.00181465
0.00212494
0.0022306
0.00239682
0.00241849
0.002471
0.00234349
0.00206103
0.001995
0.00229762
0.0022666
0.0023107
0.00217857
0.00216951
0.0019327
0.00198169
0.00399707
0.00738223
0.00379767
0.00421872
0.00382174
0.00434698
0.0038074
0.00328336
0.00336048
0.00295972
0.00308736
0.00323858
0.00329717
0.00346542
0.00408482
0.00393265
0.00345205
0.0033518
0.00328578
0.00309806
0.00278861
0.00292125
0.00294753
0.00301082
0.00334612
0.00383938
0.00430391
0.00523161
0.00507684
0.00444669
0.00406569
0.00426439
0.00433765
0.00546162
0.00510279
0.00507213
0.00535004
0.00529646
0.00502705
0.00476313
0.00459754
0.00394646
0.00401112
0.00459089
0.00444259
0.00457872
0.00449874
0.00467718
0.00476236
0.00457086
0.00424771
0.00446568
0.00445629
0.00494906
0.00481296
0.00446462
0.00408404
0.00436598
0.0043131
0.00498273
0.00469
0.00438613
0.00403762
0.0038676
0.00438975
0.00430916
0.00488661
0.00502847
0.00503084
0.00438554
0.0042831
0.00509451
0.00490126
0.00473469
0.00493211
0.00408414
0.00420002
0.00517492
0.00528328
0.00501278
0.00418474
0.00424801
0.0036415
0.00428385
0.00533283
0.00503712
0.00412833
0.00342517
0.00479279
0.00504195
0.00533451
0.00504087
0.00549003
0.00591373
0.00481983
0.00524348
0.00685265
0.00522826
0.00606729
0.00620192
0.00623869
0.00624224
0.00626683
0.00629874
0.00663691
0.00645802
0.0041046
0.00490863
0.00476747
0.00398788
0.00339158
0.00373605
0.00402405
0.00408234
0.00418588
0.00434518
0.00427067
0.00413079
0.00604494
0.00689215
0.0070466
0.00718577
0.00706511
0.00688483
0.00647762
0.00598268
0.00496991
0.00370832
0.00231586
0.00236229
0.00251931
0.00249733
0.00216854
0.00163604
0.00107423
0.00159142
0.00164204
0.00154453
0.00140649
0.00124006
0.00127968
0.00234075
0.00450794
0.00627863
0.00697671
0.00755529
0.00812988
0.00863213
0.00901105
0.00929372
0.00949427
0.00962384
0.00965303
0.00947644
0.00866273
0.00828581
0.00781542
0.00742783
0.00688066
0.00643336
0.00727459
0.00798389
0.00841693
0.00890479
0.00912777
0.00902892
0.0078364
0.00761783
0.00878569
0.0108195
0.00920759
0.0115665
0.0135778
0.0105824
0.00949837
0.00947628
0.0105927
0.0107976
0.0104218
0.00983437
0.0091603
0.00830361
0.00874222
0.00913591
0.00951115
0.00985787
0.0107495
0.0109044
0.0108181
0.0106341
0.0104012
0.0100996
0.00964477
0.00901075
0.00821685
0.00738939
0.0064495
0.00453938
0.00217461
0.00247568
0.00242169
0.00260475
0.00254825
0.00117975
0.00129915
0.00131218
0.00131724
0.0012411
0.00140899
0.00204213
0.00328374
0.0023648
0.00194288
0.00135666
0.00159942
0.00266735
0.00452398
0.00509015
0.00518845
0.00576099
0.00737631
0.00801292
0.00844543
0.0088077
0.00901168
0.00890466
0.00863673
0.00815818
0.00757092
0.00732312
0.00692166
0.00654813
0.00633608
0.00611823
0.00574295
0.00453181
0.00432255
0.00450017
0.00444645
0.00425674
0.00454644
0.00470943
0.00470442
0.00475574
0.00480057
0.00494143
0.00510736
0.0052517
0.00532714
0.0053548
0.00536322
0.00537386
0.00538234
0.00539868
0.00538038
0.00526264
0.00462118
0.00289026
0.00168747
0.00156037
0.00171087
0.00180927
0.00185141
0.00164413
0.00105831
0.00164484
0.00212884
0.0021833
0.0023949
0.0024701
0.00261758
0.00291556
0.00336925
0.00347658
0.00308531
0.00292299
0.00286098
0.00278816
0.00238722
0.00297377
0.00327869
0.00327216
0.0032408
0.00350217
0.00430976
0.00413984
0.00365079
0.00361035
0.00357416
0.00323282
0.00318216
0.00347688
0.00351512
0.0036466
0.00427609
0.00512833
0.00475717
0.00433255
0.0041527
0.00383473
0.00337375
0.00305054
0.00375473
0.00307955
0.00161835
0.00137575
0.00137649
0.00138169
0.00133229
0.00157521
0.00165343
0.00167145
0.00155246
0.00172481
0.00192089
0.00185989
0.00211729
0.00208608
0.0018628
0.00184671
0.00200055
0.00211467
0.00217281
0.00223287
0.00364089
0.00375179
0.0029066
0.00419677
0.0048523
0.00483108
0.00511609
0.00420776
0.00376201
0.00446366
0.00516905
0.005947
0.00469862
0.00443473
0.00454674
0.00208927
0.00109915
0.001551
0.00192488
0.0021419
0.00207604
0.00196096
0.00165764
0.00293844
0.00301899
0.00478086
0.00536247
0.0054262
0.00539373
0.00558665
0.00619797
0.00725381
0.00791963
0.00811286
0.00799058
0.0076614
0.00705214
0.00645261
0.00638991
0.00615832
0.00597761
0.00591681
0.00515001
0.00453439
0.00483779
0.00476148
0.00492032
0.0049936
0.00504626
0.00509995
0.00519047
0.00529972
0.00539858
0.0054657
0.00551014
0.00554774
0.00558655
0.00562579
0.00566835
0.00569096
0.00563648
0.00509394
0.00305729
0.00182362
0.00166405
0.00177556
0.0020867
0.00219691
0.00236117
0.00209714
0.00110478
0.00129863
0.00225712
0.00250153
0.00231412
0.00216592
0.00212755
0.00178231
0.00322625
0.00318351
0.00499252
0.00561411
0.00569219
0.00567625
0.0056322
0.00558281
0.0055374
0.0055004
0.00547138
0.00544042
0.00539534
0.00534042
0.0052877
0.00523422
0.00514337
0.00501056
0.00487805
0.0050891
0.00522713
0.00543316
0.00568683
0.00583056
0.00573199
0.00556208
0.00546873
0.00548765
0.00553254
0.00558078
0.0056244
0.00564536
0.00558422
0.00526463
0.00494258
0.00313294
0.00317359
0.00156371
0.00173729
0.00200451
0.00207009
0.00224891
0.0022393
0.00176159
0.001372
0.00154711
0.0014456
0.00258157
0.00283811
0.0031463
0.00311493
0.00169334
0.00173633
0.00180452
0.00203651
0.0018936
0.00182944
0.00449589
0.00431054
0.00451467
0.00554181
0.00477452
0.00329933
0.00361871
0.00503392
0.00530742
0.003211
0.00240738
0.00267201
0.00338495
0.00498107
0.00504225
0.00478906
0.00476347
0.0034821
0.00427906
0.00514365
0.00500303
0.00390687
0.00269251
0.00200303
0.000975393
0.00185565
0.00158729
0.00388258
0.00429556
0.00424398
0.00464112
0.0049311
0.00498191
0.00484076
0.00429518
0.00437974
0.00442267
0.00503756
0.0050597
0.00428587
0.00361794
0.00294082
0.00296652
0.00302348
0.00335038
0.00419511
0.00395256
0.00346453
0.00336
0.00328802
0.0030935
0.00279193
0.00244967
0.00246637
0.00229555
0.00222157
0.00350186
0.00466131
0.00549674
0.00565509
0.00571272
0.00562551
0.00558617
0.00542686
0.00534455
0.00464327
0.00592641
0.0062637
0.00604426
0.00608881
0.00612656
0.00617289
0.00617336
0.00605698
0.00520554
0.00310908
0.00203102
0.00229252
0.00247457
0.0023239
0.00231068
0.00246254
0.0023365
0.00205228
0.00332492
0.00324961
0.00519524
0.00588263
0.00600869
0.00601612
0.00599182
0.0059716
0.00597903
0.00629372
0.00615093
0.006238
0.00657651
0.00658778
0.00666589
0.00625749
0.00617706
0.00612554
0.00609101
0.00603523
0.00588684
0.00520933
0.00505018
0.00573518
0.00591218
0.00599104
0.00604604
0.00611181
0.00619806
0.00644496
0.00662894
0.00669762
0.00641772
0.00631472
0.00616723
0.00595826
0.00590946
0.00589993
0.00589594
0.00586785
0.00571605
0.0050324
0.0032362
0.00331618
0.00197289
0.00198587
0.00228738
0.00240268
0.00236001
0.00218557
0.00213098
0.00365786
0.00416368
0.00443027
0.00477084
0.00455638
0.00453016
0.00517905
0.00501219
0.00447285
0.00465252
0.00416979
0.00397487
0.00384102
0.00386064
0.0020372
0.00219817
0.00229266
0.00225444
0.00215573
0.00192264
0.00176308
0.0032172
0.00319368
0.00315176
0.00187481
0.00183382
0.00216055
0.00209835
0.00191967
0.00163633
0.00179371
0.00276826
0.00309614
0.00479989
0.00497177
0.00532258
0.00569128
0.00583037
0.00586738
0.00588919
0.00591467
0.00597007
0.00603678
0.00605683
0.00605778
0.00611846
0.00610927
0.00610961
0.00607614
0.0060379
0.00599359
0.00594647
0.00586982
0.00571297
0.00533819
0.00497093
0.00560453
0.00565642
0.00576236
0.00587217
0.00591976
0.00592847
0.00590867
0.00586755
0.00581859
0.00576113
0.00575858
0.00591128
0.00594713
0.00597287
0.00595287
0.00593225
0.00592613
0.00590201
0.00586174
0.00575469
0.00564663
0.00560002
0.00550636
0.0056537
0.00571907
0.00572883
0.00578355
0.00587106
0.00589365
0.00589017
0.00584601
0.00581042
0.00576633
0.00569312
0.00559711
0.00527462
0.00534473
0.00543352
0.0055496
0.0056618
0.0057523
0.00580267
0.00580488
0.00575058
0.005714
0.00571487
0.00566639
0.00569185
0.00571826
0.00569016
0.00568807
0.00569398
0.00563111
0.00551518
0.00535326
0.00518168
0.00503957
0.00496657
0.00484651
0.0052213
0.00536605
0.0054939
0.00560706
0.00571063
0.00581664
0.0058526
0.00584483
0.00578071
0.00574436
0.00574288
0.00568744
0.00568516
0.00573879
0.00574092
0.00577129
0.00582743
0.00580742
0.00572694
0.00552851
0.0053371
0.00517153
0.00501392
0.00484367
0.00480221
0.00488038
0.00481479
0.00488271
0.00505277
0.00526516
0.00544794
0.00556354
0.00559884
0.00563195
0.00568183
0.00567528
0.00564526
0.0056299
0.0055624
0.005504
0.00543182
0.00527146
0.00506548
0.00488294
0.00482421
0.00492247
0.00502159
0.00493034
0.00457697
0.00475746
0.00492398
0.00509051
0.00532837
0.00560466
0.00572974
0.00577486
0.00574891
0.00572848
0.00572593
0.00567517
0.00565797
0.00570454
0.00570752
0.00572785
0.00576201
0.00572035
0.00561532
0.00527444
0.0048765
0.00468648
0.00457628
0.0044189
0.0049543
0.00505806
0.00493139
0.00484656
0.0049777
0.00513102
0.00529055
0.00539602
0.00543658
0.0054939
0.00556972
0.00560527
0.00555069
0.00548824
0.00541059
0.00537091
0.00537076
0.00534266
0.00523889
0.00511894
0.00498174
0.00515082
0.00525167
0.00515683
0.00465869
0.00473464
0.00483903
0.00489353
0.00526461
0.00560275
0.00569018
0.00570237
0.00567159
0.00565186
0.00565428
0.00562533
0.00557072
0.00555946
0.00555134
0.00561154
0.00568928
0.00572311
0.00573714
0.00548225
0.00504429
0.00498787
0.00479127
0.00469603
0.00522617
0.00528689
0.00516306
0.00504939
0.00528957
0.00539244
0.00542285
0.00540306
0.00534697
0.00530884
0.00537561
0.00548103
0.00539992
0.00505126
0.00474049
0.00490072
0.00493917
0.00492542
0.00485772
0.00474677
0.00450728
0.00503388
0.00555
0.00559217
0.00503266
0.00503991
0.0048722
0.00451723
0.00494067
0.00517814
0.0052354
0.00522538
0.00515426
0.00496452
0.00524827
0.00549647
0.00545038
0.0049319
0.0032001
0.00324499
0.00326976
0.00327426
0.00323163
0.00322011
0.00317366
0.00315005
0.00307771
0.00300471
0.00293399
0.00312955
0.00329607
0.00352059
0.00353942
0.00363252
0.00348077
0.00329798
0.00308236
0.00239808
0.00304334
0.00363143
0.00385723
0.00414798
0.00420841
0.00484936
0.00510116
0.00523995
0.00514262
0.00412524
0.00349987
0.00279707
0.00181903
0.00113345
0.00133086
0.00138469
0.00146133
0.00179522
0.00329222
0.0016837
0.00233191
0.00182173
0.00313621
0.00166651
0.00103883
0.000689135
0.000881869
0.00104926
0.0010604
0.00101457
0.000844817
0.000662056
0.000676568
0.000629865
0.00066892
0.000600976
0.000688147
0.00064119
0.000881997
0.00128787
0.00150177
0.00153972
0.00124666
0.00141015
0.00117841
0.00136148
0.00121705
0.00132735
0.00127371
0.001558
0.00170751
0.00163418
0.00163797
0.00143331
0.00100246
0.00116218
0.000913206
0.00109682
0.000839454
0.00108361
0.000929418
0.00120777
0.00124501
0.00124138
0.00119515
0.000912961
0.00108202
0.000852268
0.00105074
0.000865207
0.000926799
0.000772245
0.00112412
0.00114585
0.00105525
0.00112672
0.00126663
0.00135698
0.00148785
0.00140106
0.00159147
0.00153181
0.0015459
0.00146486
0.00142526
0.00139309
0.00139634
0.00137344
0.00138076
0.00142492
0.00142652
0.00143162
0.00147592
0.00145416
0.00141808
0.00139595
0.00124048
0.00100182
0.00174551
0.00179999
0.00182803
0.00182846
0.00178887
0.00176738
0.00170313
0.0016865
0.00163165
0.00160126
0.0015285
0.00147084
0.00140355
0.00157825
0.000883902
0.00100383
0.0010597
0.00109189
0.00111341
0.00112362
0.00113107
0.00112444
0.00111
0.00108325
0.00107493
0.00104551
0.00133679
0.00152059
0.00159091
0.00161045
0.00150959
0.00143829
0.00315932
0.00382682
0.00580332
0.00593146
0.00446005
0.00444378
0.00153283
0.001622
0.00110823
0.00155743
0.00160628
0.00159004
0.0015019
0.00108325
0.0016257
0.00113385
0.00152369
0.0011481
0.00140974
0.00118064
0.00169088
0.00215992
0.00208815
0.00189269
0.00130656
0.00108827
0.00109604
0.000934226
0.00102379
0.00083289
0.00101472
0.00084984
0.00123882
0.00172774
0.00194385
0.00198539
0.00156697
0.00216371
0.00162738
0.00235918
0.00187726
0.00231947
0.00186334
0.00215452
0.00266636
0.00267885
0.00261533
0.0021079
0.00168721
0.00189453
0.00167774
0.00193342
0.00279739
0.00183317
0.00278922
0.00115156
0.00157032
0.00161932
0.00159774
0.00150698
0.00101536
0.00258312
0.00136724
0.00242539
0.00157016
0.0025075
0.00183149
0.00244037
0.00291779
0.00305732
0.00304982
0.00248878
0.00225087
0.00234004
0.00186952
0.00224542
0.00166385
0.00241044
0.00135904
0.0017592
0.00193397
0.00203956
0.00204526
0.00167711
0.00331815
0.00208552
0.00314868
0.00219251
0.00281084
0.00225346
0.00246257
0.00290915
0.00289057
0.00286562
0.00242974
0.00196782
0.00259843
0.00185153
0.0556831
0.128265
0.0511935
0.129673
0.0586122
0.0832377
0.0820008
0.0821583
0.0824799
0.0619534
0.13524
0.159713
0.166507
0.168517
0.167265
0.270279
0.220426
0.3311
0.214604
0.126466
0.0549595
0.0756793
0.194993
0.321764
0.482885
0.612743
0.417582
0.432282
0.275848
0.272011
0.256173
0.207347
0.1273
0.0638796
0.0109104
0.0119316
0.0170833
0.0227566
0.0178543
0.0108898
0.00215203
0.00221974
0.00226859
0.00229837
0.00228869
0.00223791
0.00227092
0.00214153
0.00200909
0.00224172
0.00244412
0.00270537
0.00316196
0.00348733
0.0031396
0.00344053
0.00364681
0.00381465
0.00395301
0.00415909
0.00439131
0.00459586
0.00460679
0.00422069
0.00359647
0.00292583
0.00246031
0.00233149
0.00218976
0.00193124
0.00176702
0.00165532
0.00160093
0.00157829
0.00162174
0.00177199
0.00190197
0.00194744
0.00190869
0.00187369
0.00184313
0.00164117
0.00191869
0.00263191
0.00265345
0.00454595
0.00523834
0.00534714
0.00535442
0.00474798
0.00303343
0.00304012
0.0030557
0.00311397
0.0031261
0.00313387
0.0031305
0.00311905
0.00310082
0.00306675
0.00304996
0.003001
0.00295975
0.00285708
0.00286177
0.00289998
0.00292955
0.00288226
0.00289512
0.00283294
0.00364952
0.00489006
0.0055396
0.0057914
0.00600881
0.00583329
0.00807125
0.00688982
0.00485248
0.00479464
0.00473284
0.00561647
0.00565533
0.00509654
0.00511444
0.00466022
0.00290446
0.00288734
0.00288885
0.00308264
0.00314106
0.00325021
0.00327966
0.00330855
0.00332456
0.00332307
0.003322
0.00329725
0.00327637
0.00320518
0.00318119
0.00317142
0.00174863
0.00190783
0.00197749
0.0019895
0.0020156
0.00200279
0.00198961
0.00196554
0.00194863
0.00191613
0.00187753
0.00182333
0.00171665
0.00156516
0.00172391
0.00293057
0.00293197
0.00479346
0.00540375
0.00544428
0.00607178
0.00576431
0.00545981
0.00586507
0.00528303
0.00523981
0.00473652
0.00293819
0.00297729
0.00176455
0.0017465
0.00204003
0.00198147
0.00211583
0.00217196
0.00217879
0.00220859
0.00223842
0.0022743
0.00233087
0.00234883
0.00231552
0.00231023
0.00217827
0.00188314
0.00190622
0.00224621
0.00235367
0.0021839
0.00214278
0.00212537
0.00207444
0.00203489
0.00199644
0.00202297
0.00217856
0.0021784
0.00214213
0.00204059
0.00199006
0.00172833
0.00167297
0.00291967
0.00294314
0.00483028
0.00499386
0.00497143
0.00571609
0.00636188
0.00723886
0.00617297
0.00500886
0.00515908
0.00588905
0.00436099
0.0036034
0.0021414
0.00164628
0.00198578
0.00192746
0.00200482
0.00207696
0.0018436
0.00197718
0.00182677
0.00165952
0.00165009
0.00164771
0.00168885
0.00170586
0.00173678
0.0017408
0.00178184
0.00177784
0.00178382
0.00180578
0.00181757
0.00200837
0.00218497
0.00183776
0.00155775
0.00151584
0.00143122
0.00136196
0.00139505
0.00136247
0.00135434
0.00132961
0.00130728
0.00124743
0.00130033
0.00137996
0.00161463
0.00154732
0.00125051
0.00111713
0.000763884
0.000777946
0.000783339
0.000807563
0.000816281
0.000827039
0.000830977
0.000844468
0.000847036
0.000851235
0.000850865
0.000871021
0.000867996
0.000858083
0.000851586
0.00085607
0.000860274
0.000859731
0.00125866
0.00140178
0.00153278
0.00182116
0.00214517
0.00184554
0.00156327
0.00134662
0.000865743
0.000878994
0.00089511
0.000903427
0.00092272
0.000940312
0.000960024
0.000972571
0.000982093
0.00099212
0.00100261
0.00100714
0.00100491
0.000985962
0.000974714
0.000999902
0.00109901
0.00115655
0.00123012
0.00125799
0.00128244
0.001295
0.00128836
0.00130147
0.00128573
0.00128342
0.00126087
0.0012511
0.00124159
0.00122981
0.00121543
0.00118043
0.00116867
0.00122986
0.00208092
0.00272163
0.00313821
0.00345855
0.00317944
0.00256216
0.00271345
0.00475777
0.0044911
0.00266611
0.00248115
0.00228023
0.00197941
0.00176543
0.00213519
0.00243448
0.0026624
0.0028642
0.00304861
0.00317363
0.00333369
0.00354217
0.00391145
0.00395788
0.00361009
0.00292597
0.00247803
0.00231551
0.00223752
0.002101
0.00195192
0.00200085
0.00201534
0.00195539
0.00188089
0.00185959
0.00189014
0.00192867
0.00190539
0.00190465
0.00170155
0.00170101
0.00290648
0.00296237
0.0045566
0.00480075
0.00484699
0.00311645
0.00307371
0.00179536
0.0016674
0.00181899
0.00188822
0.00189209
0.00189966
0.00188992
0.00185668
0.00183249
0.00180417
0.00178145
0.00176153
0.00172704
0.00166129
0.00153457
0.00167281
0.00187562
0.00195797
0.00197889
0.00198878
0.00201991
0.00207153
0.00211275
0.00220841
0.00221826
0.00221741
0.00222526
0.00208009
0.00214517
0.00181557
0.001813
0.00314229
0.00313387
0.00180041
0.00212588
0.00214024
0.00211542
0.00227746
0.00208407
0.002018
0.00200717
0.00192224
0.0018771
0.00181679
0.00178111
0.00181653
0.00193314
0.00187262
0.00165968
0.00160161
0.00179556
0.00172596
0.00143173
0.00122297
0.00118906
0.00113804
0.00110709
0.00116024
0.00120175
0.00122539
0.00125542
0.00126431
0.00131951
0.00128382
0.00134726
0.00142873
0.00149353
0.00177159
0.00191992
0.00173447
0.00170124
0.00168014
0.00167826
0.00168357
0.00161428
0.00160973
0.00157392
0.0015563
0.00150941
0.00148837
0.00146164
0.00146663
0.00148238
0.00162992
0.0041988
0.00535071
0.00557168
0.00950796
0.00384674
0.00392798
0.00770285
0.00318577
0.00479086
0.00513341
0.00536688
0.00560496
0.00512951
0.00650929
0.00454836
0.00506238
0.00528556
0.00465695
0.00172599
0.00193188
0.00224681
0.00202184
0.0017866
0.00121824
0.00131447
0.00135798
0.00139319
0.00141625
0.00144158
0.00146879
0.00149423
0.00151211
0.00151243
0.00146657
0.00141708
0.00130338
0.0012655
0.00131448
0.0013651
0.00119924
0.00112925
0.00114265
0.00116152
0.00117214
0.00117445
0.00118605
0.0011892
0.00120749
0.0011978
0.00120706
0.00118646
0.00119703
0.00118128
0.00114095
0.00108438
0.000988195
0.000964614
0.00138934
0.00147952
0.00155441
0.00176397
0.00203702
0.00217375
0.00194845
0.00179689
0.00172483
0.00191343
0.00191351
0.00347533
0.00667516
0.00298816
0.0033483
0.00975299
0.00387797
0.00301804
0.00306366
0.00309582
0.00310007
0.00180159
0.00213368
0.00206859
0.00207689
0.00176139
0.00147884
0.00132648
0.00118605
0.000804272
0.00080161
0.000807663
0.000820041
0.000823897
0.000788684
0.000788595
0.000784111
0.000782365
0.00076579
0.000761176
0.00074771
0.000739547
0.000720123
0.000709611
0.000691105
0.000687661
0.000714578
0.000792499
0.000957151
0.00106875
0.00121302
0.00123606
0.00139729
0.00348134
0.00402945
0.00555474
0.00549885
0.00867038
0.00541781
0.00409246
0.00370287
0.00541797
0.00559943
0.0052132
0.00706178
0.00488412
0.00322994
0.00480076
0.00398148
0.00480315
0.00468658
0.00495854
0.00785812
0.00827162
0.00233269
0.00207975
0.00218839
0.00248275
0.00294774
0.00271196
0.00309064
0.00308309
0.00237486
0.00152422
0.00485857
0.0058727
0.00469148
0.00561017
0.00867428
0.00349278
0.00340695
0.00301444
0.00251595
0.00228677
0.00225579
0.00251522
0.00301001
0.0075452
0.00807158
0.00739735
0.00736428
0.00669877
0.00740983
0.00922863
0.00919205
0.0081121
0.00758541
0.00784593
0.00484281
0.00304383
0.00353945
0.00391822
0.00522727
0.00539027
0.0113647
0.00386314
0.00426516
0.0043304
0.00579343
0.00561318
0.00990974
0.0042045
0.00453142
0.00597143
0.00797102
0.014678
0.00536772
0.00565095
0.00812371
0.00824598
0.00754099
0.0054564
0.00494552
0.00538512
0.00405751
0.00396705
0.00338913
0.00500418
0.00672746
0.00532204
0.00516798
0.00439583
0.0039171
0.00400822
0.00415822
0.00345472
0.00340791
0.00393414
0.00292291
0.0028165
0.00299558
0.000828888
0.000424882
0.000434442
0.000445752
0.000454906
0.000464328
0.000471218
0.000479384
0.000483065
0.000483466
0.000484702
0.000512551
0.000507801
0.000491731
0.000446506
0.000509516
0.000808569
0.000809115
0.000508939
0.000448676
0.000805043
0.0012827
0.00151212
0.00178892
0.00181103
0.00156255
0.00135483
0.000833977
0.000820884
0.000497581
0.000581121
0.000631089
0.000559749
0.00062469
0.000578994
0.000613311
0.000619676
0.000573368
0.000570172
0.000572369
0.000568024
0.000557949
0.000545611
0.00053052
0.000518551
0.000511769
0.000506259
0.000494616
0.000412104
0.000383694
0.00046008
0.000732074
0.000730936
0.000685678
0.000647481
0.000615073
0.000600612
0.00059682
0.00059375
0.000604152
0.000623666
0.000629182
0.000634718
0.000683914
0.000662568
0.000707688
0.000664121
0.000709529
0.000665976
0.000612629
0.0005144
0.000530712
0.00085613
0.000865226
0.00139785
0.00159912
0.0018135
0.0018228
0.00203508
0.00214342
0.00181522
0.00188451
0.00215963
0.00201132
0.00179261
0.0017996
0.00161868
0.00162016
0.0014351
0.000896915
0.000884744
0.000555674
0.000539669
0.000643507
0.000632252
0.000703185
0.00075256
0.00075283
0.000750399
0.000731526
0.00072477
0.000637353
0.000624833
0.000625645
0.000606675
0.000602392
0.000627428
0.000683396
0.000800894
0.000968304
0.00105469
0.00109226
0.00104841
0.000939178
0.000691835
0.000626133
0.00108414
0.00112673
0.00200806
0.00477034
0.00219985
0.00424949
0.00306634
0.000764393
0.000853358
0.00108826
0.00121949
0.00131641
0.00137133
0.00125235
0.00104423
0.000786267
0.000649625
0.000972105
0.000840674
0.000950284
0.000830054
0.00107415
0.00124205
0.00120167
0.00121082
0.00102338
0.000833796
0.000882992
0.000792891
0.00087397
0.000731734
0.000880403
0.000794927
0.000998956
0.00100836
0.000987403
0.000935954
0.000712669
0.000747765
0.000627229
0.000680425
0.000610893
0.000631454
0.000598374
0.000697822
0.000804119
0.000771751
0.000768743
0.000631643
0.000494959
0.000546664
0.000472728
0.000535027
0.000415849
0.000503754
0.000422445
0.000546843
0.000563594
0.000566215
0.000561975
0.0004567
0.000537143
0.000659159
0.000692738
0.000698688
0.000665555
0.000513189
0.000794029
0.00071649
0.000874853
0.000756726
0.000828371
0.00075436
0.000879293
0.00112607
0.0011756
0.00118337
0.000960067
0.000954021
0.00174088
0.0965276
0.001566
0.00185096
0.00190871
0.00190186
0.00157256
0.00153424
0.00190027
0.00140579
0.00199075
0.00125349
0.0021231
0.000809293
0.00123023
0.00132078
0.00131791
0.00122471
0.000820695
0.00242603
0.119497
0.308297
0.334316