/*--------------------------------*- C++ -*----------------------------------*\
| =========                 |                                                 |
| \\      /  F ield         | OpenFOAM: The Open Source CFD Toolbox           |
|  \\    /   O peration     | Version:  v2012                                 |
|   \\  /    A nd           | Website:  www.openfoam.com                      |
|    \\/     M anipulation  |                                                 |
\*---------------------------------------------------------------------------*/
FoamFile
{
    version     2.0;
    format      ascii;
    class       volScalarField;
    location    "965";
    object      epsilon;
}
// * * * * * * * * * * * * * * * * * * * * * * * * * * * * * * * * * * * * * //

dimensions      [0 2 -3 0 0 0 0];


internalField   nonuniform List<scalar> 
18258
(
0.0242406
0.0123454
0.00922965
0.00727201
0.012715
0.012623
0.0130757
0.0174275
0.0242595
0.0371084
0.0536734
0.0482109
0.0435644
0.0452871
0.0474453
0.045021
0.0350629
0.0303181
0.0399808
0.0666698
0.060811
0.0497277
0.0607858
0.0514788
0.0659413
0.0834503
0.063979
0.0574725
0.0515851
0.0485634
0.0420765
0.0242491
0.034336
0.0528602
0.0724115
0.0792672
0.0850664
0.089995
0.0951724
0.097325
0.0975882
0.0923503
0.0831222
0.0678854
0.0497726
0.0381051
0.0293563
0.0318361
0.0445993
0.0450101
0.0555624
0.0853421
0.10776
0.0808358
0.0517743
0.0825333
0.1125
0.144246
0.170737
0.193155
0.200841
0.197393
0.185848
0.169109
0.147661
0.122681
0.101696
0.08478
0.0670048
0.0572086
0.0462616
0.0383528
0.0327881
0.029129
0.0269278
0.0252086
0.0240483
0.0249739
0.024858
0.0177287
0.0139446
0.0130975
0.0093689
0.00778659
0.00810169
0.00770658
0.00800378
0.00706557
0.00605388
0.00525872
0.00446156
0.00650286
0.00700069
0.00724243
0.00726197
0.00778144
0.00802052
0.0077511
0.00784343
0.00716922
0.00754118
0.0120224
0.0137556
0.0174475
0.0156326
0.0109033
0.00901064
0.0100549
0.0106658
0.0132872
0.0125528
0.0133239
0.0118155
0.010797
0.0091108
0.00883731
0.00906334
0.00963287
0.0100292
0.0116418
0.0114786
0.0106548
0.0117788
0.0129899
0.0127129
0.0121645
0.0115759
0.0142064
0.0114057
0.0120861
0.0135772
0.0218767
0.0214065
0.0259002
0.0254231
0.0258545
0.0260337
0.0314055
0.0315268
0.0319074
0.0322257
0.0339792
0.0568859
0.0506726
0.0495583
0.0493627
0.0426983
0.0422411
0.0415637
0.0423788
0.0358918
0.0345458
0.0313341
0.0309794
0.0345741
0.0436726
0.0611242
0.0883432
0.122256
0.158577
0.188853
0.209857
0.231612
0.237049
0.250971
0.255732
0.256682
0.251055
0.242681
0.233257
0.22045
0.201934
0.189139
0.148722
0.105287
0.0591621
0.0785562
0.0906179
0.100358
0.102203
0.10331
0.0991775
0.0928803
0.0816829
0.0661242
0.0429825
0.0489104
0.0662253
0.0684969
0.0692077
0.0548876
0.0527992
0.0489957
0.0489493
0.0642563
0.0738197
0.0620815
0.0859125
0.100915
0.0882168
0.0639431
0.0979587
0.144192
0.081092
0.069035
0.053544
0.052547
0.0444197
0.0372596
0.0626828
0.0937152
0.128977
0.150249
0.172109
0.189782
0.203139
0.21729
0.188865
0.171546
0.115392
0.202278
0.153552
0.0776437
0.0575266
0.05637
0.0435585
0.0499287
0.0553905
0.0513558
0.0393647
0.0274646
0.025216
0.0467627
0.0651686
0.0787837
0.0626661
0.07974
0.0900322
0.0973266
0.102724
0.130271
0.0959888
0.106734
0.0767097
0.10397
0.073959
0.0477081
0.0527261
0.100749
0.160806
0.220644
0.257874
0.146752
0.0742866
0.0552131
0.0555035
0.0533494
0.0481405
0.0597831
0.106374
0.0717993
0.0466073
0.0404841
0.0478731
0.0408786
0.0304229
0.0318834
0.0395898
0.0551727
0.0694717
0.0823282
0.125691
0.12149
0.146761
0.154211
0.129889
0.125487
0.0809466
0.0831542
0.122795
0.0914831
0.0739455
0.103879
0.14694
0.201001
0.247159
0.287423
0.313217
0.302832
0.274031
0.173335
0.0758755
0.0228519
0.0177818
0.0168353
0.0173083
0.0105161
0.00628923
0.00583873
0.00664655
0.00699892
0.00590863
0.00544139
0.00543346
0.00577396
0.0101759
0.0087462
0.010819
0.013106
0.0156499
0.018689
0.0194136
0.0128803
0.00871803
0.00818096
0.00811621
0.00804656
0.00801611
0.00802631
0.00806492
0.00807902
0.00804521
0.00796564
0.00782841
0.00769333
0.00763674
0.00827248
0.0111603
0.0153207
0.0148185
0.0135311
0.0121785
0.0110207
0.00869619
0.0151252
0.0128252
0.0109182
0.0133697
0.0164677
0.0208096
0.0244472
0.0176315
0.0141147
0.0127736
0.0126468
0.0125313
0.0125748
0.0124509
0.012514
0.0123147
0.01291
0.013554
0.0169515
0.0189794
0.0211647
0.0226702
0.0232613
0.0239832
0.0211387
0.0229601
0.022716
0.0234967
0.02331
0.0226175
0.0206964
0.0189033
0.0176802
0.0190906
0.0236468
0.0322792
0.026679
0.0207007
0.0167457
0.0136918
0.0149621
0.0166379
0.0168127
0.0158258
0.0155997
0.0153916
0.0138686
0.013075
0.0110803
0.0104709
0.0100136
0.010166
0.0143533
0.013497
0.0136912
0.0144184
0.0154986
0.0146578
0.015092
0.0142579
0.0145037
0.0149222
0.016993
0.0185467
0.0177906
0.0164814
0.0159816
0.0137117
0.0158148
0.0156758
0.0169969
0.0185799
0.0190681
0.0190032
0.0183667
0.0167674
0.018659
0.0220246
0.0256732
0.024676
0.0243595
0.020424
0.0192286
0.0202024
0.0214761
0.0223839
0.0224563
0.0222812
0.0223617
0.0263551
0.0259879
0.0247879
0.0227076
0.0202498
0.0175966
0.0151614
0.016639
0.0181227
0.0195162
0.0207875
0.0205563
0.0190251
0.0176636
0.0164301
0.014935
0.0146495
0.0161047
0.0173293
0.0187638
0.0204827
0.0205602
0.018843
0.0173449
0.0160601
0.0145844
0.0145373
0.0160394
0.01734
0.0187598
0.0202467
0.0196142
0.0184578
0.0172051
0.0159606
0.0145066
0.0145744
0.0158977
0.0169682
0.0180531
0.0190041
0.019854
0.0178938
0.0169825
0.0170719
0.0160823
0.01926
0.018505
0.0194484
0.0179989
0.0167783
0.0177848
0.0209727
0.0240018
0.0245516
0.0242714
0.020141
0.0205968
0.0205746
0.0191596
0.0159402
0.0153416
0.0181059
0.0208366
0.0212966
0.0199928
0.0168991
0.0132661
0.0142823
0.0174352
0.0197424
0.0184919
0.0183314
0.0169195
0.0158413
0.0161391
0.0138566
0.0165938
0.0266423
0.0241119
0.0220879
0.0196087
0.0156081
0.0105661
0.0114618
0.012613
0.0130287
0.0105354
0.00788874
0.00708257
0.00688891
0.00673019
0.00651087
0.00614137
0.00558266
0.00537239
0.0106945
0.0261937
0.0365753
0.0358859
0.0241609
0.0209007
0.020349
0.0192684
0.00974973
0.00824259
0.00848832
0.0104051
0.00815307
0.00884248
0.0152869
0.0103636
0.0141225
0.0108841
0.0146609
0.0230432
0.0219195
0.0146121
0.00803576
0.00686138
0.0073472
0.00763567
0.00783974
0.0080365
0.00827018
0.00865633
0.0099759
0.0156866
0.0202445
0.0177052
0.016713
0.0152471
0.0187841
0.0212698
0.0232104
0.0259683
0.0160591
0.011751
0.0165916
0.0271941
0.0246837
0.0232239
0.0171064
0.017646
0.0170784
0.0109772
0.0106333
0.0105547
0.0113677
0.0127496
0.0146753
0.0158431
0.016594
0.0169218
0.0178304
0.0231082
0.0216304
0.0211267
0.0173639
0.0133751
0.0153516
0.0514363
0.019547
0.0206577
0.0188851
0.0191572
0.0204399
0.0151577
0.0135236
0.0129439
0.0146513
0.0215171
0.0215136
0.0213685
0.0182255
0.017437
0.0208639
0.0219594
0.0223715
0.0217441
0.0212909
0.019426
0.0166509
0.0180784
0.0195929
0.0207831
0.0227908
0.0231398
0.017917
0.0171915
0.0158028
0.0105137
0.0112584
0.00969639
0.0096654
0.0096289
0.00935459
0.00890572
0.00919446
0.00931307
0.00931161
0.0089666
0.00926308
0.00831575
0.00865195
0.00974083
0.015179
0.0147498
0.0175454
0.0194541
0.0167051
0.0155487
0.0141898
0.0131702
0.0154148
0.0142536
0.0168254
0.0211652
0.0264388
0.0190815
0.0180851
0.0178584
0.0174511
0.0172916
0.0173411
0.0166521
0.0156565
0.0150938
0.0235321
0.0212421
0.0181261
0.0171798
0.0157504
0.0179954
0.0174407
0.0213267
0.0267918
0.026992
0.0214914
0.0215664
0.0189215
0.0200228
0.0222017
0.0270214
0.0269481
0.0143973
0.0095684
0.0153985
0.0157396
0.0183464
0.0169676
0.018492
0.0196677
0.0203968
0.0202577
0.0176636
0.0188378
0.0196255
0.0206124
0.0185629
0.0165592
0.0173464
0.016125
0.0152266
0.0147276
0.0126581
0.012902
0.0138703
0.0153191
0.0162592
0.0177501
0.0194013
0.0194331
0.0200996
0.019693
0.0191014
0.0251964
0.0239538
0.0254943
0.0282058
0.0224148
0.0177841
0.0146643
0.0149738
0.0147384
0.0146451
0.0153885
0.0167442
0.0151212
0.0145057
0.0170142
0.0193711
0.0246375
0.0329874
0.0287178
0.026161
0.0331832
0.0313579
0.0381919
0.0286334
0.0281142
0.0208197
0.0262612
0.030487
0.0391652
0.0254787
0.0209243
0.0223902
0.0255188
0.0347588
0.0327596
0.0331119
0.0411583
0.0399329
0.0361852
0.0311617
0.0353196
0.0212155
0.030171
0.0322009
0.0268033
0.0256806
0.0307083
0.0310453
0.0329916
0.0283624
0.026751
0.0178888
0.027411
0.031344
0.0330479
0.0277955
0.0205163
0.0279902
0.02052
0.0191573
0.0202693
0.0137448
0.0126935
0.0147662
0.0138389
0.0111696
0.012115
0.0111349
0.01112
0.0111991
0.011312
0.011442
0.0116954
0.0116592
0.0126659
0.0132949
0.0125721
0.0115183
0.0121907
0.0125782
0.0160881
0.01818
0.0204512
0.022047
0.0228888
0.0240294
0.0227204
0.0248151
0.0236734
0.0251885
0.0248867
0.0237958
0.0212363
0.0185757
0.0161884
0.0167943
0.0204903
0.0270725
0.0222291
0.017252
0.0139941
0.0116259
0.0129161
0.0161591
0.00870141
0.0078966
0.00757728
0.00738408
0.00723124
0.00637528
0.00567465
0.00749049
0.012698
0.0164083
0.0209774
0.0268274
0.0326202
0.0375927
0.0414556
0.0443614
0.0462762
0.046857
0.044237
0.0341351
0.0293535
0.0251844
0.02079
0.0168476
0.0169104
0.0246598
0.032296
0.0397711
0.0463284
0.0512085
0.0492537
0.0329337
0.0300358
0.0466664
0.0784566
0.0744907
0.0977434
0.111096
0.0629946
0.0463932
0.0451608
0.0620433
0.0647078
0.056795
0.0469242
0.0367466
0.0265677
0.0311751
0.0357044
0.0400405
0.0446517
0.0579182
0.0605434
0.0591206
0.0561644
0.0524929
0.0479187
0.0415127
0.0336648
0.025448
0.0188699
0.0138131
0.0081663
0.00724209
0.0076615
0.00705309
0.00894359
0.00853102
0.00861798
0.00827761
0.00844598
0.00821904
0.00827389
0.00729028
0.00653963
0.0102587
0.00954419
0.00947212
0.010056
0.0132504
0.0101073
0.00739826
0.0068993
0.00686891
0.00938926
0.0200083
0.0260004
0.0307649
0.0351343
0.0378075
0.0365948
0.0334814
0.0282394
0.0225796
0.0203496
0.0172561
0.0146315
0.0133238
0.0145682
0.0120059
0.00602785
0.00521155
0.00573561
0.0055888
0.00511413
0.0061547
0.00685078
0.00746779
0.0078922
0.00820142
0.00825742
0.00819006
0.00809387
0.00804392
0.00801815
0.00798405
0.00791368
0.00781318
0.00766679
0.0075272
0.00746101
0.00805179
0.0106665
0.014598
0.0143768
0.0132642
0.0121565
0.0112978
0.00958034
0.0154294
0.0131
0.0109821
0.0101534
0.0100029
0.0102932
0.0112366
0.0128575
0.0137712
0.015762
0.0158073
0.0157123
0.0160138
0.0158002
0.0132885
0.0150462
0.0176725
0.0184821
0.0190742
0.018837
0.0173015
0.0193139
0.0204602
0.0199269
0.0193302
0.0165567
0.0192647
0.0231542
0.0235862
0.0238393
0.0211772
0.0183492
0.0214989
0.0226645
0.0222806
0.0231717
0.0214102
0.0221652
0.0278822
0.0143575
0.0131307
0.0079559
0.00886256
0.00914512
0.00887147
0.00852442
0.00881918
0.00899463
0.00868098
0.00937691
0.00969806
0.00901253
0.0116739
0.0107262
0.0103059
0.00973278
0.0102071
0.0108242
0.011146
0.0124075
0.0197987
0.0202983
0.0183498
0.0208756
0.0215227
0.0180362
0.0204835
0.0213996
0.0216851
0.0220403
0.0235023
0.0220283
0.0243774
0.0236341
0.0222091
0.0214598
0.0381081
0.0251447
0.0165483
0.015209
0.0148133
0.0148519
0.0166979
0.0124596
0.0139883
0.0097956
0.00848497
0.0081114
0.00785261
0.00877273
0.012085
0.0195358
0.0255965
0.0276468
0.0265068
0.0234335
0.0183032
0.0139934
0.0135436
0.0121511
0.011254
0.01105
0.00742141
0.00517504
0.00651873
0.00660432
0.00718854
0.00759942
0.00793236
0.00818036
0.00831206
0.00837323
0.00844139
0.00854676
0.0086628
0.00876214
0.00883897
0.00889277
0.00895034
0.00906396
0.00936204
0.01055
0.0151991
0.0196161
0.0185344
0.0170769
0.0157672
0.0165235
0.0172782
0.0180316
0.0222289
0.01909
0.0219882
0.0206104
0.0196171
0.0182183
0.0189473
0.0207343
0.016473
0.0163877
0.0111496
0.00973347
0.00936328
0.00915629
0.0089963
0.00884077
0.00869864
0.00857103
0.00844987
0.00834475
0.00826342
0.00818701
0.00805339
0.00781806
0.00743251
0.00700762
0.00619894
0.00686022
0.007389
0.00831223
0.00950732
0.0101778
0.00963564
0.00881432
0.00837855
0.00842993
0.00858564
0.00876739
0.00897766
0.00927057
0.00973483
0.0106975
0.0113779
0.016034
0.0167548
0.0201126
0.0199318
0.0178425
0.0171945
0.0188123
0.0173666
0.0126791
0.0173786
0.0168738
0.0210691
0.0155951
0.0146918
0.0150673
0.0155352
0.0182553
0.0171558
0.0156919
0.0156801
0.0126264
0.0141694
0.0161744
0.0176879
0.0279109
0.0273183
0.034446
0.0344187
0.0594561
0.0565187
0.0497791
0.0539523
0.0237489
0.0464443
0.0543538
0.0494979
0.0429159
0.0273127
0.0437146
0.0666523
0.0965058
0.069501
0.0568106
0.105726
0.0767479
0.037369
0.0266003
0.0150228
0.0151215
0.0250848
0.0291404
0.0241324
0.0232699
0.0334802
0.0348527
0.0280352
0.0287394
0.031126
0.0300706
0.0325208
0.0281227
0.0274653
0.0155297
0.0127386
0.0137561
0.0154705
0.016466
0.0159552
0.0167953
0.0174706
0.0160463
0.0150337
0.0144887
0.012436
0.01319
0.0161643
0.0203698
0.0238675
0.0172279
0.0138372
0.0125383
0.012345
0.0121205
0.0120042
0.0116875
0.0115053
0.0110403
0.0112503
0.00978733
0.00979929
0.0103324
0.0104922
0.0106927
0.0108469
0.0109661
0.0110762
0.0119492
0.0187125
0.0259009
0.0207277
0.016434
0.0139658
0.0151468
0.0170569
0.02094
0.0263432
0.0177869
0.017604
0.0114704
0.010686
0.0104797
0.0103113
0.0101611
0.0100656
0.0101276
0.0101331
0.0118617
0.0115118
0.0134896
0.0145741
0.0120412
0.0116118
0.011143
0.010859
0.0107036
0.0106211
0.010712
0.011573
0.0114043
0.0104761
0.0103812
0.0105008
0.0107149
0.0110402
0.0114921
0.012004
0.0129244
0.0126907
0.0111648
0.0111712
0.0105164
0.0102073
0.00997749
0.00995459
0.0100066
0.0101474
0.0103686
0.0112791
0.0170614
0.0172431
0.026548
0.0265368
0.0210998
0.0176444
0.0155016
0.0142546
0.0135272
0.0350737
0.0308197
0.0488562
0.0389301
0.0311531
0.0505554
0.0719576
0.0558879
0.0910877
0.0984157
0.0725044
0.0657554
0.0208764
0.0159123
0.0154182
0.0168996
0.0185804
0.0211993
0.0217904
0.0265838
0.0286792
0.0171159
0.0164389
0.0155088
0.0248089
0.0229951
0.0196286
0.0177557
0.0163786
0.0189199
0.020702
0.0149076
0.0149501
0.00962783
0.010623
0.0103767
0.0100366
0.00991666
0.00983821
0.00986751
0.00996347
0.0102439
0.0107408
0.0111245
0.0112829
0.0116258
0.0114169
0.0111358
0.0108016
0.0106013
0.0104038
0.0102438
0.0101213
0.0101539
0.0104702
0.0106167
0.00931623
0.00966029
0.0097701
0.00978628
0.00982489
0.00979955
0.00967569
0.00948486
0.00930449
0.0091087
0.00915186
0.00989907
0.010019
0.0100633
0.00990322
0.00979026
0.00978642
0.00973506
0.00973232
0.00972942
0.00960929
0.00929374
0.00857298
0.0084285
0.00903051
0.00937617
0.00955349
0.0096317
0.00959936
0.00952691
0.00929119
0.00911871
0.00892347
0.00860508
0.00819021
0.00685479
0.00712055
0.00746648
0.00794602
0.00844115
0.00887465
0.00916308
0.00931081
0.00939209
0.00930479
0.00901194
0.00848657
0.008434
0.0088256
0.00901032
0.00897819
0.00872907
0.00833654
0.00778818
0.00710171
0.00643278
0.00591594
0.00566363
0.00526418
0.00658238
0.00714282
0.00766427
0.0081502
0.00862043
0.00913495
0.00935818
0.00944049
0.00942357
0.00927029
0.00893937
0.00841224
0.00842203
0.00889885
0.00921001
0.00933422
0.00931956
0.00910822
0.00868231
0.00778569
0.00699446
0.0063596
0.00579552
0.00522565
0.00509234
0.00534453
0.00513231
0.00535601
0.00594434
0.00674785
0.0075202
0.00811049
0.0085223
0.00869401
0.00863507
0.00837961
0.0082852
0.00841516
0.00836828
0.00807545
0.00751975
0.0067822
0.00597973
0.00533894
0.00514176
0.00546013
0.0057975
0.00548846
0.0043906
0.00492969
0.0054649
0.00604097
0.00693703
0.00809957
0.00870943
0.00903738
0.00920548
0.00914639
0.00885877
0.00841846
0.00840248
0.00882565
0.00910335
0.00914219
0.00899661
0.0086778
0.00815666
0.00674197
0.00532332
0.00471952
0.00438844
0.00394711
0.00556317
0.00592593
0.00549919
0.00522606
0.0056674
0.00622327
0.00686453
0.00738624
0.00781043
0.00810709
0.00820011
0.0081606
0.00803176
0.00804359
0.00799579
0.00779382
0.00754066
0.00731546
0.00686244
0.00640526
0.00588564
0.00644234
0.00674053
0.00631246
0.00465368
0.0049388
0.00534105
0.00557799
0.00696667
0.00839364
0.00883908
0.00902982
0.00918926
0.00913514
0.00882469
0.0083843
0.00837133
0.00889053
0.00927838
0.00939074
0.00945205
0.00947877
0.00951895
0.00836118
0.00656769
0.00618284
0.00525544
0.00480959
0.00662981
0.00706181
0.00685827
0.00658835
0.00751203
0.00790492
0.00806212
0.0080922
0.0081156
0.00809092
0.00799544
0.00791842
0.00780616
0.00825403
0.0088938
0.00879351
0.00868713
0.00851524
0.00814561
0.00769672
0.00720012
0.00787305
0.00843973
0.00816518
0.00595114
0.00631962
0.00714049
0.00724517
0.00866976
0.00986033
0.0102284
0.0102889
0.0102353
0.0102467
0.009258
0.00833885
0.00819349
0.00954121
0.015483
0.0153348
0.015389
0.0153378
0.0147625
0.0145975
0.0140304
0.0137799
0.0130795
0.0126379
0.0119479
0.0140005
0.0177476
0.019837
0.0222181
0.0247256
0.0234219
0.0189296
0.0167098
0.0101717
0.00802752
0.0069305
0.00599588
0.00529325
0.00508895
0.00753897
0.00940387
0.0116008
0.0135989
0.0139081
0.0163558
0.0203258
0.0309444
0.0491848
0.0415585
0.03926
0.0401393
0.100881
2.55773
2.77459
2.51417
2.92145
3.34768
0.405193
0.155676
0.2907
0.312712
0.351422
0.329646
0.29675
0.269621
0.27586
0.264484
0.273108
0.253909
0.260733
0.227328
0.23146
0.230098
0.630045
1.00571
1.22113
1.7104
1.72333
1.94417
1.90206
1.92448
1.78007
1.89667
1.64864
1.3673
1.291
1.21812
1.30741
1.42089
1.23374
1.11906
1.00553
0.915712
0.783757
0.994553
0.754961
0.713574
0.712104
0.743775
0.990387
0.900761
1.03824
0.973611
1.03037
0.632572
0.712965
0.526597
0.439708
0.364199
0.443734
0.598573
0.792724
0.974406
0.736869
0.99116
0.906219
0.885287
0.843949
0.770385
0.731828
0.719887
0.741055
0.753582
0.768634
0.795833
0.816517
0.834071
0.984019
1.04684
1.03595
0.849266
0.760866
0.526905
0.564236
0.598945
0.602924
0.563019
0.543882
0.491202
0.47856
0.433156
0.414828
0.37613
0.357601
0.325559
0.450177
0.771244
0.800932
0.869843
0.923622
0.972436
0.994299
1.00984
0.992327
0.958574
0.890848
0.862405
0.800809
0.906303
1.08938
1.09014
1.00365
0.852405
0.808163
3.74612
4.55205
3.01622
6.48999
9.82873
16.4604
7.57254
2.07314
3.46025
2.37802
2.11191
2.05901
2.17311
3.42326
2.50357
3.28345
2.71204
2.89691
2.23612
2.60808
2.51944
1.94192
1.64123
1.39301
1.30312
1.0542
1.06358
0.858982
0.800766
0.714373
0.583311
0.701962
0.681053
1.57172
2.23754
2.79753
4.39737
4.83403
5.28519
8.3606
6.79888
8.54209
5.09061
5.13075
3.79494
3.57112
3.60998
4.96487
7.07817
4.88106
8.51172
4.75207
15.4671
34.5831
9.20886
19.0042
10.9718
9.92965
9.57696
9.87217
14.0272
9.54427
15.5509
12.9962
17.3137
16.6854
18.0398
14.2067
10.5283
11.6242
12.5496
16.0912
11.536
13.5425
10.3167
10.0975
9.28916
7.63389
6.66202
5.05745
5.88161
6.92344
7.86065
12.4053
15.6129
17.977
21.6775
16.053
18.3298
11.042
12.0895
9.34629
8.76605
8.89342
11.6999
20.8006
14.7508
26.8921
0.495746
0.225728
0.543442
0.229315
0.487228
0.390558
0.40319
0.404183
0.399776
0.461396
0.220069
0.185059
0.177331
0.175181
0.176679
0.100187
0.124359
0.0803768
0.126849
0.228882
0.502067
0.364548
0.14034
0.0825601
0.0545738
0.0429324
0.0634377
0.061237
0.0979315
0.0992888
0.10559
0.132045
0.227635
0.432375
31.6564
7.1154
1.12264
0.524462
0.281777
0.172432
0.1467
0.165508
0.177654
0.179952
0.168572
0.142849
0.102315
0.067705
0.0453201
0.0379455
0.0276735
0.0287436
0.0395857
0.0531277
0.0491058
0.0647476
0.0831354
0.105871
0.130028
0.149264
0.163742
0.167755
0.155802
0.121947
0.0802197
0.0442506
0.0265021
0.0228742
0.0209537
0.019462
0.0168222
0.0146313
0.0132007
0.0112779
0.00993779
0.0089617
0.00864136
0.00876136
0.00955777
0.0120892
0.0145479
0.0188345
0.0179518
0.0134413
0.0126126
0.00781324
0.00722461
0.00737272
0.00762384
0.0084564
0.0132351
0.0135429
0.0134201
0.0134456
0.013261
0.0132364
0.0130634
0.0128825
0.012661
0.0122319
0.0119427
0.0114251
0.0111486
0.0105061
0.0105335
0.0109174
0.0112253
0.0101673
0.0100695
0.00936097
0.0200453
0.0481042
0.06973
0.0782092
0.0880297
0.0808082
0.0416495
0.0227555
0.00785772
0.00772874
0.00821931
0.00887025
0.00842279
0.00616394
0.00669711
0.00784458
0.0109615
0.0108103
0.0108383
0.0125549
0.0130527
0.014416
0.014949
0.0153762
0.0156083
0.0156305
0.0157799
0.0155839
0.0157004
0.0155523
0.0156546
0.0152675
0.027113
0.0255014
0.0261428
0.0261146
0.0271564
0.0266103
0.0260475
0.0250699
0.0243057
0.0228166
0.0212264
0.0197395
0.0177527
0.0185253
0.0179214
0.0112166
0.0106672
0.00771225
0.00772194
0.00742846
0.0103052
0.00937506
0.00788152
0.00928222
0.00678325
0.00696319
0.00728686
0.0103627
0.0108831
0.0172748
0.0172028
0.0152025
0.0161156
0.0170987
0.0183615
0.0195107
0.0209022
0.0219335
0.023019
0.0248536
0.0253131
0.0237336
0.023464
0.0224397
0.0243936
0.023402
0.0216378
0.0231138
0.0246665
0.0270194
0.0266473
0.024548
0.0232415
0.0218221
0.0195543
0.0169689
0.0156616
0.0147138
0.0147739
0.0138018
0.0161872
0.0146897
0.0101665
0.0103877
0.0078152
0.00630046
0.00605302
0.00920494
0.0130414
0.0278926
0.0173707
0.00927463
0.0100873
0.0161582
0.0332254
0.01905
0.0308524
0.0140138
0.0138402
0.012597
0.0124787
0.0137521
0.0160071
0.016992
0.0205626
0.0231746
0.0251348
0.0260167
0.0273483
0.0277279
0.0291253
0.0295564
0.0321701
0.0324283
0.0325399
0.0320956
0.0298924
0.0268864
0.0248248
0.0306338
0.0354527
0.0385202
0.04088
0.043213
0.0419416
0.0383639
0.0375182
0.0356322
0.034547
0.0331506
0.0301126
0.0263388
0.02161
0.0210924
0.0270276
0.0326941
0.0488808
0.0525736
0.0523152
0.0546261
0.0551006
0.0568133
0.0572253
0.0598345
0.0603884
0.0615179
0.061842
0.0668929
0.0677592
0.0687671
0.0690764
0.0688718
0.0698948
0.0699381
0.0475018
0.0426118
0.0387746
0.0322269
0.0270636
0.0342827
0.0426365
0.0476812
0.0728085
0.0733273
0.0770213
0.079617
0.0845302
0.0882023
0.0930896
0.0975974
0.10204
0.105529
0.107658
0.108113
0.108656
0.107843
0.106613
0.11549
0.150031
0.16657
0.1971
0.212143
0.225018
0.22937
0.220415
0.224028
0.215741
0.218201
0.211671
0.209474
0.203936
0.197327
0.193556
0.186949
0.18276
0.210752
0.158938
0.121874
0.0813488
0.0654764
0.0575148
0.052768
0.0567498
0.0436654
0.0369413
0.0563029
0.0513698
0.0406489
0.0268489
0.0186973
0.0319453
0.0473589
0.0641303
0.0813593
0.0971097
0.107396
0.109949
0.108824
0.104125
0.0963473
0.0812672
0.0612892
0.0422151
0.0348675
0.0321884
0.0282122
0.0222521
0.0178832
0.0157597
0.0141686
0.0123965
0.0111411
0.0105827
0.0107278
0.0110355
0.0132325
0.0173122
0.0173055
0.011599
0.0111639
0.00767959
0.00776608
0.0080219
0.0133469
0.0134911
0.0209234
0.0233681
0.0220064
0.0226896
0.0224189
0.022705
0.0223394
0.0211423
0.020303
0.0193319
0.0184945
0.0177614
0.0169511
0.0161714
0.0174907
0.0164569
0.0138741
0.0139767
0.0145767
0.0152111
0.0160902
0.0173476
0.0184236
0.0211188
0.021299
0.0208036
0.0209007
0.0194397
0.0187269
0.0199861
0.0195148
0.0132923
0.0131188
0.0191538
0.0187997
0.0186825
0.0224891
0.0209039
0.021426
0.0225541
0.0224361
0.0194983
0.0181412
0.0165939
0.0154227
0.0140592
0.0125593
0.012198
0.014953
0.0132142
0.0108318
0.0120034
0.0144139
0.017025
0.0184781
0.0204579
0.0231686
0.0241278
0.0263599
0.0277749
0.0298652
0.0307011
0.0355084
0.0361758
0.0340407
0.0321939
0.0311926
0.0274244
0.0234976
0.0259147
0.026784
0.0271598
0.0272606
0.0271351
0.0235574
0.0231264
0.021613
0.0210981
0.0195298
0.0189758
0.0178212
0.0170671
0.0160537
0.014228
0.0134637
0.0126559
0.0123068
0.017373
0.0108475
0.0106107
0.0160133
0.00987225
0.0116202
0.0113644
0.0118745
0.0125158
0.0103718
0.0151767
0.0103582
0.0112402
0.0114452
0.0143059
0.00986455
0.0194601
0.0616822
0.0916286
0.110427
0.20092
0.241384
0.26188
0.282633
0.297036
0.31302
0.330659
0.348351
0.36147
0.362987
0.337534
0.319159
0.25453
0.22794
0.25171
0.281847
0.194533
0.166948
0.169263
0.170147
0.172774
0.174067
0.177773
0.175771
0.180916
0.176582
0.183939
0.177953
0.184504
0.177016
0.161595
0.144947
0.112318
0.101525
0.0654738
0.0507071
0.0396832
0.028803
0.0209902
0.0188368
0.0178284
0.0164727
0.0165566
0.0126892
0.0131055
0.00839414
0.00615722
0.00986031
0.00970905
0.0072113
0.00983887
0.0112392
0.0117542
0.0122914
0.0125825
0.0192458
0.0192794
0.0246895
0.024582
0.0291492
0.0347524
0.0360008
0.039654
0.0570121
0.0575192
0.057264
0.0570761
0.0566462
0.0494288
0.0491476
0.0480444
0.0474596
0.0445237
0.0439726
0.0419002
0.0407695
0.0378296
0.0370109
0.0358808
0.0362959
0.0399567
0.0543052
0.0958904
0.0289673
0.027412
0.0201948
0.0144959
0.0211884
0.0159011
0.015394
0.0135978
0.0187055
0.0134476
0.0137058
0.0165121
0.0170204
0.0163929
0.0212599
0.026544
0.0233182
0.0256281
0.114183
0.0716944
0.0236181
0.046707
0.0705405
0.155953
0.20287
0.138516
0.158336
0.182498
0.165601
0.13897
0.108103
0.0807283
0.0568269
0.0433883
0.0114326
0.0133318
0.0183911
0.0399149
0.0593787
0.101106
0.0828966
0.108421
0.148202
0.172571
0.208481
0.19986
0.171828
0.147881
0.144989
0.160607
0.161596
0.103699
0.100688
0.0770373
0.173192
0.218646
0.183767
0.230543
0.242756
0.140844
0.0314294
0.0183667
0.0151201
0.0139167
0.0124406
0.0194107
0.0114504
0.0116451
0.0123534
0.0132786
0.0169441
0.0293689
0.0134311
0.0149156
0.0183387
0.0158978
0.0149421
0.0146353
0.0145518
0.0151823
0.0165514
0.0215782
0.0216457
0.0212909
0.0159838
0.0172711
0.0156879
0.0199872
0.0211968
0.0333375
0.0152496
0.016191
0.0214805
0.477671
0.0246128
0.0178133
0.0231866
0.0218599
0.0300973
0.0439255
0.456474
0.043858
0.0350507
0.0585938
0.0609018
0.0655728
0.0692379
0.0727416
0.0752555
0.0791941
0.0818468
0.0830772
0.0843064
0.0999852
0.0999824
0.098909
0.10351
0.0976463
0.0576838
0.0579007
0.097465
0.105204
0.0594429
0.0410392
0.0385212
0.0312254
0.0323572
0.0418929
0.0439708
0.061671
0.0615013
0.102588
0.0935473
0.0949525
0.0966948
0.0916831
0.0921465
0.0942262
0.0942027
0.0754201
0.0731127
0.0713508
0.0683059
0.0647725
0.0618719
0.0589496
0.0558283
0.0531187
0.0530602
0.05755
0.0582717
0.0657301
0.0720124
0.216827
0.147144
0.105364
0.0785923
0.0644177
0.0586539
0.0584101
0.0616663
0.0649153
0.0665679
0.0673728
0.0707354
0.0924923
0.0949058
0.0977735
0.0951962
0.0990259
0.0970871
0.0946161
0.104525
0.112351
0.0656556
0.0677322
0.047806
0.044606
0.0325576
0.0331226
0.023647
0.0196091
0.0195909
0.0195699
0.0197991
0.0226904
0.0317064
0.0318046
0.0464617
0.0463566
0.0517771
0.075392
0.0724466
0.129221
0.118438
0.108759
0.101425
0.10181
0.103936
0.106545
0.101536
0.0978202
0.0922709
0.0724775
0.0684734
0.0663319
0.065061
0.0636944
0.0668826
0.0894973
0.144187
0.22042
0.324368
0.424508
0.436417
0.395835
0.245443
0.286408
0.141898
0.162843
0.18439
0.159007
0.167906
0.317067
0.263581
0.372507
0.477922
0.53152
0.597644
0.634021
0.62106
0.49175
0.31876
0.326132
0.434782
0.763591
0.856786
0.741573
0.759841
0.656565
0.539099
0.520907
0.49647
0.560393
0.611601
0.577179
0.594549
0.538875
0.514712
0.444823
0.496373
0.362699
0.32672
0.307153
0.298339
0.35752
0.289335
0.325888
0.267847
0.274094
0.222762
0.228315
0.1906
0.145922
0.138343
0.128253
0.143589
0.162772
0.149112
0.15352
0.134042
0.114574
0.0912412
0.098496
0.0735595
0.0695072
0.0704043
0.0798613
0.124596
0.365099
0.172488
0.163232
0.1676
0.177919
0.31936
0.282838
0.724328
0.507742
0.710307
0.474665
0.563389
0.471453
0.363646
0.379138
0.418973
0.599417
0.822931
6.65371
0.284774
4.26387
3.16552
3.32413
3.46984
4.44837
7.81038
7.11119
9.39427
6.80676
9.08119
4.97531
4.97528
4.32585
4.47102
4.43818
4.2603
5.18047
6.60674
0.238026
0.0909132
0.0854191
0.085609
0.0873844
0.197735
0.0525583
0.201994
0.0539585
0.213447
0.0495132
0.246659
0.196894
0.038235
0.0192575
0.0200892
0.0168071
0.0203747
0.0169227
0.0250466
0.0235416
0.023697
0.0265721
0.0760676
0.29122
13.7275
1.63698
0.68095
0.780253
1.16917
0.793458
1.19143
1.65679
1.11282
0.55401
0.362056
0.427161
0.516377
0.493274
0.630815
0.90949
0.890218
0.699657
0.703912
0.61927
0.876026
0.88496
1.05081
1.22847
1.12544
0.879691
0.692185
0.583997
1.01061
1.01793
0.951635
0.400436
0.112118
0.0463547
0.0483583
0.0354556
0.0374048
0.0346971
0.0538966
0.157161
0.217094
0.13014
0.42477
0.410797
0.561812
0.401023
0.411252
0.324074
0.34866
0.531106
0.58041
0.640091
0.671574
0.721683
0.664669
1.27749
2.18512
2.47033
12.7974
17.3781
3.18272
3.08484
13.9278
0.314594
0.083777
0.0233007
0.0174276
0.0162161
0.0161296
0.0150008
0.0155383
0.0159998
0.0169637
0.0188292
0.0231962
0.0458336
0.201482
0.203448
0.0643458
0.0324311
0.0229711
0.0196166
0.0170467
0.0163872
0.0155317
0.0154593
0.0150079
0.015657
0.0174619
0.0237731
0.0773853
0.270965
11.3264
2.43151
2.25003
8.37418
5.78817
0.206654
0.0437806
0.0200928
0.0169265
0.0158838
0.016754
0.0162658
0.0182113
0.0184025
0.0230165
0.0250223
0.0317679
0.0570824
0.11019
0.315579
9.58649
8.6582
8.38132
7.81626
0.310218
0.115215
0.054399
0.0382331
0.0346252
0.0338186
0.0226492
0.0236734
0.0189824
0.0216412
0.0182955
0.0226827
0.0482992
0.211818
5.34615
1.56699
1.69738
1.20781
0.610964
0.653196
0.666775
0.686301
1.7676
4.04019
4.97243
3.4156
3.35188
4.69402
3.16203
2.47451
1.82297
1.74216
2.53905
1.95855
1.82147
1.35255
1.46193
1.06515
1.46451
0.809163
0.974895
1.07058
1.52813
1.395
1.40809
0.906575
1.04822
1.47223
1.72266
1.64762
0.842089
1.22528
1.01176
0.653195
0.60483
0.630952
0.600732
0.575379
0.572671
0.577115
0.556304
0.573683
0.554158
0.586263
0.546244
0.53127
0.505448
0.524911
0.542287
0.574584
0.358727
0.420978
0.425423
0.439738
0.452152
0.373187
0.449194
0.439786
0.656588
0.991877
0.828512
1.1413
0.67482
1.00002
2.00318
5.20585
2.32784
0.814451
1.34399
1.5816
1.1368
0.626295
2.54956
3.55809
1.22848
1.78313
10.3891
8.43486
16.5263
10.9522
18.5946
6.01576
4.62497
17.7867
6.65684
6.88735
4.49909
4.50893
2.9501
1.57867
1.62113
1.7324
1.22112
1.29338
1.20417
1.13016
1.46851
1.4325
1.87637
2.02591
2.56609
1.80495
1.76686
2.584
1.05883
1.39246
1.82866
1.81975
1.35294
2.32885
3.14236
2.94818
2.12332
2.32557
3.49136
4.80114
4.55256
3.14996
3.94148
10.1058
13.4862
13.6649
4.20987
19.332
18.2939
2.06154
0.558635
0.318488
0.0878283
0.0442189
0.0366403
0.0387126
0.143315
0.0458095
0.0569697
0.0453748
0.0721128
0.0693937
0.0866634
0.215783
0.125526
0.213506
0.153876
0.186733
0.119143
0.190598
0.223457
0.232987
0.185293
0.113678
0.209758
0.30238
0.104117
0.349322
0.384068
0.255774
0.327286
0.390013
0.193069
0.987569
0.183741
0.125308
0.144096
0.387111
1.24545
0.214807
0.456343
4.45446
14.7034
3.65783
0.928341
0.672207
0.0553196
0.0300417
0.0314832
0.0277888
0.0194193
0.0828473
0.0973199
0.400876
0.206183
0.277168
0.66025
2.92961
2.39616
1.11614
5.46852
10.2745
15.1528
9.12759
2.21714
9.75121
19.6129