/*--------------------------------*- C++ -*----------------------------------*\
| =========                 |                                                 |
| \\      /  F ield         | OpenFOAM: The Open Source CFD Toolbox           |
|  \\    /   O peration     | Version:  v2012                                 |
|   \\  /    A nd           | Website:  www.openfoam.com                      |
|    \\/     M anipulation  |                                                 |
\*---------------------------------------------------------------------------*/
FoamFile
{
    version     2.0;
    format      ascii;
    class       volVectorField;
    location    "965";
    object      U;
}
// * * * * * * * * * * * * * * * * * * * * * * * * * * * * * * * * * * * * * //

dimensions      [0 1 -1 0 0 0 0];


internalField   nonuniform List<vector> 
18258
(
(-0.175967 0.114042 0.138682)
(-0.0515158 0.244918 0.158839)
(-0.104656 0.212341 0.0962995)
(-0.0404352 0.0686832 0.0846002)
(-0.226175 0.200738 0.0192213)
(-0.159598 0.358627 0.0174926)
(-0.223151 0.0442672 0.0544698)
(-0.341553 -0.0536355 0.0756105)
(-0.448838 -0.106041 0.108341)
(-0.535839 -0.159771 0.145837)
(-0.621556 -0.217251 0.179993)
(-0.687838 -0.271623 0.30966)
(-0.678673 -0.33433 0.357335)
(-0.622273 -0.445545 0.385909)
(-0.488002 -0.543054 0.36943)
(-0.204993 -0.5875 0.340397)
(0.0740809 -0.374323 0.288784)
(0.078015 -0.163933 0.298373)
(-0.128331 -0.0786065 0.236905)
(-0.400776 -0.273526 0.117039)
(-0.139405 -0.52657 0.293099)
(-0.199163 -0.365867 0.407218)
(-0.304487 -0.737906 0.301649)
(-0.365459 -0.779571 0.262576)
(-0.136677 -0.708079 0.132317)
(0.00346432 -0.645335 0.182976)
(-0.0178221 -0.340475 0.42294)
(0.173824 -0.113127 0.805392)
(0.298796 -0.0953114 0.89324)
(0.316365 0.0577009 0.913792)
(0.317586 0.184974 0.815461)
(0.167038 0.301844 0.102413)
(0.077216 0.132543 -0.430516)
(0.0109732 0.0807371 -0.722826)
(-0.0674992 0.0777769 -0.897672)
(-0.0576464 0.07383 -1.08008)
(-0.0707383 0.0729828 -1.21979)
(-0.0990153 0.0909957 -1.31382)
(-0.140596 0.0822291 -1.36136)
(-0.188249 0.0886497 -1.34729)
(-0.237834 0.075006 -1.26318)
(-0.284351 0.0842403 -1.10939)
(-0.32313 0.0786711 -0.898533)
(-0.354017 0.0797301 -0.644075)
(-0.363789 0.0824131 -0.35127)
(-0.346846 0.0775243 -0.15361)
(-0.156527 0.178026 -0.195215)
(0.362541 -0.099349 -0.136663)
(0.628757 -0.130354 -0.157105)
(0.675027 -0.112817 -0.166748)
(0.786888 -0.135934 -0.175992)
(0.814312 -0.132879 -0.193515)
(0.507907 -0.00409747 -0.257358)
(0.25997 -0.137908 -0.217994)
(0.113496 -0.0418422 -0.158631)
(0.282619 -0.00963352 -0.169047)
(0.537798 -0.00253016 -0.17371)
(0.792148 -0.0301648 -0.178011)
(1.09259 -0.0348708 -0.175838)
(1.42831 -0.0490278 -0.185294)
(1.76287 -0.0647524 -0.18366)
(2.04695 -0.0812989 -0.166728)
(2.2475 -0.0929511 -0.138241)
(2.34748 -0.0990299 -0.102572)
(2.3539 -0.0963121 -0.0679335)
(2.29325 -0.0886004 -0.0412621)
(2.19946 -0.0820849 -0.024677)
(2.10686 -0.075973 -0.0179907)
(2.03736 -0.0671843 -0.0190572)
(1.9917 -0.0643446 -0.0237675)
(1.96739 -0.0592146 -0.0262405)
(1.95688 -0.0503305 -0.0207418)
(1.94266 -0.0398476 -0.00376929)
(1.89926 -0.0250507 0.02378)
(1.81177 -0.00802661 0.0533519)
(1.69097 0.00932479 0.0766136)
(1.57023 0.0215019 0.0794532)
(1.47755 0.0304558 0.0748185)
(1.3995 0.0374798 0.07017)
(1.33741 0.0501496 0.0628108)
(1.28663 0.056803 0.0645428)
(1.19301 0.043967 0.0779861)
(1.09587 0.0186724 0.109411)
(1.01288 0.000374755 0.126813)
(0.905572 -0.0212291 0.119672)
(0.761618 0.0165175 0.145032)
(0.640897 0.0815681 0.132626)
(0.517261 0.100537 0.13341)
(0.380285 0.117934 0.117783)
(0.22397 0.126816 0.0956463)
(0.119865 0.189916 0.0912391)
(0.121589 0.0108606 0.196815)
(0.164 -0.100737 0.142692)
(0.112937 -0.1298 0.0382521)
(0.104346 -0.115081 -0.14402)
(0.216262 -0.210234 -0.373379)
(0.262416 -0.231546 -0.558731)
(0.203918 -0.138168 -0.730916)
(0.1053 -0.0798784 -0.713221)
(0.036218 0.0597085 -0.488032)
(-0.0935701 0.233348 -0.147343)
(-0.217353 0.192705 0.181755)
(-0.234446 0.0645122 0.156536)
(-0.340328 0.0144239 0.17108)
(-0.274389 0.136709 0.180256)
(-0.248652 0.285305 -0.0412305)
(-0.106677 0.16486 -0.401426)
(0.0626902 0.0054703 -0.583769)
(0.332526 -0.0934895 -0.633474)
(0.49487 -0.229571 -0.492155)
(0.351149 -0.210917 -0.282759)
(0.27149 -0.192207 -0.102673)
(0.282708 -0.186867 0.037835)
(0.280437 -0.140118 0.159093)
(0.224819 -0.0989238 0.190813)
(0.395953 -0.0813928 0.179823)
(0.534983 -0.0633807 0.175375)
(0.587441 -0.0521538 0.163554)
(0.699307 -0.0788434 0.159603)
(0.731716 -0.133846 0.131093)
(0.600332 -0.134358 0.133892)
(0.453995 -0.15186 0.138421)
(0.461072 -0.186082 0.0336572)
(0.610287 -0.162965 0.0496069)
(0.735598 -0.162145 0.0470867)
(0.904004 -0.141828 0.0795022)
(1.08761 -0.109938 0.10909)
(1.18897 -0.077783 0.146693)
(1.20793 -0.0108062 0.138665)
(1.2451 -0.00919591 0.119312)
(1.33519 -0.00706826 0.138803)
(1.3771 -0.00185143 0.128857)
(1.36875 -0.0125984 0.157497)
(1.3282 -0.0482289 0.192469)
(1.32255 -0.0511508 0.189376)
(1.28545 -0.0620374 0.150348)
(1.27872 -0.0601994 0.133438)
(1.25764 -0.0477218 0.107049)
(1.24909 -0.0457168 0.109107)
(1.20118 0.00477094 0.107857)
(1.19416 0.0283009 0.136631)
(1.07635 0.137672 0.270663)
(1.22598 0.0532609 0.253353)
(1.21756 0.0203997 0.157543)
(1.26614 -0.0207438 0.126946)
(1.27832 -0.0249268 0.11768)
(1.28887 -0.0381864 0.142608)
(1.30776 -0.0415043 0.181933)
(1.35028 -0.0367222 0.215965)
(1.38608 -0.036718 0.220917)
(1.42295 -0.0128484 0.182251)
(1.43626 -0.00203282 0.137201)
(1.51244 -0.00662657 0.150316)
(1.61043 -0.016802 0.158435)
(1.74961 -0.031698 0.142857)
(1.88162 -0.0542638 0.0483418)
(1.96292 -0.0757136 -0.0717953)
(1.98217 -0.0905485 -0.16481)
(1.96461 -0.0965427 -0.200993)
(1.94817 -0.0968583 -0.194881)
(1.95825 -0.0912233 -0.175035)
(2.00522 -0.0826772 -0.144538)
(2.08672 -0.0701951 -0.107851)
(2.19799 -0.0599201 -0.0838797)
(2.31244 -0.0595844 -0.112634)
(2.38972 -0.0606936 -0.172942)
(2.39271 -0.0583395 -0.276881)
(2.28703 -0.0501456 -0.392221)
(2.07167 -0.0425466 -0.483706)
(1.77131 -0.0367789 -0.540237)
(1.42748 -0.0316348 -0.549075)
(1.08143 -0.0193479 -0.527912)
(0.792879 -0.0243608 -0.459516)
(0.537163 -0.015709 -0.415538)
(0.283214 -0.0212196 -0.386833)
(0.109246 -0.0398764 -0.360608)
(0.102399 -0.0417438 -0.637098)
(0.0775177 -0.0370295 -0.873172)
(0.0508082 -0.0390744 -1.05775)
(0.0118642 -0.0403873 -1.17648)
(-0.0232983 -0.028077 -1.21629)
(-0.059981 -0.0155706 -1.16868)
(-0.0937603 0.0035531 -1.03956)
(-0.119185 0.0275831 -0.821708)
(-0.120984 0.0847601 -0.560055)
(-0.146742 0.132545 -0.0348795)
(-0.193851 0.0249097 0.572893)
(-0.209856 -0.0343074 0.759149)
(-0.228146 -0.00309789 0.927543)
(-0.233327 -0.0462366 1.06954)
(-0.318938 -0.105881 1.13295)
(-0.371985 -0.113152 1.14558)
(-0.370593 -0.234593 1.00525)
(-0.29937 -0.253459 0.771192)
(-0.460656 -0.669735 0.687347)
(-0.485725 -0.54749 0.705316)
(-0.413925 -0.414855 0.832986)
(-0.549232 -0.768513 0.859372)
(-0.683463 -0.833755 0.607169)
(-0.474177 -0.756474 0.800205)
(-0.435435 -0.575916 0.743085)
(-0.783223 -0.526166 0.750959)
(-0.902219 -0.409312 0.861238)
(-0.5305 -0.707665 0.825933)
(-0.439909 -0.577517 0.666915)
(-0.320553 -0.319916 0.406746)
(-0.299681 -0.182297 0.400563)
(-0.283257 -0.146182 0.354483)
(-0.234763 0.110505 0.114907)
(-0.162244 0.298134 -0.418034)
(-0.152016 0.189947 -0.639015)
(-0.132289 0.0290064 -0.914045)
(-0.087167 -0.0569071 -1.08627)
(-0.028855 -0.0694833 -1.23416)
(0.038298 -0.102082 -1.26899)
(0.0980635 -0.0987862 -1.23398)
(0.172702 -0.109433 -1.12003)
(0.216727 -0.123596 -0.920057)
(0.261088 -0.146766 -0.705558)
(0.249973 -0.139397 -0.398397)
(0.41977 -0.0495396 -0.637397)
(0.77498 -0.118457 -0.456265)
(0.730669 -0.109741 -0.411314)
(0.632242 -0.0757656 -0.4037)
(0.568492 -0.105174 -0.409488)
(0.130646 -0.100256 -0.519666)
(0.178021 -0.116036 -0.905043)
(0.258195 -0.224159 -1.05725)
(0.34333 -0.282253 -0.946034)
(0.389476 -0.351534 -0.506471)
(0.199136 0.0423235 0.129031)
(0.265562 0.123399 0.180558)
(0.429216 -0.324434 0.335564)
(0.516296 -0.529107 0.505114)
(0.545961 -0.522585 0.551511)
(0.412831 -0.235349 0.678077)
(0.471782 -0.337752 0.564405)
(0.487131 -0.609839 0.544841)
(0.704462 -0.672888 0.317214)
(0.746565 -0.489124 0.45258)
(0.798691 -0.345854 0.598525)
(0.235968 -0.226013 0.57607)
(-0.235426 -0.26924 0.830145)
(-0.171601 -0.191426 0.681593)
(-0.672315 -0.299065 0.820554)
(-0.468447 -0.183518 0.696513)
(-0.319483 -0.00538934 0.544706)
(-0.218552 0.17845 -0.295023)
(-0.192554 -0.0418874 -0.616986)
(-0.0575307 -0.169326 -1.10023)
(0.104434 -0.15827 -1.25014)
(0.276291 -0.087424 -1.11798)
(0.437854 -0.10838 -0.698374)
(0.507966 -0.074169 -0.622043)
(0.50271 -0.0436522 -0.610601)
(0.554804 -0.0879109 -0.634715)
(0.596494 -0.121099 -0.72707)
(0.403229 -0.042935 -0.678544)
(0.361568 -0.0793938 -0.659104)
(0.136217 -0.114084 -0.668232)
(-0.111296 -0.0487664 -0.579702)
(0.296845 0.00614974 -0.589394)
(0.356628 0.0155733 -0.606695)
(0.641935 -0.0966379 -0.642983)
(0.575509 -0.0977071 -0.369307)
(0.271417 0.0744258 -0.355683)
(0.272777 0.0552969 -0.234434)
(-0.303401 -0.0387626 0.120279)
(-0.30818 0.143667 -0.00436445)
(-0.28343 -0.0251294 -0.447772)
(0.0890168 -0.202082 -0.575126)
(0.362919 -0.280682 -0.568582)
(0.72696 -0.346373 -0.405544)
(0.811189 -0.419225 -0.377766)
(0.772514 -0.291365 -0.29543)
(0.813844 -0.365812 -0.219552)
(0.828421 -0.487639 -0.284146)
(0.741406 -0.433201 -0.278349)
(0.720609 -0.306687 -0.331166)
(0.748055 -0.252377 -0.341484)
(0.793593 -0.312198 -0.212098)
(0.805804 -0.36777 -0.160467)
(0.893015 -0.46506 -0.156627)
(1.15858 -0.631401 -0.117741)
(1.61674 -0.726648 -0.0987609)
(1.99365 -0.671963 -0.0381265)
(2.15006 -0.489707 0.0472758)
(2.0699 -0.290625 0.0952961)
(1.90451 -0.162848 0.1027)
(1.80697 -0.0948536 0.0992536)
(1.71016 -0.00015209 0.0987869)
(1.57262 0.0879086 0.0909206)
(1.43523 0.106029 0.0479048)
(1.33071 0.0562385 0.0271438)
(1.24088 -0.00579146 0.0214062)
(1.1391 -0.0551993 0.0230793)
(1.05516 -0.0797677 0.0212271)
(0.99728 -0.0632586 0.0167391)
(0.821048 -0.110814 -0.0240561)
(0.716171 0.00170306 0.00948448)
(0.632887 0.0677641 0.00865693)
(0.497327 0.0223647 0.00630538)
(0.359234 -0.0613708 -0.0133689)
(0.139021 -0.14716 -0.0323442)
(0.225507 -0.308459 0.00130272)
(0.353209 -0.0820208 0.0120247)
(-0.00256595 -0.230364 -0.0092356)
(0.0429197 -0.546146 -0.05052)
(0.0119171 -0.712711 -0.052658)
(-0.00811912 -0.87665 -0.0532796)
(-0.0260708 -1.00669 -0.0649995)
(-0.0361087 -1.10263 -0.0958918)
(-0.0466437 -1.15701 -0.105189)
(-0.0581845 -1.2143 -0.11832)
(-0.0884121 -1.27605 -0.134315)
(-0.113511 -1.32078 -0.149634)
(-0.13749 -1.35452 -0.162556)
(-0.159526 -1.37621 -0.173623)
(-0.178562 -1.38759 -0.183294)
(-0.193979 -1.38927 -0.190015)
(-0.206135 -1.38222 -0.193876)
(-0.216181 -1.36755 -0.194001)
(-0.224761 -1.34569 -0.192085)
(-0.233061 -1.31525 -0.186635)
(-0.240737 -1.27438 -0.178271)
(-0.246187 -1.22014 -0.165211)
(-0.244068 -1.151 -0.147445)
(-0.191098 -1.07156 -0.127038)
(-0.141314 -0.968924 -0.112675)
(-0.165874 -0.86844 -0.0795715)
(-0.189904 -0.754509 -0.081986)
(-0.205123 -0.543022 -0.0855855)
(-0.273935 -0.450185 -0.0920917)
(0.0223871 0.0533741 -0.116291)
(-0.350926 -0.308347 0.0251057)
(-0.231779 -0.617493 -0.0546548)
(-0.270555 -0.0992635 -0.0111391)
(-0.458259 -0.18243 0.0645137)
(-0.679032 -0.198636 0.0822131)
(-0.842552 -0.209215 0.114031)
(-0.954045 -0.223065 0.144152)
(-1.03482 -0.232458 0.203717)
(-1.11815 -0.244257 0.245228)
(-1.18736 -0.244148 0.301953)
(-1.20106 -0.24838 0.336223)
(-1.17411 -0.250146 0.366143)
(-1.1072 -0.248863 0.394455)
(-0.996413 -0.243199 0.422655)
(-0.841806 -0.230225 0.454089)
(-0.667952 -0.206026 0.493543)
(-0.420823 -0.14706 0.542697)
(-0.137901 -0.118656 0.566731)
(-0.156162 0.028464 0.822558)
(-0.159542 0.0829645 1.04262)
(-0.159267 0.115251 1.11232)
(-0.160565 0.16438 1.02086)
(-0.164352 0.15352 0.83815)
(-0.151899 0.131495 0.567718)
(-0.124556 0.143564 0.285741)
(-0.225767 0.439455 0.370951)
(-0.507437 0.467406 0.335255)
(-0.692361 0.480431 0.339284)
(-0.917203 0.46521 0.332712)
(-1.09934 0.424491 0.308653)
(-1.22637 0.353048 0.265875)
(-1.28196 0.273153 0.21872)
(-1.26465 0.20603 0.181477)
(-1.23166 0.147847 0.158214)
(-1.18876 0.115162 0.140312)
(-1.09937 0.0924659 0.0901734)
(-0.957672 0.0450949 0.0698348)
(-0.766415 -0.0207877 0.059399)
(-0.500141 -0.114027 0.018987)
(-0.252686 -0.207768 -0.0190848)
(-0.273772 -0.197545 -0.0665087)
(-0.318068 -0.17698 0.00772145)
(-0.314282 -0.174177 0.0588389)
(-0.272398 -0.156544 0.149911)
(-0.380749 -0.233685 0.117473)
(-0.422602 -0.296948 0.117515)
(-0.326555 -0.287985 0.176216)
(-0.269514 -0.214988 0.0440758)
(-0.140928 -0.100703 -0.0268157)
(-0.140925 -0.0768546 -0.00825462)
(-0.138751 -0.0741766 -0.0361967)
(-0.169477 -0.055697 -0.0684941)
(-0.167942 -0.501566 -0.149204)
(-0.126383 -0.479699 -0.139086)
(-0.110755 -0.447148 -0.0967664)
(-0.100603 -0.424026 -0.146876)
(-0.266402 -0.537948 -0.0325554)
(-0.276021 -0.575327 -0.0269452)
(-0.283271 -0.631591 -0.0853629)
(-0.337015 -0.582814 -0.0214691)
(-0.339985 -0.529911 0.0539539)
(-0.301384 -0.359108 0.0840788)
(-0.444332 -0.317044 0.113917)
(-0.361301 -0.431801 0.0394347)
(-0.346996 -0.522613 0.0128922)
(-0.377697 -0.508515 -0.0249242)
(-0.428421 -0.394522 0.031131)
(-0.497208 -0.346621 0.0723299)
(-0.528822 -0.254904 0.163185)
(-0.591138 -0.21549 0.24085)
(-0.680024 -0.197595 0.255424)
(-0.576445 -0.206755 0.21104)
(-0.51664 -0.187859 0.180663)
(-0.544886 -0.185009 0.117374)
(-0.539451 -0.172094 0.0915549)
(-0.495876 -0.184285 0.000584696)
(-0.761236 -0.0867118 0.0643444)
(-0.971224 -0.00544772 0.0894709)
(-1.07881 0.0520729 0.10336)
(-1.12798 0.0749641 0.137927)
(-1.16572 0.0358009 0.237583)
(-1.2504 0.0689804 0.26684)
(-1.31645 0.119391 0.348709)
(-1.33016 0.170831 0.431401)
(-1.27303 0.221923 0.523929)
(-1.14833 0.260953 0.603697)
(-0.975804 0.281341 0.648355)
(-0.775744 0.283563 0.657529)
(-0.623406 0.288653 0.64455)
(-0.342499 0.272351 0.644354)
(-0.436217 0.244903 0.874939)
(-0.468233 0.227592 1.00329)
(-0.461092 0.179786 1.08172)
(-0.441841 0.123578 1.01388)
(-0.440403 0.0584846 0.798014)
(-0.711637 -0.00505174 0.744377)
(-0.722282 0.0715211 0.944705)
(-0.741059 0.117323 1.02348)
(-0.745981 0.164303 0.979548)
(-0.69576 0.198786 0.872685)
(-0.838361 0.186374 0.862582)
(-0.88024 0.145924 0.965084)
(-0.883084 0.0884154 1.00104)
(-0.87336 0.0420659 0.926315)
(-0.867017 -0.0389232 0.706953)
(-1.0102 -0.0601878 0.675748)
(-1.02474 0.0206214 0.901018)
(-1.03773 0.0696306 0.966153)
(-1.04593 0.122084 0.944134)
(-1.02098 0.174083 0.854161)
(-1.16449 0.163015 0.804001)
(-1.16506 0.110622 0.892665)
(-1.14835 0.0572065 0.914449)
(-1.1312 0.00654467 0.859306)
(-1.11113 -0.0729692 0.639991)
(-1.1712 -0.0836176 0.595368)
(-1.19671 -0.00614594 0.7967)
(-1.22305 0.043668 0.8399)
(-1.25237 0.0918669 0.811346)
(-1.27 0.141386 0.716722)
(-1.31941 0.110863 0.609971)
(-1.29098 0.0688668 0.709032)
(-1.25258 0.0250303 0.747023)
(-1.21722 -0.0216802 0.716206)
(-1.18714 -0.0934217 0.539633)
(-1.15387 -0.104661 0.472571)
(-1.18196 -0.0413477 0.621173)
(-1.22076 0.000218424 0.640471)
(-1.27504 0.0391637 0.606184)
(-1.30806 0.0742599 0.508885)
(-1.22499 0.0356928 0.414043)
(-1.18827 0.00288292 0.499831)
(-1.1286 -0.0321698 0.530909)
(-1.08642 -0.060065 0.519984)
(-1.04021 -0.111737 0.386644)
(-0.919297 -0.120113 0.315092)
(-0.923551 -0.109352 0.357979)
(-0.972914 -0.0803593 0.438059)
(-0.956845 -0.0870148 0.424831)
(-0.927865 -0.102637 0.394353)
(-1.00456 -0.0684279 0.38105)
(-0.996236 -0.0630796 0.30707)
(-1.0009 -0.0391746 0.282454)
(-1.0439 -0.0271964 0.208833)
(-1.03891 -0.00954678 0.202173)
(-0.806142 -0.105189 0.145072)
(-0.819039 -0.125211 0.15751)
(-0.788108 -0.128411 0.215875)
(-0.824066 -0.141488 0.248993)
(-0.610009 -0.2817 0.132605)
(-0.556944 -0.291416 0.114325)
(-0.503465 -0.326845 0.13191)
(-0.420079 -0.399561 0.115431)
(-0.396812 -0.383983 0.148861)
(-0.488097 -0.28415 0.164675)
(-0.605946 -0.23905 0.183084)
(-0.615203 -0.267845 0.096295)
(-0.513356 -0.377892 0.0433503)
(-0.439522 -0.460073 0.0274304)
(-0.397297 -0.526288 0.0569933)
(-0.383939 -0.697892 0.121204)
(-0.387048 -0.663266 0.127048)
(-0.405325 -0.380287 0.105898)
(-0.408227 -0.536521 0.0804625)
(-0.399185 -0.601869 0.0427037)
(-0.215664 -0.788133 -0.15993)
(-0.193345 -0.793869 -0.260531)
(-0.115343 -0.703863 -0.36998)
(-0.0785956 -0.623794 -0.386032)
(-0.0451372 -0.588485 -0.348267)
(-0.0135827 -0.555457 -0.301793)
(0.031614 -0.501442 -0.232155)
(0.124139 -0.454868 -0.108952)
(0.124722 -0.579467 -0.121957)
(0.11684 -0.635768 -0.120211)
(0.0849007 -0.693685 -0.157741)
(0.0923243 -0.748283 -0.155931)
(0.100502 -0.804884 -0.175116)
(0.118278 -0.83314 -0.167166)
(0.126301 -0.839791 -0.152919)
(0.126487 -0.825796 -0.130282)
(0.117755 -0.789554 -0.0957891)
(0.104224 -0.73243 -0.0423649)
(0.0364591 -0.651506 0.0339383)
(0.00230401 -0.542123 0.155208)
(0.0169432 -0.295135 0.362192)
(-0.151383 0.0207112 0.448688)
(-0.368929 0.0969688 0.34932)
(-0.393552 -0.0380405 0.257327)
(-0.220494 -0.173051 0.251514)
(-0.182166 -0.190441 0.268165)
(-0.159464 -0.180893 0.214965)
(-0.0963998 -0.148481 0.206801)
(-0.00424454 -0.0495136 0.075982)
(-0.0333037 0.105859 0.0816363)
(-0.0802064 0.143407 0.0808582)
(-0.0485545 0.20866 0.172035)
(-0.0023935 0.174926 0.195401)
(0.0153735 0.0182523 0.145046)
(-0.0503659 -0.0375956 0.230736)
(0.0228361 0.0831922 0.326985)
(-0.00480435 -0.0699954 0.287956)
(0.0745177 0.139776 0.249607)
(0.0891803 -0.0252952 0.226182)
(-0.0224155 -0.252299 0.455364)
(0.0487294 -0.35543 0.544997)
(0.171752 -0.498047 0.516277)
(0.168882 -0.690307 0.353608)
(0.0764075 -0.814985 0.145525)
(0.0588561 -0.887362 -0.00698074)
(0.0655079 -0.922458 -0.119248)
(0.0634065 -0.949105 -0.19761)
(0.0603266 -0.963898 -0.248795)
(0.0522017 -0.962228 -0.279578)
(0.0420338 -0.942413 -0.29299)
(0.0294201 -0.904893 -0.289851)
(0.0237972 -0.829989 -0.250037)
(0.00741345 -0.784323 -0.329278)
(0.0436315 -0.703432 -0.225622)
(0.0477012 -0.653216 -0.211541)
(0.0448916 -0.635848 -0.2323)
(0.00469228 -0.701836 -0.325766)
(-0.0225621 -0.741543 -0.38369)
(-0.0573249 -0.77702 -0.411458)
(-0.0732171 -0.843894 -0.402314)
(-0.131884 -0.904307 -0.34671)
(-0.0938943 -0.96866 -0.332715)
(-0.0888542 -0.979376 -0.373859)
(-0.0537466 -0.918036 -0.418732)
(-0.0435417 -0.867968 -0.432582)
(-0.017724 -0.82566 -0.404911)
(-0.00950053 -0.86907 -0.341747)
(-0.0392147 -0.901469 -0.374794)
(-0.0559443 -0.948217 -0.397282)
(-0.023617 -0.991243 -0.406412)
(-0.04858 -1.05957 -0.421231)
(-0.0665794 -1.04223 -0.424836)
(-0.0933581 -0.920094 -0.345686)
(-0.186419 -0.761587 -0.225178)
(-0.197799 -0.614319 -0.04165)
(-0.0997044 -0.733207 -0.197915)
(-0.0794744 -0.839211 -0.260519)
(-0.0593373 -0.928423 -0.324378)
(-0.060907 -0.945919 -0.335055)
(-0.0278653 -0.829175 -0.382112)
(-0.0240873 -0.724227 -0.338499)
(-0.032271 -0.541645 -0.255413)
(-0.0165603 -0.353163 -0.165183)
(0.0349968 -0.0892607 -0.211021)
(-0.246969 -0.433328 0.0725427)
(-0.328139 -0.460987 0.0257366)
(0.21935 -0.119061 -0.243814)
(-0.172921 -0.247303 0.0427818)
(-0.218062 -0.26648 -0.117705)
(-0.25838 -0.268745 -0.10387)
(-0.208468 -0.281585 -0.0217202)
(0.0811098 0.141021 -0.219554)
(0.102684 0.0599036 -0.232389)
(0.100794 -9.90448e-05 -0.261627)
(0.0959505 -0.000192563 -0.266396)
(-0.0804337 -0.429577 -0.202527)
(-0.133274 -0.449887 -0.223237)
(-0.186399 -0.458219 -0.207057)
(-0.249357 -0.445009 -0.169478)
(-0.169088 -0.547294 -0.184484)
(-0.126949 -0.559131 -0.257643)
(-0.0964128 -0.565433 -0.292036)
(-0.0608679 -0.553673 -0.292536)
(-0.0509508 -0.742649 -0.349776)
(-0.0817318 -0.757263 -0.332617)
(-0.106458 -0.769559 -0.282142)
(-0.147286 -0.759833 -0.195012)
(-0.134597 -0.821583 -0.182564)
(-0.128882 -0.882506 -0.20057)
(-0.0982267 -0.905162 -0.297812)
(-0.0727725 -0.872266 -0.374376)
(-0.0493575 -0.852051 -0.400881)
(-0.0770031 -0.96757 -0.371529)
(-0.112322 -0.989273 -0.336339)
(-0.138254 -1.00953 -0.284071)
(-0.137365 -1.09217 -0.347305)
(-0.0802674 -1.06653 -0.399914)
(-0.0726787 -1.14416 -0.441473)
(-0.0494069 -1.12262 -0.474156)
(-0.0268592 -1.11362 -0.459481)
(-0.00317987 -1.0418 -0.416025)
(0.0122391 -1.07375 -0.407052)
(-0.0126532 -1.15214 -0.470268)
(-0.039893 -1.17924 -0.494757)
(-0.0687001 -1.20744 -0.463484)
(-0.131742 -1.22798 -0.379484)
(-0.135083 -1.16568 -0.369576)
(-0.283907 -1.04586 -0.225502)
(-0.457727 -1.14532 -0.0769752)
(-0.464111 -1.0994 -0.0674964)
(-0.416313 -1.04509 -0.0648256)
(-0.303115 -1.03563 -0.0739141)
(-0.255882 -0.966913 -0.0641206)
(-0.309423 -0.944415 -0.0577052)
(-0.342549 -0.848623 -0.0422716)
(-0.378281 -0.713345 -0.0379409)
(-0.474005 -0.626709 -0.0367628)
(-0.410087 -0.401423 -0.0341616)
(-0.46514 -0.660691 -0.00586572)
(-0.316902 -0.45758 0.024556)
(-0.63871 -0.398734 0.005404)
(-0.81564 -0.379349 0.0601211)
(-0.918128 -0.384481 0.0845908)
(-0.968112 -0.397261 0.124309)
(-0.980089 -0.525284 0.09774)
(-0.940483 -0.689355 0.0653463)
(-0.924204 -0.750083 0.0524797)
(-0.874733 -0.848379 0.0364296)
(-0.859133 -0.895529 0.0304568)
(-0.821289 -0.927812 0.00760479)
(-0.704012 -0.96745 -0.0230285)
(-0.592832 -1.00197 -0.0420297)
(-0.627069 -0.952597 -0.0172267)
(-0.485256 -0.971612 -0.0307419)
(-0.503167 -0.893353 -0.0301575)
(-0.530779 -0.796931 -0.0233137)
(-0.55962 -0.730777 -0.0195052)
(-0.686727 -0.712376 -0.00981799)
(-0.675274 -0.598131 -0.00780489)
(-0.824425 -0.577208 0.0303249)
(-0.918736 -0.559576 0.0503841)
(-0.881652 -0.697 0.0231289)
(-0.800715 -0.704538 0.0121816)
(-0.777847 -0.789689 0.0022693)
(-0.661227 -0.798154 -0.0107888)
(-0.636077 -0.882504 -0.0170539)
(-0.7488 -0.866098 -0.00514711)
(-0.825819 -0.850488 0.00443121)
(-0.863438 -0.772923 0.0134981)
(-0.801941 -0.738835 -0.011802)
(-0.624383 -0.611996 0.00178666)
(-0.84745 -0.659601 0.0116572)
(-0.868378 -0.518305 0.0520131)
(-0.870787 -0.379761 0.0580899)
(-0.843642 -0.282204 0.121527)
(-0.832646 -0.30222 0.0764738)
(-0.879248 -0.35062 0.0525303)
(-0.875516 -0.203891 0.128989)
(-0.894491 -0.184206 0.174032)
(-0.761001 -0.161485 0.158383)
(-0.766689 -0.12902 0.259055)
(-0.777917 -0.120722 0.30176)
(-0.821548 -0.10861 0.355111)
(-0.828994 -0.119232 0.352383)
(-0.642392 -0.181676 0.250719)
(-0.607511 -0.173593 0.248175)
(-0.567632 -0.180438 0.215332)
(-0.551241 -0.175586 0.188786)
(-0.568997 -0.191177 0.120249)
(-0.338475 -0.19472 0.0766432)
(-0.320321 -0.189217 0.101528)
(-0.329397 -0.191934 0.113928)
(-0.360703 -0.198798 0.124058)
(-0.44919 -0.216868 0.141305)
(-0.405268 -0.253339 0.0591711)
(-0.382096 -0.284883 0.0677851)
(-0.410665 -0.34095 0.0465305)
(-0.315961 -0.426789 0.0353065)
(-0.311722 -0.394239 0.0484679)
(-0.283622 -0.416097 0.014929)
(-0.192964 -0.419341 -0.0211098)
(-0.337121 -0.254023 0.0348551)
(-0.40297 -0.330776 0.0406396)
(-0.248296 -0.457245 -0.00720361)
(-0.291691 -0.459626 -0.000292287)
(-0.451789 -0.321114 0.0715152)
(-0.524565 -0.298907 0.130885)
(-0.498045 -0.318571 0.136014)
(-0.470989 -0.336733 0.111104)
(-0.45886 -0.350567 0.0941027)
(-0.493362 -0.373113 0.00842695)
(-0.710948 -0.317751 0.0630629)
(-0.718058 -0.529746 0.0388451)
(-0.549232 -0.554275 -0.00193488)
(-0.510133 -0.606947 -0.00420626)
(-0.465927 -0.64923 -0.0177032)
(-0.437146 -0.652504 -0.0214627)
(-0.413028 -0.530918 -0.0233011)
(-0.411287 -0.54094 -0.0486545)
(-0.410168 -0.541403 -0.0345686)
(-0.33555 -0.550451 -0.0173565)
(-0.267617 -0.595886 -0.00760502)
(-0.319741 -0.580841 -0.00383456)
(-0.403556 -0.512963 0.00687111)
(-0.332091 -0.535364 -0.00442364)
(-0.438947 -0.630335 -0.0120841)
(-0.293022 -0.473212 -0.00538547)
(-0.210503 -0.539692 -0.0185964)
(-0.281282 -0.524611 -0.0165594)
(-0.394556 -0.436064 -0.000957461)
(-0.41399 -0.362742 -0.0106301)
(-0.260685 -0.394216 -0.0112904)
(-0.157079 -0.422872 -0.0366392)
(-0.136458 -0.399434 -0.0229577)
(-0.238265 -0.205286 0.0220796)
(-0.382745 -0.342875 -0.00225532)
(-0.251918 -0.474561 -0.0200127)
(-0.21922 -0.467973 -0.0239533)
(-0.122183 -0.392772 -0.0303269)
(-0.219288 -0.194425 0.0389185)
(-0.34698 -0.337937 0.0119315)
(-0.366324 -0.363255 0.0539881)
(-0.195963 -0.511089 -0.0111501)
(-0.174206 -0.468041 0.0183513)
(-0.110074 -0.420179 0.00156715)
(-0.222411 -0.229024 0.0444239)
(-0.326001 -0.341875 0.0521287)
(-0.335166 -0.338954 0.056715)
(-0.180705 -0.463228 0.0163706)
(-0.109399 -0.408942 -0.000281099)
(-0.232009 -0.220432 0.0618206)
(-0.28605 -0.221441 0.0771594)
(-0.240543 -0.230228 0.0708901)
(-0.350441 -0.337003 0.0781858)
(-0.189801 -0.465326 0.0479787)
(-0.117927 -0.415634 0.0369628)
(-0.140622 -0.449725 -0.00426957)
(-0.19661 -0.497619 0.0253569)
(-0.381809 -0.350666 0.0788918)
(-0.334477 -0.62547 -0.0038733)
(-0.355852 -0.632169 -0.0118653)
(-0.499505 -0.511865 0.0577642)
(-0.651504 -0.444683 0.0982081)
(-0.666944 -0.286756 0.136254)
(-0.798369 -0.27156 0.170439)
(-0.89107 -0.320724 0.166339)
(-1.02109 -0.488823 0.125969)
(-1.1079 -0.495131 0.167702)
(-1.13277 -0.502742 0.192866)
(-1.1128 -0.505084 0.215861)
(-1.04951 -0.501352 0.238741)
(-0.94392 -0.490394 0.260623)
(-0.794996 -0.467058 0.287213)
(-0.640332 -0.431984 0.326758)
(-0.397751 -0.380606 0.395305)
(-0.163639 -0.292477 0.48306)
(0.040542 -0.150246 0.487102)
(0.335909 -0.158393 0.428271)
(0.336878 -0.216644 0.378371)
(0.20477 -0.12732 0.487855)
(0.272232 -0.00267537 0.766901)
(0.283424 0.0466925 1.03249)
(0.268647 0.0815891 1.14237)
(0.250675 0.133993 1.09191)
(0.212828 0.123152 0.955045)
(0.142301 0.121315 0.703594)
(0.0393906 0.187089 0.4044)
(0.174427 0.512629 0.424894)
(0.419811 0.513666 0.374318)
(0.605531 0.538672 0.375694)
(0.850377 0.497997 0.351408)
(1.00903 0.41754 0.317513)
(1.07413 0.323264 0.273686)
(1.05897 0.255791 0.233895)
(1.00994 0.211046 0.198359)
(1.02909 0.158746 0.167062)
(1.04342 0.118631 0.144177)
(0.984404 0.0926651 0.0906377)
(0.880039 0.0423243 0.0679131)
(0.715072 -0.0227374 0.0544316)
(0.470441 -0.10978 0.0209388)
(0.243274 -0.217312 -0.021711)
(0.103223 -0.62227 -0.109601)
(0.178501 -0.38481 -0.0797853)
(-0.178113 -0.172178 0.00742264)
(-0.099548 -0.390778 -0.0372251)
(-0.108854 -0.309986 -0.0635142)
(-0.110862 -0.334349 -0.0718542)
(-0.108352 -0.291614 -0.0618759)
(-0.0756101 -0.212496 -0.0556153)
(-0.145805 -0.16583 -0.034368)
(-0.221195 0.176313 0.130508)
(-0.136075 0.447107 0.113456)
(-0.0366452 0.562398 0.0664302)
(0.0435011 0.632055 0.102238)
(0.131084 0.679592 0.201858)
(0.224622 0.735356 0.301417)
(0.315351 0.771684 0.338157)
(0.397692 0.767472 0.366951)
(0.474772 0.702176 0.374219)
(0.540262 0.560998 0.37089)
(0.592713 0.337581 0.337017)
(0.572374 0.00412077 0.263377)
(0.394903 -0.335943 0.259009)
(0.294278 -0.334971 0.321487)
(0.22859 -0.289293 0.330651)
(0.161324 -0.198651 0.335891)
(0.147725 -0.00212283 0.313222)
(0.289028 0.0089756 0.340379)
(0.451692 -0.157861 0.331108)
(0.603927 -0.255244 0.34271)
(0.64285 -0.344325 0.351742)
(0.623447 -0.436279 0.353638)
(0.476627 -0.541273 0.334851)
(0.106984 -0.566127 0.316948)
(-0.171351 -0.298203 0.30276)
(-0.0381635 -0.128209 0.355746)
(0.230706 -0.152084 0.237712)
(0.282212 -0.403965 0.0722758)
(0.0088588 -0.519659 0.238146)
(-0.141161 -0.748941 -0.141861)
(0.20058 -0.720016 -0.480686)
(0.308377 -0.392601 -0.176904)
(0.331429 -0.374916 0.0933502)
(0.344897 -0.545112 0.183609)
(0.326869 -0.889827 0.119801)
(0.531633 -0.872463 0.0647101)
(0.611023 -0.691725 0.0984741)
(0.576748 -0.538032 0.138408)
(0.507288 -0.39562 0.188895)
(0.338132 -0.230438 0.247099)
(0.362783 -0.346251 0.195672)
(0.426666 -0.376936 0.142887)
(0.508133 -0.36292 0.0806408)
(0.619995 -0.295747 -0.0565524)
(0.865407 0.193566 -0.11865)
(0.909512 0.478376 -0.0234513)
(0.854904 0.68257 0.0467312)
(0.757357 0.786709 0.0897946)
(0.631996 0.815249 0.135503)
(0.489349 0.78505 0.155991)
(0.33143 0.722645 0.17428)
(0.165966 0.644703 0.12972)
(-0.00888802 0.57771 0.0679032)
(-0.149022 0.515836 0.054451)
(-0.28657 0.414384 0.113321)
(-0.407949 0.201784 0.149919)
(-0.285387 -0.121151 0.00939636)
(-0.401119 -0.0250744 0.0530304)
(-0.485204 0.0303144 0.0800424)
(-0.54238 0.144573 0.11914)
(-0.542006 0.101107 0.0934857)
(-0.499918 -0.0315611 0.0217349)
(-0.457729 -0.0922724 0.0122978)
(-0.389329 -0.148152 -0.0104205)
(-0.292995 -0.207335 -0.0246258)
(-0.189384 -0.238524 -0.0375694)
(-0.14017 -0.209522 -0.0287346)
(-0.195848 -0.176183 -0.0251141)
(-0.183745 -0.330659 -0.0377023)
(-0.122924 -0.324389 -0.0455979)
(-0.100504 -0.343226 -0.0725818)
(-0.0786604 -0.377214 -0.105012)
(-0.0484055 -0.564276 -0.221897)
(-0.0877602 -0.501803 -0.15678)
(-0.105856 -0.597503 -0.124812)
(-0.158725 -0.568054 -0.0759949)
(-0.223264 -0.455865 -0.0438542)
(-0.30818 -0.11869 0.026625)
(-0.186472 0.318249 0.177192)
(-0.0729406 0.437843 0.30981)
(0.00984087 0.513464 0.447379)
(0.0770449 0.500942 0.563749)
(0.145458 0.435751 0.624507)
(0.199312 0.321762 0.654626)
(0.249527 0.16593 0.62743)
(0.235484 -0.0135263 0.531989)
(0.104525 -0.136039 0.440107)
(-0.0125588 -0.0987806 0.449557)
(-0.0326507 0.0162075 0.425996)
(-0.0340898 0.139138 0.426638)
(0.0373234 0.2451 0.366756)
(0.199199 0.136506 0.381551)
(0.156977 0.273027 0.450034)
(-0.0603531 0.174062 -0.0655692)
(-0.173485 -0.0673299 -0.642334)
(-0.180576 -0.307305 -0.538392)
(-0.168065 -0.343642 -0.302719)
(-0.144875 -0.302047 -0.0940975)
(-0.0618663 -0.585292 -0.106761)
(-0.0277939 -0.86285 -0.0941238)
(0.00235312 -1.02016 -0.0915769)
(0.0327352 -1.14395 -0.100679)
(0.0660168 -1.22781 -0.114994)
(0.096416 -1.28062 -0.129074)
(0.122941 -1.30702 -0.14096)
(0.146844 -1.31532 -0.152913)
(0.167663 -1.31302 -0.165454)
(0.185907 -1.30357 -0.176282)
(0.201558 -1.28849 -0.184767)
(0.215551 -1.26829 -0.189929)
(0.227966 -1.24273 -0.192623)
(0.239309 -1.21057 -0.191465)
(0.248939 -1.1707 -0.186353)
(0.254734 -1.12089 -0.17556)
(0.251853 -1.05829 -0.158917)
(0.194762 -0.995461 -0.139043)
(0.139771 -0.910753 -0.122785)
(0.164404 -0.826925 -0.0870222)
(0.187697 -0.726606 -0.0882499)
(0.203849 -0.55816 -0.08814)
(0.246692 -0.441427 -0.0844571)
(0.0720759 -0.0295907 -0.0955278)
(0.365761 -0.297756 0.0435294)
(0.245666 -0.550272 -0.0572257)
(0.285988 -0.0945569 -0.0269912)
(0.180651 -0.0367808 -0.147511)
(0.201439 -0.112197 -0.124998)
(0.194216 -0.119094 -0.0814366)