/*--------------------------------*- C++ -*----------------------------------*\
| =========                 |                                                 |
| \\      /  F ield         | OpenFOAM: The Open Source CFD Toolbox           |
|  \\    /   O peration     | Version:  v2012                                 |
|   \\  /    A nd           | Website:  www.openfoam.com                      |
|    \\/     M anipulation  |                                                 |
\*---------------------------------------------------------------------------*/
FoamFile
{
    version     2.0;
    format      ascii;
    class       volScalarField;
    location    "1000";
    object      epsilon;
}
// * * * * * * * * * * * * * * * * * * * * * * * * * * * * * * * * * * * * * //

dimensions      [0 2 -3 0 0 0 0];


internalField   nonuniform List<scalar> 
18258
(
0.0241115
0.0123207
0.00918008
0.00722253
0.0126956
0.0125948
0.0130532
0.0174085
0.0242455
0.0371124
0.053704
0.0482495
0.0436068
0.0453391
0.0474873
0.0450241
0.0350364
0.0302915
0.0397636
0.0665077
0.0609703
0.0497629
0.0611076
0.0514686
0.0652928
0.082302
0.0630599
0.0567877
0.0509592
0.0479007
0.0412842
0.0231826
0.0344761
0.0533317
0.0726754
0.079353
0.0849446
0.0895396
0.0947844
0.0969106
0.0971365
0.0919317
0.0827884
0.0678624
0.0500483
0.0387888
0.0313477
0.0306414
0.0430927
0.0442955
0.0551144
0.0849342
0.107405
0.0806866
0.0517639
0.0823579
0.112219
0.14392
0.170444
0.192929
0.200708
0.197352
0.185885
0.169205
0.147795
0.122829
0.101845
0.0849258
0.0671422
0.0573451
0.0463934
0.0384801
0.0329113
0.0292492
0.0270462
0.025322
0.0241582
0.0250896
0.0249763
0.0178128
0.0140105
0.0131585
0.00941146
0.00782057
0.00813372
0.00773785
0.00803945
0.00709656
0.00607704
0.00527542
0.00447408
0.00651305
0.00700617
0.00724778
0.00726758
0.00778903
0.00804942
0.00779052
0.00788503
0.00721129
0.00749691
0.0119725
0.0137355
0.0174328
0.015593
0.0108605
0.00906936
0.0101158
0.0107349
0.013341
0.012554
0.0133323
0.0118251
0.010802
0.00912053
0.00885342
0.00908636
0.00965934
0.010059
0.0116668
0.011499
0.0106676
0.0117967
0.0130148
0.012741
0.0121976
0.0116155
0.0142579
0.0114594
0.0121442
0.0136429
0.0219838
0.0215096
0.0259998
0.0255221
0.0259645
0.0261479
0.0315486
0.0316703
0.0320524
0.0323722
0.0341184
0.0571295
0.0508959
0.0497786
0.0495831
0.0428842
0.0424167
0.0417237
0.0425375
0.0360568
0.0347115
0.0314772
0.0311146
0.0347162
0.0438405
0.0613237
0.0885825
0.122531
0.158871
0.189137
0.21011
0.231839
0.237153
0.251013
0.255681
0.256575
0.250906
0.242493
0.23303
0.22016
0.201547
0.188553
0.148171
0.104901
0.0590411
0.078329
0.0903245
0.100046
0.101982
0.103183
0.0991866
0.0930549
0.0819414
0.0664977
0.0432802
0.0478513
0.0650373
0.0675334
0.0683963
0.0543473
0.0524484
0.0488611
0.0489582
0.0644981
0.0737594
0.06191
0.0853409
0.100358
0.0878588
0.0637859
0.0976204
0.142842
0.0803011
0.0680477
0.052397
0.0513594
0.0433365
0.0368216
0.0631353
0.0941661
0.12876
0.149509
0.171032
0.188293
0.201353
0.215223
0.187102
0.170036
0.114599
0.200301
0.151673
0.076597
0.05636
0.0543504
0.046828
0.0521048
0.0570402
0.0526188
0.0406754
0.0279263
0.024621
0.0462517
0.0645843
0.0780416
0.062014
0.0789121
0.0890827
0.0964014
0.101709
0.129247
0.0953616
0.105511
0.0751807
0.102183
0.0722878
0.0464344
0.0523683
0.100041
0.159596
0.218251
0.254928
0.144559
0.0731268
0.0541777
0.0539891
0.0524019
0.0475674
0.0592011
0.105446
0.0718382
0.0465019
0.0402613
0.0474581
0.0418096
0.0309966
0.0326648
0.039978
0.0549757
0.0683148
0.081106
0.124475
0.121658
0.146749
0.153769
0.129681
0.125596
0.0813086
0.0832501
0.122366
0.0913722
0.0738459
0.103787
0.146972
0.201277
0.247682
0.28815
0.314027
0.303448
0.274538
0.173703
0.0760554
0.0228924
0.0177957
0.0168429
0.0173173
0.0105228
0.00629799
0.00584798
0.00666165
0.00701369
0.00591469
0.00544391
0.00543476
0.00578084
0.0101835
0.0087535
0.01083
0.0131211
0.0156697
0.0187147
0.019443
0.0129008
0.00873228
0.00819464
0.00813055
0.00806194
0.00803286
0.00804482
0.00808537
0.00810114
0.00806834
0.00798889
0.00785082
0.00771418
0.00765561
0.00829015
0.0111767
0.015342
0.0148431
0.0135541
0.0121994
0.0110398
0.00871079
0.0151467
0.0128472
0.0109362
0.0133894
0.0164903
0.0208366
0.0244781
0.0176527
0.01413
0.0127843
0.0126545
0.0125357
0.0125754
0.0124465
0.0125031
0.0122945
0.0128763
0.0135525
0.0169512
0.0189763
0.0211643
0.0226705
0.0232615
0.0239741
0.0211125
0.0229933
0.0227287
0.0235065
0.0233263
0.0226397
0.0207182
0.0189207
0.0176939
0.0191056
0.0236657
0.0322997
0.0266973
0.0207182
0.0167635
0.0137118
0.014985
0.0166552
0.0168293
0.0158416
0.0156089
0.0154005
0.0138798
0.0130874
0.0110851
0.0104776
0.0100233
0.0101807
0.0143761
0.013511
0.0136989
0.0144215
0.0155071
0.014668
0.0150983
0.0142607
0.0145104
0.0149333
0.0170054
0.0185578
0.0178023
0.0164924
0.0159943
0.0137256
0.0158278
0.0156845
0.0170043
0.0185872
0.0190797
0.019017
0.0183809
0.0167878
0.0186767
0.0220421
0.0256935
0.0246965
0.0243712
0.0204335
0.0192366
0.0202116
0.0214854
0.0223868
0.0224443
0.0222486
0.0223139
0.0262699
0.0258548
0.0246707
0.0226038
0.0201604
0.0175167
0.0151237
0.0165934
0.0180702
0.0194574
0.0207246
0.0205131
0.0189835
0.0176267
0.016399
0.0149114
0.0146349
0.0160843
0.0173044
0.0187368
0.0204582
0.0205501
0.0188277
0.0173293
0.0160473
0.0145763
0.0145342
0.0160326
0.0173316
0.0187526
0.0202452
0.0196162
0.0184555
0.0172018
0.0159585
0.0145076
0.014579
0.0158992
0.0169684
0.0180538
0.0190075
0.0198588
0.0178964
0.0169854
0.0170766
0.0160909
0.0192723
0.0185157
0.0194551
0.0180052
0.016784
0.0177895
0.0209787
0.0240098
0.0245638
0.0242843
0.0201537
0.0206089
0.0205835
0.019166
0.0159485
0.0153519
0.0181141
0.0208415
0.0213026
0.0200018
0.016911
0.0132747
0.0142928
0.0174449
0.0197527
0.0184934
0.0183378
0.0169287
0.0158461
0.0161395
0.0138593
0.0165971
0.0266286
0.0240846
0.0220618
0.0195889
0.0156011
0.0105742
0.0114696
0.0126209
0.0130335
0.0105337
0.00789453
0.00709294
0.00690353
0.00674856
0.00653266
0.00616664
0.00561146
0.00538155
0.010655
0.0259728
0.0365231
0.0358726
0.0241492
0.0208075
0.0201109
0.0186584
0.00902575
0.00824427
0.00844618
0.0104328
0.00827361
0.00840494
0.0145934
0.0100731
0.013828
0.010744
0.0146106
0.0229782
0.0218055
0.0144939
0.00803657
0.0068923
0.00737812
0.00766142
0.00786198
0.00805527
0.00828491
0.00866593
0.00997815
0.0156699
0.0202331
0.0177009
0.0167092
0.0152423
0.0187699
0.0212504
0.0231912
0.0259605
0.0160644
0.0117587
0.016601
0.0271916
0.0246707
0.0232083
0.01709
0.0176352
0.0170804
0.0109849
0.0106448
0.0105642
0.0113724
0.0127524
0.0146718
0.0158353
0.0165857
0.0169159
0.0178245
0.0230983
0.0216142
0.0211018
0.0173314
0.0133245
0.0153566
0.0514488
0.0195271
0.0206402
0.0188824
0.0191606
0.0204492
0.0151649
0.0135245
0.0129347
0.0146191
0.0214917
0.021502
0.0213635
0.0182292
0.0174446
0.0208626
0.0219528
0.0223555
0.0217358
0.0212899
0.0194305
0.0166623
0.0180924
0.0196082
0.0207928
0.0227952
0.0231364
0.0179133
0.0171941
0.0158098
0.0105246
0.0112654
0.00970835
0.00967861
0.00964342
0.00936728
0.00892239
0.00921198
0.00932976
0.00932777
0.00898432
0.00927752
0.00834157
0.00867482
0.0097631
0.0152047
0.0147721
0.0175716
0.0194869
0.0167331
0.0155741
0.014212
0.0131895
0.0154383
0.0142738
0.0168502
0.0211947
0.0264754
0.0191066
0.018109
0.0178861
0.0174796
0.0173241
0.0173754
0.016686
0.0156874
0.015122
0.0235768
0.0212809
0.0181585
0.0172093
0.015776
0.0180248
0.0174676
0.0213576
0.0268291
0.027034
0.0215253
0.0216033
0.0189543
0.0200596
0.0222427
0.0270714
0.0269932
0.0144273
0.0095927
0.0154279
0.0157665
0.018376
0.0169935
0.0185197
0.0196992
0.0204211
0.0202786
0.0176813
0.0188511
0.0196374
0.0206209
0.0185707
0.0165672
0.0173549
0.0161357
0.0152388
0.0147435
0.0126729
0.0129131
0.0138797
0.0153273
0.0162692
0.0177602
0.0194115
0.0194436
0.0201083
0.0197026
0.0191051
0.0251864
0.0239501
0.0254924
0.0281917
0.0224149
0.0177961
0.0146787
0.0149892
0.014756
0.0146641
0.0154108
0.0167687
0.015148
0.0145309
0.017034
0.0193859
0.0246461
0.0329748
0.0287056
0.026162
0.0331863
0.0313703
0.0381903
0.0286425
0.0281267
0.0208348
0.0262742
0.0305042
0.0391642
0.0254897
0.0209406
0.0224066
0.0255385
0.0347667
0.032766
0.0331157
0.0411589
0.0399297
0.0361913
0.0311691
0.0353175
0.021228
0.0301771
0.0322025
0.0268113
0.0256856
0.0307137
0.0310448
0.0329871
0.0283652
0.0267517
0.0178972
0.0274051
0.0313428
0.0330337
0.0277839
0.0205261
0.0279906
0.020533
0.0191695
0.0202824
0.013766
0.0127158
0.0147861
0.0138583
0.0111885
0.0121294
0.0111426
0.0111227
0.0111962
0.0113025
0.0114246
0.0116677
0.0116182
0.0125927
0.0132735
0.0125385
0.0115162
0.012209
0.012618
0.0161243
0.0182136
0.0204845
0.0220814
0.022921
0.0240512
0.0226715
0.0248275
0.0237644
0.0252092
0.0249078
0.0238503
0.0213555
0.0187445
0.0163967
0.0170379
0.020771
0.0274412
0.022485
0.0174059
0.0140805
0.0116564
0.0129419
0.0162473
0.00879398
0.00804863
0.00777371
0.00762498
0.00754728
0.00678161
0.00590876
0.00721424
0.0125429
0.0160401
0.0202664
0.0260002
0.0322332
0.0376805
0.0418497
0.0448354
0.0466808
0.0471807
0.0443392
0.0334652
0.0286451
0.0244678
0.0201377
0.0163603
0.0166988
0.0243453
0.0320128
0.03959
0.0462857
0.051302
0.0493987
0.0331333
0.0298963
0.0460699
0.0776412
0.0734855
0.0965627
0.110312
0.0622424
0.0461579
0.0452547
0.0622146
0.0648881
0.0567829
0.0466932
0.0363334
0.0260714
0.0305583
0.0350453
0.0394331
0.044083
0.0585166
0.0614267
0.0600939
0.0573978
0.0538006
0.0487973
0.0415771
0.0329376
0.0248128
0.0186649
0.0138184
0.00811371
0.00764835
0.0077486
0.00728359
0.00827458
0.00817749
0.00881603
0.00855038
0.00880104
0.00863591
0.00872809
0.00776119
0.00691409
0.0103627
0.0097286
0.00977367
0.0105371
0.0136297
0.0104325
0.00763368
0.00720991
0.00719985
0.00754557
0.016191
0.0250436
0.0304932
0.0351452
0.0388341
0.0375033
0.033998
0.0282228
0.021863
0.0196756
0.0166023
0.0141653
0.0130081
0.0143763
0.0118136
0.00579227
0.00518909
0.00573256
0.00557263
0.00509368
0.00614414
0.00684877
0.00747427
0.00790723
0.00822435
0.00828768
0.00822661
0.0081357
0.00809019
0.00806811
0.00803681
0.00796806
0.007868
0.00772084
0.00757982
0.00751219
0.00810521
0.010728
0.0146672
0.0144248
0.0133058
0.0121914
0.0113259
0.00960239
0.0154713
0.0131274
0.0110092
0.0101848
0.0100497
0.0103548
0.0113269
0.0129523
0.0138642
0.0158663
0.0159044
0.0157919
0.0160915
0.0158831
0.0133231
0.0151227
0.0177663
0.018582
0.019183
0.0189573
0.0174149
0.0194393
0.0205882
0.020049
0.019446
0.0166726
0.0194459
0.0233226
0.0237582
0.024003
0.0213194
0.0184706
0.0216484
0.0228287
0.0224669
0.023373
0.0216771
0.0224254
0.0277401
0.0144664
0.0135034
0.00820616
0.00892542
0.00923482
0.0090121
0.0087431
0.00911614
0.00936771
0.0090644
0.00974664
0.0100537
0.00931747
0.0118115
0.0109194
0.0105981
0.00999162
0.0103871
0.0109228
0.0112031
0.0124787
0.0199285
0.0204793
0.0184781
0.0211432
0.021714
0.0181421
0.0206754
0.0215589
0.0219165
0.0222934
0.0237404
0.0222306
0.024536
0.0238292
0.0223583
0.0216049
0.0384008
0.0253111
0.0166876
0.0154505
0.0151163
0.015174
0.0170911
0.0127934
0.0143477
0.0101107
0.00876535
0.00841509
0.00814866
0.00832588
0.0108242
0.0164322
0.0249519
0.0281307
0.0270743
0.0236506
0.0179738
0.0132102
0.0129486
0.01169
0.0109488
0.0108324
0.00720678
0.00511692
0.00654401
0.00660321
0.00719876
0.00762104
0.00796631
0.00822654
0.00837093
0.00844601
0.00853006
0.00864764
0.00877317
0.00887874
0.00895896
0.00901404
0.0090721
0.00918767
0.00948997
0.0106918
0.0153618
0.0197831
0.0186618
0.0171924
0.0158776
0.0166456
0.0174037
0.0181336
0.0223342
0.0191865
0.0220996
0.0207741
0.0197913
0.018377
0.0191019
0.020904
0.0166662
0.0165985
0.0113393
0.00990895
0.00953838
0.00933151
0.00917211
0.00901408
0.00885383
0.00870938
0.00857086
0.00844854
0.00835077
0.00825433
0.00811288
0.00786919
0.00746663
0.00703744
0.00611742
0.00669155
0.00740964
0.00841685
0.00952241
0.0100367
0.00947313
0.00875243
0.00846651
0.00860622
0.00878133
0.00897171
0.00918941
0.00949416
0.00995495
0.0109208
0.0115828
0.0162705
0.0170083
0.0202995
0.0201019
0.0179956
0.0173458
0.0189496
0.0174526
0.0127037
0.0174685
0.0170015
0.0212526
0.0157544
0.0148616
0.0152669
0.0157501
0.0184329
0.017344
0.0158616
0.0158153
0.012734
0.0143092
0.016307
0.0177993
0.0280642
0.0274966
0.0346285
0.0345287
0.0597
0.0567805
0.0500682
0.0541623
0.0238455
0.0467578
0.0546615
0.0497673
0.0431972
0.0275343
0.0440763
0.0671502
0.0974879
0.0702575
0.0574789
0.106994
0.0774928
0.0376742
0.0267259
0.0150821
0.0151511
0.0251848
0.0292616
0.0242621
0.0234065
0.0336533
0.0350209
0.0281952
0.0288772
0.0312623
0.0301928
0.0326821
0.0282851
0.0275787
0.0156115
0.0128114
0.0138452
0.015579
0.0165783
0.0160603
0.0169066
0.0175859
0.0161454
0.0151198
0.0145592
0.0124927
0.0132338
0.0162248
0.0204497
0.0239627
0.0172986
0.0138946
0.0125907
0.0123954
0.0121686
0.0120509
0.0117323
0.0115493
0.0110831
0.0112945
0.00984773
0.00986247
0.0103963
0.0105542
0.0107533
0.0109066
0.0110257
0.0111355
0.0120074
0.0187954
0.0260071
0.0208111
0.0164959
0.0140129
0.0152011
0.017125
0.0210317
0.0264627
0.0178707
0.0176931
0.0115345
0.0107524
0.0105479
0.010382
0.0102359
0.0101449
0.0102113
0.0102141
0.0119402
0.0115245
0.013409
0.0144964
0.0119956
0.01158
0.011123
0.010849
0.0107016
0.0106259
0.0107227
0.0115902
0.0114257
0.0104906
0.0103889
0.010501
0.0107067
0.0110225
0.0114646
0.0119661
0.0128698
0.012633
0.0112082
0.011266
0.0106215
0.0103146
0.0100777
0.0100481
0.0100913
0.0102254
0.0104413
0.0113495
0.0171575
0.0173355
0.0266829
0.0266632
0.0211959
0.0177174
0.0155601
0.0143057
0.0135731
0.0353924
0.0310635
0.0491723
0.0392449
0.0314234
0.0510603
0.0726707
0.0564208
0.0919707
0.0993523
0.0731284
0.0661825
0.0210472
0.0160211
0.0154764
0.016967
0.0186616
0.0213005
0.0218972
0.0267233
0.0288337
0.0172177
0.0165365
0.0156076
0.024934
0.0231043
0.0197182
0.0178308
0.0164436
0.0189978
0.0207945
0.0150059
0.0150483
0.00970144
0.0107049
0.0104514
0.0101172
0.0100071
0.00993971
0.00998134
0.0100852
0.0103719
0.0108669
0.0112364
0.0113593
0.0116011
0.0113881
0.0111114
0.0107823
0.0105884
0.0103983
0.010246
0.0101312
0.0101708
0.010493
0.0106418
0.00934071
0.00968269
0.00978733
0.00979686
0.00982811
0.00979616
0.00966658
0.00947158
0.00928836
0.00909146
0.0091435
0.00997956
0.0101243
0.0101908
0.0100429
0.00992946
0.00991917
0.00985181
0.00983216
0.00981563
0.0096851
0.00936613
0.00863914
0.00849445
0.00910269
0.00945478
0.00964255
0.00973464
0.00972122
0.00966376
0.00942827
0.00924582
0.0090302
0.00868867
0.00824891
0.00683633
0.00709261
0.0074428
0.00792788
0.00842881
0.00886885
0.00916425
0.0093197
0.00940762
0.00932597
0.0090363
0.00851067
0.00845832
0.00884825
0.00902792
0.00898844
0.00873112
0.00833046
0.00777379
0.00707934
0.00640365
0.00588113
0.005625
0.00522794
0.00661076
0.00719487
0.00774661
0.00826354
0.00875564
0.00928003
0.00948732
0.0095452
0.00951559
0.00935069
0.00901199
0.00847862
0.00848809
0.00897052
0.00928897
0.00942261
0.00941235
0.0092231
0.00880576
0.00788766
0.0070688
0.00640815
0.00581907
0.00523375
0.00506397
0.00531607
0.00510761
0.00533302
0.0059212
0.00672662
0.00750449
0.00810355
0.00852485
0.00870583
0.00865417
0.00840277
0.00830576
0.00842915
0.00837307
0.00807012
0.00750564
0.00676248
0.00595926
0.00532037
0.00512362
0.00543925
0.00577066
0.00546496
0.00439317
0.00493924
0.00549985
0.00610115
0.00702724
0.00821715
0.00881795
0.00913912
0.00929565
0.00922448
0.0089286
0.00848309
0.00846469
0.00889332
0.0091811
0.00923361
0.00909781
0.00880675
0.00830346
0.00686239
0.00538526
0.00475477
0.00440271
0.00396413
0.00554283
0.00590152
0.00548283
0.0052128
0.00565274
0.00620577
0.00684318
0.00736671
0.0077994
0.00810576
0.00820862
0.0081776
0.00804493
0.00804731
0.00799027
0.00778029
0.00752024
0.00729832
0.00685235
0.00639512
0.0058723
0.00642385
0.00670905
0.00628584
0.00467976
0.00497042
0.00541809
0.0057101
0.00717587
0.00860923
0.00901461
0.0091575
0.00929213
0.00921647
0.00889107
0.00844349
0.00842726
0.00895744
0.00936888
0.00951554
0.00962611
0.00974019
0.0098423
0.00868776
0.00675618
0.00627148
0.0052869
0.00483002
0.00660273
0.00702525
0.006836
0.00657306
0.00750842
0.00790414
0.00805341
0.00807621
0.00810101
0.00808324
0.00799563
0.0079281
0.00781313
0.00825199
0.00888586
0.00878374
0.00868012
0.00851584
0.0081513
0.00769868
0.00718581
0.00785189
0.00839583
0.00812239
0.00598072
0.00635465
0.00721816
0.00742473
0.00899491
0.010199
0.0105363
0.0105198
0.0103913
0.0103527
0.00932638
0.00839055
0.00823853
0.00960393
0.015601
0.0154381
0.0154705
0.015396
0.0148139
0.0146414
0.0140661
0.0138056
0.0130961
0.0126353
0.0119466
0.0139954
0.0177756
0.0198891
0.0222768
0.0247954
0.0233977
0.0188649
0.0166101
0.0101333
0.00799313
0.00689348
0.00597368
0.00527712
0.00507098
0.00754781
0.00942995
0.0116258
0.0136033
0.0139248
0.0163712
0.0203391
0.0309632
0.0491926
0.0415057
0.0391478
0.0393796
0.0972609
2.54554
2.72017
2.48559
2.89054
3.32924
0.39071
0.151213
0.280777
0.296355
0.328506
0.307244
0.28049
0.257186
0.269636
0.258918
0.270921
0.252569
0.260946
0.227749
0.232658
0.242005
0.721761
1.05796
1.27211
1.77191
1.76776
1.99257
1.93863
1.95428
1.80429
1.92026
1.66909
1.38445
1.30939
1.23796
1.32938
1.4456
1.25427
1.1374
1.02077
0.929156
0.796875
1.01071
0.767149
0.725257
0.723987
0.756532
1.00796
0.918069
1.05654
0.975752
1.01625
0.610135
0.683346
0.496593
0.412719
0.342682
0.410267
0.550799
0.734412
0.922104
0.713835
0.975889
0.906381
0.902338
0.859005
0.782278
0.742478
0.729551
0.750772
0.763678
0.779354
0.807793
0.829541
0.848999
1.00167
1.068
1.05948
0.867446
0.774407
0.535758
0.573803
0.607443
0.610323
0.567822
0.55005
0.499947
0.487475
0.442984
0.42365
0.385772
0.366339
0.334332
0.461641
0.788431
0.818099
0.888664
0.941412
0.992555
1.01453
1.03276
1.01589
0.982957
0.911597
0.879703
0.815576
0.925619
1.11287
1.11055
1.0204
0.866808
0.820392
3.82176
4.64594
3.07718
6.63174
10.08
16.9069
7.68057
2.08184
3.48659
2.39626
2.12676
2.07362
2.19021
3.45244
2.52469
3.29855
2.7444
2.87956
2.26621
2.50393
2.34925
1.79364
1.50239
1.26937
1.14597
0.932578
0.921416
0.760852
0.712726
0.66543
0.556082
0.6865
0.706441
1.72959
2.33623
2.90946
4.56034
4.99937
5.45846
8.5965
6.93326
8.65617
5.14035
5.20255
3.84617
3.61728
3.65718
5.03092
7.20673
4.96176
8.66675
4.82745
15.6548
35.0201
9.22702
19.1152
11.0211
9.95932
9.59447
9.8823
14.0511
9.58832
15.5753
13.1654
17.5091
17.1133
18.0447
13.8821
10.2756
11.2215
12.0094
15.4024
10.9301
12.5445
9.5755
9.36022
8.84939
7.32717
6.56829
5.05827
6.011
7.03888
8.02728
12.7756
15.9783
18.3284
22.0864
16.2699
18.5428
11.1605
12.2741
9.4784
8.89691
9.036
11.8939
21.0799
14.9253
27.3306
0.499704
0.226478
0.547574
0.230173
0.488271
0.391458
0.404014
0.404944
0.400651
0.462435
0.22065
0.185449
0.177636
0.175477
0.177005
0.100364
0.124629
0.0805187
0.12706
0.22972
0.505914
0.366554
0.140728
0.0826918
0.0546647
0.0429988
0.0635466
0.0613422
0.0981005
0.0994651
0.105817
0.132411
0.228621
0.434589
31.8821
7.13834
1.13713
0.534029
0.283988
0.174485
0.151214
0.170991
0.184044
0.187082
0.176085
0.150154
0.108338
0.0723879
0.0491083
0.0416114
0.03035
0.0274951
0.0391221
0.0529607
0.0491513
0.0648808
0.083269
0.106039
0.130312
0.149698
0.164312
0.168291
0.15628
0.122321
0.0804837
0.0443573
0.0265191
0.0228702
0.0209415
0.0194444
0.0167981
0.0145952
0.0131689
0.0112526
0.00991908
0.00895045
0.00863888
0.00876255
0.00956449
0.0120987
0.0145608
0.0188542
0.0179758
0.0134595
0.0126168
0.0078161
0.00722724
0.00737638
0.00762898
0.00845329
0.0132239
0.0135308
0.0134079
0.0134322
0.013249
0.013228
0.0130574
0.0128851
0.0126649
0.0122413
0.0119504
0.0114277
0.011146
0.0104837
0.0105103
0.010868
0.011167
0.0101042
0.00999177
0.00930936
0.0206149
0.0490887
0.0702188
0.078654
0.08842
0.0811057
0.0420007
0.0230928
0.00790169
0.00767658
0.00817746
0.00880796
0.00836417
0.00617407
0.00672128
0.00789299
0.0110911
0.0110603
0.0110948
0.0129619
0.0135114
0.0148814
0.0154341
0.0158216
0.0160535
0.0159864
0.0161197
0.015832
0.0159269
0.0157199
0.0158095
0.0154039
0.0273446
0.0257551
0.0264914
0.0265259
0.027732
0.0272088
0.0267054
0.0257096
0.0249941
0.0234527
0.0218557
0.0202517
0.0181198
0.0188455
0.0181777
0.0113066
0.010722
0.00767158
0.00772176
0.00742541
0.0102178
0.00929275
0.00780811
0.00916108
0.00672121
0.00690462
0.00724842
0.0103421
0.0108742
0.0173483
0.0173762
0.0154147
0.0164126
0.0174623
0.0188113
0.0199787
0.021415
0.0224221
0.0235234
0.0254388
0.0258692
0.0241145
0.0237716
0.0226445
0.0245676
0.0235331
0.0218084
0.0233925
0.0250355
0.027575
0.0272397
0.0250433
0.0237107
0.0222902
0.019956
0.0173073
0.0159071
0.014881
0.0148832
0.0138234
0.016098
0.0144949
0.0100877
0.0105726
0.00816645
0.0063344
0.00601459
0.00922162
0.0132053
0.0282237
0.0176348
0.009491
0.0108179
0.0174599
0.0365522
0.0219044
0.0356353
0.0148364
0.0165562
0.0125575
0.0125486
0.0138315
0.0161284
0.0172405
0.0209169
0.0236022
0.0256087
0.026534
0.027864
0.0282606
0.0296885
0.0301402
0.032887
0.0331498
0.0332007
0.0327339
0.0303373
0.0272775
0.0250882
0.0310374
0.035948
0.0392449
0.0416686
0.0441268
0.042839
0.0390779
0.0381911
0.0362522
0.0351209
0.0337027
0.0305746
0.0267312
0.0219199
0.0213026
0.0273062
0.0330528
0.0493361
0.0533721
0.0531078
0.0554187
0.0559367
0.0577052
0.0581553
0.0608243
0.0614093
0.0625853
0.062928
0.0682369
0.0691377
0.0701472
0.0704775
0.070166
0.0711288
0.0711533
0.0483678
0.0433612
0.0393109
0.032632
0.0273137
0.0346706
0.0432153
0.048432
0.0739151
0.0743653
0.0780957
0.0807156
0.0856904
0.0893881
0.0942933
0.0987809
0.103186
0.10658
0.108625
0.108908
0.10936
0.108357
0.107046
0.115769
0.150386
0.166982
0.197782
0.212894
0.225345
0.229151
0.220622
0.224534
0.216599
0.21923
0.213178
0.211311
0.206196
0.199919
0.19644
0.190139
0.18611
0.214401
0.162399
0.12467
0.0828906
0.0666065
0.0599047
0.0565389
0.0589123
0.0458061
0.0392314
0.0583386
0.0539471
0.0434531
0.0295142
0.0188435
0.0319754
0.0476033
0.064507
0.0816925
0.097394
0.107672
0.11027
0.109232
0.10451
0.0967013
0.0815599
0.0614475
0.0422468
0.0348414
0.032151
0.0281779
0.0222156
0.0178521
0.0157295
0.0141401
0.0123708
0.0111202
0.0105672
0.0107253
0.0110362
0.0132342
0.0173165
0.017307
0.0116015
0.0111514
0.00767198
0.00776048
0.0080178
0.0133385
0.0134824
0.0209077
0.023349
0.021989
0.0226739
0.0224048
0.0226953
0.0223311
0.0211426
0.0203035
0.0193392
0.0184953
0.017752
0.0169273
0.0161213
0.0174287
0.0163769
0.0138139
0.0139362
0.0145529
0.0151994
0.0160872
0.01734
0.0184172
0.0211134
0.0212934
0.0207972
0.0208935
0.0194271
0.0187157
0.0199712
0.0194997
0.0132844
0.0131097
0.0191367
0.0187872
0.0186715
0.0224869
0.0208996
0.0214216
0.0225486
0.0224302
0.0194886
0.0181288
0.0165816
0.0153986
0.0140198
0.0125046
0.0121226
0.0148547
0.0130665
0.010737
0.0119377
0.0143427
0.0169539
0.0184171
0.0204036
0.0231195
0.0240913
0.0263261
0.0277466
0.0298419
0.0306818
0.035498
0.036169
0.0340347
0.03219
0.0311944
0.0274275
0.0234957
0.0259125
0.026779
0.0271545
0.0272552
0.027128
0.0235445
0.0231115
0.0215955
0.0210781
0.0195104
0.0189493
0.0177853
0.017023
0.0159997
0.0141713
0.0134603
0.0126457
0.012292
0.0173487
0.0108307
0.01058
0.0159777
0.0098402
0.011578
0.0113287
0.0118509
0.0125093
0.0103417
0.0151251
0.0103144
0.0112123
0.0114527
0.0143823
0.00997873
0.0210227
0.0645133
0.0931283
0.11206
0.203515
0.243758
0.264004
0.284685
0.298789
0.314778
0.332322
0.350022
0.36311
0.364571
0.338885
0.32035
0.255291
0.228569
0.252434
0.282708
0.194915
0.167208
0.169511
0.170382
0.17299
0.174273
0.177953
0.175938
0.181051
0.176707
0.184033
0.178025
0.184547
0.177104
0.161689
0.145027
0.112377
0.101593
0.0655228
0.0507334
0.0396831
0.0287953
0.0209732
0.0188185
0.017807
0.0164509
0.0165346
0.0126706
0.0131047
0.00839632
0.00616924
0.00986133
0.00969655
0.00722026
0.00982688
0.0112265
0.011742
0.0122801
0.0125726
0.0192281
0.0192665
0.0246866
0.0245832
0.0291571
0.0347624
0.0360012
0.0396488
0.0569989
0.0575074
0.0572518
0.0570587
0.0566253
0.0493963
0.0491143
0.0480062
0.0474176
0.0444764
0.0439207
0.0418428
0.0407053
0.037767
0.0369425
0.0358144
0.0362724
0.0406244
0.0558803
0.0989865
0.0294974
0.0280976
0.0206327
0.0145531
0.0213807
0.0158916
0.0154343
0.013609
0.0186808
0.0134444
0.0136935
0.0164989
0.0170191
0.0164233
0.0214414
0.0267002
0.0234196
0.0258973
0.116876
0.0755045
0.0245447
0.0484137
0.0718784
0.157904
0.204287
0.140005
0.159913
0.184057
0.167046
0.140218
0.109643
0.0816915
0.0580334
0.0447952
0.0113416
0.0133706
0.0185329
0.0410353
0.0608785
0.101339
0.0834117
0.10901
0.148983
0.173508
0.209574
0.201089
0.172921
0.148778
0.145365
0.160518
0.162856
0.105526
0.102461
0.0775625
0.173866
0.219204
0.184613
0.231893
0.244669
0.143776
0.0318309
0.018355
0.0151079
0.0139064
0.0124259
0.019372
0.0114468
0.0116369
0.0123513
0.0132653
0.0169315
0.029395
0.013423
0.0149123
0.0183352
0.0158859
0.0149304
0.0146252
0.0145399
0.0151667
0.0165299
0.0215638
0.0216421
0.0212816
0.0159709
0.0172636
0.0156791
0.0199847
0.0211826
0.0332581
0.0152422
0.0161837
0.0214679
0.477352
0.0246033
0.0178071
0.0232006
0.0218663
0.0300776
0.0440295
0.458739
0.0441028
0.035094
0.0585646
0.0608203
0.0654676
0.069137
0.0726483
0.0751721
0.0791205
0.0817862
0.0830149
0.0842388
0.0999408
0.0999478
0.0988861
0.103485
0.0976237
0.0576718
0.0578906
0.0974498
0.105185
0.0594368
0.041047
0.0385413
0.0312378
0.0323733
0.0419223
0.0439891
0.0616737
0.0615031
0.102577
0.0935389
0.0949358
0.0966733
0.0916635
0.0921259
0.0941896
0.094149
0.0753555
0.0730536
0.0712946
0.0682365
0.0646964
0.0617964
0.0589006
0.0558495
0.0532924
0.0534815
0.0583869
0.0583837
0.0662175
0.0736008
0.223982
0.152223
0.108583
0.0803568
0.0652484
0.0589796
0.058479
0.0616285
0.0648533
0.0665145
0.0673194
0.0706751
0.0924289
0.0948666
0.0977339
0.0951786
0.0990109
0.097073
0.0946106
0.104517
0.112357
0.0656705
0.067752
0.0478391
0.0446405
0.0325699
0.0331364
0.0236394
0.0195949
0.0195724
0.0195515
0.0197845
0.0226786
0.0317118
0.0318127
0.0464931
0.0463925
0.0518225
0.075435
0.0724827
0.129259
0.118452
0.10877
0.101429
0.101803
0.103924
0.106512
0.101499
0.097757
0.0922011
0.0724174
0.068422
0.066287
0.0650387
0.0638039
0.0673894
0.0910837
0.147834
0.226437
0.33261
0.433704
0.444015
0.401784
0.251452
0.291157
0.144996
0.16532
0.18746
0.162947
0.17205
0.320444
0.266575
0.377654
0.482953
0.536967
0.603625
0.641008
0.629664
0.500562
0.325589
0.333144
0.443139
0.7707
0.864258
0.744961
0.76284
0.659495
0.541373
0.522962
0.498304
0.562308
0.613336
0.578818
0.595815
0.539926
0.515582
0.44552
0.497145
0.363233
0.327155
0.307525
0.298666
0.357874
0.28957
0.326135
0.268035
0.274253
0.222831
0.228338
0.190627
0.145935
0.138344
0.128246
0.143574
0.162734
0.149074
0.153455
0.133989
0.1145
0.0911853
0.0984487
0.0735448
0.069586
0.0707381
0.0807098
0.126708
0.370765
0.173794
0.163685
0.167719
0.17801
0.319158
0.282744
0.724708
0.507959
0.710693
0.474808
0.563613
0.471614
0.363823
0.379411
0.419348
0.600016
0.823521
6.65834
0.284822
4.26651
3.16696
3.32529
3.47078
4.44852
7.81228
7.11216
9.39642
6.80747
9.08261
4.97527
4.9767
4.32586
4.47119
4.43905
4.26263
5.19904
6.64395
0.238773
0.0909962
0.0854272
0.0856076
0.0873837
0.197732
0.0525624
0.202007
0.0539649
0.213466
0.0495218
0.246666
0.1969
0.0382389
0.0192585
0.0200906
0.0168074
0.0203755
0.016923
0.025047
0.0235422
0.0236999
0.0265903
0.0763066
0.292239
13.8187
1.66537
0.695297
0.794706
1.18956
0.808761
1.20933
1.67923
1.1302
0.564438
0.370041
0.436413
0.52755
0.503654
0.642343
0.924498
0.9046
0.711219
0.715269
0.630679
0.889818
0.898693
1.06493
1.24339
1.13773
0.89207
0.703088
0.59488
1.0242
1.02914
0.962361
0.408131
0.115228
0.0470056
0.0493011
0.0357604
0.0377538
0.0348324
0.0552994
0.161642
0.222035
0.133936
0.431481
0.416154
0.566047
0.403992
0.413771
0.326883
0.350989
0.535385
0.584844
0.644591
0.675813
0.726556
0.671301
1.28895
2.20735
2.49716
12.8568
17.4268
3.20533
3.0991
13.9536
0.31507
0.0839155
0.0233197
0.0174319
0.0162173
0.01613
0.0150011
0.0155385
0.0160002
0.0169641
0.0188298
0.0231975
0.045838
0.201493
0.203465
0.0643532
0.0324339
0.0229723
0.0196174
0.0170471
0.0163876
0.0155321
0.0154598
0.0150085
0.0156583
0.0174652
0.0237835
0.0774488
0.271107
11.3326
2.4395
2.25834
8.38697
5.79784
0.206795
0.0438027
0.020096
0.0169276
0.0158845
0.0167547
0.0162664
0.0182122
0.0184032
0.023018
0.025024
0.0317713
0.0570907
0.110221
0.31569
9.59538
8.66539
8.38859
7.82367
0.310314
0.11525
0.0544095
0.0382376
0.0346288
0.0338231
0.022651
0.0236761
0.0189837
0.0216435
0.0182967
0.022686
0.0483218
0.211967
5.35548
1.57301
1.70392
1.21078
0.613858
0.656516
0.670429
0.690019
1.77702
4.06482
4.99736
3.43255
3.36504
4.71309
3.17476
2.48474
1.83146
1.74961
2.54892
1.9655
1.82753
1.3583
1.46805
1.06892
1.46866
0.812126
0.977962
1.07415
1.533
1.39902
1.41193
0.909519
1.0517
1.47698
1.72712
1.65095
0.844931
1.22838
1.01516
0.655589
0.608119
0.634684
0.604509
0.579215
0.575952
0.580334
0.559215
0.576621
0.556824
0.588875
0.548493
0.533645
0.507821
0.527517
0.545013
0.577654
0.360289
0.422717
0.427173
0.441653
0.45422
0.375235
0.45136
0.44228
0.659696
0.99579
0.835875
1.15458
0.68037
1.00474
2.0095
5.21229
2.35151
0.82114
1.34925
1.58457
1.14018
0.628861
2.55436
3.56137
1.23128
1.78578
10.3853
8.43407
16.5167
10.9734
18.6381
6.03895
4.63687
17.8087
6.67811
6.91461
4.51796
4.5239
2.96112
1.58659
1.63038
1.74344
1.22831
1.30122
1.21128
1.13469
1.47589
1.44145
1.88827
2.03732
2.58036
1.81337
1.77776
2.60157
1.06468
1.40174
1.83968
1.83174
1.36172
2.34533
3.16062
2.97311
2.14291
2.33907
3.50738
4.82193
4.58256
3.17295
3.9726
10.1378
13.5295
13.6937
4.22676
19.3194
18.3121
2.08171
0.568027
0.325489
0.0898197
0.0445698
0.0366537
0.0386972
0.143716
0.0458205
0.0570753
0.0455638
0.0732748
0.0699235
0.0873704
0.218673
0.126776
0.216706
0.155961
0.190692
0.121711
0.194613
0.22814
0.238171
0.18972
0.116435
0.21431
0.308448
0.106705
0.356345
0.391936
0.261838
0.334333
0.398219
0.197785
0.99702
0.185688
0.127617
0.147427
0.394866
1.26355
0.219404
0.462876
4.48472
14.7245
3.68736
0.940541
0.682277
0.0555432
0.0301414
0.0318616
0.0278905
0.0194028
0.0841752
0.0989203
0.405703
0.20884
0.278512
0.66247
2.93055
2.4014
1.12955
5.4982
10.2815
15.1602
9.14156