/*--------------------------------*- C++ -*----------------------------------*\
| =========                 |                                                 |
| \\      /  F ield         | OpenFOAM: The Open Source CFD Toolbox           |
|  \\    /   O peration     | Version:  v2012                                 |
|   \\  /    A nd           | Website:  www.openfoam.com                      |
|    \\/     M anipulation  |                                                 |
\*---------------------------------------------------------------------------*/
FoamFile
{
    version     2.0;
    format      ascii;
    class       surfaceScalarField;
    location    "385";
    object      phi;
}
// * * * * * * * * * * * * * * * * * * * * * * * * * * * * * * * * * * * * * //

dimensions      [1 0 -1 0 0 0 0];
oriented        oriented;


internalField   nonuniform List<scalar> 
50655
(
0.00258043
-0.00360908
-0.00140155
-0.00513095
0.00135019
0.00362136
-0.00340781
0.00391157
0.00448809
-0.00249786
-0.00281833
0.00303071
-0.00369902
-0.00378018
0.00268293
-0.00178388
-0.00483726
0.000828857
0.000181122
-0.00469763
0.00161759
-0.0018278
-0.00719815
0.00241298
-0.0104888
0.00284522
0.000346647
-0.0113122
-0.00346624
0.00417964
-0.0120634
-0.00484676
0.00549551
-0.0129227
-0.00564007
0.00639528
-0.0262062
-0.00932421
0.0224137
-0.0487289
-0.0282833
0.0502457
-0.0482995
-0.0527561
0.0516294
-0.0310651
-0.0711518
0.0531395
-0.00453008
-0.0779993
0.0506812
0.00790402
-0.0546605
0.0414151
-0.0016328
-0.0314514
0.0402154
-0.0208466
-0.0217076
0.0401547
-0.0166973
-0.0512653
0.0463936
-0.0068894
-0.0550407
0.0446752
-0.0386066
0.0313881
-0.0409039
0.0188277
-0.0168316
-0.0155751
-0.0755099
0.0496864
0.0203362
-0.0797387
0.043331
0.0305616
-0.0290704
0.0185379
0.0339906
-0.00376629
0.0364089
0.0179327
-0.0206735
0.0252428
-0.0179268
0.0288169
0.0163072
-0.00947979
0.0182462
0.0032129
-0.00131114
0.0142785
-0.00655333
0.00672188
0.00294908
-0.00542872
2.25557e-05
-0.00118786
-0.00539344
-0.00127352
0.00121985
-0.00631893
0.000274607
0.000633597
-0.00759166
0.0002655
0.000990634
-0.00874573
0.000143356
0.000993577
-0.0091477
-0.000201739
0.000587344
-0.00941998
-0.000617089
0.000872779
-0.00898313
-0.0010421
0.000588972
-0.00835982
-0.00150615
0.000866163
-0.00713453
-0.00195017
0.000708451
-0.00571106
-0.00240975
0.000969421
-0.00383228
-0.00271022
0.000815266
-0.00199165
-0.00290338
0.00104579
0.00088407
-0.00289331
0.000634976
-0.00256651
0.00278996
-0.00535098
0.00504779
0.000896398
-0.010775
0.00480108
0.0005664
-0.0129624
0.00521134
-0.00309088
-0.0128725
0.00540963
-0.00556652
-0.0053818
0.00466988
-0.012217
0.000521325
0.00561743
-0.0115623
0.000604306
0.00357514
-0.00368376
-0.00150041
0.00208713
-0.00294464
0.00214102
-0.000713924
-0.00450189
0.00218835
-0.000647248
-0.00581438
0.00234694
-0.00105084
-0.00708099
0.00230425
-0.00105259
-0.00858249
0.00249617
-0.00100869
-0.0101488
0.00258255
-0.00102961
-0.011445
0.00237562
-0.00109257
-0.0123488
0.00201509
-0.00112427
-0.0128181
0.00160283
-0.00114664
-0.0131379
0.00143758
-0.00113103
-0.0137433
0.00156515
-0.000973989
-0.013952
0.00112134
-0.000927659
-0.013659
0.000895395
-0.00120389
-0.0136504
0.000781283
-0.000805537
-0.0133767
0.000825554
-0.00111528
-0.01313
0.000900081
-0.00116276
-0.0129856
0.000842987
-0.00100314
-0.0127099
0.000573126
-0.000864399
-0.0121707
0.000124218
-0.000678881
-0.0112698
-0.000451201
-0.000465021
-0.0101492
-0.000910868
-0.000225046
-0.0088318
-0.00100666
-0.000325488
-0.00738363
-0.000757119
-0.000704904
-0.00758124
-0.000689796
0.000875406
-0.0163862
0.000824438
0.00795392
-0.0211569
0.000401939
0.00430823
-0.0226011
0.00114947
0.000229533
-0.0425831
0.0163471
0.00351743
-0.0545674
0.00559516
0.00609082
-0.0294623
-0.0163095
-0.0091032
-0.0131147
-0.0149532
-0.0015265
-0.011257
-0.00398937
0.00205363
-0.0100029
-0.00307826
0.00173408
-0.00808471
-0.00342827
0.00140859
-0.00472203
-0.00329189
-0.000166068
-0.00317673
-0.00163061
-0.00444232
0.00459064
-0.00341993
-0.00266524
0.00673142
-0.00862213
0.00091972
0.0062098
-0.00992695
0.00620857
0.00589975
-0.0113334
0.0149693
0.00879273
-0.0177345
0.0285069
0.0137737
-0.027594
0.0248768
0.0196622
-0.0163135
0.0164897
0.00637844
0.00182398
0.0077535
7.11681e-05
0.00851768
-0.00115604
-0.00400804
0.0127827
-0.0044821
-0.00681399
0.0100237
-0.0075775
0.00541094
0.00441349
0.000984882
-0.0102281
0.00214675
-0.00825158
0.00359065
-0.00502904
-0.00432919
0.00737115
-0.0124548
0.00202806
0.00533607
-0.0143204
0.00569892
0.00240826
-0.0384576
0.0269602
0.0232396
-0.00698192
-0.0133082
0.0371052
-0.00975588
-0.0393024
-0.00481765
0.00928489
-0.00911724
-0.000561339
0.00896697
-0.0074536
0.00265249
0.00958677
-0.00671322
0.00457369
0.009605
-0.00490471
0.0071233
-0.00134468
0.0112679
-0.00497031
-0.00271972
0.0124452
-0.00190305
-0.00245492
0.00882151
-0.000396334
-0.00415182
-0.00203025
-0.0210802
-0.00214083
0.0295582
-0.0106635
-0.0143244
-0.00168414
-0.00712046
-0.00250469
-0.00733161
0.0158794
0.00130702
-0.0102683
0.0219285
0.00111225
-0.00900176
0.0324824
0.00032782
-0.0131993
0.0832292
-0.00218435
-0.0359894
0.0468049
-0.00193748
0.0455273
-0.0022397
0.00745205
-0.00312885
0.0384511
0.00386042
0.0217938
0.00195866
0.023234
-0.000317822
0.0113172
0.0139371
0.00623395
-0.00795122
0.000100861
0.0068096
0.00521613
-0.00148635
0.00732047
0.00818663
-0.00152927
0.0071215
-0.0150757
0.00797896
-0.0021047
0.00736902
-0.0153167
0.00850333
-0.00126938
0.00743565
-0.0167069
0.00841543
-0.00130948
0.00741944
-0.0160148
0.00861462
-0.000635101
0.0072835
-0.0165874
0.00860897
-0.000262336
0.00703216
-0.0159869
0.00856202
0.000703763
0.0062351
-0.01545
0.00823017
0.00576215
0.0044209
-0.0169453
0.00745153
0.00149261
-0.00415685
0.00567879
0.00273327
0.00080765
0.00538042
-0.00028155
0.000628729
0.00713929
-0.000736029
0.000782648
0.00801641
-0.00115046
0.000938153
0.00831922
-0.0012042
0.00127485
0.00838646
-0.00131697
0.00149829
0.00856107
-0.00136214
0.00150008
0.00870626
-0.001352
0.00126268
0.00871745
-0.00137087
0.000934883
0.00883264
-0.00119625
0.00730793
-0.000263639
0.00935547
-0.00200074
-0.000817894
0.0110332
-0.0018461
-0.000853729
0.0123167
-0.00154309
-0.000667109
0.0131022
-0.000307904
-0.000944536
0.0135324
0.000856276
-0.00117794
0.0137099
0.00171314
-0.00133337
0.0137086
0.0022417
-0.00141373
0.0137673
0.00225507
-0.00143026
0.0137217
0.00183182
-0.000977123
0.0137275
0.0013553
-0.000595856
0.0139085
0.00123537
-0.000536603
0.0132949
0.00115457
0.000565185
0.0124408
0.0024376
0.000237494
-0.000269986
0.0126795
-0.000414221
0.00244207
-0.000842242
0.0123393
-0.000238377
0.00280346
-0.000635353
0.0114645
-7.44127e-05
0.00311465
-0.000163433
0.0102009
4.9091e-05
0.000299331
0.00327746
0.00860182
0.000723912
0.00331428
0.000129938
0.00685694
0.00104187
0.00304774
0.000137616
0.00585169
0.000965053
0.00224115
8.83354e-05
0.00440872
0.0046226
-0.00084908
0.00285768
0.00427869
-0.000555515
0.00141544
-0.000507598
0.00407444
0.00389551
-0.000409867
0.00560433
-0.000518847
-0.00120612
0.00682711
-0.000412315
-0.000827314
0.00779955
-0.000610861
-0.000378063
0.00816546
-0.000476001
9.33754e-05
0.00822612
-0.000610593
0.000533463
0.00754217
-0.000263306
0.000930668
0.00657385
-0.000302001
0.00125376
0.00477157
0.000279002
0.0015062
0.00211691
0.00109874
0.0015388
-0.00164211
0.00204903
0.00169204
-0.00441933
0.000603722
0.00215551
-0.00594834
-0.000851786
0.00236153
-0.00723053
0.000626028
0.000634213
-0.0136572
0.000511775
0.00587005
-0.0246713
-0.00654074
0.017439
-0.0308236
-0.0160616
0.0220486
-0.0390358
-0.0259021
0.0338479
-0.0314624
0.0235044
0.0161646
-0.0382635
0.00922831
0.0257871
-0.0166467
0.00695564
-0.00456852
0.00439954
-0.0321434
0.0259776
0.00154854
-0.014628
-0.0233519
0.00580123
-0.0374777
0.00615678
0.0410748
-0.057227
-0.000828201
0.0288658
-0.0498181
0.0150993
0.0125474
-0.0100113
0.0169341
-0.0103145
0.0108757
-0.00245367
0.0188099
0.00792508
0.0111752
-0.0125625
0.0135407
0.00520329
-0.0061603
0.00131209
0.011207
0.00479694
0.00102093
0.00265365
0.00128129
-0.00105445
0.00157845
0.00271179
-0.00489275
0.00379945
0.00206635
-0.00545443
-0.000549495
0.00218895
-0.00958071
0.00195648
0.00242832
-0.00822736
-0.00370321
0.00202778
-0.0118753
0.00194186
0.00142287
-0.0089129
-0.00419476
0.000602008
-0.0112465
0.00213788
-0.000300011
-0.0073255
-0.00321844
-0.00133311
-0.00816535
0.00227538
-0.00186801
-0.00441142
-0.00173507
-0.00255694
0.00128477
-0.00254999
0.0039103
0.0117756
-0.0105782
0.0112893
0.00661313
-0.00937474
0.0126721
0.00899688
-0.00503979
0.00959653
0.010624
-0.0024068
0.00389384
0.00958744
0.000863829
0.0128388
-0.00276972
-0.00212137
0.000934613
0.0153213
-0.00569044
0.00417388
-0.00323846
0.00219709
0.0152489
-0.00734763
-0.00304568
0.00332438
0.00706802
0.0106173
-0.00782738
-0.00266098
0.00334311
0.0117028
0.00182374
-0.0066726
-0.001978
0.00120899
0.0161501
-0.0010444
-0.00422467
0.0075169
-0.000513471
-0.00522005
0.0109471
-0.000157668
-0.0103389
0.0126484
-0.00895219
-0.0142451
-0.0141107
0.00842705
0.00568957
-0.0240919
0.00410867
-0.0185173
0.0062254
-0.0164081
-0.0114335
0.00925514
0.00800064
0.00960418
-0.0340595
-0.0236747
0.00754821
0.0112184
0.00757888
-0.0099925
-0.032568
-0.0091186
0.00777373
-0.00160506
8.26439e-05
0.00773648
-0.00654116
-0.0104597
0.0114154
-0.00760742
-0.0141031
0.0106055
0.0104618
-0.000920156
-0.00881709
0.0102868
-0.00143736
0.00787194
-0.0079584
0.00414162
0.00105872
0.00439301
-0.00381265
0.00616149
-0.00631635
0.0139785
-0.0121567
-0.00364976
0.0108196
-0.0170416
-0.00265282
0.00570298
-0.0169759
-0.00105434
-0.00114166
0.00195572
-0.00817441
0.00819057
0.00975376
-0.00944433
0.0105922
0.0114556
-0.00494054
0.0111338
0.0121253
-0.00212309
0.0108931
0.00406881
-0.0106423
0.0112782
0.00283909
-0.00890962
0.0124208
-0.00211165
-0.00478204
0.0119612
-0.00471681
0.0098774
-0.00603081
0.00208545
0.00404787
0.00101858
0.00772032
0.00796831
-0.00172924
0.0107626
0.00911545
0.000176034
0.00788197
0.00625989
-0.00917658
0.0101345
0.000179903
-0.00719884
0.00354229
0.00350697
0.000176832
0.00156864
-0.00106547
0.00489296
-0.00682621
-0.00160235
-0.00234963
0.0187715
-0.0032662
-0.0196481
0.0169138
-0.00138082
-0.00185254
-0.0163894
-0.0118904
-0.000718077
0.00316249
-0.00875024
-0.0106268
-0.0129536
0.00636773
-0.00593693
-0.0049643
0.000809759
0.00132785
0.000378932
-0.0020917
-0.00422661
-0.000992043
0.00394497
-0.00257558
-0.000413541
0.00178031
-0.00236019
0.00127991
-0.00378734
0.00669206
0.000670858
-0.0110593
0.000654713
-0.00346837
0.0103009
-0.00345805
-0.00448391
-0.0187854
0.0137586
-0.0117629
-0.0193106
-0.0117681
0.00788193
0.00431916
-0.0265338
-0.0153864
0.00260032
0.00933096
0.0105672
-0.0355225
-0.0164693
0.0130919
0.00185082
0.0104132
-0.0422404
-0.014639
0.00985872
0.000102393
0.0112924
-0.0436225
-0.010809
0.00326328
-0.00151033
0.0103337
-0.0431317
-0.00619887
-0.00147162
-0.00182034
0.00889011
-0.0394564
-0.00337629
-0.0044846
0.00409157
-0.0347198
-0.00121483
-0.00709189
0.00649631
-0.00303427
-0.0321609
0.00130901
-0.00609781
0.00561988
-0.00349188
-0.029116
0.00261883
0.00449265
-0.00397501
-0.00628423
-0.0289217
0.0020147
0.00398324
-0.00354205
-0.00276219
-0.0298269
0.000147895
0.00185788
-0.00120767
-0.0277703
-0.00165629
0.00141139
-0.00192532
-0.0229585
-0.00269583
0.00157019
-0.00378255
-0.0301358
0.00173077
0.0226281
-0.0172571
-0.059259
0.0293244
-0.0129849
0.0124083
0.00596926
-0.0198907
-0.00141003
-0.0132561
-0.0251857
-0.00912654
-0.0122515
-0.000508877
-0.00873876
-0.0111508
0.000585931
0.000297875
-0.00942237
-0.00062898
0.000538067
-0.00579681
-0.00380109
0.00147382
-0.00309354
-0.00401891
0.00105118
-0.00453939
-0.000254434
-0.0044602
0.000796375
-0.000922817
-0.00684909
0.00204584
0.000279863
-0.0107894
0.00220032
0.00166041
-0.0131007
0.000810627
0.00142204
-0.0133672
-0.000358912
0.000555581
-0.0130761
-0.00175372
0.00140861
-0.023648
0.0014188
0.0090784
-0.056851
0.0174962
0.0155001
-0.101274
0.00879708
0.0350534
-0.117913
-0.00594074
0.0218859
-0.127247
-0.0116679
0.0202267
-0.133653
-0.0165684
0.0221396
-0.137286
-0.0222596
0.0250085
-0.1386
-0.0273235
0.0277263
-0.138514
-0.0308036
0.029794
-0.137699
-0.0329538
0.0312135
-0.13624
-0.0342015
0.0318266
-0.134092
-0.0348511
0.0318012
-0.13025
-0.0353616
0.0306479
-0.122281
0.0278692
-0.0366724
-0.103147
0.0208474
-0.0407399
-0.053382
0.00338889
-0.053773
-0.0225877
-0.00119298
-0.0298203
-0.0123687
-0.00426933
-0.00602695
-0.0120905
0.0019968
-0.00233011
-0.0111909
0.00433803
-0.00530836
-0.00875698
0.00385412
-0.00636852
-0.00424141
0.00402192
-0.00862184
-0.00478275
0.00349011
-0.00302
-0.00805112
-5.13393e-05
0.00326889
-0.00781207
0.00237145
-0.00268167
-0.00894079
0.00104091
-0.0138112
0.00697563
-0.00220382
-0.0166403
0.00714389
-0.00442472
-0.0189137
0.00764338
-0.00547258
-0.0237676
0.00700396
-0.00225476
-0.0533002
0.0187358
0.0106003
-0.0978896
-0.00810636
0.0521221
-0.110874
-0.0316889
0.0439528
-0.11234
-0.0418359
0.0424909
-0.107659
-0.0476751
0.0421717
-0.0988974
-0.0521397
0.0425214
-0.0862341
-0.0543539
0.040866
-0.0692982
-0.0558501
0.0380943
-0.0495928
-0.0568278
0.0363565
-0.0239182
-0.0481019
0.0217906
-0.0375587
0.0132018
-0.0534185
0.023529
-0.00813632
-0.0592881
0.0258285
-0.0204617
-0.059396
0.0271572
-0.0275755
-0.050423
0.0269193
-0.0364186
-0.0403782
0.0247445
-0.035292
-0.0231899
0.0167255
-0.034381
0.00922336
-0.0328519
0.0269958
0.0382645
-0.0566736
0.0507443
0.0496463
-0.0741607
0.0745922
0.0497314
-0.074399
0.0947739
0.0499421
-0.0709482
0.110522
0.047128
-0.063733
0.11876
0.0397867
-0.0488463
0.116739
0.0329928
-0.0317831
0.101081
0.0300886
-0.0151506
0.054417
0.0398466
0.00624427
0.0254341
0.0250242
0.00376229
0.0213334
0.00417944
-0.000183423
0.0194274
0.000595306
0.00120815
0.0158543
0.000301594
0.00316162
0.00912267
-0.000247121
0.00688019
-0.000926042
0.00996093
-0.000966533
-0.00970997
0.00965471
0.000721183
-0.0130928
0.0112961
0.002561
-0.0142205
0.0122575
0.00406316
-0.0135522
0.0119145
0.00430627
-0.0191359
0.0187149
0.00781515
-0.028585
0.024791
0.00379451
0.0235816
-0.0198447
-0.00021969
0.0168675
-0.0130325
-0.000417052
0.00842176
-0.00836006
-0.000579787
0.00773474
-0.0076952
-0.00111507
0.00736424
-0.00693794
0.00631098
-0.00648091
0.00345745
0.00545429
-0.000291857
0.00323761
0.00618805
0.00132397
0.00332891
0.00591146
0.00165424
0.00398304
0.00478163
0.00290777
0.010326
0.0115812
-0.0011624
0.0193751
-0.00897975
-0.000114789
0.00910448
-0.00419214
0.014422
-0.0230029
-0.0113967
0.0434342
-0.0155223
-0.00574797
-0.00181111
-0.000977068
0.00357368
0.00486649
-0.00943296
0.00604632
-0.00259818
0.00362203
-0.00178277
-0.0082499
0.000446655
-0.00915597
-0.010247
-0.0126317
0.0184059
-0.00480866
-0.0307034
0.00322578
0.00366035
0.00405716
-0.0175586
-0.0495923
0.00588241
0.0101263
0.000832991
-0.0580735
-0.0156663
0.02617
-0.00422685
-0.0203756
0.006162
-0.00325042
-0.0202653
0.00560413
-0.00227109
-0.0206262
0.00530183
-0.000899494
-0.0190102
0.0044333
-0.0149816
0.00402832
-0.0211083
0.00226856
0.00403489
-0.0219187
-0.00133487
0.00262637
-0.0178623
8.51361e-05
0.00545147
0.00164558
-0.0465137
0.0354035
0.00831473
0.00803085
-0.11486
0.0350796
0.0514099
0.020812
-0.124914
0.0473434
-0.00805589
-0.125734
0.0548421
-0.0218957
-0.117889
0.064618
-0.0335525
-0.102951
0.0732812
-0.0419731
-0.0838711
0.077015
-0.0470208
-0.0614046
0.0747862
-0.0483605
-0.0367213
0.0744429
-0.0502939
0.0505875
-0.0328861
0.0589868
0.0459804
-0.0302427
0.0685464
0.0519572
-0.0352224
0.0688497
0.0531482
-0.0269192
0.0634004
0.0508904
-0.0202202
0.0441333
-0.00587322
-0.0882862
0.0719457
0.00283195
-0.0980911
0.0755704
-0.0157838
-0.0995773
0.0800004
-0.0263083
-0.0882738
0.0791771
-0.0394656
0.0718203
-0.0405794
0.088082
0.0942614
-0.0366278
0.0976758
0.10152
-0.0328657
0.094541
0.101005
-0.0187995
0.081962
0.0959945
-0.00873603
0.0903213
0.00689708
-0.0812938
0.103358
0.0130357
-0.0945132
0.1104
-0.00210804
-0.0984168
0.11583
-0.0118817
-0.0905514
0.116661
-0.0239676
0.111167
-0.0313632
0.0870887
0.123991
-0.027568
0.0947261
0.128045
-0.0199982
0.09129
0.126234
-0.00794478
0.0783533
0.120185
0.00221635
0.111994
0.0166949
-0.0724791
0.116547
0.0193741
-0.0844323
0.125258
0.00594215
-0.0867841
0.131804
-0.00419757
-0.078883
0.134173
-0.015008
0.131099
-0.0223102
0.068265
0.131803
-0.015063
0.07615
0.134543
-0.00923196
0.0750492
0.13097
0.000956985
0.0641027
0.1246
0.010668
0.115354
0.0225931
-0.0526106
0.105649
0.0297723
-0.0646487
0.116164
0.0195315
-0.0642152
0.119723
0.00985082
-0.0562789
0.12513
0.000512637
0.126015
-0.00409108
0.0352004
0.0190939
0.0612808
0.0445809
0.051471
0.094565
0.0134198
0.0547575
0.092337
0.0232242
0.0357579
0.0482358
0.0451478
0.0408406
0.0444726
0.036471
0.0514653
-0.0123027
0.0268158
0.01537
0.0143732
-0.0187339
0.0276303
0.0150703
-0.0152916
0.0310903
0.0134998
-0.0135542
0.0290079
0.0141934
-0.0399853
0.0275346
0.0407287
-0.000825195
0.0248151
-0.0283959
-0.00828281
0.0384536
0.00578929
-0.0369853
-0.00680487
0.0299286
0.00547047
-0.0370536
-0.00459748
0.0290512
-0.0365094
0.00508096
0.0258496
0.00345955
0.0038138
0.00514019
0.00492626
0.00714176
0.00681043
0.00759999
0.00903208
0.00890885
0.00837887
-0.00413833
-0.0199134
0.0156582
0.00266175
-0.000609668
0.000589023
0.00623757
0.00289474
0.000297222
-0.000534252
0.000353216
0.00408428
-0.00154762
-0.00243519
-0.00132143
0.00410566
-0.0016525
-0.000489104
0.00117576
0.0105826
0.0120699
0.0315616
-0.0531199
0.00538843
0.0177535
-0.00423118
-0.00727997
0.0567474
0.00123348
-0.0150535
0.00283436
0.00352926
-0.00654096
0.00504137
0.003975
-0.00619673
-0.0221825
0.00968495
0.0174987
-0.00939239
-0.012517
-0.000316768
0.0179099
-0.0025651
0.0239058
-0.00788342
0.0462132
-0.0126921
0.0215728
0.0765171
-0.0248361
-0.0326
0.00460386
0.00707942
0.0297334
0.00213407
-0.0175335
0.00802863
0.0136453
-0.00404616
-0.0106407
0.00846384
0.0149434
-0.0040412
-0.011444
0.00756756
0.0144174
-0.00236044
-0.0112672
0.00612345
0.0127726
-0.0104177
-0.00100935
0.00366841
0.0105133
-0.00878344
0.000637876
0.00871459
-0.00789076
0.00276416
0.0084174
-0.00315265
0.00337912
0.00801548
-0.00279746
0.00314432
0.0151528
-0.00807474
0.000860169
0.039175
-0.0159444
-0.00829654
0.0726532
-0.0388853
0.0047885
0.0827035
-0.0276433
0.0168335
0.0842486
-0.0235027
0.0211238
0.0816785
-0.0202403
0.021938
0.0764943
-0.0158028
0.020084
0.0695015
-0.00870148
0.0147759
0.0600536
0.00176563
0.0067542
0.0415137
0.0176636
-5.157e-05
0.0140718
0.0416177
-0.0150938
-0.00584476
0.0553335
-0.0363192
-0.00195859
0.0502812
-0.0550393
0.0121552
0.0392652
-0.0542121
0.015506
0.0263287
-0.0304378
0.00960433
0.0288775
-0.0235931
0.00211647
0.0113207
-0.00405117
0.000400748
0.0038192
-0.00218044
-0.000421685
0.00177362
-0.00100579
-0.00208538
0.00327019
-0.00167601
0.00316012
-0.00229257
0.00321978
0.00524622
-0.0014794
0.000219387
0.00662077
-0.000425624
0.0021532
-0.000181762
0.0065495
-0.000605749
0.00172966
0.00596087
-0.00381007
0.00255626
0.00564004
0.00622735
0.00101176
0.011827
0.0171527
-0.0108481
0.0154059
-0.0102823
0.023449
0.0240836
-0.0297768
0.0433463
0.0144943
-0.0440523
0.050604
0.0130176
-0.06239
0.046456
0.0262627
-0.0783774
0.029516
0.0271239
-0.0894123
0.00774842
0.0199776
-0.0949767
-0.00857017
0.0149273
-0.0984067
-0.0208381
0.0146003
-0.100598
-0.0294167
0.0148513
-0.100793
-0.0351859
0.0142032
-0.0974237
-0.0395526
0.0117594
-0.0885628
-0.0439524
0.0065399
-0.0318503
-0.0405394
-0.044779
-0.0112627
-0.0184014
-0.0104212
-0.019144
0.00262096
-0.0153554
-0.00710487
0.00132466
-0.00574614
0.00026348
-0.00942217
0.000856831
-0.0038031
0.00166508
-0.00748909
0.000998813
-0.00881549
0.0158125
-0.000174742
-0.0079618
0.0158246
-0.00183518
-0.00615778
0.0139196
-0.00215983
-0.00208242
0.0197915
0.00572533
0.0204979
0.106928
-0.0446411
-0.00947654
0.00401598
0.0306785
0.00548967
0.00762382
0.0105061
-0.000246397
0.00843238
0.0142687
0.000668567
0.0151237
0.00192626
-0.0162534
-0.0197281
-0.0126672
0.0307807
-0.0202302
0.0462511
-0.0178379
-0.0511581
0.10682
-0.0245159
-0.0522205
0.121773
-0.0149475
-0.104349
-0.0445
0.125604
-0.0301404
-0.0751853
-0.0286418
-0.0174771
-0.0288124
-0.0143484
-0.00293654
-0.0402586
0.0170087
-0.00214896
-0.0241301
-0.00526454
0.027936
-0.00546872
-0.00855455
0.0163431
-0.00787142
-0.00931866
0.0144282
-0.00619644
-0.00947108
-0.0118216
-0.00275185
0.0501239
-0.0212265
-0.0125643
-0.00612219
0.000616385
-0.0119066
-0.00850724
-0.000103372
-0.00873378
-0.00717402
-0.00155986
-0.00495698
-0.0044507
-0.00157475
-4.33168e-06
-0.000774872
-0.00379788
-0.000446174
-0.00984478
2.51388e-05
0.000450272
0.00126969
-0.00171171
0.00136792
-0.00208707
0.00336057
0.00174659
-0.00265921
0.00436868
0.00205808
-0.00198555
0.00370945
0.00175177
0.00266538
0.000705864
0.00452325
0.00262844
-0.00106511
0.00472777
0.00383343
-0.000404275
0.0045844
0.00491482
-0.000483803
0.00482621
-0.000752576
-0.00640193
0.0108637
-0.00419675
-0.00622354
0.0108886
-0.00626387
-0.00534997
0.0100439
-0.00718958
0.00900438
-0.00779521
0.006582
0.0118616
-0.00567244
0.00801421
0.0135866
-0.00507359
0.00820714
0.0151067
-0.00451757
0.0149127
-0.00312246
-0.00921483
0.0168523
-0.00133237
-0.00933136
0.0178583
-0.00274119
-0.00966627
0.0177556
-0.00393846
0.0104708
-0.00401396
0.0128639
-0.000418064
0.0102408
-0.00167511
0.00750896
0.0232757
-0.00290153
0.00736877
0.018294
-0.000385603
0.0172878
0.000732414
-0.00886642
0.0484534
-0.0251831
-0.00521086
0.042122
-0.0276281
0.0449763
-0.0282763
0.0294444
0.117607
-0.0575477
0.12744
-0.0450257
0.0508358
0.134874
-0.0387221
-0.0205939
0.0554695
0.134778
-0.0149237
0.0520716
0.130011
-0.00595605
0.115188
-0.00129553
-0.0502567
0.119648
0.0052237
-0.0559909
0.134988
-0.000325359
-0.0535273
0.140706
-0.00947455
-0.0448707
-0.0146276
0.139825
-0.128158
-0.0233286
0.133564
-0.0293337
-0.012848
-0.0511806
-0.114328
0.0286426
0.119317
-0.106023
-0.066838
0.118357
-0.0383715
-0.0495305
-0.0681286
-0.00475217
0.01388
-0.0135356
-0.019328
-0.0195419
-0.0099703
-0.0060223
-0.0131191
-0.00290149
-0.0140061
-0.00407524
0.00257758
-0.0143797
-0.00819266
0.00317758
-0.0127412
-0.010628
0.00253431
-0.00979816
-0.0145191
0.00286386
-0.0107576
0.0011459
-0.0137649
0.0160482
-0.0137515
0.000614401
-0.00950174
-6.92572e-05
-0.0153631
0.0144701
-0.00157897
-0.0167608
0.0116504
-0.00271362
-0.018041
0.00965939
-0.00145932
0.0149494
-0.025465
0.0110865
0.0252064
0.0187243
0.0207308
-0.0498485
0.0188513
0.0161743
0.0178326
-0.0277834
0.0305617
0.0160575
0.019177
-0.0470806
0.0213609
0.0134339
-0.0227644
0.0184029
0.0392771
-0.0422315
0.00893815
0.0152764
0.0201083
0.0463283
-0.0101053
-0.0171556
0.0254001
0.0300846
-0.0202324
-0.0152723
-0.0172167
-0.0205859
0.00992493
-0.0182474
0.00381475
-0.0127914
-0.0179313
0.0043713
-0.0172225
-0.0123062
0.0033072
-0.0161132
-0.0141202
0.00228437
-0.0167917
0.00210064
-0.0176539
-0.0170696
0.0174425
0.000372775
-0.0162805
-0.000772772
-0.0183832
0.0156325
-0.00199163
0.0130037
-0.0030931
0.0175609
0.0143227
-0.00279266
0.017424
-0.00140889
0.0164935
0.018233
-0.0170402
-0.000367555
0.018377
0.00133172
-0.0151336
0.00285661
-0.0154944
0.00100608
0.0174914
-0.0154044
-0.00120569
0.0144732
-0.00214941
-0.00752678
-0.0160153
0.0235807
0.016869
-0.00150308
-0.0143715
-0.0171308
-0.0261888
-0.0242537
-0.00256702
-0.105238
0.103765
0.00754608
0.00121474
0.0182394
0.0127115
0.0239103
0.0146931
-0.0202536
0.0176554
-0.00845962
0.0179668
-0.0122428
-0.00477209
0.00236004
-0.000511131
-0.00555092
0.00484838
-0.00582456
-0.0017067
-0.0021068
-0.00217519
-0.00379044
0.0131613
-0.000990763
-0.00316248
-0.00140273
-0.00338245
0.0163732
-0.0200685
-0.0115652
0.0154694
0.00688221
-0.0116076
0.0175868
0.00910944
-0.0132701
0.0201944
0.00892848
-0.0142053
0.0229386
0.0089104
0.0301488
0.0119882
0.00988659
0.0134655
0.0124889
0.00948284
0.0132553
0.00990786
0.00785042
0.01191
0.00974601
0.00607716
0.0107981
0.00840789
0.0100019
0.006995
-0.00219996
0.00342039
-0.00261226
0.00415988
-0.00327781
0.00475571
-0.00391413
0.00539886
0.00650745
0.00166178
0.00290023
0.00142336
0.000512242
0.000410765
0.00139273
-0.000144168
0.00198388
-0.00154765
-2.84164e-05
-0.000930421
0.00194711
0.00096375
-0.000332149
0.000791656
-0.000432972
0.00182747
-0.00111426
0.00121481
-0.00053664
0.000311939
-5.3038e-06
0.00202179
-0.0017415
2.83577e-05
0.00379268
-0.000560495
-0.00358898
0.0111424
-0.00637733
0.00357841
-0.0180041
0.003354
0.017045
0.00388727
-0.0181155
0.0204175
0.00713882
0.00293672
0.00676475
-0.0170606
0.0208348
0.000289639
0.00596306
0.0197837
-0.0148384
-0.0136295
0.0141827
0.00503932
0.0109775
-0.00739019
0.0172033
-0.0076585
0.0172702
0.010915
-0.000406278
0.0199731
0.00717695
0.00334197
-0.00114901
0.0015296
-0.00351443
0.00037639
-0.00229168
0.012593
0.00135524
-0.00233622
0.000796292
0.000618359
-0.000777351
0.00151239
-0.000568035
0.00156109
-0.000391804
-0.00124493
0.00106742
-0.0020699
0.000899264
-0.00021129
-0.000226274
-0.00163382
-0.00045665
-0.00209285
0.000247405
-0.00185505
0.00140001
-0.00138028
0.000392348
0.000112163
-0.00188605
0.000170391
-0.00141329
-0.000661609
-0.00126279
-0.00240635
0.0011494
0.00124307
0.000230634
0.000477795
-0.00129474
0.000448007
-0.00168406
-0.000480129
0.000535232
0.000391389
0.000108954
7.00949e-05
-0.00066053
0.00104462
0.000305669
0.000315034
-0.000889071
-0.00161286
0.00281357
-0.000775612
0.000275278
0.000178654
-0.000886579
-0.00113149
0.00380215
0.0013771
-0.000359728
-0.00302402
0.0122684
-0.00264406
-0.00129289
-0.00174748
1.2287e-05
-0.000829672
0.000261471
-0.000727622
0.000329038
-4.0395e-05
-0.00112069
-4.44655e-05
0.00188106
-0.000307072
-0.00162177
-0.0013215
0.00321052
-0.000893644
-0.000169525
-0.00124365
0.00111773
0.00204096
0.000343123
0.000324107
0.000920255
-0.000129201
0.00191352
-0.00142118
-0.000171581
-0.00137005
0.00319358
8.5627e-05
-0.000653631
0.000200655
0.00285951
-0.00405196
0.0132989
-0.00113385
-0.0180414
0.000749132
0.00704738
0.0245353
-0.0164852
0.0218918
0.00640791
-0.0177682
0.0225777
-0.00210127
-0.0148871
-0.00439476
-0.0206808
-0.0218528
-0.00632053
-0.0218848
-0.00573875
0.0151566
-0.00260847
0.0197793
0.0317736
0.0374398
-0.0236084
-0.10106
0.0665691
-0.0967334
0.0700665
-0.107805
0.0712913
-0.0171114
-0.110052
0.0687238
-0.0248618
-0.106606
0.0674946
-0.0296591
-0.0981486
0.0663514
-0.0331888
-0.086087
0.0637069
-0.0357967
-0.0687144
0.0577822
-0.0379442
-0.0489926
0.053417
-0.0376824
-0.0389104
0.0427485
-0.0317875
0.00376915
-0.029889
0.0161112
0.0324883
-0.0454977
0.0141017
0.0445026
-0.0431607
-0.00725467
0.047554
-0.026609
-0.0343668
0.0266734
-0.0511266
-0.0128566
0.0291492
-0.0597582
-0.024514
0.0326429
-0.0620316
-0.0310768
0.0328239
-0.0555594
-0.0383406
0.0313421
-0.0474784
-0.0354406
0.0268568
-0.0300752
-0.0336917
0.0158213
0.00339425
-0.0339082
0.0203713
0.0443087
-0.0619226
0.0432241
0.0553861
-0.0790049
0.0684459
0.0546386
-0.0806803
0.0884031
0.0522399
-0.0730217
0.09954
0.0476847
-0.0596784
0.100575
0.0400243
-0.0418813
0.0951713
0.0341056
-0.0295126
0.0834317
0.0307606
-0.0197412
0.0470641
0.0377517
-0.00195756
0.0226474
0.0229513
0.00126893
0.0194445
0.00391449
-0.000816373
0.0180555
0.000494996
0.000791283
0.0149003
0.000140196
0.00290459
0.00862378
1.19109e-05
0.0061657
0.00911447
-0.000578312
0.0072118
0.00344797
-0.00161592
0.00459706
0.00389687
-0.00132924
0.00482221
0.00169589
-0.00198386
0.00583415
0.00189271
-0.0029835
0.00559338
0.00307472
-0.00291177
0.00449912
0.00335799
-0.00233329
0.0035504
0.00272947
-0.00183536
0.00587049
0.00165935
-0.00405646
0.0125623
0.00158889
-0.00849923
-0.0158293
0.031186
-0.00341246
-0.0458256
0.0253445
0.00389286
-0.0605788
0.0121875
0.0017318
-0.0658307
0.000910143
0.00346885
-0.0691482
-0.0133675
0.0157806
-0.0737777
-0.0286399
0.0323472
-0.0747967
-0.0438157
0.0438976
-0.072062
-0.0576939
0.0540142
-0.0621396
-0.0702705
0.059396
-0.0445552
-0.0803057
0.0617641
-0.017309
-0.086811
0.0586016
0.0163935
-0.0828632
0.0481999
0.0318053
-0.057156
0.0407829
0.0308129
-0.0440387
0.0441087
0.0231802
-0.0345398
0.0412691
0.00912342
-0.0256468
0.0388765
-0.00109247
-0.0229188
0.0323329
-0.0347818
0.0329401
-0.0501172
-0.0193474
0.0338849
-0.0572278
-0.0341141
0.0404141
-0.0576593
-0.0489515
0.0485084
-0.0491842
-0.064031
0.0546807
-0.0253213
-0.0817039
0.0569423
0.00475987
-0.0834071
0.0524499
0.0102436
-0.0476142
0.0412652
-0.00727805
-0.0265926
0.0433044
-0.0208296
-0.0279942
0.04076
-0.00476522
-0.060035
0.0432324
-0.0519142
0.0428135
-0.0147816
-0.0686093
0.00170416
0.0184667
-0.0545232
-0.0396449
0.0283861
-0.038995
0.000205938
0.0320089
-0.0479582
0.0168487
0.0302809
-0.0782047
0.0313943
0.040837
-0.12681
0.0319082
0.0540302
-0.123341
0.0274989
0.0565708
-0.0959634
0.0284607
0.051524
-0.0724267
0.0276164
0.041017
-0.0514782
0.0270111
-0.0299062
0.0278343
-0.0366116
-0.0465421
0.0267298
-0.0386537
-0.05593
0.022503
-0.033055
-0.0669639
0.0163562
-0.00461735
-0.0824115
-0.00418005
0.0356602
-0.117966
-0.0061808
0.0608233
-0.124313
0.0113328
0.0754223
-0.117793
0.0218869
0.082146
-0.103173
0.0251828
0.0813526
-0.0843414
0.0264509
0.0774519
-0.0635055
0.0226081
0.0701865
-0.0418182
0.0194719
0.0648058
-0.0201582
0.0112133
0.0579226
0.000510535
0.00634135
0.0440664
0.0166923
0.00842474
0.0185718
0.0351758
0.0147471
-0.00969328
-0.000749821
0.0468891
0.0123259
0.00822697
-0.0036571
-0.00878184
-0.0056352
0.0147422
-0.00322077
-0.00418082
0.0104114
-0.00276259
0.00854079
-0.00157559
0.013414
-0.00111373
-0.0031665
0.00117632
-0.00667903
0.0268964
0.00197475
-0.00887877
-0.00771978
-0.00158414
0.00146151
-0.0079903
-0.00392583
0.00135858
-0.00672343
-0.00508806
0.000518068
-0.00499533
-0.00574437
0.000277742
0.00235979
-0.00411428
-0.000565626
0.00510098
-0.00110513
-0.0021442
-0.000311686
-0.000485475
-0.00135097
-0.000758952
-0.000659906
-0.000563693
-0.000599729
0.000401905
-0.00116846
-0.00348037
0.0132937
-0.00551504
-0.0120207
0.00296072
0.0227176
-0.00790874
-0.0101859
0.0635034
-0.0314159
-0.0296496
0.0158848
0.0614227
-0.0231117
0.0281774
0.0461119
-0.0174454
0.0335667
0.00907726
-0.00876229
0.0483283
-0.0286629