/*--------------------------------*- C++ -*----------------------------------*\
| =========                 |                                                 |
| \\      /  F ield         | OpenFOAM: The Open Source CFD Toolbox           |
|  \\    /   O peration     | Version:  v2012                                 |
|   \\  /    A nd           | Website:  www.openfoam.com                      |
|    \\/     M anipulation  |                                                 |
\*---------------------------------------------------------------------------*/
FoamFile
{
    version     2.0;
    format      ascii;
    class       volScalarField;
    location    "815";
    object      nut;
}
// * * * * * * * * * * * * * * * * * * * * * * * * * * * * * * * * * * * * * //

dimensions      [0 2 -1 0 0 0 0];


internalField   nonuniform List<scalar> 
18258
(
0.00419674
0.00182355
0.00149355
0.00129373
0.000857514
0.00140284
0.00194851
0.00231963
0.00243383
0.00241323
0.00249871
0.0042167
0.00591776
0.00731337
0.00768175
0.00766812
0.00695902
0.00664465
0.00720957
0.00886922
0.00746262
0.00478017
0.00572881
0.00661709
0.00719207
0.00636681
0.00514707
0.0047681
0.00431725
0.00359807
0.00301507
0.00205126
0.00151752
0.00140803
0.0012752
0.00145313
0.00158214
0.00168621
0.00172461
0.00175191
0.00173987
0.00172993
0.00168319
0.00165515
0.00160726
0.00133171
0.00162154
0.00163936
0.00179418
0.00248489
0.00267253
0.00224926
0.00249001
0.002222
0.00146531
0.00167705
0.00182052
0.0018598
0.00183596
0.00175983
0.00173423
0.00171256
0.00168507
0.00165243
0.00163258
0.00164906
0.00166628
0.00164831
0.00156748
0.00150195
0.00139588
0.00128952
0.00121067
0.00114956
0.00110348
0.0010523
0.000994792
0.000873813
0.000809851
0.00107227
0.00134607
0.00143812
0.0020382
0.00248483
0.00250138
0.00187259
0.00133473
0.00138522
0.00153983
0.00155516
0.00131796
0.00156633
0.00177394
0.00183859
0.00191599
0.00214158
0.00243936
0.0023788
0.00211866
0.00195243
0.001911
0.00219099
0.00208375
0.00270251
0.00272149
0.00237253
0.00219169
0.00246606
0.00318054
0.00341993
0.0026563
0.00249518
0.00244608
0.0024147
0.00218432
0.0022611
0.00205375
0.00185061
0.00201613
0.00243599
0.0023105
0.00252339
0.00261495
0.00245336
0.00284277
0.00327818
0.00323124
0.00258586
0.002109
0.00196598
0.0019809
0.00121155
0.00130826
0.00140931
0.00144384
0.00146813
0.00148872
0.00158739
0.00158381
0.00156058
0.00155714
0.00158453
0.000873225
0.000946053
0.000969559
0.000976346
0.0009274
0.000917814
0.000900635
0.000886695
0.000836326
0.000800289
0.000957539
0.00107516
0.001171
0.00128304
0.00145011
0.0016545
0.00186928
0.0020863
0.00222983
0.00227072
0.00231193
0.00222837
0.002144
0.00222041
0.00223322
0.00221874
0.00218895
0.0021513
0.00210042
0.00200719
0.00211487
0.00210897
0.00198125
0.0016981
0.00173599
0.00173281
0.00177782
0.00176863
0.00178644
0.00176118
0.00173163
0.00164852
0.00153268
0.0012762
0.00124201
0.00125797
0.00161596
0.00196224
0.00303159
0.00369903
0.00429638
0.00459897
0.00492323
0.00398113
0.00442999
0.00341319
0.00306463
0.00389573
0.00509796
0.00290806
0.00158676
0.00300907
0.00266818
0.00193428
0.00172141
0.00177343
0.00177777
0.00204371
0.00235555
0.00261337
0.00273871
0.00284981
0.00293844
0.00303633
0.00316014
0.00319411
0.00308587
0.00261222
0.00314724
0.00255493
0.0029819
0.00269131
0.0018136
0.00193908
0.00205183
0.00187552
0.00182315
0.00174672
0.00156971
0.00192723
0.00250057
0.00290256
0.00331799
0.00442296
0.00409195
0.0039251
0.00303961
0.00293927
0.00152653
0.00217844
0.00225456
0.00253365
0.00168495
0.00153642
0.00145736
0.00193368
0.00224035
0.00264447
0.00293332
0.00348513
0.00270066
0.0030813
0.00278605
0.00193961
0.00186908
0.00267838
0.00288612
0.00237484
0.0021247
0.00266489
0.00252147
0.00178839
0.00143614
0.00220531
0.00228452
0.00163638
0.00406408
0.00432424
0.00414641
0.00506027
0.00633844
0.00722045
0.00671814
0.0059576
0.00666027
0.00529329
0.00512267
0.0054598
0.00458006
0.00320052
0.00328182
0.00339377
0.00348451
0.00374011
0.00397259
0.00425713
0.0045288
0.00411787
0.0034209
0.00258994
0.00178189
0.00175741
0.00174846
0.00157005
0.00232684
0.00352094
0.0034973
0.0019878
0.00115879
0.00131027
0.00147931
0.00146474
0.00106322
0.000800165
0.00137842
0.00157605
0.00160151
0.00156176
0.00147456
0.00154092
0.00247468
0.00381252
0.00418918
0.00433896
0.00448077
0.00458105
0.004637
0.00465494
0.00466502
0.00467725
0.00468794
0.00470409
0.00468946
0.00458947
0.00403664
0.00253772
0.0014835
0.00137821
0.00152111
0.00163479
0.00173407
0.00147562
0.000902185
0.00144098
0.00184517
0.00212052
0.00213849
0.00199563
0.00193577
0.00305229
0.00405815
0.004783
0.00492946
0.00499438
0.00493903
0.0049313
0.00482299
0.00478863
0.0041984
0.00300574
0.00328591
0.00352798
0.00356863
0.00365124
0.00377533
0.00368779
0.0034838
0.00509307
0.00587663
0.00595209
0.0060793
0.00600788
0.00590443
0.0056363
0.00532985
0.00448706
0.00336495
0.00212312
0.00216747
0.00230748
0.00228542
0.00198965
0.00209619
0.0022748
0.00229756
0.00237268
0.00266067
0.00302188
0.00288261
0.00248059
0.00210671
0.00196164
0.00192055
0.00184276
0.00138021
0.00140076
0.00136156
0.00138396
0.00185914
0.00221287
0.0025518
0.0036194
0.00322876
0.002626
0.00416269
0.00426495
0.00458127
0.00506044
0.00518589
0.00574488
0.00400111
0.00360649
0.00370484
0.00302659
0.00280158
0.00283158
0.00284228
0.00264927
0.00289964
0.00287403
0.00277012
0.00305836
0.00336975
0.00444339
0.00538401
0.00568069
0.00585209
0.00592194
0.00589903
0.00578315
0.00581874
0.00510991
0.00510332
0.00488742
0.00474693
0.00469712
0.00446425
0.00511131
0.00530595
0.00537091
0.00550497
0.00571409
0.00556013
0.00538701
0.0052555
0.00516037
0.00506112
0.00511559
0.00521036
0.00531169
0.00545433
0.00564522
0.00567767
0.00547979
0.00533046
0.00522852
0.00513297
0.00513741
0.00522263
0.00532224
0.00546381
0.00564487
0.00554509
0.00540431
0.00527915
0.00517665
0.00508661
0.0049091
0.00502746
0.00515785
0.00526548
0.00533556
0.00461017
0.00492747
0.00484251
0.0043842
0.00410348
0.00311638
0.00337263
0.0035564
0.00387362
0.00429992
0.0043837
0.00367888
0.00315275
0.00307237
0.00304761
0.00311956
0.00314535
0.00316046
0.00357103
0.00537864
0.00541499
0.00543019
0.00543211
0.00464558
0.00451443
0.00420624
0.00768448
0.00715431
0.00619967
0.0051111
0.00274082
0.00234959
0.00278325
0.00338438
0.00378372
0.00417538
0.00277216
0.0017169
0.00200076
0.00207434
0.00202348
0.00187048
0.00155881
0.0014389
0.00130588
0.00140522
0.00248825
0.0039715
0.0044742
0.00452236
0.00447813
0.00439161
0.00428643
0.00413987
0.00408145
0.00514043
0.00695083
0.00785652
0.00782662
0.00672411
0.00547729
0.00308388
0.00158148
0.00115271
0.00126207
0.00138523
0.00162929
0.00145512
0.00121038
0.0013266
0.00126105
0.00255725
0.0044202
0.00563976
0.00669601
0.0065858
0.00572124
0.00468414
0.00444259
0.00454635
0.00461533
0.00467448
0.00473524
0.00477672
0.00474948
0.00432221
0.0026696
0.00159389
0.00141622
0.00152276
0.00178468
0.00189629
0.00191569
0.00188915
0.00163789
0.00270922
0.00430189
0.00273596
0.00149263
0.00161259
0.00160072
0.00282328
0.00281917
0.00275887
0.00429262
0.00453928
0.00452805
0.00425441
0.00406121
0.0024045
0.00272905
0.00273825
0.00275274
0.00279782
0.00141356
0.00154084
0.00158887
0.00171064
0.00149491
0.00189936
0.000491496
0.000681488
0.000791551
0.000860807
0.000927477
0.000909834
0.00174095
0.00176653
0.00168559
0.00164117
0.00208273
0.00223497
0.00228428
0.00210398
0.0019414
0.00206643
0.00207097
0.00195174
0.00184875
0.00191682
0.00191821
0.00183838
0.00156366
0.00146519
0.00160843
0.0015911
0.00157839
0.0028339
0.00282899
0.00267758
0.00439921
0.00432846
0.00484833
0.00481698
0.00481131
0.0047915
0.00484336
0.00487036
0.00489067
0.00491445
0.00490515
0.00485749
0.006749
0.00477904
0.00417013
0.00241163
0.00232309
0.0016408
0.00143806
0.00169336
0.00181111
0.00196349
0.0019191
0.00202299
0.00202057
0.002144
0.00198985
0.00176676
0.00270588
0.00289059
0.00282325
0.00287906
0.00281142
0.00279487
0.00277442
0.00273508
0.00268763
0.00160045
0.00157
0.00183849
0.00192989
0.00207367
0.00209237
0.00213778
0.00202729
0.00178283
0.00172577
0.00198765
0.00196085
0.00199912
0.00188481
0.00187689
0.00167195
0.00171428
0.00345491
0.00636996
0.00328284
0.00364596
0.0033041
0.00375711
0.00329161
0.00283939
0.00290618
0.00256006
0.00267053
0.00280102
0.00285164
0.002997
0.00353274
0.00340136
0.00298571
0.00289914
0.00284211
0.00267996
0.00241229
0.0025268
0.00254945
0.0026041
0.0028942
0.00331926
0.00372033
0.00451895
0.00438522
0.0038427
0.00351311
0.00368355
0.00374823
0.00471672
0.00440623
0.00438047
0.0046211
0.00457557
0.00434211
0.00411446
0.00397153
0.00341076
0.00346669
0.00396618
0.00383813
0.00395549
0.00388645
0.00404069
0.00411403
0.00394852
0.00366995
0.00385877
0.0038511
0.00427609
0.00415831
0.00385798
0.0035289
0.00377295
0.00372781
0.00430529
0.00405217
0.00379002
0.0034897
0.00334331
0.00379395
0.00372451
0.00422214
0.00434493
0.0043468
0.00379033
0.00370206
0.00440134
0.00423376
0.00409061
0.00426058
0.00352925
0.00362966
0.00447002
0.00456332
0.00432985
0.0036158
0.00367088
0.00314764
0.00370116
0.00460547
0.00434964
0.00356565
0.00295934
0.00413943
0.00435483
0.00460584
0.00435358
0.00473975
0.0051051
0.00416335
0.00452875
0.00591375
0.00452216
0.00524674
0.00536217
0.0053929
0.00539476
0.00541458
0.00544043
0.00573013
0.00557142
0.00354597
0.00423899
0.00412038
0.00344832
0.00293464
0.00323137
0.00347992
0.00352998
0.00361939
0.00375701
0.00369207
0.00356792
0.00522459
0.00596417
0.00609212
0.00621344
0.00611291
0.00596424
0.00561851
0.00519606
0.00431855
0.00322142
0.00201164
0.00205061
0.00218517
0.00216416
0.00187717
0.00141594
0.000930803
0.00138151
0.00142945
0.0013474
0.00122953
0.00108767
0.00112909
0.0020512
0.00386807
0.00541414
0.00599082
0.00645903
0.00695532
0.00743268
0.00779622
0.00805983
0.00823657
0.00834312
0.00836293
0.00819688
0.00743806
0.00710385
0.00669107
0.00635332
0.00589069
0.00553871
0.00626102
0.00687994
0.0072627
0.00769241
0.00789156
0.00780806
0.00678305
0.00657113
0.00755908
0.00931654
0.00791629
0.00995079
0.0117028
0.00911214
0.00819298
0.00819002
0.00915834
0.0093376
0.0090046
0.00848434
0.00788668
0.00713194
0.00750566
0.00784698
0.00817809
0.00848283
0.00932219
0.00947053
0.00940192
0.00925957
0.00906628
0.00878466
0.00834213
0.00773296
0.00704597
0.00637043
0.00558558
0.00393396
0.00191373
0.00214683
0.00211455
0.00220183
0.00217582
0.00102727
0.00113485
0.00114966
0.00115741
0.00109215
0.00124354
0.00179814
0.00292345
0.00210214
0.00173147
0.00119142
0.00139636
0.00233136
0.00395478
0.00446889
0.00455942
0.00463073
0.00592732
0.0068394
0.00727917
0.00761464
0.0078613
0.00776158
0.00750436
0.00705034
0.0064746
0.00625987
0.00590766
0.00560071
0.00543464
0.00526643
0.0049392
0.00386776
0.00373016
0.00388812
0.00383899
0.00367423
0.00392691
0.00406953
0.00406671
0.00411246
0.00415247
0.00427558
0.00442038
0.00454646
0.00461277
0.00463759
0.00464561
0.00465541
0.00466315
0.00467755
0.0046618
0.00455978
0.00400388
0.00250363
0.00146138
0.00135076
0.00148098
0.00156605
0.00160237
0.001423
0.00091604
0.00142334
0.00184248
0.0018898
0.002074
0.00214005
0.00226945
0.00252735
0.00292012
0.00301311
0.00267382
0.00253233
0.00247848
0.00241578
0.00206641
0.00257615
0.0028407
0.00283513
0.00280818
0.00303524
0.00373492
0.00358798
0.00316397
0.00312889
0.00309739
0.00280238
0.00276054
0.00301414
0.0030473
0.00316074
0.00370613
0.00444416
0.00412313
0.00375553
0.00360112
0.00332572
0.00292961
0.00264832
0.00325464
0.00266992
0.00141221
0.00120127
0.00119302
0.00119845
0.00115768
0.00137319
0.00144518
0.00146467
0.00136181
0.00151086
0.00168133
0.00162673
0.00183807
0.00181466
0.00162574
0.00161072
0.00174031
0.00183479
0.00188273
0.00193468
0.0031693
0.00327424
0.00253502
0.00366727
0.00422253
0.00418567
0.00444085
0.00365541
0.00327905
0.00389198
0.00449515
0.0051524
0.00407375
0.00385458
0.00394242
0.00181117
0.000953091
0.00134449
0.00166964
0.0018624
0.00180782
0.00170829
0.00144491
0.00256405
0.00263324
0.00417914
0.00468872
0.00475098
0.0047227
0.00474408
0.0051603
0.00591514
0.00678531
0.00705491
0.00695762
0.00664432
0.00605995
0.00547253
0.00544257
0.00525675
0.00512163
0.00508242
0.00441055
0.00390417
0.00418573
0.00411446
0.00425395
0.00431938
0.00436705
0.0044156
0.00449622
0.00459343
0.00468206
0.00474245
0.00478264
0.00481632
0.00485059
0.00488491
0.00492199
0.00494188
0.00489482
0.00442358
0.00265271
0.0015813
0.00144214
0.00153876
0.00180858
0.00190436
0.00204672
0.00181715
0.000956861
0.0011254
0.00195548
0.00216893
0.00200697
0.00187832
0.00184473
0.00154536
0.00280031
0.00276439
0.00434103
0.00488286
0.00495164
0.00493828
0.00490044
0.00485739
0.00481487
0.00477983
0.00475156
0.00472156
0.00467939
0.00462807
0.00458098
0.00453325
0.00445166
0.00433602
0.00419873
0.0043638
0.0045229
0.00471667
0.00491932
0.00501727
0.00492691
0.00479649
0.00474375
0.0047767
0.00481899
0.00486207
0.00490076
0.00492014
0.00486466
0.00458388
0.00429966
0.00272241
0.00275802
0.00135643
0.00150655
0.00173835
0.0017954
0.00194944
0.00193965
0.00152437
0.00118839
0.00134118
0.0012537
0.00224012
0.00246377
0.00273277
0.00270599
0.00146911
0.00150707
0.00156622
0.00176621
0.0016422
0.00158735
0.003922
0.00375671
0.00393066
0.00482115
0.00415325
0.00286679
0.00313906
0.0043685
0.00460809
0.00278477
0.00209036
0.00231619
0.00293329
0.00431967
0.00437404
0.00415644
0.00413222
0.00301495
0.0037073
0.00446387
0.00434221
0.00338216
0.00233017
0.0017372
0.000844702
0.00160664
0.00137338
0.00336676
0.00372618
0.00368345
0.00402762
0.00427903
0.00432266
0.00420034
0.00372478
0.00379906
0.00383669
0.00437191
0.00439148
0.00371716
0.00313656
0.00254754
0.00257057
0.00262047
0.00290365
0.0036354
0.0034253
0.00300232
0.00291126
0.00284837
0.00267903
0.00241757
0.0021205
0.00213516
0.00198725
0.00192312
0.00303149
0.00403521
0.00475824
0.00489494
0.00494445
0.00486864
0.00483435
0.00469632
0.00462503
0.00401812
0.00513169
0.00542438
0.00523405
0.00527229
0.00530476
0.00534484
0.00534538
0.00524478
0.00450709
0.00269162
0.00175814
0.00198458
0.00214215
0.00201152
0.00200015
0.00213185
0.00202286
0.00177678
0.00287865
0.00281368
0.00449895
0.00509493
0.0052043
0.00521104
0.00519064
0.00517384
0.00518084
0.00545299
0.0053268
0.00539295
0.00567262
0.00568351
0.00575432
0.0054039
0.00533634
0.00529356
0.00526517
0.00521821
0.00509099
0.004506
0.00436865
0.00496024
0.00511209
0.0051789
0.00522492
0.00528008
0.00535294
0.00556448
0.00572093
0.00577962
0.0055533
0.005472
0.00534684
0.00516654
0.00512346
0.00511422
0.00510937
0.00508397
0.00495166
0.00435861
0.00280244
0.00287152
0.00170827
0.00171937
0.00198041
0.0020801
0.00204298
0.00189195
0.0018446
0.00317728
0.00361624
0.00384575
0.00414335
0.00395797
0.00393513
0.00449681
0.00435196
0.00387739
0.00403541
0.00362102
0.00344981
0.00333778
0.00335741
0.00176361
0.001903
0.00198493
0.00195197
0.00186654
0.00166481
0.0015267
0.0027862
0.00276586
0.00273008
0.00162334
0.00158779
0.00187062
0.00181669
0.00166195
0.00141667
0.00155302
0.00239835
0.0026822
0.00415961
0.00430829
0.00461119
0.00493161
0.00505365
0.00508751
0.00510836
0.00513153
0.00518007
0.0052367
0.0052512
0.00524659
0.00528357
0.00527488
0.00527607
0.0052482
0.00521645
0.00517962
0.00514038
0.00507557
0.00494121
0.004618
0.00430064
0.00484897
0.00489322
0.00498377
0.0050774
0.00511705
0.00512316
0.00510472
0.00506807
0.0050248
0.00497457
0.00497396
0.00512147
0.00515662
0.00518275
0.00516787
0.00515013
0.00514372
0.00512018
0.00508249
0.00498764
0.00489274
0.00485253
0.00477166
0.00489926
0.00495576
0.00496451
0.00501317
0.00509107
0.00511394
0.00511373
0.00507605
0.00504377
0.0050021
0.00493465
0.00484704
0.00455223
0.00461106
0.00468918
0.00479126
0.00488993
0.00496985
0.005015
0.00501858
0.00497302
0.00494264
0.00494429
0.00490283
0.00492468
0.00494671
0.00492113
0.00491772
0.00492104
0.00486476
0.00476245
0.00462019
0.00446967
0.0043449
0.00428073
0.00417719
0.00451673
0.0046469
0.0047635
0.00486697
0.0049599
0.00505237
0.00508008
0.00506881
0.00501123
0.00497821
0.00497638
0.00492837
0.00492611
0.0049725
0.00497486
0.00500238
0.00505161
0.00503871
0.00497157
0.00479741
0.00462736
0.00447905
0.00433695
0.00418593
0.00414177
0.00420968
0.00415345
0.00421239
0.00435963
0.00454421
0.00470392
0.00480611
0.00483881
0.00486946
0.00491429
0.00490988
0.00488318
0.00486817
0.00480772
0.00475497
0.00469042
0.00455013
0.00437147
0.00421393
0.00416345
0.00424792
0.00433201
0.00425369
0.00395393
0.00411182
0.00426266
0.00441246
0.00462357
0.0048659
0.00497101
0.0050082
0.00498342
0.00496387
0.00496091
0.004917
0.00490149
0.00494191
0.00494564
0.00496546
0.004997
0.00496694
0.00488098
0.00458439
0.00422935
0.00405837
0.00395679
0.00382205
0.00427511
0.0043641
0.00425671
0.00418426
0.00429742
0.00442935
0.0045665
0.00465825
0.00469534
0.00474708
0.00481485
0.00484769
0.00479954
0.00474327
0.00467409
0.00463805
0.00463645
0.00461293
0.00452481
0.004421
0.00430125
0.00444609
0.0045299
0.00444862
0.00403089
0.0040977
0.00420013
0.00426119
0.0045945
0.00488267
0.00494912
0.00495024
0.0049187
0.00489798
0.00489805
0.00487253
0.00482452
0.00481588
0.00481226
0.0048701
0.00494602
0.0049907
0.00501361
0.00479878
0.00439988
0.00432937
0.00414607
0.00406129
0.00450853
0.00455939
0.00445596
0.00435947
0.00457007
0.00465967
0.00468432
0.0046656
0.00461728
0.00458569
0.00464509
0.00473847
0.00466769
0.00436433
0.00409479
0.00423292
0.00426673
0.00425627
0.00419871
0.00410203
0.00389176
0.00434528
0.00478607
0.00482188
0.00435306
0.00436029
0.00422407
0.00393508
0.00432249
0.00452557
0.00456922
0.00454889
0.00447621
0.00430442
0.00454608
0.00475938
0.0047183
0.00427087
0.00277208
0.00281013
0.0028302
0.00283264
0.0027955
0.00278509
0.00274453
0.0027235
0.00266047
0.00259614
0.00253518
0.00270404
0.00284983
0.00304506
0.00306142
0.00314216
0.00300711
0.00284691
0.00265853
0.00207002
0.00262654
0.00313295
0.00332949
0.00358121
0.00363286
0.00419226
0.00441206
0.00453087
0.00444375
0.00356555
0.00302468
0.00241702
0.00157182
0.000979267
0.00114928
0.00119515
0.00125458
0.00153253
0.00282194
0.00143752
0.0019914
0.00155783
0.00267837
0.0014217
0.000890126
0.000591087
0.000755157
0.00089751
0.000905857
0.000866956
0.000722827
0.000567274
0.000579862
0.000539934
0.000573624
0.000516004
0.000591211
0.000552839
0.000773389
0.0011655
0.00132055
0.0013493
0.00109029
0.00122895
0.00102672
0.00118365
0.00105677
0.00115136
0.00110429
0.00135034
0.00147978
0.00141678
0.0014208
0.0012433
0.000869649
0.00100805
0.000791992
0.000950889
0.000727669
0.00093986
0.000805841
0.00104712
0.0010795
0.00107647
0.00103656
0.000792004
0.000939504
0.000739641
0.000909611
0.000745009
0.000795243
0.000662503
0.000961472
0.000979341
0.000901509
0.000962306
0.0010827
0.00116362
0.0012828
0.00121101
0.00137822
0.00132797
0.00134287
0.0012713
0.00123538
0.00120704
0.00120934
0.00118935
0.00119579
0.00123425
0.00123608
0.00124089
0.00128013
0.00126135
0.00123116
0.00121313
0.0010779
0.000869798
0.00151498
0.0015624
0.0015855
0.00158501
0.00154927
0.00153226
0.00148031
0.00146638
0.00142109
0.0013941
0.00133297
0.00128223
0.0012247
0.00137627
0.000769894
0.000873974
0.000922511
0.000949567
0.000968542
0.000977104
0.000984172
0.000978578
0.000966421
0.000942376
0.000934016
0.000907925
0.00116152
0.00132091
0.00138047
0.00139631
0.00130892
0.00124644
0.00272335
0.00329524
0.00501448
0.00512482
0.00384578
0.00383546
0.00132895
0.00140108
0.000957867
0.00134609
0.00138796
0.0013739
0.00129805
0.000936421
0.00140586
0.000979502
0.00132284
0.000993315
0.00123412
0.00101925
0.00145343
0.00185231
0.00178781
0.00161915
0.00111042
0.000925722
0.000929024
0.000793879
0.000869149
0.000711004
0.000869235
0.000732605
0.00108739
0.00154307
0.00170458
0.0017383
0.00137029
0.00189003
0.00142098
0.00205651
0.00163213
0.00201189
0.00161391
0.00186761
0.00231067
0.00232085
0.00226572
0.00182617
0.0014642
0.00164336
0.00145621
0.00167693
0.002423
0.00158811
0.00240801
0.000995027
0.00135622
0.00139774
0.00137842
0.00129955
0.000875471
0.00222996
0.00117925
0.00210277
0.00136229
0.00219051
0.00158938
0.00210735
0.00252206
0.0026386
0.00263079
0.00214652
0.00193695
0.00200459
0.00160208
0.00192253
0.0014296
0.00207307
0.00117134
0.00152099
0.00168312
0.00177132
0.00177885
0.00146264
0.00288702
0.00181237
0.00273514
0.00190141
0.00243545
0.00195192
0.00213527
0.0025213
0.00250556
0.00248454
0.00210683
0.00170461
0.00225009
0.00160549
0.0478052
0.110458
0.0439559
0.111621
0.0505802
0.0717655
0.0707017
0.0708303
0.0710722
0.053354
0.116333
0.137501
0.14344
0.145224
0.144172
0.232992
0.190005
0.285499
0.185092
0.108887
0.0472032
0.0650957
0.168045
0.277533
0.416395
0.52827
0.359983
0.372551
0.237726
0.234328
0.220531
0.178304
0.109139
0.0547323
0.00940907
0.010301
0.0147093
0.0195698
0.0154604
0.00949632
0.00187704
0.00193721
0.00198135
0.00200953
0.00200425
0.00196428
0.00199903
0.00189185
0.00178306
0.00199699
0.00217719
0.00230353
0.00272085
0.0030094
0.00271355
0.00297509
0.00315317
0.0032978
0.00341691
0.00359457
0.00379487
0.00397146
0.00398114
0.00364837
0.00311001
0.00253006
0.00212657
0.00201466
0.00189189
0.00166834
0.0015262
0.00142914
0.00138222
0.00136279
0.00140052
0.00153069
0.00164362
0.00168321
0.00165016
0.00161984
0.00159343
0.00141887
0.00165903
0.00227571
0.00229316
0.00392883
0.00452708
0.00462133
0.00462794
0.00410207
0.00262027
0.00262599
0.00263943
0.00268969
0.00270027
0.0027073
0.00270456
0.00269536
0.00267971
0.0026507
0.00263605
0.00259329
0.00255719
0.00246673
0.00247072
0.0025017
0.00252655
0.00248483
0.00249457
0.002443
0.00318505
0.00425539
0.00479799
0.00501462
0.00520029
0.00504703
0.00699464
0.00598375
0.00420105
0.00413276
0.00408195
0.00484038
0.00487339
0.00440337
0.0044219
0.0040338
0.00251908
0.00251385
0.00251561
0.00269233
0.00274585
0.0028386
0.00286447
0.0028864
0.00289994
0.00289311
0.00289099
0.00286409
0.00284452
0.00277935
0.00275775
0.00274843
0.00151523
0.00165393
0.00171625
0.00172807
0.00175393
0.00174354
0.00173367
0.00171283
0.00169965
0.00167106
0.00163836
0.0015891
0.00149344
0.00136009
0.00149653
0.00253834
0.00253713
0.00413318
0.0046663
0.0047006
0.0052292
0.00496445
0.00470179
0.00504356
0.00454827
0.00451211
0.00408399
0.00253642
0.00257115
0.00152669
0.001514
0.00177087
0.00172258
0.00184121
0.00189211
0.00189774
0.00192403
0.00194859
0.00197959
0.00202995
0.00204449
0.0020115
0.00200493
0.00188789
0.00163104
0.0016502
0.00194598
0.00204193
0.00189649
0.00186429
0.0018502
0.00180462
0.0017702
0.00173746
0.00176002
0.00189502
0.00189218
0.00185802
0.00176754
0.00172044
0.0014905
0.00143904
0.00251557
0.00255721
0.00423346
0.00432044
0.00428509
0.00494172
0.00552077
0.00628006
0.00536118
0.00436115
0.00456044
0.00521994
0.00388954
0.00326072
0.00194101
0.00144952
0.00182102
0.00166376
0.00173565
0.00179817
0.00159713
0.00171684
0.00158762
0.00144285
0.00143484
0.00143325
0.00146856
0.00148351
0.00151048
0.00151419
0.0015512
0.0015477
0.00155189
0.00157076
0.00157837
0.00174385
0.00189467
0.00159501
0.00135235
0.00131811
0.00124473
0.00118523
0.00121415
0.00118468
0.00117735
0.00115564
0.00113593
0.00108393
0.00112942
0.0011984
0.00140192
0.00134156
0.00108436
0.00096891
0.000662173
0.000675657
0.000680329
0.000701224
0.000708949
0.000718417
0.00072197
0.000733768
0.000736087
0.000739847
0.000739576
0.000757744
0.000755175
0.000746476
0.000740878
0.000744419
0.000747793
0.000747248
0.00109429
0.00121845
0.00133064
0.00158031
0.00185933
0.0016008
0.00135701
0.00116981
0.000751938
0.000763182
0.000777127
0.000784309
0.000801049
0.000816249
0.000833227
0.000843895
0.000851908
0.000860245
0.000869064
0.000872518
0.000870341
0.000853446
0.000843521
0.000864845
0.000950546
0.00100035
0.00106434
0.00108848
0.00110886
0.00111883
0.00111383
0.00112565
0.00111271
0.00111098
0.00109237
0.0010845
0.0010771
0.00106762
0.00105576
0.00102608
0.0010163
0.00106914
0.00181149
0.00237007
0.00272918
0.00300607
0.00278516
0.00226553
0.00237418
0.00417658
0.0039583
0.00233066
0.00217861
0.002014
0.00176441
0.00152966
0.00184577
0.00210729
0.00230519
0.00247861
0.00263717
0.00274474
0.00288296
0.00306348
0.00338279
0.00342287
0.00312229
0.00253018
0.00214179
0.00200032
0.0019326
0.00181461
0.0016856
0.00172779
0.0017402
0.00168838
0.00162405
0.00160582
0.00163249
0.00166659
0.00164669
0.00164601
0.0014705
0.00146994
0.00251171
0.00255861
0.00393581
0.00414708
0.00418735
0.00269212
0.00265521
0.00155093
0.00144034
0.00157128
0.00163113
0.00163453
0.0016412
0.00163284
0.00160436
0.00158347
0.00155919
0.00153936
0.00152181
0.00149153
0.00143385
0.00132429
0.00144293
0.00161817
0.00169009
0.00170894
0.00171802
0.00174528
0.00178974
0.0018254
0.00190808
0.00191655
0.00191576
0.00192252
0.00179691
0.00185318
0.0015684
0.00156616
0.00271444
0.00270704
0.00155521
0.00183644
0.00184891
0.00182779
0.00196772
0.00180064
0.00174355
0.0017342
0.00166073
0.00162162
0.00156948
0.00153821
0.00156809
0.00166782
0.00161455
0.00143074
0.00137846
0.00154673
0.00148853
0.00123504
0.00105526
0.00102632
0.000982511
0.000955958
0.00100207
0.001038
0.00105852
0.00108455
0.00109228
0.00114008
0.00110927
0.00116408
0.00123449
0.00129056
0.00153085
0.00165891
0.00149867
0.0014699
0.00145167
0.00145006
0.00145463
0.00139465
0.00139068
0.00135966
0.00134438
0.00130385
0.00128549
0.00126212
0.00126619
0.00127942
0.00140646
0.00362533
0.00462286
0.00481347
0.00822043
0.00332026
0.00339052
0.0066452
0.00275099
0.00413557
0.00443087
0.00463383
0.00483996
0.00442853
0.0056243
0.0039284
0.00437744
0.00456096
0.00398658
0.00149762
0.00171527
0.00197293
0.00175773
0.00155243
0.00105786
0.00114017
0.00117722
0.0012074
0.0012268
0.0012486
0.00127187
0.00129377
0.00130908
0.00130925
0.00126936
0.00122639
0.00112769
0.00109481
0.0011372
0.001181
0.00103712
0.000976455
0.000987985
0.00100425
0.00101337
0.00101532
0.00102527
0.00102795
0.00104366
0.00103526
0.00104317
0.00102532
0.00103438
0.00102087
0.000986052
0.000937153
0.000854036
0.000833699
0.00120081
0.00127863
0.00134308
0.00152401
0.00175955
0.00187753
0.00168281
0.00155189
0.00148966
0.00165251
0.00165352
0.00300466
0.00576768
0.00258273
0.0028934
0.00843301
0.00335291
0.00260664
0.00264607
0.00267393
0.00267776
0.0015562
0.00184315
0.00178727
0.00179457
0.00152213
0.00127797
0.0011462
0.00102481
0.000694926
0.000692622
0.000697848
0.000708526
0.000711843
0.000681364
0.000681282
0.000677384
0.000675855
0.000661495
0.000657484
0.000645809
0.000638713
0.000621918
0.000612802
0.000596823
0.000594115
0.000621315
0.000692095
0.00083692
0.000929764
0.00105775
0.00107647
0.00120911
0.00299136
0.00347167
0.00478475
0.00474831
0.00749138
0.00467959
0.00353419
0.00319153
0.00467084
0.00482564
0.00447137
0.00605821
0.00419155
0.00277647
0.00420208
0.0035007
0.00411279
0.0040426
0.0042941
0.00682843
0.00719802
0.00202397
0.00180408
0.00189746
0.00215273
0.00255596
0.00235577
0.00268234
0.00268428
0.00207558
0.00131339
0.00418529
0.00504244
0.00405982
0.00488749
0.00753792
0.00302513
0.00295022
0.00261064
0.00217911
0.0019804
0.00195426
0.00217917
0.00260741
0.00653223
0.00698574
0.00646091
0.00643991
0.00583743
0.00639582
0.00798435
0.00794883
0.00703083
0.00657918
0.00682007
0.00423718
0.00261799
0.00305036
0.00338288
0.00451489
0.00465478
0.00984119
0.00333508
0.00368426
0.0037419
0.00500658
0.00484569
0.00857217
0.00362946
0.00391433
0.00515844
0.0068975
0.012728
0.00463982
0.00488779
0.0070331
0.00714008
0.00652475
0.00471164
0.0042678
0.00465195
0.00350411
0.00342563
0.00292245
0.0043148
0.00581303
0.00459623
0.00446273
0.0037952
0.00338001
0.00346012
0.0035919
0.00298307
0.00294117
0.0033938
0.00251992
0.00244043
0.00257775
0.000716409
0.000367117
0.000375255
0.000384985
0.000392908
0.00040107
0.000407045
0.000414125
0.00041733
0.000417673
0.000418734
0.000442835
0.000438743
0.000424876
0.000385807
0.000440255
0.000698641
0.000699114
0.000439762
0.000387691
0.000695624
0.00110845
0.00130683
0.00154596
0.00156514
0.00135049
0.00117086
0.000720656
0.000709336
0.00042996
0.000502147
0.000545309
0.000483657
0.000539771
0.000500281
0.000529896
0.00053537
0.000495334
0.000492582
0.000494487
0.000490696
0.000481967
0.000471307
0.000458342
0.000448209
0.000442824
0.000438813
0.000429757
0.000356398
0.0003325
0.000400831
0.000640391
0.00063988
0.000599378
0.000564298
0.000534151
0.000520159
0.000516025
0.000513016
0.000521931
0.000538816
0.000543581
0.000548351
0.000590859
0.000572454
0.000611448
0.000573852
0.000613102
0.000575465
0.000529384
0.0004445
0.000458613
0.000739838
0.000747715
0.00120816
0.00138213
0.00156718
0.00157523
0.00175818
0.00185151
0.00156795
0.00162777
0.00186549
0.00173753
0.001549
0.00155508
0.00139897
0.0014003
0.00124043
0.000775171
0.000764632
0.000480216
0.000466362
0.0005561
0.000546361
0.000607638
0.000650298
0.000650484
0.000648369
0.000632017
0.000626156
0.000550635
0.000539837
0.000540563
0.000524242
0.000520943
0.000543772
0.00059448
0.000698628
0.000845314
0.000920088
0.000951513
0.00091196
0.000816222
0.000603349
0.000544483
0.000944459
0.000979228
0.00175992
0.00416897
0.00195147
0.00370402
0.00267362
0.000664011
0.000740413
0.000944163
0.00105798
0.00114254
0.00119146
0.00108967
0.000909676
0.000685012
0.000565534
0.000843314
0.000729155
0.000823007
0.000718745
0.00093018
0.00107545
0.00104031
0.00104807
0.000885674
0.000721424
0.000764028
0.000685872
0.000756006
0.000632881
0.00076147
0.000687443
0.000863853
0.000871934
0.000853764
0.000809232
0.000616141
0.000646439
0.000542254
0.000588219
0.000528121
0.000545811
0.000517205
0.000603103
0.000694958
0.000666958
0.000664334
0.000545834
0.000427698
0.00047239
0.00040847
0.000462324
0.000359313
0.000435288
0.000365028
0.000472585
0.00048731
0.000490232
0.000487616
0.000397184
0.000466886
0.000571275
0.000599314
0.000603984
0.00057527
0.000443381
0.000686122
0.000619246
0.000756107
0.000653995
0.000715885
0.000651918
0.000759861
0.00097319
0.00101609
0.00102288
0.000829889
0.000824701
0.00150436
0.0834185
0.00135323
0.00159943
0.00164926
0.00164328
0.00135857
0.00132542
0.00164155
0.00121435
0.0017197
0.00108276
0.00183412
0.000699331
0.00106311
0.00114141
0.00113902
0.00105861