/*--------------------------------*- C++ -*----------------------------------*\
| =========                 |                                                 |
| \\      /  F ield         | OpenFOAM: The Open Source CFD Toolbox           |
|  \\    /   O peration     | Version:  v2012                                 |
|   \\  /    A nd           | Website:  www.openfoam.com                      |
|    \\/     M anipulation  |                                                 |
\*---------------------------------------------------------------------------*/
FoamFile
{
    version     2.0;
    format      ascii;
    class       volScalarField;
    location    "1075";
    object      alphat;
}
// * * * * * * * * * * * * * * * * * * * * * * * * * * * * * * * * * * * * * //

dimensions      [1 -1 -1 0 0 0 0];


internalField   nonuniform List<scalar> 
18258
(
0.00485726
0.00211299
0.00173255
0.00150177
0.000992992
0.00162565
0.00225741
0.00268709
0.00281891
0.00279423
0.0028925
0.00488002
0.00684759
0.00846164
0.00888792
0.00887352
0.00805325
0.0076896
0.00834908
0.0102705
0.00864249
0.00553588
0.00663268
0.00766566
0.00834153
0.00738884
0.00597204
0.00553202
0.00500983
0.0041762
0.00350079
0.00238396
0.00175752
0.0016294
0.00147624
0.00168255
0.00183241
0.00195372
0.0019977
0.00202916
0.00201529
0.00200366
0.00194936
0.00191604
0.00185943
0.00153869
0.00186391
0.00190232
0.00208323
0.00287961
0.00309451
0.00260369
0.00288276
0.00257194
0.00169524
0.00194095
0.0021071
0.00215261
0.00212491
0.00203666
0.00200687
0.00198163
0.00194967
0.00191173
0.0018886
0.00190747
0.00192718
0.00190618
0.00181244
0.00173647
0.00161354
0.00149031
0.00139893
0.00132813
0.00127476
0.00121563
0.00114919
0.00100943
0.000935517
0.00123869
0.00155497
0.00166134
0.00235456
0.00287056
0.00288982
0.00216286
0.00154122
0.00159941
0.00177822
0.00179636
0.00152263
0.00181084
0.00205155
0.0021265
0.00221613
0.00247672
0.00281849
0.00274732
0.00244655
0.00225359
0.00222325
0.00254248
0.002414
0.00313049
0.00315617
0.00275813
0.00252877
0.00284643
0.00367054
0.00395045
0.00307291
0.00288583
0.0028288
0.00279314
0.00252589
0.0026138
0.00237343
0.00213858
0.00232966
0.00281618
0.00267126
0.00291795
0.00302338
0.00283637
0.00328654
0.00379012
0.00373523
0.00298917
0.00243629
0.00227102
0.00228843
0.0013996
0.00151142
0.0016291
0.00166899
0.00169686
0.00172057
0.00183466
0.00183053
0.00180371
0.00179973
0.00183178
0.00100933
0.00109346
0.00112062
0.00112846
0.00107186
0.00106086
0.00104111
0.00102503
0.0009663
0.000924552
0.00110634
0.00124234
0.00135321
0.00148278
0.00167627
0.00191301
0.00216181
0.00241326
0.00257966
0.00262717
0.00267512
0.00257835
0.00248082
0.00256939
0.00258433
0.00256764
0.00253317
0.00248964
0.00243085
0.00232307
0.00244823
0.00244157
0.00229373
0.00196514
0.00200931
0.00200577
0.00205796
0.00204728
0.00206787
0.00203851
0.00200415
0.00190776
0.00177338
0.00147691
0.00144066
0.00145925
0.00187417
0.00227549
0.00351513
0.00428806
0.00497846
0.00532735
0.00570247
0.00461371
0.00513461
0.00395805
0.00355367
0.00451667
0.00590974
0.00337163
0.00184097
0.00349046
0.00309608
0.00224541
0.0019982
0.00205858
0.00206069
0.00236533
0.00272719
0.00302718
0.00317307
0.00330189
0.00340497
0.00351828
0.00366196
0.00370088
0.0035752
0.00302545
0.00364706
0.00296085
0.00345587
0.00312143
0.00210677
0.00222331
0.00236166
0.00216274
0.00210406
0.00201522
0.00181392
0.00223267
0.00290253
0.00336986
0.00385275
0.00513493
0.00475074
0.00455857
0.00352977
0.00341322
0.0017724
0.00252909
0.00261652
0.00294319
0.00195647
0.00178465
0.00169287
0.00224025
0.00259592
0.00306494
0.00340061
0.00404009
0.00313097
0.00357262
0.00323114
0.00225099
0.00216694
0.00310406
0.00334465
0.00275216
0.00246002
0.00308603
0.00292016
0.00207132
0.00165864
0.00254801
0.00263879
0.00189304
0.00471982
0.005025
0.00480378
0.00585839
0.00733255
0.00835738
0.00778404
0.00690029
0.00770539
0.00611568
0.00592643
0.00632624
0.00530514
0.00370249
0.00379699
0.00392705
0.00403286
0.00432951
0.00459921
0.00492884
0.00524383
0.00476703
0.00395838
0.00299557
0.00206122
0.0020337
0.00202368
0.0018171
0.00269279
0.00407296
0.00404434
0.00229744
0.00133941
0.00151533
0.00171122
0.00169447
0.00122923
0.000925355
0.00159414
0.00182273
0.00185214
0.00180611
0.00170523
0.00178185
0.00286143
0.00440812
0.00484351
0.00501641
0.00517996
0.0052954
0.0053595
0.00537963
0.00539071
0.00540439
0.00541645
0.00543497
0.00541811
0.00530273
0.00466419
0.00293255
0.0017143
0.00159259
0.00175768
0.00188906
0.0020038
0.00170503
0.00104242
0.00166509
0.00213203
0.00245041
0.00247124
0.00230629
0.0022372
0.00352757
0.00469021
0.00552839
0.00569798
0.00577329
0.00570957
0.0057009
0.00557593
0.00553644
0.00485418
0.00347575
0.00380078
0.00408126
0.00412867
0.00422455
0.00436839
0.00426725
0.00403063
0.00589171
0.00679722
0.00688408
0.0070302
0.00694637
0.00682553
0.00651455
0.00615955
0.00518507
0.00388817
0.00245309
0.00250406
0.00266546
0.00263971
0.00229764
0.00242133
0.00262805
0.00265439
0.00274124
0.0030744
0.00349208
0.0033308
0.00286577
0.00243416
0.00226648
0.00221926
0.00212951
0.00159539
0.00161896
0.00157341
0.00159919
0.00214788
0.00255639
0.00294829
0.00418248
0.00373101
0.00303423
0.00481277
0.00493111
0.00529798
0.00585218
0.00599729
0.00664553
0.00462545
0.00416821
0.00428193
0.00349762
0.00323735
0.00327182
0.00328413
0.00306052
0.0033499
0.00332053
0.00320065
0.0035338
0.00389441
0.00513567
0.00622377
0.00656752
0.00676651
0.00684817
0.00682255
0.0066891
0.00673037
0.00591076
0.00590326
0.0056541
0.00549139
0.00543334
0.00516278
0.00591112
0.00613718
0.0062126
0.00636771
0.00660934
0.0064311
0.00623088
0.00607865
0.0059683
0.00585274
0.00591537
0.00602567
0.00614324
0.00630839
0.00652917
0.00656615
0.0063374
0.00616454
0.00604624
0.00593513
0.00593991
0.00603902
0.00615458
0.00631842
0.00652757
0.00641151
0.00624902
0.00610422
0.00598541
0.0058808
0.00567518
0.00581243
0.00596339
0.00608784
0.00616853
0.00532926
0.00569645
0.00559826
0.00506828
0.00474345
0.00360219
0.00389839
0.00411101
0.00447765
0.00497034
0.00506718
0.00425201
0.00364376
0.00355054
0.00352183
0.00360463
0.00363454
0.00365228
0.00412701
0.00622087
0.00626265
0.00627979
0.00628196
0.0053709
0.005219
0.00486281
0.00889338
0.00827895
0.00717234
0.00591015
0.0031672
0.00271492
0.00321624
0.0039111
0.00437251
0.00482477
0.00320347
0.00198386
0.00231185
0.00239644
0.00233702
0.00215987
0.00179942
0.00166104
0.00150749
0.00162243
0.0028738
0.00458685
0.00516696
0.00522202
0.00517032
0.00506965
0.00494701
0.00477619
0.00472126
0.00596388
0.00808583
0.00909726
0.00905751
0.00778098
0.00634832
0.00358368
0.00185105
0.0013699
0.00146176
0.00160651
0.00188453
0.00167759
0.00142473
0.00156036
0.00147338
0.00298079
0.00513672
0.00652605
0.00775411
0.00763855
0.00664927
0.00542102
0.00512829
0.00524789
0.00532931
0.00539825
0.0054689
0.00551729
0.00548635
0.00499334
0.00308435
0.00184104
0.00163555
0.00175838
0.00206089
0.00219025
0.00221316
0.00218283
0.00189259
0.00313077
0.00497053
0.00316145
0.00172471
0.00186324
0.00184931
0.00326233
0.0032576
0.00318784
0.00495958
0.00524456
0.00523226
0.00491641
0.00469287
0.00277859
0.00315449
0.00316533
0.00318204
0.00323415
0.00163396
0.0017812
0.00183683
0.00197779
0.00172782
0.00219405
0.000567834
0.000787319
0.000914685
0.00099489
0.00107199
0.00105162
0.00201242
0.00204239
0.00194869
0.00189713
0.00240756
0.00258347
0.00264027
0.0024315
0.0022435
0.0023882
0.00239364
0.002256
0.00213685
0.00221532
0.00221675
0.0021244
0.00180693
0.0016932
0.00185876
0.00183883
0.00182426
0.00327543
0.00326962
0.00309459
0.00508359
0.00500216
0.00560222
0.00556563
0.0055585
0.00553535
0.00559483
0.00562634
0.00565027
0.00567802
0.00566733
0.00561265
0.00780406
0.00552198
0.00481864
0.00278705
0.00268477
0.00189616
0.00166186
0.00195685
0.00209293
0.00226905
0.00221777
0.00233787
0.00233495
0.00247772
0.00229968
0.00204191
0.00312723
0.00334074
0.00326279
0.00332726
0.00324896
0.00322977
0.00320615
0.00316076
0.00310599
0.00184953
0.00181431
0.00212458
0.00223022
0.00239641
0.00241804
0.00247054
0.00234294
0.00206046
0.00199447
0.00229709
0.00226608
0.00231026
0.00217815
0.00216902
0.00193219
0.00198116
0.00399404
0.00736957
0.00379514
0.00421544
0.0038197
0.00434408
0.00380535
0.00328213
0.00335917
0.00295882
0.0030864
0.0032374
0.00329593
0.00346406
0.0040833
0.00393107
0.00345061
0.00335046
0.00328454
0.00309711
0.0027878
0.00292009
0.00294617
0.00300936
0.00334465
0.00383663
0.00430014
0.00522531
0.00507053
0.00444208
0.00406137
0.00425879
0.00433331
0.00545459
0.00509537
0.00506542
0.0053441
0.00529154
0.00502175
0.00475811
0.00459271
0.00394344
0.0040082
0.00458646
0.00443827
0.00457395
0.00449372
0.00467226
0.00475675
0.00456507
0.00424264
0.00446188
0.00445332
0.00494479
0.00480843
0.00446095
0.00407952
0.00436272
0.00431089
0.00497866
0.00468563
0.0043823
0.00403508
0.003866
0.00438722
0.0043064
0.00488222
0.00502462
0.00502696
0.00438319
0.00428056
0.00508974
0.00489613
0.00473087
0.00492774
0.00408164
0.00419682
0.00516958
0.00527748
0.00500778
0.00418197
0.00424464
0.00363887
0.00427947
0.00532635
0.00503068
0.00412353
0.00342261
0.00478742
0.00503634
0.00532709
0.0050349
0.00548255
0.00590562
0.00481475
0.00523774
0.00684251
0.00522643
0.00606454
0.00619849
0.0062345
0.00623713
0.00626052
0.00629085
0.00662605
0.00644182
0.00410034
0.00490148
0.00476361
0.00398756
0.00339436
0.00373789
0.00402571
0.00408405
0.00418783
0.00434719
0.00427184
0.00412734
0.00604395
0.00689527
0.00704526
0.00718378
0.0070645
0.00688764
0.00648423
0.0059958
0.00499012
0.00372399
0.00232764
0.00237374
0.00253055
0.00250776
0.00217653
0.0016413
0.00107878
0.00159889
0.0016529
0.00155751
0.00142134
0.00125828
0.00130765
0.00237115
0.00425751
0.00620082
0.00692056
0.00750221
0.00809616
0.00862175
0.00901583
0.00930881
0.00951456
0.00964611
0.0096766
0.00950076
0.0086604
0.00827376
0.0077923
0.00739471
0.00684393
0.00641645
0.00725818
0.00797351
0.00841256
0.00890543
0.00913194
0.00903362
0.00784003
0.00760581
0.00876551
0.0108034
0.00918752
0.0115477
0.0135679
0.0105612
0.00948498
0.00947246
0.0105976
0.0108048
0.0104264
0.00983292
0.00914994
0.00828175
0.0087249
0.00912657
0.0095132
0.00986989
0.0107885
0.0109406
0.0108512
0.0106663
0.0104286
0.0101139
0.00963937
0.00897575
0.00816247
0.00733186
0.00637222
0.00433677
0.00222107
0.00250245
0.00247004
0.0024797
0.00249648
0.00119812
0.00132231
0.00133743
0.00134392
0.00126501
0.0014401
0.00208221
0.00335188
0.00241008
0.00198977
0.00137633
0.00161037
0.00268384
0.00453755
0.00511937
0.00522824
0.00548606
0.00729028
0.00798333
0.00843727
0.00880847
0.00903552
0.00893209
0.00865981
0.00817161
0.00755107
0.00729948
0.00688341
0.00651332
0.00630466
0.00609695
0.00571291
0.00446658
0.00432663
0.00450568
0.0044477
0.00425681
0.00454946
0.00471372
0.00470943
0.00476136
0.00480663
0.00494799
0.00511439
0.00525908
0.00533467
0.00536231
0.00537062
0.00538109
0.00538934
0.00540542
0.0053868
0.00526865
0.00462625
0.00289335
0.0016892
0.00156166
0.00171221
0.00181062
0.0018527
0.00164537
0.00105929
0.0016461
0.00213065
0.00218531
0.00239773
0.00247348
0.00262135
0.00291861
0.00337218
0.00347949
0.00308771
0.00292473
0.00286302
0.00279046
0.00239193
0.00298098
0.00328223
0.00327516
0.00324335
0.00350524
0.00431337
0.00414364
0.00365434
0.00361451
0.00357873
0.00324193
0.00319323
0.00348266
0.0035205
0.00365087
0.00428028
0.00513251
0.00476198
0.00433786
0.00416023
0.00384279
0.0033872
0.00306281
0.00375524
0.00307606
0.00163768
0.00139913
0.00138483
0.00139272
0.00134722
0.00159613
0.00167812
0.00169864
0.0015757
0.00174791
0.00194459
0.00187977
0.00213125
0.00210377
0.00188469
0.00186889
0.00201498
0.00212092
0.00217623
0.00224261
0.00366623
0.00378906
0.00293001
0.00422999
0.00487505
0.00482432
0.00511572
0.00421564
0.00378037
0.00448527
0.00517778
0.0059303
0.00469357
0.00444047
0.00454051
0.00209202
0.00110087
0.0015528
0.00192778
0.00214912
0.00208497
0.00196945
0.00166505
0.0029485
0.00302938
0.00479543
0.00537931
0.00544757
0.0054136
0.00557117
0.00614177
0.00714243
0.00790384
0.00812736
0.00801041
0.00767167
0.00704162
0.00640953
0.00635373
0.00612
0.00594619
0.0058869
0.0051032
0.00453254
0.00484974
0.00476604
0.00492623
0.00500043
0.00505396
0.0051084
0.00519972
0.0053099
0.00540976
0.00547736
0.00552195
0.00555943
0.00559798
0.0056369
0.00567917
0.00570152
0.00564663
0.00510271
0.00306203
0.00182622
0.00166618
0.00177782
0.00208938
0.00219987
0.00236439
0.00209972
0.00110606
0.00130006
0.00225977
0.00250503
0.00231754
0.00216906
0.00213034
0.00178468
0.00323129
0.00318873
0.00500243
0.00562617
0.00570515
0.0056898
0.00564628
0.00559731
0.00555153
0.00551413
0.00548456
0.00545287
0.00540692
0.00535046
0.00529768
0.00524439
0.00515233
0.00502109
0.00488142
0.00507199
0.00523858
0.00544876
0.005689
0.00582076
0.00572145
0.00556009
0.00547849
0.00550385
0.00554918
0.00559717
0.00564047
0.00566107
0.00559852
0.0052768
0.00495243
0.00313854
0.0031792
0.00156598
0.00173966
0.00200724
0.00207307
0.00225159
0.00224134
0.00176275
0.00137375
0.00154962
0.00144776
0.00258521
0.00284268
0.00315172
0.00312043
0.00169595
0.00173943
0.00180783
0.00203972
0.00189705
0.00183264
0.00450529
0.00432216
0.00452655
0.0055518
0.00478399
0.00330542
0.00362155
0.00503898
0.00531314
0.00321311
0.00241097
0.00267272
0.00338552
0.0049841
0.0050452
0.0047919
0.00476617
0.00348103
0.0042801
0.0051488
0.00500751
0.00390644
0.00269141
0.00200431
0.000976529
0.00185756
0.00158835
0.00388811
0.00430216
0.00425063
0.00464754
0.00493896
0.00498961
0.00484719
0.00430123
0.00438649
0.00442948
0.00504534
0.00506648
0.00429212
0.00362216
0.0029443
0.00297007
0.00302692
0.00335349
0.0041986
0.00395616
0.00346799
0.00336346
0.00329154
0.00309665
0.00279488
0.00245199
0.00246876
0.00229776
0.00222365
0.00350489
0.00466498
0.00550079
0.00565915
0.00571681
0.00562971
0.00559068
0.00543173
0.00534997
0.00464855
0.00593676
0.00627397
0.00605281
0.00609624
0.00613306
0.00617864
0.00617841
0.00606153
0.00520987
0.00311184
0.00203287
0.0022946
0.00247678
0.00232597
0.00231266
0.00246465
0.00233854
0.0020541
0.00332782
0.00325251
0.00519978
0.00588755
0.00601449
0.00602305
0.00599982
0.00598076
0.00598919
0.00630459
0.00615942
0.00623459
0.00656053
0.00657477
0.00665551
0.00624931
0.00617035
0.00612012
0.00608664
0.00603174
0.00588412
0.00520749
0.00504844
0.0057326
0.00590881
0.00598686
0.00604103
0.00610599
0.00619159
0.00643786
0.0066203
0.00668661
0.00641915
0.00632507
0.00617935
0.00597019
0.00592053
0.00590978
0.00590454
0.0058751
0.00572195
0.00503733
0.00323926
0.00331916
0.00197469
0.00198766
0.00228941
0.00240478
0.00236203
0.00218741
0.00213276
0.00366394
0.00417029
0.00443778
0.0047781
0.00456322
0.00453708
0.00518639
0.00501936
0.00447632
0.0046569
0.00417631
0.00398103
0.00384586
0.00386622
0.00203895
0.00220008
0.00229469
0.00225646
0.00215772
0.00192445
0.00176478
0.00322034
0.00319681
0.00315487
0.00187659
0.00183553
0.00216251
0.00210021
0.00192136
0.00163781
0.00179536
0.00277122
0.00309929
0.00480524
0.00497704
0.00532808
0.00569822
0.00583898
0.00587751
0.00590055
0.00592704
0.00598273
0.00604882
0.0060668
0.0060638
0.00611588
0.00610742
0.0061073
0.00607282
0.00603415
0.00598981
0.00594299
0.00586683
0.00571056
0.00533641
0.00496946
0.00560297
0.00565465
0.00576029
0.00586995
0.00591755
0.00592663
0.0059077
0.00586793
0.00582094
0.00576493
0.00576364
0.00592043
0.00595612
0.00598342
0.00596494
0.00594504
0.00593876
0.00591366
0.00587186
0.00576296
0.00565363
0.00560661
0.00551286
0.00566082
0.00572647
0.00573684
0.00579274
0.00588201
0.00590583
0.00590281
0.00585819
0.00582136
0.00577587
0.00570225
0.00560866
0.00528585
0.00535222
0.00543984
0.00555372
0.00566393
0.0057529
0.00580223
0.00580387
0.0057491
0.00571245
0.00571337
0.00566498
0.00569046
0.00571687
0.00568891
0.00568725
0.00569409
0.00563296
0.00551838
0.00535786
0.00518729
0.0050444
0.0049681
0.0048461
0.00523076
0.00537363
0.00550229
0.00561728
0.00572251
0.00582956
0.0058652
0.00585625
0.00579064
0.0057531
0.00575089
0.00569503
0.00569312
0.00574722
0.00575007
0.00578155
0.00583894
0.00581969
0.00573876
0.00553848
0.00534473
0.00517773
0.00501943
0.00485022
0.00478703
0.0048654
0.0048082
0.00488322
0.00505566
0.00526848
0.00545089
0.00556455
0.00559862
0.00563104
0.00568056
0.0056739
0.00564388
0.00562873
0.00556168
0.00550395
0.00543262
0.00527301
0.00506649
0.00488155
0.00481729
0.00491124
0.00500948
0.00491855
0.00458107
0.00476154
0.0049287
0.00509661
0.00533695
0.00561592
0.00574171
0.00578644
0.00575943
0.00573794
0.00573467
0.00568343
0.00566645
0.00571356
0.00571739
0.005739
0.00577492
0.00573427
0.00562901
0.00528581
0.00488264
0.00469181
0.00458121
0.00442387
0.00494287
0.00504612
0.00492098
0.00483731
0.00496945
0.00512565
0.00528766
0.00539468
0.00543592
0.00549309
0.00556856
0.00560389
0.00554929
0.00548704
0.0054095
0.00536931
0.0053669
0.00533667
0.00523067
0.00510918
0.00497372
0.00514225
0.00524089
0.00514642
0.00466463
0.00474195
0.00484741
0.00490497
0.00528254
0.00562107
0.00570711
0.00571685
0.00568363
0.00566223
0.00566354
0.00563396
0.00557942
0.00556897
0.00556242
0.00562511
0.00570711
0.00574453
0.00576057
0.00550556
0.00505613
0.0049935
0.00479792
0.00470079
0.00521529
0.0052765
0.00515655
0.00504364
0.00528242
0.00538561
0.00541685
0.00539825
0.00534404
0.00530739
0.00537437
0.00547966
0.00539863
0.00505023
0.00473944
0.00489893
0.00493654
0.00492209
0.00485383
0.00474238
0.00450386
0.00502803
0.00553914
0.00558171
0.00503858
0.00504657
0.00487418
0.00452441
0.00495962
0.00519816
0.00525487
0.00524251
0.00516764
0.0049749
0.00525743
0.00550509
0.00545874
0.00494023
0.00320632
0.00325122
0.00327593
0.00328012
0.0032371
0.00322541
0.00317852
0.00315457
0.00308154
0.00300764
0.00293641
0.00313247
0.00330049
0.00352593
0.00354443
0.00363757
0.00348268
0.00329783
0.00308008
0.00239565
0.00304026
0.00362761
0.00385471
0.00414639
0.00420747
0.00485528
0.00510957
0.00524965
0.00515207
0.00413208
0.00350543
0.00280116
0.00182156
0.00113495
0.0013325
0.0013862
0.00146097
0.00179229
0.00329134
0.00168034
0.00232958
0.00182057
0.00313536
0.00166409
0.00103695
0.000687888
0.000879078
0.00104466
0.00105455
0.00100858
0.000839731
0.000657489
0.000671954
0.000625282
0.000664113
0.000597217
0.000684064
0.000638892
0.000888352
0.00132711
0.00151953
0.00155429
0.00125676
0.00141828
0.00118495
0.00136722
0.00122112
0.00133115
0.00127696
0.00156182
0.0017116
0.00163845
0.00164271
0.0014375
0.00100548
0.00116549
0.000915836
0.00109973
0.000841802
0.00108723
0.000932459
0.00121174
0.00124925
0.00124576
0.00119957
0.000916534
0.00108675
0.000855742
0.00105301
0.00086445
0.000923916
0.000769747
0.00111887
0.00114004
0.00104937
0.0011212
0.00126143
0.00135364
0.00148841
0.00140316
0.00159542
0.00153678
0.0015536
0.00147125
0.00143058
0.00139781
0.00140057
0.00137736
0.00138463
0.00142891
0.00143068
0.00143593
0.00148068
0.00145874
0.00142314
0.00140163
0.00124548
0.00100535
0.00175166
0.00180637
0.00183366
0.00183358
0.00179291
0.00177246
0.0017106
0.00169426
0.00164086
0.00160996
0.00153838
0.00148009
0.00141318
0.00158797
0.000888801
0.00100907
0.00106511
0.00109681
0.00111857
0.00112861
0.00113646
0.0011299
0.00111565
0.00108829
0.00107922
0.00104935
0.00134216
0.00152642
0.00159607
0.00161507
0.00151414
0.00144234
0.00315674
0.00382058
0.00580581
0.00593337
0.00445616
0.00444219
0.00153682
0.00162319
0.00110982
0.00155972
0.00160856
0.00159243
0.00150449
0.00108535
0.00162917
0.00113565
0.00153001
0.00115025
0.001422
0.00118169
0.00168824
0.00215393
0.00208051
0.00188453
0.00129527
0.00107757
0.00108265
0.000922843
0.00101067
0.000824595
0.00100689
0.000846638
0.00124838
0.00176534
0.00196301
0.00200259
0.00157915
0.00217948
0.00163855
0.0023735
0.00188521
0.0023262
0.00186664
0.00215961
0.00267224
0.00268443
0.00262085
0.0021125
0.0016927
0.00189991
0.00168328
0.00193879
0.00280302
0.00183737
0.00278997
0.00115279
0.00157174
0.00162047
0.00159867
0.00150775
0.00101616
0.00258688
0.0013687
0.00243512
0.00157678
0.00252764
0.00183912
0.00244454
0.00292411
0.00306045
0.00305118
0.00248852
0.00224636
0.00232919
0.00185972
0.00223256
0.00165731
0.0024025
0.00135674
0.00175984
0.00194345
0.00204704
0.0020544
0.00168731
0.00333372
0.00209357
0.0031604
0.00219825
0.00281693
0.00225752
0.00246866
0.00291553
0.00289717
0.00287265
0.00243588
0.00197192
0.0026032
0.00185665
0.055481
0.128067
0.0510021
0.12941
0.0585572
0.0831199
0.0818895
0.0820508
0.082354
0.0618168
0.134956
0.15947
0.166306
0.168327
0.167079
0.270003
0.220183
0.330822
0.21448
0.126267
0.0547831
0.0755128
0.194801
0.321602
0.48252
0.612208
0.41717
0.431808
0.275543
0.271675
0.255762
0.206874
0.126775
0.0635567
0.0109294
0.0119741
0.0171114
0.0227658
0.0179036
0.0109535
0.00216414
0.00223304
0.0022832
0.00231462
0.00230708
0.0022592
0.00229704
0.0021722
0.00204469
0.00228586
0.00249084
0.00267867
0.00315067
0.0034815
0.00313658
0.0034392
0.00364606
0.00381425
0.00395267
0.00415869
0.0043908
0.00459552
0.0046067
0.00422096
0.00359685
0.00292671
0.00246157
0.00233265
0.0021908
0.00193203
0.00176772
0.00165622
0.00160167
0.00157885
0.00162218
0.0017724
0.00190225
0.00194766
0.00190881
0.00187373
0.00184311
0.0016411
0.00191855
0.00263168
0.00265329
0.00454551
0.00523759
0.00534618
0.00535327
0.00474724
0.00303307
0.00303956
0.00305512
0.0031131
0.00312518
0.00313259
0.00312914
0.00311738
0.00309907
0.00306475
0.00304785
0.00299864
0.00295742
0.00285514
0.00285976
0.00289702
0.0029262
0.00287897
0.00289138
0.00282991
0.00364938
0.00489171
0.00554246
0.00579435
0.00601159
0.00583585
0.00807563
0.00689299
0.00484893
0.00478744
0.00472672
0.00560484
0.00564379
0.00509994
0.00511984
0.0046585
0.00290516
0.0028915
0.00289322
0.00309242
0.00315228
0.00326179
0.00329158
0.0033201
0.00333622
0.0033336
0.00333239
0.00330583
0.00328449
0.00321193
0.00318762
0.00317754
0.00175182
0.00191168
0.00198228
0.0019947
0.00202182
0.00200897
0.00199573
0.00197146
0.0019547
0.00192183
0.00188293
0.00182752
0.00171864
0.00156641
0.00172463
0.00293001
0.00293035
0.00478522
0.00540798
0.00544724
0.00605839
0.00575254
0.00544884
0.00584909
0.00527798
0.0052371
0.00472877
0.00293378
0.00297347
0.00176298
0.00174633
0.00204052
0.00198309
0.00211917
0.00217667
0.00218407
0.00221441
0.00224418
0.00228035
0.00233842
0.00235644
0.00232196
0.00231617
0.00218265
0.0018863
0.00190916
0.00225061
0.00235974
0.00218965
0.00214925
0.00213177
0.00207941
0.00203947
0.00200082
0.0020268
0.00218191
0.00218007
0.00214241
0.0020392
0.00198712
0.00172434
0.00166667
0.00291306
0.00294538
0.00485903
0.00499961
0.00496468
0.0057101
0.00636322
0.00724384
0.00617906
0.00502343
0.00522535
0.00596961
0.00443349
0.00368088
0.00219235
0.00165617
0.00203621
0.00192291
0.00200307
0.00207549
0.00184315
0.00197874
0.00182939
0.00166221
0.00165308
0.00165098
0.00169227
0.00170945
0.00174067
0.00174485
0.00178713
0.0017832
0.00178909
0.0018111
0.00182235
0.00201365
0.0021905
0.00184273
0.00156185
0.00152013
0.00143525
0.00136588
0.001399
0.00136542
0.0013571
0.00133209
0.00130951
0.00124938
0.00130206
0.00138152
0.00161614
0.00154786
0.00125115
0.00111795
0.000764344
0.000779028
0.000784427
0.000808718
0.000817533
0.000828406
0.000832415
0.000846038
0.000848662
0.00085295
0.000852608
0.000873328
0.000870346
0.000860436
0.00085395
0.000858293
0.000862446
0.000861927
0.00126206
0.00140561
0.00153704
0.00182622
0.00215063
0.00185075
0.00156786
0.00135021
0.000867866
0.000881035
0.000897286
0.000905604
0.000925089
0.000942734
0.000962579
0.000975115
0.00098466
0.000994596
0.00100506
0.0010094
0.00100709
0.000987853
0.000976502
0.00100144
0.0011006
0.00115818
0.00123195
0.00125981
0.00128381
0.00129585
0.0012895
0.00130283
0.00128734
0.00128509
0.00126292
0.00125336
0.00124423
0.00123274
0.00121862
0.00118385
0.0011723
0.00123342
0.00208882
0.00273302
0.003151
0.00347317
0.00320613
0.00259561
0.00273463
0.00480303
0.00454312
0.00268603
0.00250548
0.00231027
0.00201722
0.00176593
0.00213191
0.00243348
0.00266263
0.00286452
0.00304908
0.00317419
0.00333426
0.00354283
0.00391229
0.00395885
0.00361104
0.00292714
0.00247953
0.00231738
0.00223949
0.00210273
0.00195331
0.00200213
0.00201646
0.00195632
0.00188159
0.00186009
0.0018906
0.00192891
0.00190559
0.00190478
0.00170156
0.00170102
0.0029063
0.00296264
0.00455681
0.00480075
0.0048466
0.00311679
0.00307376
0.00179551
0.00166732
0.00181888
0.00188799
0.00189178
0.00189927
0.00188921
0.00185603
0.00183166
0.00180339
0.00178051
0.00176052
0.00172598
0.00166039
0.00153353
0.00167159
0.00187473
0.00195704
0.00197807
0.001988
0.00201929
0.00207068
0.00211205
0.00220768
0.00221802
0.00221724
0.00222518
0.00208021
0.00214556
0.00181595
0.00181356
0.003143
0.00313491
0.00180103
0.00212673
0.00214083
0.00211577
0.00227749
0.00208422
0.00201806
0.0020067
0.00192171
0.00187645
0.00181632
0.00178049
0.00181579
0.00193217
0.00187172
0.00165841
0.00160033
0.00179439
0.00172494
0.00143101
0.00122248
0.00118863
0.00113769
0.0011068
0.00115999
0.00120138
0.001225
0.00125505
0.00126398
0.00131921
0.00128375
0.00134751
0.00142898
0.00149376
0.00177202
0.00192017
0.00173471
0.00170142
0.0016803
0.00167801
0.00168317
0.00161385
0.00160925
0.00157341
0.00155579
0.00150906
0.00148796
0.00146117
0.00146611
0.0014818
0.00162915
0.00419936
0.00535131
0.00557299
0.00950685
0.00384487
0.00392775
0.00768835
0.00318667
0.00478778
0.00513107
0.0053653
0.00560239
0.00512638
0.00649907
0.0045453
0.00505876
0.00528262
0.00464778
0.00172524
0.00193388
0.00224668
0.00202165
0.00178651
0.00121845
0.00131506
0.00135871
0.001394
0.00141708
0.00144243
0.00146966
0.00149517
0.00151311
0.00151349
0.00146767
0.00141821
0.0013045
0.00126662
0.00131571
0.00136646
0.00120047
0.00113038
0.00114384
0.00116283
0.00117355
0.00117595
0.00118769
0.00119093
0.00120939
0.00119972
0.00120914
0.0011886
0.00119937
0.00118347
0.00114292
0.00108623
0.000989645
0.000965888
0.00139111
0.00148124
0.00155614
0.00176547
0.00203822
0.00217472
0.0019491
0.00179724
0.00172517
0.00191385
0.00191365
0.00347087
0.00665833
0.00298657
0.00334777
0.00973102
0.00387522
0.00301845
0.00306436
0.00309666
0.00310084
0.00180211
0.0021346
0.00206991
0.00207771
0.00176202
0.00147918
0.00132677
0.00118633
0.000804318
0.000801595
0.000807651
0.000819897
0.000823685
0.000788502
0.00078841
0.00078391
0.000782139
0.000765577
0.000760953
0.00074751
0.000739352
0.000719999
0.000709484
0.000690967
0.000687492
0.000713873
0.000791194
0.000955562
0.00106748
0.00121106
0.00123429
0.00139714
0.00347577
0.00402855
0.00554787
0.00549811
0.00867302
0.00541815
0.00409347
0.00370344
0.00541727
0.00559563
0.00520246
0.00704867
0.00487848
0.0032248
0.00477698
0.00395855
0.00477753
0.00465854
0.0049325
0.0078328
0.00826875
0.00233351
0.00208074
0.00218971
0.00248393
0.00294885
0.00271269
0.00309165
0.00308399
0.00237541
0.00152303
0.00485222
0.00585109
0.00467038
0.00558792
0.00868129
0.00349434
0.00340852
0.00301612
0.00251744
0.00228821
0.00225717
0.00251657
0.00301143
0.00755191
0.00807434
0.00739025
0.00734505
0.00667201
0.0073801
0.00922027
0.00919454
0.00811778
0.0075955
0.00784773
0.00482051
0.00303736
0.00353881
0.00391718
0.00522553
0.00538802
0.0113832
0.00385862
0.00426544
0.00433094
0.00579631
0.00560674
0.00992415
0.00419752
0.00452955
0.00596737
0.00796744
0.0147084
0.00535785
0.00565121
0.00813009
0.00825065
0.00754181
0.0054483
0.00493985
0.00538639
0.00405726
0.00396585
0.00338792
0.00500363
0.00673875
0.00532081
0.00516697
0.0043999
0.0039042
0.0040106
0.00415869
0.00345342
0.00340682
0.00393615
0.00291098
0.00281255
0.00299166
0.000828704
0.00042484
0.000434413
0.000445683
0.000454831
0.000464225
0.000471134
0.000479275
0.00048301
0.00048337
0.000484578
0.000512435
0.000507801
0.000491754
0.000446537
0.000509604
0.000808708
0.000809309
0.000509086
0.000448831
0.000805225
0.00128312
0.00151268
0.00178983
0.00181217
0.00156339
0.00135543
0.000834186
0.000821125
0.000497767
0.000581317
0.000631307
0.000559899
0.000624796
0.000579054
0.000613407
0.000619539
0.000573217
0.000570079
0.000572316
0.00056791
0.000557859
0.000545516
0.000530455
0.000518485
0.000511686
0.000506084
0.000494297
0.000412025
0.000383508
0.000459588
0.000731017
0.000729831
0.000684784
0.000646897
0.000614778
0.000600482
0.000596728
0.000593663
0.000604039
0.000623612
0.000629107
0.000634563
0.000683704
0.000662738
0.000707908
0.000664269
0.00070974
0.000666253
0.000612875
0.000514612
0.000530946
0.000856438
0.000865535
0.00139863
0.00160029
0.00181491
0.0018244
0.00203648
0.0021444
0.00181566
0.00188498
0.00216054
0.00201261
0.00179428
0.00180117
0.00162035
0.00162162
0.00143612
0.000897382
0.000885168
0.000555979
0.000539936
0.000643834
0.000632528
0.000703511
0.000752841
0.000753124
0.000750675
0.000731315
0.000724483
0.000637215
0.000624785
0.000625598
0.000606585
0.000602344
0.000627364
0.000683161
0.000800304
0.000967374
0.00105377
0.00109164
0.00104823
0.000939181
0.000691224
0.000626017
0.0010835
0.00112664
0.00200327
0.00474296
0.00218761
0.0042439
0.00306411
0.000764489
0.000853724
0.00108878
0.0012201
0.001317
0.00137147
0.00125212
0.0010439
0.00078617
0.000649437
0.000972438
0.00084096
0.000950896
0.000830638
0.00107495
0.00124302
0.00120262
0.00121181
0.00102425
0.00083454
0.00088377
0.000793673
0.000874853
0.000732387
0.000881189
0.000795693
0.00099995
0.00100936
0.000988377
0.000936883
0.000713383
0.000748493
0.000627819
0.000681018
0.000611365
0.000631885
0.000598779
0.000698294
0.000804642
0.000772218
0.000769178
0.00063197
0.000495166
0.00054684
0.000472688
0.000534961
0.00041573
0.000503658
0.000422451
0.000546816
0.000563562
0.000566231
0.000561962
0.000456576
0.000536732
0.000658945
0.000692497
0.000698453
0.00066563
0.000512963
0.000793909
0.000717038
0.00087556
0.000757644
0.000829051
0.00075508
0.000880101
0.00112706
0.00117658
0.00118439
0.000960838
0.000954717
0.00174151
0.0964786
0.00156653
0.00185148
0.00190913
0.00190218
0.00157281
0.00153478
0.00190051
0.00140637
0.00199108
0.00125364
0.00212285
0.000809351
0.00123022
0.00132076
0.00131789
0.0012247
0.000820451
0.00242542
0.119543
0.308325