/*--------------------------------*- C++ -*----------------------------------*\
| =========                 |                                                 |
| \\      /  F ield         | OpenFOAM: The Open Source CFD Toolbox           |
|  \\    /   O peration     | Version:  v2012                                 |
|   \\  /    A nd           | Website:  www.openfoam.com                      |
|    \\/     M anipulation  |                                                 |
\*---------------------------------------------------------------------------*/
FoamFile
{
    version     2.0;
    format      ascii;
    class       volScalarField;
    location    "1075";
    object      k;
}
// * * * * * * * * * * * * * * * * * * * * * * * * * * * * * * * * * * * * * //

dimensions      [0 2 -2 0 0 0 0];


internalField   nonuniform List<scalar> 
18258
(
0.0336673
0.0158613
0.0124193
0.0102656
0.0110276
0.0140657
0.0168682
0.0212448
0.0256706
0.031601
0.0386561
0.0475742
0.0535611
0.0606923
0.0636494
0.061929
0.0520372
0.0472803
0.0564899
0.0809994
0.0711098
0.051436
0.0623403
0.0615599
0.0724629
0.0766512
0.0603137
0.055075
0.0496617
0.0439733
0.0374014
0.0231933
0.0241683
0.0289088
0.0321459
0.0358758
0.0387568
0.0411191
0.0427691
0.0435839
0.0434868
0.0421761
0.0394674
0.0353972
0.0299133
0.0239068
0.0234543
0.0237586
0.0294963
0.0350452
0.0404645
0.0460555
0.0544954
0.0446122
0.0290134
0.0391773
0.0476573
0.0545517
0.0589791
0.0614276
0.0621893
0.0612741
0.0589824
0.0557211
0.0517584
0.0474183
0.0433991
0.0394121
0.0341689
0.0309054
0.0267914
0.0234449
0.0210025
0.0192882
0.0181682
0.0171665
0.0163022
0.01557
0.0149544
0.0145324
0.01444
0.014464
0.0145621
0.0146567
0.0149969
0.012652
0.0108845
0.0104171
0.0101667
0.00952378
0.0080779
0.0106345
0.0117442
0.0121617
0.0124326
0.013604
0.0147348
0.0143046
0.0135784
0.0124551
0.0127542
0.0171775
0.0178874
0.0229401
0.0218199
0.0170796
0.0147865
0.0165768
0.0193858
0.0224454
0.0192421
0.0192094
0.0179101
0.0170162
0.0148646
0.0148911
0.0143702
0.0140638
0.0149762
0.0177416
0.0171566
0.0172756
0.0184868
0.0188057
0.0200279
0.0210448
0.0203847
0.0202043
0.0163425
0.0162429
0.0172832
0.0171573
0.0176368
0.0201426
0.0201991
0.0205391
0.0207535
0.0235399
0.0235588
0.0235273
0.0236184
0.0244709
0.0235007
0.0230851
0.0231111
0.023146
0.0209785
0.0207587
0.0203988
0.0204382
0.0182607
0.0175235
0.0182569
0.019237
0.0212094
0.0249497
0.0313809
0.040298
0.0503881
0.0606247
0.0683945
0.0727512
0.0771169
0.0765851
0.0772934
0.0793967
0.0797708
0.0786336
0.0767869
0.0746275
0.0716817
0.067057
0.0666114
0.058981
0.0480995
0.0333781
0.0388869
0.0417221
0.0444725
0.044768
0.0452422
0.0440258
0.0422673
0.0386926
0.0336016
0.0247479
0.0258131
0.0302769
0.034948
0.0387411
0.0429096
0.0465337
0.0483662
0.0500599
0.0594193
0.0571907
0.0552868
0.0570243
0.0585887
0.0617883
0.0602212
0.0562781
0.0503528
0.0519719
0.045095
0.03373
0.0315048
0.0293768
0.0270277
0.0377908
0.0495644
0.0611209
0.0674826
0.0736635
0.0785322
0.0825841
0.0871354
0.0816671
0.0765096
0.0577438
0.0838731
0.0657725
0.0504738
0.0411897
0.0333195
0.0311828
0.0340995
0.0342354
0.0324671
0.0279161
0.0220026
0.0230078
0.0360138
0.0458627
0.0539157
0.0554791
0.0601944
0.062676
0.0573594
0.0579394
0.0470587
0.0482815
0.0516147
0.0462763
0.0439617
0.0353438
0.0275976
0.0335639
0.0499354
0.0685773
0.0845644
0.099662
0.0660955
0.0501733
0.0410777
0.0342721
0.0330763
0.0376816
0.0436292
0.0528361
0.0411403
0.0370965
0.0335938
0.0307324
0.0257068
0.0274435
0.0286494
0.0268955
0.0499385
0.057528
0.0612953
0.0837737
0.0923881
0.108389
0.107128
0.0926112
0.0962558
0.0689176
0.06869
0.0861534
0.0681414
0.0511802
0.0614551
0.0743606
0.0881334
0.10125
0.112523
0.121585
0.123344
0.111903
0.081139
0.0467214
0.0212809
0.0186482
0.018101
0.0173904
0.0165003
0.0156912
0.0150599
0.0121084
0.00948975
0.00927599
0.00945911
0.00940536
0.00825777
0.00951239
0.0115755
0.0137641
0.0152693
0.0164755
0.0174929
0.0182241
0.0188105
0.0192074
0.0195023
0.0197678
0.0200004
0.0201834
0.0203181
0.0204054
0.0204447
0.0204283
0.0203502
0.020209
0.0200031
0.019716
0.019245
0.0177235
0.0158794
0.015056
0.0151151
0.0148667
0.0145669
0.0119374
0.0123064
0.0143244
0.0149546
0.0177374
0.0197673
0.0214648
0.0229127
0.0244327
0.0252059
0.0260306
0.0262929
0.0263418
0.0262376
0.0260833
0.0258546
0.0255473
0.024481
0.0212616
0.0248685
0.0272679
0.0289658
0.0303264
0.0312399
0.0313472
0.0285899
0.0360667
0.0385149
0.0394191
0.0396812
0.0388564
0.036843
0.034394
0.0323389
0.0308304
0.0297122
0.02757
0.0253229
0.0230143
0.0205999
0.0173807
0.0186535
0.0204901
0.0206998
0.020408
0.0214553
0.0227122
0.0210539
0.0189577
0.0160839
0.0150883
0.0146051
0.0144194
0.0148361
0.0144868
0.014378
0.0148716
0.0178661
0.0189566
0.0206558
0.0239162
0.0227845
0.0208435
0.0280169
0.029624
0.0300735
0.0304252
0.0303308
0.0295735
0.0264973
0.0250409
0.0264293
0.0249747
0.0243423
0.0244313
0.0240642
0.0221978
0.0244974
0.0264974
0.0280876
0.0289355
0.0301784
0.0317343
0.0338988
0.035696
0.037359
0.0383659
0.0383446
0.0378015
0.037971
0.0386087
0.0382765
0.0365934
0.034517
0.0324218
0.0294512
0.0292845
0.0312612
0.0328247
0.0344854
0.0362606
0.0355868
0.0336949
0.0320673
0.030646
0.0289342
0.0288173
0.0304953
0.031941
0.0336832
0.0358101
0.0359919
0.0338427
0.0320193
0.0305117
0.0288071
0.0287767
0.0304792
0.0319953
0.0337243
0.0356181
0.0347462
0.033271
0.0317439
0.0302728
0.0286064
0.0281701
0.0297758
0.031161
0.0324784
0.0335469
0.0318699
0.0312782
0.0302058
0.0288145
0.0270554
0.025802
0.0263108
0.0276985
0.0278096
0.0282902
0.02941
0.0292572
0.0289741
0.0289285
0.0286465
0.0264008
0.0268081
0.0268574
0.0275496
0.0308519
0.0303685
0.0330305
0.0354339
0.0331233
0.0316406
0.0280859
0.0336492
0.0336853
0.0346371
0.0334567
0.0237033
0.0218531
0.0228525
0.0243811
0.0260175
0.0253199
0.0225813
0.0225088
0.0231103
0.0225169
0.0209476
0.0179695
0.0135033
0.0135121
0.0135021
0.0142346
0.0170347
0.018628
0.0187363
0.0185785
0.0182732
0.0177976
0.017075
0.0159971
0.015634
0.0248269
0.0452924
0.0565943
0.0559215
0.0425265
0.0357381
0.0264918
0.0185208
0.0113228
0.0107883
0.011468
0.0137508
0.0115024
0.0109965
0.0151435
0.0121154
0.0201196
0.0231881
0.0302966
0.0414519
0.0401656
0.0306402
0.0204793
0.0183771
0.0192321
0.0197593
0.0201499
0.0205333
0.0209202
0.0213404
0.0218515
0.0215275
0.0188972
0.0166585
0.0167802
0.0173516
0.0198525
0.0212365
0.0220339
0.0217065
0.0219621
0.0236668
0.022431
0.0212065
0.0209954
0.0202866
0.0231216
0.0234686
0.0228465
0.0228474
0.0231258
0.0230124
0.0231506
0.023952
0.0197728
0.0218931
0.0224449
0.022725
0.0235156
0.0190328
0.0192251
0.0192933
0.0181489
0.0148727
0.0179675
0.0167317
0.012145
0.0134572
0.0134273
0.0140404
0.0143651
0.0171198
0.0162926
0.0155629
0.016322
0.0222878
0.0230912
0.0232643
0.0206183
0.019372
0.0218598
0.0224526
0.022
0.02111
0.0212686
0.0203229
0.0184227
0.0177042
0.0178414
0.01925
0.0200493
0.0201215
0.0237182
0.0232141
0.021656
0.0226383
0.0232369
0.0228221
0.0227123
0.0226561
0.0222841
0.0218608
0.0222741
0.0224633
0.0225159
0.0220761
0.0223287
0.0249537
0.0214127
0.021224
0.0201504
0.0194959
0.0178713
0.0176191
0.0177173
0.0176776
0.0175837
0.0167479
0.0186017
0.0178751
0.020007
0.0216163
0.0227638
0.023931
0.0240789
0.0236465
0.0236044
0.0232184
0.0231822
0.0226347
0.0217925
0.0212118
0.0204409
0.0192363
0.0192294
0.0191808
0.0190376
0.02044
0.0203399
0.0219013
0.0230183
0.022731
0.0217693
0.0216593
0.0204865
0.0204624
0.0215001
0.0223851
0.0226361
0.023493
0.026014
0.0236839
0.0252356
0.0259364
0.0266
0.02599
0.0248933
0.0256439
0.0239851
0.0228748
0.0241917
0.0249144
0.0261758
0.0269705
0.0249934
0.0239658
0.0227694
0.0219078
0.0209243
0.0184047
0.0190139
0.0198005
0.0210305
0.022843
0.0255605
0.0282887
0.0312096
0.0312648
0.0289664
0.0272787
0.0320758
0.0315494
0.036518
0.037119
0.032998
0.0301978
0.0272899
0.0268625
0.0259414
0.0254053
0.0241346
0.0253812
0.0258009
0.024859
0.0273242
0.0288932
0.0332232
0.0387739
0.0354337
0.0326159
0.037684
0.0366075
0.042555
0.0363396
0.0346891
0.0285434
0.0331565
0.0355193
0.0432436
0.0338398
0.0296605
0.0294464
0.0307769
0.0382536
0.0367869
0.0393706
0.044538
0.043881
0.0390153
0.0357808
0.0415189
0.0315654
0.0370072
0.0390172
0.0324056
0.0321544
0.0390192
0.0396418
0.0398108
0.0337411
0.0330052
0.0249897
0.0335354
0.0400087
0.0399231
0.0331506
0.0259648
0.0358514
0.0314875
0.0312876
0.0312884
0.02689
0.0268213
0.0261201
0.0263745
0.0270826
0.0246489
0.0254502
0.0257081
0.025869
0.0259982
0.0261885
0.0265306
0.02717
0.0278851
0.022844
0.0242721
0.0229255
0.0216024
0.0202748
0.0240487
0.026527
0.0283384
0.0297968
0.0309328
0.0314097
0.0299724
0.0379397
0.0396189
0.0412709
0.0414219
0.0401803
0.03751
0.0340717
0.0306408
0.0285522
0.0272514
0.0247968
0.0226836
0.0206218
0.0184817
0.015683
0.0143446
0.0130278
0.0116472
0.0113136
0.0107865
0.0102047
0.00955963
0.00924694
0.0115945
0.0160693
0.027001
0.0326382
0.0384808
0.0454008
0.0518894
0.0571091
0.0610361
0.0638806
0.0657103
0.0662379
0.0637838
0.0532688
0.0481962
0.043226
0.0381727
0.0330145
0.0321572
0.0413209
0.0496322
0.0566374
0.0629467
0.0670506
0.0654051
0.0498169
0.0467164
0.0624444
0.0899918
0.0807697
0.103807
0.120135
0.0796645
0.0648472
0.064035
0.0794997
0.08201
0.0754541
0.0665486
0.0567276
0.0457881
0.0509605
0.0558593
0.0605072
0.065182
0.0778932
0.0801613
0.0788591
0.076202
0.0728024
0.0683774
0.0619509
0.0535677
0.044233
0.036038
0.0285647
0.0172291
0.0128347
0.0137955
0.0133297
0.0135621
0.0138744
0.0101968
0.0105335
0.0107229
0.0106193
0.0103222
0.0103806
0.0117791
0.0181908
0.0149967
0.0136557
0.0117856
0.0144681
0.0162958
0.0180415
0.0185817
0.0187905
0.0206736
0.0367858
0.0444119
0.0498668
0.0545346
0.0575142
0.0562952
0.0529876
0.0471996
0.0403131
0.0375932
0.0335006
0.0300163
0.0281953
0.0290572
0.0254668
0.0157351
0.0147366
0.0157825
0.0154566
0.0144597
0.0164142
0.0176338
0.0184065
0.0190296
0.0194931
0.0198471
0.0200972
0.0202605
0.0203429
0.0203628
0.0203347
0.0202639
0.0201492
0.0199881
0.0197699
0.0194645
0.0189468
0.0172459
0.0154154
0.0147055
0.0147895
0.014559
0.0141967
0.0123217
0.0125493
0.0144109
0.0150138
0.0146209
0.015207
0.015672
0.0168588
0.0190178
0.0211508
0.0229846
0.0216822
0.0210334
0.0210132
0.0206101
0.0175304
0.0208379
0.0236485
0.0241521
0.0244111
0.025222
0.026811
0.0277694
0.0268439
0.0263547
0.0258334
0.022809
0.024442
0.0279066
0.0283126
0.0289698
0.0295556
0.0301168
0.0314106
0.0307918
0.0299257
0.0293436
0.0265577
0.0256968
0.031688
0.0207344
0.0146351
0.0106091
0.0109612
0.0111984
0.0108997
0.0116654
0.0121961
0.0124162
0.0117257
0.0128055
0.0137147
0.0129672
0.0156178
0.0149157
0.0139059
0.0134623
0.0142135
0.0149215
0.015306
0.0164615
0.0265658
0.0273908
0.0228393
0.0293753
0.0319561
0.0289969
0.0318877
0.029576
0.0282467
0.0310344
0.0343775
0.0355593
0.0332383
0.0318852
0.0311873
0.0208127
0.0201262
0.0194048
0.0175498
0.0178139
0.0173402
0.0168754
0.0164559
0.0188854
0.020283
0.0213416
0.0210395
0.0207256
0.0203205
0.0215786
0.0263413
0.0357742
0.0439561
0.0465864
0.0453329
0.0416418
0.0351098
0.0290616
0.0285092
0.0264797
0.0251549
0.0248082
0.0188141
0.0149995
0.0174885
0.0174103
0.0184735
0.0191414
0.0196653
0.0200816
0.0204267
0.0207222
0.0210059
0.0212705
0.0215019
0.0216972
0.0218658
0.0220062
0.022158
0.0223406
0.0225939
0.0227978
0.0211928
0.0185912
0.0172576
0.0171112
0.0178249
0.0187255
0.0198522
0.0191094
0.0153966
0.0154711
0.0218902
0.0223187
0.0209458
0.0195271
0.0197312
0.0188925
0.0226649
0.02246
0.0232152
0.0230085
0.0227285
0.022449
0.0221701
0.021885
0.0216178
0.0213843
0.0211726
0.0209757
0.0207804
0.0205675
0.0202983
0.0199004
0.0192269
0.01844
0.0170677
0.018191
0.0193462
0.0209475
0.0228057
0.0237935
0.022947
0.0216834
0.0210524
0.021203
0.0214879
0.0218058
0.0221486
0.022546
0.0229684
0.0233671
0.0233362
0.0220465
0.0226809
0.0174339
0.0182895
0.0185877
0.0185462
0.0202091
0.0193652
0.014669
0.0151742
0.0158889
0.0171578
0.0197236
0.02008
0.0214148
0.0216376
0.0172874
0.0169785
0.0165556
0.0175715
0.0152124
0.0158378
0.0265133
0.0271519
0.034899
0.0382351
0.0398648
0.0331172
0.0455825
0.0524189
0.0505207
0.0408976
0.0234904
0.0346193
0.0421504
0.0487887
0.0457095
0.0355463
0.0448721
0.0473627
0.0632517
0.0588711
0.0525002
0.0632849
0.0447142
0.0268955
0.0158251
0.0163993
0.0152061
0.0306597
0.0347657
0.031454
0.0322991
0.0399415
0.0409574
0.0362046
0.0345295
0.0362862
0.0358408
0.0397876
0.0370795
0.0337217
0.0232871
0.0190159
0.0198476
0.021247
0.023065
0.0254007
0.0253004
0.0241629
0.0228061
0.0218386
0.020793
0.018302
0.0176525
0.0196087
0.0212352
0.0226107
0.0241148
0.02493
0.0257669
0.0259317
0.0258248
0.0255048
0.0250807
0.0245311
0.0238527
0.0224487
0.0236821
0.0243567
0.0245577
0.0248286
0.0251348
0.0254047
0.0255397
0.0254217
0.0244833
0.0236814
0.0225197
0.0214038
0.0198009
0.0176892
0.0183679
0.0201219
0.0217169
0.0228282
0.023875
0.023482
0.0239651
0.0246113
0.024638
0.024463
0.0242435
0.0240976
0.0241944
0.0248307
0.0265398
0.0262288
0.0290434
0.0302419
0.027675
0.0263451
0.0256532
0.025229
0.0249859
0.0247827
0.024587
0.0240464
0.0235028
0.0239994
0.0242498
0.0245445
0.0249
0.0254055
0.0260975
0.0271948
0.0286058
0.0284731
0.0262401
0.0261096
0.0250521
0.0242614
0.0238825
0.0238265
0.023871
0.0239708
0.023906
0.0233932
0.0230711
0.0234766
0.0224698
0.0225387
0.0215693
0.0202155
0.018779
0.0173295
0.0166693
0.0352399
0.0352328
0.0457633
0.0423919
0.037057
0.0470974
0.0600966
0.0520906
0.0628301
0.0666071
0.054105
0.0502937
0.0278447
0.0243624
0.017401
0.0189236
0.0202645
0.021464
0.0212804
0.0221976
0.0220795
0.0230412
0.0224985
0.0217094
0.0211762
0.0201633
0.0202198
0.0189521
0.0174103
0.0172768
0.0189213
0.0199518
0.0211275
0.0211144
0.0225689
0.0230777
0.0234774
0.0236317
0.023624
0.0237122
0.0238861
0.0243343
0.0250498
0.0255174
0.0256672
0.0261108
0.0258617
0.0255387
0.0250755
0.0247604
0.0244383
0.0241568
0.0238608
0.0235825
0.0231529
0.0225001
0.0223803
0.022893
0.0232346
0.023473
0.0236141
0.0236036
0.0234211
0.0231185
0.0228169
0.0224749
0.022533
0.0237751
0.0239892
0.0241068
0.0238868
0.0237154
0.0236977
0.0235803
0.0234852
0.0232534
0.0228829
0.0224087
0.0213424
0.021446
0.0223275
0.0227743
0.0231065
0.0233881
0.0234027
0.0233107
0.0229308
0.0226385
0.0222991
0.0217558
0.0210646
0.0187101
0.0191678
0.0197811
0.0206064
0.021437
0.0221438
0.0225913
0.0227729
0.0227616
0.0225833
0.0222277
0.0214798
0.0214609
0.0220036
0.0221785
0.0221377
0.0218465
0.0212442
0.020331
0.0191376
0.0179274
0.0169502
0.0164424
0.0156469
0.0182294
0.0192358
0.0201664
0.0210217
0.0218299
0.0226863
0.0230298
0.0231067
0.0229487
0.0226812
0.0222648
0.021492
0.0215027
0.0222093
0.0226035
0.0228235
0.0229248
0.0226303
0.0219388
0.0204011
0.0189845
0.0178109
0.016738
0.0156294
0.0152243
0.0157262
0.0153595
0.015848
0.0170002
0.0184921
0.0198545
0.020822
0.0214027
0.0216762
0.0216959
0.0213601
0.0211828
0.02132
0.0211356
0.0206578
0.019809
0.0185378
0.0170595
0.0158108
0.0153866
0.015989
0.0166358
0.0160391
0.013913
0.0150293
0.0161025
0.0172225
0.0188978
0.0209597
0.0219795
0.0224742
0.0226236
0.0225032
0.0221366
0.0214812
0.0214298
0.022056
0.0224123
0.0225094
0.0224088
0.0219366
0.0210714
0.0185556
0.0158253
0.0146036
0.0139133
0.0129673
0.0161895
0.0168814
0.0160658
0.0155332
0.0164019
0.017472
0.0186522
0.0195519
0.0201864
0.0206736
0.0209328
0.0209478
0.0206799
0.0205792
0.0203726
0.0200355
0.0196903
0.0193275
0.0185198
0.0176739
0.0167228
0.0177878
0.0183568
0.0176041
0.0144611
0.0150267
0.0158046
0.0162624
0.0188916
0.0213866
0.0221048
0.0223467
0.0224639
0.0223462
0.0219597
0.021346
0.0212267
0.0218588
0.0223266
0.0226015
0.0228641
0.022992
0.0230843
0.0211554
0.0179163
0.0172433
0.0155882
0.0147522
0.0181595
0.0188552
0.0183898
0.0178298
0.0194785
0.0201786
0.0204423
0.020452
0.0203891
0.0202967
0.0203052
0.020404
0.0201087
0.0199998
0.0201106
0.0203261
0.0202749
0.0200395
0.0194595
0.0186935
0.0176236
0.0194592
0.0211197
0.0208549
0.016993
0.0175291
0.0182879
0.0177804
0.0204335
0.0223109
0.0228424
0.0228681
0.0226222
0.0221921
0.0216741
0.0210439
0.0207705
0.0213271
0.0218952
0.0219413
0.0220623
0.0220364
0.0214737
0.0213132
0.0207393
0.0204726
0.0197078
0.0191308
0.0183758
0.0205484
0.0237622
0.0259727
0.0275554
0.0294471
0.0280084
0.0244807
0.0222053
0.0152742
0.0152859
0.0155133
0.014883
0.0145092
0.0143344
0.018782
0.0215324
0.0242484
0.0260082
0.0235492
0.0235193
0.0234332
0.0233134
0.0231983
0.0231026
0.0228981
0.0237222
0.041562
0.283255
0.210376
0.235832
0.224956
0.315612
0.0802261
0.0392624
0.0436989
0.0511313
0.0589811
0.0572972
0.053135
0.0462063
0.0413029
0.0408895
0.0400546
0.0398074
0.0383069
0.0383
0.0374803
0.0447842
0.0937312
0.123289
0.136913
0.145405
0.15451
0.149961
0.159009
0.15097
0.15148
0.153084
0.157804
0.15043
0.143061
0.139202
0.134911
0.117641
0.117996
0.0996212
0.103448
0.086384
0.0908974
0.0948087
0.0941654
0.0929673
0.0927573
0.0930441
0.0938749
0.0975447
0.0928893
0.0995043
0.0923325
0.0745611
0.0722418
0.0746878
0.0688504
0.0600726
0.0686068
0.0846157
0.101114
0.118041
0.0998446
0.123637
0.116154
0.115719
0.109852
0.103407
0.09958
0.0988124
0.099397
0.100493
0.103103
0.104997
0.106564
0.109408
0.117941
0.120231
0.118784
0.10138
0.0861506
0.094629
0.0994425
0.103152
0.103448
0.0987715
0.0966118
0.0904022
0.0888319
0.0833003
0.0807232
0.0752541
0.0719553
0.0671451
0.0836076
0.0817967
0.0887729
0.0950291
0.0992796
0.102895
0.104481
0.105711
0.104504
0.102098
0.0971482
0.0950936
0.0903157
0.108713
0.127071
0.129869
0.125278
0.11181
0.106225
0.338903
0.4111
0.41226
0.611859
0.653495
0.844729
0.335523
0.179901
0.192359
0.189054
0.180911
0.177747
0.177541
0.189308
0.19841
0.189549
0.20074
0.179295
0.176981
0.172213
0.201554
0.19951
0.180037
0.157714
0.125647
0.102902
0.103228
0.0856557
0.0864638
0.0740884
0.0742299
0.0751145
0.0914019
0.168577
0.208397
0.234932
0.2612
0.321501
0.291311
0.440427
0.35302
0.438637
0.302826
0.327255
0.313002
0.304266
0.302283
0.318299
0.340744
0.299617
0.372661
0.298623
0.64687
0.783411
0.496635
0.459107
0.407227
0.393226
0.383465
0.378021
0.369996
0.487413
0.452256
0.553906
0.514644
0.643404
0.567368
0.578254
0.544896
0.584842
0.606334
0.619625
0.497134
0.5463
0.4257
0.461091
0.382085
0.417445
0.293779
0.292414
0.333631
0.370807
0.396303
0.452286
0.711699
0.604449
0.81531
0.584201
0.706117
0.490393
0.537073
0.512973
0.495286
0.496876
0.524848
0.629202
0.608593
0.694915
0.514695
0.526979
0.516695
0.53404
0.52347
0.558405
0.563084
0.564254
0.562221
0.523415
0.533994
0.53218
0.531967
0.531989
0.532335
0.509578
0.512758
0.505222
0.511002
0.526913
0.514577
0.514494
0.512363
0.504791
0.502738
0.502254
0.504013
0.503782
0.508914
0.508785
0.509124
0.51218
0.526885
0.514439
1.82608
0.905035
0.431039
0.34034
0.220557
0.135098
0.0556762
0.0601031
0.063006
0.0639065
0.0618408
0.0564584
0.0483244
0.0383882
0.0306254
0.029715
0.0264677
0.0267852
0.0344154
0.0420285
0.0383967
0.0462056
0.0539209
0.0622424
0.0702167
0.0771621
0.0830372
0.0859897
0.0829806
0.0702896
0.0526373
0.0352793
0.025048
0.0226524
0.0210104
0.0190134
0.0169083
0.0152668
0.0142587
0.013083
0.012447
0.0123545
0.0125669
0.0128035
0.013238
0.0147496
0.0160462
0.0172273
0.0181844
0.0184282
0.0179238
0.0184638
0.019057
0.0194488
0.0197894
0.0196281
0.0196287
0.0198747
0.0198348
0.0200383
0.0199384
0.01994
0.0197975
0.0196199
0.0193924
0.0189525
0.0186743
0.0181142
0.01777
0.0169518
0.0169872
0.0173977
0.0177264
0.0167337
0.016685
0.0159209
0.0265008
0.0475581
0.0609629
0.0660105
0.071323
0.0673254
0.0568718
0.0388338
0.0191038
0.0188032
0.0192736
0.0217761
0.0212932
0.0173857
0.0181682
0.0187175
0.0174892
0.0173588
0.0173883
0.0193969
0.0199803
0.0213596
0.0218524
0.0222537
0.0224761
0.0224721
0.0225737
0.0223262
0.022333
0.0219684
0.0219542
0.0216439
0.0214129
0.0216996
0.0223863
0.0224505
0.0230653
0.0227593
0.0224425
0.0218808
0.0214562
0.0206086
0.019672
0.0186729
0.0171429
0.0167094
0.0172349
0.0177552
0.0173064
0.0187714
0.0200419
0.0197213
0.0243962
0.0226812
0.0202413
0.0227328
0.0185088
0.0186925
0.0181406
0.0170431
0.0175894
0.0170747
0.0169786
0.0172624
0.0175363
0.0186944
0.0196511
0.0202992
0.0211629
0.021822
0.0225381
0.0237359
0.0240467
0.0230976
0.0229302
0.0217502
0.0210714
0.0207592
0.0216863
0.022972
0.0228615
0.0237189
0.0234586
0.0222167
0.021404
0.0205408
0.019561
0.0188962
0.0181249
0.017399
0.0169882
0.0161895
0.0163116
0.0152434
0.0168021
0.0171561
0.0192624
0.0174171
0.016948
0.0224258
0.0282342
0.0440889
0.032148
0.0212405
0.022929
0.031058
0.0385507
0.0267878
0.026401
0.0150617
0.0170803
0.0151949
0.0154702
0.0165353
0.0168233
0.0179872
0.019044
0.019277
0.0200266
0.020367
0.0211427
0.0213994
0.0221361
0.0223286
0.0235986
0.0236686
0.0237466
0.0237281
0.0229596
0.0228889
0.022936
0.0233751
0.0231482
0.0238114
0.0238348
0.023908
0.0238359
0.0224987
0.0221772
0.0214067
0.0208938
0.0199874
0.0194402
0.0187221
0.0183363
0.0177131
0.0180317
0.0187532
0.0189565
0.0198707
0.0198903
0.0206385
0.0208438
0.0213094
0.0214407
0.0221071
0.0222456
0.0225126
0.0225684
0.023777
0.0238917
0.0239326
0.0238969
0.0239159
0.0241487
0.0241499
0.0240885
0.0240791
0.0240209
0.02387
0.0237297
0.0247864
0.025446
0.0249618
0.0247217
0.0249923
0.0258535
0.0264063
0.0275066
0.0283648
0.0294492
0.0303475
0.031182
0.0318647
0.0323508
0.0324798
0.03252
0.0320753
0.031704
0.0334015
0.0399047
0.04313
0.0483928
0.050767
0.0527515
0.0534748
0.0523102
0.053022
0.0517385
0.0519914
0.0507889
0.0503471
0.0495199
0.0485032
0.0477801
0.0463019
0.0455704
0.0501794
0.0567846
0.056911
0.0499164
0.0470274
0.0426121
0.0369798
0.0390571
0.0455173
0.0408423
0.0385355
0.0356732
0.0306238
0.0234602
0.0178131
0.0255121
0.0332424
0.0404931
0.0473078
0.0533253
0.0572183
0.0593346
0.0608498
0.0625501
0.0605297
0.0530973
0.0415275
0.0317321
0.0278886
0.0263443
0.0238965
0.0204514
0.0185597
0.0174829
0.0163258
0.0149738
0.0141119
0.0138656
0.0140988
0.0142126
0.0155587
0.0168182
0.0168122
0.0179892
0.0178226
0.0183314
0.01892
0.0193184
0.0199883
0.0199541
0.0189948
0.01934
0.019602
0.0202764
0.0201741
0.0203412
0.0201182
0.0193997
0.0188825
0.018283
0.0177663
0.0173114
0.0167439
0.016042
0.0160303
0.016233
0.0157908
0.0161934
0.0166277
0.0170288
0.0176538
0.0185594
0.0193189
0.021147
0.0212939
0.0210422
0.0211301
0.0197062
0.0196467
0.0186734
0.0184426
0.0200346
0.019881
0.018209
0.0196049
0.0196047
0.0213796
0.0213805
0.0207088
0.0209057
0.020784
0.0189594
0.0180692
0.0170044
0.0162286
0.015646
0.0152521
0.0147945
0.0154116
0.0142313
0.013647
0.0140867
0.0140622
0.0141279
0.0145141
0.0149421
0.0156852
0.0163875
0.0174294
0.0180659
0.0189622
0.0192952
0.0212005
0.0211148
0.0209922
0.0210228
0.0211564
0.0216092
0.0208179
0.0207802
0.0209212
0.0209358
0.0209526
0.0209335
0.019098
0.0188946
0.0180606
0.0177437
0.0168157
0.0164582
0.0158042
0.0154916
0.015104
0.0149076
0.0232817
0.0254807
0.0256466
0.0398068
0.0199909
0.0199855
0.0343509
0.0173609
0.0230834
0.0236395
0.0247115
0.0259208
0.0225683
0.0307445
0.02123
0.0233361
0.0240722
0.0252544
0.0127746
0.0190395
0.0364805
0.0421752
0.0435268
0.048503
0.0552528
0.0585047
0.0615667
0.0636348
0.0659075
0.0683753
0.0707906
0.0725459
0.0727114
0.0690521
0.0660096
0.0565419
0.0527258
0.0564743
0.0609072
0.0474302
0.0426351
0.0431877
0.0436637
0.0442062
0.0444222
0.0451223
0.0449334
0.0459461
0.0452132
0.0463338
0.0451902
0.0462332
0.0449766
0.0422229
0.0389833
0.0327432
0.0307475
0.0296305
0.0269028
0.0243917
0.0221253
0.020286
0.019846
0.0182752
0.0168647
0.0165651
0.0152753
0.0155198
0.016727
0.0198375
0.0168161
0.0176691
0.0259592
0.0191379
0.0180513
0.0186027
0.0191243
0.0193619
0.0182569
0.0198913
0.0221731
0.0221582
0.0222194
0.0222245
0.0214227
0.021261
0.0209852
0.02104
0.0210725
0.0211917
0.0211579
0.019338
0.0192817
0.0190089
0.0188706
0.0180834
0.0179163
0.0173346
0.0170056
0.0161674
0.0158742
0.0154242
0.0154731
0.0165259
0.0202629
0.029592
0.0172012
0.0178116
0.0154379
0.013943
0.0265686
0.0247749
0.0286063
0.0267708
0.0394273
0.0264256
0.02319
0.0242052
0.0297193
0.0296475
0.032565
0.0423403
0.0329993
0.0281167
0.0722725
0.0521663
0.0329319
0.0456797
0.057707
0.108229
0.127004
0.0557467
0.0562917
0.0620066
0.0628976
0.06277
0.0530927
0.0489824
0.0410434
0.0314714
0.0129144
0.0248984
0.032127
0.0423276
0.0564642
0.0918352
0.0527766
0.0596124
0.0655717
0.0646486
0.0677491
0.0658812
0.0644938
0.0654426
0.102588
0.111636
0.107122
0.0855344
0.0802962
0.0737865
0.123814
0.139005
0.119761
0.129793
0.135373
0.0806329
0.0302036
0.0249486
0.0238227
0.0263982
0.0253462
0.0460419
0.0205753
0.0218217
0.0226478
0.0271659
0.0301715
0.052929
0.0232383
0.0254558
0.032408
0.0348731
0.0459778
0.0274246
0.028093
0.0344296
0.0362224
0.0395352
0.0336387
0.0317469
0.0287266
0.0259138
0.024416
0.0254664
0.0318662
0.0463852
0.0278796
0.0283074
0.0300735
0.133434
0.030738
0.0266459
0.0276979
0.0267075
0.0336691
0.0351289
0.110969
0.0354257
0.0166902
0.0154582
0.0159369
0.0167476
0.0173847
0.0180006
0.0184459
0.0190839
0.0194796
0.0196303
0.019798
0.0221727
0.0220794
0.0216123
0.0210691
0.0218647
0.0211697
0.0212195
0.0218371
0.0213045
0.0214457
0.0224972
0.0236671
0.0231831
0.0237509
0.0250982
0.0239384
0.0222341
0.0220304
0.0221562
0.0228629
0.0240043
0.0228096
0.0234591
0.0226386
0.0235637
0.0236648
0.0203663
0.0200004
0.0197988
0.0192939
0.0186224
0.0179979
0.0173249
0.0166688
0.0161517
0.0160501
0.0165124
0.0151794
0.0155472
0.0177996
0.0389357
0.0320449
0.0262737
0.0220674
0.0194879
0.0183849
0.0182906
0.0187451
0.0193987
0.0199628
0.0201704
0.0207532
0.0246306
0.0245851
0.0257925
0.0246501
0.0259904
0.0249381
0.0236114
0.0227411
0.0239494
0.023249
0.0237388
0.0253595
0.0262094
0.0238476
0.0241202
0.0215255
0.0201074
0.0184877
0.0188272
0.0202795
0.0209603
0.0234051
0.0234843
0.0269287
0.0269034
0.0267495
0.0255081
0.0248325
0.0262873
0.0247988
0.0259506
0.0248366
0.0262439
0.0274268
0.0277748
0.0270689
0.0261983
0.025321
0.0210519
0.0202659
0.0199596
0.0194627
0.0191919
0.0200704
0.0242194
0.0332547
0.0451916
0.0572259
0.0666619
0.0662701
0.0597562
0.0403162
0.0414887
0.0383946
0.041974
0.0595475
0.0848702
0.0593021
0.113683
0.0881029
0.0523094
0.0626401
0.0746068
0.0837522
0.089618
0.0904678
0.0768855
0.0565085
0.0496183
0.052058
0.0845014
0.0832394
0.0823845
0.0779508
0.0824317
0.0803256
0.0776655
0.0761128
0.0743459
0.0701121
0.0700913
0.0674246
0.0673976
0.0602559
0.0614451
0.0616813
0.0591097
0.0563635
0.0540783
0.0518897
0.0495675
0.0456729
0.0443918
0.0419107
0.0401653
0.0368058
0.0362732
0.0357883
0.0336128
0.0320596
0.0308055
0.0295429
0.0278383
0.0279968
0.0263948
0.0262369
0.0213778
0.0210014
0.0199896
0.0196523
0.0193935
0.0195672
0.02076
0.0233645
0.0433302
0.0330213
0.0329292
0.0335102
0.0337278
0.0396347
0.0464248
0.0707003
0.0654162
0.0720159
0.0615476
0.0640039
0.0632071
0.0628164
0.0655306
0.0691181
0.0744561
0.0869576
0.333696
0.513813
0.253347
0.237301
0.246904
0.251778
0.259213
0.339379
0.36023
0.356315
0.360761
0.330609
0.318348
0.19664
0.226048
0.238116
0.236983
0.223829
0.201925
0.392088
0.522664
0.518791
0.523658
0.52377
0.518765
0.522606
0.502911
0.514274
0.501758
0.51503
0.502299
0.521679
0.518939
0.504364
0.501137
0.501156
0.500916
0.501378
0.501555
0.504893
0.506055
0.506107
0.505102
0.50411
0.514527
0.435669
0.121542
0.0844051
0.140073
0.194619
0.159175
0.231053
0.265816
0.191509
0.108699
0.0884558
0.0997832
0.122853
0.124423
0.151394
0.198406
0.185903
0.151693
0.152716
0.152964
0.197975
0.189782
0.216094
0.258331
0.25186
0.18727
0.148937
0.147735
0.225687
0.240852
0.236124
0.121547
0.0434294
0.0217112
0.0225764
0.0326284
0.0164694
0.0168175
0.0218738
0.0568539
0.0954187
0.0490598
0.134796
0.136958
0.181472
0.146992
0.177939
0.115093
0.118596
0.0674621
0.0794654
0.089422
0.0951955
0.0994665
0.0933942
0.215673
0.318109
0.189782
0.560098
0.537513
0.195635
0.216932
0.575735
0.513013
0.503521
0.501784
0.501698
0.501858
0.501815
0.500969
0.500915
0.500728
0.500765
0.500716
0.501163
0.504767
0.520404
0.514615
0.50524
0.501385
0.500824
0.500799
0.50069
0.50073
0.50075
0.500807
0.501017
0.501049
0.50115
0.50167
0.503941
0.512033
0.435747
0.169887
0.182276
0.406062
0.361811
0.511505
0.504622
0.501369
0.500941
0.500855
0.500829
0.500794
0.500969
0.50089
0.501397
0.501231
0.501287
0.502777
0.50826
0.506399
0.443467
0.369675
0.417458
0.330208
0.506674
0.507779
0.503277
0.502899
0.503246
0.503413
0.501513
0.501526
0.500992
0.50106
0.500892
0.50134
0.504756
0.511017
0.345963
0.170829
0.177733
0.257982
0.0878607
0.0907688
0.0926761
0.0947567
0.246796
0.44073
0.554749
0.470529
0.474746
0.541544
0.385217
0.363974
0.293703
0.317341
0.401602
0.347009
0.312615
0.250125
0.288381
0.247617
0.3034
0.217792
0.234093
0.221674
0.282972
0.286847
0.287214
0.226646
0.216518
0.271572
0.28589
0.31688
0.218686
0.25897
0.203236
0.192266
0.0870696
0.0892232
0.0810948
0.0711384
0.0709212
0.0790664
0.0775206
0.08372
0.0807293
0.0844458
0.0815885
0.0795482
0.0727272
0.0747469
0.0685204
0.0711626
0.130168
0.166306
0.150245
0.151674
0.17937
0.130866
0.157233
0.153225
0.197322
0.247716
0.225822
0.290158
0.22441
0.275167
0.405172
0.753922
0.436246
0.24363
0.317719
0.34004
0.288489
0.189427
0.449357
0.538491
0.297902
0.360245
1.19675
1.044
1.78193
0.992023
1.11802
0.669912
0.597191
1.02811
0.653051
0.665327
0.558948
0.572859
0.498302
0.323728
0.323114
0.305064
0.241421
0.279922
0.270655
0.26646
0.295959
0.261051
0.315968
0.351752
0.396378
0.322235
0.285002
0.366087
0.215239
0.289833
0.345416
0.314876
0.25907
0.337007
0.448748
0.419438
0.360786
0.398051
0.508275
0.561989
0.53044
0.449835
0.510347
1.00456
0.960843
0.929585
0.589253
1.93381
1.7168
0.350864
0.136266
0.0948279
0.0359204
0.022391
0.0182682
0.0178744
0.0487579
0.0195448
0.0235121
0.0211455
0.0298103
0.027226
0.0314621
0.0550477
0.0374239
0.0524307
0.0389394
0.0515848
0.0410909
0.0564533
0.0606119
0.063783
0.0515799
0.040689
0.0614727
0.0820306
0.0384016
0.0987642
0.104361
0.0673897
0.0820037
0.101225
0.052384
0.163861
0.056899
0.0564463
0.0669759
0.125572
0.249625
0.0847066
0.111314
0.583413
1.5286
0.508143
0.200053
0.162958
0.0413563
0.0359166
0.0291466
0.0355255
0.0313512
0.0623849
0.0629567
0.154444