/*--------------------------------*- C++ -*----------------------------------*\
| =========                 |                                                 |
| \\      /  F ield         | OpenFOAM: The Open Source CFD Toolbox           |
|  \\    /   O peration     | Version:  v2012                                 |
|   \\  /    A nd           | Website:  www.openfoam.com                      |
|    \\/     M anipulation  |                                                 |
\*---------------------------------------------------------------------------*/
FoamFile
{
    version     2.0;
    format      ascii;
    class       volVectorField;
    location    "140";
    object      U;
}
// * * * * * * * * * * * * * * * * * * * * * * * * * * * * * * * * * * * * * //

dimensions      [0 1 -1 0 0 0 0];


internalField   nonuniform List<vector> 
18258
(
(-0.177489 0.122331 0.13633)
(-0.0523417 0.247234 0.155477)
(-0.105104 0.217244 0.0965622)
(-0.0351199 0.072944 0.0833638)
(-0.225672 0.206635 0.0156772)
(-0.157513 0.36681 0.0140992)
(-0.221373 0.0460517 0.0517884)
(-0.339373 -0.0504917 0.0736601)
(-0.446164 -0.104171 0.107316)
(-0.532908 -0.158405 0.145156)
(-0.619112 -0.216209 0.179448)
(-0.685775 -0.270712 0.309017)
(-0.677173 -0.333539 0.356974)
(-0.620848 -0.444932 0.385729)
(-0.486842 -0.542622 0.369505)
(-0.204295 -0.586839 0.340497)
(0.0738995 -0.374268 0.288386)
(0.079569 -0.165467 0.298303)
(-0.125621 -0.0782749 0.235765)
(-0.394221 -0.27409 0.115486)
(-0.134834 -0.523479 0.288536)
(-0.189973 -0.363062 0.405798)
(-0.292181 -0.733656 0.299018)
(-0.350041 -0.774535 0.262353)
(-0.127097 -0.708707 0.138606)
(0.00862229 -0.644817 0.18633)
(-0.013273 -0.337522 0.421413)
(0.176526 -0.111516 0.800701)
(0.300209 -0.0945963 0.885827)
(0.317682 0.0584047 0.902033)
(0.320379 0.189095 0.799171)
(0.163442 0.302056 0.0673746)
(0.0866404 0.117534 -0.436172)
(0.0236328 0.0693098 -0.732797)
(-0.0579397 0.07111 -0.903957)
(-0.048849 0.0687763 -1.08451)
(-0.063449 0.0685569 -1.22777)
(-0.0910399 0.0870446 -1.32506)
(-0.13035 0.0775718 -1.37412)
(-0.175941 0.0828328 -1.36044)
(-0.224605 0.0687257 -1.27632)
(-0.26997 0.0770306 -1.1223)
(-0.30767 0.0715293 -0.911111)
(-0.338062 0.0711935 -0.655189)
(-0.348993 0.0723511 -0.359574)
(-0.334626 0.0680388 -0.159393)
(-0.167082 0.144917 -0.204448)
(0.330322 -0.0935967 -0.141026)
(0.585535 -0.13181 -0.163908)
(0.64965 -0.110621 -0.171703)
(0.770034 -0.135175 -0.179439)
(0.803877 -0.133887 -0.195878)
(0.504634 -0.00844875 -0.257994)
(0.25924 -0.138392 -0.218923)
(0.113616 -0.0427597 -0.159202)
(0.282533 -0.0100633 -0.169289)
(0.53761 -0.00286912 -0.17385)
(0.791905 -0.0302132 -0.178044)
(1.09242 -0.0348008 -0.17579)
(1.42823 -0.0488932 -0.185235)
(1.76291 -0.0646254 -0.183614)
(2.04714 -0.0812204 -0.16673)
(2.24794 -0.0929601 -0.138345)
(2.34837 -0.0991232 -0.102794)
(2.35543 -0.0964806 -0.0682836)
(2.2955 -0.0888085 -0.0416736)
(2.20229 -0.0822731 -0.0249729)
(2.11004 -0.0761067 -0.0181898)
(2.04076 -0.0672684 -0.0191509)
(1.9952 -0.0643833 -0.0237391)
(1.97091 -0.059208 -0.0260849)
(1.96036 -0.0502753 -0.0204866)
(1.94605 -0.0397414 -0.00344137)
(1.90251 -0.0248942 0.0241515)
(1.81483 -0.00782731 0.0537334)
(1.6938 0.00957095 0.0770218)
(1.57291 0.0217738 0.0798438)
(1.48023 0.0307551 0.0751744)
(1.40216 0.0378223 0.0704858)
(1.33996 0.0505996 0.0631042)
(1.28912 0.0572479 0.0649052)
(1.19554 0.044348 0.0784742)
(1.09852 0.0190361 0.110014)
(1.01568 0.000739636 0.127398)
(0.90838 -0.0208365 0.120435)
(0.764353 0.0167611 0.145671)
(0.643486 0.0817723 0.133094)
(0.519631 0.100744 0.133971)
(0.382331 0.118229 0.118395)
(0.225441 0.127019 0.0963243)
(0.120856 0.189294 0.0919603)
(0.122829 0.0100728 0.197854)
(0.164882 -0.101041 0.144338)
(0.113971 -0.129875 0.0408172)
(0.105573 -0.115225 -0.140478)
(0.217971 -0.21047 -0.367372)
(0.263954 -0.234672 -0.552712)
(0.205772 -0.142853 -0.729286)
(0.107834 -0.0854871 -0.720921)
(0.0365753 0.0494154 -0.504401)
(-0.0732155 0.222494 -0.204886)
(-0.210788 0.202218 0.17241)
(-0.233848 0.0669488 0.145741)
(-0.339122 0.0183867 0.163268)
(-0.265984 0.145962 0.170361)
(-0.239256 0.290654 -0.0730177)
(-0.106202 0.156071 -0.412499)
(0.0680885 -0.000251194 -0.591536)
(0.337066 -0.0964865 -0.631749)
(0.498742 -0.23129 -0.487182)
(0.352788 -0.210653 -0.277566)
(0.272598 -0.191471 -0.0992166)
(0.283884 -0.186381 0.0405979)
(0.281634 -0.139933 0.160704)
(0.226314 -0.0989574 0.191864)
(0.397834 -0.0811328 0.18083)
(0.537337 -0.0632041 0.176247)
(0.589939 -0.0519854 0.164309)
(0.702031 -0.0786091 0.160375)
(0.734456 -0.133529 0.132265)
(0.602554 -0.134102 0.135158)
(0.455694 -0.151513 0.139881)
(0.462679 -0.185553 0.0361638)
(0.612343 -0.162646 0.0518936)
(0.738082 -0.161872 0.0493077)
(0.906721 -0.141445 0.0812089)
(1.09024 -0.109616 0.110732)
(1.19145 -0.0775045 0.148073)
(1.21055 -0.0105493 0.139597)
(1.24774 -0.00893902 0.120195)
(1.33772 -0.00684198 0.139709)
(1.37972 -0.0016087 0.129638)
(1.37129 -0.0123984 0.158436)
(1.33065 -0.048017 0.193713)
(1.32494 -0.0509395 0.190662)
(1.2877 -0.0618702 0.152021)
(1.28108 -0.0601183 0.135225)
(1.26061 -0.0479671 0.108297)
(1.25228 -0.0459614 0.110355)
(1.20504 0.00365519 0.108786)
(1.19788 0.026708 0.137011)
(1.08282 0.13522 0.26917)
(1.22968 0.0518177 0.251915)
(1.22172 0.0193389 0.15779)
(1.26948 -0.0210449 0.127896)
(1.28129 -0.0251822 0.118785)
(1.29111 -0.0381666 0.14423)
(1.30994 -0.0414059 0.183416)
(1.35265 -0.036582 0.217333)
(1.38851 -0.0365556 0.222207)
(1.4255 -0.0126757 0.183243)
(1.43894 -0.00183252 0.137967)
(1.51508 -0.00645147 0.151118)
(1.61308 -0.0166395 0.159255)
(1.75243 -0.0315582 0.143666)
(1.88469 -0.054163 0.0489767)
(1.96621 -0.0756561 -0.071365)
(1.98564 -0.0905636 -0.164578)
(1.96818 -0.0966604 -0.200964)
(1.95178 -0.0970884 -0.195007)
(1.96181 -0.0915513 -0.175321)
(2.00863 -0.0831189 -0.145083)
(2.08986 -0.070782 -0.108678)
(2.20081 -0.0606387 -0.0851031)
(2.31456 -0.0603219 -0.114011)
(2.39098 -0.0613659 -0.174323)
(2.39328 -0.0588739 -0.277967)
(2.28716 -0.0505085 -0.392904)
(2.07165 -0.0427009 -0.484096)
(1.77124 -0.0368287 -0.540438)
(1.42738 -0.0316477 -0.549169)
(1.08133 -0.0193853 -0.527982)
(0.792761 -0.0244493 -0.459686)
(0.537065 -0.0159303 -0.415849)
(0.283122 -0.0214498 -0.387249)
(0.109197 -0.0403123 -0.361258)
(0.102283 -0.0420976 -0.637975)
(0.0774255 -0.0371649 -0.874181)
(0.0507261 -0.0390399 -1.05873)
(0.011866 -0.0402825 -1.1774)
(-0.0232257 -0.0279829 -1.2172)
(-0.0598031 -0.0155788 -1.16978)
(-0.0935104 0.00323683 -1.04108)
(-0.118931 0.02636 -0.825373)
(-0.121356 0.0813801 -0.563225)
(-0.145688 0.133163 -0.0527371)
(-0.191488 0.0273876 0.564342)
(-0.207399 -0.0327525 0.750924)
(-0.22603 -0.00147288 0.919854)
(-0.231221 -0.043987 1.06245)
(-0.316994 -0.102955 1.12469)
(-0.37043 -0.108651 1.13849)
(-0.368486 -0.230993 1.00081)
(-0.295289 -0.249444 0.769188)
(-0.457829 -0.663968 0.68648)
(-0.48547 -0.541166 0.704096)
(-0.413709 -0.409535 0.830838)
(-0.550437 -0.763387 0.85361)
(-0.686019 -0.829409 0.602165)
(-0.47611 -0.752028 0.798349)
(-0.436984 -0.573488 0.739761)
(-0.785416 -0.523838 0.745583)
(-0.905114 -0.407334 0.854343)
(-0.53168 -0.704576 0.818069)
(-0.441408 -0.576743 0.658919)
(-0.320551 -0.316681 0.398812)
(-0.298902 -0.177656 0.392931)
(-0.281843 -0.142056 0.345751)
(-0.232618 0.117156 0.107006)
(-0.162418 0.294022 -0.420804)
(-0.152521 0.183358 -0.640057)
(-0.131833 0.0275034 -0.915636)
(-0.0866495 -0.0572139 -1.08697)
(-0.028669 -0.0693799 -1.23473)
(0.0381007 -0.101808 -1.26951)
(0.0976673 -0.0984931 -1.23459)
(0.171894 -0.109261 -1.12077)
(0.215902 -0.123439 -0.920939)
(0.259998 -0.146853 -0.70634)
(0.249052 -0.139466 -0.399165)
(0.417124 -0.0520854 -0.638564)
(0.763589 -0.117991 -0.460412)
(0.7128 -0.108207 -0.417785)
(0.60666 -0.0724954 -0.413098)
(0.521583 -0.107018 -0.425183)
(0.0961475 -0.111461 -0.540507)
(0.153351 -0.121876 -0.936846)
(0.241632 -0.227435 -1.08855)
(0.333109 -0.284968 -0.97309)
(0.391298 -0.353864 -0.540515)
(0.200653 0.00895461 0.162682)
(0.260359 0.10633 0.170448)
(0.428383 -0.32429 0.332219)
(0.515499 -0.528309 0.502939)
(0.544642 -0.52149 0.552052)
(0.412387 -0.234174 0.674282)
(0.471482 -0.33629 0.566304)
(0.486706 -0.60732 0.551895)
(0.702539 -0.670775 0.320764)
(0.744737 -0.485654 0.45887)
(0.795615 -0.344697 0.599832)
(0.231066 -0.223432 0.572949)
(-0.24262 -0.266824 0.822466)
(-0.180806 -0.191167 0.672394)
(-0.676801 -0.298286 0.814946)
(-0.476033 -0.178116 0.687849)
(-0.325158 -0.000415317 0.536032)
(-0.218658 0.173527 -0.298336)
(-0.192821 -0.0456296 -0.62004)
(-0.0567076 -0.169167 -1.10147)
(0.103736 -0.158185 -1.25059)
(0.274262 -0.0882887 -1.11881)
(0.429399 -0.106408 -0.704288)
(0.494299 -0.073266 -0.631449)
(0.483903 -0.042024 -0.624278)
(0.522777 -0.0882183 -0.6556)
(0.575663 -0.120905 -0.748095)
(0.388774 -0.041652 -0.695009)
(0.351273 -0.0780153 -0.673163)
(0.130091 -0.112252 -0.677249)
(-0.109892 -0.0496386 -0.588345)
(0.287202 -0.000159824 -0.601124)
(0.34263 0.0101134 -0.625631)
(0.628755 -0.101933 -0.662596)
(0.575485 -0.0992152 -0.415308)
(0.266974 0.0659118 -0.390786)
(0.280457 0.0505072 -0.287688)
(-0.306226 -0.0437881 0.0884778)
(-0.307377 0.143124 -0.0140331)
(-0.281828 -0.0246662 -0.454629)
(0.0837654 -0.199029 -0.581868)
(0.356416 -0.277452 -0.573409)
(0.720103 -0.342936 -0.409206)
(0.806997 -0.416085 -0.379633)
(0.767052 -0.289201 -0.297133)
(0.809035 -0.363259 -0.220807)
(0.824666 -0.48411 -0.285568)
(0.73613 -0.427943 -0.280974)
(0.711363 -0.302104 -0.335063)
(0.739817 -0.249962 -0.344799)
(0.786193 -0.309818 -0.21384)
(0.798812 -0.365819 -0.162238)
(0.889443 -0.464367 -0.157154)
(1.15689 -0.630501 -0.118064)
(1.61669 -0.725945 -0.0992479)
(1.99472 -0.672115 -0.0383962)
(2.15173 -0.490519 0.0471735)
(2.0722 -0.291535 0.0953949)
(1.90704 -0.163335 0.103092)
(1.80948 -0.09477 0.0995007)
(1.71269 0.000824372 0.0989785)
(1.57511 0.0894978 0.0911217)
(1.43766 0.107998 0.0481161)
(1.33304 0.0582498 0.0273829)
(1.24316 -0.00382839 0.021705)
(1.14137 -0.0533327 0.0234226)
(1.05744 -0.0781456 0.0215326)
(0.999831 -0.0619167 0.0170408)
(0.823606 -0.109763 -0.0237573)
(0.71857 0.00256675 0.00999832)
(0.635147 0.0686998 0.00906514)
(0.499179 0.023375 0.00673772)
(0.360556 -0.060732 -0.0130723)
(0.139375 -0.146982 -0.0320254)
(0.226096 -0.30891 0.00137947)
(0.354167 -0.0822788 0.0118309)
(-0.00251678 -0.230758 -0.0092183)
(0.0430968 -0.547102 -0.0505148)
(0.0120097 -0.713811 -0.0526413)
(-0.00807732 -0.877942 -0.0532866)
(-0.0260669 -1.00812 -0.0650312)
(-0.0361297 -1.10416 -0.0959747)
(-0.0466853 -1.1586 -0.105286)
(-0.0582484 -1.21598 -0.118457)
(-0.0885132 -1.27776 -0.134439)
(-0.113633 -1.32248 -0.149714)
(-0.137595 -1.35617 -0.162583)
(-0.159588 -1.37777 -0.173578)
(-0.178568 -1.38902 -0.183165)
(-0.193919 -1.39056 -0.189801)
(-0.206012 -1.38332 -0.193589)
(-0.216004 -1.36846 -0.193662)
(-0.224543 -1.34639 -0.191716)
(-0.232816 -1.31576 -0.18626)
(-0.240477 -1.27469 -0.177904)
(-0.245923 -1.22025 -0.164866)
(-0.243799 -1.15096 -0.147143)
(-0.190906 -1.07131 -0.126812)
(-0.141209 -0.968666 -0.112509)
(-0.165758 -0.868177 -0.0794673)
(-0.189761 -0.75422 -0.0818517)
(-0.204981 -0.542831 -0.0854409)
(-0.27371 -0.449819 -0.0919072)
(0.0222171 0.0533577 -0.116158)
(-0.350621 -0.307788 0.0250898)
(-0.231662 -0.616609 -0.0546753)
(-0.270257 -0.0989716 -0.0111616)
(-0.457638 -0.182215 0.0645473)
(-0.67799 -0.198507 0.0823016)
(-0.841171 -0.209142 0.114071)
(-0.95242 -0.223031 0.144161)
(-1.03304 -0.232464 0.203732)
(-1.11631 -0.244258 0.245264)
(-1.18548 -0.244195 0.301952)
(-1.19921 -0.248458 0.336176)
(-1.17241 -0.250258 0.366032)
(-1.10577 -0.249004 0.394277)
(-0.995395 -0.243372 0.422397)
(-0.8413 -0.230422 0.453744)
(-0.668041 -0.206246 0.493065)
(-0.421186 -0.147211 0.541793)
(-0.139409 -0.117986 0.565375)
(-0.158455 0.0286506 0.821279)
(-0.162134 0.0829323 1.04183)
(-0.161852 0.115105 1.11211)
(-0.162937 0.164118 1.02124)
(-0.165754 0.152965 0.839049)
(-0.151561 0.130762 0.56892)
(-0.121374 0.143154 0.287087)
(-0.222812 0.440656 0.371661)
(-0.504269 0.468109 0.335003)
(-0.68925 0.480712 0.339258)
(-0.914106 0.465591 0.332968)
(-1.09639 0.425097 0.309078)
(-1.22393 0.353895 0.266453)
(-1.28029 0.273982 0.219319)
(-1.26359 0.206633 0.181986)
(-1.23105 0.148357 0.158697)
(-1.18835 0.115632 0.140762)
(-1.09893 0.0928827 0.0904666)
(-0.957422 0.0455341 0.0700861)
(-0.766397 -0.0203135 0.0596072)
(-0.500331 -0.113467 0.0191069)
(-0.253088 -0.207318 -0.0188896)
(-0.274122 -0.197119 -0.0657192)
(-0.318029 -0.176493 0.00905069)
(-0.314235 -0.17372 0.0604585)
(-0.272457 -0.156303 0.151745)
(-0.380035 -0.233328 0.119439)
(-0.421547 -0.296405 0.119291)
(-0.325554 -0.28752 0.177461)
(-0.268631 -0.214631 0.045337)
(-0.139962 -0.100378 -0.026581)
(-0.140333 -0.0763687 -0.00820687)
(-0.138304 -0.0737088 -0.0363858)
(-0.169212 -0.0553138 -0.068572)
(-0.167774 -0.500749 -0.149308)
(-0.126197 -0.478749 -0.139318)
(-0.110455 -0.446178 -0.0967996)
(-0.100095 -0.423057 -0.146386)
(-0.265663 -0.537071 -0.031482)
(-0.275378 -0.574296 -0.0255552)
(-0.282898 -0.630605 -0.0836217)
(-0.3365 -0.581747 -0.0195811)
(-0.339271 -0.528978 0.0556331)
(-0.300463 -0.35839 0.0857275)
(-0.443243 -0.316472 0.115222)
(-0.360682 -0.431001 0.0407871)
(-0.346616 -0.521794 0.0143785)
(-0.377117 -0.507616 -0.0232637)
(-0.427586 -0.39385 0.0326077)
(-0.496446 -0.34619 0.0735853)
(-0.527585 -0.254548 0.164348)
(-0.589715 -0.215239 0.241904)
(-0.678754 -0.197325 0.256504)
(-0.575491 -0.206407 0.212131)
(-0.516226 -0.187447 0.181824)
(-0.544629 -0.184557 0.118505)
(-0.5392 -0.171588 0.0923768)
(-0.496104 -0.183686 0.00107723)
(-0.76133 -0.086294 0.0647207)
(-0.971186 -0.00503725 0.0898293)
(-1.07858 0.0525144 0.103755)
(-1.12768 0.0754495 0.138433)
(-1.165 0.0360943 0.238252)
(-1.24936 0.0692889 0.267573)
(-1.31478 0.1197 0.349544)
(-1.32796 0.171223 0.432366)
(-1.27015 0.222257 0.524834)
(-1.14488 0.261098 0.604306)
(-0.972217 0.281113 0.648656)
(-0.77261 0.283018 0.657527)
(-0.620954 0.288181 0.64447)
(-0.341041 0.27203 0.645286)
(-0.435246 0.243865 0.875494)
(-0.467662 0.226247 1.00363)
(-0.461047 0.178479 1.08192)
(-0.442189 0.12243 1.01402)
(-0.440915 0.057773 0.797651)
(-0.711421 -0.00558641 0.744243)
(-0.721725 0.0707921 0.944823)
(-0.739978 0.116646 1.0235)
(-0.744134 0.163753 0.979313)
(-0.693529 0.198366 0.872065)
(-0.835673 0.186017 0.861841)
(-0.877961 0.145642 0.964639)
(-0.881341 0.0880529 1.00086)
(-0.872104 0.0416089 0.926218)
(-0.86615 -0.0393079 0.706759)
(-1.00876 -0.0604895 0.675592)
(-1.02288 0.0203105 0.900928)
(-1.03541 0.0694017 0.966047)
(-1.04321 0.121889 0.943946)
(-1.01786 0.173845 0.853915)
(-1.16132 0.162983 0.8043)
(-1.16217 0.110554 0.892861)
(-1.14575 0.0570722 0.914591)
(-1.12894 0.00633749 0.859308)
(-1.10928 -0.0731982 0.639917)
(-1.16911 -0.0837805 0.595391)
(-1.19429 -0.00627436 0.79685)
(-1.22042 0.04361 0.840283)
(-1.24962 0.0918794 0.811882)
(-1.26716 0.141487 0.717435)
(-1.31704 0.111029 0.610869)
(-1.28851 0.0689348 0.709755)
(-1.25007 0.0250285 0.747561)
(-1.21481 -0.0217467 0.716481)
(-1.18496 -0.0935222 0.539748)
(-1.15171 -0.10471 0.472752)
(-1.17966 -0.0413685 0.621536)
(-1.21845 0.000247762 0.641096)
(-1.27288 0.0392484 0.60698)
(-1.3061 0.0744353 0.509769)
(-1.22346 0.0358922 0.414897)
(-1.18638 0.00297824 0.500619)
(-1.1265 -0.0321171 0.531587)
(-1.08432 -0.0600474 0.520443)
(-1.03821 -0.111741 0.386897)
(-0.91749 -0.120101 0.315297)
(-0.921712 -0.109332 0.358356)
(-0.970935 -0.0803516 0.438516)
(-0.954775 -0.0870006 0.425349)
(-0.926037 -0.102541 0.395185)
(-1.00294 -0.0683295 0.381881)
(-0.995026 -0.0628767 0.307887)
(-0.999944 -0.0390155 0.283254)
(-1.04331 -0.0269725 0.2096)
(-1.03838 -0.00926202 0.202818)
(-0.805755 -0.10485 0.145704)
(-0.818632 -0.124951 0.158371)
(-0.78741 -0.128201 0.216747)
(-0.822988 -0.141256 0.249874)
(-0.609454 -0.281331 0.133404)
(-0.556441 -0.29106 0.115215)
(-0.502965 -0.326365 0.132904)
(-0.419694 -0.398959 0.116498)
(-0.396164 -0.383381 0.149987)
(-0.487112 -0.283775 0.165788)
(-0.604848 -0.238683 0.184216)
(-0.614742 -0.267423 0.0973429)
(-0.513026 -0.377371 0.0445401)
(-0.439049 -0.459485 0.0286012)
(-0.396566 -0.525473 0.0584084)
(-0.383043 -0.696663 0.123158)
(-0.386146 -0.662166 0.128912)
(-0.404383 -0.379611 0.107875)
(-0.407574 -0.535432 0.0821942)
(-0.398526 -0.600924 0.0446494)
(-0.215475 -0.787171 -0.157846)
(-0.193174 -0.793021 -0.258622)
(-0.115224 -0.702999 -0.368083)
(-0.0783925 -0.623434 -0.384008)
(-0.0451415 -0.588518 -0.346479)
(-0.0138917 -0.555809 -0.300385)
(0.0311952 -0.50192 -0.231445)
(0.123739 -0.455727 -0.108661)
(0.124301 -0.580482 -0.121587)
(0.116407 -0.637085 -0.119851)
(0.0845067 -0.695013 -0.157137)
(0.0918811 -0.749563 -0.155242)
(0.0999711 -0.806016 -0.174373)
(0.117627 -0.83444 -0.166517)
(0.125608 -0.841451 -0.152408)
(0.125813 -0.828044 -0.129968)
(0.117224 -0.792551 -0.0957913)
(0.103632 -0.736946 -0.0427445)
(0.0385661 -0.658519 0.0327284)
(0.00097329 -0.550338 0.15124)
(0.0131048 -0.305178 0.358004)
(-0.143303 0.0040506 0.448824)
(-0.363178 0.0932129 0.351382)
(-0.390083 -0.0415282 0.255176)
(-0.217911 -0.172433 0.253112)
(-0.176396 -0.187266 0.269513)
(-0.153335 -0.174607 0.214089)
(-0.079953 -0.134674 0.204988)
(0.00640363 -0.00491878 0.0628465)
(-0.0428306 0.115695 0.0796845)
(-0.0823432 0.155926 0.0800641)
(-0.0513634 0.218813 0.16851)
(-0.0146492 0.188424 0.186376)
(0.0115868 0.0660286 0.13959)
(-0.0354384 -0.0140945 0.222734)
(0.0264597 0.106511 0.319281)
(0.00202371 -0.0559111 0.285143)
(0.0820203 0.147626 0.245897)
(0.0940297 -0.0249894 0.228867)
(-0.0179625 -0.260202 0.456461)
(0.0535307 -0.364246 0.544205)
(0.173398 -0.511206 0.512067)
(0.163893 -0.697987 0.34887)
(0.0742567 -0.820893 0.141521)
(0.0591041 -0.892081 -0.00897565)
(0.0650336 -0.925388 -0.119842)
(0.0630164 -0.950968 -0.197577)
(0.0599154 -0.965128 -0.248266)
(0.0518192 -0.962948 -0.278739)
(0.0417105 -0.942783 -0.291937)
(0.0291656 -0.90505 -0.288664)
(0.0234814 -0.830534 -0.24898)
(0.00728384 -0.784805 -0.327935)
(0.0433477 -0.704141 -0.224632)
(0.0473018 -0.653989 -0.210878)
(0.0445159 -0.636404 -0.231516)
(0.00454135 -0.70222 -0.324287)
(-0.0224962 -0.741552 -0.381855)
(-0.0572082 -0.776547 -0.409493)
(-0.0731505 -0.843022 -0.40039)
(-0.131882 -0.903343 -0.344731)
(-0.0938593 -0.967968 -0.330741)
(-0.0888576 -0.978677 -0.371949)
(-0.0537069 -0.917246 -0.416808)
(-0.0434745 -0.867493 -0.430669)
(-0.0176781 -0.82566 -0.403101)
(-0.00965221 -0.86903 -0.340179)
(-0.039348 -0.901021 -0.373035)
(-0.0560128 -0.94749 -0.395379)
(-0.0238043 -0.990765 -0.404806)
(-0.0486071 -1.05909 -0.41947)
(-0.0664814 -1.04182 -0.423388)
(-0.0932445 -0.919523 -0.344152)
(-0.186181 -0.760834 -0.223601)
(-0.197836 -0.613072 -0.0408267)
(-0.0997086 -0.732475 -0.196743)
(-0.0794514 -0.838544 -0.259216)
(-0.0592557 -0.9279 -0.322997)
(-0.0607624 -0.945412 -0.333709)
(-0.0276513 -0.828731 -0.380758)
(-0.0238303 -0.723837 -0.337132)
(-0.0319355 -0.54158 -0.253973)
(-0.015946 -0.353096 -0.163662)
(0.0343537 -0.0905296 -0.208929)
(-0.247181 -0.432875 0.0733832)
(-0.328133 -0.460402 0.0264676)
(0.219733 -0.118572 -0.24375)
(-0.172209 -0.246807 0.0423281)
(-0.21764 -0.265884 -0.117605)
(-0.257991 -0.268159 -0.103977)
(-0.208178 -0.28108 -0.0217649)
(0.0808691 0.140828 -0.219338)
(0.102398 0.0597822 -0.232171)
(0.100664 -0.000179691 -0.261095)
(0.0961546 -0.000321163 -0.265869)
(-0.0799216 -0.429197 -0.201566)
(-0.13298 -0.449412 -0.222531)
(-0.186166 -0.457765 -0.206542)
(-0.249107 -0.444604 -0.169148)
(-0.168951 -0.547039 -0.184197)
(-0.126813 -0.558812 -0.257147)
(-0.0962465 -0.565087 -0.291312)
(-0.0606053 -0.553327 -0.291608)
(-0.0507457 -0.742168 -0.348835)
(-0.0816064 -0.756811 -0.331887)
(-0.106349 -0.769135 -0.281669)
(-0.147162 -0.759457 -0.194732)
(-0.134485 -0.821208 -0.182336)
(-0.128768 -0.882134 -0.200295)
(-0.0981249 -0.904765 -0.297332)
(-0.0726665 -0.871846 -0.373659)
(-0.0491914 -0.851605 -0.399907)
(-0.0767905 -0.967104 -0.370515)
(-0.11214 -0.988827 -0.335574)
(-0.138091 -1.00912 -0.283487)
(-0.137211 -1.09188 -0.346548)
(-0.0801176 -1.06616 -0.398745)
(-0.0725598 -1.14391 -0.440333)
(-0.0493509 -1.12237 -0.472806)
(-0.0269138 -1.11337 -0.45793)
(-0.00338797 -1.04158 -0.414569)
(0.0119814 -1.07393 -0.405854)
(-0.0127342 -1.15216 -0.468947)
(-0.0398719 -1.17918 -0.49355)
(-0.0686042 -1.20737 -0.46242)
(-0.131596 -1.22804 -0.378763)
(-0.13493 -1.16555 -0.368818)
(-0.283648 -1.04586 -0.224857)
(-0.457226 -1.14571 -0.0767239)
(-0.463568 -1.09952 -0.0672993)
(-0.415896 -1.04496 -0.0646247)
(-0.302802 -1.03539 -0.0737058)
(-0.255666 -0.966646 -0.0639654)
(-0.309138 -0.944136 -0.0575646)
(-0.342226 -0.848274 -0.0421363)
(-0.377939 -0.712971 -0.0377993)
(-0.473566 -0.626189 -0.0366027)
(-0.40979 -0.401033 -0.0340141)
(-0.464803 -0.660046 -0.00575857)
(-0.316717 -0.457057 0.0246044)
(-0.637952 -0.398467 0.00555412)
(-0.814529 -0.379209 0.0601851)
(-0.916803 -0.384422 0.0846567)
(-0.966656 -0.397266 0.124391)
(-0.978759 -0.525352 0.0978002)
(-0.939329 -0.689425 0.0654205)
(-0.923111 -0.750249 0.0525487)
(-0.873766 -0.84859 0.0365167)
(-0.858209 -0.895863 0.0305454)
(-0.820435 -0.928079 0.00769916)
(-0.703259 -0.967572 -0.0228953)
(-0.592176 -1.00197 -0.0418703)
(-0.626427 -0.952554 -0.017146)
(-0.484777 -0.971434 -0.0306497)
(-0.50266 -0.893067 -0.0300511)
(-0.530247 -0.796559 -0.0231964)
(-0.559072 -0.73025 -0.0193803)
(-0.685956 -0.712054 -0.00969558)
(-0.674507 -0.597775 -0.0076532)
(-0.823389 -0.57704 0.0304077)
(-0.917522 -0.559552 0.0504555)
(-0.880574 -0.696971 0.0232117)
(-0.799765 -0.704377 0.0122668)
(-0.776957 -0.789602 0.00234814)
(-0.660507 -0.797928 -0.010685)
(-0.635411 -0.882357 -0.0169618)
(-0.747993 -0.866084 -0.00506989)
(-0.824906 -0.850597 0.00451305)
(-0.862425 -0.772978 0.0135769)
(-0.800912 -0.738804 -0.0116216)
(-0.623516 -0.611811 0.00225061)
(-0.846367 -0.659521 0.0118131)
(-0.867158 -0.518212 0.0521929)
(-0.869525 -0.379654 0.0582464)
(-0.842277 -0.282055 0.121752)
(-0.831305 -0.302066 0.0766352)
(-0.877929 -0.350478 0.052644)
(-0.873968 -0.203762 0.129147)
(-0.892869 -0.184154 0.174198)
(-0.759617 -0.16142 0.158595)
(-0.765104 -0.128992 0.259343)
(-0.776254 -0.1207 0.302249)
(-0.819704 -0.108607 0.355692)
(-0.827178 -0.11918 0.353153)
(-0.640658 -0.181583 0.251549)
(-0.605863 -0.173526 0.248818)
(-0.566255 -0.180317 0.215883)
(-0.549992 -0.17545 0.189128)
(-0.567933 -0.19099 0.120505)
(-0.337858 -0.194429 0.0767755)
(-0.319472 -0.188935 0.10174)
(-0.328418 -0.191694 0.114385)
(-0.359437 -0.198653 0.124658)
(-0.447911 -0.216633 0.142291)
(-0.4041 -0.25301 0.0603415)
(-0.38114 -0.284466 0.0690455)
(-0.409617 -0.340559 0.0477197)
(-0.315127 -0.426305 0.0365812)
(-0.310935 -0.393746 0.0497365)
(-0.282828 -0.415627 0.0161846)
(-0.192361 -0.418865 -0.0199053)
(-0.336203 -0.253708 0.0360465)
(-0.401937 -0.330452 0.0417118)
(-0.247567 -0.456748 -0.00606061)
(-0.290904 -0.459158 0.000942698)
(-0.450665 -0.320824 0.0725477)
(-0.523417 -0.298691 0.13183)
(-0.497019 -0.318327 0.13681)
(-0.470145 -0.336436 0.111805)
(-0.458131 -0.350237 0.0945689)
(-0.49272 -0.372738 0.00880679)
(-0.709832 -0.317567 0.0633268)
(-0.717023 -0.529489 0.0391003)
(-0.548555 -0.553841 -0.00157841)
(-0.509583 -0.606364 -0.00386494)
(-0.465474 -0.648523 -0.0173805)
(-0.436744 -0.651754 -0.0210857)
(-0.412731 -0.530351 -0.0229792)
(-0.410992 -0.54038 -0.0483401)
(-0.40988 -0.540751 -0.0343692)
(-0.335387 -0.54974 -0.0171892)
(-0.267548 -0.595106 -0.00745785)
(-0.319529 -0.580107 -0.00354415)
(-0.403218 -0.512356 0.00714531)
(-0.331938 -0.534675 -0.00426997)
(-0.43861 -0.629572 -0.0118842)
(-0.292923 -0.472587 -0.00522861)
(-0.21048 -0.538969 -0.0184547)
(-0.281132 -0.523929 -0.0162588)
(-0.394222 -0.435543 -0.000644817)
(-0.413593 -0.362316 -0.0102655)
(-0.260646 -0.393635 -0.0111307)
(-0.157054 -0.422206 -0.0365201)
(-0.13642 -0.398783 -0.0227677)
(-0.237983 -0.204913 0.0223018)
(-0.382394 -0.342434 -0.00188316)
(-0.251812 -0.473926 -0.0196927)
(-0.219084 -0.467314 -0.0235873)
(-0.122118 -0.392125 -0.0300908)
(-0.218924 -0.194069 0.0392155)
(-0.346558 -0.337497 0.0123836)
(-0.365735 -0.362829 0.0544872)
(-0.195762 -0.510365 -0.0106908)
(-0.174003 -0.467357 0.0188588)
(-0.10993 -0.419474 0.00195762)
(-0.221921 -0.22861 0.0448615)
(-0.325446 -0.341396 0.0526712)
(-0.334643 -0.33851 0.0573946)
(-0.180511 -0.462551 0.0169631)
(-0.109264 -0.408284 0.000210597)
(-0.231534 -0.220072 0.0623828)
(-0.285324 -0.221101 0.0777561)
(-0.239957 -0.229863 0.0715867)
(-0.34978 -0.336551 0.0789734)
(-0.189501 -0.464658 0.0487445)
(-0.117671 -0.414961 0.03759)
(-0.140366 -0.448965 -0.00379607)
(-0.196349 -0.496912 0.0260468)
(-0.381119 -0.35027 0.0796311)
(-0.334045 -0.624691 -0.00312617)
(-0.355442 -0.631361 -0.0113428)
(-0.498787 -0.511421 0.0582214)
(-0.650482 -0.444465 0.0985881)
(-0.665782 -0.286615 0.136638)
(-0.796989 -0.271471 0.170707)
(-0.889659 -0.320697 0.166653)
(-1.01969 -0.488906 0.126011)
(-1.10644 -0.495229 0.16773)
(-1.13137 -0.50288 0.192852)
(-1.11154 -0.505265 0.215796)
(-1.0485 -0.501566 0.238632)
(-0.943267 -0.490643 0.260486)
(-0.794792 -0.467323 0.287068)
(-0.640633 -0.432243 0.326541)
(-0.398382 -0.38036 0.394713)
(-0.165564 -0.291276 0.48158)
(0.0351856 -0.149818 0.486211)
(0.331774 -0.15831 0.428832)
(0.334296 -0.218065 0.379984)
(0.204563 -0.127004 0.489746)
(0.271252 -0.0020606 0.768852)
(0.282078 0.0474484 1.03402)
(0.267219 0.0824127 1.14298)
(0.249336 0.134824 1.09091)
(0.21208 0.123656 0.952167)
(0.142254 0.120988 0.699918)
(0.0399095 0.184939 0.401179)
(0.174345 0.511594 0.422805)
(0.424034 0.514537 0.372458)
(0.612028 0.536272 0.373475)
(0.854674 0.495258 0.350183)
(1.0121 0.41579 0.317122)
(1.07694 0.323136 0.274069)
(1.06329 0.255916 0.234283)
(1.01515 0.211179 0.198304)
(1.03469 0.15857 0.166786)
(1.04668 0.119046 0.143921)
(0.987019 0.0931617 0.0904581)
(0.881432 0.0423357 0.0677823)
(0.715577 -0.022783 0.0542777)
(0.470294 -0.109818 0.020588)
(0.242436 -0.216775 -0.0220785)
(0.102988 -0.623956 -0.110506)
(0.179221 -0.385588 -0.0796733)
(-0.179231 -0.173266 0.00623232)
(-0.100152 -0.396944 -0.040509)
(-0.109299 -0.322185 -0.0670806)
(-0.111505 -0.351683 -0.0753405)
(-0.108706 -0.316063 -0.0659639)
(-0.0770567 -0.246486 -0.0622488)
(-0.142106 -0.199374 -0.0370408)
(-0.223483 0.147198 0.149128)
(-0.144656 0.443526 0.137722)
(-0.0488551 0.576514 0.0794977)
(0.024202 0.643595 0.077662)
(0.108268 0.669005 0.161585)
(0.20353 0.713236 0.278108)
(0.299396 0.748246 0.330035)
(0.386287 0.744836 0.365099)
(0.466042 0.684568 0.373222)
(0.532303 0.549291 0.370476)
(0.583265 0.331627 0.334927)
(0.563858 0.00851644 0.260102)
(0.383805 -0.328368 0.251282)
(0.284585 -0.326591 0.315944)
(0.219458 -0.280179 0.325755)
(0.152727 -0.188231 0.333767)
(0.144649 0.0104292 0.309494)
(0.288907 0.0109227 0.336117)
(0.448087 -0.155321 0.328951)
(0.59804 -0.252805 0.341592)
(0.63687 -0.342193 0.351066)
(0.61772 -0.434735 0.35304)
(0.472573 -0.540724 0.335508)
(0.104288 -0.56781 0.31993)
(-0.17215 -0.302487 0.305363)
(-0.0441282 -0.129742 0.356254)
(0.22741 -0.148061 0.23774)
(0.282908 -0.398707 0.0724893)
(0.00939784 -0.51379 0.236193)
(-0.13984 -0.742362 -0.138529)
(0.206451 -0.716537 -0.479142)
(0.305889 -0.387624 -0.175975)
(0.332322 -0.375614 0.0950122)
(0.343012 -0.549359 0.18741)
(0.323447 -0.891821 0.122672)
(0.525244 -0.870505 0.065588)
(0.601263 -0.688427 0.098542)
(0.56587 -0.534014 0.139905)
(0.496268 -0.391133 0.190399)
(0.329416 -0.22567 0.247115)
(0.35136 -0.340391 0.197051)
(0.413229 -0.37108 0.143747)
(0.494225 -0.358451 0.0819841)
(0.598758 -0.288352 -0.0542715)
(0.849504 0.200598 -0.113124)
(0.898018 0.476484 -0.0180534)
(0.844964 0.672486 0.0541153)
(0.744379 0.768556 0.0959741)
(0.612048 0.79172 0.142253)
(0.462372 0.762537 0.15733)
(0.297368 0.702569 0.163027)
(0.126665 0.638679 0.0992533)
(-0.0433036 0.59419 0.0547447)
(-0.164525 0.532794 0.0681555)
(-0.293351 0.413425 0.135693)
(-0.406905 0.17506 0.168239)
(-0.284538 -0.152701 0.00693791)
(-0.396221 -0.0862443 0.0417239)
(-0.476818 -0.0223577 0.0710213)
(-0.541055 0.0965172 0.115582)
(-0.53263 0.0622061 0.0911803)
(-0.493923 -0.0721965 0.0215332)
(-0.456205 -0.129287 0.0111162)
(-0.392321 -0.181491 -0.0117222)
(-0.297504 -0.235187 -0.0271362)
(-0.189575 -0.265344 -0.0408111)
(-0.143792 -0.241196 -0.0335017)
(-0.196316 -0.209059 -0.0276423)
(-0.1821 -0.352998 -0.045456)
(-0.122575 -0.348094 -0.0515474)
(-0.0997402 -0.365847 -0.0792791)
(-0.0767869 -0.401324 -0.114264)
(-0.0470522 -0.580722 -0.230064)
(-0.0846841 -0.520443 -0.162624)
(-0.0986403 -0.625572 -0.127643)
(-0.145745 -0.622295 -0.0773113)
(-0.187295 -0.540622 -0.0609809)
(-0.287506 -0.353527 -0.0241393)
(-0.259721 0.164155 0.118013)
(-0.108769 0.380663 0.273583)
(-0.0134121 0.46969 0.412233)
(0.062175 0.473983 0.539874)
(0.13432 0.415155 0.614326)
(0.186265 0.308153 0.647381)
(0.237179 0.160022 0.622754)
(0.226164 -0.010179 0.524893)
(0.093613 -0.129338 0.420224)
(-0.0199243 -0.0945529 0.433933)
(-0.0380527 0.0273048 0.41013)
(-0.0350723 0.14873 0.412932)
(0.0387811 0.252745 0.350284)
(0.200824 0.138376 0.364083)
(0.15472 0.280722 0.439778)
(-0.0690147 0.153499 -0.119156)
(-0.176964 -0.0643809 -0.637888)
(-0.181133 -0.301429 -0.529109)
(-0.169207 -0.341274 -0.297271)
(-0.145999 -0.300083 -0.0923828)
(-0.0621622 -0.584292 -0.104909)
(-0.0282842 -0.861708 -0.0930853)
(0.00208385 -1.0192 -0.0911171)
(0.0324092 -1.14351 -0.100871)
(0.0657183 -1.22732 -0.115145)
(0.0963157 -1.28021 -0.129147)
(0.123046 -1.30695 -0.141129)
(0.147122 -1.31575 -0.153167)
(0.168071 -1.31403 -0.165626)
(0.186316 -1.30531 -0.176353)
(0.20186 -1.29109 -0.184756)
(0.215675 -1.27176 -0.18981)
(0.227897 -1.24696 -0.192429)
(0.239059 -1.21537 -0.191172)
(0.248564 -1.17566 -0.18588)
(0.254257 -1.1256 -0.174973)
(0.251308 -1.06258 -0.158276)
(0.194399 -0.999154 -0.138403)
(0.139509 -0.913947 -0.122202)
(0.164004 -0.829641 -0.0865303)
(0.187233 -0.728801 -0.0877092)
(0.203341 -0.559915 -0.087596)
(0.245916 -0.442561 -0.0839691)
(0.0716598 -0.0306207 -0.0948343)
(0.365505 -0.298212 0.0440315)
(0.245283 -0.550697 -0.0565514)
(0.28552 -0.0946097 -0.0264758)
(0.180199 -0.0367625 -0.146563)
(0.201379 -0.11242 -0.12373)