/*--------------------------------*- C++ -*----------------------------------*\
| =========                 |                                                 |
| \\      /  F ield         | OpenFOAM: The Open Source CFD Toolbox           |
|  \\    /   O peration     | Version:  v2012                                 |
|   \\  /    A nd           | Website:  www.openfoam.com                      |
|    \\/     M anipulation  |                                                 |
\*---------------------------------------------------------------------------*/
FoamFile
{
    version     2.0;
    format      ascii;
    class       volScalarField;
    location    "1080";
    object      epsilon;
}
// * * * * * * * * * * * * * * * * * * * * * * * * * * * * * * * * * * * * * //

dimensions      [0 2 -3 0 0 0 0];


internalField   nonuniform List<scalar> 
18258
(
0.0242892
0.01238
0.00925905
0.00729928
0.0127359
0.0126557
0.0131075
0.0174684
0.0243137
0.0371776
0.0537519
0.0482639
0.0436023
0.0453151
0.0474607
0.0450205
0.035037
0.0302963
0.0398969
0.0666107
0.0609362
0.0497848
0.0609669
0.0515349
0.0657822
0.0831696
0.0637471
0.0573372
0.0514765
0.0484422
0.0418833
0.0238745
0.0345148
0.0531995
0.072738
0.079544
0.0852758
0.0900912
0.0952403
0.097344
0.0975737
0.0923296
0.0831229
0.0679722
0.049945
0.0384075
0.0300115
0.0314011
0.0441203
0.0447715
0.0553751
0.0850861
0.107432
0.0806694
0.0517269
0.0823926
0.112288
0.144004
0.170524
0.192992
0.20074
0.19735
0.185853
0.169146
0.147715
0.122736
0.101742
0.0848144
0.0670278
0.0572283
0.0462734
0.0383587
0.0327889
0.029126
0.0269222
0.0252039
0.0240441
0.0249699
0.024854
0.0177263
0.0139415
0.0130924
0.00936347
0.00778057
0.00809233
0.00769694
0.00799398
0.00705569
0.00604547
0.00525218
0.00445799
0.00649912
0.00699726
0.00723943
0.00725924
0.00777703
0.00801509
0.00774818
0.00784009
0.00716253
0.00760115
0.0120692
0.0137857
0.0174852
0.0156869
0.0109829
0.00899672
0.0100437
0.0106506
0.013269
0.0125437
0.0133105
0.011804
0.0107914
0.00910443
0.00882789
0.00905194
0.00962157
0.0100146
0.0116281
0.0114659
0.010645
0.0117644
0.0129738
0.0126969
0.0121525
0.0115668
0.0141981
0.011396
0.0120766
0.0135686
0.0218641
0.0213938
0.0258918
0.0254146
0.025844
0.0260222
0.0313962
0.0315177
0.031902
0.0322203
0.0339911
0.0568855
0.0506663
0.0495479
0.0493518
0.0426837
0.0422284
0.0415534
0.0423688
0.0358741
0.0345288
0.0313212
0.0309679
0.0345627
0.0436571
0.0611117
0.0883375
0.122255
0.158573
0.188833
0.2098
0.231546
0.236857
0.250746
0.255463
0.256413
0.250809
0.242422
0.232999
0.220177
0.201613
0.188716
0.148323
0.105006
0.0590616
0.0783836
0.0904108
0.100147
0.102068
0.10325
0.0992139
0.0930195
0.081866
0.0663498
0.043151
0.0485088
0.0658121
0.0681923
0.0689732
0.0547478
0.052737
0.049008
0.049009
0.0644393
0.0739203
0.0621202
0.0858554
0.100894
0.0882394
0.0640055
0.098029
0.14403
0.0809466
0.0687768
0.0531579
0.0521273
0.0440184
0.0370984
0.0629496
0.094014
0.128949
0.14992
0.171533
0.188936
0.202058
0.216
0.187778
0.170599
0.114885
0.201015
0.152579
0.0772482
0.0571738
0.0557505
0.0443213
0.0504453
0.0558063
0.0517052
0.0398117
0.0276307
0.0249492
0.0467237
0.0651996
0.0788053
0.0626362
0.0796972
0.0900212
0.0973538
0.102734
0.130449
0.0961988
0.106554
0.0763468
0.103555
0.073488
0.0472973
0.0526046
0.100468
0.160256
0.219357
0.256047
0.145641
0.0738828
0.054913
0.0550343
0.0530493
0.0479856
0.0596169
0.105976
0.0718338
0.0466135
0.0404285
0.047726
0.0412042
0.0306296
0.0321684
0.0397187
0.0551736
0.0691777
0.0819728
0.125085
0.121264
0.146378
0.153749
0.12953
0.125191
0.0808499
0.0830391
0.122454
0.0912721
0.0737476
0.10357
0.146587
0.200736
0.247024
0.287363
0.31309
0.302674
0.273859
0.173281
0.0758557
0.0228477
0.0177834
0.0168403
0.0173126
0.0105181
0.00628784
0.00583352
0.00663877
0.00699519
0.00590911
0.0054421
0.00543404
0.00577246
0.0101761
0.0087475
0.0108189
0.0131045
0.0156468
0.0186841
0.0194074
0.0128757
0.00871463
0.00817749
0.0081126
0.00804289
0.00801243
0.00802268
0.00806137
0.00807553
0.00804174
0.00796214
0.00782481
0.00768952
0.00763254
0.00826727
0.0111513
0.0153105
0.0148132
0.0135269
0.0121755
0.0110192
0.00869561
0.0151185
0.0128229
0.0109152
0.013363
0.0164579
0.0207958
0.0244298
0.0176178
0.0141031
0.0127619
0.0126339
0.0125168
0.0125581
0.0124315
0.0124903
0.0122854
0.0128714
0.013544
0.0169442
0.0189722
0.0211615
0.0226699
0.0232644
0.0239839
0.0211268
0.0229763
0.0227175
0.0234959
0.0233101
0.0226172
0.0206929
0.0188951
0.0176682
0.0190757
0.0236264
0.0322445
0.0266472
0.020675
0.0167246
0.0136754
0.0149488
0.0166217
0.0167959
0.0158093
0.0155829
0.0153754
0.0138521
0.0130544
0.0110641
0.0104565
0.010005
0.0101618
0.0143568
0.013492
0.0136771
0.014398
0.0154714
0.0146327
0.0150657
0.0142371
0.0144843
0.0149037
0.016978
0.0185272
0.017772
0.0164675
0.0159686
0.0137003
0.0158006
0.0156601
0.0169805
0.0185608
0.0190486
0.0189843
0.0183486
0.0167506
0.0186397
0.0220018
0.0256484
0.0246539
0.0243383
0.0204082
0.0192165
0.0201927
0.021468
0.0223745
0.022441
0.0222549
0.0223247
0.0262949
0.0258961
0.0247071
0.0226327
0.0201807
0.017527
0.0151229
0.016599
0.0180797
0.0194701
0.0207391
0.0205209
0.0189894
0.0176297
0.0163985
0.0149056
0.0146258
0.0160793
0.0173026
0.0187369
0.0204586
0.0205434
0.0188225
0.0173233
0.0160388
0.0145644
0.01452
0.0160212
0.0173221
0.0187433
0.0202336
0.0196019
0.0184433
0.0171894
0.0159446
0.0144913
0.0145604
0.0158829
0.0169535
0.018039
0.018991
0.0198384
0.0178791
0.0169679
0.0170565
0.0160677
0.0192426
0.0184882
0.0194302
0.0179822
0.0167632
0.0177691
0.0209536
0.0239795
0.0245291
0.0242489
0.0201216
0.020577
0.0205544
0.0191411
0.0159264
0.0153281
0.0180846
0.0208064
0.0212651
0.0199676
0.0168843
0.0132548
0.0142684
0.0174127
0.0197151
0.0184657
0.0183083
0.0169008
0.0158213
0.0161157
0.0138344
0.016571
0.0265892
0.0240551
0.0220281
0.0195477
0.0155611
0.0105423
0.011436
0.0125832
0.012997
0.0105104
0.0078742
0.00707141
0.0068793
0.00672152
0.00650269
0.00613331
0.00557498
0.0053849
0.0107523
0.0264088
0.0366395
0.0359267
0.0241829
0.0209418
0.0204086
0.0193761
0.00985286
0.00827312
0.0085131
0.0104239
0.00817549
0.00890128
0.0154011
0.0104069
0.014173
0.0109087
0.0146451
0.0230656
0.0219872
0.0147011
0.00805161
0.00685414
0.00733718
0.00762716
0.00783056
0.00802633
0.0082585
0.00864217
0.00995614
0.0156449
0.0201925
0.0176605
0.0166671
0.0152054
0.0187324
0.0212161
0.023158
0.0259199
0.0160386
0.0117331
0.0165694
0.0271468
0.024632
0.0231694
0.0170645
0.0176062
0.0170482
0.0109594
0.0106184
0.010541
0.0113517
0.0127289
0.0146498
0.0158212
0.0165727
0.0169006
0.0178068
0.0230831
0.0216058
0.0211011
0.0173422
0.0133346
0.0153185
0.0513312
0.0195032
0.0206169
0.0188656
0.0191426
0.020426
0.0151559
0.0135257
0.0129378
0.0146246
0.0214853
0.0214887
0.0213424
0.0182019
0.0174144
0.0208335
0.0219292
0.0223397
0.021715
0.0212613
0.0193989
0.0166317
0.0180583
0.0195714
0.0207566
0.0227612
0.0231091
0.0178877
0.0171654
0.0157816
0.0105005
0.0112433
0.00968465
0.00965372
0.00961659
0.0093412
0.00889438
0.00918357
0.00930253
0.00930137
0.00895811
0.00925305
0.00831077
0.00864686
0.00973428
0.0151682
0.0147392
0.0175338
0.0194442
0.0166968
0.0155411
0.0141828
0.0131637
0.0154062
0.0142439
0.016816
0.0211518
0.0264206
0.0190665
0.0180701
0.0178439
0.0174366
0.0172779
0.0173271
0.0166396
0.0156453
0.0150832
0.0235188
0.0212309
0.0181169
0.0171712
0.0157423
0.0179856
0.0174311
0.0213128
0.0267722
0.0269725
0.0214775
0.0215527
0.0189111
0.0200118
0.0221878
0.0270024
0.0269285
0.014388
0.00956172
0.0153883
0.0157286
0.0183345
0.016957
0.0184796
0.0196551
0.0203806
0.0202417
0.0176493
0.0188204
0.0196069
0.0205922
0.0185454
0.0165423
0.0173281
0.0161086
0.015212
0.0147158
0.0126484
0.012889
0.013854
0.0153005
0.0162407
0.017728
0.0193744
0.0194077
0.0200713
0.019665
0.0190761
0.0251565
0.0239179
0.0254579
0.0281598
0.022383
0.0177652
0.0146517
0.0149596
0.0147245
0.014631
0.0153769
0.0167321
0.0151107
0.0144954
0.0169955
0.0193441
0.0246002
0.0329172
0.0286467
0.0261117
0.0331393
0.0313294
0.038136
0.0285966
0.028085
0.0207938
0.0262354
0.0304667
0.0391113
0.025447
0.0209013
0.0223713
0.0255047
0.0347264
0.0327197
0.0330605
0.0411069
0.0398849
0.0361559
0.0311385
0.0352685
0.0211889
0.030141
0.0321665
0.0267845
0.0256502
0.0306666
0.0310064
0.0329546
0.0283422
0.0267215
0.0178673
0.0273655
0.0312944
0.0329938
0.0277525
0.0205047
0.0279552
0.0204966
0.0191337
0.0202452
0.0137315
0.0126829
0.0147532
0.0138277
0.0111613
0.0121041
0.0111225
0.0111053
0.0111815
0.0112907
0.0114161
0.0116628
0.0116176
0.0125987
0.0132644
0.0125314
0.0114948
0.0121845
0.012596
0.0160999
0.0181912
0.0204657
0.0220663
0.02291
0.0240432
0.0226861
0.0248072
0.0236879
0.0251799
0.0248758
0.0237934
0.0212498
0.0186055
0.0162527
0.0169356
0.0206723
0.0273709
0.0224657
0.017423
0.0141265
0.0117254
0.0130105
0.0163078
0.00878227
0.00799711
0.00769997
0.00753593
0.00744355
0.00666027
0.00582074
0.0065674
0.0123342
0.016136
0.0207504
0.0266815
0.0325774
0.0376349
0.0415681
0.0445184
0.0464573
0.0470565
0.0444489
0.0341932
0.0293512
0.0251192
0.0206797
0.0167225
0.016844
0.0245866
0.0322499
0.0397565
0.0463423
0.0512403
0.0492874
0.0329439
0.0299584
0.0464924
0.0782461
0.0742572
0.0974521
0.110979
0.0626631
0.0462433
0.0451325
0.062091
0.0647704
0.0568521
0.0469487
0.0367223
0.026491
0.031132
0.0357178
0.0401352
0.0448199
0.0582604
0.0608565
0.0593979
0.0564173
0.0526926
0.0480124
0.0414752
0.0334762
0.025165
0.0185458
0.0134136
0.00734919
0.00755919
0.00773917
0.00732579
0.0079834
0.00810559
0.00890911
0.00859733
0.00879334
0.00856977
0.00860114
0.00761952
0.00680004
0.0102505
0.00964814
0.00965249
0.0103434
0.0134109
0.0102053
0.00741754
0.00694949
0.0069579
0.00898955
0.0197292
0.0258781
0.0307246
0.0351381
0.037938
0.036755
0.0336241
0.0283399
0.0225447
0.0202933
0.0171386
0.0145263
0.0132265
0.0144875
0.0119015
0.00588297
0.00522175
0.00574806
0.00559809
0.0051201
0.00616673
0.00686482
0.00748293
0.00790812
0.0082181
0.00827466
0.0082077
0.00811177
0.00806196
0.00803617
0.00800182
0.00793088
0.00782953
0.00768204
0.00754133
0.00747426
0.00806557
0.0106857
0.0146246
0.0143989
0.0132838
0.0121739
0.0113133
0.00959512
0.0154583
0.0131212
0.0110016
0.0101722
0.0100255
0.010319
0.0112625
0.0128757
0.0137866
0.0157798
0.0158235
0.0157236
0.0160307
0.0158191
0.0133459
0.0151252
0.017708
0.0185123
0.0190982
0.018863
0.0173237
0.0193446
0.020496
0.0199713
0.0193792
0.0166573
0.0194094
0.0232335
0.0236595
0.0238931
0.0212153
0.0183743
0.0215405
0.0227195
0.0223639
0.0232734
0.0215908
0.0223557
0.0278618
0.0144952
0.0134728
0.00825
0.00897975
0.00930863
0.00909346
0.00877302
0.00910446
0.00930464
0.00894347
0.00963216
0.00994623
0.00922106
0.0118408
0.0109201
0.0105613
0.00998749
0.0103632
0.0108875
0.0111786
0.0125289
0.0199667
0.0205168
0.0184695
0.0211189
0.0217149
0.0181017
0.0206176
0.0215312
0.0218718
0.0222482
0.0236686
0.0221293
0.0244474
0.0237576
0.0222535
0.0215068
0.0382089
0.0251902
0.016587
0.0152966
0.0149213
0.0149579
0.0168174
0.0125092
0.0140503
0.00982537
0.00851444
0.00815177
0.00789472
0.00874464
0.0119212
0.019097
0.0255117
0.0277019
0.0265944
0.0234864
0.0182881
0.0138922
0.0134555
0.0120501
0.0111679
0.0109612
0.00730725
0.00516882
0.0065427
0.00662093
0.00720768
0.00761981
0.00795382
0.00820279
0.00833566
0.00839831
0.00846825
0.00857465
0.00869102
0.00879
0.00886598
0.00891869
0.00897524
0.00908809
0.00938574
0.0105749
0.0152345
0.019662
0.0185749
0.017114
0.0158014
0.0165611
0.0173182
0.0180714
0.0222772
0.0191301
0.0220388
0.0206591
0.0196646
0.0182615
0.0189882
0.0207798
0.0165096
0.0164249
0.0111781
0.00976125
0.00939247
0.00918715
0.00902892
0.00887493
0.00873271
0.00860443
0.00848196
0.00837514
0.00829201
0.00821278
0.00807939
0.00784353
0.00745168
0.00702753
0.00621842
0.0068319
0.00742044
0.00835399
0.00951958
0.0101575
0.00961088
0.00881022
0.00840265
0.0084695
0.00862581
0.00880608
0.00901423
0.00930491
0.00976668
0.0107275
0.0114043
0.0160718
0.0167925
0.0201602
0.0199767
0.017883
0.0172364
0.0188504
0.017397
0.0126989
0.0174218
0.0169234
0.0211185
0.0156248
0.0147251
0.0151029
0.0155727
0.0183014
0.0172058
0.0157389
0.0157239
0.0126683
0.0142097
0.0162099
0.0177286
0.0279714
0.0273707
0.0345339
0.0345106
0.0596439
0.0566862
0.0499247
0.0541218
0.0237992
0.046587
0.0545315
0.0496372
0.0430313
0.0273911
0.043875
0.0669197
0.0969933
0.0698465
0.0571016
0.10632
0.0770893
0.0374831
0.0266602
0.0150538
0.0151439
0.0251395
0.0292111
0.0241936
0.0233307
0.033576
0.0349505
0.0281073
0.0288159
0.031208
0.030153
0.032617
0.0282049
0.0275458
0.0155635
0.0127656
0.0137838
0.0154982
0.0164877
0.015974
0.0168182
0.0174982
0.0160735
0.0150616
0.0145155
0.0124606
0.0132149
0.0161949
0.0204077
0.02391
0.0172553
0.0138565
0.0125543
0.0123603
0.0121354
0.0120196
0.0117038
0.0115234
0.0110603
0.0112736
0.00981787
0.00982796
0.010358
0.0105144
0.0107121
0.0108638
0.0109804
0.0110889
0.0119658
0.0187422
0.0259448
0.0207629
0.0164619
0.0139901
0.0151713
0.0170837
0.0209727
0.0263842
0.0178136
0.0176302
0.011486
0.010699
0.0104954
0.0103309
0.0101838
0.0100916
0.0101566
0.0101624
0.011887
0.0114915
0.0134186
0.0145124
0.0120002
0.0115782
0.0111158
0.010837
0.0106856
0.0106064
0.0106998
0.0115624
0.0113944
0.0104646
0.0103672
0.0104839
0.0106948
0.0110168
0.011466
0.0119755
0.0128889
0.0126452
0.011162
0.0111995
0.0105504
0.0102412
0.0100087
0.00998229
0.0100309
0.0101677
0.0103848
0.011296
0.017087
0.017268
0.0265885
0.0265781
0.0211324
0.0176721
0.0155261
0.014277
0.0135485
0.0351923
0.0309177
0.0490286
0.0390634
0.0312532
0.0507512
0.0722806
0.0561196
0.091527
0.0988825
0.072782
0.0660006
0.0209415
0.0159536
0.0154425
0.0169261
0.0186094
0.0212317
0.0218245
0.026625
0.0287248
0.0171421
0.0164642
0.0155318
0.0248486
0.023032
0.0196596
0.0177838
0.0164048
0.0189507
0.0207354
0.0149324
0.014973
0.00964318
0.0106385
0.0103922
0.0100555
0.00994056
0.00986629
0.00989868
0.00999737
0.0102785
0.010774
0.0111508
0.0112968
0.0116152
0.011411
0.0111279
0.0107895
0.0105874
0.0103895
0.0102304
0.0101096
0.0101439
0.0104618
0.0106091
0.00931037
0.00965353
0.0097625
0.00977859
0.0098176
0.00979405
0.00967385
0.00948839
0.00931556
0.00912518
0.00917159
0.00992264
0.0100386
0.0100871
0.00993197
0.00982256
0.00981976
0.00976684
0.00976039
0.0097519
0.00962749
0.0093097
0.0085878
0.00844439
0.00904816
0.00939684
0.00957875
0.00966242
0.00963229
0.00955889
0.0093194
0.00914183
0.00894255
0.00862449
0.00822084
0.00689234
0.00714855
0.00749073
0.00796317
0.00845147
0.00887927
0.00916359
0.00930873
0.0093878
0.00929986
0.00900713
0.00848212
0.00843005
0.00882185
0.00900748
0.00897746
0.00873234
0.0083464
0.0078027
0.00712057
0.00645423
0.00593489
0.00567377
0.00526822
0.00660524
0.00715766
0.00767907
0.00816908
0.00864507
0.00916546
0.0093908
0.00947178
0.00945025
0.00929266
0.00895848
0.00842933
0.00844012
0.00891893
0.00923319
0.00936153
0.00935159
0.00914041
0.00871012
0.00780488
0.00700611
0.00636871
0.00580495
0.00523955
0.00505805
0.00530986
0.00511934
0.00536114
0.00595657
0.00676245
0.00753445
0.0081179
0.00852479
0.00869329
0.00863245
0.00837612
0.00828211
0.00841351
0.00836902
0.00807928
0.00752682
0.00679151
0.00598664
0.00533881
0.00512733
0.00543376
0.00576869
0.00546103
0.00439793
0.00493611
0.00547059
0.00604736
0.00695029
0.008124
0.00873983
0.00906745
0.00923258
0.00916991
0.00887937
0.00843723
0.00842166
0.00884667
0.00912754
0.00917085
0.00903132
0.00871349
0.00818787
0.00676132
0.00532924
0.00472614
0.00439608
0.00395392
0.00553581
0.00589682
0.00547463
0.00520487
0.00564739
0.00621052
0.00685924
0.00738615
0.00781229
0.00810785
0.00819893
0.00815779
0.00802905
0.00804237
0.00799555
0.00779205
0.00753117
0.00729824
0.00683811
0.00637781
0.00586616
0.00642046
0.0067131
0.00628623
0.00466302
0.00495226
0.00535529
0.005594
0.00700222
0.00843929
0.008885
0.00907119
0.00922151
0.00916108
0.00884636
0.00840371
0.00839089
0.00891328
0.00930731
0.00942893
0.00950588
0.00954053
0.00958466
0.00841748
0.00658823
0.00619511
0.00526905
0.00481728
0.00660054
0.00703512
0.00684171
0.00657398
0.00748901
0.00788157
0.00804186
0.00807718
0.00810796
0.00808879
0.00799385
0.0079157
0.00780352
0.00825257
0.00889189
0.00878812
0.00867754
0.00850214
0.00813038
0.00767977
0.0071911
0.00785625
0.00840976
0.00813608
0.00596329
0.00633641
0.00714791
0.00726114
0.00872528
0.00992503
0.010293
0.010347
0.0102795
0.0102802
0.00928209
0.00835822
0.00821195
0.00956479
0.0155299
0.0153811
0.015435
0.0153813
0.0148017
0.0146357
0.0140651
0.0138125
0.0131079
0.0126613
0.0119691
0.0140276
0.0177904
0.0198864
0.0222673
0.0247758
0.0234504
0.0189438
0.0167114
0.0101626
0.00802127
0.00692634
0.0059952
0.00529496
0.00509249
0.00756418
0.00944082
0.0116477
0.0136546
0.0139582
0.0164143
0.0203959
0.0310479
0.0493446
0.0416931
0.039383
0.0402665
0.101078
2.55725
2.77362
2.51316
2.91892
3.33709
0.404401
0.155138
0.286874
0.303231
0.336876
0.31481
0.286035
0.260541
0.270051
0.259028
0.270547
0.251959
0.261257
0.227977
0.23225
0.233428
0.654913
1.02094
1.23575
1.72793
1.73625
1.95834
1.91404
1.93523
1.79048
1.90825
1.65893
1.37621
1.30019
1.22755
1.31793
1.43267
1.24363
1.1282
1.0135
0.923016
0.790765
1.00352
0.761837
0.720117
0.718675
0.750695
0.999655
0.90859
1.04662
0.969647
1.02112
0.616885
0.691814
0.506256
0.421626
0.350203
0.421601
0.565021
0.746954
0.925736
0.712598
0.96963
0.89897
0.893087
0.851368
0.777732
0.738629
0.726377
0.74764
0.760267
0.775446
0.802971
0.823904
0.841817
0.992929
1.0565
1.04574
0.856779
0.766633
0.53075
0.56827
0.602643
0.606298
0.56538
0.546375
0.493828
0.481127
0.435666
0.41707
0.378476
0.359786
0.327794
0.452744
0.775388
0.805019
0.874408
0.928321
0.977986
1.00033
1.0168
0.999761
0.966411
0.898052
0.869109
0.806936
0.914309
1.09943
1.09987
1.01242
0.860073
0.815139
3.77432
4.58587
3.03967
6.53926
9.90836
16.5926
7.61474
2.08248
3.4805
2.3924
2.12452
2.07124
2.18601
3.44244
2.5167
3.29641
2.71858
2.87272
2.21405
2.50926
2.37584
1.82506
1.53739
1.3027
1.1862
0.953172
0.941666
0.765384
0.716385
0.663657
0.55375
0.679798
0.677099
1.6116
2.26581
2.82899
4.44262
4.88319
5.33597
8.43558
6.84372
8.58527
5.11356
5.16161
3.818
3.59302
3.63281
4.99653
7.12904
4.91422
8.56954
4.78261
15.5349
34.7351
9.22656
19.0721
11.0096
9.96054
9.6042
9.89867
14.0694
9.57621
15.5848
13.0502
17.3308
16.7453
17.8823
13.8888
10.2765
11.2761
12.1052
15.5351
11.035
12.7495
9.6481
9.43353
8.83744
7.31278
6.57188
5.03737
5.9107
6.95614
7.90696
12.507
15.7193
18.0785
21.802
16.1211
18.4013
11.0847
12.154
9.39545
8.81443
8.94574
11.7703
20.9051
14.8165
27.0432
0.497202
0.226026
0.544945
0.229665
0.487959
0.391091
0.403706
0.404677
0.400301
0.462189
0.220333
0.185241
0.177481
0.175329
0.17684
0.100276
0.124486
0.0804486
0.12695
0.22921
0.503544
0.365342
0.1405
0.0826245
0.0546202
0.0429665
0.0634937
0.0612908
0.0980164
0.0993767
0.105698
0.132206
0.227977
0.433349
31.7654
7.12664
1.12729
0.527408
0.283275
0.173527
0.147957
0.167065
0.179487
0.181999
0.170715
0.144901
0.103979
0.0690297
0.0464134
0.0389548
0.0283875
0.028386
0.0394175
0.0529957
0.0490219
0.0646326
0.0829645
0.105677
0.12988
0.149207
0.163771
0.167749
0.1558
0.121953
0.0802004
0.0442457
0.0265088
0.0228824
0.0209636
0.0194705
0.0168324
0.014652
0.0132177
0.0112898
0.00994641
0.00896799
0.00864451
0.00876321
0.00955756
0.0120882
0.0145456
0.0188305
0.0179464
0.0134369
0.0126108
0.00781152
0.00722281
0.0073706
0.00762139
0.0084555
0.0132352
0.013541
0.0134178
0.0134399
0.0132547
0.0132257
0.0130518
0.0128672
0.012645
0.0122137
0.0119237
0.0114043
0.011129
0.0104956
0.0105224
0.0109034
0.0112081
0.0101547
0.0100557
0.00934568
0.0199511
0.0479887
0.0697188
0.078156
0.087958
0.0807479
0.0416221
0.0227284
0.00783922
0.0077118
0.00820229
0.00883771
0.00839169
0.00617277
0.00671317
0.00784682
0.0109674
0.0108312
0.0108603
0.0126218
0.0131313
0.0145044
0.015042
0.015468
0.0157014
0.0157153
0.0158643
0.0156513
0.0157645
0.0156038
0.0157035
0.0153128
0.027187
0.0255817
0.0262468
0.0262287
0.0273001
0.0267541
0.0261869
0.0252046
0.0244402
0.0229397
0.021334
0.01982
0.0177817
0.0185459
0.017936
0.0112181
0.0106623
0.00770372
0.00773939
0.00743754
0.0102706
0.00934596
0.00785833
0.00924594
0.00677888
0.00696819
0.0072755
0.0103463
0.0108707
0.0172658
0.0172065
0.0152137
0.0161376
0.0171516
0.018438
0.0196029
0.0210065
0.0220407
0.0231312
0.0249984
0.0254546
0.0238447
0.0235638
0.0225104
0.0244532
0.0234535
0.0217046
0.0232141
0.0247738
0.027158
0.026791
0.0246577
0.0233438
0.0219169
0.0196307
0.0170237
0.0156925
0.0147292
0.0147703
0.013784
0.0161512
0.0146295
0.0101402
0.010392
0.00787124
0.00631373
0.00604106
0.00918163
0.0130236
0.0278855
0.0173718
0.00930306
0.0102634
0.0164438
0.0338978
0.0195245
0.0317626
0.0141099
0.014258
0.0125648
0.0124722
0.0137509
0.0160193
0.0170287
0.0206305
0.0232567
0.0252317
0.0261219
0.0274607
0.0278441
0.0292505
0.0296856
0.0323421
0.0326014
0.0327026
0.0322541
0.0300215
0.0270029
0.0249314
0.0307727
0.0356071
0.0387007
0.0410727
0.0434309
0.0421563
0.0385227
0.0376689
0.0357692
0.0346742
0.033266
0.0302093
0.0264148
0.0216649
0.0211304
0.0270839
0.0327739
0.0489943
0.0527437
0.0524836
0.0548074
0.055289
0.0570149
0.0574324
0.0600594
0.0606178
0.0617572
0.0620843
0.0672167
0.0680895
0.0690966
0.0694106
0.0691811
0.0701911
0.0702326
0.0477129
0.0428026
0.0389562
0.0323778
0.0271816
0.0344476
0.0428491
0.0478911
0.0730992
0.0736007
0.0773261
0.0799288
0.084885
0.0885725
0.0934916
0.0980071
0.102463
0.105938
0.108059
0.108472
0.108996
0.108128
0.106875
0.115705
0.150244
0.166779
0.197341
0.212373
0.225097
0.229278
0.220383
0.224039
0.215793
0.218252
0.211797
0.209638
0.204178
0.197621
0.193915
0.187367
0.183232
0.211219
0.159524
0.122418
0.0817515
0.0658533
0.0581643
0.0536754
0.0573751
0.0442238
0.0375145
0.0569461
0.0521005
0.0413966
0.0275652
0.0187128
0.0318788
0.0473101
0.0640788
0.081268
0.0969942
0.107295
0.109894
0.108824
0.104121
0.0963584
0.0812708
0.0613071
0.04225
0.0349236
0.0322532
0.0282665
0.0222896
0.0179106
0.0157814
0.0141864
0.0124098
0.0111507
0.010591
0.0107313
0.0110381
0.0132347
0.0173124
0.0173058
0.0115974
0.0111681
0.00768155
0.00776755
0.00802219
0.0133535
0.013495
0.0209333
0.023372
0.0220088
0.0226869
0.0224136
0.0226967
0.022321
0.0211279
0.0202839
0.0193151
0.0184743
0.0177413
0.0169324
0.0161639
0.0174788
0.0164483
0.0138735
0.0139702
0.0145686
0.0152014
0.0160828
0.0173343
0.0184125
0.0211017
0.0212948
0.0208014
0.0209005
0.0194467
0.0187387
0.0200015
0.0195346
0.0133023
0.0131322
0.0191751
0.0188216
0.0186985
0.022498
0.0209049
0.021431
0.0225574
0.0224231
0.0194891
0.018131
0.0165897
0.0154169
0.0140549
0.0125562
0.0122015
0.0149481
0.0132174
0.0108344
0.012
0.0144113
0.0170242
0.0184758
0.0204557
0.0231671
0.0241265
0.0263498
0.027762
0.0298492
0.0306865
0.035486
0.0361704
0.0340582
0.0322098
0.0312036
0.0274405
0.0235057
0.0259245
0.0267931
0.0271679
0.0272502
0.0271178
0.0235463
0.0231142
0.0216021
0.0210877
0.019527
0.018972
0.0178172
0.0170632
0.016051
0.0142237
0.0134555
0.0126493
0.0123031
0.0173715
0.0108357
0.0106056
0.0160011
0.00986499
0.0116094
0.0113586
0.0118664
0.0125031
0.0103626
0.0151633
0.010346
0.0112254
0.0114337
0.014292
0.00984199
0.0192775
0.0612273
0.0913614
0.110136
0.200533
0.241163
0.261741
0.282531
0.297006
0.313015
0.330738
0.34849
0.361703
0.363282
0.337895
0.319557
0.25492
0.228303
0.252176
0.282455
0.194984
0.167316
0.169676
0.170617
0.173301
0.174651
0.178434
0.176469
0.181712
0.177381
0.184846
0.178877
0.18556
0.177957
0.16239
0.145648
0.112773
0.101885
0.0656936
0.0508609
0.0397999
0.0288653
0.0210208
0.0188577
0.0178445
0.0164832
0.0165676
0.0126987
0.0131081
0.00839425
0.00615287
0.00986073
0.00971273
0.00720811
0.00984327
0.0112446
0.0117624
0.0123016
0.0125924
0.019264
0.0193029
0.02473
0.0246056
0.0291738
0.0347693
0.0360204
0.0396801
0.0570214
0.0575164
0.0572618
0.0570486
0.0566061
0.0494088
0.0491275
0.0480237
0.0474357
0.0445072
0.043955
0.0418887
0.0407597
0.0378326
0.0370138
0.0358826
0.0362877
0.0397692
0.0538661
0.0950433
0.0288112
0.0272121
0.0200733
0.0144903
0.0211401
0.0158844
0.0153705
0.0135874
0.0186887
0.0134368
0.0136965
0.016494
0.0169989
0.0163721
0.021223
0.0264913
0.02326
0.0255217
0.113551
0.071053
0.023513
0.0464198
0.0701807
0.15553
0.202849
0.138329
0.158186
0.182378
0.165423
0.138803
0.107894
0.0806135
0.0566773
0.0431952
0.0114292
0.0133117
0.0183588
0.0397852
0.0591972
0.10112
0.0828609
0.108362
0.148109
0.172495
0.208478
0.199804
0.171705
0.147763
0.144995
0.160708
0.161472
0.103474
0.100418
0.0768076
0.173054
0.218704
0.183762
0.230608
0.242763
0.140097
0.0312584
0.018337
0.0151034
0.0139018
0.0124286
0.0194077
0.0114351
0.0116364
0.012343
0.0132706
0.0169178
0.0293851
0.0134078
0.0149058
0.0183342
0.0158978
0.0149634
0.0146241
0.0145482
0.0151862
0.0165627
0.0215821
0.0216333
0.0212594
0.0159695
0.0172512
0.0156693
0.0199543
0.0211594
0.0332866
0.0152295
0.0161667
0.0214202
0.474729
0.0245475
0.0177941
0.0231501
0.0218211
0.0300142
0.044118
0.455618
0.0436831
0.035017
0.0585989
0.0609196
0.0655759
0.0692377
0.0727266
0.0752469
0.0791677
0.081843
0.0830512
0.084265
0.0999253
0.0999871
0.0989216
0.103531
0.0976931
0.0577112
0.0579388
0.0975418
0.105306
0.0594778
0.0410716
0.0385519
0.0312631
0.0324061
0.0419447
0.0440169
0.0617083
0.0615467
0.102692
0.093632
0.0950423
0.0967666
0.0917245
0.0921715
0.0942748
0.09415
0.075381
0.0730969
0.071351
0.0682882
0.0647679
0.0618659
0.0589503
0.0558196
0.0530854
0.0529663
0.0573485
0.0582433
0.0655959
0.0716022
0.214995
0.14586
0.104565
0.0781716
0.0642332
0.0585879
0.0583883
0.0616588
0.0649003
0.066569
0.067366
0.0707019
0.09242
0.094984
0.097869
0.0952528
0.0991048
0.0971973
0.0947177
0.104641
0.112481
0.0657121
0.0677885
0.0478675
0.0446836
0.0326207
0.0331958
0.0236891
0.0196335
0.0196059
0.0195836
0.0198205
0.0227275
0.0317816
0.031875
0.0465837
0.0464601
0.0518641
0.0754841
0.072528
0.129402
0.11859
0.108905
0.101542
0.101937
0.10404
0.10667
0.10165
0.0977489
0.0921763
0.0724484
0.0684745
0.0663334
0.0650477
0.0636788
0.0668099
0.0892138
0.143409
0.219003
0.322409
0.422473
0.434981
0.394815
0.243974
0.285498
0.141213
0.162397
0.183811
0.157713
0.166828
0.316515
0.263217
0.371716
0.477442
0.531065
0.597206
0.633409
0.619713
0.490111
0.317492
0.325022
0.433177
0.762858
0.856026
0.741912
0.760465
0.657162
0.53971
0.52161
0.497248
0.561396
0.612884
0.578372
0.596028
0.540262
0.515894
0.445858
0.497626
0.363649
0.327571
0.307955
0.299126
0.358477
0.290089
0.326706
0.268462
0.27465
0.223168
0.228739
0.19095
0.14618
0.138572
0.128454
0.143797
0.162972
0.149254
0.153493
0.134005
0.114498
0.0912082
0.0985198
0.0735617
0.069497
0.0703784
0.0797561
0.124229
0.363586
0.172184
0.163036
0.167446
0.17799
0.319011
0.282751
0.725934
0.508896
0.712731
0.475744
0.564868
0.472632
0.364498
0.379954
0.41989
0.600618
0.824486
6.65941
0.284916
4.26725
3.16767
3.32583
3.47116
4.45021
7.81759
7.11329
9.4051
6.80987
9.08416
4.97356
4.97618
4.32582
4.47088
4.43793
4.25997
5.17369
6.59724
0.237845
0.0908961
0.0854195
0.0856096
0.087384
0.197701
0.0525574
0.20204
0.0539718
0.213528
0.0495298
0.246772
0.19697
0.0382405
0.0192577
0.0200896
0.0168072
0.0203748
0.0169226
0.0250459
0.0235414
0.0236965
0.0265677
0.0760066
0.290986
13.7015
1.63005
0.677832
0.77621
1.1631
0.788825
1.18637
1.65034
1.10829
0.551511
0.359783
0.424338
0.512822
0.49007
0.627475
0.905332
0.886539
0.69673
0.701182
0.616083
0.872303
0.881567
1.04737
1.22464
1.12228
0.876832
0.689709
0.580961
1.00694
1.01501
0.949153
0.398157
0.111151
0.0461311
0.0480563
0.0352867
0.0372929
0.0346439
0.0534732
0.155887
0.215317
0.129002
0.422891
0.409629
0.561494
0.400928
0.41128
0.323944
0.348715
0.53092
0.580348
0.64023
0.671774
0.721717
0.66403
1.27583
2.18073
2.46535
12.7851
17.3719
3.18002
3.08485
13.9299
0.314595
0.0837578
0.0232968
0.0174267
0.016216
0.0161296
0.0150009
0.0155384
0.0160002
0.0169642
0.0188306
0.023199
0.0458443
0.20156
0.203531
0.064368
0.0324401
0.0229743
0.0196182
0.0170474
0.0163877
0.0155321
0.0154597
0.0150081
0.0156571
0.0174617
0.0237732
0.0773985
0.27108
11.3341
2.43354
2.25243
8.37883
5.79168
0.206726
0.0437922
0.0200945
0.0169272
0.0158843
0.0167548
0.0162664
0.0182122
0.0184035
0.0230186
0.0250255
0.0317762
0.0571074
0.110247
0.315843
9.603
8.67279
8.39753
7.8283
0.310468
0.11529
0.0544215
0.0382414
0.0346306
0.0338232
0.022651
0.0236758
0.0189837
0.0216439
0.018297
0.0226863
0.0483142
0.211898
5.34964
1.56905
1.69936
1.20899
0.61167
0.65377
0.667224
0.686657
1.767
4.03657
4.9692
3.41391
3.35087
4.69177
3.16118
2.47375
1.82224
1.74194
2.53868
1.95875
1.82205
1.35285
1.46204
1.06574
1.46533
0.809694
0.975678
1.07141
1.52905
1.39593
1.4091
0.907327
1.04909
1.47324
1.72434
1.64916
0.842753
1.22636
1.01263
0.653673
0.605302
0.631316
0.600901
0.575368
0.572759
0.57739
0.556651
0.574255
0.554819
0.587082
0.547148
0.532018
0.505904
0.525303
0.54249
0.57475
0.358877
0.421131
0.425657
0.439988
0.45241
0.373332
0.449426
0.439914
0.656852
0.992184
0.827247
1.13782
0.67405
1.00017
2.00332
5.20788
2.3218
0.813228
1.34445
1.58322
1.13755
0.626697
2.5507
3.56054
1.22944
1.78502
10.3974
8.44101
16.5337
10.9508
18.587
6.01296
4.6249
17.78
6.6542
6.88418
4.49735
4.50776
2.94882
1.57807
1.62016
1.73144
1.22075
1.29238
1.20329
1.13027
1.46819
1.43196
1.87541
2.02506
2.5648
1.80446
1.76586
2.58194
1.05879
1.39093
1.82723
1.81843
1.352
2.32667
3.13944
2.94291
2.11897
2.32359
3.48874
4.79753
4.54601
3.14481
3.93326
10.0989
13.4762
13.6583
4.20687
19.3382
18.2963
2.05583
0.55534
0.316432
0.0871829
0.0440737
0.0366113
0.038682
0.142868
0.0458104
0.0569099
0.0452699
0.0717242
0.0691858
0.0863774
0.214849
0.125058
0.212488
0.153309
0.185586
0.118462
0.189467
0.222027
0.231425
0.184132
0.112963
0.208467
0.300435
0.103489
0.34702
0.381466
0.25413
0.325126
0.387295
0.191907
0.984248
0.182829
0.12441
0.142932
0.384261
1.23988
0.21313
0.454043
4.44757
14.7048
3.65061
0.924389
0.668192
0.0551042
0.0299536
0.0313194
0.0276984
0.0193858
0.0823977
0.0966412
0.399218
0.205472
0.277435
0.660921
2.93287
2.39687
1.11136
5.46121
10.2793
15.1584
9.12832
2.21019
9.7498
19.6187