/*--------------------------------*- C++ -*----------------------------------*\
| =========                 |                                                 |
| \\      /  F ield         | OpenFOAM: The Open Source CFD Toolbox           |
|  \\    /   O peration     | Version:  v2012                                 |
|   \\  /    A nd           | Website:  www.openfoam.com                      |
|    \\/     M anipulation  |                                                 |
\*---------------------------------------------------------------------------*/
FoamFile
{
    version     2.0;
    format      ascii;
    class       surfaceScalarField;
    location    "1080";
    object      phi;
}
// * * * * * * * * * * * * * * * * * * * * * * * * * * * * * * * * * * * * * //

dimensions      [1 0 -1 0 0 0 0];
oriented        oriented;


internalField   nonuniform List<scalar> 
50655
(
0.00257002
-0.00360971
-0.0013773
-0.00510865
0.00127114
0.00366493
-0.00342492
0.00386
0.00454569
-0.0024972
-0.00278697
0.00296858
-0.00368536
-0.00376088
0.00271706
-0.00180594
-0.00480607
0.000868164
0.000129933
-0.00466238
0.00165643
-0.0018707
-0.00720754
0.00245762
-0.0104994
0.00288184
0.000311317
-0.011321
-0.0034918
0.00420336
-0.0120709
-0.00486107
0.00550851
-0.0129283
-0.00564911
0.00640236
-0.0262154
-0.00933612
0.0224294
-0.0487429
-0.0283082
0.0502754
-0.0483275
-0.0527677
0.0516552
-0.0310874
-0.0711652
0.0531473
-0.00452347
-0.0780621
0.0507151
0.0079006
-0.0547172
0.0414818
-0.00173338
-0.0314015
0.0402627
-0.021122
-0.0216791
0.040301
-0.0170824
-0.0513044
0.0465423
-0.00720089
-0.0553914
0.0449522
-0.0389452
0.0314152
-0.0415675
0.0188087
-0.0164877
-0.0162774
-0.0755825
0.0497977
0.0200154
-0.0798196
0.0430303
0.030583
-0.0294348
0.0185602
0.0341998
-0.00395419
0.0366473
0.0178423
-0.0206123
0.0255568
-0.0180232
0.0288378
0.0166325
-0.00950061
0.0182558
0.00364714
-0.00134751
0.0142059
-0.00639909
0.00694672
0.00300424
-0.00540641
0.000270275
-0.00130365
-0.0053814
-0.00116902
0.00112563
-0.00630455
0.000173827
0.000732033
-0.00756878
0.000161856
0.00108577
-0.00869487
4.40039e-05
0.00106495
-0.009085
-0.000292384
0.000666155
-0.00934613
-0.000712362
0.000956903
-0.00891085
-0.00114083
0.000689256
-0.00828096
-0.00161264
0.000966083
-0.00705648
-0.00206359
0.000822679
-0.00562403
-0.00252962
0.0010803
-0.0037567
-0.002826
0.000942501
-0.00193601
-0.00301033
0.00117268
0.00102819
-0.00298179
0.000785857
-0.00243105
0.00264774
-0.00572465
0.00494007
0.00152867
-0.0113292
0.00467238
0.00087562
-0.0133408
0.00509549
-0.00315086
-0.0131068
0.00533573
-0.00563668
-0.00548729
0.00462668
-0.0123027
0.000492163
0.00559481
-0.011616
0.000598199
0.00356931
-0.00370098
-0.00150433
0.00208494
-0.00295085
0.00214099
-0.000711602
-0.00450941
0.00218911
-0.000646703
-0.00582132
0.00234879
-0.00105327
-0.0070874
0.00230671
-0.00105558
-0.00858827
0.00249879
-0.00101194
-0.0101539
0.002585
-0.00103273
-0.0114492
0.00237771
-0.00109559
-0.0123521
0.00201699
-0.00112707
-0.0128205
0.00160461
-0.00114927
-0.0131396
0.00143934
-0.00113349
-0.0137444
0.00156696
-0.000976372
-0.0139524
0.00112294
-0.000930043
-0.0136583
0.000896864
-0.00120634
-0.0136491
0.000782722
-0.00080765
-0.0133746
0.000827154
-0.00111775
-0.0131271
0.000901895
-0.00116529
-0.0129821
0.000845081
-0.0010058
-0.0127061
0.000575575
-0.000867217
-0.0121666
0.000126946
-0.000681899
-0.0112659
-0.000447661
-0.0004683
-0.0101457
-0.000906674
-0.00022883
-0.00882856
-0.00100231
-0.000329579
-0.00738061
-0.000752777
-0.000709031
-0.00757885
-0.00068626
0.000872498
-0.0163825
0.000830644
0.00794645
-0.0211477
0.000419191
0.00428542
-0.0225865
0.00116317
0.000210444
-0.0425464
0.0163581
0.00348433
-0.0545167
0.00565545
0.00601655
-0.0294386
-0.0162265
-0.00915919
-0.0131018
-0.0149143
-0.00155463
-0.0112415
-0.00397275
0.0020344
-0.00998371
-0.00305687
0.00170901
-0.00806571
-0.00340503
0.00138553
-0.0047102
-0.00327199
-0.000178797
-0.00316022
-0.00163529
-0.00441834
0.00457272
-0.00340948
-0.00263229
0.00672269
-0.00862237
0.000965394
0.00619742
-0.00992729
0.00627067
0.00588491
-0.011335
0.0150742
0.00875394
-0.0177386
0.0286023
0.013708
-0.0275186
0.0248561
0.0196307
-0.0161659
0.0163735
0.00632901
0.0019689
0.0074549
8.92401e-05
0.008682
-0.00138593
-0.00414348
0.0128494
-0.00455564
-0.00689047
0.0099438
-0.00758006
0.00538459
0.00447367
0.000967144
-0.0102365
0.00227146
-0.00834344
0.00354151
-0.0048896
-0.00444332
0.00733511
-0.0123864
0.00206214
0.00539108
-0.0143176
0.00567003
0.00245334
-0.0385867
0.0268181
0.023238
-0.00673765
-0.0133654
0.0369847
-0.00985861
-0.0392168
-0.0048708
0.00925105
-0.00912625
-0.000605057
0.00894738
-0.00745828
0.00261962
0.00956808
-0.00671776
0.00455041
0.00958809
-0.00490612
0.00710233
-0.00134501
0.0112448
-0.00493616
-0.00272854
0.0124214
-0.00187397
-0.0024619
0.00881739
-0.000399387
-0.00411162
-0.00203571
-0.0210546
-0.00209748
0.0295363
-0.0106704
-0.014305
-0.00164129
-0.00712802
-0.00245921
-0.00734043
0.0158599
0.00136416
-0.0102791
0.0219047
0.00116549
-0.00900784
0.0324371
0.00039559
-0.0132023
0.0831665
-0.00208464
-0.0360106
0.0467666
-0.00197947
0.0455058
-0.00214031
0.00740627
-0.0030888
0.0384329
0.00384602
0.021769
0.00194871
0.0232268
-0.000321757
0.0113106
0.0139362
0.00621872
-0.00791843
0.000106058
0.00680683
0.00521333
-0.00147604
0.00731801
0.00818307
-0.001521
0.0071187
-0.0150671
0.00797522
-0.00209167
0.00736628
-0.0153149
0.00849941
-0.00125989
0.00743277
-0.0166969
0.00841185
-0.00129639
0.00741657
-0.0160117
0.00861078
-0.000627284
0.00727868
-0.0165723
0.00860389
-0.000252327
0.00702705
-0.0159781
0.00855609
0.000708677
0.00623038
-0.0154361
0.0082261
0.00576033
0.00441872
-0.0169345
0.00744961
0.0014907
-0.0041492
0.00567086
0.00273364
0.000804817
0.00537708
-0.000279473
0.000623737
0.00713457
-0.000733868
0.000776746
0.00801094
-0.0011492
0.000931288
0.00831431
-0.00120315
0.00126791
0.00838339
-0.00131669
0.00149129
0.00855834
-0.00136224
0.00149359
0.00870312
-0.00135211
0.00125683
0.00871433
-0.0013712
0.000930426
0.0088293
-0.00119677
0.0073051
-0.000264497
0.00935245
-0.00199431
-0.000819796
0.0110298
-0.00183968
-0.000855445
0.0123129
-0.00153692
-0.000668712
0.0130986
-0.000303009
-0.000945996
0.0135288
0.000860448
-0.00117943
0.0137068
0.0017165
-0.0013348
0.0137063
0.00224437
-0.00141506
0.013766
0.00225718
-0.00143148
0.0137214
0.00183352
-0.000978259
0.0137281
0.00135673
-0.000596749
0.0139101
0.00123685
-0.000537558
0.013297
0.00115629
0.00056446
0.0124432
0.00243894
0.000238467
-0.000270762
0.0126826
-0.000415196
0.00244347
-0.000841633
0.0123432
-0.00023954
0.00280502
-0.000634743
0.0114691
-7.56614e-05
0.00311644
-0.000162812
0.0102065
4.72724e-05
0.000300084
0.00327965
0.00860795
0.000724855
0.00331689
0.000128314
0.00686323
0.00104299
0.00305053
0.00013616
0.0058585
0.000965939
0.00224325
8.72855e-05
0.00441605
0.00462579
-0.000850942
0.00286421
0.00428025
-0.00055551
0.00142014
-0.000506236
0.00407488
0.00389428
-0.000406131
0.00560329
-0.000514053
-0.0012111
0.00682673
-0.000408601
-0.00083169
0.00779821
-0.000606428
-0.000381537
0.00816283
-0.00047242
9.10837e-05
0.00821984
-0.000605691
0.000532211
0.0075314
-0.000258499
0.000930352
0.00655532
-0.000293986
0.0012535
0.00473838
0.000294002
0.00150586
0.00204455
0.00114423
0.00153247
-0.00173042
0.00206225
0.00169477
-0.00448307
0.000560202
0.00217447
-0.00600959
-0.000873761
0.00238101
-0.00729692
0.000624238
0.000641148
-0.0137697
0.000506131
0.00592181
-0.0248692
-0.00655017
0.0175338
-0.031024
-0.0161537
0.0221433
-0.0391536
-0.026112
0.0339751
-0.0317028
0.0236541
0.0162053
-0.0384889
0.00915358
0.0259349
-0.0166969
0.00689876
-0.00457969
0.00434861
-0.0322766
0.0261607
0.00148738
-0.0147214
-0.0233245
0.00573403
-0.0375184
0.00605386
0.0412204
-0.0574003
-0.000796325
0.0290294
-0.0500265
0.015184
0.0125959
-0.00997144
0.0169632
-0.0102612
0.0109496
-0.00252535
0.0189631
0.00789197
0.0113361
-0.0125561
0.0135172
0.00530568
-0.00620952
0.00136182
0.0112594
0.004893
0.00102547
0.00271899
0.00129002
-0.00101678
0.00153453
0.00273986
-0.00487193
0.00384322
0.00205265
-0.00543773
-0.000480418
0.00216949
-0.00957028
0.00198478
0.0024213
-0.00822132
-0.00368703
0.00202399
-0.0118707
0.00195158
0.00141943
-0.00891135
-0.00418069
0.000595839
-0.0112454
0.00214934
-0.000307454
-0.00732486
-0.00320266
-0.00134398
-0.00816182
0.00228829
-0.0018801
-0.00440934
-0.00171517
-0.00257059
0.00129727
-0.0025625
0.0039969
0.0117505
-0.0106299
0.0115194
0.00651579
-0.00946406
0.0130723
0.00884294
-0.00512992
0.0101471
0.0104498
-0.00249878
0.00414756
0.00944644
0.00117295
0.012646
-0.00214446
-0.00221297
0.000739743
0.0149523
-0.00593494
0.00486572
-0.00332961
0.00201712
0.0148662
-0.00751375
-0.00312912
0.00315272
0.0075029
0.0102731
-0.00789517
-0.00273621
0.00319965
0.0119507
0.00177617
-0.00671582
-0.00204339
0.00105621
0.0161149
-0.000694652
-0.00450879
0.00744105
-0.000303086
-0.00521014
0.0112367
0.000117374
-0.0103805
0.012665
-0.00895367
-0.0142743
-0.0141555
0.00843867
0.00572616
-0.0241606
0.00411162
-0.0185894
0.00623772
-0.0165313
-0.0114013
0.00927404
0.00796057
0.00961158
-0.03415
-0.0237886
0.00755335
0.0112116
0.00751511
-0.0100451
-0.0325588
-0.00918867
0.00783048
-0.00164333
7.70127e-06
0.0078278
-0.00660246
-0.0104849
0.0115343
-0.00765887
-0.0141921
0.0105032
0.0105728
-0.000764377
-0.00886272
0.0103533
-0.00152586
0.00796593
-0.00773217
0.0038387
0.0010344
0.00466722
-0.00359533
0.00578828
-0.00629643
0.0139838
-0.0121368
-0.00354559
0.0108128
-0.0170352
-0.00261971
0.00570931
-0.0169717
-0.000996872
-0.00117145
0.0020337
-0.0082446
0.00842572
0.00964177
-0.00958686
0.010926
0.011264
-0.00500155
0.0115862
0.0118885
-0.00217912
0.0106555
0.00437339
-0.0109816
0.0110076
0.00304528
-0.0091871
0.012146
-0.00213557
-0.00497235
0.0117361
-0.00477045
0.00973727
-0.00613552
0.00223454
0.00375616
0.00105416
0.00800396
0.0074919
-0.00161255
0.0110124
0.00871501
0.000335544
0.0075118
0.00654149
-0.00920381
0.0102171
-0.000288797
-0.00712594
0.00383153
0.00271717
0.000180597
0.00163481
-0.00153892
0.00498341
-0.00650522
-0.00153341
-0.00230081
0.0187549
-0.0035979
-0.0193547
0.0169491
-0.00145298
-0.00175245
-0.0161995
-0.0118922
-0.000907265
0.00335223
-0.00864204
-0.0107002
-0.0131556
0.00658236
-0.00595472
-0.00496214
0.000880604
0.00138084
0.000388779
-0.00209363
-0.00425232
-0.000992267
0.00397525
-0.00259579
-0.000422118
0.00180466
-0.0023762
0.00129051
-0.00380844
0.00677164
0.000701798
-0.0111571
0.00065603
-0.0034764
0.010458
-0.00346278
-0.00444137
-0.0189227
0.0139508
-0.0118609
-0.0193808
-0.0118191
0.00788315
0.0043019
-0.0265747
-0.0154465
0.00260868
0.00935145
0.0105692
-0.0355478
-0.016529
0.0130995
0.00186436
0.010436
-0.0422549
-0.0146919
0.00986883
0.000114639
0.0113121
-0.0436311
-0.0108566
0.00327665
-0.00149837
0.0103501
-0.0431392
-0.00624413
-0.00145411
-0.00180813
0.00890462
-0.0394553
-0.00341816
-0.00447343
0.00411354
-0.0347165
-0.00125861
-0.00707805
0.00651052
-0.00302074
-0.0321534
0.00126028
-0.00608242
0.00563317
-0.00347601
-0.0291045
0.00256385
0.00450713
-0.00395596
-0.00626669
-0.0289098
0.00195338
0.00400045
-0.00351826
-0.00274234
-0.0298109
8.71875e-05
0.00189844
-0.00119157
-0.0277517
-0.001719
0.00145367
-0.00190751
-0.022924
-0.0027569
0.00159877
-0.0037659
-0.0300883
0.00175812
0.0226068
-0.0172762
-0.0591883
0.0293131
-0.013051
0.0124604
0.00589727
-0.0198577
-0.00148786
-0.0133019
-0.025164
-0.00904303
-0.0122417
-0.000536725
-0.0087158
-0.0111374
0.000552327
0.000308648
-0.00940978
-0.000673035
0.000557893
-0.00578723
-0.00383461
0.00148729
-0.00308406
-0.00403644
0.00105609
-0.00454133
-0.000247687
-0.00446125
0.000791031
-0.000918359
-0.00685214
0.00204284
0.000284866
-0.0107918
0.00219534
0.00166466
-0.013102
0.000806293
0.0014254
-0.0133673
-0.000362618
0.000558124
-0.0130754
-0.00175611
0.00141019
-0.0236465
0.00141624
0.00908007
-0.0568471
0.0174888
0.015505
-0.101256
0.00877251
0.0350636
-0.117883
-0.00596445
0.021898
-0.127205
-0.0116913
0.0202384
-0.1336
-0.0165899
0.0221498
-0.137224
-0.0222774
0.0250173
-0.138535
-0.0273344
0.0277339
-0.13845
-0.0308091
0.0298009
-0.137639
-0.032956
0.0312199
-0.136185
-0.0342034
0.031833
-0.13404
-0.0348549
0.0318078
-0.130199
-0.0353669
0.0306547
-0.122232
0.0278771
-0.0366777
-0.103107
0.0208577
-0.0407427
-0.0533615
0.00340575
-0.0537696
-0.0225804
-0.00118612
-0.0298139
-0.012365
-0.00426667
-0.00602607
-0.0120868
0.00199732
-0.00233058
-0.0111875
0.00433865
-0.00530872
-0.00875425
0.00385504
-0.00636875
-0.00423926
0.00402359
-0.00862294
-0.00478166
0.00349185
-0.00302067
-0.00805031
-4.96529e-05
0.00326749
-0.00781125
0.00237243
-0.00268267
-0.00894248
0.00104342
-0.013814
0.00697369
-0.00220073
-0.0166436
0.00714108
-0.00442143
-0.0189171
0.00764054
-0.00546965
-0.0237714
0.0070011
-0.00225156
-0.0533079
0.0187312
0.0106088
-0.0979039
-0.00808677
0.0521091
-0.110892
-0.0316687
0.0439359
-0.112358
-0.0418166
0.0424719
-0.107673
-0.0476584
0.0421515
-0.0989035
-0.0521271
0.0425005
-0.086227
-0.0543461
0.040845
-0.0692746
-0.0558464
0.0380741
-0.0495548
-0.0568253
0.0363395
-0.0238814
-0.0481076
0.0217975
-0.0375793
0.0132592
-0.0534397
0.0234658
-0.00807248
-0.0592917
0.0257418
-0.0203925
-0.0593817
0.0270664
-0.0275027
-0.0503894
0.0268388
-0.0363573
-0.0403317
0.0246961
-0.0352565
-0.0231426
0.0167345
-0.0343906
0.00934232
-0.0329236
0.0271477
0.0382078
-0.0566499
0.0508824
0.0496057
-0.0741064
0.0747201
0.0496878
-0.0743452
0.0948763
0.0498839
-0.0708646
0.110583
0.0470619
-0.0636256
0.118775
0.0397213
-0.0487349
0.116718
0.0329354
-0.0316885
0.101045
0.0300419
-0.0150895
0.0543897
0.0398002
0.00628164
0.0254193
0.0250002
0.00377384
0.0213187
0.00417253
-0.00017663
0.0194104
0.000590531
0.00121518
0.0158361
0.000296887
0.00316753
0.00910879
-0.000250982
0.00687973
-0.000930878
0.00995189
-0.000978118
-0.00969506
0.00964655
0.000704788
-0.0130814
0.0112895
0.00253989
-0.0142087
0.0122504
0.00403734
-0.0135405
0.0119075
0.0042736
-0.0191283
0.0187142
0.00777501
-0.0285732
0.0247866
0.00376365
0.023572
-0.0198443
-0.000239891
0.0168575
-0.0130331
-0.000428645
0.00842005
-0.00836696
-0.000588641
0.00773488
-0.00769809
-0.00111966
0.00736377
-0.00694173
0.00631049
-0.00648251
0.00346012
0.00545361
-0.000293352
0.00324324
0.0061874
0.0013212
0.0033377
0.00591117
0.00165151
0.00399467
0.00478154
0.00290332
0.0103413
0.0115732
-0.001168
0.0193725
-0.00896332
-0.000113294
0.00911924
-0.00418906
0.0144016
-0.0229794
-0.0113964
0.0434252
-0.01553
-0.00575219
-0.00177575
-0.000977917
0.00356863
0.00486956
-0.00943183
0.00604606
-0.00260148
0.003629
-0.00178693
-0.00824342
0.000447465
-0.00915064
-0.0102524
-0.0126435
0.0183924
-0.00477265
-0.0306947
0.00322153
0.00365408
0.00405464
-0.0175103
-0.0495924
0.00586037
0.0101092
0.00085093
-0.0580639
-0.0156373
0.0261736
-0.00420923
-0.0203681
0.00616236
-0.00323391
-0.0202521
0.00560379
-0.00225851
-0.0206101
0.00530148
-0.000891273
-0.0189946
0.00443342
-0.0149624
0.00402838
-0.021088
0.00225856
0.00403901
-0.0219011
-0.00134182
0.00263133
-0.0178532
8.67363e-05
0.00543423
0.00164792
-0.0464993
0.035385
0.00829694
0.00803546
-0.114846
0.0350259
0.0513874
0.0208423
-0.124924
0.0472768
-0.00801119
-0.125781
0.0547658
-0.0218401
-0.117982
0.0645389
-0.0334938
-0.103085
0.073212
-0.0419288
-0.084012
0.0769684
-0.0470253
-0.0615104
0.074766
-0.048419
-0.0367762
0.0744244
-0.0503669
0.050537
-0.0329383
0.0589486
0.0460055
-0.0303285
0.0685207
0.0519528
-0.035311
0.0688322
0.0531088
-0.0269789
0.063395
0.0508372
-0.0202657
0.0440894
-0.00590374
-0.0882691
0.0719301
0.00278906
-0.0980641
0.0755677
-0.0158441
-0.09955
0.0800225
-0.0263701
-0.0882567
0.0792357
-0.0395185
0.0719025
-0.0406378
0.0880695
0.0943718
-0.0366637
0.0976543
0.101605
-0.0328837
0.0945203
0.101061
-0.0188342
0.0819485
0.0960222
-0.00877356
0.0903279
0.00686506
-0.0812747
0.103379
0.0130097
-0.0944854
0.110443
-0.0021319
-0.0983824
0.115898
-0.0119013
-0.0905165
0.116753
-0.0239748
0.111279
-0.0313766
0.08703
0.124079
-0.0275536
0.0946739
0.128123
-0.0199905
0.0912507
0.126298
-0.00795358
0.078327
0.120232
0.0021992
0.112022
0.016674
-0.0724462
0.116576
0.0193572
-0.0843836
0.1253
0.00593137
-0.0867201
0.131855
-0.00419987
-0.0788103
0.134228
-0.0149945
0.131153
-0.0222832
0.0681904
0.131826
-0.0150341
0.0760824
0.134574
-0.00921493
0.0749962
0.131006
0.000958297
0.0640659
0.124633
0.010661
0.115379
0.0225795
-0.052573
0.105668
0.0297606
-0.0645962
0.116188
0.0195252
-0.0641492
0.119744
0.00985182
-0.0562089
0.125143
0.000528029
0.126016
-0.00406456
0.035141
0.0191166
0.0612659
0.0445789
0.0514098
0.0945667
0.0134321
0.0547124
0.0923433
0.023223
0.035726
0.0482389
0.0451616
0.0408347
0.0444775
0.0364818
0.0514565
-0.0122932
0.0268217
0.0153678
0.0143649
-0.0187177
0.0276363
0.0150684
-0.0152774
0.0310968
0.0134985
-0.0135291
0.0290136
0.0141905
-0.0399223
0.0275132
0.0407186
-0.000799447
0.0248293
-0.0283616
-0.00826215
0.0384425
0.00579675
-0.0369766
-0.00678524
0.0299158
0.00547346
-0.0370427
-0.00458212
0.0290337
-0.036492
0.00508531
0.0258331
0.00346604
0.00379843
0.0051446
0.00490654
0.00714471
0.0067892
0.00760181
0.00903622
0.00889555
0.00837535
-0.00412355
-0.0199075
0.0156584
0.00266141
-0.00061559
0.000582629
0.00623692
0.0028945
0.000295312
-0.000532429
0.000350826
0.00408387
-0.00154507
-0.00243494
-0.00131912
0.00410071
-0.0016561
-0.000487166
0.00117928
0.0105805
0.0120625
0.0315538
-0.0531027
0.00539717
0.0177325
-0.00422223
-0.00727083
0.0567329
0.00123119
-0.0150626
0.00282799
0.00354384
-0.00654064
0.00504167
0.00396623
-0.00619462
-0.0221724
0.009665
0.0175089
-0.00940308
-0.0124948
-0.000318163
0.0178929
-0.00256315
0.0239147
-0.00787394
0.0461949
-0.0126848
0.02161
0.0764865
-0.0249451
-0.0325581
0.00464592
0.00709445
0.0297244
0.0021572
-0.0175255
0.00804437
0.0136417
-0.00404569
-0.0106383
0.00847984
0.0149366
-0.00404096
-0.0114377
0.00758177
0.0144081
-0.00235678
-0.0112597
0.00613185
0.0127622
-0.0104089
-0.00100204
0.00367189
0.0105039
-0.00877547
0.00064424
0.00870403
-0.00788137
0.0027688
0.00840696
-0.00315655
0.00338291
0.00800478
-0.0027988
0.00314591
0.015135
-0.00807288
0.000865472
0.0391343
-0.0159471
-0.00827105
0.0725869
-0.0389015
0.00483031
0.0826238
-0.0276657
0.0168694
0.0841534
-0.0235224
0.021159
0.0815574
-0.0202509
0.0219743
0.076334
-0.0157953
0.0201159
0.0692337
-0.0086708
0.0148526
0.0596314
0.00185975
0.00681461
0.0409828
0.0179206
-0.00019983
0.013306
0.041902
-0.0151432
-0.00633328
0.0554306
-0.0366937
-0.00213592
0.0502372
-0.0553064
0.0121143
0.0392741
-0.0543574
0.0156426
0.0262277
-0.0305144
0.00981798
0.0290078
-0.0238006
0.00227063
0.0114161
-0.00408707
0.000541667
0.00392337
-0.00227137
-0.000257478
0.0018286
-0.00108404
-0.00199748
0.00331197
-0.00164149
0.00318091
-0.00228758
0.00311009
0.00529341
-0.00144767
-2.36185e-06
0.00670803
-0.000359033
0.00199873
-0.000194058
0.00653475
-0.000641296
0.00153008
0.00604173
-0.00365074
0.0025009
0.00535564
0.00631422
0.00110512
0.0115997
0.0172023
-0.0104733
0.0150547
-0.0100942
0.0232427
0.0237736
-0.0293304
0.0432739
0.0143173
-0.0434389
0.0506795
0.012731
-0.0617853
0.0466892
0.0261353
-0.077963
0.0297951
0.0273195
-0.089091
0.00796231
0.0201137
-0.0947698
-0.00846968
0.0150353
-0.0982782
-0.0208038
0.0146751
-0.100501
-0.0294149
0.014889
-0.100717
-0.0352072
0.0142348
-0.0973606
-0.0395878
0.0117874
-0.0885071
-0.0439957
0.00656814
-0.031823
-0.0405222
-0.0448238
-0.0112228
-0.0183867
-0.010431
-0.0191243
0.0026309
-0.0153436
-0.00711493
0.00132765
-0.00573612
0.000265252
-0.00941419
0.00085754
-0.00381309
0.00166974
-0.00750293
0.00100407
-0.00883003
0.0158023
-0.000173236
-0.00797657
0.0158174
-0.00183451
-0.00617158
0.0139155
-0.00216031
-0.0021223
0.0197871
0.00574686
0.020537
0.106883
-0.0447344
-0.0094485
0.00402539
0.0306861
0.00550731
0.00763426
0.0105012
-0.000246649
0.00844294
0.0142611
0.000668941
0.0151139
0.00192637
-0.0162713
-0.0197126
-0.0126796
0.0307557
-0.0202185
0.0462339
-0.0178302
-0.0512271
0.106772
-0.0244861
-0.0522918
0.121717
-0.0149334
-0.104299
-0.0445533
0.125547
-0.0301512
-0.075152
-0.0286695
-0.0175136
-0.0288252
-0.0143877
-0.00298131
-0.0402593
0.017001
-0.00216972
-0.0241277
-0.00527781
0.0279196
-0.00548666
-0.00857263
0.0163313
-0.007886
-0.00933633
0.0144029
-0.00620572
-0.00948487
-0.0118191
-0.00276444
0.0501039
-0.0212217
-0.0125608
-0.00613132
0.000615267
-0.0119043
-0.00851955
-0.000104481
-0.00873368
-0.00718815
-0.00156149
-0.00495679
-0.00446789
-0.00157841
1.17807e-05
-0.000774424
-0.00381256
-0.000447867
-0.00984282
2.12891e-05
0.000443963
0.00126988
-0.00171759
0.00136794
-0.00209488
0.00336194
0.00174705
-0.00266381
0.00436629
0.00205699
-0.00198801
0.00370713
0.00175129
0.00266374
0.000706055
0.00452687
0.00262604
-0.00106624
0.00473425
0.00382962
-0.000405638
0.00459395
0.00491046
-0.000484919
0.00482522
-0.000755341
-0.00641228
0.0108624
-0.00420324
-0.00623049
0.0108857
-0.00626872
-0.00535404
0.010041
-0.00719338
0.0090017
-0.00779732
0.00658442
0.011858
-0.00567301
0.00801932
0.0135826
-0.00507519
0.00821605
0.0151027
-0.00452028
0.01491
-0.00312635
-0.0092223
0.0168483
-0.00133582
-0.0093354
0.0178534
-0.00274368
-0.00966736
0.0177503
-0.00394008
0.0104674
-0.00401462
0.0128613
-0.000418357
0.0102408
-0.00167506
0.00751185
0.0232686
-0.00290262
0.00737439
0.0182885
-0.000387796
0.0172831
0.000729551
-0.0088782
0.0484423
-0.0251776
-0.00521661
0.0421037
-0.0276213
0.0449625
-0.0282685
0.0294743
0.117563
-0.0575486
0.127393
-0.0450327
0.0508798
0.13482
-0.0387477
-0.0206059
0.0555278
0.134717
-0.0149332
0.0521307
0.129948
-0.00595
0.115133
-0.00127189
-0.0503034
0.119581
0.00524726
-0.0560372
0.134918
-0.000318535
-0.0535614
0.140641
-0.00948361
-0.0448909
-0.0146389
0.139768
-0.128107
-0.0233388
0.133511
-0.0293426
-0.012857
-0.0511936
-0.114274
0.0286578
0.119261
-0.105973
-0.0668445
0.118302
-0.038354
-0.0495123
-0.0681323
-0.00473092
0.0138809
-0.0135364
-0.0193206
-0.0195318
-0.00996566
-0.00601971
-0.0131149
-0.00290022
-0.0140012
-0.00407671
0.00257786
-0.0143749
-0.0081943
0.00317897
-0.0127372
-0.0106291
0.00253607
-0.00979573
-0.0145205
0.00286565
-0.0107584
0.00114701
-0.0137613
0.0160439
-0.013753
0.000615854
-0.00950362
-6.67206e-05
-0.0153659
0.0144655
-0.00157619
-0.0167637
0.0116455
-0.00271155
-0.0180438
0.00965556
-0.00145838
0.014945
-0.0254717
0.0110902
0.0251971
0.0187269
0.0207349
-0.0498502
0.0188436
0.0161764
0.0178362
-0.0277907
0.0305489
0.0160595
0.0191805
-0.047081
0.0213526
0.0134358
-0.0227735
0.0184056
0.0392681
-0.0422344
0.00893949
0.0152787
0.0201073
0.0463056
-0.0100998
-0.0171463
0.025401
0.0300648
-0.020222
-0.0152647
-0.0172091
-0.0205753
0.00992607
-0.0182396
0.00381429
-0.0127923
-0.017924
0.0043711
-0.0172161
-0.0123079
0.00330815
-0.0161075
-0.0141221
0.00228595
-0.0167935
0.00210252
-0.0176483
-0.0170722
0.0174358
0.000374554
-0.0162832
-0.000770661
-0.0183865
0.0156266
-0.00198997
0.0129986
-0.00309247
0.0175634
0.0143168
-0.00279225
0.0174169
-0.00140787
0.0164958
0.0182252
-0.0170425
-0.000366811
0.0183696
0.00133284
-0.0151354
0.00285699
-0.0154961
0.00100621
0.0174835
-0.0153978
-0.00120568
0.0144668
-0.00214912
-0.0075226
-0.016009
0.0235708
0.0168721
-0.00150335
-0.0143656
-0.0171219
-0.0261817
-0.0242476
-0.00254145
-0.105251
0.103718
0.00754299
0.00121397
0.0182416
0.0127157
0.0239144
0.0146989
-0.0202467
0.0176586
-0.00845707
0.0179711
-0.0122381
-0.00477084
0.0023615
-0.00051096
-0.00555124
0.00484874
-0.00582142
-0.00170746
-0.00210829
-0.00217611
-0.00379089
0.0131645
-0.000990125
-0.00316293
-0.0014023
-0.00338269
0.0163775
-0.0200692
-0.0115598
0.0154732
0.00688019
-0.0115984
0.0175917
0.00910663
-0.0132576
0.0201995
0.00892607
-0.0141901
0.0229448
0.0089079
0.0301537
0.0119829
0.00987135
0.0134688
0.0124837
0.00947007
0.0132627
0.0099041
0.0078408
0.0119149
0.00974313
0.00607049
0.0108032
0.0084048
0.0100047
0.00699273
-0.00219485
0.0034195
-0.00260488
0.0041589
-0.00326761
0.00475485
-0.00390132
0.00539684
0.00650579
0.00166306
0.00290046
0.00142132
0.00051112
0.000410118
0.00139273
-0.000142257
0.00198384
-0.00155008
-2.65979e-05
-0.000929181
0.00194378
0.000965799
-0.000332701
0.000793458
-0.000436741
0.00182531
-0.00111436
0.00121335
-0.000538845
0.000311246
-6.7498e-06
0.00202188
-0.0017404
2.64734e-05
0.0037941
-0.000563283
-0.00358901
0.0111384
-0.00637981
0.00356646
-0.0180063
0.00336442
0.017041
0.00387654
-0.0181197
0.0204133
0.00714221
0.00292882
0.00676718
-0.0170646
0.0208307
0.000283802
0.00596591
0.0197795
-0.0148422
-0.0136326
0.0141792
0.00504054
0.0109734
-0.00738595
0.0172069
-0.00765396
0.0172638
0.0109161
-0.000399545
0.0199675
0.00717638
0.00334342
-0.00114838
0.00152922
-0.00351261
0.000376931
-0.00229174
0.0125901
0.00135509
-0.00233617
0.000799668
0.000617968
-0.000777358
0.00151264
-0.000568071
0.00156127
-0.000391553
-0.00124535
0.00106756
-0.0020698
0.000899406
-0.000211259
-0.000226529
-0.0016335
-0.000457116
-0.00209231
0.000247234
-0.00185472
0.00139941
-0.00138011
0.000392563
0.000112302
-0.00188623
0.000170371
-0.00141272
-0.00066201
-0.00126187
-0.00240629
0.00114896
0.00124404
0.000231385
0.000478682
-0.00129371
0.00044818
-0.00168428
-0.000480244
0.000534956
0.000391952
0.00010885
7.07598e-05
-0.000661205
0.00104476
0.000306389
0.000315822
-0.0008884
-0.00161305
0.00281387
-0.000775727
0.000276627
0.000178241
-0.000885615
-0.00113137
0.00380245
0.00137887
-0.000358834
-0.00302185
0.0122654
-0.0026426
-0.00129215
-0.00174764
1.38706e-05
-0.000829798
0.000262552
-0.000727835
0.000328609
-3.93852e-05
-0.00112139
-4.32828e-05
0.00188112
-0.00030668
-0.00162104
-0.00132078
0.00321145
-0.00089369
-0.000167682
-0.0012423
0.00111881
0.00204122
0.000342288
0.000323658
0.000920416
-0.00012784
0.00191366
-0.00142339
-0.000169972
-0.0013693
0.00319078
8.78203e-05
-0.000654301
0.00020224
0.00285821
-0.00405209
0.0132959
-0.00114121
-0.0180441
0.000759716
0.00704977
0.0245294
-0.0164883
0.0218862
0.00640959
-0.0177716
0.0225717
-0.00209254
-0.0148818
-0.00438862
-0.0206851
-0.0218573
-0.00631309
-0.0218898
-0.0057329
0.0151521
-0.00262657
0.019786
0.0317783
0.0374427
-0.0235806
-0.10107
0.0665415
-0.0967442
0.0700377
-0.107814
0.0712599
-0.0170991
-0.110057
0.0686903
-0.0248505
-0.106606
0.0674593
-0.0296499
-0.098139
0.0663151
-0.0331826
-0.0860637
0.0636693
-0.0357937
-0.0686748
0.0577435
-0.0379419
-0.0489407
0.0533841
-0.037679
-0.0388591
0.0427436
-0.0317751
0.00389341
-0.0299046
0.0162976
0.0324332
-0.0455049
0.0142118
0.0445236
-0.0431053
-0.00719741
0.0475528
-0.0265549
-0.0342891
0.026653
-0.0510297
-0.0128834
0.0291569
-0.0596821
-0.0245291
0.0326787
-0.0619988
-0.0310853
0.0328758
-0.055605
-0.038326
0.031406
-0.0475841
-0.0354188
0.026895
-0.030194
-0.0336815
0.0158243
0.0033527
-0.0339854
0.0202445
0.0444483
-0.0619769
0.0428193
0.0555322
-0.0788731
0.0680585
0.0548507
-0.0809098
0.0881554
0.0523561
-0.0732776
0.0994239
0.0477224
-0.0598476
0.100489
0.0399567
-0.041844
0.0952523
0.0339991
-0.0295729
0.0835691
0.0306135
-0.0196505
0.0471422
0.0376699
-0.00181654
0.0226791
0.0229461
0.00132062
0.0194693
0.00390659
-0.000801604
0.0180867
0.000487584
0.000792299
0.0149569
0.000141333
0.00287811
0.00868701
1.97679e-05
0.00615116
0.00913151
-0.000532121
0.00723295
0.0033975
-0.00156956
0.00462676
0.00387815
-0.00131908
0.00481814
0.00166512
-0.0019193
0.00577626
0.00185828
-0.00289525
0.0054869
0.00304247
-0.00283092
0.00436251
0.00332495
-0.00227012
0.00339401
0.00270107
-0.00178719
0.00553377
0.00167459
-0.00389137
0.0119571
0.00182972
-0.00847156
-0.0145888
0.0309403
-0.00501237
-0.0442567
0.0253008
0.00360807
-0.0586809
0.011077
0.00251324
-0.0654597
-0.00160703
0.00751295
-0.0707267
-0.0163854
0.020748
-0.0757575
-0.0313508
0.0354594
-0.0768543
-0.045958
0.0461177
-0.0738369
-0.0592657
0.0553033
-0.0634047
-0.0713688
0.0599846
-0.0453253
-0.0812077
0.0621711
-0.017394
-0.0878747
0.0589801
0.0169356
-0.0840901
0.0487998
0.0324561
-0.0587829
0.0423011
0.0314939
-0.0451915
0.0452313
0.0238778
-0.0355944
0.0423071
0.00994924
-0.0265037
0.0396051
-0.000532127
-0.0233898
0.0330693
-0.0348902
0.0336089
-0.0504657
-0.0195568
0.0343344
-0.057663
-0.0343255
0.0407121
-0.0580735
-0.0491599
0.0486958
-0.0495472
-0.0642003
0.0547988
-0.0255823
-0.0817882
0.0569246
0.00460392
-0.0832046
0.0521424
0.00988806
-0.0471478
0.0409983
-0.00779054
-0.0264567
0.0433254
-0.0210344
-0.0284536
0.0409117
-0.00469869
-0.0605519
0.043478
-0.0524051
0.043183
-0.0151165
-0.0691336
0.00170811
0.0185131
-0.0549454
-0.0401209
0.0286134
-0.0394833
5.41231e-05
0.0321886
-0.0477619
0.0168359
0.0305711
-0.0775632
0.0311088
0.0412826
-0.126555
0.0316998
0.0547195
-0.123503
0.0273325
0.0573846
-0.096307
0.0285104
0.0524243
-0.072819
0.0277137
0.041827
-0.0518445
0.0272564
-0.030232
0.0282897
-0.0369987
-0.0477142
0.0271062
-0.0390379
-0.0574553
0.0229708
-0.0335123
-0.0685893
0.016902
-0.00528188
-0.0847187
-0.00329266
0.0353531
-0.119803
-0.00592789
0.0614088
-0.125505
0.0105685
0.0767207
-0.118816
0.0212949
0.0841531
-0.104683
0.0248854
0.0835578
-0.086644
0.0269837
0.0794624
-0.0664691
0.0236241
0.0716525
-0.0453205
0.0208079
0.0639433
-0.0240648
0.0144304
0.0558412
-0.00268603
0.00823969
0.0422763
0.0154702
0.00824513
0.0176129
0.0354317
0.0136163
-0.00931445
-0.0003999
0.0474039
0.00987786
0.00824297
-0.00347104
-0.00877349
-0.00546676
0.0148161
-0.00305277
-0.00405681
0.0104926
-0.00262169
0.00831671
-0.00149967
0.0135847
-0.00104373
-0.00331404
0.00116432
-0.00671392
0.0271686
0.00204319
-0.00901378
-0.00776088
-0.00148833
0.00144192
-0.00800105
-0.00378629
0.00132962
-0.00670254
-0.00493018
0.000496553
-0.00494945
-0.00557916
0.000273609
0.00221574
-0.00396907
-0.000549294
0.0049261
-0.00105906
-0.00206989
-0.000316175
-0.000435373
-0.00132228
-0.000740409
-0.000636867
-0.000568702
-0.000578714
0.000404442
-0.00109738
-0.00339136
0.0130487
-0.00542098
-0.0118378
0.00299985
0.0221141
-0.00782376
-0.00988474
0.0593326
-0.0308372
-0.0292475
0.0168714
0.0538223
-0.021569
0.0297796
0.0311809
-0.0137026
0.0379358
-0.00890248
-0.003373