/*--------------------------------*- C++ -*----------------------------------*\
| =========                 |                                                 |
| \\      /  F ield         | OpenFOAM: The Open Source CFD Toolbox           |
|  \\    /   O peration     | Version:  v2012                                 |
|   \\  /    A nd           | Website:  www.openfoam.com                      |
|    \\/     M anipulation  |                                                 |
\*---------------------------------------------------------------------------*/
FoamFile
{
    version     2.0;
    format      ascii;
    class       volScalarField;
    location    "285";
    object      alphat;
}
// * * * * * * * * * * * * * * * * * * * * * * * * * * * * * * * * * * * * * //

dimensions      [1 -1 -1 0 0 0 0];


internalField   nonuniform List<scalar> 
18258
(
0.00484668
0.00211054
0.00173048
0.00149961
0.000992147
0.00162371
0.00225489
0.00268422
0.00281608
0.0027919
0.00289059
0.00487764
0.00684496
0.00845931
0.00888667
0.00887387
0.00805565
0.00769266
0.00836017
0.010276
0.00863758
0.00553451
0.00662553
0.00766543
0.00835382
0.0074033
0.00598638
0.0055424
0.005019
0.0041852
0.00351261
0.00240822
0.0017534
0.00162455
0.00147359
0.00168032
0.00183057
0.00195271
0.00199604
0.00202745
0.00201372
0.00200236
0.00194831
0.00191404
0.00185564
0.00153193
0.00183767
0.0019203
0.00209992
0.0028919
0.00310235
0.00260752
0.00288461
0.00257303
0.00169559
0.00194154
0.00210768
0.00215308
0.00212534
0.00203704
0.00200721
0.00198193
0.00194991
0.00191191
0.00188869
0.00190747
0.00192708
0.00190595
0.00181206
0.00173605
0.00161306
0.00148981
0.00139842
0.00132763
0.00127427
0.00121516
0.00114874
0.00100903
0.000935146
0.00123818
0.00155434
0.00166069
0.00235369
0.0028696
0.00288909
0.00216264
0.00154112
0.00159936
0.00177826
0.00179649
0.00152275
0.00181102
0.00205172
0.00212661
0.00221612
0.00247675
0.00281844
0.00274708
0.00244653
0.0022542
0.00221535
0.00253806
0.00241152
0.00312733
0.00315112
0.00274856
0.00252992
0.00284692
0.00367102
0.0039506
0.00307305
0.00288609
0.00282916
0.00279342
0.00252616
0.00261401
0.00237352
0.00213859
0.00232957
0.00281593
0.00267126
0.00291816
0.00302357
0.00283627
0.00328611
0.00378887
0.00373358
0.00298771
0.0024353
0.00227007
0.00228735
0.00139895
0.0015107
0.00162823
0.0016681
0.00169591
0.00171962
0.00183364
0.00182951
0.0018027
0.00179871
0.00183055
0.00100876
0.00109288
0.00112001
0.00112785
0.00107127
0.00106027
0.00104055
0.00102449
0.000965841
0.000924134
0.00110582
0.00124175
0.00135259
0.00148219
0.00167572
0.00191258
0.00216152
0.0024131
0.0025796
0.00262715
0.00267523
0.00257825
0.00248076
0.00256936
0.00258441
0.00256788
0.00253344
0.00248999
0.00243129
0.00232352
0.00244845
0.00244156
0.00229365
0.00196567
0.00200962
0.00200624
0.00205855
0.00204814
0.00206893
0.00203963
0.00200501
0.00190823
0.00177272
0.0014752
0.00144703
0.00146434
0.0018791
0.00228039
0.00352145
0.00429317
0.00498044
0.00532606
0.00569662
0.00461374
0.00513711
0.0039631
0.00355709
0.00451954
0.00591071
0.00337308
0.00184403
0.00349713
0.0031046
0.00225481
0.0020071
0.00206865
0.00206607
0.00236402
0.002727
0.00302984
0.00317625
0.00330454
0.00340722
0.00352005
0.00366324
0.00370268
0.0035769
0.00302736
0.00364913
0.0029657
0.00346685
0.00313765
0.00212496
0.00219051
0.00234059
0.00214904
0.00209289
0.00200057
0.00180697
0.00224805
0.00290746
0.00337276
0.00385569
0.00514082
0.00475591
0.00456221
0.00353226
0.00341587
0.0017732
0.00252947
0.00262189
0.00295417
0.0019628
0.00179236
0.00170182
0.00224424
0.0026004
0.00306808
0.00340317
0.00404119
0.00313563
0.00358482
0.0032469
0.00226634
0.00217704
0.0031148
0.00335339
0.0027559
0.00246153
0.00309003
0.00292583
0.00207649
0.00165073
0.00253873
0.00262598
0.00189003
0.00472403
0.00503105
0.00477799
0.00581593
0.00728565
0.00831291
0.00775693
0.00687982
0.00766207
0.0060745
0.00589832
0.00630658
0.00529622
0.00370473
0.00379728
0.00392657
0.00403353
0.00433135
0.00460178
0.00493149
0.00524529
0.00476745
0.00395831
0.00299502
0.00206026
0.00203275
0.00202275
0.00181633
0.00269173
0.00407157
0.00404359
0.0022974
0.00133941
0.00151534
0.00171128
0.00169461
0.00122936
0.000925383
0.00159412
0.00182273
0.00185215
0.00180614
0.00170527
0.0017819
0.00286153
0.00440834
0.00484386
0.00501689
0.00518056
0.00529611
0.00536029
0.00538046
0.00539156
0.00540525
0.00541731
0.00543584
0.00541898
0.00530362
0.00466505
0.00293319
0.00171457
0.00159267
0.00175774
0.00188907
0.00200373
0.00170493
0.00104248
0.00166504
0.00213203
0.00245058
0.0024715
0.0023066
0.00223756
0.00352823
0.00469118
0.00552975
0.00569965
0.00577533
0.00571201
0.00570387
0.00557954
0.00554109
0.00485951
0.00347659
0.00380122
0.00408167
0.00412875
0.00422444
0.00436811
0.00426734
0.00403183
0.00588929
0.00679642
0.00688353
0.00702934
0.00694544
0.00682505
0.00651479
0.00616037
0.00518587
0.00388884
0.00245369
0.00250471
0.00266615
0.00264034
0.00229808
0.00242155
0.00262844
0.00265482
0.00274172
0.00307506
0.00349283
0.0033316
0.00286672
0.00243502
0.00226725
0.00221969
0.00212961
0.00159517
0.00161906
0.00157383
0.00159978
0.00214876
0.00255736
0.00294951
0.00418405
0.00373219
0.00303501
0.00481483
0.00493417
0.00530234
0.00585748
0.0060023
0.00665134
0.00462691
0.00416912
0.00428282
0.00349839
0.003238
0.00327242
0.00328471
0.00306098
0.00335052
0.00332121
0.00320127
0.00353441
0.00389511
0.00513646
0.00622448
0.00656793
0.00676666
0.00684855
0.00682396
0.00669218
0.00673493
0.00591685
0.00591247
0.00566194
0.00549889
0.00544076
0.00517077
0.00591665
0.00614277
0.00621834
0.00637369
0.00661559
0.00643543
0.00623538
0.00608304
0.00597253
0.00585686
0.00591869
0.00602903
0.00614665
0.00631165
0.00653188
0.00656767
0.00633961
0.00616709
0.00604893
0.00593784
0.00594213
0.00604116
0.0061565
0.00631995
0.0065285
0.00641232
0.00625025
0.00610576
0.00598716
0.00588264
0.00567669
0.00581389
0.00596472
0.00608896
0.0061694
0.00533016
0.00569753
0.00559944
0.00506945
0.00474457
0.00360302
0.00389928
0.00411199
0.00447869
0.00497139
0.0050682
0.00425286
0.0036445
0.0035512
0.00352249
0.0036053
0.00363522
0.00365303
0.00412789
0.00622314
0.00626559
0.00628386
0.00628707
0.00537503
0.00522202
0.00486412
0.00890004
0.00828635
0.00717895
0.00591573
0.00316831
0.0027157
0.00321698
0.00391227
0.00437414
0.00482693
0.0032046
0.00198498
0.00231346
0.00239834
0.00233917
0.00216173
0.00180048
0.00166203
0.00150847
0.00162353
0.0028757
0.00458909
0.00516902
0.00522377
0.00517183
0.005071
0.00494826
0.0047773
0.00471781
0.00595555
0.00807004
0.00909309
0.00905448
0.00777898
0.00634582
0.0035825
0.00185093
0.00137084
0.00145964
0.00160476
0.00188253
0.00167439
0.0014255
0.00156053
0.00147344
0.00298062
0.00513629
0.00652953
0.0077528
0.00763352
0.00664032
0.0054181
0.00512909
0.00524932
0.00533063
0.00539977
0.00547066
0.00551934
0.00548879
0.00499612
0.00308672
0.0018424
0.00163671
0.00175974
0.00206248
0.00219199
0.00221478
0.00218425
0.00189356
0.00313177
0.00497269
0.00316257
0.00172554
0.00186434
0.00185055
0.00326465
0.00325974
0.00318942
0.00496189
0.00524678
0.00523459
0.00491855
0.00469504
0.00277988
0.00315576
0.00316661
0.00318338
0.00323566
0.00163461
0.00178196
0.00183771
0.00197889
0.00172955
0.00219524
0.000568114
0.00078787
0.000915284
0.000995241
0.00107228
0.00105184
0.00201255
0.00204252
0.00194929
0.00189865
0.00240892
0.00258455
0.00264135
0.00243246
0.00224435
0.00238932
0.00239475
0.00225714
0.00213784
0.00221633
0.00221772
0.0021251
0.0018075
0.00169373
0.00185949
0.00183961
0.00182508
0.00327726
0.00327132
0.00309594
0.00508607
0.00500469
0.00560496
0.0055681
0.00556075
0.00553763
0.00559688
0.00562854
0.00565275
0.00568071
0.00566979
0.00561524
0.00781918
0.00552313
0.00481968
0.00278758
0.00268527
0.00189645
0.00166202
0.00195703
0.00209311
0.00226924
0.00221796
0.0023381
0.00233528
0.00247796
0.00229998
0.00204222
0.00312784
0.00334146
0.0032635
0.00332803
0.00324969
0.00323055
0.00320684
0.0031614
0.00310658
0.00184976
0.00181451
0.00212478
0.00223042
0.00239662
0.00241829
0.00247079
0.00234327
0.00206083
0.00199482
0.00229742
0.00226641
0.00231052
0.0021784
0.00216934
0.00193255
0.00198152
0.0039966
0.00738099
0.00379713
0.00421807
0.00382125
0.00434636
0.00380688
0.00328297
0.00336005
0.00295937
0.00308698
0.00323814
0.00329671
0.00346491
0.00408422
0.00393202
0.0034515
0.00335129
0.00328531
0.00309766
0.00278825
0.00292079
0.00294701
0.00301025
0.00334551
0.00383855
0.00430287
0.00523012
0.0050754
0.00444552
0.00406469
0.00426333
0.00433665
0.00546016
0.00510142
0.00507077
0.00534863
0.00529517
0.00502575
0.00476198
0.0045965
0.00394576
0.00401044
0.00459004
0.00444175
0.00457784
0.00449793
0.00467641
0.0047616
0.0045701
0.00424698
0.00446517
0.00445589
0.00494841
0.00481214
0.00446402
0.00408333
0.00436543
0.00431283
0.00498213
0.00468916
0.00438533
0.00403715
0.00386736
0.00438946
0.00430873
0.00488586
0.00502796
0.0050304
0.00438534
0.00428273
0.00509378
0.0049003
0.00473428
0.00493163
0.00408403
0.0041995
0.00517405
0.00528231
0.00501217
0.00418455
0.00424744
0.0036409
0.00428308
0.0053317
0.00503623
0.00412776
0.00342506
0.00479206
0.00504081
0.0053333
0.00504001
0.00548864
0.0059123
0.00481879
0.00524238
0.00685088
0.00522771
0.00606658
0.00620111
0.00623776
0.00624115
0.00626551
0.00629709
0.00663465
0.00645488
0.00410371
0.00490716
0.00476661
0.00398764
0.00339188
0.00373618
0.00402418
0.00408254
0.00418617
0.00434546
0.00427074
0.00413022
0.00604485
0.00689241
0.00704657
0.00718591
0.00706565
0.00688584
0.00647917
0.00598564
0.00497486
0.00371225
0.00231888
0.00236529
0.0025223
0.00250014
0.00217071
0.00163737
0.00107529
0.00159285
0.00164401
0.00154689
0.00140923
0.00124363
0.00128536
0.00234628
0.00444448
0.00625843
0.00696455
0.00754875
0.00812736
0.00863225
0.0090128
0.00929642
0.00949727
0.00962679
0.00965591
0.00947919
0.00866288
0.00828536
0.00781401
0.00742536
0.00687768
0.00643234
0.0072739
0.00798388
0.00841736
0.00890544
0.00912847
0.0090299
0.00783793
0.00761795
0.00878286
0.0108157
0.00920465
0.0115607
0.0135774
0.0105741
0.00949535
0.00947798
0.0105942
0.0107988
0.010423
0.00983528
0.00916056
0.00830272
0.00874176
0.00913607
0.00951204
0.00985897
0.0107533
0.0109082
0.0108219
0.0106382
0.0104052
0.0101024
0.00964532
0.00900787
0.00820904
0.00737557
0.0064279
0.00448845
0.00218327
0.00247012
0.00242657
0.00256893
0.00252879
0.00118369
0.00130431
0.00131777
0.00132306
0.00124606
0.00141532
0.00204997
0.00329569
0.0023724
0.00195071
0.0013603
0.00160097
0.00266886
0.00452313
0.00509132
0.00519415
0.00575779
0.00737064
0.00801131
0.00844578
0.00880926
0.00901516
0.00890818
0.00863968
0.00816029
0.00756975
0.00732158
0.00691841
0.00654515
0.00633365
0.00611673
0.00574046
0.00452646
0.00432338
0.00450148
0.00444802
0.00425801
0.00454779
0.00471074
0.00470568
0.00475703
0.00480191
0.00494284
0.00510881
0.00525315
0.00532855
0.00535611
0.00536442
0.00537495
0.0053833
0.00539952
0.00538112
0.00526329
0.00462171
0.00289061
0.00168768
0.00156053
0.00171104
0.00180945
0.00185159
0.00164431
0.00105845
0.00164504
0.00212912
0.00218358
0.00239525
0.00247047
0.00261781
0.00291563
0.00336933
0.00347677
0.00308543
0.00292306
0.00286118
0.00278836
0.00238835
0.00297555
0.00327937
0.00327271
0.00324118
0.00350259
0.00431027
0.00414057
0.00365151
0.0036113
0.00357521
0.00323514
0.00318505
0.00347835
0.00351648
0.00364761
0.00427705
0.00512919
0.0047584
0.0043339
0.00415467
0.00383682
0.00337718
0.00305372
0.003756
0.00307995
0.00162327
0.00138135
0.00137823
0.00138434
0.00133598
0.00158029
0.00165929
0.00167759
0.00155721
0.00172975
0.00192628
0.0018646
0.00212066
0.00209026
0.00186777
0.00185204
0.00200384
0.00211582
0.00217329
0.00223526
0.00364586
0.00375904
0.0029112
0.00420178
0.00485533
0.00482786
0.00511385
0.00420846
0.0037645
0.00446611
0.00516853
0.00594093
0.00469615
0.0044342
0.00454379
0.00208958
0.00109937
0.00155117
0.00192514
0.00214289
0.00207723
0.00196198
0.00165843
0.00293855
0.00301942
0.00478076
0.0053628
0.00542749
0.00539582
0.00558603
0.00619153
0.0072412
0.00791829
0.00811495
0.00799325
0.00766302
0.00705176
0.00644907
0.00638683
0.00615479
0.00597473
0.00591421
0.00514536
0.00453374
0.00483945
0.00476326
0.00492209
0.00499535
0.00504802
0.00510176
0.00519236
0.00530171
0.00540066
0.00546774
0.00551207
0.00554949
0.00558811
0.00562716
0.00566956
0.00569203
0.00563742
0.00509468
0.00305778
0.00182392
0.00166432
0.00177584
0.00208704
0.00219728
0.00236158
0.0020975
0.00110497
0.00129886
0.00225762
0.00250201
0.00231455
0.0021663
0.00212791
0.0017826
0.0032267
0.00318391
0.00499309
0.00561494
0.00569325
0.00567756
0.00563378
0.00558468
0.00553948
0.00550263
0.00547369
0.00544273
0.00539761
0.0053425
0.00528984
0.00523645
0.0051453
0.00501227
0.00487868
0.00508748
0.00522933
0.00543631
0.00568793
0.00582952
0.0057307
0.00556205
0.00547043
0.00549012
0.00553481
0.00558269
0.00562592
0.00564647
0.00558498
0.00526505
0.00494276
0.00313323
0.00317388
0.00156394
0.00173756
0.00200485
0.00207048
0.0022493
0.0022397
0.00176189
0.00137226
0.00154741
0.00144573
0.00258168
0.00283835
0.0031466
0.00311525
0.00169361
0.00173665
0.00180484
0.00203697
0.00189405
0.0018297
0.0044962
0.00431222
0.0045166
0.00554303
0.00477618
0.00330092
0.00361982
0.00503561
0.00530899
0.00321198
0.00240827
0.00267268
0.00338571
0.00498249
0.00504348
0.00478976
0.00476416
0.00348243
0.00427944
0.0051442
0.00500356
0.00390727
0.00269276
0.00200344
0.000975568
0.00185598
0.00158751
0.00388346
0.00429656
0.00424477
0.00464192
0.0049322
0.00498306
0.00484164
0.00429611
0.0043808
0.00442373
0.0050387
0.00506057
0.00428681
0.00361854
0.00294126
0.00296691
0.0030238
0.00335061
0.00419547
0.00395297
0.00346495
0.00336044
0.0032885
0.00309395
0.00279233
0.00245003
0.00246675
0.00229591
0.00222191
0.00350235
0.00466191
0.00549743
0.00565577
0.00571338
0.00562614
0.0055868
0.00542751
0.00534527
0.00464396
0.00592788
0.00626536
0.00604568
0.00609008
0.00612772
0.00617393
0.00617422
0.00605767
0.00520619
0.0031095
0.00203131
0.00229284
0.0024749
0.00232421
0.00231096
0.00246284
0.00233679
0.00205255
0.00332535
0.00325002
0.00519586
0.00588332
0.00600966
0.00601736
0.00599325
0.0059732
0.00598078
0.00629556
0.00615216
0.00623705
0.0065734
0.00658522
0.00666384
0.0062559
0.00617578
0.00612451
0.00609017
0.00603453
0.00588624
0.00520886
0.00504981
0.00573472
0.00591162
0.00599036
0.00604522
0.00611083
0.00619694
0.00644373
0.00662749
0.0066956
0.00641787
0.00631646
0.00616935
0.00596034
0.00591139
0.00590166
0.00589746
0.00586907
0.00571692
0.00503306
0.00323661
0.00331659
0.00197313
0.00198612
0.00228766
0.00240298
0.00236029
0.00218582
0.00213123
0.00365816
0.00416421
0.00443112
0.00477155
0.0045569
0.00453053
0.00517966
0.00501287
0.00447347
0.004653
0.00417012
0.00397556
0.00384119
0.00386101
0.00203743
0.00219843
0.00229293
0.00225471
0.00215599
0.00192288
0.00176331
0.00321762
0.00319408
0.0031521
0.00187504
0.00183404
0.0021608
0.00209859
0.00191988
0.00163651
0.00179391
0.00276858
0.00309648
0.00480041
0.00497232
0.00532326
0.00569234
0.00583185
0.00586916
0.00589118
0.00591682
0.00597228
0.00603889
0.00605856
0.00605886
0.00611826
0.00610928
0.00610947
0.00607578
0.00603745
0.00599312
0.00594604
0.00586945
0.00571263
0.0053379
0.00497069
0.00560431
0.00565621
0.00576219
0.00587205
0.00591968
0.00592849
0.00590888
0.00586807
0.00581955
0.00576248
0.00576016
0.0059131
0.00594876
0.00597468
0.00595493
0.00593447
0.00592838
0.00590414
0.00586357
0.00575606
0.00564762
0.0056008
0.00550705
0.00565454
0.00572005
0.00573008
0.00578523
0.00587322
0.00589604
0.00589255
0.0058482
0.00581235
0.00576809
0.00569495
0.00559966
0.00527785
0.00534715
0.00543553
0.00555104
0.00566277
0.00575291
0.00580303
0.00580508
0.00575059
0.00571391
0.0057147
0.00566615
0.00569162
0.00571814
0.00569017
0.00568829
0.00569449
0.00563207
0.00551649
0.00535494
0.00518367
0.00504149
0.00496791
0.00484731
0.00522368
0.00536779
0.00549561
0.00560895
0.00571283
0.00581913
0.00585518
0.00584721
0.00578259
0.00574582
0.00574404
0.00568842
0.00568629
0.00574011
0.00574254
0.00577336
0.00583008
0.00581025
0.00572956
0.00553062
0.00533869
0.00517298
0.0050154
0.00484563
0.00479943
0.00487768
0.00481387
0.00488343
0.00505406
0.00526656
0.00544922
0.00556429
0.00559921
0.00563206
0.00568174
0.00567505
0.00564501
0.00562983
0.00556254
0.0055044
0.0054325
0.00527237
0.00506626
0.00488311
0.00482303
0.00492025
0.00501949
0.00492835
0.00457844
0.00475877
0.00492542
0.00509196
0.00533039
0.00560739
0.00573278
0.00577758
0.00575114
0.00573026
0.0057274
0.00567645
0.00565938
0.00570618
0.0057095
0.00573037
0.00576527
0.00572396
0.00561873
0.0052772
0.00487827
0.00468813
0.00457769
0.00442006
0.0049523
0.00505592
0.00492929
0.00484458
0.00497587
0.00512991
0.00529007
0.00539596
0.00543671
0.00549395
0.0055696
0.00560499
0.00555035
0.00548803
0.00541044
0.0053706
0.00536976
0.00534102
0.00523665
0.00511638
0.00497991
0.00514908
0.0052499
0.00515512
0.00466006
0.00473654
0.00484177
0.00489674
0.00526895
0.00560743
0.00569472
0.00570633
0.00567454
0.00565411
0.0056561
0.00562689
0.00557243
0.0055615
0.00555392
0.00561501
0.0056941
0.00572866
0.00574302
0.00548798
0.00504841
0.00499093
0.00479334
0.00469737
0.00522425
0.00528523
0.00516168
0.00504795
0.00528742
0.0053903
0.00542092
0.00540149
0.00534602
0.00530841
0.00537528
0.00548063
0.00539947
0.0050509
0.00474005
0.00489996
0.00493812
0.00492415
0.00485632
0.00474512
0.00450649
0.00503285
0.00554861
0.00559082
0.00503436
0.00504222
0.00487493
0.00452061
0.00494595
0.00518371
0.00524073
0.00523004
0.00515779
0.00496708
0.00525039
0.00549829
0.00545224
0.00493392
0.00320171
0.00324664
0.00327145
0.00327593
0.00323319
0.00322165
0.00317513
0.00315148
0.00307905
0.0030059
0.00293516
0.00313086
0.0032977
0.00352236
0.00354097
0.00363389
0.00348175
0.00329892
0.0030832
0.00239874
0.00304419
0.00363239
0.00385839
0.0041493
0.00420971
0.00485213
0.00510447
0.00524306
0.0051452
0.00412727
0.00350154
0.00279837
0.00181986
0.00113395
0.00133143
0.00138525
0.00146158
0.00179443
0.00329175
0.0016835
0.0023315
0.00182091
0.00313305
0.00166339
0.00103705
0.000685715
0.000872543
0.00103427
0.00104376
0.00100173
0.000834945
0.00065708
0.000671548
0.000627697
0.000666987
0.000601687
0.00068924
0.000642541
0.00088381
0.00128961
0.0015023
0.00154017
0.00124702
0.00141061
0.00117882
0.00136219
0.00121779
0.00132844
0.00127496
0.00155965
0.00170949
0.00163625
0.00164023
0.00143538
0.00100394
0.00116387
0.000914551
0.00109843
0.000840616
0.00108515
0.000930762
0.00120953
0.00124679
0.0012431
0.00119676
0.000914142
0.00108309
0.000852982
0.00104747
0.000861639
0.000917749
0.000763576
0.00110835
0.00112893
0.00104087
0.00110672
0.00124092
0.00132805
0.00145925
0.00138196
0.0015761
0.00152442
0.00154706
0.00146621
0.00142716
0.00139497
0.00139828
0.00137539
0.00138278
0.00142704
0.00142867
0.00143381
0.00147826
0.00145645
0.00142027
0.00139804
0.00124212
0.00100294
0.00174734
0.00180179
0.00182955
0.00182982
0.00178967
0.00176811
0.00170333
0.0016866
0.00163127
0.00160075
0.00152776
0.0014701
0.0014028
0.00157742
0.000883568
0.00100354
0.00105954
0.00109193
0.00111365
0.00112408
0.00113172
0.00112528
0.00111098
0.00108431
0.00107605
0.00104665
0.00133857
0.00152287
0.00159339
0.001613
0.001512
0.00144046
0.0031622
0.00383022
0.00580762
0.00593622
0.00446386
0.00444671
0.00153398
0.00162355
0.00110935
0.00155907
0.00160793
0.00159157
0.00150319
0.00108392
0.00162645
0.00113402
0.00152228
0.00114325
0.00140053
0.0011633
0.00165548
0.00211259
0.00204027
0.00184859
0.00126508
0.0010513
0.00105133
0.00089779
0.00098516
0.000811817
0.000996594
0.000840431
0.00123199
0.00172772
0.00194448
0.00198623
0.00156778
0.00216507
0.0016284
0.00236075
0.00187836
0.00232067
0.00186484
0.00215685
0.00266941
0.00268199
0.00261844
0.00211029
0.00168894
0.00189654
0.00167924
0.00193532
0.00279924
0.00183413
0.00279034
0.0011522
0.00157115
0.00162006
0.00159836
0.00150746
0.00101564
0.00258392
0.00136724
0.00242556
0.00156847
0.00250524
0.0018237
0.00241893
0.0028897
0.00302227
0.00300998
0.00245752
0.00221641
0.00229286
0.00182782
0.00219459
0.00163539
0.00237493
0.00135287
0.00175622
0.00193349
0.00203991
0.00204586
0.00167795
0.00331994
0.00208652
0.0031504
0.00219352
0.00281222
0.00225488
0.00246471
0.00291185
0.00289343
0.0028686
0.00243231
0.00196949
0.00260039
0.00185301
0.0556066
0.128183
0.0511357
0.129603
0.0585679
0.0831898
0.0819614
0.0821257
0.0824517
0.061931
0.135228
0.159684
0.166474
0.168478
0.167216
0.270196
0.220337
0.330965
0.214504
0.126367
0.0548729
0.0755862
0.194859
0.321606
0.482678
0.612547
0.417442
0.43216
0.275778
0.27195
0.25612
0.207313
0.127308
0.0638611
0.0109215
0.011929
0.0171034
0.0227927
0.0178509
0.0108801
0.00215367
0.00222179
0.00227106
0.00230123
0.00229178
0.00224089
0.00227352
0.00214356
0.00201101
0.00224437
0.00244715
0.0027046
0.00316221
0.0034871
0.00313948
0.00343952
0.00364516
0.00381314
0.00395242
0.00415952
0.00439251
0.00459657
0.00460733
0.00422106
0.00359641
0.00292571
0.00246028
0.00233149
0.0021898
0.00193128
0.00176713
0.00165565
0.00160124
0.00157859
0.00162204
0.0017723
0.00190223
0.00194765
0.00190884
0.00187377
0.00184315
0.00164114
0.0019186
0.00263176
0.00265334
0.00454568
0.00523795
0.0053467
0.00535396
0.00474766
0.00303322
0.00303987
0.00305542
0.00311355
0.00312566
0.0031333
0.0031299
0.00311837
0.00310012
0.003066
0.00304915
0.0030001
0.0029589
0.00285668
0.00286135
0.00289975
0.00292923
0.00288212
0.00289496
0.00283242
0.00364759
0.00488925
0.0055392
0.00579004
0.00600735
0.0058319
0.00807
0.00688917
0.00485128
0.0047939
0.00473196
0.00561481
0.00565387
0.0050982
0.00511687
0.00466272
0.00290606
0.00288939
0.00289093
0.00308567
0.00314435
0.00325362
0.00328312
0.00331187
0.00332786
0.00332604
0.0033249
0.0032996
0.00327856
0.00320693
0.0031828
0.00317299
0.00174946
0.00190886
0.00197878
0.00199094
0.00201734
0.00200457
0.00199146
0.0019674
0.00195056
0.00191801
0.00187934
0.00182492
0.00171781
0.00156611
0.00172494
0.00293208
0.00293329
0.00479554
0.00540626
0.00544581
0.00607094
0.00576313
0.00545886
0.00586395
0.00528417
0.00524205
0.00473826
0.00293928
0.00297851
0.00176544
0.00174744
0.00204128
0.00198279
0.00211752
0.00217389
0.0021808
0.00221067
0.00224042
0.00227628
0.00233306
0.00235095
0.00231727
0.0023118
0.00217945
0.00188398
0.00190703
0.00224742
0.00235527
0.00218548
0.00214461
0.00212729
0.00207618
0.00203662
0.00199819
0.00202469
0.00218032
0.00217995
0.00214349
0.00204173
0.001991
0.00172898
0.00167339
0.00292052
0.00294473
0.0048344
0.00499612
0.00497141
0.00571494
0.00636112
0.00723874
0.00617307
0.00500981
0.00516599
0.00589684
0.00436668
0.00360971
0.00214543
0.0016477
0.0019902
0.00192821
0.00200586
0.00207811
0.00184472
0.00197859
0.00182823
0.00166087
0.00165146
0.00164911
0.00169025
0.00170727
0.0017382
0.00174224
0.00178344
0.00177944
0.00178533
0.00180729
0.00181888
0.00200981
0.00218644
0.00183908
0.00155887
0.00151706
0.00143238
0.00136314
0.00139627
0.00136355
0.0013554
0.00133065
0.0013083
0.0012484
0.00130133
0.00138099
0.00161582
0.00154836
0.00125136
0.0011179
0.000764392
0.000778531
0.000783925
0.000808159
0.000816889
0.000827657
0.000831604
0.000845106
0.000847679
0.000851885
0.000851517
0.000871756
0.000868731
0.000858801
0.000852304
0.000856755
0.000860929
0.000860377
0.00125964
0.00140285
0.00153391
0.00182249
0.00214663
0.0018469
0.00156446
0.00134762
0.000866347
0.000879576
0.000895711
0.00090402
0.000923348
0.000940944
0.00096068
0.000973218
0.000982743
0.000992746
0.00100323
0.00100772
0.00100548
0.000986462
0.000975195
0.00100032
0.0010994
0.00115693
0.00123052
0.00125837
0.00128272
0.00129516
0.00128855
0.00130168
0.00128596
0.00128363
0.00126111
0.00125132
0.00124183
0.00123004
0.00121566
0.00118064
0.00116888
0.00123
0.00208127
0.00272216
0.00313894
0.00345957
0.00318158
0.00256491
0.00271564
0.00476232
0.00449631
0.00266894
0.0024841
0.00228325
0.00198269
0.00176582
0.0021354
0.00243459
0.00266216
0.00286353
0.00304776
0.00317304
0.00333363
0.00354268
0.00391187
0.00395835
0.00361032
0.00292614
0.00247825
0.00231594
0.00223804
0.00210144
0.00195229
0.00200119
0.00201566
0.00195569
0.00188118
0.00185986
0.00189041
0.00192885
0.00190555
0.00190474
0.00170155
0.00170102
0.00290636
0.0029624
0.00455654
0.0048006
0.00484672
0.00311639
0.00307358
0.00179535
0.00166733
0.00181888
0.00188803
0.00189187
0.00189941
0.00188956
0.00185639
0.00183215
0.00180386
0.00178108
0.00176114
0.00172669
0.00166118
0.00153447
0.00167276
0.00187561
0.00195774
0.00197859
0.00198846
0.00201963
0.00207118
0.00211243
0.00220797
0.00221799
0.00221716
0.00222505
0.00208002
0.00214517
0.00181564
0.00181312
0.00314234
0.00313403
0.00180057
0.00212602
0.00214029
0.0021153
0.00227725
0.00208393
0.00201784
0.00200682
0.00192198
0.00187683
0.0018166
0.0017809
0.00181635
0.00193301
0.0018727
0.00165969
0.00160172
0.00179566
0.00172587
0.00143164
0.0012229
0.00118898
0.00113796
0.00110701
0.00116016
0.00120161
0.00122523
0.00125523
0.00126413
0.00131926
0.00128366
0.00134722
0.00142867
0.00149344
0.00177153
0.00191981
0.00173438
0.00170114
0.00168004
0.001678
0.00168326
0.00161405
0.00160949
0.00157371
0.00155609
0.00150928
0.00148823
0.0014615
0.0014665
0.00148227
0.00162977
0.0041999
0.00535184
0.00557244
0.00951141
0.00384544
0.00392791
0.00770153
0.00318501
0.00478928
0.00513333
0.00536648
0.00560518
0.00512944
0.00650835
0.00454654
0.00505941
0.00528561
0.00465705
0.00172541
0.00192978
0.0022453
0.00202116
0.00178598
0.00121784
0.00131412
0.00135767
0.0013929
0.00141605
0.00144139
0.0014687
0.00149417
0.00151213
0.00151249
0.00146669
0.00141723
0.00130358
0.00126571
0.00131475
0.00136544
0.00119957
0.00112954
0.00114297
0.00116189
0.00117257
0.00117491
0.00118658
0.00118977
0.00120813
0.00119845
0.00120778
0.00118721
0.00119787
0.00118204
0.0011416
0.00108498
0.000988638
0.000964974
0.00138982
0.00147996
0.00155486
0.00176432
0.00203727
0.00217392
0.0019486
0.001797
0.00172496
0.00191363
0.00191361
0.00347342
0.00666889
0.00298752
0.00334772
0.00974149
0.00387606
0.0030181
0.00306377
0.00309595
0.00310017
0.0018017
0.00213383
0.00206881
0.00207692
0.00176138
0.00147876
0.00132643
0.00118603
0.000804209
0.000801522
0.000807576
0.000819904
0.000823734
0.000788578
0.000788489
0.000784006
0.000782252
0.000765698
0.000761081
0.000747631
0.000739471
0.000720083
0.00070957
0.000691067
0.000687607
0.000714196
0.000791838
0.000956267
0.00106814
0.00121221
0.00123554
0.00139725
0.00348229
0.00403082
0.0055553
0.00550037
0.00867523
0.00541946
0.00409357
0.00370448
0.00542064
0.00560131
0.00521429
0.00706442
0.00488709
0.00323178
0.00479792
0.00397904
0.00480009
0.00468467
0.00495728
0.00785311
0.00826217
0.00233194
0.00207915
0.00218779
0.0024819
0.0029468
0.00271109
0.00308994
0.00308227
0.00237387
0.00152419
0.00485698
0.00586768
0.00468658
0.00560487
0.00867048
0.00349228
0.00340619
0.00301356
0.00251534
0.00228645
0.00225533
0.00251446
0.00300908
0.00753653
0.0080631
0.00738924
0.00735837
0.00669393
0.00740838
0.00922327
0.00918364
0.00810263
0.00757797
0.00783759
0.00483827
0.00304505
0.00354062
0.00391863
0.00522749
0.00538946
0.0113717
0.00386116
0.00426502
0.00433034
0.00579443
0.00561107
0.00991213
0.00420219
0.0045305
0.00596918
0.00796678
0.0146818
0.005363
0.00564946
0.00812269
0.00824373
0.00753814
0.00545265
0.00494418
0.00538616
0.00405795
0.00396741
0.00338995
0.00500647
0.00673418
0.00532306
0.00516902
0.00439878
0.00391245
0.00401036
0.00415889
0.00345509
0.00340848
0.003937
0.00292079
0.00281579
0.00299636
0.000828996
0.000424864
0.000434433
0.000445726
0.000454877
0.000464284
0.00047118
0.000479328
0.000483027
0.000483408
0.000484621
0.000512469
0.000507754
0.00049169
0.000446474
0.000509498
0.00080854
0.000809105
0.000508943
0.00044869
0.000805026
0.0012827
0.00151209
0.00178898
0.00181116
0.0015626
0.00135486
0.00083396
0.00082088
0.000497601
0.000581134
0.000631106
0.000559749
0.000624666
0.000578957
0.000613297
0.00061958
0.000573274
0.000570113
0.000572329
0.000567965
0.000557909
0.00054557
0.000530492
0.000518517
0.000511715
0.000506144
0.000494413
0.000412063
0.000383592
0.000459785
0.000731422
0.00073024
0.000685107
0.000647095
0.000614869
0.000600519
0.000596767
0.000593708
0.000604094
0.000623625
0.00062913
0.000634623
0.000683786
0.000662582
0.00070772
0.000664108
0.000709535
0.000666012
0.000612658
0.000514427
0.000530742
0.000856136
0.000865229
0.00139792
0.00159928
0.00181373
0.0018231
0.00203535
0.00214359
0.0018153
0.00188458
0.00215976
0.00201158
0.00179298
0.00179991
0.00161903
0.00162042
0.00143524
0.00089696
0.000884775
0.00055572
0.000539709
0.000643559
0.000632288
0.000703234
0.000752588
0.000752885
0.00075045
0.000731395
0.00072461
0.000637268
0.000624793
0.000625608
0.000606624
0.000602352
0.000627345
0.000683167
0.00080043
0.000967617
0.00105396
0.00109164
0.00104795
0.000938817
0.000691367
0.000625873
0.00108357
0.00112631
0.00200578
0.00476551
0.002196
0.00424519
0.00306349
0.00076413
0.000853133
0.00108798
0.00121918
0.00131605
0.00137082
0.00125179
0.00104374
0.000785953
0.000649312
0.000971855
0.000840467
0.000950203
0.000830046
0.00107417
0.00124214
0.00120182
0.00121102
0.00102359
0.000834007
0.000883213
0.000793124
0.000874234
0.000731929
0.000880637
0.000795153
0.000999246
0.00100865
0.00098768
0.000936216
0.000712868
0.000747964
0.000627389
0.000680576
0.000611008
0.000631558
0.000598473
0.000697932
0.000804238
0.000771854
0.000768836
0.000631709
0.000495001
0.000546692
0.000472683
0.000534969
0.000415785
0.000503697
0.000422433
0.000546814
0.000563558
0.000566177
0.000561887
0.000456545
0.000536947
0.000659062
0.000692642
0.000698594
0.000665575
0.000513092
0.000793963
0.000716672
0.000875052
0.000757003
0.000828547
0.00075455
0.0008795
0.00112631
0.00117582
0.00118359
0.000960223
0.000954186
0.001741
0.0965134
0.0015661
0.00185106
0.00190878
0.0019019
0.0015726
0.00153437
0.0019003
0.00140595
0.00199082
0.0012535
0.00212297
0.000809308
0.00123022
0.00132077
0.0013179
0.0012247
0.000820605
0.00242577
0.119518
0.30831
0.334317
0.333726
0.32074
0.14384