/*--------------------------------*- C++ -*----------------------------------*\
| =========                 |                                                 |
| \\      /  F ield         | OpenFOAM: The Open Source CFD Toolbox           |
|  \\    /   O peration     | Version:  v2012                                 |
|   \\  /    A nd           | Website:  www.openfoam.com                      |
|    \\/     M anipulation  |                                                 |
\*---------------------------------------------------------------------------*/
FoamFile
{
    version     2.0;
    format      ascii;
    class       volVectorField;
    location    "285";
    object      U;
}
// * * * * * * * * * * * * * * * * * * * * * * * * * * * * * * * * * * * * * //

dimensions      [0 1 -1 0 0 0 0];


internalField   nonuniform List<vector> 
18258
(
(-0.176003 0.114019 0.138814)
(-0.0515261 0.244838 0.15898)
(-0.104686 0.212222 0.0963852)
(-0.0404522 0.0686519 0.0846538)
(-0.226133 0.200709 0.0192754)
(-0.159564 0.358582 0.0175331)
(-0.223109 0.0442488 0.0544999)
(-0.341513 -0.0536521 0.0756418)
(-0.448804 -0.106056 0.10837)
(-0.535838 -0.159785 0.145864)
(-0.621575 -0.217265 0.180005)
(-0.687858 -0.271646 0.309676)
(-0.678667 -0.334344 0.35734)
(-0.622232 -0.445534 0.385898)
(-0.487966 -0.543021 0.369386)
(-0.204802 -0.58741 0.340307)
(0.0741612 -0.374281 0.288617)
(0.0788299 -0.164077 0.298197)
(-0.127678 -0.0784425 0.236835)
(-0.399799 -0.273604 0.116722)
(-0.138588 -0.526139 0.292476)
(-0.197863 -0.365362 0.407031)
(-0.302853 -0.737339 0.301284)
(-0.363411 -0.778817 0.262529)
(-0.135718 -0.708102 0.132953)
(0.00391377 -0.645613 0.183418)
(-0.0174506 -0.34033 0.422882)
(0.174118 -0.113214 0.805254)
(0.299143 -0.0955611 0.893265)
(0.316717 0.0574372 0.913817)
(0.317923 0.184658 0.814889)
(0.167348 0.301619 0.102181)
(0.0779006 0.131578 -0.430296)
(0.0116593 0.0800025 -0.722849)
(-0.0669676 0.0773506 -0.897536)
(-0.0572463 0.0735405 -1.07992)
(-0.0704843 0.072744 -1.21987)
(-0.0987398 0.0908284 -1.3141)
(-0.140236 0.0820483 -1.36172)
(-0.187811 0.0884365 -1.34769)
(-0.237369 0.0747696 -1.26358)
(-0.28385 0.0839762 -1.10978)
(-0.322593 0.0784218 -0.898893)
(-0.353463 0.0794556 -0.644384)
(-0.363268 0.0821104 -0.351493)
(-0.346378 0.077296 -0.153753)
(-0.156821 0.176783 -0.1954)
(0.361282 -0.09905 -0.136704)
(0.627189 -0.130324 -0.157247)
(0.673903 -0.112837 -0.166853)
(0.785853 -0.136207 -0.17612)
(0.813203 -0.133556 -0.193661)
(0.50732 -0.00521159 -0.257543)
(0.259926 -0.138065 -0.218201)
(0.113505 -0.0422301 -0.158731)
(0.28225 -0.00993286 -0.16911)
(0.537085 -0.00271947 -0.173774)
(0.791227 -0.0302716 -0.178084)
(1.09153 -0.0348894 -0.175893)
(1.42719 -0.0490231 -0.185348)
(1.76171 -0.0647623 -0.183731)
(2.04581 -0.0813593 -0.166846)
(2.2465 -0.0930795 -0.138455)
(2.34684 -0.0992258 -0.102902)
(2.35381 -0.0965656 -0.0683865)
(2.29379 -0.0888936 -0.0417785)
(2.20047 -0.0823751 -0.0251049)
(2.1081 -0.0762238 -0.0183403)
(2.03869 -0.0674048 -0.019331)
(1.99302 -0.06456 -0.0239734)
(1.9686 -0.0594101 -0.0263938)
(1.95796 -0.0505088 -0.0208666)
(1.9436 -0.040009 -0.00388162)
(1.90006 -0.0251965 0.0236723)
(1.81246 -0.00816017 0.0532438)
(1.69156 0.0091962 0.0764894)
(1.57073 0.0213745 0.0793167)
(1.47797 0.0303251 0.0746764)
(1.39985 0.037333 0.0700355)
(1.33774 0.049957 0.0626814)
(1.28693 0.0566135 0.0643915)
(1.19327 0.0438124 0.0777871)
(1.09607 0.0185302 0.109121)
(1.01303 0.000232389 0.126459)
(0.905618 -0.0213582 0.119308)
(0.76165 0.016434 0.144709)
(0.640942 0.0815346 0.132405)
(0.517265 0.100529 0.133144)
(0.380237 0.117896 0.117511)
(0.223912 0.126664 0.0953421)
(0.119898 0.189795 0.0909968)
(0.121493 0.0109821 0.19663)
(0.164045 -0.10076 0.142414)
(0.11297 -0.129881 0.0379549)
(0.104391 -0.115077 -0.144358)
(0.216242 -0.210197 -0.37366)
(0.262388 -0.231465 -0.559035)
(0.203908 -0.138135 -0.731115)
(0.10528 -0.0798598 -0.713448)
(0.0361802 0.0596511 -0.488324)
(-0.093273 0.233257 -0.148147)
(-0.217209 0.192845 0.181709)
(-0.23441 0.0645221 0.156482)
(-0.340281 0.0144278 0.171077)
(-0.274207 0.136815 0.180227)
(-0.24853 0.285398 -0.041562)
(-0.106753 0.164788 -0.401616)
(0.0626783 0.00546033 -0.58397)
(0.332471 -0.0934752 -0.63364)
(0.494793 -0.229523 -0.492437)
(0.35112 -0.210869 -0.283055)
(0.271511 -0.192176 -0.103011)
(0.282744 -0.186893 0.0374719)
(0.280446 -0.140129 0.158815)
(0.224704 -0.0989191 0.190588)
(0.395866 -0.0814299 0.179525)
(0.534942 -0.063445 0.175047)
(0.587428 -0.052227 0.16326)
(0.699284 -0.078899 0.15925)
(0.731761 -0.133892 0.130674)
(0.600368 -0.134397 0.133516)
(0.454009 -0.151882 0.138086)
(0.461108 -0.186111 0.0332582)
(0.610337 -0.162988 0.0491827)
(0.735678 -0.162155 0.0466478)
(0.9041 -0.141835 0.0791253)
(1.08776 -0.109932 0.108732)
(1.18919 -0.0777786 0.146319)
(1.20813 -0.0108545 0.138338)
(1.24533 -0.00924951 0.119041)
(1.33552 -0.00711108 0.138543)
(1.37744 -0.00191347 0.128632)
(1.36911 -0.0126407 0.15723)
(1.3285 -0.0482422 0.192166)
(1.32284 -0.0511588 0.189085)
(1.28571 -0.0620464 0.150059)
(1.27898 -0.0602078 0.133145)
(1.25784 -0.0477464 0.106755)
(1.2493 -0.0457512 0.108827)
(1.20156 0.00469633 0.107481)
(1.19453 0.0281897 0.136229)
(1.07695 0.137519 0.270083)
(1.22635 0.0531395 0.252863)
(1.21793 0.0203132 0.157145)
(1.26638 -0.0207873 0.12666)
(1.27854 -0.0249599 0.117389)
(1.28914 -0.0382018 0.142344)
(1.30805 -0.0415214 0.181679)
(1.35059 -0.0367369 0.215711)
(1.38641 -0.0367393 0.220645)
(1.42333 -0.0128925 0.181994)
(1.43664 -0.00208821 0.13699)
(1.51289 -0.00668084 0.150118)
(1.61096 -0.0168599 0.158263)
(1.75022 -0.0317603 0.142715)
(1.88234 -0.0543394 0.0482218)
(1.96378 -0.0758134 -0.0719294)
(1.98316 -0.0906797 -0.164982)
(1.96576 -0.0967072 -0.201211)
(1.94949 -0.0970569 -0.195153)
(1.95971 -0.0914478 -0.175403)
(2.00672 -0.0829326 -0.145069)
(2.08812 -0.070535 -0.108602)
(2.19918 -0.0603633 -0.0849456)
(2.31305 -0.0600538 -0.113897)
(2.38956 -0.0611299 -0.174233)
(2.39193 -0.0587015 -0.277928)
(2.28587 -0.0504067 -0.392919)
(2.07043 -0.0426689 -0.484167)
(1.77012 -0.0368304 -0.540566)
(1.42636 -0.0316594 -0.549333)
(1.0804 -0.0193738 -0.528136)
(0.792032 -0.0244647 -0.459695)
(0.536535 -0.0158873 -0.415653)
(0.282876 -0.0214366 -0.386893)
(0.109214 -0.0401125 -0.360666)
(0.102357 -0.0419062 -0.637141)
(0.0774585 -0.0370915 -0.873121)
(0.0507303 -0.039074 -1.05748)
(0.0117984 -0.0403863 -1.17596)
(-0.0233564 -0.0280866 -1.21553)
(-0.0600247 -0.0156111 -1.16774)
(-0.0937829 0.00345962 -1.03851)
(-0.119193 0.0273684 -0.820747)
(-0.121011 0.0843986 -0.559222)
(-0.146667 0.132354 -0.0351898)
(-0.193585 0.0251808 0.57252)
(-0.209632 -0.0340302 0.758935)
(-0.22795 -0.00285507 0.927322)
(-0.233103 -0.0458991 1.06939)
(-0.318731 -0.1055 1.13251)
(-0.371837 -0.112589 1.14495)
(-0.37039 -0.233965 1.00477)
(-0.298911 -0.252773 0.771058)
(-0.460485 -0.668956 0.687457)
(-0.485915 -0.546562 0.70529)
(-0.413985 -0.414052 0.832608)
(-0.549326 -0.768181 0.858528)
(-0.683763 -0.833529 0.606378)
(-0.474528 -0.75611 0.799914)
(-0.435607 -0.575913 0.742593)
(-0.783404 -0.526239 0.750264)
(-0.902286 -0.409379 0.860627)
(-0.530588 -0.707596 0.825136)
(-0.440003 -0.577596 0.666393)
(-0.320367 -0.31979 0.406311)
(-0.299497 -0.18195 0.40029)
(-0.283082 -0.145876 0.354171)
(-0.234527 0.110828 0.115205)
(-0.162242 0.297773 -0.417304)
(-0.151955 0.189381 -0.637916)
(-0.132128 0.0289456 -0.91292)
(-0.087014 -0.0567111 -1.08514)
(-0.0287818 -0.0693039 -1.23316)
(0.0382685 -0.101843 -1.26815)
(0.0979536 -0.0985787 -1.23338)
(0.17249 -0.10922 -1.11967)
(0.216544 -0.123502 -0.91998)
(0.2609 -0.146777 -0.705582)
(0.249858 -0.139449 -0.398512)
(0.419214 -0.0500311 -0.637389)
(0.773776 -0.118712 -0.456443)
(0.72948 -0.109813 -0.411511)
(0.631009 -0.0757188 -0.403886)
(0.566727 -0.1052 -0.409807)
(0.129344 -0.100588 -0.520209)
(0.177008 -0.116265 -0.905976)
(0.257535 -0.224326 -1.05814)
(0.342921 -0.282398 -0.946638)
(0.389551 -0.35163 -0.50728)
(0.199483 0.0409598 0.131718)
(0.265742 0.121103 0.180523)
(0.429395 -0.325066 0.336514)
(0.51653 -0.529722 0.506441)
(0.546007 -0.523494 0.552839)
(0.412916 -0.235875 0.678659)
(0.471876 -0.338316 0.565413)
(0.487202 -0.61059 0.546426)
(0.704436 -0.67363 0.31863)
(0.74675 -0.489407 0.454323)
(0.79917 -0.346088 0.600029)
(0.235914 -0.226087 0.577194)
(-0.235835 -0.269187 0.829606)
(-0.172155 -0.19155 0.681089)
(-0.672499 -0.299159 0.820199)
(-0.468848 -0.183167 0.695925)
(-0.319602 -0.00529394 0.54377)
(-0.218592 0.177657 -0.293278)
(-0.192435 -0.0418965 -0.616187)
(-0.0574177 -0.168818 -1.09924)
(0.104288 -0.157897 -1.24939)
(0.27578 -0.087236 -1.11768)
(0.436858 -0.108218 -0.698495)
(0.5069 -0.0740875 -0.622167)
(0.50159 -0.0436068 -0.610801)
(0.553394 -0.0879253 -0.635105)
(0.595614 -0.121124 -0.727415)
(0.402393 -0.042952 -0.678766)
(0.360856 -0.0793293 -0.659339)
(0.135611 -0.113844 -0.668375)
(-0.111225 -0.0486 -0.579676)
(0.296093 0.00576337 -0.589502)
(0.355727 0.0151924 -0.607118)
(0.641334 -0.0969471 -0.643261)
(0.575351 -0.0977431 -0.370958)
(0.271054 0.0738702 -0.357243)
(0.273307 0.0549857 -0.237117)
(-0.303061 -0.0390576 0.118296)
(-0.308003 0.143381 -0.00545398)
(-0.283166 -0.0249916 -0.447783)
(0.0886199 -0.201746 -0.575252)
(0.361911 -0.28043 -0.568743)
(0.725794 -0.346665 -0.405623)
(0.810018 -0.419753 -0.377835)
(0.771177 -0.291698 -0.295356)
(0.81247 -0.366214 -0.219455)
(0.827188 -0.488225 -0.284105)
(0.740091 -0.433531 -0.278246)
(0.719283 -0.306787 -0.331166)
(0.746704 -0.252519 -0.341493)
(0.792264 -0.312397 -0.212003)
(0.804521 -0.368181 -0.160536)
(0.891726 -0.466052 -0.156803)
(1.15748 -0.632744 -0.118075)
(1.61605 -0.72831 -0.0992728)
(1.99332 -0.674047 -0.0386105)
(2.15014 -0.492185 0.0468995)
(2.07072 -0.293132 0.094986)
(1.90559 -0.164864 0.10271)
(1.80788 -0.0963948 0.0992057)
(1.71091 -0.00129684 0.0987177)
(1.57315 0.0870227 0.0908511)
(1.43556 0.105247 0.047834)
(1.3309 0.0555062 0.0270648)
(1.24099 -0.00649372 0.0213019)
(1.13914 -0.0558764 0.0229467)
(1.0552 -0.0803538 0.0210718)
(0.997313 -0.0637408 0.0165368)
(0.820959 -0.111267 -0.0242586)
(0.716203 0.00115802 0.00918942)
(0.632927 0.0671074 0.00840817)
(0.497357 0.0215835 0.0060559)
(0.359257 -0.0619764 -0.0135186)
(0.138998 -0.147526 -0.032445)
(0.225506 -0.308767 0.00136784)
(0.353282 -0.0821281 0.0119774)
(-0.00261967 -0.230537 -0.00924377)
(0.0428879 -0.546388 -0.0505471)
(0.0118781 -0.71297 -0.0526849)
(-0.00816219 -0.876914 -0.0533046)
(-0.0261168 -1.00696 -0.0650329)
(-0.0361589 -1.10288 -0.0959496)
(-0.0467105 -1.15725 -0.105252)
(-0.0582598 -1.21451 -0.11838)
(-0.0884881 -1.27621 -0.134367)
(-0.113582 -1.32089 -0.149676)
(-0.13755 -1.35456 -0.162589)
(-0.159573 -1.37619 -0.173645)
(-0.178591 -1.38752 -0.183305)
(-0.193993 -1.38917 -0.190014)
(-0.206139 -1.3821 -0.193866)
(-0.216183 -1.36742 -0.193987)
(-0.224768 -1.34554 -0.19207)
(-0.233074 -1.31509 -0.186623)
(-0.240754 -1.27419 -0.178265)
(-0.246208 -1.21993 -0.165209)
(-0.244088 -1.15078 -0.147447)
(-0.191113 -1.07134 -0.127047)
(-0.141322 -0.968728 -0.112697)
(-0.165893 -0.868266 -0.079594)
(-0.189929 -0.754358 -0.0820086)
(-0.205156 -0.542893 -0.0856081)
(-0.274007 -0.450054 -0.0921136)
(0.0222815 0.0534802 -0.116327)
(-0.35092 -0.308214 0.0250612)
(-0.231804 -0.617335 -0.0547099)
(-0.270579 -0.0991998 -0.0111972)
(-0.458268 -0.182367 0.0644847)
(-0.679001 -0.198595 0.0822089)
(-0.842477 -0.209185 0.114029)
(-0.953935 -0.223043 0.144148)
(-1.03468 -0.232445 0.203713)
(-1.11798 -0.244248 0.245227)
(-1.18716 -0.244154 0.301948)
(-1.20086 -0.248399 0.336218)
(-1.17394 -0.250177 0.366139)
(-1.10706 -0.248906 0.394451)
(-0.996332 -0.243253 0.422646)
(-0.841796 -0.230286 0.454065)
(-0.668044 -0.206092 0.493489)
(-0.420941 -0.14712 0.54255)
(-0.138278 -0.118525 0.5665)
(-0.156661 0.0285138 0.822396)
(-0.160033 0.0829851 1.04258)
(-0.159688 0.115271 1.11237)
(-0.160911 0.164394 1.02097)
(-0.164555 0.153485 0.838315)
(-0.151885 0.131413 0.56789)
(-0.124238 0.14351 0.285903)
(-0.225567 0.439635 0.371064)
(-0.507195 0.467533 0.335292)
(-0.692105 0.480544 0.339346)
(-0.916967 0.46529 0.332772)
(-1.09907 0.424515 0.308701)
(-1.22604 0.353064 0.265919)
(-1.28161 0.273165 0.218753)
(-1.2643 0.206028 0.181492)
(-1.23131 0.147842 0.158217)
(-1.18841 0.115156 0.14031)
(-1.09902 0.0924593 0.0901692)
(-0.957342 0.0450876 0.0698281)
(-0.766127 -0.0207864 0.0593866)
(-0.499934 -0.113995 0.0189851)
(-0.252561 -0.207692 -0.0190914)
(-0.273663 -0.19747 -0.0664994)
(-0.317942 -0.176909 0.00771599)
(-0.314162 -0.17411 0.058825)
(-0.272276 -0.156477 0.149869)
(-0.380569 -0.233575 0.117422)
(-0.422359 -0.296826 0.11743)
(-0.326271 -0.287856 0.176066)
(-0.269245 -0.214824 0.0438411)
(-0.140817 -0.100568 -0.0270728)
(-0.140825 -0.0767531 -0.00856276)
(-0.138736 -0.0740666 -0.0364358)
(-0.169486 -0.0556161 -0.068663)
(-0.167935 -0.501431 -0.149375)
(-0.126405 -0.479505 -0.139394)
(-0.110726 -0.446964 -0.0971457)
(-0.100555 -0.423828 -0.147178)
(-0.266177 -0.537683 -0.0327225)
(-0.27572 -0.574973 -0.0271359)
(-0.282901 -0.631183 -0.0856285)
(-0.33674 -0.582567 -0.021707)
(-0.339734 -0.529669 0.0537894)
(-0.301112 -0.35893 0.0838607)
(-0.444044 -0.316923 0.113801)
(-0.361027 -0.431619 0.0393261)
(-0.346668 -0.522387 0.0127543)
(-0.377434 -0.508356 -0.0250699)
(-0.428171 -0.394389 0.0310411)
(-0.496971 -0.346525 0.0722806)
(-0.528521 -0.254829 0.16311)
(-0.59082 -0.215434 0.240781)
(-0.679719 -0.19754 0.255346)
(-0.576213 -0.20669 0.210959)
(-0.516442 -0.187806 0.180606)
(-0.544697 -0.184954 0.117343)
(-0.539257 -0.172039 0.0915293)
(-0.495694 -0.18423 0.000582135)
(-0.760973 -0.0866889 0.0643237)
(-0.970912 -0.00545034 0.0894547)
(-1.07848 0.0520675 0.103351)
(-1.12765 0.0749586 0.137919)
(-1.16537 0.0357984 0.237562)
(-1.25004 0.0689788 0.266835)
(-1.31607 0.119387 0.348724)
(-1.32978 0.17083 0.431439)
(-1.27267 0.221918 0.523978)
(-1.14799 0.260956 0.603752)
(-0.975484 0.281359 0.648441)
(-0.775457 0.283554 0.657646)
(-0.623239 0.288631 0.644652)
(-0.34242 0.272355 0.644521)
(-0.436207 0.244817 0.875087)
(-0.468273 0.227463 1.0034)
(-0.46117 0.179635 1.08184)
(-0.441968 0.123407 1.01401)
(-0.440559 0.0583475 0.798027)
(-0.71169 -0.00514712 0.744439)
(-0.722297 0.0714137 0.944828)
(-0.741036 0.117239 1.02357)
(-0.745909 0.164222 0.979628)
(-0.695632 0.198734 0.872764)
(-0.838111 0.186337 0.862666)
(-0.880043 0.145861 0.965163)
(-0.882941 0.0883554 1.00112)
(-0.873261 0.0419877 0.92641)
(-0.86696 -0.0389974 0.707005)
(-1.01005 -0.0602493 0.675793)
(-1.02455 0.0205639 0.901096)
(-1.03749 0.0695907 0.966222)
(-1.04564 0.122052 0.94421)
(-1.02067 0.174076 0.854238)
(-1.16414 0.16301 0.80406)
(-1.16472 0.110601 0.892727)
(-1.14805 0.057178 0.914508)
(-1.13093 0.00650164 0.859358)
(-1.11092 -0.0730182 0.640024)
(-1.17094 -0.0836541 0.595389)
(-1.1964 -0.00617772 0.796735)
(-1.2227 0.043648 0.839948)
(-1.252 0.0918528 0.811396)
(-1.26962 0.141381 0.71677)
(-1.31901 0.11086 0.61001)
(-1.29058 0.0688568 0.70907)
(-1.25221 0.0250177 0.747055)
(-1.21688 -0.0217018 0.716227)
(-1.18686 -0.0934455 0.539646)
(-1.15358 -0.104673 0.472577)
(-1.18161 -0.0413591 0.621182)
(-1.22037 0.000211337 0.640488)
(-1.27464 0.039159 0.606205)
(-1.30766 0.0742599 0.508903)
(-1.2246 0.0356977 0.414036)
(-1.18788 0.00288454 0.499829)
(-1.12821 -0.0321695 0.530909)
(-1.08607 -0.0600663 0.519982)
(-1.03993 -0.111735 0.386645)
(-0.91906 -0.120104 0.315087)
(-0.92329 -0.109344 0.35798)
(-0.972592 -0.0803569 0.438049)
(-0.956497 -0.0870115 0.424818)
(-0.927497 -0.102626 0.394333)
(-1.00418 -0.0684171 0.381015)
(-0.995893 -0.0630707 0.307024)
(-1.00056 -0.0391697 0.282413)
(-1.04358 -0.0271951 0.208808)
(-1.03858 -0.00954618 0.202146)
(-0.805869 -0.10516 0.14504)
(-0.818768 -0.125181 0.157477)
(-0.787826 -0.12838 0.215822)
(-0.823754 -0.141455 0.248927)
(-0.609775 -0.281619 0.132553)
(-0.556731 -0.291324 0.114262)
(-0.503265 -0.326732 0.131831)
(-0.419909 -0.399417 0.115341)
(-0.396639 -0.383837 0.148755)
(-0.487885 -0.28404 0.164576)
(-0.605671 -0.238969 0.182994)
(-0.614954 -0.26777 0.0962688)
(-0.513144 -0.377772 0.0432929)
(-0.439347 -0.459909 0.0273574)
(-0.39713 -0.52609 0.0568921)
(-0.383766 -0.697616 0.121086)
(-0.386862 -0.663 0.126955)
(-0.405095 -0.380119 0.105778)
(-0.407995 -0.5363 0.0803334)
(-0.398983 -0.601633 0.0425776)
(-0.215549 -0.787838 -0.160031)
(-0.193249 -0.793558 -0.260552)
(-0.115292 -0.703605 -0.369927)
(-0.0785641 -0.623561 -0.385977)
(-0.0451126 -0.588253 -0.348219)
(-0.0135592 -0.555225 -0.301736)
(0.0316136 -0.501228 -0.232079)
(0.124083 -0.454681 -0.108909)
(0.124667 -0.57924 -0.121906)
(0.11679 -0.635512 -0.120151)
(0.084872 -0.693392 -0.157669)
(0.0923049 -0.747954 -0.155873)
(0.100485 -0.804539 -0.175069)
(0.11826 -0.832786 -0.167124)
(0.126282 -0.83943 -0.152877)
(0.126465 -0.825428 -0.13023)
(0.117725 -0.789189 -0.0957156)
(0.104215 -0.732026 -0.0422777)
(0.0363258 -0.650963 0.0340887)
(0.00240651 -0.541286 0.155668)
(0.0170894 -0.294027 0.362644)
(-0.152222 0.0222905 0.448644)
(-0.369436 0.0973975 0.349111)
(-0.39382 -0.0377017 0.257368)
(-0.220672 -0.173124 0.251447)
(-0.182399 -0.190539 0.268175)
(-0.159653 -0.180937 0.215089)
(-0.0966879 -0.148657 0.206959)
(-0.00448699 -0.0500817 0.0761827)
(-0.0333158 0.105546 0.0817615)
(-0.0802038 0.143182 0.0809497)
(-0.0485309 0.208491 0.172229)
(-0.00233977 0.174602 0.195686)
(0.0152781 0.0176536 0.145234)
(-0.0506551 -0.0378297 0.231009)
(0.0227374 0.0829283 0.327343)
(-0.00495326 -0.0701553 0.288259)
(0.074282 0.13958 0.250118)
(0.0890335 -0.0249433 0.226207)
(-0.0228018 -0.251537 0.455302)
(0.0482404 -0.35453 0.545073)
(0.171514 -0.496773 0.516658)
(0.169253 -0.689415 0.354079)
(0.0766514 -0.8143 0.145908)
(0.058896 -0.886843 -0.00677461)
(0.0655459 -0.922065 -0.119134)
(0.06342 -0.948734 -0.197527)
(0.0603396 -0.963529 -0.248742)
(0.052215 -0.961863 -0.27954)
(0.0420477 -0.942053 -0.292959)
(0.0294351 -0.904544 -0.289818)
(0.0238132 -0.829648 -0.249979)
(0.00742562 -0.784012 -0.329189)
(0.0436279 -0.703137 -0.225539)
(0.0476945 -0.652941 -0.211461)
(0.0448864 -0.635587 -0.232221)
(0.00470118 -0.701552 -0.325691)
(-0.0225461 -0.741256 -0.383625)
(-0.0572961 -0.776731 -0.411397)
(-0.0731786 -0.843583 -0.402265)
(-0.131802 -0.903966 -0.346714)
(-0.0938192 -0.96831 -0.3328)
(-0.0887855 -0.979012 -0.373884)
(-0.0537129 -0.917699 -0.418688)
(-0.0435137 -0.867645 -0.432511)
(-0.017706 -0.825343 -0.404827)
(-0.00947613 -0.868727 -0.341704)
(-0.039178 -0.90113 -0.37477)
(-0.0558984 -0.947875 -0.397282)
(-0.0235813 -0.990893 -0.406404)
(-0.0485357 -1.05921 -0.42128)
(-0.0665438 -1.0419 -0.424892)
(-0.0932688 -0.919762 -0.345759)
(-0.186275 -0.761293 -0.225226)
(-0.19748 -0.614318 -0.0417894)
(-0.0995284 -0.732939 -0.19812)
(-0.0793679 -0.838908 -0.260739)
(-0.0592856 -0.928098 -0.324579)
(-0.060903 -0.945616 -0.335245)
(-0.0278935 -0.828919 -0.382425)
(-0.0241283 -0.723967 -0.338853)
(-0.0323158 -0.541337 -0.255877)
(-0.0166743 -0.353033 -0.165891)
(0.0355942 -0.0886782 -0.211905)
(-0.246319 -0.433052 0.0724082)
(-0.327519 -0.460676 0.0257039)
(0.218201 -0.119365 -0.243433)
(-0.173001 -0.247169 0.0424287)
(-0.218011 -0.266347 -0.118099)
(-0.25832 -0.268609 -0.104118)
(-0.208399 -0.28147 -0.0218883)
(0.0810319 0.141103 -0.219681)
(0.102601 0.0600202 -0.232614)
(0.100699 -2.19594e-05 -0.261963)
(0.0957639 -0.000260158 -0.266636)
(-0.080594 -0.429394 -0.202883)
(-0.133393 -0.449743 -0.223443)
(-0.186503 -0.458072 -0.207204)
(-0.249436 -0.44488 -0.169552)
(-0.169115 -0.54715 -0.184544)
(-0.126987 -0.558957 -0.257749)
(-0.0964684 -0.56524 -0.292193)
(-0.060958 -0.553465 -0.292755)
(-0.0510218 -0.742422 -0.349953)
(-0.0817658 -0.757052 -0.33275)
(-0.106476 -0.769365 -0.282229)
(-0.147303 -0.759664 -0.195067)
(-0.134609 -0.821405 -0.182611)
(-0.12889 -0.882312 -0.200617)
(-0.0982297 -0.904947 -0.297883)
(-0.0727846 -0.872041 -0.374492)
(-0.0493988 -0.851799 -0.401048)
(-0.0770348 -0.967272 -0.371645)
(-0.112335 -0.989008 -0.336421)
(-0.138262 -1.00928 -0.284141)
(-0.137386 -1.09191 -0.347329)
(-0.08028 -1.06622 -0.399999)
(-0.0726995 -1.14385 -0.441516)
(-0.0493982 -1.12227 -0.474191)
(-0.0268354 -1.11326 -0.459512)
(-0.00315523 -1.04144 -0.416016)
(0.0122586 -1.07339 -0.407031)
(-0.0126419 -1.15178 -0.470281)
(-0.0399 -1.17891 -0.494768)
(-0.0687254 -1.20715 -0.463493)
(-0.131769 -1.22773 -0.379472)
(-0.135111 -1.16541 -0.369579)
(-0.283933 -1.04563 -0.225451)
(-0.457746 -1.14517 -0.0769539)
(-0.464133 -1.09923 -0.0674816)
(-0.416338 -1.04488 -0.06482)
(-0.303141 -1.03541 -0.073918)
(-0.255896 -0.966694 -0.0641335)
(-0.309451 -0.944205 -0.0577185)
(-0.342579 -0.848425 -0.0422832)
(-0.378305 -0.713167 -0.0379536)
(-0.474035 -0.626545 -0.0367727)
(-0.41014 -0.401324 -0.0341864)
(-0.465226 -0.660523 -0.00587397)
(-0.316979 -0.457457 0.0245369)
(-0.638735 -0.398652 0.00540915)
(-0.815619 -0.37929 0.0601253)
(-0.91807 -0.384437 0.0845963)
(-0.968019 -0.397229 0.124315)
(-0.980009 -0.52524 0.0977461)
(-0.94043 -0.689294 0.0653547)
(-0.924157 -0.750019 0.0524878)
(-0.874701 -0.848306 0.0364424)
(-0.859102 -0.895458 0.03047)
(-0.821274 -0.927717 0.00761746)
(-0.70402 -0.967313 -0.023012)
(-0.592855 -1.0018 -0.0420169)
(-0.627096 -0.95243 -0.0172206)
(-0.485296 -0.971411 -0.0307416)
(-0.503215 -0.893151 -0.0301555)
(-0.53083 -0.796736 -0.0233144)
(-0.559679 -0.730587 -0.0195078)
(-0.686756 -0.712225 -0.00980693)
(-0.675307 -0.598007 -0.00779445)
(-0.824418 -0.577115 0.0303332)
(-0.918691 -0.559509 0.0503941)
(-0.881623 -0.696913 0.0231416)
(-0.800717 -0.704421 0.0121918)
(-0.777851 -0.789561 0.00227914)
(-0.661256 -0.797992 -0.010779)
(-0.636107 -0.882336 -0.0170453)
(-0.748809 -0.865964 -0.00513709)
(-0.825805 -0.850388 0.00444456)
(-0.863414 -0.772829 0.0135104)
(-0.801909 -0.738733 -0.0117807)
(-0.624313 -0.61187 0.00182971)
(-0.847413 -0.659514 0.0116749)
(-0.868309 -0.518235 0.0520281)
(-0.870716 -0.379714 0.0580982)
(-0.843527 -0.282161 0.121533)
(-0.832556 -0.302173 0.0764768)
(-0.87918 -0.350573 0.0525368)
(-0.875389 -0.20386 0.128988)
(-0.894337 -0.184185 0.174029)
(-0.760866 -0.161459 0.158377)
(-0.766485 -0.129002 0.259049)
(-0.777672 -0.120707 0.301754)
(-0.821241 -0.1086 0.355099)
(-0.828654 -0.119219 0.35237)
(-0.642071 -0.181641 0.25069)
(-0.607242 -0.173557 0.24814)
(-0.567422 -0.180399 0.215301)
(-0.551086 -0.175539 0.188761)
(-0.568906 -0.19113 0.12023)
(-0.338429 -0.194634 0.0765644)
(-0.320227 -0.18913 0.101441)
(-0.329239 -0.191861 0.113821)
(-0.3605 -0.198725 0.123964)
(-0.448915 -0.216806 0.141227)
(-0.405032 -0.253258 0.0591065)
(-0.381869 -0.284789 0.0677132)
(-0.410441 -0.340831 0.0464972)
(-0.315778 -0.426629 0.0352495)
(-0.311525 -0.394096 0.0483734)
(-0.283459 -0.415934 0.014824)
(-0.192843 -0.41918 -0.0211992)
(-0.336922 -0.253927 0.0347952)
(-0.402764 -0.330652 0.0406164)
(-0.248158 -0.457072 -0.00725449)
(-0.291531 -0.459452 -0.000343676)
(-0.451559 -0.321013 0.0714983)
(-0.524328 -0.298829 0.130884)
(-0.497868 -0.318489 0.13601)
(-0.470871 -0.336647 0.111099)
(-0.458792 -0.350473 0.0941026)
(-0.493348 -0.373018 0.0084256)
(-0.710878 -0.317689 0.0630688)
(-0.718017 -0.529646 0.0388571)
(-0.549236 -0.554137 -0.00192899)
(-0.510159 -0.606777 -0.00420882)
(-0.465974 -0.649035 -0.0177162)
(-0.437191 -0.652306 -0.021496)
(-0.413071 -0.530794 -0.0233453)
(-0.411357 -0.540836 -0.0486653)
(-0.410242 -0.541284 -0.0345927)
(-0.3356 -0.550309 -0.0174215)
(-0.267695 -0.595718 -0.00768362)
(-0.319824 -0.580666 -0.00389937)
(-0.403593 -0.512822 0.00683353)
(-0.33214 -0.535215 -0.00448333)
(-0.439016 -0.630153 -0.0121089)
(-0.293072 -0.473077 -0.0054511)
(-0.210585 -0.539537 -0.0186872)
(-0.281374 -0.52445 -0.0166265)
(-0.394592 -0.435939 -0.000990762)
(-0.414017 -0.36264 -0.0106474)
(-0.260744 -0.394099 -0.0113571)
(-0.157142 -0.422713 -0.0367454)
(-0.136527 -0.399268 -0.0230751)
(-0.238284 -0.205188 0.0219762)
(-0.382789 -0.342779 -0.0022991)
(-0.252013 -0.474412 -0.0200859)
(-0.2193 -0.467817 -0.0240324)
(-0.122233 -0.392602 -0.0304506)
(-0.219266 -0.194327 0.0388069)
(-0.346998 -0.337835 0.0118835)
(-0.366292 -0.363145 0.053968)
(-0.195997 -0.510913 -0.011229)
(-0.17423 -0.467873 0.0182668)
(-0.110081 -0.419998 0.00142697)
(-0.222364 -0.228919 0.0443287)
(-0.325976 -0.341762 0.0520907)
(-0.335106 -0.338844 0.0566711)
(-0.180707 -0.463064 0.0162838)
(-0.109391 -0.408771 -0.000418411)
(-0.231931 -0.220336 0.0617169)
(-0.285934 -0.221355 0.0770545)
(-0.240456 -0.230129 0.0707858)
(-0.350357 -0.336891 0.0781354)
(-0.189778 -0.465167 0.0478808)
(-0.117911 -0.415475 0.0368041)
(-0.140601 -0.449555 -0.00444753)
(-0.196597 -0.497451 0.0252666)
(-0.381719 -0.350563 0.0788642)
(-0.334436 -0.625272 -0.00391253)
(-0.355855 -0.631967 -0.0118983)
(-0.499451 -0.51173 0.0577713)
(-0.651409 -0.444593 0.0982274)
(-0.666818 -0.286701 0.136266)
(-0.798207 -0.271519 0.170448)
(-0.890888 -0.320687 0.166359)
(-1.02098 -0.488791 0.125972)
(-1.10775 -0.495118 0.1677)
(-1.13263 -0.502753 0.19286)
(-1.11266 -0.505119 0.215851)
(-1.04941 -0.501412 0.238729)
(-0.943859 -0.490476 0.26061)
(-0.794998 -0.467156 0.287196)
(-0.640422 -0.432088 0.326716)
(-0.397911 -0.380606 0.395172)
(-0.164106 -0.292255 0.482765)
(0.0394272 -0.15009 0.486961)
(0.335149 -0.158317 0.428317)
(0.336308 -0.21683 0.378573)
(0.204714 -0.127147 0.488055)
(0.272044 -0.00248477 0.766995)
(0.283238 0.0468935 1.03245)
(0.268518 0.0817769 1.14221)
(0.250602 0.134155 1.09166)
(0.212824 0.123281 0.954712)
(0.142362 0.121368 0.703234)
(0.03945 0.186933 0.404087)
(0.174468 0.512432 0.424761)
(0.419873 0.513515 0.374222)
(0.605557 0.538484 0.375611)
(0.850301 0.497955 0.351383)
(1.00915 0.417701 0.31748)
(1.07478 0.323584 0.273582)
(1.06058 0.256317 0.233631)
(1.01296 0.211153 0.197671)
(1.03281 0.158615 0.166505)
(1.04561 0.1188 0.143721)
(0.986295 0.09293 0.0903812)
(0.881377 0.0424656 0.0677313)
(0.716268 -0.0225436 0.0543693)
(0.471603 -0.109602 0.020825)
(0.244306 -0.217287 -0.0213644)
(0.1042 -0.623426 -0.109316)
(0.179565 -0.385621 -0.0798982)
(-0.177752 -0.172849 0.00774991)
(-0.0994432 -0.392551 -0.0371876)
(-0.108693 -0.312817 -0.063662)
(-0.110711 -0.33823 -0.0721549)
(-0.108134 -0.297008 -0.0628038)
(-0.0763653 -0.221144 -0.0570128)
(-0.141502 -0.175634 -0.0407699)
(-0.219938 0.142709 0.122343)
(-0.14017 0.436258 0.116821)
(-0.0376129 0.552898 0.0681335)
(0.0434929 0.628939 0.104961)
(0.131033 0.679078 0.204114)
(0.224506 0.735683 0.301894)
(0.315197 0.77194 0.338339)
(0.397534 0.767636 0.366931)
(0.474603 0.702262 0.374147)
(0.540049 0.561109 0.370807)
(0.592416 0.337721 0.3369)
(0.572106 0.00464826 0.263285)
(0.394476 -0.335414 0.258772)
(0.293792 -0.334263 0.321354)
(0.228118 -0.288547 0.330481)
(0.160882 -0.197858 0.335828)
(0.147657 -0.00126726 0.313017)
(0.289136 0.00906151 0.340129)
(0.451654 -0.157715 0.331007)
(0.603816 -0.255125 0.342699)
(0.642764 -0.344246 0.351791)
(0.6234 -0.436266 0.353722)
(0.476651 -0.541345 0.335033)
(0.107185 -0.566411 0.317263)
(-0.171239 -0.298659 0.303021)
(-0.0381627 -0.128386 0.355889)
(0.23078 -0.152139 0.237697)
(0.282245 -0.403933 0.0725143)
(0.00909364 -0.519404 0.238119)
(-0.141063 -0.748663 -0.141416)
(0.201108 -0.720322 -0.480632)
(0.308683 -0.393411 -0.177235)
(0.332175 -0.375283 0.0933531)
(0.345143 -0.545634 0.183846)
(0.326982 -0.890153 0.120064)
(0.531512 -0.87252 0.0648937)
(0.610732 -0.691672 0.098601)
(0.576373 -0.537882 0.138589)
(0.506866 -0.395401 0.189037)
(0.337772 -0.230167 0.247127)
(0.362275 -0.345867 0.195826)
(0.426083 -0.376456 0.143054)
(0.507542 -0.362483 0.0808887)
(0.619168 -0.295205 -0.0562659)
(0.864941 0.194181 -0.118432)
(0.909184 0.47862 -0.0233078)
(0.854688 0.682717 0.0468674)
(0.757178 0.786819 0.0898939)
(0.631785 0.815475 0.135629)
(0.489169 0.785468 0.156286)
(0.33141 0.723235 0.174782)
(0.166258 0.644376 0.131306)
(-0.00880358 0.574521 0.0703813)
(-0.150502 0.508 0.0566045)
(-0.291827 0.40512 0.116104)
(-0.409173 0.181217 0.147227)
(-0.284746 -0.130444 0.00601812)
(-0.398997 -0.0481235 0.0453976)
(-0.481324 0.00958338 0.0726161)
(-0.54362 0.123458 0.113576)
(-0.540055 0.0838837 0.0901105)
(-0.499155 -0.0470782 0.021464)
(-0.458128 -0.105548 0.011518)
(-0.390727 -0.159223 -0.0110763)
(-0.294541 -0.215323 -0.0256309)
(-0.188922 -0.24508 -0.0385096)
(-0.141428 -0.21764 -0.0300714)
(-0.195431 -0.18625 -0.0273118)
(-0.183901 -0.336853 -0.0409362)
(-0.123175 -0.330052 -0.0473102)
(-0.100397 -0.348089 -0.0743549)
(-0.0781926 -0.38193 -0.10712)
(-0.0482005 -0.566737 -0.223453)
(-0.087128 -0.504092 -0.16022)
(-0.104981 -0.594722 -0.127103)
(-0.15857 -0.560231 -0.0722685)
(-0.223762 -0.449055 -0.0381717)
(-0.306322 -0.106359 0.0328466)
(-0.184542 0.319857 0.17815)
(-0.0730183 0.439719 0.309621)
(0.00946284 0.513963 0.446739)
(0.0767046 0.501381 0.563194)
(0.145126 0.436013 0.624198)
(0.198888 0.322068 0.654361)
(0.249027 0.166286 0.627271)
(0.235076 -0.0127491 0.531767)
(0.103861 -0.135433 0.439301)
(-0.0131693 -0.0980361 0.448832)
(-0.032978 0.0172686 0.425172)
(-0.034057 0.139883 0.425908)
(0.0375219 0.24561 0.365876)
(0.199395 0.136591 0.380676)
(0.156972 0.273317 0.449647)
(-0.0607178 0.173084 -0.0677734)
(-0.173738 -0.0672092 -0.641759)
(-0.18077 -0.307249 -0.53737)
(-0.168271 -0.343622 -0.30191)
(-0.145111 -0.301907 -0.0937431)
(-0.0619314 -0.585056 -0.106539)
(-0.0278088 -0.862488 -0.0940372)
(0.00238663 -1.01977 -0.0916067)
(0.0327984 -1.14365 -0.10079)
(0.0661149 -1.22761 -0.115151)
(0.0965449 -1.28054 -0.12926)
(0.123086 -1.30706 -0.141161)
(0.146993 -1.31548 -0.153122)
(0.16781 -1.3133 -0.165653)
(0.186044 -1.30396 -0.176461)
(0.201679 -1.28898 -0.18492)
(0.215655 -1.26885 -0.190053)
(0.228056 -1.24331 -0.192716)
(0.239391 -1.21112 -0.191526)
(0.249013 -1.17118 -0.186392)
(0.254799 -1.12128 -0.175589)
(0.251898 -1.05862 -0.158949)
(0.194784 -0.995784 -0.13906)
(0.139779 -0.911062 -0.122782)
(0.164407 -0.8272 -0.0870134)
(0.187703 -0.726837 -0.0882416)
(0.203859 -0.558343 -0.0881344)
(0.2467 -0.441568 -0.0844537)
(0.0720663 -0.0296349 -0.0955268)
(0.365832 -0.297855 0.0435557)
(0.245715 -0.550417 -0.0572341)
(0.28606 -0.0945928 -0.0270021)
(0.180691 -0.036791 -0.147552)
(0.20151 -0.112219 -0.125077)
(0.194306 -0.119095 -0.081585)
(0.214617 -0.131392 -0.0245296)