/*--------------------------------*- C++ -*----------------------------------*\
| =========                 |                                                 |
| \\      /  F ield         | OpenFOAM: The Open Source CFD Toolbox           |
|  \\    /   O peration     | Version:  v2012                                 |
|   \\  /    A nd           | Website:  www.openfoam.com                      |
|    \\/     M anipulation  |                                                 |
\*---------------------------------------------------------------------------*/
FoamFile
{
    version     2.0;
    format      ascii;
    class       surfaceScalarField;
    location    "480";
    object      phi;
}
// * * * * * * * * * * * * * * * * * * * * * * * * * * * * * * * * * * * * * //

dimensions      [1 0 -1 0 0 0 0];
oriented        oriented;


internalField   nonuniform List<scalar> 
50655
(
0.00256888
-0.00359795
-0.00140271
-0.00511388
0.0013545
0.00360155
-0.00339776
0.00390626
0.004469
-0.00249508
-0.00282113
0.00302991
-0.00368536
-0.00377979
0.00267158
-0.00177571
-0.00483737
0.000819425
0.000191064
-0.0047016
0.00160131
-0.00180766
-0.00718037
0.00239123
-0.010463
0.00282413
0.000359764
-0.0112855
-0.00344891
0.00416138
-0.0120406
-0.00483346
0.00548614
-0.0129023
-0.00562848
0.006386
-0.0261741
-0.00930858
0.0223865
-0.0486991
-0.0282411
0.0502059
-0.0483092
-0.0526972
0.05161
-0.0311305
-0.0711113
0.0531548
-0.00461415
-0.0780618
0.0507625
0.00775809
-0.0547831
0.0415995
-0.00192704
-0.0314033
0.0403156
-0.0213881
-0.0217247
0.040419
-0.0174542
-0.0513361
0.0466798
-0.00749397
-0.0556613
0.0451434
-0.0392402
0.0314172
-0.0420919
0.0187815
-0.0162311
-0.0167683
-0.0757073
0.049889
0.019789
-0.0798622
0.0428085
0.0305323
-0.0296003
0.0185499
0.0342929
-0.00409796
0.0367517
0.0176987
-0.02048
0.0257115
-0.0179763
0.0287407
0.016824
-0.00948261
0.0182009
0.00399917
-0.00139985
0.0140977
-0.00624222
0.00703779
0.00310832
-0.00537037
0.000464551
-0.0013771
-0.0053568
-0.00108773
0.00105578
-0.00628101
0.000108237
0.000798689
-0.00754
9.7156e-05
0.00114523
-0.00864747
-1.41612e-05
0.00110449
-0.00902976
-0.000343158
0.000709081
-0.00928612
-0.000764628
0.0010044
-0.00885393
-0.00119438
0.000745904
-0.00822357
-0.00167183
0.0010248
-0.00700161
-0.00212639
0.000887989
-0.00556606
-0.0025969
0.00114448
-0.00370602
-0.00289196
0.00101575
-0.00189854
-0.00307339
0.00124895
0.00111735
-0.00303348
0.0008614
-0.00232405
0.00255436
-0.00604512
0.00488284
0.00198191
-0.0116855
0.00459947
0.00098436
-0.0135764
0.00503404
-0.00321005
-0.0132712
0.0053008
-0.00567304
-0.00559163
0.0046077
-0.0123437
0.000459907
0.00557559
-0.0116689
0.000589768
0.00356392
-0.00371941
-0.00151089
0.00208307
-0.00296657
0.00213994
-0.000701398
-0.00453062
0.00218765
-0.000639744
-0.00584471
0.00234669
-0.00104899
-0.00711082
0.0023041
-0.00105294
-0.00861217
0.00249684
-0.00100951
-0.0101782
0.00258298
-0.00103036
-0.0114731
0.00237456
-0.00109275
-0.0123742
0.00201166
-0.00112355
-0.0128391
0.00159674
-0.00114489
-0.0131536
0.00142957
-0.00112839
-0.0137532
0.00155588
-0.000970465
-0.0139573
0.00111287
-0.000923889
-0.0136613
0.000888733
-0.00120013
-0.0136503
0.000776016
-0.000802727
-0.0133758
0.000821467
-0.001112
-0.0131289
0.000896944
-0.00115982
-0.0129848
0.000840568
-0.00100047
-0.0127095
0.000571078
-0.000861934
-0.0121708
0.000122344
-0.000676537
-0.0112699
-0.000453394
-0.000462681
-0.0101494
-0.000913398
-0.000222516
-0.00883203
-0.00100931
-0.000322775
-0.0073839
-0.000759878
-0.000702102
-0.00758098
-0.000692058
0.000877134
-0.0163845
0.000819971
0.00795695
-0.021157
0.000390104
0.0043219
-0.0226039
0.00113961
0.000242043
-0.0425937
0.016334
0.00353839
-0.054582
0.00555049
0.00613945
-0.0294658
-0.0163645
-0.00905928
-0.0131173
-0.0149783
-0.00150243
-0.0112622
-0.00400246
0.00206942
-0.0100117
-0.00309635
0.0017558
-0.00809504
-0.00344792
0.00142972
-0.00472835
-0.00330869
-0.000153281
-0.00319025
-0.00162341
-0.00446152
0.00460166
-0.00342527
-0.00268815
0.00673621
-0.00862321
0.000895045
0.00621455
-0.00992993
0.00618857
0.00590338
-0.0113417
0.0149551
0.0088052
-0.0177528
0.0285146
0.0137889
-0.027631
0.0249122
0.0196702
-0.0163491
0.0165478
0.00638882
0.00179086
0.00786037
7.09014e-05
0.00846916
-0.00107448
-0.00395635
0.0127563
-0.00444429
-0.00678813
0.0100416
-0.00756402
0.00541351
0.00437726
0.00099254
-0.0102072
0.00207153
-0.00820401
0.00360793
-0.00512298
-0.00426537
0.00737775
-0.0125118
0.0020143
0.0053126
-0.0143534
0.00569857
0.002395
-0.0384744
0.0269891
0.0232798
-0.0070592
-0.0133011
0.0371403
-0.00973834
-0.0393638
-0.00480041
0.00929487
-0.00912486
-0.00053676
0.00897114
-0.00746147
0.00267553
0.00959453
-0.0067147
0.00459311
0.00961398
-0.00490529
0.00713541
-0.00134314
0.0112803
-0.00499921
-0.00271073
0.0124579
-0.00192938
-0.00244704
0.00881801
-0.000393212
-0.00418617
-0.00202448
-0.0210914
-0.00217195
0.0295623
-0.0106597
-0.0143341
-0.00171528
-0.00711716
-0.00253717
-0.00732873
0.0158886
0.00127469
-0.0102699
0.0219392
0.00108135
-0.00900349
0.0325037
0.000289099
-0.0132023
0.0832476
-0.0022323
-0.0359894
0.0468169
-0.00193406
0.0455282
-0.0022823
0.00748186
-0.00315214
0.0384537
0.00386332
0.0218046
0.00196453
0.0232324
-0.000315238
0.011319
0.0139345
0.00624142
-0.00797136
9.72865e-05
0.0068099
0.00521674
-0.00149291
0.00732046
0.00818706
-0.0015342
0.00712183
-0.0150781
0.00797947
-0.00211196
0.00736915
-0.015315
0.00850374
-0.00127432
0.00743556
-0.0167089
0.00841523
-0.0013158
0.00741925
-0.016013
0.00861442
-0.00063854
0.00728401
-0.016591
0.00860918
-0.000265996
0.00703265
-0.0159875
0.00856234
0.000701713
0.00623493
-0.0154509
0.00822971
0.00575858
0.004421
-0.016944
0.00745161
0.00149422
-0.00416284
0.0056763
0.00273657
0.000809833
0.00537987
-0.000281469
0.000631163
0.00713872
-0.000735879
0.000785597
0.00801654
-0.00115062
0.000941687
0.00831928
-0.00120434
0.00127855
0.00838613
-0.00131699
0.00150217
0.00856069
-0.00136203
0.00150384
0.00870639
-0.00135188
0.0012663
0.00871768
-0.00137063
0.000937688
0.00883294
-0.00119576
0.00730819
-0.000263056
0.00935554
-0.00200457
-0.00081663
0.0110332
-0.00184987
-0.000852549
0.0123166
-0.00154667
-0.000665958
0.0131017
-0.000310943
-0.000943258
0.0135315
0.000853188
-0.00117632
0.0137082
0.00170978
-0.00133131
0.0137062
0.0022374
-0.00141112
0.0137647
0.00224881
-0.00142692
0.01372
0.00182287
-0.000973157
0.0137283
0.00134319
-0.000591523
0.0139122
0.00122001
-0.000530748
0.0133036
0.00113409
0.000572104
0.0124568
0.0024295
0.000224225
-0.000265157
0.0127013
-0.000410353
0.00243597
-0.000853851
0.0123658
-0.000235316
0.00280053
-0.0006462
0.0114935
-7.24605e-05
0.00311507
-0.000171796
0.0102307
5.057e-05
0.000293267
0.00328028
0.00863117
0.000719666
0.00331853
0.000130744
0.00688468
0.00103865
0.00305229
0.000138569
0.00588008
0.000961471
0.0022428
8.94713e-05
0.0044361
0.00462308
-0.000848807
0.0028793
0.00427847
-0.000550232
0.00142727
-0.000498833
0.00407439
0.0038941
-0.00040069
0.00560415
-0.000508091
-0.0012181
0.00682961
-0.000404365
-0.000837945
0.00780124
-0.000601726
-0.000386388
0.00816508
-0.000468319
8.77554e-05
0.00821827
-0.000600121
0.000530469
0.00752446
-0.000252661
0.000929878
0.00653863
-0.000284259
0.00125353
0.00470352
0.000311388
0.00150664
0.00196315
0.0011948
0.00152844
-0.00182733
0.00206975
0.00170279
-0.00454646
0.000502649
0.00219849
-0.00606368
-0.000907409
0.00240536
-0.00734783
0.000609138
0.00065307
-0.0138472
0.000483211
0.00597134
-0.0250139
-0.00658336
0.0176341
-0.0311757
-0.0162383
0.0222349
-0.0392165
-0.0263139
0.0340882
-0.0319102
0.0238006
0.0162202
-0.0386397
0.00905483
0.026055
-0.0166976
0.00679432
-0.00458323
0.00427029
-0.0323504
0.0263037
0.00141468
-0.0147908
-0.0232478
0.00565296
-0.0374564
0.00592178
0.0412705
-0.0575114
-0.000701624
0.0291193
-0.0500882
0.0152275
0.0126239
-0.00991626
0.0169675
-0.0102123
0.0109875
-0.00257279
0.019085
0.00783272
0.0114717
-0.0125574
0.0134716
0.00542186
-0.00627085
0.0013938
0.0112853
0.00498819
0.00103135
0.0027707
0.00129986
-0.000987341
0.00146616
0.00277295
-0.0048567
0.00387202
0.00204556
-0.00542458
-0.000411297
0.00215301
-0.00956629
0.00201722
0.00241541
-0.00822074
-0.00367091
0.002021
-0.0118742
0.00196438
0.00141658
-0.00891557
-0.00416842
0.000589838
-0.0112515
0.00216291
-0.000315028
-0.0073284
-0.00318919
-0.00135533
-0.00816188
0.00230255
-0.00189361
-0.00440871
-0.0016951
-0.0025854
0.00131168
-0.00257623
0.00407799
0.0117384
-0.0106835
0.0116692
0.00646905
-0.00950501
0.0133062
0.00876474
-0.00517074
0.0104831
0.0103558
-0.00256835
0.00436887
0.00936527
0.00129595
0.0125231
-0.00171525
-0.00225564
0.000640137
0.0146967
-0.00614895
0.00534871
-0.00336811
0.00191935
0.014591
-0.00765522
-0.00316651
0.00305429
0.00779982
0.0100097
-0.00795297
-0.00276574
0.00311869
0.0121072
0.00173182
-0.0067385
-0.00206862
0.00095701
0.0160429
-0.000500568
-0.00469686
0.00741836
-0.000136472
-0.00524715
0.0114371
0.000239132
-0.0103794
0.0125956
-0.00897472
-0.0142334
-0.0141603
0.00842162
0.00571773
-0.0241212
0.00412159
-0.0185625
0.00624922
-0.0165768
-0.0113455
0.00929065
0.00788746
0.00962777
-0.0341386
-0.0238343
0.00756527
0.0111611
0.00743142
-0.0100729
-0.0324424
-0.00921135
0.00783411
-0.00167965
-5.16935e-05
0.00786923
-0.00663604
-0.010456
0.0116004
-0.00768851
-0.0142391
0.0104418
0.0106383
-0.000676916
-0.00888822
0.0103884
-0.00158578
0.00803397
-0.00760414
0.00361633
0.00104676
0.00486774
-0.00347484
0.00552294
-0.00630438
0.0139965
-0.0121403
-0.00345466
0.0108191
-0.0170416
-0.00260409
0.00572539
-0.01698
-0.000950373
-0.00119016
0.00210312
-0.00830679
0.00856808
0.0095803
-0.00964507
0.0111106
0.0111589
-0.00501685
0.0118605
0.0117539
-0.00222818
0.010522
0.00448596
-0.0111698
0.010854
0.00311208
-0.00931675
0.0119839
-0.00216659
-0.00506842
0.0116033
-0.00477639
0.00964955
-0.00615885
0.00228931
0.00354858
0.00113488
0.00814658
0.00714828
-0.00148951
0.0111364
0.00845399
0.000453042
0.00726691
0.00669894
-0.00917385
0.0101863
-0.00055552
-0.0069815
0.00403846
0.00213475
0.000229546
0.00174933
-0.00190158
0.00511622
-0.00630587
-0.00143324
-0.00226201
0.0187538
-0.00380233
-0.0191855
0.0170154
-0.00146035
-0.00170056
-0.0160901
-0.011862
-0.00098894
0.00344015
-0.00856976
-0.0107085
-0.0133072
0.0067211
-0.00597641
-0.0049493
0.000934178
0.00140839
0.000391801
-0.00208974
-0.00428092
-0.000991384
0.00399845
-0.00261686
-0.000425228
0.00182735
-0.00239489
0.00131759
-0.00383475
0.00682349
0.00071469
-0.0111819
0.000642657
-0.00349147
0.0105919
-0.00346635
-0.00442442
-0.0190828
0.0141202
-0.0118943
-0.0195061
-0.0117834
0.00782775
0.00428672
-0.0266587
-0.01538
0.00257255
0.00932793
0.010521
-0.0356174
-0.016455
0.0130625
0.0018285
0.0104205
-0.0423133
-0.0146074
0.00983128
7.76637e-05
0.011291
-0.0436706
-0.0107607
0.00323269
-0.00153988
0.0103207
-0.043147
-0.00614219
-0.00151065
-0.00184901
0.00886833
-0.0394708
-0.00332795
-0.0044935
0.00405121
-0.0347246
-0.00117358
-0.00710608
0.00647576
-0.00305034
-0.0321646
0.00134538
-0.00611001
0.00560694
-0.00350431
-0.0291203
0.00265356
0.00448198
-0.00398685
-0.00629578
-0.028925
0.00205108
0.00397207
-0.00355605
-0.00277444
-0.0298319
0.000184392
0.00183302
-0.00121765
-0.0277765
-0.00161751
0.00138488
-0.00193635
-0.0229755
-0.0026562
0.0015516
-0.00379271
-0.0301594
0.00171244
0.0226364
-0.0172406
-0.0592882
0.0293235
-0.0129366
0.0123688
0.00601568
-0.0199084
-0.00135397
-0.013217
-0.0251933
-0.0091817
-0.0122536
-0.00048593
-0.00875325
-0.0111561
0.000614179
0.000288691
-0.0094287
-0.000589402
0.000521247
-0.00580402
-0.00376699
0.00146174
-0.00310332
-0.00399909
0.00104671
-0.00453676
-0.000259633
-0.00445803
0.000802924
-0.000928899
-0.00684464
0.0020489
0.000274516
-0.0107854
0.00220497
0.00165615
-0.0130975
0.000814951
0.00141858
-0.0133651
-0.000354941
0.000552788
-0.0130751
-0.00175078
0.00140669
-0.0236468
0.00142159
0.00907546
-0.0568488
0.0175026
0.0154927
-0.101284
0.00882638
0.035036
-0.117938
-0.00590576
0.0218658
-0.127288
-0.0116282
0.0202035
-0.133712
-0.0165269
0.0221164
-0.137363
-0.022219
0.0249856
-0.13869
-0.0272888
0.0277044
-0.138612
-0.0307752
0.0297734
-0.137801
-0.0329293
0.0311931
-0.136345
-0.0341762
0.0318045
-0.134202
-0.0348204
0.0317755
-0.130366
-0.0353247
0.0306173
-0.122401
0.027832
-0.0366312
-0.103261
0.0208006
-0.0406999
-0.0534503
0.00331819
-0.0537473
-0.0226122
-0.00122788
-0.0298291
-0.0123805
-0.00428443
-0.0060246
-0.0121024
0.00199011
-0.00232323
-0.0112026
0.00432897
-0.00529953
-0.00876705
0.00384359
-0.00635963
-0.00425193
0.00401043
-0.00860991
-0.00478818
0.00347685
-0.00301182
-0.00805608
-6.10661e-05
0.00327814
-0.0078179
0.00235839
-0.00266774
-0.00893303
0.00102732
-0.0138043
0.00698127
-0.00220855
-0.0166387
0.00714798
-0.00442357
-0.0189162
0.00764472
-0.00546982
-0.0237741
0.00700373
-0.00225058
-0.053324
0.0187362
0.0106172
-0.0979542
-0.00806987
0.0521265
-0.110957
-0.0316622
0.0439442
-0.112422
-0.0418148
0.0424692
-0.107722
-0.0476588
0.0421367
-0.0989238
-0.052128
0.0424727
-0.0862062
-0.0543459
0.0408037
-0.0691978
-0.0558451
0.0380169
-0.0494111
-0.0568175
0.0362649
-0.0237084
-0.0481253
0.0217859
-0.0376654
0.0135184
-0.0535062
0.0231728
-0.00779912
-0.0592864
0.0253633
-0.0200859
-0.0593308
0.0266808
-0.0271626
-0.0502959
0.0264601
-0.0360212
-0.0402109
0.024381
-0.0349688
-0.0230402
0.0165623
-0.0342002
0.00941529
-0.0328942
0.0272591
0.0380748
-0.0565554
0.0510298
0.0494666
-0.0740032
0.0749077
0.0495649
-0.0742626
0.0950849
0.0497884
-0.07079
0.11082
0.0469951
-0.0635864
0.119026
0.0396825
-0.0487112
0.116975
0.0329205
-0.0316802
0.101268
0.0300508
-0.0150633
0.0545045
0.0398469
0.00634273
0.0254721
0.025042
0.00379401
0.0213622
0.00417733
-0.000172137
0.019449
0.000588947
0.0012217
0.0158699
0.000297075
0.00317212
0.00913142
-0.000250483
0.00689042
-0.000927053
0.00997069
-0.000973083
-0.00971043
0.00966071
0.000714923
-0.0131032
0.0113062
0.00255719
-0.0142333
0.0122679
0.00406215
-0.0135657
0.0119252
0.00430839
-0.0191629
0.0187388
0.00782945
-0.0286328
0.0248266
0.00381423
0.0236229
-0.0198914
-0.00020027
0.0168996
-0.0130643
-0.000394008
0.00843831
-0.00838023
-0.000553024
0.00774779
-0.00771198
-0.0010934
0.00737447
-0.00694308
0.00631706
-0.00647892
0.00343728
0.00545946
-0.000283829
0.00321387
0.0061958
0.00133003
0.00330893
0.00592017
0.00165483
0.00397418
0.00478793
0.00290691
0.0103316
0.0116074
-0.00117094
0.0194123
-0.00900699
-0.000119176
0.00910112
-0.00420948
0.0144799
-0.0230534
-0.0114235
0.0435082
-0.0155419
-0.00576093
-0.00182909
-0.000982571
0.00358169
0.00487216
-0.00945215
0.00605549
-0.00260373
0.00361907
-0.00178799
-0.00826667
0.000433688
-0.00918003
-0.0102625
-0.0126569
0.0184388
-0.00482507
-0.0307484
0.0032313
0.00366453
0.00405781
-0.0175588
-0.04969
0.00587324
0.0101416
0.000843625
-0.0581735
-0.015671
0.0262161
-0.00422466
-0.0204039
0.00617174
-0.00324685
-0.0202877
0.00561169
-0.00226708
-0.0206457
0.00530808
-0.000895942
-0.0190261
0.00443925
-0.0149862
0.00403258
-0.0211252
0.00226345
0.00404779
-0.0219421
-0.00134729
0.00263895
-0.0178896
8.69692e-05
0.00543362
0.00165392
-0.0465939
0.0354501
0.00830173
0.00805945
-0.115088
0.035049
0.0514845
0.0209162
-0.125192
0.047292
-0.00799134
-0.126053
0.0547582
-0.021844
-0.118242
0.0645084
-0.0335131
-0.103321
0.0731556
-0.0419638
-0.0842111
0.0768854
-0.0470745
-0.0615951
0.0746627
-0.048553
-0.0366955
0.0743106
-0.0505575
0.0504048
-0.0330305
0.0588498
0.0458271
-0.0304986
0.0684421
0.0517262
-0.0354834
0.068749
0.0528774
-0.0271285
0.0633454
0.0506095
-0.0204501
0.0439143
-0.006089
-0.0881981
0.0718689
0.00261194
-0.0979881
0.0755036
-0.0160127
-0.0994927
0.0799639
-0.0265242
-0.0881745
0.079201
-0.0397353
0.0719209
-0.0408662
0.0879996
0.0945239
-0.0368308
0.09762
0.101709
-0.033058
0.0944845
0.101119
-0.0189495
0.0819176
0.0960542
-0.00887457
0.0903389
0.00676318
-0.0812567
0.103441
0.0129411
-0.0944625
0.11054
-0.00220158
-0.0983521
0.116034
-0.0119863
-0.0904572
0.116935
-0.0240822
0.111495
-0.031464
0.0869866
0.124334
-0.0276056
0.0946513
0.128356
-0.0200618
0.091238
0.126486
-0.00801536
0.0783201
0.120377
0.00214541
0.112121
0.0166292
-0.0724433
0.116696
0.0193336
-0.0843769
0.12547
0.00590288
-0.0867065
0.13207
-0.00423349
-0.0787864
0.134482
-0.0150259
0.131423
-0.0223049
0.0681841
0.132097
-0.0150361
0.0760798
0.134831
-0.00922198
0.0749957
0.131229
0.000948396
0.0640641
0.124811
0.0106539
0.115503
0.0225748
-0.0525699
0.105781
0.0297753
-0.064603
0.116358
0.0195426
-0.0641557
0.119952
0.00986624
-0.0562156
0.125379
0.000548799
0.12627
-0.00404003
0.0351424
0.0191884
0.0613788
0.0446707
0.0514254
0.0947448
0.0134763
0.0547363
0.0925035
0.0232622
0.0357258
0.0483045
0.0452375
0.0408877
0.0445178
0.0365265
0.0515008
-0.0122945
0.0268481
0.0153816
0.0143663
-0.0187234
0.0276696
0.0150843
-0.0152844
0.0311448
0.0135173
-0.0135295
0.0290631
0.0142105
-0.0399578
0.0275484
0.0407809
-0.000789758
0.0248847
-0.0283937
-0.00826921
0.0385139
0.00581001
-0.0370445
-0.00679238
0.0299697
0.0054884
-0.0371114
-0.00458504
0.029086
-0.03656
0.00509676
0.0258786
0.00347729
0.0038063
0.00515563
0.00491818
0.00715762
0.00680312
0.00761786
0.009052
0.00892661
0.00839649
-0.00414564
-0.0199552
0.0156918
0.0026672
-0.000611386
0.000590436
0.00625019
0.00290055
0.000297843
-0.000535234
0.000354615
0.00409173
-0.00155065
-0.00243969
-0.00132359
0.00411372
-0.00165583
-0.000489657
0.00117733
0.0106012
0.0120907
0.0316278
-0.0532332
0.0053968
0.0177953
-0.00424281
-0.00729817
0.0568607
0.00124178
-0.015079
0.00284251
0.00353037
-0.0065544
0.00505116
0.00398324
-0.00620661
-0.022213
0.00970225
0.0175216
-0.00940439
-0.0125335
-0.000318726
0.0179394
-0.00257092
0.0239362
-0.00790234
0.0462883
-0.0127195
0.0215692
0.0766483
-0.0247558
-0.032713
0.00458399
0.00707625
0.0297835
0.00211221
-0.0175622
0.00802741
0.01367
-0.00405416
-0.0106594
0.00846266
0.0149738
-0.00405018
-0.0114654
0.00756701
0.0144508
-0.00237064
-0.011291
0.00612724
0.0128051
-0.0104417
-0.00102235
0.00367377
0.0105419
-0.00880516
0.000629421
0.00874053
-0.00791086
0.00276367
0.00844455
-0.00315577
0.00338103
0.00804304
-0.00280202
0.00314847
0.0152042
-0.0080939
0.000855484
0.0393036
-0.0159725
-0.00834571
0.0728833
-0.0389334
0.00473503
0.0829658
-0.0276586
0.0168167
0.0845202
-0.0235134
0.0211252
0.0819515
-0.0202582
0.0219544
0.0767493
-0.015837
0.0201363
0.0697794
-0.00874688
0.0147984
0.060398
0.00168503
0.00676839
0.0419087
0.0174973
6.41382e-05
0.0146063
0.0414278
-0.0150434
-0.00547544
0.0552505
-0.0360712
-0.00180385
0.0502966
-0.05484
0.0121936
0.0392722
-0.0541027
0.0154647
0.0263164
-0.0303459
0.00960815
0.0287692
-0.02353
0.0021412
0.011288
-0.00403934
0.000426068
0.00382553
-0.00218737
-0.000397812
0.00177944
-0.00101015
-0.00208462
0.0032625
-0.00164522
0.00314639
-0.00227887
0.00320912
0.00522475
-0.00146631
0.000174276
0.00661253
-0.000390609
0.00211219
-0.000180037
0.00651794
-0.000608861
0.00168772
0.00595012
-0.00377985
0.00254716
0.00557801
0.00620126
0.00102521
0.0116638
0.0170279
-0.0107966
0.0154723
-0.0105536
0.0235284
0.0241
-0.0301103
0.0433855
0.0145243
-0.0444877
0.0505576
0.0131813
-0.0628312
0.0463145
0.0263272
-0.0787168
0.0293502
0.0269981
-0.0897046
0.00762011
0.0198925
-0.0952193
-0.00864046
0.0148671
-0.0986382
-0.0208814
0.0145871
-0.100842
-0.0294442
0.0148568
-0.101038
-0.0351948
0.0141961
-0.0976649
-0.0395503
0.0117421
-0.0887887
-0.0439483
0.00650529
-0.03194
-0.0406295
-0.0447807
-0.0113551
-0.0184515
-0.0104277
-0.0192052
0.00261679
-0.0153961
-0.00710682
0.00132139
-0.00576771
0.000261713
-0.00944891
0.000857441
-0.00380041
0.00166115
-0.00748775
0.000991994
-0.00881473
0.0158505
-0.00017875
-0.00795924
0.015858
-0.00184008
-0.00615206
0.0139455
-0.00216419
-0.0020405
0.0198233
0.00570745
0.0204739
0.107109
-0.0445434
-0.00955848
0.00401017
0.03071
0.00547175
0.007624
0.0105274
-0.000247775
0.00843476
0.0143006
0.000667951
0.0151609
0.00192746
-0.0162576
-0.0197834
-0.0126705
0.0308608
-0.0202794
0.0463397
-0.0178769
-0.0511142
0.107037
-0.0246095
-0.0521402
0.121984
-0.0150138
-0.104512
-0.0443956
0.125793
-0.0301893
-0.0753066
-0.0286
-0.0174047
-0.0288713
-0.0143022
-0.00285524
-0.0403532
0.0170267
-0.00209183
-0.0241578
-0.00526581
0.0279824
-0.00542525
-0.0085451
0.0163772
-0.00783557
-0.00930038
0.0144938
-0.00617316
-0.0094535
-0.0118341
-0.00271691
0.0501937
-0.0212531
-0.0125849
-0.00609018
0.000615787
-0.0119276
-0.00846691
-0.000107536
-0.00874671
-0.00712975
-0.00156874
-0.00497615
-0.00438297
-0.0015791
-8.13901e-05
-0.000748012
-0.00375737
-0.000455657
-0.00987355
7.03697e-06
0.000442499
0.00127489
-0.0016996
0.00137489
-0.00206871
0.00335591
0.0017513
-0.00264229
0.00437628
0.00206063
-0.00197313
0.00371919
0.00175429
0.00267284
0.000706261
0.0045005
0.00263837
-0.0010581
0.00469686
0.00384829
-0.000401238
0.00455192
0.00492551
-0.000485341
0.00482769
-0.000750683
-0.00635607
0.0108801
-0.00418977
-0.00618943
0.0109046
-0.00625742
-0.00532595
0.010059
-0.00717964
0.00901597
-0.00778434
0.0065622
0.0118761
-0.00566609
0.00798597
0.0136054
-0.0050689
0.00817015
0.0151276
-0.00451374
0.0149338
-0.00311986
-0.00918213
0.0168751
-0.00132644
-0.0093065
0.0178808
-0.00273488
-0.00965171
0.0177777
-0.00393152
0.0104844
-0.00400753
0.0128688
-0.000416082
0.0102297
-0.00167418
0.00748844
0.023302
-0.00289633
0.00734194
0.018316
-0.000378838
0.0173092
0.000738921
-0.00882408
0.0484966
-0.0252123
-0.00518408
0.0421869
-0.0276555
0.0450211
-0.0283029
0.0293528
0.117741
-0.0575508
0.1276
-0.0450602
0.0507532
0.135044
-0.038648
-0.0205946
0.0554034
0.134974
-0.0149474
0.0520321
0.130229
-0.00598965
0.115415
-0.00134052
-0.0502286
0.119879
0.00519352
-0.0559405
0.135207
-0.000348504
-0.053467
0.140903
-0.00948544
-0.0448158
-0.0146226
0.139995
-0.1283
-0.0233099
0.133704
-0.0293148
-0.0128423
-0.0511561
-0.114459
0.0286369
0.119443
-0.106124
-0.0667835
0.118449
-0.038422
-0.0495654
-0.0680799
-0.00479091
0.0138632
-0.0135232
-0.0193467
-0.0195693
-0.0099884
-0.00602988
-0.0131308
-0.00290557
-0.014021
-0.00406307
0.00257549
-0.0143949
-0.00817744
0.00317146
-0.0127542
-0.0106149
0.00252789
-0.00980789
-0.0145052
0.00285866
-0.0107456
0.00114161
-0.0137787
0.0160627
-0.0137373
0.000611503
-0.00948819
-7.70194e-05
-0.0153554
0.0144795
-0.00157835
-0.0167581
0.0116554
-0.0027123
-0.0180411
0.00966096
-0.00145834
0.0149504
-0.0254692
0.01109
0.0252102
0.0187231
0.0207337
-0.0498529
0.0188553
0.0161697
0.0178292
-0.0277757
0.0305692
0.0160518
0.0191719
-0.0470732
0.0213649
0.0134262
-0.0227453
0.0183949
0.0392767
-0.0422129
0.00893237
0.0152681
0.0201006
0.046352
-0.0101117
-0.0171656
0.025384
0.0301219
-0.0202487
-0.0152848
-0.0172327
-0.0206084
0.00991294
-0.0182638
0.00381684
-0.0127812
-0.0179507
0.00437215
-0.01724
-0.0122909
0.00330532
-0.0161295
-0.0141051
0.00228123
-0.0167772
0.00209822
-0.0176663
-0.0170577
0.0174566
0.000373692
-0.0162706
-0.000771585
-0.018378
0.0156406
-0.00199006
0.0130076
-0.00309144
0.0175529
0.014328
-0.00279065
0.0174342
-0.00140716
0.0164805
0.0182449
-0.0170309
-0.00036554
0.0183926
0.00133223
-0.0151204
0.00285788
-0.0154842
0.00100858
0.0175038
-0.015411
-0.00120319
0.0144798
-0.00214715
-0.00752691
-0.0160226
0.0235922
0.0168619
-0.00150763
-0.0143861
-0.0171472
-0.0262089
-0.0242727
-0.00256543
-0.105271
0.103859
0.007546
0.00121092
0.0182435
0.0127114
0.0239177
0.0146977
-0.0202611
0.0176498
-0.0084618
0.0179668
-0.0122435
-0.00477304
0.00236013
-0.000511604
-0.00555176
0.00484958
-0.00582333
-0.00170873
-0.00210816
-0.00217567
-0.0037922
0.0131648
-0.000990619
-0.0031626
-0.00140326
-0.00338353
0.0163849
-0.0200766
-0.0115642
0.0154781
0.0068869
-0.0116037
0.0176081
0.00911757
-0.0132673
0.0202254
0.00893779
-0.0142024
0.0229821
0.00892124
0.030208
0.0120009
0.0098884
0.0134981
0.0125045
0.00948545
0.0132858
0.00991996
0.00785056
0.0119324
0.00975715
0.0060765
0.0108096
0.00841849
0.0100038
0.00700239
-0.0022063
0.00342586
-0.00261907
0.0041667
-0.00328626
0.00476293
-0.00392062
0.00540729
0.00651704
0.00166356
0.00290607
0.00142598
0.000511589
0.000410535
0.00139551
-0.000144949
0.00198793
-0.00155116
-2.91872e-05
-0.000930769
0.00195098
0.000964277
-0.000329901
0.000791848
-0.000434034
0.00182808
-0.0011167
0.00121512
-0.000535563
0.000311666
-4.84913e-06
0.00202595
-0.00174643
2.88506e-05
0.00379635
-0.000559691
-0.00359623
0.0111578
-0.00639367
0.00357961
-0.0180397
0.00336189
0.0170708
0.00388935
-0.0181471
0.0204448
0.00715431
0.00293725
0.00677417
-0.0170817
0.0208592
0.000289239
0.00596533
0.0198053
-0.0148507
-0.0136309
0.0141955
0.00503544
0.0109858
-0.00739028
0.0172013
-0.00765918
0.0172827
0.0109122
-0.000408428
0.01999
0.00717993
0.00333947
-0.00115214
0.00152942
-0.00351985
0.000373817
-0.00229302
0.0126053
0.001355
-0.00233793
0.000790326
0.000619457
-0.000777596
0.0015113
-0.000568255
0.00155983
-0.000392791
-0.00124316
0.00106642
-0.00207041
0.000898545
-0.000211028
-0.000225088
-0.00163578
-0.000455186
-0.00209577
0.000247618
-0.00185693
0.00140265
-0.00138152
0.000391426
0.000112201
-0.00188641
0.000170918
-0.0014167
-0.000660507
-0.00126628
-0.0024071
0.00114953
0.00124121
0.000227743
0.00047345
-0.00129839
0.000447916
-0.0016837
-0.000480032
0.000536836
0.000389597
0.000109652
6.87998e-05
-0.000659835
0.00104451
0.000304617
0.000313032
-0.000891962
-0.00161336
0.00281496
-0.000776017
0.000271
0.000179767
-0.000889392
-0.00113193
0.00380519
0.00137713
-0.000360981
-0.0030307
0.0122846
-0.00264913
-0.00129514
-0.00174924
9.61449e-06
-0.000830706
0.000258978
-0.000726348
0.000329913
-4.15769e-05
-0.00112141
-4.5316e-05
0.00188345
-0.000307576
-0.00162451
-0.00132348
0.00321222
-0.000895077
-0.000172567
-0.00124677
0.00111847
0.0020442
0.000343246
0.000324438
0.000921847
-0.000130388
0.00191634
-0.0014227
-0.000172558
-0.00137143
0.00320016
8.32516e-05
-0.000650949
0.000198186
0.00286298
-0.00405725
0.013316
-0.00112575
-0.018061
0.000740907
0.00705474
0.0245648
-0.0164925
0.0219177
0.00640756
-0.0177788
0.0226022
-0.00210298
-0.0148999
-0.00439407
-0.0206946
-0.0218715
-0.00631888
-0.0219032
-0.00573585
0.0151662
-0.00262863
0.0198017
0.0318009
0.0374652
-0.0235989
-0.101144
0.0666058
-0.0967653
0.0700739
-0.107846
0.0712868
-0.0171059
-0.110088
0.0687002
-0.0248651
-0.106621
0.0674485
-0.0296697
-0.0981234
0.066279
-0.033205
-0.0860034
0.063603
-0.0358135
-0.0685515
0.0576323
-0.037951
-0.0487258
0.0532102
-0.0376713
-0.0385914
0.0426108
-0.0317066
0.00451158
-0.029996
0.0172126
0.0321506
-0.045519
0.0148067
0.0447853
-0.0430469
-0.00702229
0.0478719
-0.0264542
-0.0341528
0.0266918
-0.0509056
-0.0129735
0.0292592
-0.0596518
-0.0245428
0.0327862
-0.0620576
-0.0310378
0.0329174
-0.0557512
-0.0382166
0.0313839
-0.047786
-0.0352923
0.0268242
-0.0303987
-0.033586
0.0157316
0.00326128
-0.0340987
0.0201223
0.0446237
-0.0621215
0.0427377
0.0556456
-0.0790271
0.0680235
0.0549306
-0.0810363
0.0880864
0.0523854
-0.0732728
0.0991187
0.0477201
-0.0596091
0.0997426
0.0400003
-0.0414464
0.0935981
0.0341528
-0.0288188
0.0815031
0.0310523
-0.0196777
0.0461723
0.0378182
-0.00306092
0.0222976
0.0228159
0.0008623
0.0192126
0.00393627
-0.000955992
0.017874
0.000528604
0.000707254
0.0147224
0.000154689
0.00288649
0.00848713
2.22059e-05
0.00611416
0.00903193
-0.00063242
0.00709341
0.00351526
-0.00164737
0.00449678
0.00386305
-0.00131353
0.00467509
0.0017333
-0.00197441
0.0055501
0.00193886
-0.00289272
0.00516688
0.0031141
-0.00280869
0.00397466
0.00336404
-0.00224138
0.00293029
0.00268323
-0.00169348
0.00469774
0.00166563
-0.0035101
0.00848464
0.00301826
-0.00702367
-0.0269931
0.0334444
0.00141544
-0.0524727
0.0225623
0.0021582
-0.0641177
0.0106121
0.000199068
-0.0666959
-0.000560992
0.00226616
-0.069854
-0.0151774
0.0174311
-0.0747038
-0.0305485
0.0344761
-0.0759364
-0.0454994
0.0457951
-0.0731731
-0.059061
0.0553526
-0.0629113
-0.0713371
0.0601232
-0.0449325
-0.0812841
0.0623482
-0.017016
-0.0879741
0.0590943
0.0173253
-0.0841584
0.0488564
0.032858
-0.0590131
0.042519
0.0320206
-0.0454134
0.0453284
0.0244347
-0.0358213
0.0425039
0.0105836
-0.0267297
0.0397537
-0.000153038
-0.0235305
0.0334653
-0.0349738
0.0340715
-0.0506458
-0.0198128
0.034687
-0.057868
-0.0345755
0.0409869
-0.058302
-0.0493816
0.048941
-0.0497656
-0.0643815
0.05497
-0.0258015
-0.0818876
0.0570249
0.00439916
-0.0831975
0.0521208
0.00974318
-0.047172
0.0409627
-0.00782082
-0.0266146
0.0433687
-0.0209485
-0.0287489
0.0410908
-0.00455302
-0.0607175
0.0435838
-0.0525672
0.043347
-0.0153175
-0.0693496
0.00179747
0.0184005
-0.0552509
-0.0400694
0.0286116
-0.0399813
0.000145912
0.0322981
-0.0480185
0.0168232
0.0308124
-0.0776828
0.0310723
0.0415663
-0.126609
0.0317192
0.0550093
-0.123714
0.0274381
0.0576829
-0.0966163
0.02863
0.0527091
-0.0731822
0.0278688
0.0420925
-0.0522487
0.0274298
-0.0306434
0.0285699
-0.0374589
-0.0479765
0.0271913
-0.0395009
-0.0577316
0.023023
-0.0338862
-0.0688334
0.0168349
-0.00565586
-0.0849545
-0.00328694
0.0350413
-0.119878
-0.00598368
0.061062
-0.125643
0.0106424
0.0762326
-0.118945
0.0214886
0.0834251
-0.104634
0.025108
0.0825119
-0.0863534
0.0272157
0.0782482
-0.0658202
0.0236022
0.0707377
-0.0442173
0.0202074
0.0654863
-0.0224544
0.0115703
0.0609199
-0.0013418
0.00440572
0.0500049
0.0146141
0.0059864
0.0278713
0.0314069
0.0123727
-0.00675869
0.0049963
0.0455959
0.0164964
0.00851901
-0.00257112
-0.00894186
-0.0039186
0.0156174
-0.00135866
-0.000879924
0.0109786
-0.000993222
0.00386396
0.00163988
0.0160339
0.000331202
-0.00953442
0.00404653
-0.00659572
0.0270874
0.00414855
-0.00870696
-0.00773399
-0.000133798
0.00155363
-0.00791322
-0.00237578
0.00148663
-0.0064178
-0.00366301
0.000726584
-0.00481107
-0.00473099
0.000471714
0.00172786
-0.00344962
-0.000460334
0.00428281
-0.000912598
-0.00169303
-0.000334602
-0.000238531
-0.00112383
-0.000680715
-0.000568527
-0.000576774
-0.000526132
0.000419625
-0.000925605
-0.00318994
0.0128014
-0.00531738
-0.0115631
0.00304055
0.0224619
-0.0074316
-0.00942403
0.0635497
-0.0308925
-0.0283365
0.0185743
0.0604275
-0.0243294
0.0287021
0.0437329
-0.0188721
0.0348443
0.00362676
-0.00955247
0.0509872
-0.0333537