/*--------------------------------*- C++ -*----------------------------------*\
| =========                 |                                                 |
| \\      /  F ield         | OpenFOAM: The Open Source CFD Toolbox           |
|  \\    /   O peration     | Version:  v2012                                 |
|   \\  /    A nd           | Website:  www.openfoam.com                      |
|    \\/     M anipulation  |                                                 |
\*---------------------------------------------------------------------------*/
FoamFile
{
    version     2.0;
    format      ascii;
    class       volScalarField;
    location    "1195";
    object      epsilon;
}
// * * * * * * * * * * * * * * * * * * * * * * * * * * * * * * * * * * * * * //

dimensions      [0 2 -3 0 0 0 0];


internalField   nonuniform List<scalar> 
18258
(
0.0242651
0.012384
0.00925263
0.00729007
0.0127411
0.0126596
0.0131129
0.0174791
0.0243316
0.0372079
0.0537958
0.0482983
0.0436308
0.0453414
0.0474762
0.045013
0.0350214
0.0302848
0.0397991
0.0665455
0.0610208
0.0498084
0.0611374
0.0515242
0.0654254
0.0825623
0.0632502
0.0569692
0.0511451
0.0480888
0.0414571
0.0232578
0.0346213
0.0534789
0.0728713
0.0795494
0.0851545
0.089791
0.0950051
0.0971212
0.0973542
0.0921337
0.0829618
0.0679695
0.050089
0.0387681
0.0311638
0.0306076
0.0431433
0.0442596
0.0550086
0.0847328
0.107172
0.0805486
0.0517131
0.0822915
0.112142
0.143854
0.1704
0.192906
0.200702
0.197357
0.185896
0.169218
0.147806
0.122834
0.101841
0.0849115
0.0671198
0.0573159
0.0463537
0.0384321
0.0328568
0.0291903
0.0269848
0.0252635
0.0241016
0.0250301
0.0249154
0.0177709
0.013978
0.0131285
0.00939057
0.00780377
0.00811734
0.00771596
0.00801199
0.0070715
0.00605776
0.00526121
0.00446396
0.0065059
0.0070041
0.00724661
0.00726796
0.00778715
0.00803048
0.00776475
0.00785595
0.00717619
0.0076034
0.0120676
0.0137918
0.0174965
0.0156938
0.0109996
0.00901689
0.0100681
0.010682
0.0133057
0.0125613
0.0133317
0.0118201
0.0108024
0.0091151
0.00884254
0.00907022
0.00964138
0.0100395
0.0116585
0.0114906
0.0106624
0.0117884
0.0130065
0.0127353
0.0121952
0.0116083
0.0142481
0.0114337
0.012116
0.013613
0.021933
0.021463
0.0259782
0.0254999
0.0259348
0.0261149
0.0315117
0.0316334
0.0320142
0.0323339
0.0340814
0.0570634
0.0508331
0.0497193
0.0495242
0.0428297
0.0423708
0.0416875
0.0425046
0.0359863
0.0346322
0.0314134
0.0310586
0.0346621
0.0437782
0.0612637
0.0885257
0.122476
0.158815
0.189079
0.210037
0.231763
0.23705
0.250902
0.255565
0.256469
0.250821
0.242409
0.232954
0.220092
0.201478
0.188527
0.148134
0.104857
0.0589912
0.078264
0.090241
0.0999442
0.101879
0.103083
0.0991008
0.0929861
0.081899
0.06648
0.0432983
0.0479488
0.0651877
0.0676884
0.0685518
0.0544673
0.0525516
0.048938
0.0490167
0.0645664
0.0738738
0.0620169
0.0855176
0.100558
0.0880167
0.063897
0.0978101
0.14325
0.0804992
0.0682501
0.0525632
0.0515118
0.0434567
0.0368659
0.0631055
0.094078
0.128596
0.1493
0.170777
0.188022
0.201078
0.214965
0.18689
0.169849
0.114455
0.200017
0.151432
0.0764894
0.0563539
0.0544384
0.0462889
0.0517553
0.0567829
0.0524319
0.0405501
0.0279104
0.0245871
0.0464373
0.0648842
0.0784296
0.0622963
0.0792702
0.0895583
0.0968926
0.102231
0.129873
0.0958128
0.105861
0.0755315
0.102592
0.0726047
0.0466227
0.0523581
0.0999541
0.159413
0.218005
0.254685
0.144378
0.0730635
0.0541753
0.054026
0.0523968
0.0475465
0.0591489
0.1053
0.0717291
0.0464603
0.0402302
0.0474158
0.0417006
0.0309126
0.0325811
0.039941
0.0550276
0.0683699
0.0811613
0.124338
0.121232
0.146306
0.153379
0.129335
0.12518
0.0809414
0.0829424
0.122052
0.0910957
0.0736184
0.103515
0.146681
0.200932
0.247259
0.287603
0.313317
0.302938
0.274147
0.173531
0.076014
0.0229135
0.0178281
0.0168795
0.0173522
0.0105416
0.0063035
0.00584888
0.00665275
0.00700477
0.00591399
0.0054456
0.00543693
0.00577692
0.0101831
0.0087536
0.0108272
0.0131149
0.0156593
0.0186989
0.0194227
0.0128856
0.00872082
0.00818233
0.00811642
0.00804569
0.00801428
0.00802367
0.00806164
0.00807524
0.00804104
0.00796115
0.00782367
0.00768833
0.00763137
0.00826612
0.0111504
0.015311
0.0148155
0.0135292
0.0121777
0.0110216
0.00869789
0.0151213
0.0128263
0.0109177
0.0133653
0.0164601
0.0207979
0.0244316
0.0176187
0.0141034
0.0127613
0.0126324
0.0125141
0.012554
0.0124256
0.0124821
0.0122736
0.0128537
0.0135412
0.0169436
0.0189711
0.0211613
0.0226691
0.0232614
0.0239733
0.0211076
0.0229953
0.0227249
0.0235025
0.02332
0.0226291
0.0207031
0.0189021
0.0176729
0.0190811
0.0236334
0.0322525
0.0266553
0.0206833
0.0167333
0.013685
0.0149592
0.0166296
0.0168034
0.0158162
0.0155864
0.0153777
0.0138549
0.0130574
0.0110632
0.0104561
0.0100052
0.0101636
0.0143605
0.0134928
0.013676
0.0143955
0.0154722
0.0146349
0.0150664
0.0142366
0.0144854
0.0149062
0.0169804
0.0185288
0.0177733
0.0164682
0.0159705
0.0137027
0.0158037
0.0156616
0.0169821
0.0185632
0.0190534
0.0189904
0.018355
0.0167601
0.0186477
0.0220093
0.0256566
0.0246619
0.0243422
0.0204111
0.0192187
0.0201958
0.0214722
0.0223764
0.0224355
0.0222384
0.0223001
0.02625
0.0258276
0.0246492
0.0225825
0.0201386
0.0174887
0.0151041
0.0165768
0.0180534
0.0194401
0.0207066
0.0204981
0.0189671
0.01761
0.016382
0.0148925
0.0146162
0.0160671
0.017288
0.0187215
0.0204452
0.0205373
0.0188129
0.0173131
0.0160298
0.0145573
0.014515
0.0160149
0.0173153
0.0187376
0.0202314
0.019601
0.0184398
0.017185
0.0159404
0.014488
0.0145585
0.0158804
0.0169509
0.018037
0.0189907
0.0198388
0.0178782
0.0169666
0.0170551
0.0160668
0.0192421
0.0184878
0.0194291
0.0179814
0.0167632
0.0177693
0.0209549
0.0239818
0.0245336
0.0242538
0.0201269
0.020582
0.0205577
0.019143
0.0159289
0.0153313
0.0180876
0.0208085
0.0212676
0.019971
0.0168882
0.0132558
0.0142704
0.0174161
0.0197194
0.0184665
0.0183104
0.0169034
0.0158224
0.0161157
0.0138323
0.0165693
0.0265838
0.0240464
0.022022
0.019545
0.0155625
0.0105461
0.0114394
0.0125864
0.012999
0.0105104
0.00787462
0.00707242
0.00688092
0.00672382
0.00650586
0.00613773
0.0055811
0.00538807
0.0107421
0.026338
0.03663
0.0359323
0.0241912
0.0209199
0.0203316
0.0191566
0.00958337
0.00828287
0.00850966
0.0104477
0.00822893
0.00873649
0.0151458
0.0103067
0.0140727
0.0108664
0.0146322
0.0230507
0.021954
0.0146631
0.00805053
0.00686046
0.00734205
0.00762998
0.00783217
0.00802711
0.00825865
0.00864171
0.00995472
0.0156413
0.0201904
0.0176608
0.0166686
0.0152065
0.0187303
0.0212112
0.0231515
0.0259152
0.016037
0.0117305
0.016567
0.027142
0.0246263
0.0231646
0.0170595
0.0176013
0.0170451
0.0109568
0.0106148
0.0105338
0.0113462
0.0127253
0.0146458
0.0158127
0.0165621
0.0168881
0.0177921
0.0230676
0.0215894
0.021083
0.0173242
0.0133147
0.0153187
0.0513299
0.0194954
0.0206055
0.0188585
0.0191376
0.0204238
0.0151544
0.013521
0.012929
0.014608
0.0214674
0.0214752
0.0213321
0.018197
0.0174102
0.0208233
0.0219158
0.0223233
0.0217004
0.0212491
0.0193906
0.0166284
0.0180551
0.0195679
0.0207487
0.0227494
0.0230949
0.0178727
0.0171518
0.0157723
0.01049
0.0112325
0.00967465
0.00964626
0.00961252
0.00933926
0.00889276
0.00917944
0.00929492
0.00929151
0.00894856
0.00924317
0.00830941
0.00864432
0.00973186
0.0151668
0.0147378
0.0175343
0.0194462
0.0166987
0.015543
0.0141847
0.0131655
0.0154084
0.0142458
0.0168184
0.0211539
0.0264223
0.0190668
0.0180698
0.017843
0.0174351
0.0172759
0.0173242
0.0166374
0.0156433
0.0150815
0.02352
0.0212327
0.0181187
0.0171733
0.0157445
0.0179876
0.0174333
0.0213144
0.0267729
0.0269728
0.0214788
0.0215535
0.0189128
0.0200131
0.0221882
0.0270013
0.0269279
0.0143884
0.00956279
0.0153894
0.0157301
0.0183373
0.0169595
0.0184825
0.0196584
0.0203828
0.0202428
0.0176503
0.0188203
0.0196068
0.0205916
0.0185455
0.0165427
0.017328
0.0161088
0.0152122
0.0147169
0.0126496
0.0128892
0.013854
0.0153005
0.0162421
0.0177292
0.0193758
0.019408
0.0200712
0.019666
0.0190741
0.0251485
0.0239127
0.0254524
0.0281494
0.0223788
0.0177658
0.0146534
0.0149609
0.0147257
0.0146321
0.0153789
0.0167344
0.0151127
0.0144976
0.0169956
0.0193429
0.024597
0.0329066
0.0286363
0.0261059
0.0331349
0.0313282
0.0381288
0.0285928
0.0280832
0.0207929
0.026234
0.0304671
0.0391042
0.025444
0.0209008
0.0223715
0.0255065
0.0347233
0.0327161
0.0330548
0.0411003
0.0398771
0.0361523
0.0311353
0.0352606
0.0211872
0.0301369
0.0321604
0.0267816
0.0256465
0.0306618
0.0309993
0.0329461
0.0283371
0.0267162
0.0178662
0.0273583
0.0312877
0.0329824
0.0277426
0.0205033
0.0279494
0.0204956
0.019132
0.0202435
0.0137324
0.0126844
0.0147545
0.0138291
0.0111626
0.0121034
0.0111201
0.0111014
0.0111759
0.0112831
0.0114059
0.0116493
0.0115991
0.0125652
0.0132529
0.0125164
0.0114955
0.0121953
0.0126181
0.0161225
0.0182133
0.0204867
0.0220858
0.0229259
0.0240516
0.0226558
0.0248061
0.023724
0.0251775
0.0248672
0.0237962
0.0212844
0.018667
0.0163348
0.0170383
0.0207943
0.0275377
0.0225879
0.0175037
0.01418
0.0117566
0.0130443
0.0163774
0.0088418
0.00808201
0.00780465
0.0076617
0.0076052
0.00686408
0.0059373
0.00632732
0.0122334
0.0159765
0.0204264
0.0263754
0.0324737
0.0377063
0.041763
0.0447637
0.0467016
0.0472874
0.0446153
0.0339588
0.0290656
0.0247984
0.0203648
0.0164702
0.0167301
0.024422
0.0321048
0.0396679
0.046331
0.0513064
0.0493688
0.0330315
0.0298561
0.0461675
0.0778438
0.0737296
0.0968893
0.110629
0.0623335
0.0460873
0.0451183
0.0621793
0.0648891
0.0568695
0.0468481
0.0365232
0.0262424
0.0308441
0.0354396
0.0399261
0.0446925
0.0587084
0.0613649
0.0598945
0.0569501
0.0531975
0.0483399
0.0415212
0.0331975
0.0248667
0.0184263
0.0133524
0.00716703
0.00777419
0.00796004
0.00751866
0.00769622
0.00801315
0.00904917
0.00876113
0.00898906
0.0087859
0.00882905
0.00785431
0.00699033
0.0103027
0.00974547
0.00980208
0.0105768
0.0135962
0.0103616
0.00751288
0.00707352
0.00707861
0.00767101
0.0187635
0.0255866
0.0306691
0.0351936
0.038348
0.0371481
0.0338821
0.0283947
0.0222397
0.0199994
0.0168233
0.0142931
0.0130551
0.0143756
0.0117788
0.00572766
0.00522089
0.00575597
0.00558464
0.00510527
0.00616073
0.00686667
0.00749218
0.00792389
0.00823879
0.00829881
0.00823404
0.00813937
0.00809018
0.00806447
0.00802974
0.00795801
0.00785565
0.00770699
0.00756517
0.00749722
0.00808939
0.0107125
0.0146549
0.0144206
0.0133027
0.0121899
0.0113263
0.00960536
0.0154776
0.0131343
0.0110145
0.0101868
0.0100469
0.0103471
0.0113047
0.0129217
0.0138324
0.0158309
0.0158723
0.0157653
0.0160719
0.015864
0.013376
0.015171
0.0177549
0.0185605
0.0191507
0.0189203
0.0173769
0.019401
0.0205539
0.020026
0.0194322
0.0167177
0.0194956
0.0233052
0.0237319
0.0239627
0.0212759
0.018427
0.0215999
0.0227855
0.0224387
0.0233559
0.0217091
0.0224734
0.0277992
0.0145544
0.0136539
0.00839732
0.00903408
0.00937564
0.00918724
0.00889443
0.00925753
0.0094909
0.00913595
0.00981528
0.0101138
0.00934618
0.0119235
0.0110274
0.0107135
0.0101193
0.0104562
0.010941
0.011215
0.0125785
0.0200436
0.0206216
0.0185468
0.0212618
0.0218185
0.0181541
0.0207129
0.0216175
0.0219972
0.0223805
0.0237885
0.022224
0.0245278
0.0238599
0.0223263
0.0215813
0.0383571
0.0252757
0.0166576
0.0154146
0.0150675
0.0151118
0.0170031
0.0126618
0.0142112
0.00994893
0.00861885
0.00826374
0.0079928
0.00862385
0.0115251
0.0180527
0.0253623
0.0279223
0.0268423
0.0235811
0.0181517
0.0135348
0.013176
0.0118184
0.0110068
0.010835
0.00717804
0.00515933
0.00657464
0.00661806
0.00721308
0.00763315
0.00797521
0.00823112
0.00836998
0.00843838
0.00851442
0.00862467
0.00874345
0.00884328
0.00891899
0.00897078
0.00902643
0.00913936
0.00943848
0.0106335
0.0153017
0.0197306
0.0186284
0.017163
0.0158483
0.0166131
0.0173719
0.018114
0.0223214
0.0191673
0.022081
0.020727
0.0197373
0.0183272
0.0190499
0.020847
0.0165887
0.0165101
0.0112539
0.00983025
0.00946076
0.00925542
0.00909784
0.0089439
0.00879649
0.00866357
0.00853602
0.00842379
0.00833497
0.00824691
0.00811121
0.00787489
0.0074808
0.00706156
0.00618278
0.00675126
0.00744119
0.00840591
0.00951772
0.0100888
0.00953946
0.00878397
0.00843615
0.00853855
0.0087001
0.00888252
0.0090938
0.00939011
0.00985227
0.0108173
0.0114912
0.0161689
0.0168961
0.0202336
0.020043
0.017943
0.017297
0.018905
0.0174294
0.0127065
0.0174602
0.0169796
0.0212032
0.015699
0.014801
0.0151887
0.0156629
0.0183725
0.0172836
0.0158116
0.0157792
0.0127145
0.0142723
0.0162691
0.0177756
0.0280339
0.0274474
0.0346063
0.0345444
0.0597327
0.0567883
0.050044
0.0541972
0.0238374
0.0467192
0.0546552
0.0497493
0.0431529
0.0274887
0.0440295
0.0671227
0.0974088
0.0701731
0.057393
0.106859
0.077396
0.0376154
0.026714
0.0150794
0.0151567
0.0251813
0.0292611
0.0242497
0.0233912
0.0336485
0.0350201
0.0281772
0.0288738
0.0312635
0.0302016
0.0326834
0.0282746
0.0275915
0.0156003
0.0127993
0.0138255
0.0155496
0.0165417
0.0160242
0.0168711
0.0175526
0.0161201
0.015102
0.0145486
0.0124868
0.0132354
0.0162234
0.0204455
0.0239555
0.0172894
0.0138841
0.0125793
0.0123844
0.0121587
0.0120428
0.0117269
0.0115469
0.0110837
0.011298
0.00985045
0.00986121
0.0103913
0.010546
0.0107424
0.0108931
0.0110096
0.011118
0.0119945
0.0187828
0.0259962
0.0208028
0.0164913
0.0140122
0.015197
0.0171162
0.0210169
0.0264425
0.0178549
0.0176744
0.0115179
0.0107317
0.0105289
0.0103655
0.0102205
0.0101309
0.0101986
0.010204
0.0119295
0.011503
0.0133863
0.0144809
0.0119802
0.0115623
0.0111035
0.0108277
0.0106787
0.0106014
0.0106966
0.0115609
0.0113918
0.0104604
0.0103609
0.0104755
0.0106841
0.0110036
0.0114502
0.0119575
0.0128658
0.0126218
0.0111848
0.0112467
0.0106005
0.0102914
0.0100555
0.0100258
0.0100708
0.0102051
0.0104203
0.0113309
0.0171347
0.017314
0.0266547
0.02664
0.0211789
0.0177071
0.0155538
0.0143008
0.0135699
0.0353331
0.0310252
0.0491626
0.0392007
0.0313728
0.0509713
0.0725873
0.0563517
0.0919042
0.0992784
0.073047
0.0661815
0.0210161
0.016001
0.0154695
0.0169579
0.0186482
0.0212807
0.0218762
0.0266934
0.0288004
0.0171925
0.0165122
0.0155793
0.024909
0.0230839
0.0197023
0.017819
0.0164346
0.0189862
0.0207785
0.0149771
0.0150192
0.0096771
0.0106773
0.0104283
0.0100938
0.00998222
0.00991185
0.00994894
0.0100512
0.0103355
0.0108314
0.0112038
0.0113329
0.0116052
0.0113983
0.0111151
0.0107765
0.010575
0.0103784
0.010221
0.0101022
0.0101385
0.0104582
0.0106056
0.00930677
0.00964894
0.00975609
0.00977048
0.00980805
0.00978375
0.00966339
0.00947859
0.0093071
0.00911822
0.00916935
0.00996215
0.0100896
0.0101458
0.0099937
0.00988285
0.00987678
0.00981773
0.00980546
0.00979235
0.00966403
0.0093444
0.00861857
0.00847557
0.00908338
0.00943504
0.00962031
0.00970894
0.00968502
0.00961735
0.00937909
0.00919926
0.00899362
0.0086674
0.00825306
0.00688796
0.00713894
0.00748146
0.00795378
0.0084418
0.00886962
0.00915428
0.00930048
0.0093807
0.00929438
0.009003
0.00847929
0.00842694
0.00881713
0.00900108
0.00896936
0.00872297
0.00833625
0.00779185
0.00710893
0.00644165
0.00592082
0.00565762
0.00525362
0.00662534
0.00718811
0.00772106
0.0082221
0.00870472
0.00922687
0.00944647
0.00951985
0.00949446
0.009333
0.00899512
0.0084616
0.00847364
0.00895706
0.00927515
0.00940646
0.00939696
0.00919089
0.00876239
0.0078519
0.00704455
0.0063975
0.00582405
0.00525098
0.00504353
0.00529429
0.00510673
0.00535014
0.00594531
0.0067506
0.00752267
0.00810726
0.00851564
0.00868605
0.00862719
0.00837281
0.00827871
0.00840779
0.008361
0.0080692
0.00751536
0.00677952
0.00597539
0.0053284
0.00511638
0.0054215
0.00575383
0.00544832
0.00440593
0.00494852
0.00549243
0.00608033
0.00699262
0.00817304
0.00878704
0.00911566
0.00927946
0.00921364
0.00891889
0.0084719
0.00845726
0.00888755
0.00917324
0.00921946
0.0090798
0.00876605
0.00824325
0.00681025
0.00536013
0.0047465
0.00440897
0.00396704
0.00552448
0.00588262
0.00546366
0.00519503
0.00563751
0.00620022
0.00684785
0.00737465
0.00780222
0.00809969
0.00819307
0.00815447
0.00802606
0.00803676
0.00798782
0.00778277
0.00752066
0.00728874
0.00683009
0.00636891
0.00585545
0.00640831
0.00669521
0.00627185
0.00468012
0.00497098
0.00538704
0.00564684
0.00707647
0.00851234
0.00894891
0.00912163
0.00927248
0.0092089
0.00888836
0.00843985
0.00842713
0.00895672
0.00935915
0.00948711
0.00957192
0.00963033
0.00968973
0.0085262
0.00665401
0.00622333
0.00528645
0.00483165
0.00658645
0.00701474
0.00682861
0.00656262
0.00748203
0.00787608
0.00803561
0.00806948
0.00810048
0.00808239
0.00798901
0.00791332
0.00780202
0.00824875
0.00888693
0.00878321
0.00867276
0.00849852
0.00812696
0.00767635
0.00717931
0.00784107
0.00838304
0.00811397
0.00598112
0.00635401
0.00716551
0.00731758
0.00882667
0.010033
0.0103975
0.0104333
0.0103497
0.0103396
0.00932742
0.00839367
0.00824488
0.00960891
0.0156081
0.0154542
0.0155022
0.0154405
0.0148533
0.0146814
0.0141021
0.0138412
0.0131254
0.0126647
0.0119655
0.0140193
0.0177923
0.0198982
0.0222754
0.024786
0.0233905
0.0188558
0.0165977
0.0101154
0.00798119
0.00688689
0.00596979
0.00527693
0.00507601
0.00755402
0.00943174
0.0116359
0.0136298
0.0139409
0.0163908
0.0203625
0.0309962
0.0492635
0.0416067
0.0392806
0.0398069
0.0990756
2.55109
2.74362
2.49817
2.90416
3.33167
0.397326
0.152779
0.282618
0.297121
0.327655
0.304669
0.276829
0.252464
0.260919
0.250318
0.261372
0.243495
0.254493
0.222487
0.229315
0.23739
0.705983
1.05176
1.26626
1.7651
1.76364
1.98801
1.93626
1.95288
1.80403
1.92074
1.66953
1.38481
1.30926
1.23727
1.32843
1.44418
1.25307
1.13633
1.02004
0.928737
0.796438
1.01021
0.766781
0.724897
0.723604
0.756095
1.0073
0.916743
1.05491
0.966836
1.00651
0.601178
0.673894
0.490733
0.408342
0.338948
0.408044
0.547558
0.72697
0.909402
0.703049
0.963628
0.898202
0.901513
0.858359
0.782625
0.742699
0.729734
0.75088
0.763658
0.779161
0.807422
0.829049
0.848146
1.00077
1.06669
1.05775
0.866517
0.774154
0.536118
0.574082
0.607976
0.611081
0.568824
0.550645
0.499747
0.487158
0.442266
0.423043
0.384838
0.365532
0.333414
0.460328
0.786868
0.816608
0.887079
0.940343
0.991293
1.01347
1.03131
1.01433
0.981162
0.910371
0.87916
0.815307
0.924733
1.11135
1.10948
1.01968
0.866069
0.819963
3.81393
4.63702
3.07026
6.61654
10.0533
16.8535
7.66557
2.08268
3.48592
2.39587
2.12674
2.0736
2.18985
3.45107
2.52371
3.29836
2.73687
2.86808
2.24686
2.47813
2.32514
1.77752
1.49074
1.25932
1.12298
0.897258
0.87623
0.714363
0.668987
0.630798
0.533284
0.666545
0.688709
1.7023
2.32412
2.89554
4.53999
4.9822
5.43878
8.57436
6.92225
8.65031
5.13837
5.19805
3.84326
3.61494
3.65476
5.027
7.19422
4.95342
8.64724
4.81819
15.6232
34.9484
9.22584
19.1049
11.0199
9.96218
9.60036
9.89123
14.0665
9.59703
15.5955
13.17
17.4994
17.0737
18.002
13.8384
10.2384
11.1785
11.9692
15.3336
10.7968
12.3342
9.34118
9.12288
8.63708
7.17952
6.52212
5.03683
5.98519
7.0235
8.00428
12.7225
15.9324
18.2824
22.0371
16.2444
18.5186
11.1461
12.249
9.4606
8.87848
9.01543
11.8646
21.0371
14.8978
27.2591
0.499057
0.226345
0.54688
0.230066
0.488183
0.391405
0.403998
0.404963
0.400696
0.462687
0.220675
0.185451
0.17763
0.175463
0.176981
0.10035
0.124599
0.0805018
0.127019
0.229575
0.505292
0.366232
0.140656
0.0826654
0.0546529
0.0429935
0.0635384
0.0613368
0.0980918
0.0994608
0.105818
0.132427
0.228676
0.434867
31.9193
7.14408
1.13646
0.533489
0.284102
0.174221
0.150111
0.169723
0.182641
0.185598
0.17461
0.148818
0.107317
0.0717121
0.0486011
0.041055
0.0298917
0.0275807
0.0390405
0.0527915
0.0489454
0.0646471
0.0830412
0.105828
0.130098
0.149464
0.164042
0.168023
0.156068
0.122196
0.0804072
0.04438
0.0265872
0.0229411
0.0210106
0.0195084
0.0168567
0.0146597
0.0132218
0.0112905
0.00994601
0.00896847
0.00864744
0.00876746
0.00956418
0.0120965
0.0145557
0.0188437
0.0179599
0.0134469
0.0126162
0.00781455
0.00722432
0.00737113
0.00762091
0.00845282
0.0132294
0.013534
0.0134112
0.0134334
0.0132483
0.0132194
0.0130459
0.0128622
0.0126401
0.0122089
0.0119191
0.011399
0.0111219
0.0104776
0.0105043
0.0108705
0.0111719
0.0101162
0.0100113
0.0093188
0.0201743
0.0484039
0.0699875
0.0784443
0.088258
0.0809879
0.0417992
0.0228686
0.00784918
0.00768212
0.00817769
0.00880377
0.00836202
0.00618047
0.00672516
0.00784514
0.0109978
0.0109105
0.0109422
0.0127473
0.0132737
0.0146504
0.015196
0.0156163
0.0158525
0.0158456
0.0159923
0.0157586
0.015868
0.0156937
0.0157916
0.0153938
0.0273261
0.0257208
0.0264119
0.0264053
0.0275165
0.0269649
0.026403
0.025405
0.0246486
0.0231263
0.0215173
0.0199657
0.0178909
0.0186388
0.0179961
0.0112295
0.0106617
0.00766161
0.00773934
0.00744052
0.0102214
0.00930207
0.007818
0.00918138
0.00674965
0.00693874
0.00724335
0.010311
0.0108383
0.0172376
0.0172315
0.0152533
0.0162139
0.0172403
0.0185531
0.0197255
0.0211486
0.0221801
0.023286
0.0251962
0.0256615
0.0240098
0.0237142
0.0226281
0.0245672
0.0235511
0.0218095
0.0233549
0.024937
0.0273656
0.0269893
0.0248038
0.0234702
0.0220372
0.0197257
0.017099
0.0157354
0.0147425
0.0147588
0.0137366
0.0160471
0.0144738
0.0100785
0.0104571
0.00804176
0.00633261
0.00601942
0.00917847
0.0130862
0.0280261
0.0174797
0.00940158
0.0106444
0.0171065
0.0356114
0.0209703
0.0341995
0.0144736
0.0155829
0.0124912
0.0124509
0.0137279
0.0160039
0.0170666
0.0207
0.0233485
0.0253399
0.0262479
0.0275901
0.0279831
0.0294088
0.0298546
0.0325772
0.0328447
0.0329478
0.0324958
0.0302186
0.027179
0.0250716
0.0309667
0.0358327
0.0389799
0.0413673
0.0437429
0.0424472
0.0387242
0.0378493
0.035921
0.0348033
0.0333819
0.0302926
0.0264785
0.0217103
0.021133
0.027094
0.0328009
0.0490048
0.0528988
0.0526384
0.054964
0.0554667
0.0572195
0.057655
0.0603142
0.0608894
0.0620538
0.0623905
0.0676444
0.0685385
0.0695688
0.0698918
0.0696308
0.0706409
0.0706908
0.0480412
0.0430988
0.0392056
0.0325792
0.0273247
0.0346545
0.0431281
0.0482008
0.0735447
0.0740266
0.0777787
0.0803907
0.085394
0.0891014
0.0940594
0.0985878
0.103063
0.106526
0.108642
0.109004
0.109507
0.108566
0.107282
0.116088
0.150799
0.167418
0.198201
0.213311
0.225927
0.229913
0.221135
0.224919
0.216787
0.219325
0.213048
0.211015
0.20571
0.199262
0.195654
0.189206
0.185107
0.213318
0.161435
0.123938
0.0825664
0.0664189
0.0593772
0.0556115
0.0584314
0.0452926
0.0386719
0.0578973
0.0533695
0.0428426
0.0289963
0.0187268
0.0317776
0.0473329
0.0642037
0.081427
0.0971938
0.107532
0.110153
0.109097
0.104391
0.096613
0.0814998
0.0614814
0.0423557
0.0349891
0.0323016
0.0283058
0.0223156
0.0179282
0.0157939
0.0141943
0.0124126
0.0111507
0.0105908
0.0107348
0.0110427
0.0132401
0.0173197
0.0173125
0.011602
0.0111689
0.00768219
0.00776733
0.0080209
0.013352
0.0134921
0.0209263
0.023362
0.0220008
0.0226815
0.0224079
0.0226899
0.0223151
0.0211186
0.0202745
0.0193047
0.0184636
0.0177275
0.0169135
0.0161293
0.0174365
0.0163971
0.0138354
0.0139449
0.014551
0.0151884
0.0160714
0.017324
0.0184034
0.0211013
0.0212931
0.0208026
0.0209026
0.0194429
0.0187371
0.019996
0.0195306
0.0133026
0.0131329
0.019172
0.0188233
0.0186988
0.0225076
0.0209112
0.0214341
0.0225562
0.0224236
0.0194795
0.0181187
0.0165747
0.0153988
0.0140307
0.0125252
0.0121577
0.0148914
0.0131444
0.0107854
0.0119647
0.0143733
0.016985
0.0184409
0.0204225
0.023135
0.0240982
0.0263258
0.0277411
0.029834
0.0306739
0.0354912
0.0361739
0.0340589
0.0322123
0.0312162
0.0274529
0.0235118
0.0259306
0.0267932
0.0271678
0.0272524
0.0271205
0.0235358
0.0231026
0.0215868
0.0210711
0.0195073
0.0189505
0.0177929
0.0170363
0.0160196
0.0141929
0.0134393
0.0126312
0.0122861
0.0173481
0.0108223
0.0105826
0.0159737
0.00984271
0.0115808
0.0113332
0.0118479
0.0124882
0.0103407
0.0151337
0.0103181
0.0112063
0.0114256
0.0143062
0.00987236
0.0198584
0.0623218
0.0919863
0.110832
0.201693
0.242365
0.262888
0.283703
0.298057
0.314095
0.331752
0.349527
0.362728
0.364297
0.338792
0.320388
0.255522
0.228848
0.252745
0.283074
0.195345
0.167623
0.169955
0.170872
0.173519
0.174845
0.178582
0.176594
0.181784
0.177444
0.184858
0.178876
0.18551
0.177954
0.162405
0.145672
0.112816
0.101949
0.0657439
0.0509025
0.0398284
0.0288897
0.0210385
0.0188738
0.017854
0.0164848
0.0165675
0.0126984
0.0131127
0.00840003
0.0061627
0.00986552
0.00971479
0.00722099
0.00984673
0.0112458
0.0117649
0.0123037
0.0125939
0.0192645
0.0193084
0.0247424
0.0246194
0.0291904
0.0347904
0.0360288
0.0396827
0.057024
0.0575207
0.057266
0.0570557
0.0566143
0.0493886
0.0491067
0.0479991
0.04741
0.0444734
0.0439201
0.0418496
0.0407184
0.0377871
0.0369674
0.0358359
0.0362536
0.039963
0.0543427
0.0960541
0.0289641
0.0274116
0.0201902
0.0144992
0.0211903
0.0158636
0.0153705
0.0135752
0.0186592
0.0134198
0.013677
0.01647
0.0169774
0.0163644
0.0212665
0.0265229
0.0232667
0.0255841
0.114502
0.0724502
0.0238436
0.04704
0.0706379
0.156281
0.203546
0.139084
0.159008
0.183252
0.166245
0.139481
0.108609
0.081067
0.0571735
0.0437495
0.0113828
0.0133161
0.0183999
0.0402017
0.0597611
0.101268
0.0831618
0.108752
0.148682
0.173161
0.209222
0.200588
0.172425
0.148361
0.145293
0.160797
0.162054
0.10418
0.101087
0.0769981
0.173429
0.219119
0.184296
0.231424
0.243749
0.141146
0.0313593
0.0183139
0.0150852
0.0138862
0.0124151
0.0193833
0.0114268
0.0116241
0.0123332
0.0132562
0.0169139
0.0294033
0.0134018
0.0148999
0.0183309
0.0158974
0.0149665
0.0146214
0.0145448
0.0151844
0.0165598
0.0215864
0.0216341
0.0212543
0.015952
0.0172352
0.0156526
0.0199342
0.0211323
0.0332372
0.0152121
0.0161498
0.0214094
0.475396
0.024538
0.0177789
0.0231381
0.0218058
0.0299944
0.0441074
0.456488
0.0437413
0.0350085
0.0585527
0.0608549
0.065508
0.0691715
0.0726666
0.0751886
0.0791227
0.0817985
0.0830154
0.0842318
0.0999356
0.099987
0.0989283
0.103533
0.0976953
0.0577131
0.057941
0.0975467
0.105305
0.0594868
0.0410882
0.0385815
0.0312845
0.0324301
0.0419807
0.0440429
0.0617279
0.0615633
0.102699
0.0936416
0.0950449
0.0967672
0.0917319
0.0921797
0.094264
0.0941552
0.0753531
0.073064
0.0713118
0.0682474
0.0647176
0.0618159
0.0589053
0.0557959
0.0531087
0.0530709
0.0575881
0.0582424
0.0657139
0.072083
0.217306
0.147443
0.105548
0.0786922
0.0644594
0.0586574
0.0583821
0.0616215
0.0648624
0.0665325
0.0673351
0.0706765
0.0924248
0.0949658
0.0978485
0.0952617
0.0991137
0.0972
0.0947279
0.104651
0.112504
0.0657418
0.0678235
0.0479048
0.0447224
0.0326431
0.0332195
0.0237016
0.0196429
0.0196108
0.0195933
0.0198352
0.0227429
0.0318053
0.0318979
0.0466197
0.0464987
0.0519095
0.0755364
0.0725747
0.129451
0.11862
0.108927
0.10156
0.101945
0.104049
0.106651
0.101628
0.0977543
0.0921821
0.0724224
0.0684421
0.0662993
0.0650195
0.0636818
0.066928
0.0896592
0.144516
0.220922
0.325151
0.425674
0.437852
0.397228
0.246075
0.287354
0.142341
0.163425
0.185026
0.159062
0.1683
0.317991
0.264548
0.373884
0.479805
0.53365
0.600011
0.636467
0.623139
0.493271
0.31974
0.327256
0.435996
0.766002
0.85941
0.743926
0.762298
0.658865
0.541029
0.522768
0.498254
0.562417
0.613758
0.579194
0.596655
0.54079
0.5163
0.44616
0.497968
0.363888
0.327768
0.308125
0.299276
0.358639
0.2902
0.326825
0.268563
0.274745
0.223214
0.228756
0.190973
0.146194
0.138579
0.128454
0.143793
0.162949
0.149239
0.153497
0.134008
0.114477
0.0911804
0.0984747
0.0735332
0.0694935
0.070442
0.0799704
0.124829
0.365245
0.172505
0.163121
0.167448
0.177948
0.31897
0.282736
0.725885
0.508888
0.712621
0.475745
0.564883
0.472681
0.364591
0.380128
0.420126
0.600999
0.824803
6.66211
0.284932
4.26885
3.16858
3.32664
3.47194
4.45047
7.81858
7.11444
9.4054
6.81037
9.08535
4.97423
4.97651
4.32573
4.47086
4.43808
4.26049
5.17963
6.60914
0.238083
0.0909206
0.0854205
0.0856083
0.0873841
0.197714
0.0525635
0.20205
0.0539776
0.213538
0.0495375
0.246764
0.196962
0.0382429
0.0192585
0.020091
0.0168075
0.0203757
0.0169228
0.0250464
0.0235416
0.0236973
0.0265738
0.076092
0.291363
13.7334
1.63964
0.682279
0.780981
1.16982
0.793833
1.19265
1.65829
1.11439
0.555034
0.362383
0.427359
0.516499
0.493529
0.631437
0.910587
0.891634
0.700823
0.705227
0.619975
0.877163
0.886472
1.05259
1.23029
1.12711
0.881382
0.693614
0.584625
1.01188
1.01939
0.953318
0.400854
0.112163
0.0463157
0.0483359
0.0353622
0.0373814
0.0346635
0.0539077
0.157419
0.217062
0.130265
0.425376
0.41173
0.563518
0.402426
0.412635
0.325309
0.349961
0.53314
0.582725
0.642694
0.674228
0.724391
0.66697
1.2806
2.18899
2.47543
12.8076
17.3949
3.18996
3.09169
13.9444
0.314849
0.0838193
0.0233042
0.0174283
0.0162164
0.0161298
0.0150011
0.0155386
0.0160003
0.0169643
0.0188307
0.0231995
0.0458459
0.201556
0.203531
0.0643701
0.0324407
0.0229746
0.0196183
0.0170475
0.0163879
0.0155322
0.0154599
0.0150083
0.0156576
0.0174632
0.0237788
0.0774413
0.271224
11.3422
2.43857
2.25784
8.38868
5.79891
0.206836
0.0438097
0.0200968
0.0169279
0.0158847
0.0167551
0.0162666
0.0182125
0.0184037
0.023019
0.0250259
0.031777
0.0571093
0.110261
0.315882
9.60675
8.67567
8.40007
7.83188
0.310497
0.115303
0.0544246
0.0382424
0.0346315
0.0338247
0.0226517
0.0236771
0.0189844
0.0216453
0.0182978
0.0226889
0.0483315
0.212009
5.35637
1.5728
1.70353
1.21103
0.613408
0.655766
0.669425
0.68883
1.77114
4.04541
4.9789
3.42104
3.35688
4.69969
3.16663
2.47831
1.82615
1.74596
2.54356
1.96258
1.82547
1.35605
1.46548
1.06819
1.46806
0.811656
0.977805
1.07376
1.53206
1.39856
1.41166
0.909369
1.05139
1.47623
1.72755
1.6518
0.844683
1.22851
1.01485
0.655227
0.607273
0.633521
0.603124
0.577534
0.574715
0.579371
0.558471
0.575996
0.556362
0.58861
0.548432
0.533377
0.507333
0.526903
0.544177
0.576645
0.359872
0.422237
0.426784
0.441201
0.453669
0.374509
0.450738
0.441323
0.658676
0.9946
0.830387
1.14293
0.676543
1.00261
2.00681
5.21155
2.33039
0.816225
1.34727
1.58555
1.13966
0.628331
2.55405
3.56382
1.2315
1.78751
10.3992
8.44304
16.5325
10.9614
18.603
6.02329
4.63171
17.7878
6.66316
6.8952
4.50543
4.51464
2.95423
1.5821
1.62468
1.7364
1.22444
1.29627
1.20682
1.13303
1.47204
1.43612
1.88067
2.03038
2.57108
1.80874
1.77052
2.58881
1.06195
1.39532
1.83244
1.82377
1.3562
2.33353
3.14733
2.95246
2.12654
2.32971
3.49573
4.80651
4.55745
3.15362
3.94502
10.1123
13.4928
13.6708
4.21486
19.3354
18.3024
2.06324
0.558637
0.318772
0.0878126
0.0441624
0.0365934
0.0386581
0.14303
0.0457908
0.0569242
0.0453085
0.0720736
0.0693342
0.0865837
0.215727
0.125443
0.213497
0.153946
0.186827
0.119196
0.190686
0.223512
0.233067
0.185499
0.113751
0.209874
0.302424
0.104211
0.349423
0.384141
0.256052
0.327409
0.390027
0.193369
0.987564
0.183492
0.125173
0.14406
0.387041
1.24634
0.214735
0.456362
4.45823
14.7119
3.66112
0.928884
0.672067
0.0551627
0.0299525
0.0314161
0.0276997
0.0193584
0.0828472
0.0971987
0.401254
0.206533
0.27825
0.662336
2.93506
2.40002
1.11689
5.47235