/*--------------------------------*- C++ -*----------------------------------*\
| =========                 |                                                 |
| \\      /  F ield         | OpenFOAM: The Open Source CFD Toolbox           |
|  \\    /   O peration     | Version:  v2012                                 |
|   \\  /    A nd           | Website:  www.openfoam.com                      |
|    \\/     M anipulation  |                                                 |
\*---------------------------------------------------------------------------*/
FoamFile
{
    version     2.0;
    format      ascii;
    class       volScalarField;
    location    "1195";
    object      nut;
}
// * * * * * * * * * * * * * * * * * * * * * * * * * * * * * * * * * * * * * //

dimensions      [0 2 -1 0 0 0 0];


internalField   nonuniform List<scalar> 
18258
(
0.00420032
0.00182705
0.00149788
0.00129816
0.000858655
0.00140549
0.00195179
0.00232308
0.00243697
0.00241548
0.00250027
0.0042183
0.00591906
0.00731367
0.00768124
0.00766753
0.00695783
0.00664427
0.00721236
0.00887106
0.00746553
0.00478206
0.00573049
0.00662031
0.00719653
0.00637259
0.00515214
0.00477332
0.00432263
0.00360283
0.00301929
0.00205331
0.00151971
0.00140941
0.00127632
0.00145413
0.00158297
0.00168699
0.00172488
0.00175194
0.00173993
0.00173005
0.00168342
0.0016553
0.00160722
0.00133133
0.00161865
0.00163821
0.00179459
0.00248422
0.00267079
0.00224708
0.00248722
0.00222019
0.00146473
0.00167619
0.00181954
0.00185894
0.00183537
0.00175948
0.00173403
0.00171248
0.00168509
0.00165251
0.00163268
0.00164915
0.00166629
0.00164821
0.00156725
0.00150162
0.00139538
0.00128885
0.00120984
0.00114862
0.00110246
0.00105132
0.000993848
0.000872975
0.000809053
0.00107124
0.00134479
0.00143677
0.00203632
0.00248261
0.00249928
0.00187047
0.00133294
0.00138331
0.00153793
0.00155354
0.00131681
0.00156564
0.0017737
0.00183844
0.00191597
0.00214133
0.00243723
0.00237591
0.0021158
0.00194898
0.0019208
0.00219737
0.00208691
0.00270615
0.00272792
0.00238348
0.00218704
0.00246178
0.00317473
0.00341652
0.0026568
0.00249507
0.00244562
0.00241467
0.00218377
0.00225996
0.00205226
0.00184921
0.00201452
0.00243515
0.00230973
0.00252283
0.00261415
0.00245262
0.00284206
0.00327763
0.00323014
0.00258491
0.00210703
0.00196408
0.00197908
0.00121039
0.00130708
0.00140872
0.00144322
0.00146735
0.00148787
0.00158659
0.00158301
0.00155979
0.00155636
0.00158385
0.000872806
0.000945564
0.000969064
0.000975849
0.000926879
0.000917354
0.000900254
0.00088635
0.000835637
0.000799534
0.000956727
0.00107434
0.00117023
0.00128229
0.00144955
0.00165411
0.001869
0.00208605
0.00222954
0.00227032
0.00231154
0.00222762
0.00214322
0.00221952
0.00223236
0.002218
0.00218822
0.00215061
0.00209974
0.00200638
0.00211373
0.00210753
0.00197986
0.00169727
0.00173494
0.00173178
0.00177687
0.00176811
0.0017863
0.00176149
0.00173235
0.00164943
0.00153367
0.0012772
0.00124247
0.00125868
0.001617
0.00196362
0.00303385
0.00370177
0.00429916
0.00460127
0.0049256
0.00398394
0.00443348
0.00341624
0.00306724
0.00389878
0.00510158
0.00291041
0.00158857
0.00301205
0.00267096
0.00193606
0.00172276
0.0017746
0.0017787
0.00204515
0.00235672
0.00261333
0.00273746
0.00284755
0.00293524
0.00303229
0.00315545
0.0031896
0.00308165
0.00260927
0.00314223
0.00255143
0.00298002
0.00269149
0.00181453
0.00193101
0.00204652
0.00187207
0.00182052
0.0017448
0.00156957
0.00192615
0.00250403
0.00290715
0.00332361
0.00442989
0.0040983
0.00393213
0.00304487
0.0029444
0.00152902
0.00218191
0.00225751
0.00253804
0.00168746
0.0015388
0.00145941
0.00193406
0.00223979
0.00264254
0.00292946
0.00347923
0.00269637
0.00307982
0.00278647
0.00194016
0.00186915
0.00267859
0.00288559
0.00237289
0.00212427
0.00266486
0.00252124
0.00178787
0.00143486
0.00220349
0.00228305
0.00163651
0.00407491
0.00432248
0.00411566
0.00501624
0.00628882
0.00717521
0.00668099
0.00592779
0.00661784
0.00525189
0.00508623
0.0054286
0.00455875
0.00319619
0.0032772
0.00338992
0.00348201
0.00373841
0.00397113
0.00425516
0.00452682
0.0041161
0.00342006
0.00258967
0.00178242
0.00175846
0.00174974
0.00157113
0.00232824
0.00352183
0.00349726
0.00198669
0.00115819
0.00131017
0.00147946
0.00146494
0.00106294
0.00080015
0.00137843
0.00157591
0.00160126
0.00156141
0.00147414
0.00154039
0.00247372
0.00381087
0.00418711
0.00433648
0.0044778
0.00457754
0.00463293
0.00465033
0.00465993
0.00467181
0.0046823
0.0046984
0.00468393
0.00458431
0.00403246
0.0025356
0.00148245
0.00137732
0.00152013
0.00163377
0.00173306
0.00147486
0.000901655
0.00144015
0.00184405
0.00211912
0.00213703
0.00199423
0.00193437
0.00305002
0.00405518
0.00477961
0.00492601
0.00499091
0.00493561
0.00492791
0.00481968
0.00478532
0.00419537
0.00300465
0.00328526
0.00352759
0.00356852
0.00365134
0.00377565
0.00368818
0.00348383
0.00509292
0.00587598
0.00595146
0.00607854
0.00600678
0.00590285
0.00563429
0.00532755
0.00448495
0.00336326
0.00212197
0.00216621
0.00230606
0.00228394
0.00198825
0.00209489
0.00227353
0.00229627
0.0023713
0.00265925
0.00302021
0.00288069
0.00247851
0.00210518
0.00196018
0.00191928
0.00184164
0.00137966
0.00140007
0.00136072
0.00138304
0.00185761
0.00221104
0.00254982
0.00361711
0.00322669
0.00262424
0.00416144
0.00426369
0.00458053
0.00505965
0.00518514
0.00574505
0.00399959
0.0036045
0.00370302
0.00302514
0.00280016
0.00283013
0.00284083
0.00264769
0.00289801
0.00287246
0.00276865
0.00305678
0.00336827
0.00444161
0.0053822
0.00567911
0.00585079
0.00592086
0.00589802
0.00578191
0.00581707
0.00510796
0.00510084
0.00488549
0.00474494
0.00469488
0.00446124
0.00510857
0.00530376
0.0053689
0.00550299
0.005712
0.00555845
0.00538517
0.00525353
0.0051582
0.00505848
0.0051129
0.00520813
0.00530973
0.00545261
0.00564379
0.00567634
0.00547816
0.00532854
0.00522625
0.00513025
0.00513466
0.00522035
0.00532033
0.00546219
0.00564348
0.00554354
0.0054026
0.00527718
0.00517434
0.00508384
0.00490635
0.00502512
0.0051558
0.00526365
0.00533384
0.00460846
0.00492557
0.00484043
0.00438203
0.00410106
0.00311447
0.00337064
0.00355454
0.00387162
0.00429787
0.00438181
0.00367732
0.00315138
0.00307098
0.0030462
0.00311804
0.00314384
0.00315899
0.00356943
0.00537906
0.00541525
0.00543015
0.00543204
0.00464454
0.0045132
0.00420506
0.0076874
0.00715681
0.00620126
0.00511058
0.00273935
0.00234829
0.00278169
0.00338249
0.00378164
0.00417235
0.00277043
0.00171584
0.0019996
0.002073
0.00202186
0.00186881
0.00155727
0.00143748
0.00130453
0.00140381
0.00248614
0.00396767
0.00446929
0.00451682
0.00447206
0.00438503
0.00427915
0.00413178
0.00408321
0.00515546
0.00698609
0.00786496
0.00783144
0.00672856
0.00548823
0.00309632
0.00159688
0.00117824
0.00126426
0.00138906
0.00163024
0.00145234
0.00122752
0.00134477
0.00127168
0.00257378
0.00443862
0.00564294
0.00670382
0.00660226
0.00574553
0.00468717
0.00443534
0.00453844
0.00460855
0.00466808
0.0047292
0.00477114
0.00474454
0.00431841
0.0026678
0.00159265
0.00141502
0.00152138
0.00178314
0.00189484
0.00191441
0.00188797
0.00163684
0.00270749
0.00429808
0.00273388
0.00149163
0.00161152
0.00159961
0.00282143
0.00281718
0.00275677
0.00428859
0.00453461
0.00452332
0.00425079
0.00405797
0.00240292
0.0027276
0.00273682
0.0027511
0.00279599
0.0014129
0.00154023
0.00158838
0.00171041
0.00149446
0.00189765
0.00049108
0.000681118
0.000791079
0.000860407
0.000927072
0.00090943
0.00174054
0.00176638
0.00168532
0.00164075
0.0020819
0.00223397
0.00228307
0.00210266
0.00194003
0.00206504
0.00206972
0.00195075
0.00184768
0.00191551
0.00191681
0.00183705
0.00156252
0.00146413
0.00160721
0.00158997
0.0015774
0.00283159
0.00282647
0.00267529
0.00439397
0.00432389
0.0048423
0.0048112
0.00480573
0.00478627
0.00483755
0.0048642
0.00488416
0.00490765
0.00489819
0.00485102
0.00673377
0.00477298
0.00416527
0.00240942
0.00232114
0.00163956
0.00143698
0.00169211
0.00180981
0.00196213
0.00191784
0.00202156
0.00201913
0.00214249
0.0019884
0.0017654
0.00270369
0.00288815
0.00282062
0.00287622
0.00280843
0.00279173
0.00277135
0.0027322
0.00268495
0.00159903
0.00156871
0.00183702
0.00192841
0.00207215
0.00209076
0.00213621
0.00202573
0.00178139
0.00172428
0.00198603
0.00195914
0.00199749
0.0018832
0.00187517
0.00167031
0.00171269
0.00345212
0.00636598
0.00328066
0.00364393
0.00330216
0.00375527
0.00328981
0.00283761
0.00290435
0.00255832
0.00266874
0.00279925
0.00284993
0.00299535
0.00353088
0.00339944
0.00298394
0.0028973
0.00284024
0.00267815
0.00241066
0.00252507
0.0025477
0.00260239
0.00289239
0.0033176
0.00371836
0.00451769
0.00438395
0.00384097
0.00351173
0.00368224
0.00374683
0.00471574
0.00440519
0.00437937
0.00462019
0.00457468
0.00434124
0.00411328
0.00397024
0.00340931
0.00346513
0.00396454
0.00383663
0.00395394
0.00388461
0.00403895
0.00411209
0.00394637
0.00366786
0.00385746
0.0038501
0.00427481
0.00415696
0.00385671
0.00352687
0.00377182
0.00372703
0.00430413
0.00405085
0.00378867
0.00348863
0.00334252
0.00379301
0.00372319
0.00422076
0.00434387
0.00434582
0.0037895
0.00370086
0.00440005
0.00423257
0.00408977
0.00425999
0.00352878
0.00362848
0.004469
0.00456234
0.00432921
0.00361551
0.00366987
0.00314632
0.00369999
0.00460456
0.004349
0.003565
0.0029591
0.00413869
0.00435383
0.00460452
0.004352
0.00473864
0.00510387
0.00416184
0.00452711
0.005913
0.00451835
0.00524243
0.00535789
0.00538872
0.00539072
0.00541067
0.00543661
0.00572598
0.00556621
0.00354365
0.0042358
0.00411732
0.00344676
0.00293476
0.0032313
0.00347996
0.0035302
0.00361975
0.0037574
0.00369218
0.00356701
0.00522325
0.00596083
0.00608964
0.0062101
0.00610832
0.00595761
0.00561074
0.00518963
0.00431918
0.00322318
0.00201449
0.0020543
0.00218991
0.00216997
0.00188324
0.00142016
0.000933612
0.00138445
0.00143191
0.00134971
0.00123209
0.00109115
0.0011347
0.00205557
0.00368654
0.00536437
0.00598128
0.00647676
0.00699101
0.00745322
0.00779936
0.00805528
0.00823322
0.00834563
0.00837073
0.00821588
0.00747653
0.00714008
0.00672211
0.0063776
0.00590368
0.00554192
0.00626764
0.00688678
0.00726775
0.00769515
0.00789188
0.00780648
0.00677603
0.0065677
0.00756238
0.009321
0.007924
0.00995787
0.0117097
0.00910801
0.00818577
0.00818228
0.00915751
0.00933828
0.00900987
0.00849449
0.00790114
0.00714798
0.00752999
0.00787784
0.00821418
0.00852455
0.00933447
0.00946875
0.00939251
0.00923579
0.00903218
0.00875739
0.00833975
0.00775537
0.00705118
0.00634034
0.00551596
0.00375974
0.00192615
0.00216907
0.00214006
0.0021433
0.00215901
0.00103753
0.00114553
0.00115915
0.00116531
0.00109729
0.00124967
0.00180629
0.00291326
0.00209425
0.00172956
0.00119353
0.00139545
0.00232623
0.00393262
0.00443875
0.00453214
0.00465769
0.00624434
0.00689224
0.00729512
0.0076198
0.00782843
0.00773734
0.00749671
0.00706636
0.00651294
0.00629511
0.00593399
0.00561736
0.00544064
0.0052658
0.00493334
0.00385148
0.00373849
0.00389411
0.003842
0.00367715
0.00393066
0.00407332
0.00407022
0.00411561
0.00415514
0.00427772
0.00442191
0.00454731
0.00461292
0.00463702
0.00464436
0.00465353
0.00466076
0.00467477
0.00465878
0.00455671
0.00400122
0.0025024
0.00146099
0.00135066
0.0014809
0.00156602
0.00160243
0.0014232
0.000916207
0.00142365
0.00184285
0.00189
0.00207388
0.00213957
0.00226796
0.00252529
0.00291782
0.00301081
0.00267199
0.00253091
0.00247753
0.00241489
0.00206956
0.00257938
0.00284024
0.00283414
0.00280662
0.00303325
0.00373215
0.00358563
0.00316227
0.00312782
0.00309684
0.00280543
0.00276343
0.00301361
0.00304636
0.00315906
0.00370364
0.00444061
0.0041201
0.00375327
0.00359985
0.00332518
0.00293157
0.00265073
0.00324959
0.00266186
0.00141835
0.00121191
0.00119861
0.00120544
0.00116626
0.00138235
0.00145388
0.00147227
0.00136629
0.00151525
0.00168542
0.00162885
0.00184464
0.00182151
0.00163263
0.00161864
0.00174482
0.00183609
0.00188366
0.00194051
0.00317347
0.0032807
0.00253728
0.00366437
0.00422047
0.004175
0.0044284
0.00364932
0.00327407
0.0038848
0.00448329
0.00513277
0.00406242
0.00384466
0.00393016
0.00181055
0.000952753
0.00134388
0.00166866
0.00186102
0.00180595
0.00170602
0.00144246
0.00255497
0.00262459
0.00415551
0.00466102
0.00472086
0.00469106
0.00480302
0.00527534
0.0061098
0.00682703
0.00703793
0.00693785
0.00663808
0.00608075
0.00551783
0.00547465
0.00527561
0.00513005
0.00508191
0.00440315
0.00391557
0.00419316
0.00411782
0.00425703
0.00432191
0.0043689
0.0044166
0.00449617
0.00459209
0.00467915
0.00473811
0.00477704
0.00480965
0.00484308
0.00487677
0.00491335
0.00493278
0.00488545
0.004415
0.002649
0.00157982
0.00144124
0.00153785
0.00180741
0.00190305
0.0020454
0.00181645
0.000956675
0.00112498
0.00195487
0.00216715
0.00200501
0.00187651
0.00184294
0.00154387
0.00279564
0.00275912
0.00432943
0.00486917
0.00493747
0.00492416
0.00488656
0.0048442
0.00480403
0.00477112
0.00474492
0.00471686
0.00467646
0.00462675
0.00458084
0.00453469
0.00445502
0.00434175
0.00421387
0.00437686
0.00452996
0.0047147
0.00491802
0.00502553
0.00493827
0.00480225
0.00473782
0.00476371
0.00480349
0.00484517
0.00488288
0.00490117
0.00484695
0.00456849
0.00428758
0.00271636
0.00275153
0.0013549
0.001505
0.00173655
0.0017936
0.00194778
0.00193871
0.0015245
0.00118823
0.00134062
0.0012527
0.00223736
0.00246022
0.00272779
0.00270065
0.00146743
0.00150524
0.0015645
0.00176479
0.00164136
0.00158595
0.00390468
0.00374441
0.0039202
0.0048078
0.00414254
0.00286152
0.00313405
0.00436105
0.00459892
0.00278054
0.00208694
0.00231268
0.00292929
0.00431297
0.00436627
0.00414759
0.00412451
0.00301155
0.0037027
0.00445541
0.00433342
0.00337912
0.00232843
0.00173443
0.000844586
0.00160657
0.00137359
0.00336374
0.00372219
0.00367809
0.00402167
0.00427355
0.00431734
0.00419439
0.00372126
0.00379516
0.00383253
0.00436592
0.0043846
0.00371361
0.00313381
0.00254675
0.00256933
0.00261878
0.00290144
0.00363259
0.00342281
0.00300036
0.0029097
0.00284724
0.0026784
0.00241723
0.00212066
0.00213516
0.00198716
0.00192298
0.00303101
0.00403425
0.00475687
0.00489357
0.0049432
0.00486767
0.00483376
0.00469617
0.00462535
0.00401879
0.00513241
0.0054244
0.00523341
0.00527112
0.00530313
0.00534276
0.00534285
0.00524204
0.00450552
0.00269107
0.00175793
0.00198436
0.00214199
0.00201154
0.00200001
0.00213152
0.00202241
0.00177636
0.00287784
0.00281272
0.00449681
0.00509167
0.00520124
0.00520841
0.00518819
0.00517161
0.00517878
0.00545119
0.00532505
0.00538886
0.00566825
0.00568043
0.00575073
0.00540004
0.00533209
0.00528898
0.00526034
0.0052132
0.00508597
0.00450153
0.00436365
0.00495458
0.00510648
0.0051736
0.00522011
0.00527593
0.00534962
0.00556213
0.00571937
0.0057769
0.00554872
0.00546861
0.00534321
0.00516269
0.00511983
0.00511061
0.00510608
0.00508072
0.00494838
0.00435624
0.00280121
0.00287034
0.00170768
0.00171889
0.0019799
0.00207972
0.00204274
0.00189175
0.00184449
0.00317073
0.00360903
0.0038398
0.00413502
0.00394934
0.00392643
0.00448804
0.00434353
0.00387244
0.0040291
0.00361381
0.00344442
0.00332891
0.00334707
0.00176336
0.00190268
0.00198448
0.00195138
0.00186595
0.0016642
0.00152612
0.00278486
0.00276451
0.00272838
0.00162281
0.00158733
0.00187013
0.0018163
0.00166166
0.00141639
0.00155263
0.00239673
0.00268039
0.00415598
0.00430447
0.00460778
0.00492787
0.0050496
0.00508292
0.00510295
0.00512581
0.00517391
0.00523074
0.00524577
0.00524199
0.00528365
0.00527596
0.00527603
0.0052465
0.00521335
0.00517534
0.00513521
0.00506976
0.00493513
0.0046122
0.00429521
0.00484253
0.00488687
0.00497772
0.00507205
0.0051128
0.00512032
0.00510363
0.00506899
0.00502808
0.00497951
0.00497876
0.0051183
0.0051504
0.00517475
0.00515916
0.00514196
0.00513644
0.00511444
0.00507809
0.00498384
0.00488925
0.00484873
0.00476776
0.00489558
0.00495228
0.00496119
0.00500953
0.00508685
0.00510776
0.00510555
0.00506707
0.00503505
0.00499513
0.0049306
0.0048482
0.00456464
0.00462183
0.00469787
0.00479676
0.00489243
0.00496973
0.00501275
0.0050146
0.00496771
0.00493651
0.00493771
0.00489639
0.00491824
0.00494052
0.00491587
0.00491392
0.00491931
0.0048659
0.00476637
0.0046271
0.00447917
0.00435533
0.00428935
0.00418429
0.00452069
0.00464572
0.00475824
0.00485866
0.00495011
0.00504262
0.0050729
0.00506462
0.00500779
0.00497527
0.00497336
0.00492507
0.00492336
0.00497017
0.00497265
0.00499986
0.00504926
0.00503304
0.00496338
0.0047901
0.00462208
0.00447675
0.00433865
0.00419118
0.00413525
0.0042029
0.00415279
0.00421706
0.00436596
0.00455005
0.00470805
0.00480696
0.00483701
0.0048656
0.00490894
0.00490378
0.00487773
0.00486399
0.00480544
0.00475496
0.00469272
0.00455429
0.00437567
0.00421603
0.004161
0.00424249
0.00432701
0.00424861
0.00395828
0.00411492
0.00426092
0.00440741
0.00461582
0.00485704
0.00496534
0.00500418
0.00498084
0.00496221
0.0049593
0.00491492
0.00490015
0.00494102
0.00494448
0.00496318
0.00499394
0.00495919
0.00486869
0.00457217
0.0042225
0.0040561
0.0039591
0.00382331
0.0042696
0.00435864
0.00425094
0.00417878
0.00429306
0.00442783
0.00456763
0.00466018
0.00469618
0.00474609
0.00481188
0.00484307
0.00479584
0.00474139
0.0046739
0.00463882
0.00463666
0.00461072
0.00451942
0.00441433
0.00429655
0.00444189
0.0045262
0.00444474
0.00403137
0.00409832
0.00419198
0.0042447
0.00457201
0.00486336
0.00493664
0.00494369
0.00491534
0.00489681
0.0048977
0.00487193
0.0048246
0.00481585
0.00481066
0.00486519
0.00493642
0.00497103
0.00498627
0.00476728
0.00437661
0.00431794
0.00414638
0.0040621
0.00450419
0.00455659
0.00445394
0.0043568
0.00456424
0.0046537
0.0046806
0.00466433
0.00461745
0.00458586
0.00464407
0.00473565
0.00466565
0.00436404
0.00409525
0.00423306
0.00426553
0.00425315
0.00419416
0.00409772
0.00389036
0.00434287
0.00478318
0.00481989
0.00435379
0.00436074
0.00421349
0.0039152
0.004294
0.00449976
0.00454821
0.00453591
0.00447005
0.0043026
0.0045463
0.00476007
0.00471961
0.00427164
0.00277251
0.00281111
0.00283217
0.00283543
0.00279801
0.00278763
0.00274685
0.0027258
0.00266241
0.00259808
0.00253646
0.00270542
0.00285047
0.00304521
0.00306101
0.00314138
0.00300643
0.0028462
0.00265765
0.00206881
0.00262522
0.00313184
0.0033287
0.00358115
0.00363409
0.00419357
0.00441256
0.00453261
0.00444731
0.00356776
0.00302673
0.00241871
0.0015729
0.000980073
0.00115063
0.00119695
0.00125951
0.00154192
0.00282367
0.00144156
0.00199442
0.00155962
0.00267622
0.0014285
0.000892064
0.000589914
0.000749105
0.000885635
0.000892416
0.000856529
0.000714075
0.000561443
0.000573863
0.000536231
0.000569862
0.000515066
0.000590321
0.000552325
0.000770134
0.00115599
0.00131733
0.00134673
0.0010886
0.00122792
0.00102591
0.00118348
0.00105694
0.00115211
0.00110541
0.00135188
0.00148167
0.00141865
0.00142265
0.00124501
0.000870846
0.00100942
0.000793086
0.000952282
0.000728696
0.000941208
0.000807051
0.0010487
0.00108106
0.00107794
0.00103787
0.000792877
0.000939764
0.00073981
0.000905096
0.000741237
0.000787202
0.000654831
0.000948649
0.000965897
0.000890179
0.000946602
0.00106221
0.00113875
0.00125562
0.00119127
0.00136112
0.0013185
0.00134267
0.00127186
0.00123723
0.001209
0.00121147
0.0011915
0.00119796
0.00123646
0.00123825
0.00124306
0.00128224
0.00126345
0.0012329
0.0012145
0.00107905
0.000870697
0.00151695
0.00156423
0.0015873
0.00158683
0.00155083
0.00153326
0.00147996
0.00146577
0.00141956
0.00139256
0.00133078
0.00128018
0.00122244
0.00137382
0.000768847
0.000872932
0.000921569
0.000949015
0.000968125
0.000976973
0.000984099
0.000978645
0.00096654
0.000942775
0.000934784
0.000908832
0.00116281
0.00132253
0.00138259
0.00139873
0.00131112
0.00124855
0.00272824
0.00330106
0.00501867
0.00512885
0.00385085
0.00383896
0.00132952
0.00140308
0.000959284
0.00134813
0.00139011
0.00137596
0.00129982
0.000937464
0.00140694
0.000980087
0.00131919
0.000987816
0.00121958
0.00100248
0.00142154
0.00181091
0.00174643
0.00158057
0.00107376
0.000890703
0.000887277
0.000758651
0.000832645
0.000690134
0.000850724
0.000721657
0.00107443
0.00153327
0.00170111
0.0017353
0.00136833
0.00188831
0.00141962
0.00205549
0.00163189
0.00201231
0.00161496
0.00186916
0.00231292
0.00232338
0.00226835
0.00182826
0.00146525
0.00164467
0.00145687
0.001678
0.00242346
0.00158821
0.00240948
0.000995766
0.00135741
0.00139909
0.00137984
0.00130098
0.000876441
0.00223144
0.00117986
0.00210016
0.00135855
0.00217912
0.00157836
0.00208538
0.00249258
0.00260279
0.00258997
0.00211335
0.00190055
0.00195787
0.00156134
0.00187381
0.00140206
0.00203912
0.00116551
0.00151729
0.00168001
0.0017699
0.00177717
0.00146082
0.00288516
0.00181138
0.00273419
0.00190111
0.00243549
0.00195229
0.00213571
0.00252219
0.00250649
0.0024855
0.00210762
0.00170525
0.00225085
0.00160571
0.0477779
0.110422
0.0439388
0.11157
0.0505201
0.0716969
0.0706327
0.0707606
0.0710047
0.0532915
0.116307
0.137451
0.143384
0.145164
0.144108
0.232891
0.189918
0.28537
0.185025
0.108841
0.0471666
0.0650541
0.167978
0.277428
0.416215
0.528066
0.359826
0.372399
0.23763
0.23424
0.220462
0.178289
0.109266
0.0547705
0.00941425
0.0103107
0.0147497
0.0196248
0.0154505
0.00946874
0.00187385
0.00193412
0.0019783
0.0020064
0.00200084
0.00196028
0.00199385
0.00188642
0.00177708
0.00198856
0.00216688
0.00230534
0.00271904
0.00300603
0.00270953
0.00297068
0.00314894
0.0032943
0.00341444
0.00359302
0.00379394
0.00397026
0.00398019
0.00364788
0.00310955
0.0025308
0.00212856
0.00201692
0.00189417
0.00167036
0.00152817
0.0014315
0.0013843
0.00136451
0.00140193
0.00153184
0.00164423
0.00168357
0.00165015
0.00161976
0.00159326
0.00141862
0.00165855
0.002275
0.00229321
0.00392871
0.00452667
0.00462043
0.0046265
0.00410228
0.00262083
0.00262639
0.00263983
0.00268991
0.00270035
0.00270673
0.00270376
0.00269363
0.00267781
0.00264814
0.00263353
0.00259093
0.00255519
0.00246616
0.00247016
0.00250182
0.00252685
0.00248584
0.00249627
0.00244377
0.00316038
0.00423468
0.00479281
0.00500911
0.00519573
0.00504322
0.00698237
0.0059634
0.00419082
0.00413365
0.00408173
0.00483925
0.00487271
0.00440551
0.00442332
0.00402547
0.00251172
0.00250191
0.00250348
0.00267664
0.00272884
0.00282317
0.00284902
0.00287334
0.00288729
0.00288427
0.00288307
0.00285953
0.00284092
0.00277779
0.0027567
0.00274783
0.0015149
0.00165319
0.00171448
0.00172536
0.0017492
0.0017381
0.00172682
0.00170575
0.00169145
0.00166291
0.00162944
0.00158119
0.00148681
0.00135485
0.0014913
0.00253237
0.00253217
0.0041313
0.00467044
0.00470437
0.00522977
0.00496613
0.00470362
0.00504723
0.00455511
0.00452015
0.00408303
0.0025337
0.00256816
0.00152324
0.00150958
0.00176435
0.00171526
0.00183296
0.00188297
0.0018893
0.00191567
0.00194123
0.0019726
0.00202316
0.00203876
0.00200846
0.00200325
0.00188743
0.00163105
0.00165065
0.00194602
0.00204078
0.0018939
0.00185935
0.00184423
0.00179858
0.00176392
0.00173057
0.00175289
0.00188699
0.00188496
0.00185189
0.0017623
0.00171655
0.00148874
0.00143816
0.00251461
0.00254793
0.00421241
0.00432062
0.00428601
0.00493307
0.00550295
0.00626478
0.00534458
0.00434686
0.00453752
0.00518586
0.00385653
0.0032145
0.00191513
0.00143769
0.00178492
0.00166056
0.00173086
0.00179336
0.00159274
0.00171073
0.00158183
0.0014374
0.00142956
0.00142785
0.0014635
0.00147842
0.0015055
0.00150917
0.00154607
0.00154271
0.00154776
0.00156677
0.00157622
0.00174166
0.00189423
0.00159373
0.00135084
0.001315
0.00124159
0.00118162
0.00121025
0.00118092
0.00117366
0.00115194
0.00113234
0.00108032
0.00112576
0.00119441
0.0013972
0.00133778
0.00108137
0.000966303
0.000660599
0.000673557
0.000678222
0.000699205
0.000706861
0.000716298
0.000719796
0.000731611
0.000733905
0.000737646
0.000737364
0.000755433
0.000752877
0.000744319
0.000738721
0.000742432
0.000745999
0.00074555
0.00109171
0.00121587
0.00132938
0.0015794
0.00185957
0.00160051
0.00135603
0.00116784
0.000750618
0.000761964
0.000776013
0.000783194
0.00080006
0.000815309
0.000832471
0.000843281
0.000851509
0.000860044
0.000869053
0.000872722
0.00087068
0.000853944
0.000844087
0.000865588
0.000951352
0.00100116
0.00106501
0.00108911
0.00110974
0.00111999
0.0011146
0.0011262
0.00111292
0.00111104
0.00109203
0.00108388
0.00107613
0.00106632
0.00105422
0.00102428
0.00101436
0.00106723
0.00180781
0.00236538
0.00272562
0.00300333
0.00277724
0.00225346
0.00236809
0.00416196
0.00394053
0.00232567
0.00217163
0.00200522
0.00175478
0.00152639
0.0018417
0.00210309
0.00230121
0.00247528
0.00263455
0.00274286
0.00288167
0.0030625
0.00338179
0.00342226
0.00312196
0.00253098
0.00214389
0.00200345
0.00193597
0.00181771
0.00168847
0.00173058
0.0017429
0.00169083
0.00162612
0.00160747
0.00163386
0.00166715
0.00164708
0.00164632
0.00147064
0.00147015
0.00251185
0.00256019
0.00393792
0.00414865
0.00418821
0.00269329
0.00265609
0.00155151
0.00144072
0.00157167
0.00163142
0.00163468
0.00164111
0.00163246
0.00160371
0.00158266
0.00155818
0.0015384
0.00152105
0.00149109
0.00143409
0.00132448
0.00144354
0.00161906
0.00169048
0.00170886
0.00171758
0.00174467
0.00178917
0.00182495
0.00190777
0.00191664
0.00191605
0.00192294
0.00179754
0.00185405
0.00156918
0.00156714
0.00271598
0.00270896
0.00155635
0.00183785
0.00185001
0.00182853
0.00196825
0.00180113
0.00174385
0.0017341
0.00166049
0.00162132
0.00156926
0.00153823
0.00156854
0.00166883
0.00161622
0.00143199
0.00138138
0.00154924
0.00148977
0.00123602
0.00105598
0.00102682
0.000982863
0.000956212
0.00100219
0.00103802
0.00105847
0.00108448
0.00109221
0.00114007
0.00110939
0.00116446
0.00123488
0.00129098
0.00153147
0.00165942
0.00149914
0.00147027
0.00145202
0.00145009
0.00145457
0.00139451
0.00139052
0.0013595
0.00134425
0.00130379
0.00128554
0.00126233
0.00126656
0.00128001
0.00140725
0.00362494
0.00461946
0.00481114
0.00820833
0.00332023
0.0033909
0.00663739
0.00275177
0.00413357
0.00442921
0.00463188
0.00483629
0.00442585
0.00561206
0.0039251
0.00436913
0.00455968
0.0040066
0.00149183
0.00168084
0.00194892
0.00175006
0.0015463
0.0010544
0.00113773
0.00117527
0.0012057
0.00122549
0.0012474
0.00127088
0.00129292
0.00130844
0.00130877
0.00126914
0.00122637
0.00112801
0.00109525
0.00113768
0.00118157
0.00103797
0.000977353
0.000988953
0.00100534
0.00101455
0.00101659
0.00102666
0.00102942
0.00104528
0.00103691
0.00104495
0.00102718
0.00103641
0.00102272
0.000987706
0.000938731
0.000855316
0.000834831
0.00120239
0.00128029
0.001345
0.00152596
0.00176169
0.00187969
0.00168455
0.00155312
0.0014908
0.00165389
0.00165393
0.00300137
0.00575883
0.00258163
0.00289409
0.00842436
0.00335155
0.0026084
0.00264811
0.00267598
0.00267958
0.00155739
0.00184475
0.00178888
0.00179567
0.00152287
0.00127844
0.00114661
0.0010252
0.000695078
0.000692721
0.000697951
0.000708556
0.000711837
0.000681347
0.000681266
0.000677367
0.000675836
0.000661495
0.000657496
0.000645862
0.000638802
0.00062205
0.000612963
0.000596965
0.000594014
0.000617613
0.000685117
0.00082784
0.000923625
0.00104834
0.00106814
0.00120761
0.00299881
0.0034763
0.004787
0.00474557
0.00748605
0.00467678
0.00353366
0.003196
0.00467455
0.00482828
0.00448602
0.00607838
0.00420713
0.00278286
0.00414319
0.0034365
0.00412028
0.00402687
0.00426805
0.00678635
0.00716083
0.00201912
0.00180027
0.00189415
0.00214872
0.00255093
0.00234788
0.00267508
0.00267021
0.00205826
0.0013151
0.00418803
0.00504755
0.00404082
0.00484342
0.00751853
0.00302187
0.00294744
0.00260809
0.002177
0.00197881
0.0019521
0.00217645
0.00260435
0.00653127
0.00698384
0.00640631
0.00637235
0.0057844
0.00638313
0.00798145
0.00795436
0.00702323
0.006572
0.00679412
0.00417949
0.0026215
0.00305441
0.00338216
0.00451206
0.00465291
0.00983129
0.0033332
0.00368325
0.00374078
0.00500545
0.00484443
0.00857572
0.00362711
0.00391378
0.00515691
0.00689007
0.0127198
0.00463295
0.00488542
0.00702964
0.00713508
0.00652109
0.00470902
0.0042675
0.00465096
0.00350345
0.00342441
0.0029247
0.00431862
0.00581675
0.00459368
0.00446101
0.00379824
0.00337393
0.00346245
0.00359117
0.00298225
0.00294155
0.00339741
0.00251475
0.00243146
0.00258219
0.000715977
0.000367094
0.000375338
0.000385078
0.000392987
0.000401115
0.000407086
0.000414139
0.000417363
0.000417687
0.000418735
0.000442857
0.000438832
0.000424967
0.000385894
0.000440398
0.000698866
0.000699381
0.000439949
0.000387874
0.000695885
0.00110894
0.00130744
0.00154693
0.00156626
0.00135129
0.00117148
0.000720941
0.000709641
0.000430175
0.000502382
0.000545574
0.000483859
0.000539955
0.00050042
0.000530085
0.000535424
0.000495346
0.000492622
0.000494542
0.000490736
0.000482033
0.000471369
0.000458361
0.000448055
0.000442266
0.000437577
0.000427596
0.000356087
0.000331578
0.000397794
0.000633358
0.000632319
0.000593073
0.000559906
0.000531731
0.000519099
0.00051571
0.000513001
0.000521968
0.000538881
0.000543642
0.000548376
0.000590899
0.000572713
0.000611756
0.000574076
0.000613381
0.000575779
0.000529659
0.000444737
0.000458864
0.000740189
0.000748064
0.00120887
0.00138317
0.00156859
0.0015768
0.00176001
0.00185332
0.00156919
0.00162917
0.0018674
0.00173947
0.0015508
0.00155673
0.00140047
0.00140159
0.0012413
0.000775617
0.000765051
0.000480513
0.000466637
0.000556433
0.000546658
0.000607992
0.000650634
0.000650845
0.000648722
0.000632066
0.000626163
0.00055067
0.00053991
0.00054061
0.000524193
0.000520579
0.000542396
0.000591039
0.000692831
0.000837729
0.000912534
0.000945127
0.000907312
0.000812821
0.000598622
0.000541892
0.000938189
0.000975169
0.00173644
0.00411074
0.00190023
0.00367506
0.00265343
0.00066158
0.000738606
0.000941963
0.00105557
0.00113948
0.00118686
0.00108379
0.000903629
0.000680523
0.000562147
0.000841338
0.000727577
0.000822466
0.000718465
0.000929741
0.0010751
0.00104012
0.00104801
0.00088575
0.00072164
0.000764246
0.000686262
0.000756489
0.000633247
0.000761928
0.000687911
0.000864487
0.000872594
0.000854433
0.000809891
0.000616662
0.000646992
0.000542706
0.000588678
0.0005285
0.00054619
0.000517586
0.000603545
0.000695457
0.000667419
0.000664777
0.000546178
0.000427937
0.000472618
0.000408546
0.000462384
0.000359304
0.000435295
0.00036507
0.000472565
0.000487074
0.000489472
0.000485957
0.000394996
0.0004643
0.000569705
0.000598558
0.000603639
0.000575209
0.000443306
0.000686147
0.000619635
0.000756649
0.00065467
0.000716444
0.000652492
0.000760533
0.000973996
0.00101685
0.00102363
0.000830428
0.000825199
0.00150466
0.0833887
0.00135349
0.00159972
0.0016495
0.00164348
0.00135879
0.00132583
0.00164176
0.00121478
0.00171999
0.0010829
0.00183401
0.000699328
0.0010631
0.00114138