/*--------------------------------*- C++ -*----------------------------------*\
| =========                 |                                                 |
| \\      /  F ield         | OpenFOAM: The Open Source CFD Toolbox           |
|  \\    /   O peration     | Version:  v2012                                 |
|   \\  /    A nd           | Website:  www.openfoam.com                      |
|    \\/     M anipulation  |                                                 |
\*---------------------------------------------------------------------------*/
FoamFile
{
    version     2.0;
    format      ascii;
    class       volScalarField;
    location    "1050";
    object      epsilon;
}
// * * * * * * * * * * * * * * * * * * * * * * * * * * * * * * * * * * * * * //

dimensions      [0 2 -3 0 0 0 0];


internalField   nonuniform List<scalar> 
18258
(
0.0239755
0.0122432
0.00910588
0.00715382
0.0126452
0.0125183
0.0129796
0.017317
0.0241288
0.0369721
0.0535538
0.048153
0.0435413
0.0452941
0.0474588
0.0450081
0.0350711
0.0303381
0.0399078
0.066619
0.0608625
0.0497
0.0609289
0.0513962
0.0653752
0.0824642
0.0632464
0.0568873
0.0510159
0.0479547
0.04142
0.0236179
0.0343051
0.0529515
0.0723172
0.0790306
0.0846767
0.0893673
0.094581
0.0967221
0.0969837
0.0917817
0.0826197
0.0676061
0.0497078
0.0382914
0.0303035
0.0312391
0.0438162
0.0447309
0.0554928
0.0853865
0.107825
0.0808977
0.0518286
0.0824933
0.112412
0.14415
0.170679
0.193156
0.200913
0.197529
0.186033
0.169328
0.147897
0.122915
0.101925
0.0850044
0.0672161
0.0574215
0.0464732
0.0385628
0.0329976
0.0293392
0.0271396
0.0254092
0.0242413
0.025176
0.0250637
0.017874
0.0140614
0.0132109
0.00945217
0.0078567
0.00817542
0.00778119
0.00808515
0.00713938
0.00611163
0.00530175
0.00449055
0.00652937
0.00701883
0.0072585
0.00727609
0.00780226
0.00806778
0.00780632
0.00790331
0.00723723
0.00737177
0.0118608
0.0136662
0.0173488
0.0154674
0.0106887
0.00911792
0.0101572
0.0107828
0.013383
0.0125689
0.0133558
0.0118511
0.0108181
0.00914366
0.00888695
0.00912935
0.0097048
0.0101136
0.0117117
0.0115389
0.0106962
0.0118316
0.0130576
0.0127851
0.0122389
0.0116597
0.0143099
0.011517
0.0122046
0.0137069
0.0220854
0.0216088
0.0260881
0.0256096
0.0260587
0.0262443
0.0316337
0.031755
0.0321281
0.0324475
0.0341448
0.0572365
0.051013
0.0499069
0.0497131
0.0430319
0.0425606
0.0418596
0.0426739
0.0362115
0.0348638
0.0316057
0.031236
0.0348468
0.0440083
0.0615272
0.0888334
0.122836
0.159231
0.189539
0.210549
0.232304
0.23765
0.251519
0.256189
0.257072
0.251377
0.242928
0.233434
0.220545
0.201923
0.188915
0.148431
0.105056
0.0591296
0.0784435
0.0904591
0.100184
0.102103
0.103284
0.099251
0.0930584
0.0819043
0.0663852
0.0431223
0.0482764
0.0654597
0.0678407
0.0686285
0.0544823
0.0525081
0.0488445
0.0488864
0.0642864
0.0736396
0.0618687
0.0853853
0.100342
0.0877935
0.0636713
0.0974909
0.142907
0.0804376
0.0682755
0.0527462
0.0517572
0.04373
0.0369942
0.0629866
0.0940474
0.128923
0.149845
0.171466
0.188839
0.201997
0.215955
0.187786
0.170669
0.115009
0.20121
0.15261
0.0771917
0.0569711
0.0552796
0.0455785
0.0512331
0.0563591
0.0520893
0.0400948
0.0277639
0.0248277
0.0461334
0.0643513
0.0777805
0.0619015
0.0787676
0.0887753
0.0960519
0.10134
0.128537
0.0946408
0.105581
0.0753756
0.102457
0.0725697
0.0467081
0.0525362
0.100389
0.160046
0.219043
0.255952
0.14541
0.0736771
0.0546985
0.0547112
0.0528846
0.0478824
0.0595076
0.105836
0.0719295
0.0466012
0.0404083
0.0476991
0.0414473
0.0307531
0.0323014
0.039807
0.0548513
0.068667
0.0815217
0.125019
0.121997
0.14713
0.154323
0.130118
0.12592
0.0815295
0.0835551
0.12288
0.0917362
0.0741785
0.104192
0.147474
0.201947
0.248484
0.289043
0.314928
0.304217
0.275168
0.174067
0.0762271
0.0229366
0.0178084
0.0168417
0.0173168
0.0105245
0.00630834
0.00586566
0.00669174
0.00703435
0.00591994
0.0054458
0.00543548
0.00578937
0.010187
0.00875236
0.0108317
0.0131246
0.0156751
0.0187215
0.0194508
0.0129062
0.00873589
0.00819785
0.00813351
0.00806483
0.00803584
0.00804815
0.00808943
0.0081063
0.00807485
0.00799684
0.00786013
0.00772477
0.00766752
0.00830453
0.0111979
0.0153641
0.0148548
0.0135637
0.0122066
0.0110436
0.00871171
0.01516
0.0128535
0.0109445
0.0134074
0.0165175
0.0208763
0.0245309
0.0176957
0.0141672
0.0128218
0.012696
0.0125818
0.0126276
0.0125052
0.0125701
0.0123702
0.0129655
0.013587
0.0169883
0.0190139
0.0211917
0.0226876
0.0232651
0.0239746
0.0211318
0.0229733
0.0227339
0.0235151
0.0233339
0.0226489
0.0207327
0.0189431
0.0177231
0.0191414
0.0237143
0.0323777
0.0267684
0.0207773
0.0168139
0.0137544
0.0150226
0.0166971
0.0168724
0.0158842
0.0156505
0.0154415
0.0139221
0.0131384
0.0111225
0.0105107
0.0100435
0.0101917
0.0143699
0.0135219
0.01373
0.0144662
0.0155718
0.0147292
0.0151616
0.0143096
0.0145581
0.0149802
0.0170429
0.0186048
0.0178444
0.0165225
0.016026
0.0137558
0.0158655
0.0157254
0.0170463
0.0186337
0.0191278
0.0190634
0.0184254
0.0168308
0.0187234
0.0220953
0.0257514
0.0247492
0.0244214
0.0204716
0.0192669
0.0202379
0.0215091
0.0224124
0.022478
0.0222988
0.0223798
0.0263673
0.0260082
0.024818
0.0227516
0.0203059
0.017664
0.0152188
0.0166901
0.0181663
0.0195516
0.0208144
0.0205841
0.0190624
0.0177084
0.0164817
0.0149912
0.0147031
0.0161542
0.017373
0.0188006
0.0205112
0.0205914
0.01888
0.0173875
0.0161078
0.0146359
0.0145867
0.0160856
0.0173818
0.0187971
0.0202802
0.0196495
0.0184957
0.0172466
0.0160057
0.0145544
0.0146217
0.0159424
0.01701
0.0180923
0.0190416
0.0198981
0.0179356
0.017026
0.0171207
0.0161341
0.0193221
0.0185636
0.0195054
0.0180513
0.0168248
0.0178304
0.0210256
0.0240637
0.0246171
0.0243376
0.0202006
0.0206565
0.0206325
0.0192113
0.0159841
0.0153877
0.0181652
0.0209096
0.0213738
0.0200611
0.0169502
0.013304
0.0143288
0.0174995
0.0198171
0.0185532
0.0183925
0.0169756
0.0158951
0.0161942
0.0139136
0.0166533
0.0267449
0.0242031
0.022187
0.0197201
0.0157082
0.0106359
0.0115374
0.0126991
0.0131153
0.0105979
0.00793447
0.00712489
0.00693144
0.00677341
0.00655531
0.00618804
0.00563221
0.00538528
0.0105708
0.0255272
0.0363786
0.0357862
0.0241009
0.0206998
0.0199252
0.0182707
0.0086467
0.00818559
0.00838227
0.0103972
0.00826301
0.00820743
0.0141891
0.00991343
0.0136477
0.0106591
0.0146321
0.0229126
0.0216368
0.0142927
0.00800941
0.00690844
0.00739971
0.00768183
0.00788565
0.00808261
0.00831672
0.00870385
0.0100285
0.0157671
0.020355
0.0178106
0.0168205
0.0153418
0.0188872
0.0213683
0.0233051
0.02607
0.0161162
0.011804
0.0166576
0.0273012
0.0247869
0.0233317
0.0171853
0.017726
0.0171526
0.01103
0.0106831
0.0105989
0.0114117
0.0128024
0.0147272
0.0158806
0.016628
0.0169586
0.0178713
0.0231377
0.0216474
0.0211291
0.0173403
0.0134243
0.0154321
0.0516909
0.0195805
0.0206977
0.0189137
0.0191812
0.0204684
0.0151566
0.0135049
0.0129339
0.0146299
0.0215251
0.0215417
0.0214073
0.0182721
0.0174891
0.0209211
0.0220096
0.0224037
0.0217864
0.0213495
0.0194857
0.0167019
0.0181343
0.0196534
0.0208495
0.0228575
0.0231947
0.0179762
0.0172536
0.0158578
0.0105594
0.0113021
0.00973826
0.0097084
0.00967533
0.00940223
0.008952
0.00923974
0.00935622
0.00935394
0.00900748
0.00930511
0.00835423
0.00869062
0.00978321
0.0152344
0.014799
0.017598
0.0195106
0.0167535
0.015593
0.0142289
0.0132044
0.0154611
0.0142975
0.016877
0.0212347
0.0265328
0.0191555
0.0181588
0.0179355
0.01753
0.0173721
0.0174248
0.0167293
0.0157239
0.0151544
0.0236157
0.021311
0.0181838
0.0172332
0.0157982
0.0180541
0.0174959
0.0214001
0.0268921
0.0270976
0.0215683
0.0216466
0.0189855
0.0200926
0.0222865
0.0271349
0.0270582
0.0144592
0.0096136
0.0154619
0.0158023
0.0184141
0.0170279
0.0185575
0.0197396
0.020467
0.0203253
0.0177209
0.0188984
0.0196877
0.0206745
0.0186177
0.0166109
0.0174016
0.0161779
0.0152765
0.0147748
0.0126974
0.012945
0.0139191
0.0153725
0.0163159
0.0178132
0.019473
0.0195005
0.0201715
0.0197669
0.0191636
0.0252678
0.0240252
0.0255671
0.0282834
0.0224835
0.0178413
0.0147125
0.015027
0.0147932
0.0147013
0.0154415
0.0168028
0.0151794
0.0145594
0.0170775
0.0194435
0.0247201
0.0331074
0.028843
0.0262577
0.0332654
0.0314199
0.0382904
0.0287146
0.0281812
0.0208883
0.0263231
0.0305383
0.0392601
0.0255543
0.0209907
0.0224442
0.025563
0.0348204
0.0328372
0.033214
0.0412493
0.0400126
0.0362363
0.0312082
0.035413
0.0212864
0.0302314
0.0322643
0.0268427
0.0257436
0.030795
0.0311203
0.0330534
0.0283989
0.0268086
0.0179454
0.0274941
0.0314398
0.0331355
0.0278651
0.0205498
0.028058
0.0205866
0.0192212
0.0203338
0.0138017
0.0127468
0.0148228
0.0138922
0.0112152
0.012166
0.0111847
0.0111722
0.0112541
0.0113701
0.0115032
0.0117597
0.0117243
0.0127379
0.0133544
0.0126473
0.0115819
0.0122374
0.0125945
0.0161122
0.0181997
0.0204629
0.0220526
0.0228926
0.0240394
0.0227348
0.0248465
0.0237627
0.0252443
0.0249556
0.0238935
0.0213834
0.0187521
0.0163599
0.0168828
0.0205516
0.0270358
0.0221354
0.0171295
0.013845
0.0114583
0.0127463
0.0159677
0.00866316
0.00791617
0.00762717
0.00745537
0.00731464
0.00648817
0.00577169
0.00839114
0.0129653
0.0162674
0.0203122
0.0258844
0.0320555
0.0374842
0.0416139
0.0445487
0.0463436
0.0467963
0.0438822
0.0332409
0.0285293
0.0244605
0.0202153
0.0164954
0.0167959
0.0244348
0.0320643
0.0396048
0.0462647
0.0512503
0.0493498
0.0331432
0.0300705
0.0463169
0.0778591
0.0736274
0.0966524
0.110562
0.0626007
0.0463641
0.0453567
0.0621474
0.0647872
0.0566858
0.0466292
0.0363238
0.0261321
0.0305347
0.03491
0.0391441
0.0436237
0.0578339
0.0608831
0.0596459
0.0570536
0.0535664
0.0486368
0.0414237
0.0328125
0.0248993
0.0189828
0.014336
0.00918273
0.00731877
0.00790451
0.00721952
0.00994466
0.00899431
0.00839882
0.00809719
0.00834144
0.00820405
0.00835798
0.00740633
0.00664267
0.0103847
0.00960723
0.00959112
0.0102641
0.0134924
0.0103793
0.00767771
0.00724712
0.0071902
0.00740508
0.0154315
0.0248675
0.0303729
0.0350291
0.038708
0.0372959
0.0337584
0.0279572
0.0218314
0.019668
0.0166996
0.0142744
0.0131398
0.0145036
0.0119803
0.00600279
0.00515579
0.00568866
0.00554884
0.00508057
0.00612201
0.00682272
0.00744457
0.00787436
0.00818948
0.00825248
0.00819224
0.00810287
0.00805921
0.00803937
0.00801078
0.00794528
0.00784875
0.00770517
0.0075673
0.00750208
0.00809554
0.0107085
0.0146291
0.0143898
0.0132758
0.012165
0.0113022
0.00957646
0.0154192
0.0130918
0.0109779
0.0101557
0.0100175
0.0103211
0.0113008
0.0129465
0.0138673
0.0158708
0.0159026
0.0157883
0.0160716
0.0158593
0.013206
0.0149841
0.0177177
0.0185477
0.0191697
0.0189511
0.0174218
0.0194317
0.0205657
0.0200011
0.0193847
0.0165133
0.0192378
0.0232319
0.0236818
0.0239675
0.0213093
0.0184837
0.0216397
0.0227982
0.0223854
0.0232623
0.02145
0.0221731
0.0277608
0.0142513
0.0129951
0.00780042
0.00873836
0.00895222
0.00864406
0.008364
0.00871295
0.00896926
0.00875741
0.00942887
0.00973638
0.00906046
0.0115335
0.0106203
0.0102413
0.00961921
0.0101516
0.0108235
0.0111521
0.0122591
0.0196449
0.0201165
0.018284
0.020781
0.0213815
0.0180498
0.0204942
0.0213644
0.0216423
0.0219906
0.0235142
0.0221184
0.024453
0.0236571
0.0223179
0.0215518
0.0382838
0.0252618
0.0166504
0.0153708
0.0150259
0.0150972
0.0170173
0.0128154
0.0143609
0.0101665
0.00880959
0.00844425
0.00815358
0.00819836
0.0106918
0.0164166
0.0249442
0.0280945
0.026985
0.0235682
0.0179347
0.0132831
0.0130131
0.0117979
0.0110606
0.0109677
0.00737649
0.00510928
0.00647393
0.00656843
0.00716161
0.00758249
0.00792593
0.00818515
0.0083298
0.00840625
0.00849282
0.00861529
0.00874674
0.00885874
0.0089454
0.00900654
0.0090703
0.00919145
0.00949929
0.0107065
0.0153565
0.019747
0.0186186
0.0171519
0.0158438
0.0166093
0.017362
0.0180761
0.02226
0.0191474
0.022037
0.0207402
0.0197612
0.0183462
0.0190814
0.0208741
0.0166769
0.0166169
0.0113715
0.00993324
0.00955565
0.00934067
0.00917228
0.00900396
0.00883273
0.0086792
0.00853366
0.0084064
0.00830557
0.00821168
0.00806636
0.00781471
0.00740716
0.0069721
0.00608322
0.00668155
0.0073243
0.00835827
0.00953116
0.010088
0.0095088
0.00874439
0.00842955
0.00857763
0.00876576
0.00896997
0.00920145
0.00952083
0.00999102
0.0109665
0.0116264
0.0163035
0.0170508
0.0202742
0.0200751
0.0179769
0.0173268
0.0189346
0.0174382
0.0126771
0.0174085
0.0169412
0.0212094
0.0157497
0.0148614
0.0152842
0.0157716
0.0184085
0.0173142
0.0158271
0.0157835
0.0126831
0.0142711
0.016282
0.0177569
0.0279809
0.0274428
0.0344972
0.0343837
0.0593331
0.0564872
0.0498326
0.053831
0.0237762
0.0465035
0.0543486
0.049552
0.0430303
0.0274375
0.0438311
0.0666802
0.0965968
0.0696861
0.0570078
0.105893
0.0769098
0.0374791
0.0266435
0.0150401
0.0151185
0.0250978
0.0291433
0.0241671
0.0233247
0.0334967
0.0348592
0.0280906
0.0287497
0.031123
0.0300504
0.0325244
0.0281642
0.0274439
0.015571
0.0127844
0.0138238
0.0155667
0.0165814
0.0160704
0.0169137
0.0175844
0.0161355
0.0151014
0.0145351
0.0124638
0.0131999
0.0161887
0.0204106
0.0239239
0.0172794
0.0138856
0.0125866
0.0123911
0.0121624
0.0120406
0.0117165
0.0115269
0.0110547
0.0112594
0.00980776
0.00982328
0.010364
0.0105311
0.0107389
0.0109004
0.0110267
0.0111408
0.0120038
0.0187772
0.0259705
0.0207793
0.0164664
0.0139812
0.015173
0.0171011
0.02101
0.0264395
0.0178591
0.0176839
0.0115343
0.0107583
0.0105473
0.0103719
0.0102173
0.0101174
0.0101773
0.0101799
0.0119213
0.0115889
0.013572
0.0146428
0.0121048
0.0116771
0.011207
0.0109209
0.0107629
0.0106775
0.010766
0.0116272
0.0114615
0.0105322
0.0104388
0.0105596
0.0107734
0.0110963
0.0115427
0.0120456
0.0129583
0.0127396
0.0112397
0.0112405
0.0105814
0.0102738
0.0100414
0.0100206
0.010072
0.0102153
0.0104395
0.0113467
0.0171497
0.01733
0.0266658
0.0266413
0.0211755
0.0176938
0.0155341
0.0142787
0.0135458
0.0351908
0.0308976
0.0488306
0.0390236
0.0312685
0.0507251
0.0721062
0.0560229
0.0911319
0.0984718
0.0726004
0.0656507
0.0209465
0.0159619
0.0154473
0.0169402
0.0186383
0.021282
0.0218755
0.0267036
0.0288093
0.0172101
0.0165294
0.0156072
0.0249066
0.0230731
0.0196931
0.0178026
0.016412
0.0189589
0.02076
0.014998
0.0150476
0.00970018
0.0107077
0.0104483
0.0101081
0.00998883
0.00991247
0.00994767
0.010044
0.0103295
0.0108269
0.01121
0.0113527
0.0116284
0.0114073
0.0111388
0.0108219
0.0106353
0.0104476
0.0102934
0.0101739
0.0102075
0.0105236
0.0106678
0.00936056
0.0097069
0.00981547
0.00982634
0.00985647
0.0098189
0.00967841
0.00946807
0.00926472
0.00905336
0.00909819
0.00994117
0.0101011
0.0101648
0.0100109
0.00989206
0.0098824
0.00981731
0.00980367
0.00979652
0.00967372
0.00936075
0.00863399
0.00848499
0.00909082
0.00943612
0.00961507
0.00969682
0.00968109
0.00962607
0.00939329
0.009216
0.00900105
0.00865133
0.00817856
0.00673803
0.00701438
0.00737659
0.00788205
0.00840279
0.0088597
0.00916745
0.00933062
0.00942385
0.00934296
0.00905177
0.00852389
0.0084688
0.00885857
0.00903599
0.00899068
0.00872223
0.00830377
0.00773331
0.00702657
0.0063446
0.00583013
0.00559912
0.00521822
0.00655096
0.00715733
0.0077171
0.00823461
0.00872393
0.00924595
0.00944686
0.00950213
0.00948195
0.00932581
0.00899446
0.00846475
0.00846999
0.00894823
0.0092592
0.0093839
0.00936234
0.00918002
0.00877333
0.00785775
0.00704244
0.00638164
0.00578725
0.00518886
0.00513119
0.00538635
0.00513666
0.00531874
0.00588588
0.00668305
0.00746154
0.0080784
0.00851361
0.00870431
0.00865858
0.00841013
0.00830984
0.00842786
0.00836368
0.00805112
0.00747778
0.00673041
0.00593684
0.0053198
0.00515903
0.00549755
0.00582499
0.00551201
0.00436763
0.00491842
0.00548461
0.006084
0.00700721
0.00819363
0.00877962
0.0090983
0.00925829
0.00919289
0.00890315
0.00846136
0.00844008
0.00886601
0.00914914
0.00919705
0.00905535
0.00877912
0.00829767
0.00686273
0.0053833
0.00474819
0.00439151
0.00395609
0.00558706
0.00595412
0.00553627
0.0052638
0.00570094
0.00623309
0.00684662
0.00735407
0.0077826
0.00809322
0.00820329
0.00817881
0.00804412
0.00804012
0.0079786
0.0077717
0.00753037
0.00733209
0.00690857
0.00645951
0.00591592
0.00646708
0.00675444
0.00632541
0.00466992
0.00495911
0.00542562
0.00572505
0.0071981
0.00862195
0.0090011
0.0091297
0.00926084
0.00918589
0.00886299
0.00841676
0.00839892
0.00892881
0.00933918
0.00948707
0.0096004
0.00974177
0.00987179
0.00872985
0.00679596
0.00629955
0.0052771
0.0048216
0.00664321
0.00706735
0.00686741
0.00660351
0.00756347
0.00795995
0.00809689
0.00810125
0.00810512
0.00807541
0.00798837
0.00792624
0.00781075
0.00824413
0.00887764
0.0087853
0.00869737
0.00854772
0.00819219
0.00773979
0.00720282
0.00788118
0.00844078
0.00815833
0.00596674
0.00633966
0.00725217
0.00747648
0.00904974
0.0102308
0.010545
0.0105031
0.0103639
0.0103209
0.00929622
0.00836098
0.00820848
0.00957269
0.0155436
0.0153767
0.0153971
0.0153156
0.0147397
0.0145658
0.0139939
0.0137317
0.0130276
0.0125712
0.0118872
0.0138951
0.0175852
0.0196484
0.0219985
0.0244765
0.0231272
0.0186641
0.0164617
0.0100984
0.00796474
0.0068707
0.00595614
0.00526473
0.00506041
0.00747513
0.00929367
0.0114073
0.0133124
0.0136465
0.0160438
0.0199463
0.030383
0.0483141
0.0407826
0.0384909
0.0386306
0.0955358
2.54168
2.71394
2.48099
2.88214
3.32705
0.383863
0.149885
0.278256
0.293359
0.325991
0.304087
0.27699
0.253941
0.265248
0.25462
0.26664
0.24859
0.259011
0.226392
0.232726
0.239818
0.701996
1.04387
1.25839
1.75548
1.75561
1.97954
1.92844
1.94564
1.79677
1.91217
1.66195
1.37819
1.30261
1.23069
1.32101
1.43555
1.24582
1.12905
1.01348
0.921773
0.789242
1.00067
0.759233
0.717512
0.71601
0.747954
0.996268
0.90743
1.04412
0.960235
0.999248
0.59837
0.671417
0.488153
0.406382
0.338066
0.405516
0.542775
0.720863
0.90301
0.69963
0.956616
0.89107
0.891073
0.84845
0.772791
0.733623
0.721141
0.742424
0.755461
0.771259
0.79965
0.821411
0.840937
0.99295
1.05903
1.05051
0.860502
0.769067
0.532621
0.57034
0.604082
0.607305
0.565427
0.54746
0.496678
0.484209
0.439425
0.420352
0.38221
0.363015
0.330985
0.45782
0.78257
0.812356
0.882485
0.935495
0.985975
1.0079
1.02542
1.00843
0.97526
0.904742
0.873511
0.809966
0.918416
1.104
1.10185
1.01214
0.859119
0.813038
3.7913
4.61048
3.0521
6.57934
9.99734
16.7658
7.63634
2.07126
3.46119
2.37779
2.10957
2.05579
2.17005
3.41881
2.50083
3.26777
2.71968
2.85064
2.24823
2.47105
2.31897
1.77395
1.48956
1.26123
1.13016
0.910807
0.891558
0.732049
0.685294
0.646043
0.544342
0.67808
0.695126
1.69517
2.3104
2.88109
4.52001
4.95834
5.4156
8.53925
6.89973
8.62637
5.12616
5.1822
3.83077
3.60242
3.64102
5.00674
7.16212
4.93261
8.61142
4.7986
15.5877
34.8542
9.20265
19.0208
10.9646
9.90789
9.54318
9.82666
13.9597
9.53896
15.4954
13.1141
17.4401
17.094
18.0128
13.8381
10.2502
11.2065
12.0156
15.4332
10.8825
12.4363
9.43804
9.21542
8.72375
7.24145
6.54332
5.04432
5.98081
7.01122
7.98904
12.6943
15.8914
18.245
21.9881
16.2172
18.4897
11.1295
12.2254
9.44217
8.86029
8.99529
11.8373
20.9881
14.8658
27.1861
0.498312
0.226154
0.545973
0.229733
0.487239
0.390647
0.403159
0.404068
0.39973
0.460991
0.220186
0.185142
0.177377
0.175234
0.176762
0.100236
0.124464
0.0804284
0.126946
0.229399
0.504639
0.365908
0.140578
0.0826224
0.0546095
0.0429547
0.0634706
0.061264
0.0979701
0.0993236
0.105644
0.132168
0.228237
0.433511
31.7956
7.09547
1.12612
0.528896
0.281756
0.172792
0.148786
0.16827
0.18112
0.184066
0.173089
0.14731
0.105913
0.0703476
0.0473623
0.0399416
0.0291339
0.0280468
0.0394907
0.0532741
0.0494083
0.065127
0.0835354
0.106352
0.130698
0.150137
0.164764
0.168682
0.156599
0.122546
0.0806544
0.0444089
0.0264965
0.0228327
0.0208966
0.0194022
0.0167539
0.0145223
0.0131095
0.0112114
0.00989022
0.00893038
0.00862942
0.00875737
0.0095658
0.0121004
0.0145633
0.0188581
0.0179823
0.0134645
0.0126126
0.00781415
0.00722454
0.00737363
0.00762643
0.00844411
0.0132066
0.013517
0.0133962
0.0134304
0.0132511
0.0132468
0.0130803
0.0129245
0.0127072
0.0122935
0.0120032
0.0114812
0.011194
0.0105043
0.0105317
0.0108934
0.0111955
0.0101259
0.0100131
0.00932815
0.0209258
0.0495347
0.0703143
0.0787375
0.0885147
0.0811937
0.0421122
0.0232334
0.00795417
0.00770383
0.0082028
0.00885359
0.00839995
0.00616325
0.00670582
0.00793094
0.0111493
0.0111346
0.0111684
0.0130383
0.0135867
0.0149309
0.0154772
0.0158385
0.0160638
0.015968
0.0160936
0.0157937
0.0158845
0.0156733
0.0157616
0.0153561
0.0272659
0.0256785
0.0264135
0.026459
0.0276856
0.027186
0.0267297
0.0257494
0.0250654
0.0235377
0.0219723
0.0203719
0.0182362
0.0189618
0.018283
0.0113632
0.0107761
0.00770843
0.00769833
0.00740704
0.0102568
0.00932783
0.00784195
0.00919979
0.00672244
0.00689499
0.00728001
0.0104018
0.0109306
0.017457
0.0174782
0.0155153
0.016517
0.0175696
0.0189151
0.0200606
0.0214821
0.0224693
0.0235538
0.0254195
0.0258205
0.024042
0.0236864
0.0225705
0.0244975
0.0234623
0.0217281
0.0232923
0.0249587
0.027524
0.0272207
0.0250768
0.0237631
0.0223614
0.020041
0.0174029
0.0160107
0.0149791
0.0149903
0.0139311
0.0162241
0.0146291
0.0101583
0.0105953
0.0080942
0.0063153
0.00603348
0.0092711
0.0132842
0.0283302
0.0177019
0.00946685
0.0105393
0.0169539
0.0353489
0.0211821
0.0342048
0.0146843
0.0159608
0.0126674
0.0126356
0.0139301
0.0162307
0.0173385
0.0210114
0.023702
0.0256973
0.0266183
0.0279323
0.0283236
0.0297339
0.0301808
0.0328703
0.0331239
0.0331421
0.0326703
0.0302423
0.0271876
0.0249628
0.0309037
0.0358197
0.0391641
0.0415958
0.0440881
0.0428199
0.03913
0.038253
0.0363343
0.0352123
0.0338127
0.0306882
0.0268498
0.0220297
0.0214165
0.0274368
0.0331876
0.0495291
0.0535456
0.0532787
0.0555697
0.0560805
0.0578368
0.0582831
0.0609257
0.0615049
0.0626672
0.0630067
0.0682141
0.0691041
0.0700864
0.0704144
0.0700991
0.0710378
0.0710389
0.0482809
0.0432614
0.0391441
0.0324723
0.0271524
0.034469
0.0429987
0.0482963
0.0737481
0.0742
0.0778827
0.0804939
0.0853922
0.0890556
0.0938794
0.0983207
0.102656
0.106012
0.108014
0.108288
0.10872
0.107731
0.106418
0.115174
0.149707
0.166283
0.196982
0.21208
0.224625
0.228632
0.219988
0.223826
0.215763
0.218362
0.212126
0.210186
0.204898
0.198562
0.194947
0.188609
0.184474
0.212661
0.160479
0.12287
0.0813963
0.0652568
0.0584262
0.0548734
0.0574521
0.0444931
0.038036
0.056883
0.0524904
0.0421306
0.028418
0.0188131
0.0322147
0.0478469
0.0647396
0.0819247
0.0976171
0.107894
0.110495
0.109442
0.104677
0.0968222
0.0816397
0.0614293
0.0421244
0.0346378
0.0319201
0.027981
0.0220755
0.0177504
0.0156479
0.0140737
0.0123216
0.0110852
0.0105385
0.0107126
0.0110266
0.0132234
0.0173066
0.017296
0.011597
0.0111281
0.00765751
0.0077467
0.00800644
0.0133035
0.0134541
0.0208602
0.0233117
0.0219578
0.0226544
0.0223958
0.0227014
0.0223632
0.0211796
0.0203534
0.0193905
0.0185524
0.0178045
0.0169701
0.0161314
0.0174485
0.0163827
0.0138045
0.0139448
0.0145718
0.0152262
0.0161106
0.0173717
0.0184412
0.021137
0.021285
0.0207788
0.0208663
0.0193873
0.0186648
0.0199119
0.0194284
0.0132405
0.0130578
0.0190592
0.0187094
0.0186087
0.0224342
0.0208678
0.0213857
0.0225215
0.0224432
0.0195064
0.0181518
0.0165942
0.0154128
0.0140262
0.0125037
0.0121104
0.0148476
0.01303
0.0107166
0.0119321
0.0143339
0.0169428
0.0184108
0.020399
0.0231135
0.0240879
0.0263411
0.0277693
0.0298683
0.0307035
0.0355158
0.0361511
0.0339613
0.0321204
0.0311279
0.027353
0.0234484
0.0258591
0.0267329
0.0271106
0.0272571
0.027144
0.0235635
0.0231333
0.021618
0.0210987
0.0195172
0.0189559
0.0177919
0.0170269
0.0159989
0.0141717
0.0134722
0.0126548
0.0122971
0.017342
0.0108546
0.0105845
0.0159967
0.00984818
0.0115889
0.0113316
0.011861
0.0125291
0.0103529
0.0151314
0.0103296
0.0112305
0.011472
0.0144269
0.0100562
0.0216249
0.0657341
0.0938359
0.112783
0.204363
0.244117
0.264086
0.284622
0.298539
0.314436
0.331782
0.349304
0.362178
0.363474
0.337627
0.319006
0.253979
0.227336
0.250946
0.28088
0.193483
0.165979
0.168167
0.168888
0.171353
0.172494
0.175979
0.173879
0.178748
0.174401
0.181458
0.175428
0.18165
0.17451
0.159483
0.143078
0.111069
0.100527
0.0648586
0.0502541
0.0393139
0.0285842
0.0208573
0.0187304
0.0177375
0.0164059
0.0164901
0.0126352
0.0130923
0.00839495
0.00618146
0.0098557
0.00967945
0.00723245
0.00980783
0.0111993
0.011705
0.0122364
0.0125297
0.0191529
0.0191784
0.0245477
0.0244871
0.0290583
0.0346719
0.0359141
0.039548
0.0569307
0.0574678
0.0572111
0.057071
0.0566625
0.0494228
0.0491416
0.0480378
0.0474551
0.0445033
0.0439478
0.0418559
0.040712
0.0377496
0.0369232
0.0357991
0.0362875
0.041107
0.0570689
0.101228
0.0299004
0.0286233
0.0209618
0.0145599
0.0214881
0.0159139
0.015476
0.0136273
0.0187018
0.0134613
0.013707
0.0165263
0.0170541
0.01646
0.0215371
0.0268376
0.0235531
0.0261588
0.118672
0.0773279
0.024915
0.0492556
0.0728903
0.159247
0.204502
0.140398
0.160152
0.184115
0.16728
0.140526
0.110171
0.0820314
0.0585668
0.0454742
0.0113299
0.013418
0.0186311
0.0415643
0.0616109
0.101417
0.0835075
0.109066
0.148946
0.173396
0.209295
0.200947
0.172939
0.148852
0.145392
0.16038
0.163272
0.106399
0.103428
0.0782014
0.174293
0.219179
0.184689
0.231789
0.244767
0.145809
0.032247
0.0184052
0.0151364
0.013933
0.0124493
0.0193565
0.011486
0.0116594
0.0123799
0.0132805
0.0169868
0.0293407
0.0134772
0.0149371
0.018343
0.0158769
0.0148662
0.0146453
0.0145401
0.0151463
0.0164885
0.0215379
0.021662
0.0213492
0.015994
0.0172974
0.0157124
0.0200428
0.0212439
0.0332951
0.0152772
0.0162246
0.0215485
0.481166
0.0246932
0.0178421
0.0232699
0.0219359
0.0301873
0.0436443
0.460755
0.0444757
0.0351654
0.0585428
0.0607645
0.0654361
0.0691152
0.0726596
0.0751736
0.0791548
0.0817752
0.0830395
0.0843303
0.0999504
0.0998475
0.0987734
0.103359
0.0974303
0.057557
0.0577469
0.0971777
0.104855
0.0592907
0.0409167
0.0384074
0.0310999
0.0322042
0.0417291
0.0438141
0.0615107
0.0613239
0.102231
0.093245
0.0946306
0.0964169
0.0914744
0.0919784
0.093984
0.0941302
0.0754296
0.0730575
0.0712747
0.0682532
0.0646879
0.0617899
0.0588849
0.0558667
0.0533907
0.0537505
0.058949
0.0584542
0.0665621
0.074712
0.2288
0.156607
0.111234
0.0817357
0.0658562
0.0592008
0.0585403
0.0616331
0.0648653
0.066493
0.0673077
0.0707332
0.0924431
0.0945971
0.0974324
0.0949424
0.0987109
0.0967144
0.0942735
0.104138
0.111924
0.0654485
0.0675252
0.0476158
0.0443777
0.0323632
0.0329015
0.0234954
0.0194992
0.0195009
0.0194833
0.0196931
0.0225451
0.0314684
0.0315837
0.0461134
0.0460616
0.0515272
0.075102
0.0721822
0.128665
0.117954
0.1083
0.10104
0.101391
0.103553
0.106137
0.101158
0.0977693
0.0922566
0.0724603
0.0683941
0.0662658
0.0650548
0.0638524
0.0676315
0.0919347
0.149949
0.229959
0.336997
0.437453
0.447362
0.404107
0.255124
0.293378
0.146765
0.166423
0.188887
0.166308
0.174765
0.321733
0.2674
0.379428
0.483796
0.537681
0.604185
0.641873
0.632437
0.504436
0.328904
0.336247
0.447169
0.771942
0.865462
0.74353
0.760719
0.657571
0.539496
0.520872
0.496025
0.55938
0.609598
0.575343
0.591543
0.535952
0.512136
0.442464
0.49346
0.360447
0.324653
0.305165
0.296352
0.355069
0.287364
0.323737
0.266218
0.272589
0.221607
0.227078
0.189574
0.145155
0.137649
0.127635
0.142939
0.162138
0.148613
0.153337
0.133932
0.114623
0.0912261
0.098373
0.0735262
0.0696121
0.0708435
0.0810672
0.127786
0.374806
0.174628
0.164118
0.168013
0.177837
0.319626
0.282759
0.721204
0.505197
0.705167
0.472026
0.559776
0.468324
0.361371
0.376986
0.416612
0.596364
0.818993
6.6435
0.284473
4.25746
3.16122
3.32068
3.46695
4.44292
7.79499
7.10618
9.37217
6.79942
9.07479
4.9781
4.97499
4.32575
4.47145
4.43968
4.26381
5.2162
6.67038
0.239283
0.0910474
0.0854273
0.0856043
0.0873812
0.197785
0.0525565
0.201889
0.053929
0.213276
0.0494755
0.246403
0.196725
0.0382234
0.019257
0.0200883
0.0168067
0.0203743
0.0169228
0.0250477
0.0235424
0.0237013
0.0266018
0.0764592
0.292812
13.883
1.68291
0.704014
0.804995
1.20511
0.820642
1.22169
1.69489
1.14129
0.570726
0.375835
0.443561
0.536507
0.511664
0.650554
0.934691
0.913561
0.718293
0.721817
0.638602
0.898944
0.906922
1.07303
1.25225
1.14476
0.898815
0.709018
0.602517
1.03297
1.03567
0.968063
0.413636
0.117773
0.0475627
0.0500696
0.0361446
0.0380332
0.034959
0.0563954
0.164858
0.226537
0.136914
0.435895
0.418939
0.566683
0.404204
0.413776
0.327168
0.350734
0.535388
0.584486
0.643654
0.674623
0.725698
0.672355
1.29254
2.21814
2.50921
12.8867
17.4352
3.21021
3.0984
13.9462
0.315007
0.0839534
0.0233289
0.017434
0.0162175
0.01613
0.0150005
0.0155379
0.0159988
0.0169625
0.0188259
0.0231896
0.0458105
0.201311
0.203266
0.0642974
0.0324098
0.0229633
0.019613
0.0170448
0.0163859
0.0155309
0.0154586
0.015008
0.015658
0.0174654
0.0237821
0.0774071
0.270797
11.3109
2.43362
2.25164
8.37441
5.78856
0.206616
0.0437731
0.0200913
0.0169257
0.0158831
0.0167526
0.0162647
0.0182094
0.0184002
0.023012
0.0250147
0.0317482
0.0570255
0.11008
0.315046
9.55559
8.62841
8.34796
7.79129
0.309678
0.115058
0.054348
0.038214
0.0346137
0.0338099
0.0226457
0.0236695
0.0189801
0.0216364
0.0182929
0.0226767
0.0482845
0.211772
5.34646
1.56745
1.69848
1.20726
0.611701
0.654618
0.668753
0.688577
1.77831
4.07534
5.00616
3.43666
3.36698
4.71866
3.17675
2.48638
1.8329
1.74924
2.5492
1.96427
1.82548
1.35696
1.467
1.0668
1.46595
0.810346
0.975444
1.07147
1.53009
1.39606
1.40878
0.907102
1.04893
1.47382
1.72217
1.64636
0.842771
1.22502
1.01242
0.654025
0.606506
0.633254
0.603579
0.578749
0.575254
0.579191
0.557958
0.574841
0.554856
0.586464
0.545875
0.531462
0.506355
0.526195
0.54411
0.576797
0.359736
0.422293
0.426362
0.440806
0.453659
0.374768
0.450653
0.441847
0.658746
0.994367
0.838636
1.16313
0.682238
1.00419
2.00823
5.20626
2.36717
0.823988
1.34792
1.58039
1.13809
0.627551
2.55068
3.5545
1.22855
1.78085
10.3636
8.41789
16.4962
10.9753
18.6588
6.04516
4.63546
17.8228
6.68414
6.92283
4.522
4.52615
2.96284
1.58703
1.63167
1.74533
1.22828
1.30262
1.2125
1.13351
1.47586
1.44232
1.89033
2.0388
2.58326
1.81377
1.78021
2.60739
1.06391
1.40438
1.84196
1.83431
1.36314
2.35015
3.16642
2.98543
2.15288
2.34258
3.51239
4.82884
4.59775
3.18483
3.99233
10.1518
13.5526
13.7058
4.23181
19.299
18.307
2.09577
0.576151
0.330627
0.0915022
0.0449143
0.0367109
0.0387544
0.144657
0.0458237
0.0572063
0.0458015
0.0742819
0.0704335
0.0880491
0.221089
0.127878
0.21924
0.157398
0.193637
0.123651
0.197697
0.231797
0.242192
0.192814
0.118501
0.217796
0.313342
0.108596
0.361905
0.398263
0.26616
0.339817
0.404948
0.200925
1.00526
0.187834
0.129852
0.150438
0.401815
1.27786
0.22368
0.468737
4.50356
14.7228
3.70919
0.950873
0.692243
0.0559521
0.0303312
0.0322583
0.0280877
0.0194584
0.0853685
0.100604
0.409886
0.210824
0.278103
0.661272
2.9226
2.39918
1.14113
5.51687
10.2697
15.1475
9.14111