/*--------------------------------*- C++ -*----------------------------------*\
| =========                 |                                                 |
| \\      /  F ield         | OpenFOAM: The Open Source CFD Toolbox           |
|  \\    /   O peration     | Version:  v2012                                 |
|   \\  /    A nd           | Website:  www.openfoam.com                      |
|    \\/     M anipulation  |                                                 |
\*---------------------------------------------------------------------------*/
FoamFile
{
    version     2.0;
    format      ascii;
    class       volScalarField;
    location    "475";
    object      k;
}
// * * * * * * * * * * * * * * * * * * * * * * * * * * * * * * * * * * * * * //

dimensions      [0 2 -2 0 0 0 0];


internalField   nonuniform List<scalar> 
18258
(
0.0335285
0.0158011
0.0123666
0.0102164
0.0110024
0.0140173
0.0168136
0.0211777
0.0255934
0.0315219
0.03858
0.0475033
0.0534973
0.0606399
0.0636164
0.0619201
0.052076
0.047339
0.0567192
0.0811327
0.0709611
0.0513761
0.0621302
0.0615189
0.0727129
0.0770111
0.0606605
0.0553072
0.0498527
0.0441632
0.0376733
0.0237402
0.0240539
0.0287244
0.0320278
0.0357828
0.0386866
0.0410916
0.0427114
0.043526
0.0434369
0.0421385
0.0394371
0.0353179
0.0297634
0.0236383
0.0226433
0.0243132
0.0301022
0.0354487
0.0407606
0.0462782
0.0546471
0.0446914
0.0290349
0.0392208
0.0477107
0.054605
0.059029
0.0614714
0.0622261
0.061304
0.0590052
0.0557372
0.0517683
0.0474228
0.0434
0.0394101
0.0341633
0.0309002
0.0267868
0.0234412
0.0210004
0.019288
0.0181697
0.0171671
0.0163025
0.0155702
0.0149546
0.014532
0.0144407
0.0144672
0.014568
0.0146654
0.0150116
0.012669
0.0108999
0.0104339
0.0101829
0.00953718
0.0080855
0.010641
0.0117491
0.0121653
0.0124345
0.0136089
0.0147436
0.0143087
0.0135833
0.0124677
0.0126264
0.0170919
0.017835
0.0228729
0.0217209
0.0169182
0.0148119
0.0165963
0.0194146
0.0224737
0.0192501
0.0192248
0.0179264
0.0170232
0.0148742
0.014907
0.0143889
0.0140809
0.014998
0.0177585
0.0171731
0.0172896
0.0185069
0.0188249
0.0200464
0.0210552
0.0203903
0.0202056
0.0163523
0.0162517
0.0172891
0.0171628
0.0176422
0.0201391
0.0201957
0.0205373
0.0207526
0.023532
0.0235507
0.0235164
0.0236074
0.0244495
0.0234871
0.023074
0.0231019
0.0231371
0.0209759
0.0207552
0.0203943
0.0204333
0.0182644
0.0175281
0.0182596
0.0192389
0.0212122
0.0249588
0.0313938
0.0403167
0.050414
0.0606579
0.068432
0.0727917
0.0771626
0.0766262
0.0773325
0.0794376
0.0798166
0.0786859
0.0768414
0.0746871
0.071747
0.0671255
0.0666671
0.0590159
0.0481196
0.0334114
0.0389183
0.0417639
0.0445216
0.0448261
0.0453061
0.044086
0.0423071
0.0387083
0.0335618
0.0246712
0.0261078
0.030544
0.035174
0.038938
0.0430821
0.0466416
0.048379
0.0499909
0.0592043
0.0571288
0.0552998
0.057142
0.0586568
0.0618087
0.0601551
0.0562568
0.0504932
0.0521675
0.0453695
0.0340717
0.0318522
0.0297387
0.0272085
0.0377279
0.0495437
0.0612575
0.0676724
0.0738511
0.0787246
0.0827697
0.087317
0.0818626
0.0766942
0.0578938
0.0841267
0.0661398
0.0509251
0.0417533
0.0340507
0.0301079
0.0334018
0.0337469
0.0320814
0.0274479
0.0218343
0.0233413
0.0360739
0.0458832
0.0539604
0.0555846
0.060313
0.0627611
0.0574092
0.0580043
0.047029
0.0481987
0.0518021
0.0466384
0.044261
0.0356799
0.0279394
0.0337093
0.0501622
0.0687948
0.0848211
0.0998944
0.0664385
0.0506413
0.0416014
0.0348697
0.0334764
0.0380259
0.0439344
0.0530526
0.0412106
0.0372262
0.0337715
0.0309399
0.0254179
0.0272034
0.0283101
0.0267846
0.0499507
0.0579946
0.061528
0.0838314
0.0922703
0.108295
0.107278
0.0927147
0.0961465
0.0687824
0.0687267
0.0863402
0.0682976
0.0513312
0.0615645
0.074454
0.0882907
0.101477
0.112799
0.121878
0.123556
0.112043
0.0812175
0.0467509
0.0212725
0.0186311
0.0180806
0.0173728
0.016486
0.0156862
0.0150672
0.0121222
0.00949476
0.00927424
0.00945649
0.00940295
0.00825975
0.00951084
0.0115718
0.0137623
0.0152693
0.0164772
0.0174963
0.018229
0.0188167
0.0192148
0.0195114
0.0197783
0.0200122
0.0201962
0.0203316
0.0204194
0.0204591
0.0204431
0.0203653
0.0202246
0.0200191
0.0197326
0.0192622
0.0177411
0.0158916
0.0150619
0.0151202
0.0148706
0.0145686
0.0119376
0.0123119
0.0143268
0.014959
0.0177475
0.0197811
0.0214819
0.0229331
0.0244569
0.0252328
0.0260619
0.0263286
0.0263828
0.026285
0.0261389
0.0259203
0.0256272
0.0245743
0.0212833
0.0248855
0.0272845
0.0289737
0.0303274
0.0312325
0.0313413
0.0286054
0.0360363
0.0385122
0.0394193
0.0396774
0.0388523
0.0368453
0.0344069
0.0323607
0.0308547
0.0297384
0.0276007
0.0253542
0.0230442
0.0206274
0.017403
0.0186712
0.0205117
0.0207222
0.0204314
0.0214814
0.0227397
0.0210828
0.018992
0.0161115
0.0151124
0.0146199
0.0144263
0.0148312
0.0144926
0.014395
0.014896
0.0179024
0.0189939
0.0206975
0.0239568
0.0228201
0.0208734
0.0280492
0.0296662
0.0301193
0.0304687
0.0303732
0.0296169
0.026527
0.0250702
0.0264587
0.0250036
0.0243698
0.0244575
0.0240898
0.0222214
0.0245241
0.0265259
0.0281155
0.028962
0.0302061
0.0317597
0.0339204
0.0357125
0.0373719
0.0383826
0.0383757
0.0378579
0.0380503
0.0387228
0.0384478
0.0367452
0.0346629
0.0325639
0.0295984
0.029382
0.0313604
0.0329264
0.0345902
0.0363671
0.0356652
0.0337775
0.0321489
0.0307253
0.0290106
0.0288804
0.0305602
0.0320067
0.0337462
0.0358634
0.0360274
0.0338897
0.0320717
0.0305658
0.0288604
0.0288224
0.0305247
0.0320379
0.0337609
0.0356444
0.0347703
0.0333025
0.0317804
0.030312
0.0286461
0.0282051
0.0298108
0.0311941
0.0325083
0.0335721
0.0318975
0.0313082
0.0302373
0.0288468
0.0270864
0.0258309
0.0263403
0.0277301
0.0278411
0.0283207
0.0294401
0.0292869
0.0290036
0.0289565
0.0286745
0.0264281
0.0268357
0.0268864
0.0275795
0.0308857
0.0304052
0.0330814
0.0354995
0.0331847
0.0316901
0.0281156
0.0336949
0.0337382
0.0347
0.0335206
0.0237414
0.0218845
0.0228815
0.0244169
0.0260611
0.0253698
0.0226196
0.0225614
0.0231739
0.0225877
0.0210236
0.0180335
0.0135403
0.0135496
0.0135417
0.0142776
0.017086
0.0186731
0.0187758
0.0186134
0.0183048
0.0178272
0.0171038
0.0160247
0.0155917
0.0246656
0.0448444
0.0564654
0.0558352
0.0424677
0.035644
0.0263924
0.0183954
0.0111825
0.0107366
0.0114224
0.0137129
0.0114595
0.0109071
0.0150076
0.0120509
0.0200292
0.023119
0.0303307
0.0413947
0.0400061
0.0304085
0.0204294
0.0184012
0.0192659
0.0197892
0.0201824
0.0205691
0.0209604
0.0213869
0.0219074
0.0215982
0.0189564
0.0167104
0.0168364
0.0174091
0.019918
0.0213004
0.022093
0.0217549
0.0219974
0.0237133
0.0224695
0.0212513
0.0210484
0.0203442
0.0231909
0.0235333
0.0228966
0.022896
0.0231698
0.0230554
0.023194
0.0240002
0.0198125
0.0219299
0.0224811
0.0227622
0.0235563
0.0190586
0.0192514
0.0193199
0.0181724
0.0149312
0.0180116
0.0167706
0.0121705
0.0134843
0.013442
0.014051
0.0143742
0.0171185
0.0162867
0.0155699
0.01635
0.0223225
0.023121
0.0232951
0.0206469
0.0194
0.0218963
0.0224889
0.0220359
0.0211441
0.0213045
0.0203564
0.0184471
0.0177269
0.0178642
0.0192798
0.0200818
0.0201546
0.0237682
0.02326
0.0216929
0.0226805
0.0232822
0.0228652
0.0227539
0.0226974
0.0223275
0.0218999
0.0223131
0.0225035
0.0225567
0.0221119
0.0223677
0.0250069
0.021433
0.0212452
0.0201689
0.0195134
0.017885
0.0176295
0.0177274
0.0176874
0.0175933
0.0167566
0.0186137
0.0178888
0.0200202
0.0216329
0.0227837
0.0239557
0.0241054
0.0236727
0.0236316
0.0232445
0.0232092
0.0226591
0.0218143
0.0212318
0.0204555
0.0192485
0.0192412
0.0191923
0.019049
0.0204536
0.0203533
0.021919
0.0230401
0.0227526
0.021787
0.0216771
0.0205005
0.0204767
0.0215177
0.0224066
0.0226582
0.0235231
0.0260669
0.0237119
0.0252678
0.0259631
0.0266295
0.0260167
0.0249156
0.0256698
0.0240085
0.0228972
0.0242187
0.0249428
0.0262065
0.0270009
0.0250236
0.0239957
0.0227968
0.0219328
0.0209442
0.0184211
0.0190364
0.0198277
0.0210604
0.0228732
0.0255997
0.0283375
0.0312671
0.0313256
0.0290198
0.0273278
0.0321434
0.0316081
0.0365893
0.0372013
0.0330639
0.0302464
0.0273275
0.0269041
0.025982
0.0254454
0.0241634
0.0254109
0.0258358
0.0248921
0.0273691
0.0289474
0.0332851
0.0388653
0.0355303
0.0326882
0.0377393
0.0366448
0.0426235
0.0363972
0.034733
0.0285921
0.0331955
0.0355451
0.0433089
0.033893
0.0297038
0.0294762
0.0307947
0.0382912
0.0368347
0.0394401
0.0445993
0.0439401
0.0390486
0.0358133
0.0415899
0.0316194
0.0370528
0.0390694
0.0324333
0.0321994
0.039086
0.0397085
0.039869
0.0337716
0.0330503
0.0250267
0.0336014
0.0400891
0.0400057
0.0332147
0.0259879
0.0359112
0.0315402
0.0313475
0.0313427
0.0269391
0.0268688
0.0261606
0.0264157
0.0271317
0.0246787
0.025489
0.025755
0.0259252
0.0260657
0.0262699
0.0266301
0.027297
0.0280709
0.0229126
0.0243756
0.0229814
0.021612
0.0202342
0.0240188
0.0264965
0.0283033
0.0297564
0.0308931
0.0313861
0.0300285
0.0379463
0.0395764
0.0412848
0.0414411
0.0401785
0.0374684
0.033988
0.0304714
0.0282321
0.0269276
0.0244335
0.0223602
0.0203452
0.0182431
0.0154981
0.0141984
0.0128642
0.011498
0.0111171
0.0105496
0.00992194
0.00918752
0.00870887
0.0111936
0.0191224
0.0280758
0.0333748
0.0390381
0.0457133
0.0519427
0.056976
0.0607649
0.063534
0.0653311
0.0658345
0.0633637
0.0532636
0.0483227
0.0434915
0.0385436
0.0334105
0.0323424
0.0415141
0.0497559
0.056683
0.0629214
0.0669773
0.0653417
0.0497782
0.0468732
0.062717
0.0902245
0.0811181
0.104102
0.120346
0.0799115
0.0649966
0.0640946
0.0794385
0.0818811
0.0753565
0.0665398
0.0568399
0.0460346
0.0511545
0.0559468
0.0604269
0.0649423
0.0771925
0.0795203
0.0782826
0.0756567
0.0723431
0.0681168
0.0619547
0.0539153
0.0448717
0.0368768
0.0297171
0.0198035
0.0121105
0.0137217
0.0129432
0.0158653
0.0149172
0.00974497
0.00999795
0.0101502
0.0100288
0.00978678
0.00977028
0.0111616
0.0179488
0.0146459
0.0131893
0.0113378
0.0142251
0.01607
0.017966
0.0184049
0.0184746
0.0219463
0.0375021
0.0446694
0.0499114
0.05447
0.0571632
0.0558948
0.0526534
0.0469863
0.0405319
0.0378504
0.0339193
0.0303799
0.0285159
0.0292843
0.0257742
0.0162553
0.0147019
0.0157279
0.0154417
0.0144587
0.0163905
0.0175978
0.0183609
0.0189753
0.019432
0.0197802
0.0200259
0.0201864
0.0202677
0.0202877
0.0202609
0.0201924
0.0200809
0.0199236
0.0197095
0.0194083
0.0188946
0.0171987
0.0153739
0.0146717
0.0147568
0.0145278
0.0141676
0.0122941
0.0125162
0.0143773
0.0149757
0.0145818
0.0151579
0.015616
0.0168007
0.0189726
0.0211084
0.0229385
0.0216418
0.0210026
0.0209733
0.0205658
0.01742
0.0206826
0.0235754
0.0240898
0.0243601
0.0251652
0.0267535
0.0277008
0.0267723
0.0262683
0.0257381
0.0226156
0.024192
0.0277733
0.0281891
0.0288751
0.029476
0.0300513
0.031322
0.0306856
0.029772
0.0291678
0.0262563
0.0253994
0.031713
0.0205497
0.0141283
0.0101029
0.0107617
0.0109202
0.0105254
0.0112053
0.0116682
0.0118507
0.011254
0.0123433
0.0132581
0.0125975
0.015319
0.0145535
0.0134446
0.0129877
0.0139141
0.0147951
0.0152373
0.0162445
0.026217
0.0269116
0.0225678
0.0289031
0.0315507
0.0289224
0.0316998
0.0293714
0.0279285
0.0306637
0.0341198
0.0354898
0.0331787
0.0317049
0.0311642
0.020745
0.0200488
0.0193511
0.0174884
0.0176698
0.017162
0.016703
0.0162863
0.018764
0.0201412
0.0212306
0.0209193
0.0205647
0.0201447
0.0216343
0.0268126
0.0369419
0.0441294
0.046405
0.0450883
0.0415228
0.0352227
0.0294978
0.0288758
0.0268677
0.0254695
0.0251045
0.019225
0.0150256
0.0173759
0.0173686
0.0184194
0.0190775
0.0195912
0.0199983
0.0203346
0.0206211
0.0208957
0.0211562
0.0213867
0.0215837
0.0217554
0.0218997
0.0220551
0.022241
0.022498
0.0227078
0.0211169
0.0185269
0.017203
0.0170574
0.0177691
0.0186653
0.0197885
0.0190534
0.0153515
0.0154293
0.0218265
0.0222456
0.0208733
0.0194595
0.0196673
0.0188298
0.0225843
0.0223768
0.0231149
0.0228987
0.0226114
0.0223252
0.0220399
0.0217489
0.0214821
0.0212504
0.0210429
0.0208526
0.0206658
0.0204696
0.0202008
0.019799
0.019135
0.0183346
0.017061
0.0183423
0.0192322
0.0207992
0.0228021
0.0239163
0.023065
0.0217026
0.0209534
0.0210453
0.0213299
0.0216547
0.0220056
0.0224109
0.0228444
0.0232561
0.0232422
0.0219604
0.0225949
0.0173704
0.0182264
0.0185238
0.0184793
0.0201486
0.0193168
0.0146377
0.0151225
0.015824
0.0170982
0.0196636
0.0200089
0.0213338
0.0215533
0.0172212
0.0169055
0.0164836
0.0175017
0.0151429
0.0157727
0.0264285
0.027051
0.0347801
0.0381307
0.0397328
0.0330078
0.0454408
0.0522558
0.0503619
0.0407736
0.0234244
0.0345182
0.0420271
0.0486516
0.0455847
0.0354404
0.0447122
0.0472048
0.0629606
0.05858
0.0522333
0.0629678
0.0445486
0.0268073
0.0157764
0.0163526
0.0151743
0.0305706
0.0346568
0.0313511
0.0321933
0.0398001
0.0408161
0.0360893
0.0344141
0.0361657
0.0357188
0.0396453
0.0369511
0.0336014
0.0232185
0.0189574
0.0197883
0.0211885
0.0230143
0.0253493
0.0252442
0.0241036
0.0227476
0.0217788
0.0207369
0.0182498
0.0176052
0.0195561
0.0211793
0.0225534
0.0240587
0.0248775
0.0257163
0.0258821
0.0257757
0.0254545
0.0250275
0.0244737
0.0237905
0.0223846
0.0235856
0.0242581
0.0244693
0.0247501
0.0250646
0.0253423
0.0254852
0.0253731
0.0244304
0.0236255
0.0224645
0.0213514
0.0197523
0.0176449
0.0183244
0.0200753
0.021667
0.0227754
0.0238205
0.0234278
0.0239122
0.0245601
0.024577
0.0243899
0.0241606
0.0240048
0.0240937
0.0247295
0.0264616
0.0262795
0.0292375
0.0304078
0.027801
0.0264496
0.0257406
0.0253013
0.0250457
0.0248317
0.0246268
0.0240771
0.0235329
0.0240384
0.0242981
0.0246026
0.0249679
0.0254828
0.0261817
0.0272849
0.0287127
0.0286058
0.0262423
0.0260175
0.0249381
0.0241452
0.0237726
0.0237268
0.0237821
0.0238947
0.023844
0.0233358
0.0230159
0.0234229
0.0224174
0.022486
0.0215197
0.0201685
0.0187351
0.0172895
0.0166309
0.0350981
0.0350981
0.0455729
0.0422243
0.0369169
0.0468942
0.0598109
0.0518551
0.0625301
0.0662937
0.0538762
0.0500804
0.0277462
0.0242847
0.0173602
0.0188793
0.0202171
0.0214145
0.0212298
0.0221445
0.0220252
0.0229844
0.0224432
0.0216575
0.0211246
0.0201144
0.0201718
0.0189071
0.0173689
0.0172349
0.0188755
0.0198999
0.0210759
0.0210581
0.0225116
0.0230185
0.0234046
0.023542
0.0235212
0.0236001
0.0237666
0.0242149
0.0249387
0.0254299
0.025622
0.0261473
0.0258879
0.0255708
0.0251199
0.0248109
0.0244901
0.0242054
0.0239038
0.0236187
0.0231819
0.0225251
0.0224036
0.0229196
0.0232651
0.023505
0.0236454
0.0236295
0.023436
0.0231169
0.0227928
0.0224352
0.0224825
0.0236967
0.0239148
0.024018
0.023781
0.0235979
0.0235765
0.0234635
0.0233797
0.0231661
0.0228104
0.0223432
0.0212805
0.0213782
0.0222535
0.0226904
0.0230069
0.0232712
0.0232795
0.0231907
0.0228225
0.0225464
0.0222209
0.0216783
0.0209586
0.0185949
0.0190855
0.019711
0.0205598
0.0214129
0.0221382
0.0225988
0.0227882
0.0227827
0.0226054
0.0222489
0.0214991
0.0214791
0.0220219
0.0221947
0.022148
0.0218449
0.0212224
0.0202933
0.0190842
0.017864
0.0168953
0.0164206
0.015644
0.0181421
0.01917
0.0200986
0.0209391
0.0217293
0.022569
0.0229054
0.0229853
0.0228422
0.0225892
0.022184
0.0214188
0.021425
0.0221236
0.0225068
0.022713
0.0227998
0.0225075
0.0218317
0.0203188
0.0189254
0.0177624
0.0166907
0.0155705
0.0153542
0.0158577
0.0154161
0.0158391
0.016966
0.0184518
0.0198177
0.0208067
0.0214025
0.0216856
0.0217107
0.0213769
0.0211981
0.0213315
0.02114
0.0206528
0.0197936
0.0185148
0.0170438
0.0158203
0.0154478
0.0160907
0.016745
0.0161427
0.0138773
0.0149948
0.0160689
0.0171809
0.0188337
0.0208635
0.0218628
0.0223551
0.0225128
0.022404
0.0220479
0.0214003
0.0213468
0.0219652
0.0223105
0.0223941
0.0222776
0.0218077
0.0209605
0.0184783
0.0157889
0.0145677
0.0138751
0.0129311
0.0162915
0.0169909
0.0161617
0.0156176
0.0164782
0.017521
0.0186752
0.019558
0.0201866
0.0206772
0.0209422
0.0209618
0.0206928
0.0205878
0.0203785
0.0200463
0.0197243
0.019386
0.0186024
0.0177693
0.0167976
0.0178695
0.0184586
0.0176999
0.0144151
0.0149669
0.0157423
0.0161856
0.0187641
0.0212366
0.0219504
0.0222004
0.0223399
0.0222399
0.021867
0.0212618
0.021142
0.0217635
0.0222127
0.0224616
0.0226843
0.022793
0.0228775
0.0209685
0.0178288
0.0171969
0.0155315
0.0147156
0.0182625
0.0189556
0.0184529
0.0178841
0.0195534
0.0202528
0.0205064
0.0204999
0.0204151
0.0203071
0.020314
0.0204161
0.0201195
0.020007
0.020119
0.0203442
0.0203056
0.0200812
0.0195079
0.0187433
0.0176566
0.019519
0.0212306
0.0209582
0.016944
0.0174679
0.018264
0.0177194
0.020265
0.0221141
0.0226415
0.0226817
0.0224728
0.0220741
0.0215784
0.0209603
0.0206907
0.0212373
0.0217854
0.0218322
0.0219528
0.0219309
0.0213803
0.0212245
0.0206614
0.0204019
0.0196507
0.0190899
0.0183435
0.0205011
0.0236728
0.0258593
0.0274432
0.0293297
0.0279672
0.0244844
0.0222437
0.0153182
0.0153263
0.0155547
0.0149063
0.0145219
0.0143419
0.0187137
0.0214205
0.0241016
0.0258511
0.0234195
0.0233954
0.02332
0.0232063
0.0230985
0.023011
0.0228173
0.0237179
0.0416903
0.283359
0.211441
0.236363
0.225122
0.315112
0.0802528
0.0393
0.0434391
0.0503698
0.057662
0.0559094
0.052168
0.0454335
0.040876
0.040458
0.0399474
0.0397275
0.0385959
0.0386152
0.037768
0.0440339
0.0874041
0.120071
0.13409
0.142876
0.152677
0.148255
0.157745
0.150079
0.150808
0.152555
0.157322
0.150007
0.142598
0.138671
0.134389
0.117144
0.117534
0.0992101
0.103074
0.0860212
0.090402
0.0943047
0.0936575
0.0924329
0.0921858
0.092423
0.0931874
0.096666
0.0920929
0.0981443
0.0915385
0.0731978
0.070674
0.072915
0.0671935
0.0588338
0.0665883
0.0815288
0.0967881
0.112736
0.0961648
0.12014
0.113866
0.114444
0.108847
0.102686
0.0989733
0.0983033
0.0989355
0.100048
0.102657
0.104526
0.106077
0.108874
0.117405
0.119579
0.118009
0.100715
0.0856681
0.0940976
0.0988798
0.102669
0.103025
0.0984554
0.0961529
0.0895945
0.087985
0.0822536
0.0797396
0.0741255
0.070905
0.0660663
0.0824308
0.0807811
0.0877533
0.0939877
0.0983659
0.101944
0.103594
0.104755
0.103556
0.101129
0.0963369
0.0944585
0.0897809
0.108014
0.126319
0.129272
0.124798
0.111327
0.105791
0.337235
0.409095
0.410048
0.607912
0.648652
0.837679
0.333947
0.179861
0.192016
0.188701
0.180579
0.177364
0.177036
0.188609
0.197524
0.188842
0.198149
0.176773
0.170276
0.165845
0.192648
0.190843
0.172148
0.150797
0.118936
0.096853
0.0960728
0.0797447
0.0807641
0.0707392
0.0718525
0.0734213
0.0883283
0.160008
0.203857
0.23055
0.256943
0.316715
0.287244
0.435086
0.350143
0.436324
0.302167
0.326303
0.312237
0.303608
0.301602
0.317471
0.338901
0.298273
0.370464
0.29724
0.644592
0.779937
0.496609
0.458319
0.406647
0.392789
0.383105
0.377682
0.369391
0.485896
0.451005
0.54827
0.507961
0.628542
0.555597
0.563891
0.529585
0.567628
0.586948
0.600771
0.481373
0.526621
0.408617
0.442614
0.369594
0.405615
0.291528
0.290846
0.329507
0.367799
0.392491
0.446486
0.704943
0.599774
0.809376
0.581316
0.703407
0.489036
0.535008
0.51138
0.493667
0.495082
0.522849
0.62716
0.606838
0.691467
0.514662
0.526974
0.516659
0.534012
0.523432
0.558396
0.563067
0.56422
0.562162
0.523389
0.533946
0.532151
0.531952
0.531978
0.53232
0.509561
0.512733
0.505207
0.510987
0.526918
0.514565
0.514492
0.512353
0.50478
0.502728
0.502247
0.504001
0.503773
0.5089
0.50877
0.509105
0.512152
0.526859
0.514417
1.81746
0.899665
0.427823
0.337715
0.219514
0.134077
0.0549537
0.0592941
0.062116
0.062933
0.0607767
0.0552936
0.0470864
0.0371404
0.0293902
0.028394
0.025326
0.0274624
0.0347757
0.0422529
0.0385441
0.0462837
0.0539659
0.0622858
0.0702986
0.077291
0.0832017
0.0861207
0.0830832
0.0703565
0.0526783
0.0352763
0.0250164
0.0226191
0.0209782
0.0189866
0.0168833
0.0152328
0.0142306
0.0130623
0.0124313
0.0123419
0.0125593
0.0127982
0.0132361
0.0147488
0.0160469
0.0172296
0.0181889
0.0184334
0.017925
0.0184671
0.0190621
0.019456
0.0197987
0.0196325
0.0196313
0.019881
0.0198419
0.0200517
0.0199533
0.0199635
0.019823
0.0196534
0.0194273
0.0189922
0.0187149
0.0181562
0.0178102
0.0169798
0.0170161
0.0174403
0.0177743
0.0167765
0.0167315
0.0159586
0.0266093
0.0476666
0.0609427
0.0659601
0.071275
0.0672788
0.0568539
0.038874
0.0191602
0.0188709
0.0193344
0.0218934
0.0214054
0.0173546
0.0181137
0.0187255
0.0174742
0.0173035
0.01733
0.0192613
0.019823
0.0211835
0.0216674
0.0220674
0.0222862
0.0222941
0.0223962
0.0221775
0.0221909
0.0218499
0.0218411
0.0215371
0.0213121
0.0215862
0.0222461
0.0222996
0.0228854
0.022584
0.0222728
0.0217199
0.0212959
0.0204634
0.0195433
0.0185757
0.017098
0.0166776
0.0172161
0.0177558
0.0173205
0.0188366
0.0199924
0.0196894
0.0245344
0.0227959
0.0203393
0.022883
0.0185424
0.0186974
0.018197
0.0170934
0.0176326
0.0171057
0.0169788
0.0172514
0.0175033
0.0186255
0.0195507
0.0201796
0.0210253
0.021682
0.0223873
0.023546
0.02385
0.0229324
0.0227782
0.021636
0.0209797
0.0206752
0.0215743
0.0228179
0.022705
0.0235358
0.0232817
0.0220806
0.0212811
0.0204262
0.0194678
0.0188244
0.0180899
0.0173893
0.017013
0.0162411
0.0163935
0.0153703
0.0168803
0.0171191
0.0189988
0.0173604
0.0170075
0.0225074
0.0282734
0.044088
0.0321365
0.021137
0.0222623
0.0301119
0.0371347
0.025523
0.0250335
0.01486
0.0161409
0.0152733
0.0154953
0.0165566
0.0168252
0.0179478
0.0189726
0.0191961
0.0199318
0.0202626
0.021032
0.0212832
0.0220083
0.0221957
0.0234234
0.0234898
0.0235666
0.0235483
0.0228018
0.0227321
0.0227825
0.0232087
0.0229879
0.0236365
0.0236612
0.0237338
0.0236661
0.0223727
0.0220595
0.0213021
0.0207992
0.0199034
0.0193694
0.0186637
0.0182884
0.0176899
0.0180006
0.01871
0.0189183
0.0197949
0.0198144
0.0205578
0.0207574
0.0212154
0.0213423
0.0219989
0.0221335
0.0223941
0.0224478
0.0236177
0.0237281
0.0237656
0.0237283
0.0237564
0.0239902
0.0239888
0.0239195
0.0239069
0.0238452
0.0236951
0.0235681
0.0246
0.0252491
0.024786
0.0245613
0.0248377
0.0256865
0.0262376
0.0273194
0.0281711
0.0292402
0.0301347
0.0309617
0.0316477
0.0321331
0.032276
0.0323214
0.0318993
0.0315364
0.0332499
0.0397314
0.0429479
0.0481798
0.0505496
0.0525733
0.0533513
0.0521595
0.0528481
0.0515396
0.0517851
0.050545
0.0500847
0.0492229
0.0481886
0.0474433
0.0459526
0.0452092
0.0498024
0.0562365
0.0563225
0.0494399
0.0465828
0.0418235
0.0359167
0.0383903
0.0445712
0.0397993
0.0379101
0.0348992
0.0297156
0.0224419
0.0178555
0.0256754
0.0333407
0.0405377
0.0473292
0.0533315
0.0572286
0.0593666
0.0608982
0.0625873
0.0605569
0.0531109
0.0415072
0.0316771
0.0278085
0.0262587
0.0238232
0.0203953
0.0185139
0.0174441
0.0162936
0.0149493
0.0140941
0.0138502
0.0140912
0.0142065
0.0155538
0.0168162
0.0168098
0.0179903
0.0178122
0.0183235
0.0189148
0.0193181
0.0199773
0.0199488
0.0189866
0.0193391
0.0196022
0.0202813
0.020182
0.0203529
0.0201399
0.0194216
0.0189096
0.0183087
0.0177952
0.0173393
0.0167708
0.0160602
0.0160546
0.0162558
0.0158019
0.0162088
0.0166441
0.0170478
0.0176701
0.0185823
0.0193381
0.021166
0.0212988
0.0210446
0.0211298
0.0196995
0.0196328
0.0186584
0.0184216
0.0200163
0.0198561
0.0181849
0.0195763
0.0195845
0.0213661
0.0213767
0.0207025
0.0209021
0.0207968
0.0189745
0.0180868
0.0170161
0.0162423
0.0156584
0.0152642
0.0148002
0.0154308
0.0142406
0.0136541
0.0140987
0.014072
0.0141354
0.0145222
0.0149499
0.0156921
0.0163942
0.017442
0.0180804
0.0189773
0.0193086
0.0212127
0.0211167
0.0209789
0.0210096
0.0211448
0.0215915
0.020808
0.0207698
0.0209124
0.0209279
0.0209603
0.0209465
0.0191122
0.0189102
0.0180765
0.0177592
0.0168249
0.0164682
0.015815
0.0155024
0.0151139
0.0149194
0.0232867
0.025485
0.0256448
0.039811
0.0200127
0.019996
0.0344186
0.0173694
0.0231102
0.0236559
0.0247237
0.0259422
0.0225935
0.0307952
0.0212623
0.0233693
0.0240939
0.025291
0.0128041
0.0191595
0.0366845
0.0422645
0.0435978
0.0485364
0.0552297
0.0584534
0.0614992
0.0635604
0.0658275
0.0682915
0.0706959
0.0724427
0.0725978
0.0689282
0.0658784
0.0564081
0.0525942
0.0563273
0.0607398
0.0472814
0.0424992
0.0430423
0.0435041
0.0440344
0.0442377
0.0449207
0.0447223
0.0457128
0.0449778
0.046076
0.0449277
0.0459443
0.0447132
0.0419918
0.0387724
0.0325898
0.0306176
0.0295097
0.0268007
0.0243007
0.0220606
0.0202417
0.0198105
0.0182489
0.016849
0.0165498
0.0152593
0.0155143
0.01674
0.0198773
0.0168198
0.0176611
0.0259985
0.0191365
0.0180383
0.0185838
0.0191023
0.0193417
0.018234
0.0198589
0.0221257
0.0221285
0.0221939
0.0222073
0.0214066
0.0212435
0.0209802
0.0210399
0.0210721
0.0212008
0.0211715
0.0193498
0.0192937
0.0190218
0.0188848
0.0180959
0.0179292
0.017345
0.0170151
0.0161717
0.0158783
0.0154289
0.0154811
0.0165891
0.0203969
0.0298013
0.0172788
0.017924
0.0155261
0.0139508
0.0266332
0.0247921
0.0286491
0.0267833
0.0394428
0.026436
0.023195
0.0242179
0.0297445
0.0296805
0.0326347
0.0424393
0.0330763
0.0282275
0.0729268
0.0527881
0.033115
0.0460768
0.0581939
0.108837
0.127045
0.0557514
0.0562655
0.0619398
0.062857
0.0627589
0.0531438
0.0490158
0.0411261
0.0315843
0.0129274
0.0249442
0.0322382
0.0425839
0.056837
0.0918332
0.0527527
0.0595667
0.0654889
0.0645617
0.0676563
0.0657957
0.0644217
0.0653849
0.102461
0.111528
0.107345
0.0859893
0.0808143
0.074238
0.124052
0.138928
0.119641
0.129578
0.135325
0.0812808
0.0303534
0.024976
0.0238431
0.0264205
0.0253688
0.0459932
0.0206151
0.021834
0.0226647
0.0271682
0.0302271
0.0528284
0.0232995
0.0254796
0.0324254
0.0348776
0.0458499
0.0274747
0.0280968
0.0343984
0.0361806
0.0395128
0.0336798
0.0318013
0.028736
0.0259315
0.0244385
0.0254973
0.0319013
0.0463657
0.0279061
0.0283354
0.0300988
0.134098
0.0307671
0.0266604
0.0277299
0.0267406
0.0337042
0.0350801
0.111177
0.0355325
0.0167048
0.0154603
0.0159368
0.0167517
0.01739
0.0180096
0.0184535
0.0190948
0.019485
0.0196402
0.0198121
0.0221838
0.022077
0.0216077
0.0210636
0.0218517
0.0211571
0.0212023
0.0218161
0.0212807
0.0214287
0.0224729
0.0236392
0.0231457
0.0237037
0.0250555
0.0239042
0.0222147
0.0220086
0.0221292
0.0228374
0.0239769
0.0227893
0.0234447
0.0226294
0.0235495
0.0236751
0.0203806
0.0200081
0.0198027
0.0193031
0.0186287
0.0180042
0.0173286
0.0166735
0.0161608
0.0160726
0.0165572
0.015188
0.0155745
0.017879
0.0391809
0.0322513
0.0264192
0.0221523
0.0195277
0.0184006
0.0182984
0.0187511
0.019407
0.0199661
0.0201756
0.0207664
0.0246461
0.0245627
0.0257651
0.0246306
0.0259638
0.0249044
0.0235806
0.0227107
0.0239151
0.0232212
0.0237106
0.0253152
0.0261498
0.0237885
0.0240526
0.0214748
0.020072
0.0184662
0.0188054
0.0202454
0.0209124
0.0233336
0.0234174
0.0268407
0.0268275
0.0266905
0.0254657
0.0247944
0.0262413
0.0247595
0.0259082
0.0248014
0.0262045
0.0273924
0.0277391
0.027036
0.0262137
0.0253427
0.0210635
0.0202687
0.0199624
0.0194695
0.019197
0.020084
0.0242674
0.0333743
0.0453908
0.057461
0.066868
0.0663928
0.0598307
0.0404902
0.0415687
0.038531
0.0420434
0.0597879
0.0857681
0.0598468
0.113932
0.0882241
0.0523534
0.0626206
0.074572
0.0836987
0.0895742
0.0905278
0.0770147
0.0566342
0.0497005
0.0521597
0.084469
0.0832058
0.0822592
0.0778166
0.0822855
0.0801764
0.0775167
0.0759586
0.0741841
0.0699431
0.0699243
0.0672343
0.0672006
0.0600988
0.0612824
0.0615035
0.0589324
0.0561943
0.0539148
0.0517307
0.0494132
0.0455341
0.0442614
0.0417966
0.0400678
0.0367261
0.0361947
0.0357109
0.0335429
0.0319975
0.0307494
0.0294936
0.0278005
0.0279664
0.0263968
0.0262422
0.0213938
0.0210111
0.0199876
0.0196538
0.0193967
0.0195696
0.0207726
0.0234037
0.0434638
0.0330634
0.0329628
0.0335402
0.0337166
0.0396766
0.046442
0.0705618
0.0652707
0.071776
0.0614003
0.0638264
0.0630324
0.0626482
0.0653636
0.0689369
0.0742743
0.0867655
0.333374
0.513796
0.253112
0.237114
0.246757
0.251663
0.25909
0.339066
0.360115
0.355924
0.360598
0.330519
0.318455
0.19661
0.226048
0.238124
0.236994
0.223841
0.202147
0.392555
0.522659
0.518788
0.523656
0.523769
0.518767
0.522599
0.502913
0.514274
0.501758
0.515026
0.502298
0.521663
0.518923
0.504364
0.501137
0.501157
0.500917
0.501379
0.501556
0.504895
0.506056
0.506107
0.505103
0.504113
0.514525
0.436315
0.121905
0.0846789
0.140781
0.195687
0.160146
0.232024
0.266843
0.192213
0.109137
0.0889823
0.100412
0.123689
0.125215
0.152172
0.199275
0.186596
0.152273
0.153248
0.153734
0.198783
0.190433
0.216702
0.259028
0.252438
0.187776
0.149399
0.148507
0.226476
0.241443
0.236641
0.122297
0.0438277
0.0217936
0.0226775
0.0327482
0.0165122
0.0168297
0.0220258
0.0574359
0.0963353
0.0495466
0.135477
0.137401
0.181463
0.146946
0.177857
0.115061
0.118422
0.0673943
0.0793643
0.0892765
0.0950384
0.0993268
0.0933512
0.215774
0.318591
0.189978
0.560437
0.537495
0.195619
0.216787
0.575475
0.513012
0.503522
0.501785
0.501698
0.501859
0.501816
0.50097
0.500915
0.500728
0.500765
0.500716
0.501163
0.504767
0.520387
0.514601
0.505239
0.501385
0.500824
0.500799
0.500691
0.50073
0.50075
0.500808
0.501018
0.50105
0.501151
0.50167
0.50394
0.512029
0.435321
0.169626
0.181961
0.405716
0.361494
0.511503
0.504622
0.50137
0.500942
0.500856
0.500829
0.500795
0.500969
0.50089
0.501397
0.501232
0.501287
0.502776
0.508256
0.50639
0.442674
0.369
0.416597
0.329628
0.506666
0.507775
0.503277
0.5029
0.503247
0.503414
0.501514
0.501527
0.500992
0.50106
0.500893
0.501341
0.504755
0.511013
0.345659
0.170526
0.177425
0.257526
0.087687
0.0905948
0.0924985
0.0945927
0.24659
0.440686
0.554606
0.470304
0.474453
0.541335
0.384979
0.363751
0.293501
0.317014
0.401265
0.346626
0.312226
0.249783
0.288025
0.247213
0.302945
0.217415
0.233682
0.221271
0.28253
0.286397
0.286758
0.226236
0.216116
0.271124
0.285403
0.316333
0.218291
0.258531
0.202873
0.191912
0.0868964
0.0890509
0.0809612
0.0710454
0.0708228
0.0789279
0.0773858
0.0835528
0.0805715
0.0842746
0.0814127
0.0793896
0.0726079
0.074623
0.0684279
0.0710614
0.12993
0.166022
0.149967
0.151378
0.179076
0.130638
0.156957
0.15302
0.197046
0.247393
0.226041
0.290962
0.224543
0.274933
0.404873
0.753367
0.437443
0.243901
0.317445
0.339445
0.288047
0.18909
0.448823
0.537813
0.297419
0.359606
1.19548
1.04289
1.78113
0.991407
1.11777
0.669692
0.596708
1.02783
0.652793
0.665093
0.558686
0.572542
0.498315
0.323573
0.323027
0.304895
0.241235
0.279913
0.270644
0.266181
0.295694
0.260827
0.315765
0.351519
0.396145
0.32195
0.284798
0.365954
0.215
0.289944
0.345405
0.314789
0.259003
0.337051
0.448896
0.420051
0.361396
0.398119
0.508436
0.562179
0.531172
0.45056
0.511599
1.00523
0.961812
0.929864
0.589442
1.93345
1.71713
0.352087
0.137246
0.0954582
0.0361722
0.0224381
0.0182751
0.0178883
0.0489165
0.0195467
0.0235314
0.0211816
0.0299532
0.0272954
0.0315499
0.0552836
0.0375355
0.052644
0.0390476
0.0518628
0.041304
0.0567765
0.060967
0.0641851
0.051872
0.0409294
0.0618476
0.0825708
0.0386235
0.0994182
0.105061
0.0678003
0.0825175
0.101922
0.0526721
0.164665
0.0572031
0.0568351
0.0675533
0.126635
0.2511
0.0854362
0.111987
0.58478
1.52895
0.509435
0.201069
0.1641
0.0414574
0.0359927
0.0292803