/*--------------------------------*- C++ -*----------------------------------*\
| =========                 |                                                 |
| \\      /  F ield         | OpenFOAM: The Open Source CFD Toolbox           |
|  \\    /   O peration     | Version:  v2012                                 |
|   \\  /    A nd           | Website:  www.openfoam.com                      |
|    \\/     M anipulation  |                                                 |
\*---------------------------------------------------------------------------*/
FoamFile
{
    version     2.0;
    format      ascii;
    class       volScalarField;
    location    "945";
    object      alphat;
}
// * * * * * * * * * * * * * * * * * * * * * * * * * * * * * * * * * * * * * //

dimensions      [1 -1 -1 0 0 0 0];


internalField   nonuniform List<scalar> 
18258
(
0.00485785
0.0021118
0.00173067
0.00149957
0.000992572
0.00162459
0.00225615
0.00268591
0.00281793
0.00279366
0.00289223
0.00487991
0.00684774
0.00846218
0.00888831
0.00887302
0.00805255
0.007689
0.00834518
0.0102687
0.00864379
0.00553584
0.00663568
0.00766432
0.00833036
0.0073751
0.00596069
0.00552273
0.00500131
0.00416852
0.00349271
0.00237194
0.00175679
0.00162996
0.00147594
0.00168183
0.00183118
0.00195169
0.00199611
0.00202769
0.00201376
0.00200223
0.00194809
0.0019156
0.00186021
0.00154142
0.00187829
0.00189312
0.00207377
0.00287305
0.00309066
0.00260179
0.00288162
0.00257123
0.00169509
0.00194035
0.00210644
0.00215204
0.00212446
0.00203632
0.00200662
0.00198146
0.00194956
0.0019117
0.00188862
0.00190756
0.00192734
0.00190641
0.00181272
0.00173681
0.00161395
0.00149077
0.00139943
0.00132867
0.00127533
0.00121619
0.00114973
0.00100992
0.000935986
0.00123932
0.00155581
0.00166231
0.00235606
0.00287253
0.00289205
0.00216433
0.00154223
0.00160048
0.00177932
0.00179731
0.00152325
0.00181137
0.0020521
0.00212707
0.00221684
0.00247765
0.00282044
0.00274951
0.00244851
0.00225569
0.00221855
0.00253951
0.00241281
0.00312928
0.00315352
0.00275371
0.00253156
0.00284928
0.00367482
0.00395451
0.00307434
0.00288741
0.00283012
0.00279401
0.00252674
0.00261508
0.00237482
0.00213982
0.00233129
0.00281823
0.00267294
0.00291944
0.0030254
0.00283852
0.00328937
0.00379342
0.00373816
0.00299132
0.00243807
0.00227263
0.00228997
0.0014005
0.00151241
0.00163011
0.00167004
0.00169799
0.00172176
0.001836
0.00183186
0.00180496
0.00180098
0.00183259
0.00100993
0.00109416
0.00112137
0.00112923
0.00107255
0.00106152
0.00104171
0.00102562
0.000966892
0.000925108
0.00110696
0.00124302
0.00135392
0.00148353
0.001677
0.00191372
0.0021625
0.00241391
0.00258025
0.00262769
0.00267555
0.00257868
0.00248105
0.00256952
0.00258434
0.00256754
0.00253299
0.00248938
0.00243052
0.00232266
0.00244758
0.00244076
0.00229283
0.00196455
0.00200853
0.00200482
0.0020569
0.00204634
0.00206705
0.00203796
0.00200398
0.00190788
0.00177403
0.00147788
0.00143732
0.0014564
0.00187125
0.00227252
0.00351124
0.00428469
0.00497653
0.00532683
0.0057037
0.00461255
0.00513244
0.00395463
0.00355093
0.00451393
0.00590689
0.00336961
0.00183866
0.00348637
0.0030911
0.00224032
0.00199344
0.00205333
0.00205808
0.00236622
0.00272716
0.00302505
0.00316987
0.00329843
0.0034011
0.00351429
0.00365792
0.00369696
0.00357177
0.00302304
0.00364332
0.00295632
0.00344905
0.00311228
0.00209663
0.00224419
0.00237475
0.0021708
0.00211025
0.00202224
0.00181687
0.00222887
0.00289809
0.00336475
0.00384657
0.00512636
0.00474272
0.00455056
0.00352403
0.00340758
0.00176973
0.00252556
0.00261259
0.00293633
0.00195249
0.00178019
0.0016881
0.00223735
0.00259243
0.00306086
0.00339558
0.00403513
0.00312504
0.0035643
0.00322218
0.00224264
0.00216158
0.00309817
0.00333901
0.00274825
0.00245909
0.00308364
0.00291714
0.0020687
0.00166185
0.00255232
0.0026448
0.00189509
0.0047087
0.00500084
0.00479437
0.00585493
0.00733385
0.00835966
0.00777777
0.00689614
0.00770981
0.00612117
0.00592366
0.00631806
0.00529824
0.00370183
0.00379712
0.00392795
0.00403404
0.0043308
0.00460056
0.00493023
0.00524531
0.0047684
0.00395964
0.00299677
0.00206215
0.00203444
0.00202436
0.00181778
0.00269384
0.00407497
0.004047
0.0022988
0.00133989
0.00151559
0.00171144
0.00169467
0.00122949
0.000925526
0.00159447
0.00182324
0.00185275
0.0018068
0.00170594
0.00178266
0.0028628
0.00441029
0.0048459
0.00501888
0.00518249
0.00529792
0.00536195
0.00538195
0.00539286
0.00540632
0.00541812
0.00543637
0.00541922
0.00530357
0.00466476
0.00293291
0.00171457
0.00159285
0.00175795
0.00188932
0.00200405
0.00170528
0.0010426
0.00166534
0.00213234
0.00245074
0.00247154
0.00230655
0.00223744
0.00352794
0.00469069
0.00552889
0.00569845
0.00577372
0.00570996
0.00570125
0.00557625
0.0055367
0.00485429
0.0034758
0.00380089
0.0040814
0.00412883
0.00422465
0.00436832
0.00426695
0.00403017
0.00589232
0.00679782
0.00688472
0.00703106
0.00694742
0.00682673
0.00651581
0.00616085
0.00518626
0.00388914
0.00245375
0.0025048
0.00266634
0.00264068
0.00229858
0.00242221
0.00262884
0.00265518
0.00274205
0.00307513
0.00349281
0.00333161
0.00286666
0.00243466
0.00226696
0.00221962
0.00212983
0.00159546
0.00161908
0.00157362
0.00159945
0.00214848
0.00255716
0.00294904
0.00418319
0.00373176
0.00303495
0.00481273
0.00493091
0.00529687
0.00585089
0.00599606
0.00664309
0.00462565
0.00416894
0.00428269
0.00349833
0.00323813
0.00327268
0.00328501
0.00306156
0.00335092
0.00332147
0.00320151
0.00353471
0.00389519
0.00513658
0.00622466
0.00656834
0.00676727
0.00684879
0.00682292
0.00668916
0.00673024
0.00591008
0.0059022
0.00565334
0.00549083
0.00543295
0.0051626
0.00591116
0.00613708
0.00621245
0.00636748
0.00660903
0.00643103
0.00623085
0.00607865
0.00596833
0.00585288
0.00591558
0.00602579
0.00614333
0.00630847
0.00652931
0.00656647
0.00633761
0.00616472
0.00604645
0.00593539
0.00594024
0.00603932
0.00615487
0.00631873
0.00652803
0.00641207
0.00624945
0.00610462
0.00598581
0.0058812
0.00567564
0.00581292
0.00596391
0.0060884
0.00616921
0.00532999
0.0056971
0.00559886
0.0050688
0.0047439
0.00360256
0.0038988
0.00411146
0.00447816
0.004971
0.0050679
0.00425272
0.00364442
0.00355129
0.0035226
0.0036055
0.00363539
0.00365304
0.00412778
0.00622031
0.00626224
0.00627954
0.00628167
0.00537124
0.00521945
0.00486311
0.00888925
0.00827542
0.00717071
0.00591012
0.00316788
0.00271553
0.00321693
0.00391185
0.00437334
0.00482549
0.00320393
0.00198427
0.00231232
0.00239713
0.00233797
0.0021609
0.00180028
0.00166179
0.00150819
0.00162313
0.00287482
0.00458828
0.00516865
0.00522391
0.00517245
0.00507211
0.00494997
0.00477981
0.0047212
0.00595712
0.00806854
0.00909311
0.00905524
0.0077799
0.00634336
0.00357692
0.0018419
0.00135413
0.00146126
0.00160501
0.00188508
0.00168056
0.00141379
0.00154922
0.00146721
0.0029713
0.00512713
0.00652415
0.00775024
0.0076305
0.00663749
0.00541989
0.00513193
0.00525145
0.0053321
0.00540064
0.00547098
0.0055191
0.00548794
0.00499466
0.00308528
0.00184168
0.00163618
0.00175916
0.00206178
0.00219105
0.00221378
0.0021833
0.00189296
0.00313121
0.00497128
0.00316191
0.00172503
0.00186364
0.0018498
0.00326311
0.00325831
0.00318845
0.00496058
0.00524534
0.00523236
0.00491654
0.00469328
0.00277892
0.0031543
0.00316502
0.00318165
0.00323367
0.00163384
0.001781
0.00183656
0.00197742
0.00172752
0.00219475
0.000568001
0.000787488
0.000914789
0.0009949
0.001072
0.00105169
0.00201235
0.00204201
0.00194829
0.00189689
0.00240726
0.00258314
0.0026401
0.00243163
0.00224366
0.00238816
0.00239345
0.00225578
0.0021367
0.00221523
0.00221679
0.00212457
0.00180711
0.00169336
0.00185883
0.00183882
0.00182422
0.00327508
0.00326922
0.00309438
0.0050828
0.00500166
0.00560198
0.00556597
0.00555948
0.0055367
0.00559645
0.00562763
0.00565096
0.00567818
0.00566717
0.00561205
0.00778069
0.00552242
0.00481883
0.00278715
0.0026849
0.00189639
0.00166208
0.0019571
0.00209318
0.00226931
0.00221803
0.00233814
0.0023353
0.00247799
0.00229991
0.00204209
0.00312747
0.00334093
0.00326291
0.00332732
0.003249
0.00322977
0.00320618
0.00316079
0.00310603
0.00184969
0.00181452
0.0021248
0.00223045
0.00239666
0.00241825
0.00247077
0.00234312
0.0020606
0.00199458
0.00229725
0.00226622
0.00231045
0.00217833
0.00216915
0.00193227
0.00198124
0.00399241
0.00735672
0.00379441
0.00421432
0.00381934
0.00434306
0.00380499
0.00328224
0.00335942
0.00295915
0.00308676
0.00323776
0.00329632
0.00346448
0.00408384
0.00393165
0.00345109
0.00335091
0.00328496
0.00309751
0.00278821
0.00292052
0.00294666
0.00300989
0.00334529
0.00383691
0.00430053
0.0052244
0.00506972
0.00444215
0.00406116
0.00425821
0.00433309
0.0054532
0.00509401
0.00506417
0.0053427
0.00529
0.00501984
0.00475611
0.00459066
0.00394249
0.00400731
0.00458437
0.00443615
0.00457173
0.00449159
0.00466999
0.00475471
0.00456316
0.00424132
0.00446037
0.0044518
0.00494297
0.00480679
0.00445962
0.00407833
0.00436144
0.00430947
0.00497686
0.00468414
0.00438105
0.00403403
0.00386493
0.00438581
0.00430539
0.00488062
0.00502277
0.00502489
0.00438165
0.00427946
0.00508776
0.00489394
0.00472855
0.00492539
0.00407999
0.00419582
0.00516734
0.00527531
0.00500552
0.00418024
0.00424362
0.00363851
0.0042786
0.00532423
0.00502853
0.0041221
0.00342124
0.00478519
0.00503421
0.00532301
0.00503118
0.00547812
0.00590073
0.00481251
0.00523504
0.00683699
0.00522668
0.00606456
0.00619837
0.00623428
0.00623685
0.00626021
0.00629055
0.0066258
0.0064416
0.00410054
0.00490179
0.00476481
0.00398868
0.00339524
0.00373882
0.00402658
0.00408469
0.00418824
0.00434737
0.00427187
0.00412685
0.0060447
0.00689857
0.00704637
0.00718489
0.00706685
0.00689306
0.00649222
0.00600464
0.0049957
0.00372758
0.00232921
0.00237482
0.00253109
0.00250754
0.00217557
0.00164071
0.00107861
0.00159979
0.00165508
0.00156033
0.00142447
0.00126159
0.00131219
0.00237758
0.00429943
0.00621069
0.00691465
0.00748171
0.00807281
0.0086155
0.00902328
0.00932265
0.00952843
0.00965659
0.00968381
0.00950045
0.00863398
0.0082442
0.00776105
0.00736369
0.00681954
0.00640715
0.00724677
0.00796446
0.0084075
0.00890448
0.00913474
0.00903802
0.00784811
0.00760195
0.00874999
0.0107882
0.00917044
0.0115292
0.0135552
0.0105485
0.00948036
0.00947602
0.0106021
0.0108091
0.0104253
0.0098252
0.00913502
0.00826088
0.00869989
0.00910076
0.00948943
0.00984777
0.0107994
0.0109598
0.0108739
0.0106974
0.0104651
0.0101443
0.00965142
0.00896372
0.0081496
0.00733652
0.00639268
0.00438545
0.00222631
0.00250505
0.00247045
0.00248821
0.00249816
0.00119763
0.00132267
0.00133885
0.0013465
0.00126856
0.00144501
0.00208872
0.00337455
0.0024256
0.00200294
0.00138064
0.00161443
0.00269258
0.00455501
0.00514296
0.00525008
0.00537291
0.00710417
0.00795517
0.00843539
0.00881559
0.00907228
0.00896386
0.00867869
0.00817094
0.00751608
0.00726471
0.00684844
0.00648634
0.00628681
0.0060889
0.0057053
0.00445523
0.00432277
0.00450427
0.00444381
0.00425258
0.00454637
0.00471184
0.00470868
0.0047616
0.00480771
0.00494989
0.00511705
0.00526242
0.00533851
0.00536648
0.00537495
0.00538547
0.00539366
0.00540964
0.00539087
0.00527247
0.00462942
0.00289483
0.00168982
0.00156202
0.00171257
0.00181096
0.00185297
0.00164553
0.0010594
0.00164622
0.00213089
0.00218571
0.00239855
0.0024747
0.00262358
0.00292137
0.00337539
0.00348293
0.00309063
0.00292722
0.00286528
0.00279277
0.00239212
0.00298187
0.00328468
0.00327782
0.00324629
0.00350868
0.00431775
0.00414777
0.00365776
0.00361756
0.00358152
0.00324338
0.0031951
0.00348559
0.00352363
0.00365437
0.0042846
0.00513786
0.00476684
0.00434215
0.00416416
0.00384624
0.00339014
0.0030651
0.00375794
0.00307889
0.00163928
0.00139943
0.0013845
0.00139212
0.00134663
0.00159658
0.00167959
0.00170132
0.00157958
0.00175168
0.00194838
0.00188321
0.00213136
0.00210467
0.00188656
0.00187003
0.00201647
0.00212251
0.00217759
0.00224216
0.00366889
0.00379276
0.00293423
0.00423984
0.00488143
0.00483028
0.00512464
0.00422208
0.00378859
0.00449563
0.0051887
0.00594135
0.00470113
0.00444936
0.00454843
0.00209384
0.00110188
0.00155417
0.0019298
0.00215259
0.0020892
0.00197377
0.00166907
0.002958
0.00303846
0.00481389
0.00540011
0.00547078
0.0054376
0.00552907
0.00605805
0.00698841
0.00788684
0.00815143
0.00803616
0.00768164
0.0070238
0.00635813
0.0063141
0.00608882
0.00592582
0.00587445
0.00509061
0.00452588
0.00485072
0.00476348
0.00492499
0.00500053
0.00505538
0.00511105
0.00520362
0.00531515
0.0054165
0.00548514
0.00553043
0.00556824
0.00560683
0.00564557
0.00568758
0.00570972
0.00565459
0.00510971
0.00306509
0.00182753
0.00166712
0.00177881
0.00209061
0.00220126
0.00236584
0.00210055
0.00110639
0.0013004
0.00226034
0.00250667
0.00231933
0.00217068
0.00213174
0.00178584
0.00323488
0.00319261
0.00501117
0.00563663
0.00571635
0.00570152
0.00565854
0.00560987
0.00556295
0.00552446
0.00549366
0.00546065
0.00541332
0.00535498
0.00530149
0.00524767
0.0051548
0.00502314
0.00486595
0.00505455
0.00523818
0.00545574
0.00568835
0.00580758
0.00570623
0.00555257
0.00548368
0.00551708
0.00556345
0.00561151
0.00565483
0.00567582
0.00561212
0.00528886
0.00496262
0.00314322
0.00318411
0.00156717
0.00174082
0.00200861
0.00207456
0.00225288
0.00224204
0.0017627
0.00137421
0.00155059
0.00144909
0.00258837
0.0028463
0.00315613
0.00312484
0.00169734
0.00174113
0.00180964
0.00204112
0.0018983
0.0018344
0.00452171
0.00433431
0.0045371
0.00556512
0.00479415
0.00331039
0.00362545
0.00504546
0.00532149
0.00321653
0.00241439
0.00267545
0.00338823
0.00498968
0.005052
0.00479988
0.00477228
0.00348275
0.00428264
0.00515547
0.00501472
0.00390763
0.00269189
0.00200677
0.000976827
0.00185802
0.00158845
0.00389155
0.00430651
0.00425621
0.00465402
0.00494494
0.00499548
0.00485374
0.00430538
0.00439086
0.00443412
0.00505188
0.00507402
0.0042964
0.0036256
0.00294592
0.00297213
0.00302948
0.00335663
0.0042027
0.00395983
0.00347097
0.00336596
0.00329361
0.00309816
0.00279598
0.00245255
0.00246952
0.00229857
0.00222451
0.00350646
0.00466728
0.00550367
0.00566202
0.00571958
0.00563227
0.00559304
0.00543383
0.00535182
0.00464991
0.00593929
0.00627742
0.0060565
0.00610018
0.0061372
0.00618302
0.00618304
0.00606615
0.00521312
0.00311341
0.00203373
0.00229551
0.00247763
0.00232657
0.00231337
0.00246563
0.00233966
0.00205516
0.00332972
0.00325456
0.00520365
0.00589279
0.00601986
0.00602824
0.00600493
0.00598577
0.00599406
0.00630921
0.00616322
0.00623721
0.00656011
0.00657358
0.00665433
0.00624822
0.00616934
0.00611923
0.00608588
0.00603116
0.00588379
0.0052075
0.00504832
0.00573206
0.00590789
0.00598564
0.00603957
0.00610427
0.00618964
0.00643559
0.00661789
0.00668493
0.0064221
0.00632961
0.0061847
0.00597607
0.00592648
0.00591583
0.00591041
0.00588087
0.00572741
0.00504147
0.00324157
0.00332143
0.00197589
0.00198876
0.00229056
0.00240578
0.00236283
0.00218805
0.00213333
0.0036694
0.00417682
0.00444298
0.00478541
0.00457089
0.0045441
0.00519349
0.00502644
0.00447956
0.00466119
0.00418154
0.00398509
0.00385291
0.00387423
0.00203959
0.0022009
0.00229573
0.00225767
0.00215891
0.00192565
0.00176592
0.0032228
0.00319919
0.00315733
0.00187765
0.00183644
0.00216354
0.00210105
0.001922
0.00163837
0.00179612
0.00277315
0.00310166
0.00480958
0.00498207
0.00533329
0.00570428
0.00584558
0.00588443
0.00590787
0.00593429
0.00598992
0.00605537
0.00607248
0.00606726
0.00611347
0.00610424
0.00610415
0.00607009
0.00603179
0.00598785
0.00594141
0.00586568
0.0057099
0.00533622
0.0049694
0.00560308
0.00565442
0.00575951
0.00586859
0.00591563
0.00592421
0.00590471
0.00586441
0.0058168
0.00576063
0.00575981
0.00592439
0.00596302
0.00599175
0.00597408
0.00595413
0.00594761
0.00592171
0.00587914
0.00576959
0.00565956
0.00561227
0.00551793
0.00566618
0.00573247
0.00574329
0.00579978
0.00588972
0.00591455
0.00591255
0.00586813
0.00583089
0.00578408
0.00570857
0.00561108
0.00527864
0.00534533
0.00543357
0.00554856
0.00565981
0.00574972
0.00579984
0.00580224
0.00574821
0.00571222
0.00571364
0.00566568
0.0056914
0.00571725
0.00568861
0.00568609
0.0056919
0.00562945
0.0055137
0.00535192
0.00518021
0.00503692
0.0049614
0.00484043
0.00523202
0.00537874
0.00551007
0.00562723
0.00573353
0.0058406
0.00587492
0.00586441
0.00579819
0.00575998
0.00575719
0.00570062
0.00569889
0.00575372
0.00575716
0.00578911
0.00584631
0.00582846
0.00574845
0.00554774
0.00535276
0.0051837
0.00502285
0.00485076
0.00478886
0.00486703
0.00480653
0.00487883
0.00505035
0.00526325
0.00544637
0.00556167
0.00559707
0.00563058
0.00568099
0.00567504
0.00564518
0.00562913
0.00556101
0.00550209
0.00542951
0.00526888
0.00506232
0.00487847
0.00481657
0.00491237
0.00501042
0.00491991
0.00458228
0.00476404
0.00493408
0.00510462
0.00534644
0.00562569
0.0057502
0.0057949
0.00576741
0.00574524
0.00574127
0.00568927
0.00567224
0.00572013
0.00572476
0.00574697
0.00578265
0.00574361
0.00563997
0.00529705
0.00489119
0.00469733
0.00458419
0.00442755
0.0049445
0.00504731
0.00492244
0.00483833
0.00496989
0.00512471
0.00528555
0.00539232
0.00543422
0.0054924
0.00556894
0.00560529
0.00555076
0.00548744
0.00540895
0.00536812
0.00536581
0.00533651
0.00523193
0.00511096
0.00497428
0.0051428
0.00524063
0.00514668
0.00466929
0.00474658
0.00485716
0.0049207
0.00530041
0.00563604
0.0057189
0.00572488
0.00569173
0.00566958
0.00566992
0.00563953
0.00558459
0.00557504
0.00556989
0.00563404
0.0057175
0.005761
0.00578104
0.00552949
0.00507567
0.00500369
0.00480242
0.00470477
0.0052158
0.00527542
0.00515586
0.00504317
0.0052839
0.00538725
0.00541771
0.00539831
0.00534383
0.00530723
0.00537485
0.00548117
0.00540018
0.00505076
0.0047395
0.00489897
0.00493665
0.00492274
0.00485494
0.0047437
0.00450297
0.00502733
0.00553752
0.00558027
0.00504266
0.00505064
0.0048821
0.00453985
0.00498045
0.00521764
0.00527215
0.00525519
0.00517689
0.00498162
0.00526277
0.00550966
0.00546251
0.00494441
0.00320918
0.00325352
0.00327737
0.00328073
0.00323734
0.00322515
0.00317786
0.0031533
0.00307991
0.00300521
0.00293406
0.00312883
0.00329624
0.00352132
0.00353945
0.00363232
0.00347585
0.00329075
0.00307276
0.00239315
0.00303662
0.00362222
0.00385037
0.00414253
0.00420344
0.00485061
0.00510357
0.00524151
0.00514196
0.00412627
0.00350068
0.00279764
0.00181944
0.00113367
0.00133079
0.00138421
0.00145489
0.00177971
0.00328848
0.00167477
0.00232513
0.0018173
0.00313383
0.00165232
0.0010321
0.000684834
0.00087416
0.00103853
0.00104707
0.00100113
0.000834006
0.000653098
0.000667515
0.000621387
0.000660106
0.00059486
0.000681724
0.00063833
0.000892842
0.00134659
0.00152796
0.0015614
0.00126178
0.00142237
0.00118822
0.00136998
0.00122299
0.0013327
0.00127813
0.00156319
0.00171305
0.00164011
0.00164473
0.00143929
0.00100677
0.00116689
0.000916871
0.00110078
0.00084258
0.00108841
0.000933346
0.00121284
0.00125043
0.00124701
0.00120089
0.00091766
0.00108859
0.000856947
0.00105213
0.000861233
0.000917918
0.000764747
0.00111011
0.00113104
0.00104128
0.00111278
0.00125158
0.00134407
0.00148131
0.00139852
0.00159283
0.00153627
0.00155648
0.00147338
0.00143176
0.00139868
0.00140112
0.0013778
0.00138512
0.00142952
0.00143154
0.00143699
0.00148221
0.00146038
0.00142533
0.00140438
0.00124787
0.00100692
0.00175407
0.00180905
0.00183595
0.0018355
0.00179418
0.00177443
0.00171405
0.00169792
0.00164533
0.00161411
0.0015432
0.00148449
0.00141778
0.00159307
0.000891253
0.00101177
0.00106797
0.00109937
0.00112133
0.00113126
0.00113939
0.00113287
0.00111874
0.00109093
0.00108131
0.00105111
0.00134472
0.00152919
0.00159822
0.00161666
0.00151557
0.00144341
0.00315181
0.00381341
0.00580277
0.00593089
0.00445078
0.0044389
0.00153871
0.00162258
0.00110961
0.0015594
0.00160808
0.00159197
0.00150425
0.00108534
0.00162935
0.00113521
0.00153271
0.00114995
0.00142825
0.00117772
0.00167962
0.00214147
0.00206801
0.00187364
0.00128205
0.00106535
0.00106702
0.000909674
0.000995839
0.000815839
0.00099933
0.000844005
0.00125401
0.00178414
0.00197241
0.00201156
0.00158582
0.00218771
0.00164456
0.0023806
0.00188905
0.00232912
0.00186798
0.00216207
0.00267504
0.00268692
0.00262322
0.00211445
0.00169545
0.00190255
0.0016861
0.00194136
0.0028061
0.00183958
0.00278929
0.00115279
0.00157142
0.00161983
0.00159776
0.00150672
0.00101555
0.00258725
0.00136839
0.00244085
0.0015808
0.00254234
0.00184336
0.00244426
0.00292529
0.00305987
0.00305117
0.00248924
0.00224135
0.00231729
0.00184818
0.00221767
0.00164916
0.00239281
0.00135469
0.00176002
0.00194829
0.00205085
0.00205936
0.00169305
0.00334254
0.00209821
0.00316691
0.00220142
0.00282024
0.00225982
0.00247232
0.00291929
0.00290116
0.00287693
0.00243964
0.00197428
0.00260589
0.00185958
0.055368
0.127976
0.0509038
0.129311
0.0585761
0.0831218
0.0819002
0.0820682
0.0823629
0.0618198
0.134886
0.159414
0.166269
0.168294
0.167044
0.26995
0.220122
0.330766
0.214448
0.126159
0.0546803
0.0754156
0.194696
0.321556
0.48244
0.612087
0.417086
0.431706
0.275482
0.271603
0.255651
0.206709
0.126508
0.0634042
0.0109313
0.0119719
0.0170901
0.0227188
0.0178993
0.010977
0.00217003
0.00223984
0.00229107
0.00232379
0.00231778
0.00227167
0.00231206
0.00218926
0.00206421
0.00231129
0.00251876
0.00266237
0.00314498
0.0034795
0.00313648
0.00344008
0.0036472
0.0038156
0.00395423
0.00416044
0.0043927
0.00459753
0.00460877
0.004223
0.00359902
0.00292851
0.00246281
0.00233366
0.00219164
0.00193269
0.0017681
0.0016561
0.00160151
0.00157864
0.00162198
0.00177229
0.00190241
0.00194795
0.00190927
0.00187427
0.00184371
0.00164171
0.00191938
0.00263284
0.00265406
0.00454691
0.00523918
0.00534779
0.00535487
0.00474781
0.00303308
0.00303958
0.00305512
0.00311309
0.00312516
0.00313259
0.0031292
0.00311767
0.00309942
0.0030653
0.00304845
0.00299928
0.00295785
0.00285441
0.00285903
0.00289534
0.00292436
0.00287659
0.00288841
0.00282814
0.00366588
0.00490691
0.0055474
0.00579896
0.00601576
0.00583903
0.00808481
0.00690753
0.00485375
0.00478385
0.00472431
0.00560169
0.0056408
0.00510171
0.00512267
0.00466327
0.00291046
0.00290082
0.00290272
0.00310396
0.00316481
0.00327341
0.00330336
0.00333071
0.00334673
0.00334193
0.00334023
0.00331192
0.00329009
0.00321631
0.00319173
0.00318118
0.00175376
0.001914
0.00198528
0.00199817
0.00202639
0.00201376
0.00200119
0.00197688
0.00196074
0.00192767
0.00188921
0.00183304
0.00172359
0.00157032
0.00172822
0.00293389
0.00293318
0.00478259
0.00540748
0.00544706
0.00605324
0.00574737
0.00544314
0.00584037
0.00527158
0.00523059
0.00472677
0.00293377
0.00297387
0.00176421
0.00174898
0.00204453
0.00198816
0.00212443
0.00218255
0.00218963
0.00222016
0.00224932
0.00228549
0.00234392
0.0023617
0.00232581
0.00231933
0.00218491
0.00188798
0.00191041
0.00225242
0.00236245
0.00219297
0.00215372
0.00213649
0.0020837
0.00204368
0.00200536
0.00203123
0.00218674
0.00218409
0.00214534
0.00204138
0.00198773
0.00172325
0.00166413
0.00291055
0.00295371
0.00488928
0.00500379
0.00496087
0.00571256
0.00637491
0.00725517
0.00619164
0.00503822
0.0052699
0.00602337
0.00448249
0.00374857
0.00223274
0.00167078
0.00208807
0.00192241
0.00200452
0.00207692
0.00184458
0.00198195
0.00183267
0.00166543
0.00165631
0.00165442
0.0016955
0.00171278
0.00174406
0.00174833
0.00179105
0.00178713
0.00179273
0.0018147
0.00182504
0.00201655
0.00219244
0.00184488
0.00156388
0.00152295
0.00143799
0.00136873
0.00140192
0.00136796
0.00135952
0.0013344
0.00131166
0.00125149
0.00130405
0.00138361
0.00161855
0.00154931
0.00125233
0.00111906
0.000764918
0.000780211
0.000785617
0.000809844
0.000818742
0.000829679
0.000833756
0.000847411
0.000850082
0.000854419
0.0008541
0.000875025
0.00087207
0.000862137
0.000855659
0.000859883
0.00086394
0.00086339
0.0012643
0.00140799
0.00153885
0.00182806
0.0021519
0.00185216
0.00156948
0.00135209
0.000869078
0.000882168
0.000898348
0.000906652
0.000926077
0.000943686
0.000963434
0.000975867
0.000985274
0.000995047
0.00100537
0.0010095
0.00100706
0.000987593
0.000976133
0.00100092
0.0011001
0.00115773
0.00123166
0.00125957
0.00128325
0.00129497
0.00128885
0.00130241
0.00128711
0.00128501
0.00126312
0.00125382
0.00124494
0.00123375
0.00121981
0.00118533
0.00117386
0.00123496
0.00209216
0.00273743
0.00315367
0.00347479
0.00321736
0.0026148
0.00274292
0.00482292
0.00457021
0.00269337
0.0025172
0.00232701
0.00203948
0.00176718
0.00213146
0.00243476
0.00266452
0.00286612
0.00305046
0.00317555
0.00333583
0.00354478
0.00391463
0.00396132
0.00361344
0.00292889
0.00248058
0.0023179
0.00223981
0.00210304
0.00195353
0.00200228
0.00201657
0.00195634
0.00188147
0.00185992
0.00189046
0.00192912
0.00190588
0.00190514
0.00170197
0.0017014
0.00290711
0.00296281
0.00455724
0.00480127
0.00484719
0.00311691
0.00307388
0.00179541
0.00166727
0.00181885
0.00188803
0.00189181
0.00189922
0.0018893
0.00185602
0.00183172
0.00180345
0.00178059
0.00176051
0.00172577
0.00165957
0.00153273
0.00167033
0.00187333
0.00195617
0.00197758
0.00198775
0.00201911
0.0020706
0.00211196
0.00220789
0.00221803
0.00221744
0.00222542
0.00208019
0.0021455
0.00181579
0.00181337
0.00314312
0.00313492
0.00180087
0.00212665
0.00214078
0.00211606
0.00227785
0.00208434
0.00201798
0.00200683
0.00192157
0.00187627
0.00181599
0.00178003
0.00181498
0.00193084
0.00186967
0.00165672
0.00159753
0.00179185
0.00172351
0.00142992
0.00122166
0.001188
0.00113719
0.00110638
0.00115963
0.00120114
0.00122483
0.00125494
0.00126389
0.00131932
0.00128377
0.00134741
0.00142892
0.00149393
0.00177222
0.00192032
0.00173482
0.00170134
0.00168021
0.00167809
0.00168331
0.00161374
0.00160913
0.00157323
0.00155557
0.00150871
0.00148756
0.00146066
0.0014655
0.00148099
0.00162817
0.00419346
0.00534434
0.00556558
0.00949333
0.00384205
0.00392339
0.00767788
0.00318482
0.00478343
0.00512438
0.00535862
0.0055956
0.00512165
0.00649485
0.00454312
0.00505913
0.00527641
0.00462854
0.00172828
0.00195748
0.00226321
0.00202695
0.00179078
0.00122099
0.00131712
0.00136049
0.00139567
0.0014185
0.00144383
0.00147094
0.00149641
0.00151431
0.00151464
0.0014687
0.00141915
0.00130522
0.00126729
0.00131638
0.00136715
0.00120089
0.00113075
0.00114416
0.00116309
0.00117372
0.00117605
0.00118766
0.00119083
0.00120913
0.00119944
0.0012087
0.0011881
0.0011987
0.00118293
0.00114247
0.00108583
0.000989414
0.000965782
0.00139105
0.00148124
0.0015561
0.0017656
0.00203849
0.00217515
0.00194935
0.00179726
0.00172513
0.00191375
0.00191396
0.00347582
0.00667295
0.00298852
0.00335037
0.00976742
0.00388145
0.00301862
0.00306455
0.00309682
0.00310099
0.00180213
0.00213467
0.00206993
0.00207793
0.00176222
0.00147942
0.00132677
0.00118624
0.00080429
0.000801593
0.000807647
0.000819949
0.000823765
0.00078844
0.000788345
0.000783831
0.000782062
0.000765455
0.000760824
0.000747344
0.000739162
0.000719755
0.000709227
0.000690717
0.000687373
0.00071581
0.000794979
0.000960723
0.00107071
0.00121614
0.00123873
0.00139783
0.00346695
0.00401988
0.00553684
0.00549004
0.0086575
0.00541044
0.00408792
0.00369573
0.00540576
0.00558405
0.00518446
0.00702315
0.00486161
0.00321742
0.00481353
0.00399969
0.0047649
0.00466499
0.00494684
0.00786487
0.00829861
0.00233745
0.00208403
0.00219276
0.00248746
0.00295304
0.00271874
0.00309725
0.00309402
0.00238745
0.00152122
0.00484542
0.00583747
0.00468194
0.00561818
0.00870425
0.00349742
0.00341137
0.00301892
0.00251991
0.00229037
0.00225957
0.00251933
0.00301447
0.00756088
0.00808114
0.00743067
0.00739483
0.00670942
0.00738729
0.00923591
0.00920332
0.00813173
0.00761091
0.00787202
0.00485524
0.00303189
0.00353221
0.00391292
0.00522029
0.00538307
0.0113685
0.00385767
0.00426163
0.00432817
0.00579
0.00560551
0.00991842
0.00419797
0.00452874
0.00596738
0.00797717
0.0147212
0.00536497
0.00565506
0.00813689
0.00826012
0.00754858
0.00545015
0.00493761
0.00538015
0.0040532
0.00396198
0.00338284
0.0049943
0.00672489
0.00531453
0.00516086
0.00439246
0.00390662
0.00400442
0.00415467
0.00345053
0.00340301
0.00392881
0.00291101
0.00281671
0.00298624
0.000828589
0.00042476
0.000434272
0.000445547
0.000454706
0.000464128
0.000471037
0.000479213
0.000482933
0.000483321
0.000484537
0.000512478
0.000507782
0.000491739
0.000446515
0.00050956
0.000808649
0.000809237
0.000509035
0.00044877
0.000805198
0.00128317
0.00151294
0.00179002
0.00181233
0.00156363
0.00135553
0.000834209
0.000821118
0.000497709
0.000581261
0.000631218
0.000559829
0.000624753
0.000579028
0.000613332
0.000619578
0.000573174
0.00057001
0.000572219
0.000567825
0.00055774
0.000545398
0.00053035
0.000518469
0.000511885
0.000506664
0.000495403
0.000412108
0.000383942
0.000461208
0.000735
0.000733859
0.000688078
0.00064913
0.000615943
0.000600926
0.000596793
0.000593581
0.000603951
0.000623507
0.000629021
0.000634517
0.000683765
0.000662621
0.000707768
0.000664214
0.000709663
0.000666145
0.000612805
0.000514552
0.000530903
0.000856476
0.000865597
0.00139879
0.00160045
0.00181496
0.00182441
0.00203649
0.0021446
0.00181585
0.00188531
0.00216096
0.00201276
0.00179431
0.00180121
0.00162034
0.00162169
0.00143628
0.000897465
0.000885242
0.000555954
0.000539894
0.000643765
0.000632467
0.000703401
0.000752739
0.000752964
0.000750513
0.000731376
0.000724571
0.000637165
0.000624691
0.000625502
0.000606537
0.000602436
0.000627976
0.000684891
0.000803389
0.000971568
0.00105811
0.00109551
0.00105119
0.000941478
0.000694043
0.000627703
0.00108737
0.00112941
0.00201725
0.00477632
0.00221614
0.00426287
0.00307767
0.000766191
0.000855153
0.00109055
0.00122202
0.00131926
0.00137451
0.00125567
0.00104732
0.000788635
0.000651349
0.000973854
0.00084212
0.000951586
0.000831151
0.00107571
0.00124383
0.00120334
0.00121246
0.00102473
0.000834817
0.000884065
0.000793798
0.000874956
0.000732449
0.000881233
0.000795717
0.000999956
0.00100933
0.000988333
0.000936816
0.000713313
0.000748396
0.000627738
0.000680941
0.000611303
0.000631797
0.000598662
0.000698167
0.000804491
0.000772066
0.000769021
0.000631841
0.000495063
0.000546751
0.000472693
0.000534974
0.000415734
0.000503632
0.000422383
0.000546762
0.000563607
0.000566525
0.000562728
0.00045767
0.000538034
0.000659654
0.000692803
0.000698574
0.000665573
0.000513005
0.000793901
0.00071678
0.000875251
0.000757233
0.000828772
0.000754797
0.000879814
0.00112678
0.0011764
0.00118425
0.000960777
0.000954607
0.00174152
0.0964898
0.00156653
0.00185145
0.0019091
0.00190217
0.00157272
0.0015346
0.00190047
0.00140613
0.00199095
0.00125359
0.00212298
0.000809343
0.00123022
0.00132077
0.00131792
0.00122478
0.000820958
0.00242764
0.11936