/*--------------------------------*- C++ -*----------------------------------*\
| =========                 |                                                 |
| \\      /  F ield         | OpenFOAM: The Open Source CFD Toolbox           |
|  \\    /   O peration     | Version:  v2012                                 |
|   \\  /    A nd           | Website:  www.openfoam.com                      |
|    \\/     M anipulation  |                                                 |
\*---------------------------------------------------------------------------*/
FoamFile
{
    version     2.0;
    format      ascii;
    class       volScalarField;
    location    "160";
    object      alphat;
}
// * * * * * * * * * * * * * * * * * * * * * * * * * * * * * * * * * * * * * //

dimensions      [1 -1 -1 0 0 0 0];


internalField   nonuniform List<scalar> 
22960
(
0.00449286
0.00248013
0.002107
0.00184201
0.00108748
0.00158798
0.00180699
0.00214905
0.00206278
0.00180535
0.00164756
0.00269864
0.00385138
0.00463477
0.00475446
0.00475058
0.00462266
0.0049687
0.00590186
0.00645148
0.00585492
0.00369352
0.00504467
0.00617582
0.00501831
0.00382579
0.00336853
0.00455135
0.00516538
0.00520708
0.00530197
0.00531208
0.00536501
0.00539039
0.00547746
0.00553388
0.00571995
0.00583533
0.00597752
0.00667374
0.00695973
0.00704954
0.00721079
0.00727859
0.00738992
0.00747221
0.00756039
0.00762594
0.00764657
0.0080569
0.00842438
0.00822658
0.00810229
0.0079783
0.00774871
0.00680423
0.00439304
0.00265875
0.00247846
0.00264893
0.00276592
0.00282188
0.00242513
0.00129306
0.0016925
0.00197206
0.00242421
0.0023882
0.00215417
0.00203429
0.00332523
0.00445716
0.00515115
0.00526246
0.00531529
0.00526104
0.00526598
0.00516446
0.00513632
0.00454087
0.00338205
0.00387636
0.00452564
0.00453459
0.0038177
0.00286714
0.00478246
0.00540776
0.00532278
0.00574859
0.00634159
0.00678594
0.00686996
0.00669692
0.00557368
0.00410808
0.00251188
0.00251682
0.00263899
0.00255389
0.00217068
0.00171364
0.00107175
0.00178899
0.0020294
0.00184096
0.0016842
0.00149064
0.00163595
0.00293212
0.00533383
0.00612535
0.00611832
0.00602305
0.00596692
0.0059542
0.00594553
0.00617974
0.00636951
0.00652551
0.00683469
0.0071267
0.00718367
0.0062867
0.00380293
0.00216874
0.00194528
0.0020706
0.00213155
0.00243229
0.00243887
0.00211153
0.00202098
0.00217228
0.00348705
0.00614481
0.00687675
0.00678704
0.00650817
0.00618021
0.00597174
0.00572493
0.0054371
0.00538795
0.00543241
0.00554987
0.00569278
0.0057317
0.00509285
0.00289941
0.00177623
0.00159888
0.00169062
0.00203603
0.00210056
0.0022516
0.00184674
0.0011069
0.00184855
0.00230131
0.00244461
0.00249525
0.00263211
0.00293777
0.00330469
0.00321025
0.00286272
0.00258854
0.00241941
0.00231798
0.00212047
0.00191327
0.00148896
0.000921947
0.00155283
0.00168269
0.00158723
0.0014709
0.00133772
0.00144491
0.00253577
0.00407826
0.00460135
0.00462786
0.00450404
0.00425773
0.00395489
0.00369764
0.00416028
0.00453153
0.00481542
0.00502468
0.00511677
0.00506138
0.00447358
0.00264818
0.00149166
0.00134427
0.00151381
0.00160769
0.00162479
0.00135397
0.000820242
0.00130772
0.00175665
0.00197477
0.0020254
0.00196301
0.00196814
0.00195666
0.00189773
0.0016784
0.00125169
0.000852957
0.00091732
0.00105213
0.00114029
0.00121745
0.00132997
0.00148059
0.00163711
0.00177466
0.00187349
0.00192631
0.00193855
0.00190929
0.0018255
0.00159028
0.00150998
0.00244202
0.00320807
0.00339425
0.00333452
0.00305645
0.002592
0.0018559
0.00119443
0.0011792
0.00121076
0.000987951
0.000697772
0.0004848
0.00040877
0.000225575
0.00023446
0.000285466
0.000304088
0.000324892
0.000253479
0.000224555
0.000429731
0.000567328
0.000669896
0.000745734
0.000807173
0.000856588
0.000859079
0.00084711
0.00079519
0.000542298
0.000360247
0.000480673
0.00059028
0.000547983
0.000505466
0.00040532
0.000374962
0.00063009
0.000716605
0.000804577
0.000738326
0.000664352
0.000681404
0.000698428
0.000711208
0.000723165
0.000720984
0.00072503
0.000713281
0.000711895
0.000687484
0.00067849
0.000629169
0.000606573
0.000545882
0.000517133
0.000518581
0.000668911
0.0009045
0.00154083
0.00240514
0.00290143
0.00319891
0.00341982
0.00347016
0.00473752
0.00464614
0.00412574
0.00333503
0.00271775
0.00162288
0.00100519
0.000917692
0.000932
0.000848085
0.000822353
0.000693204
0.000775316
0.000879665
0.00108953
0.00110856
0.000868556
0.00093835
0.000971351
0.00102204
0.00103502
0.00106372
0.00106282
0.00108233
0.00107268
0.0010855
0.00106777
0.00107469
0.00107249
0.00109259
0.00113533
0.00120367
0.000959132
0.0012903
0.00153194
0.00143536
0.00142747
0.00195046
0.00253725
0.00267479
0.004453
0.00511922
0.00461975
0.00248601
0.00238231
0.00169537
0.00110797
0.00115003
0.00127756
0.00129235
0.00121271
0.00118329
0.00121547
0.00130168
0.00131673
0.00130748
0.00129567
0.00127848
0.00125347
0.00121595
0.00109257
0.00103914
0.00137203
0.00177191
0.00192895
0.00310017
0.00430143
0.00501305
0.00417495
0.0050812
0.00570176
0.00600512
0.00605266
0.00611062
0.00607323
0.00679894
0.00679943
0.00671616
0.00656128
0.00625543
0.00568972
0.0047437
0.00552491
0.00607337
0.00653744
0.00679244
0.00701855
0.00713263
0.00715584
0.00713965
0.00730105
0.00741286
0.00764777
0.00770402
0.00766509
0.00750608
0.00718028
0.00611104
0.00372159
0.00200036
0.00175292
0.00182958
0.0018299
0.00185171
0.00167804
0.00105206
0.00164927
0.00225212
0.00243713
0.00236642
0.00213067
0.00201123
0.00323397
0.00436786
0.00511083
0.00525701
0.00536768
0.00528019
0.00517027
0.00447715
0.00337086
0.00208524
0.00193462
0.00150047
0.00114645
0.00119611
0.00130619
0.00112553
0.000864701
0.000670944
0.000760494
0.000716739
0.00069958
0.000697318
0.000692072
0.000687695
0.000690942
0.000684877
0.000689148
0.000678686
0.000681516
0.000659638
0.000654473
0.000607575
0.000588872
0.00053088
0.000494382
0.000480994
0.00060573
0.000828787
0.00147161
0.0023788
0.002806
0.00313701
0.00340148
0.00346373
0.003988
0.00375913
0.00309317
0.00330971
0.0027406
0.00294445
0.00327142
0.00423392
0.00443983
0.00509266
0.00486852
0.00443506
0.00413064
0.00326023
0.00332166
0.00296547
0.00150792
0.00246115
0.00215025
0.00136995
0.00136381
0.00103255
0.00122008
0.00158765
0.0014222
0.00135776
0.00264881
0.00226286
0.00240054
0.00252794
0.00267371
0.00407444
0.0029343
0.00297374
0.0046852
0.00404195
0.00339338
0.00349931
0.0040956
0.00398187
0.0037244
0.00341523
0.00378247
0.00372013
0.00373527
0.00369772
0.00368895
0.00367805
0.00366254
0.00384656
0.00398868
0.00423056
0.0043414
0.00437641
0.00430982
0.00403645
0.00375274
0.00138787
0.000521467
0.0005967
0.000713873
0.000847383
0.00100777
0.00113826
0.00127021
0.00147614
0.00147726
0.00137085
0.00125264
0.0011068
0.000913326
0.000563966
0.000339362
0.000305464
0.000527038
0.000866929
0.0012105
0.00134487
0.00191062
0.00180685
0.0027129
0.00455002
0.00489466
0.00520673
0.00536202
0.00539957
0.00530581
0.0045748
0.0029663
0.00296928
0.00306953
0.00300768
0.00298177
0.00299032
0.0029232
0.00286411
0.00248061
0.00226532
0.00157983
0.00135947
0.00161732
0.00173745
0.00188513
0.00187153
0.00209692
0.00198209
0.00203558
0.00195524
0.00175005
0.00160279
0.00264364
0.0037878
0.00460728
0.00476795
0.00483702
0.00465381
0.00442052
0.00368225
0.00271493
0.00166333
0.0015222
0.00117157
0.000887385
0.000916658
0.000991156
0.000841989
0.000633617
0.000474617
0.000418679
0.000247439
0.000258357
0.000317546
0.000329822
0.000336836
0.000270396
0.000252819
0.000503333
0.0006517
0.000750882
0.000824857
0.000891756
0.000939312
0.000941352
0.000928616
0.000864308
0.000521632
0.000352156
0.000466189
0.00056396
0.000528292
0.000490972
0.00039513
0.000365983
0.000605221
0.000549628
0.00060798
0.000692656
0.000739783
0.000783235
0.000797191
0.000802371
0.000816328
0.000908304
0.00105882
0.00138057
0.00192394
0.00220556
0.00256528
0.00256442
0.0024893
0.00239501
0.00223684
0.00203953
0.00179168
0.00146817
0.000871622
0.000581125
0.000552961
0.00158107
0.00161305
0.00174411
0.0023515
0.00255421
0.0022044
0.00355319
0.00376301
0.00549387
0.00500023
0.00505904
0.00524857
0.00531744
0.00524354
0.00470094
0.00458999
0.00512088
0.00520499
0.00513713
0.00495343
0.00510285
0.00518497
0.00365255
0.00382705
0.00220687
0.00226261
0.00267384
0.00254297
0.00225261
0.00228496
0.00199773
0.00185343
0.0017432
0.0018368
0.00180321
0.00220909
0.00238431
0.0026113
0.00269014
0.00266599
0.00269764
0.00278178
0.00278239
0.00253878
0.00232667
0.00169861
0.00142796
0.00155088
0.00190163
0.00204759
0.00213863
0.00204526
0.00197332
0.00196123
0.0020066
0.00207996
0.00201176
0.00193629
0.00168471
0.00176183
0.00176508
0.00173445
0.00172693
0.00172736
0.00174649
0.0017709
0.00175709
0.0015402
0.00141358
0.00149292
0.00144627
0.00149803
0.00166038
0.00175714
0.00180568
0.00179324
0.0018248
0.00180806
0.00180613
0.00174063
0.00169393
0.00175543
0.00179437
0.00188918
0.00194471
0.0018705
0.00222977
0.00218866
0.00251234
0.00259632
0.0024483
0.0021115
0.00188862
0.00348043
0.00333217
0.00332364
0.00207829
0.00214526
0.0025135
0.00235088
0.00230342
0.00203634
0.0018375
0.00179714
0.00183163
0.00182129
0.00181771
0.00177959
0.00177327
0.00173693
0.00167786
0.00157457
0.00158974
0.0015727
0.00154765
0.0014143
0.00127229
0.00123878
0.00113595
0.00143797
0.00153589
0.00148108
0.00152215
0.0017608
0.00165466
0.00154688
0.00289632
0.00192694
0.00129339
0.00129522
0.00129551
0.001296
0.00129256
0.00128412
0.00126448
0.00122762
0.00116842
0.00101855
0.00163367
0.00263326
0.00322681
0.00401531
0.00458022
0.00469405
0.00545435
0.00543771
0.00549611
0.00554435
0.00557958
0.00557617
0.00547264
0.00471907
0.00366684
0.00326844
0.00297451
0.00319621
0.00345705
0.00362288
0.00222847
0.00243144
0.00249063
0.00260306
0.00296428
0.00353891
0.00371345
0.00339684
0.00319124
0.00302707
0.00286706
0.00252792
0.00297448
0.0032357
0.00330886
0.0033329
0.00359801
0.00437835
0.00454253
0.00438478
0.00393313
0.00390737
0.00381936
0.00387566
0.00387064
0.00385552
0.0040869
0.00522877
0.00548612
0.00519824
0.00519871
0.00549618
0.00521359
0.00473363
0.00479363
0.00259202
0.000691642
0.00286441
0.00354001
0.0049293
0.00442846
0.00355914
0.00309267
0.00419095
0.0040154
0.00500191
0.00511817
0.00454411
0.0050673
0.00502782
0.00529236
0.00549673
0.00483353
0.00443962
0.00462785
0.00484579
0.00492061
0.0046994
0.00493941
0.00486989
0.00511467
0.00515136
0.00440278
0.00532089
0.00404462
0.00347062
0.00561708
0.00638774
0.00718343
0.00800169
0.00860762
0.00918876
0.00981701
0.0104924
0.0107788
0.0109573
0.0103649
0.0095972
0.00895438
0.00842347
0.00798914
0.0076542
0.00739427
0.00711335
0.00700185
0.00674575
0.00627677
0.00672524
0.00706891
0.0073313
0.00756684
0.00776091
0.00790518
0.00807259
0.00866346
0.00869438
0.00870154
0.00854452
0.00830508
0.00801617
0.00759979
0.00652012
0.0038653
0.00228456
0.00207149
0.00213375
0.00237091
0.00232569
0.00234262
0.00197868
0.00112708
0.00143291
0.0021679
0.00254362
0.00251976
0.00253398
0.00262545
0.00233851
0.00406946
0.00418766
0.00660646
0.00777476
0.00827936
0.00869028
0.00912108
0.00951859
0.0097489
0.00988647
0.00888898
0.00848501
0.00821026
0.00793286
0.00766373
0.00740176
0.0071142
0.00732006
0.0075753
0.00784271
0.00819785
0.00865282
0.00925789
0.0100742
0.011308
0.0108232
0.0101407
0.00949065
0.00891286
0.00840257
0.00786737
0.00709134
0.00635806
0.00408089
0.00416697
0.00224779
0.00240794
0.00265318
0.00265098
0.00264626
0.00259853
0.00221393
0.00168384
0.0019873
0.00186857
0.00327673
0.00364735
0.00398947
0.00408594
0.00239193
0.00239971
0.00246871
0.00260225
0.00251419
0.00249035
0.00355238
0.00354821
0.00359359
0.0036995
0.00379823
0.00279102
0.00308915
0.0039516
0.00387787
0.00330785
0.00318677
0.00334758
0.00328255
0.00404326
0.00395255
0.00378241
0.00378677
0.00286129
0.00312403
0.00390152
0.00376736
0.00299425
0.00271496
0.00302261
0.00113447
0.00214406
0.00176977
0.00300147
0.00371474
0.00398874
0.00470241
0.0045581
0.00448344
0.00440207
0.00363867
0.00336171
0.00308618
0.00430751
0.00425257
0.00353221
0.0036089
0.00406824
0.00377468
0.00467121
0.00476202
0.00447839
0.00425719
0.00281195
0.00418638
0.00432095
0.00443424
0.0042087
0.00379312
0.00335662
0.00309691
0.00373978
0.00373205
0.00372302
0.00317275
0.00265585
0.00212653
0.00301491
0.00326014
0.00391656
0.00376858
0.00359963
0.00276623
0.00285659
0.00206096
0.00232386
0.00243713
0.00225418
0.00191386
0.003347
0.00513358
0.00581704
0.00588805
0.00589093
0.00584804
0.00573585
0.0050081
0.00320559
0.00315969
0.00324285
0.00322298
0.00323242
0.00323439
0.00316497
0.0032557
0.00321143
0.00325223
0.00326198
0.00329189
0.00334249
0.00335913
0.0034275
0.00531751
0.00505903
0.00521364
0.00500997
0.00492928
0.00508969
0.00514462
0.0050721
0.00480437
0.00450735
0.00436031
0.00488425
0.00495479
0.00498258
0.00503912
0.00510153
0.00505881
0.00493647
0.00486882
0.00464229
0.00493517
0.00530347
0.00541761
0.0053072
0.00511246
0.00505226
0.00499056
0.00534741
0.00500946
0.00504986
0.00564003
0.00574932
0.00578989
0.00577549
0.00567182
0.00510113
0.00323626
0.00181804
0.00214455
0.00232089
0.00232241
0.00216376
0.00204806
0.00216078
0.00219133
0.00207455
0.00177148
0.00328842
0.00326795
0.00506243
0.00563616
0.00574917
0.00576217
0.00571514
0.00560193
0.00564659
0.00574318
0.00580265
0.00581942
0.0057646
0.00555421
0.00541087
0.00328919
0.00333027
0.0016363
0.00173903
0.00200926
0.00210899
0.00213601
0.00203779
0.00180245
0.0019052
0.00185689
0.00180008
0.00333996
0.0033987
0.00307601
0.00314821
0.00199561
0.00300241
0.00394636
0.00406822
0.0042095
0.00325638
0.00377491
0.00282747
0.00288804
0.00374903
0.0037253
0.00356513
0.00369624
0.00386913
0.0040075
0.00374925
0.00376806
0.00535866
0.00402699
0.00409085
0.0038057
0.00414798
0.00416517
0.00410875
0.00386598
0.00600441
0.00481008
0.00442068
0.00426645
0.00479435
0.00477075
0.00460676
0.00314018
0.00339762
0.00350695
0.00358593
0.00406664
0.00401044
0.00478471
0.00487587
0.00454246
0.00417307
0.00405404
0.00354621
0.00343715
0.00472214
0.0053616
0.00537513
0.00365642
0.00426003
0.00533823
0.00530192
0.00546132
0.00563369
0.00560727
0.00341819
0.0032831
0.00318477
0.00299227
0.00277958
0.0031169
0.00345289
0.00377535
0.0039161
0.00430407
0.00468003
0.00510937
0.005178
0.00488152
0.00541532
0.00534371
0.00528677
0.00523065
0.0052089
0.00446147
0.0057358
0.00553895
0.00524883
0.00483401
0.00309695
0.00193132
0.00223796
0.00250214
0.00241542
0.00360368
0.00445688
0.0036055
0.00464223
0.00468701
0.00483834
0.00436071
0.00417684
0.00461677
0.0051054
0.00494936
0.0049477
0.00572936
0.00484149
0.00483984
0.00513409
0.00504297
0.00550092
0.00500575
0.00475769
0.00505747
0.00532943
0.00491742
0.00456464
0.0048893
0.00505256
0.00440394
0.00417315
0.00370188
0.0029187
0.00319707
0.00340703
0.00330132
0.00367591
0.00443678
0.00500724
0.00384291
0.00484551
0.0048474
0.00480105
0.00475554
0.00519415
0.00575469
0.00556255
0.00586079
0.00578076
0.00573795
0.00543456
0.00529548
0.00494691
0.00524734
0.00537803
0.0053541
0.00516062
0.00488969
0.00523989
0.00482393
0.00419881
0.00435013
0.00495859
0.00516612
0.00465263
0.00474088
0.00523881
0.00568585
0.00550525
0.00503652
0.0046164
0.00504991
0.0051841
0.0046469
0.00443083
0.00392996
0.00410066
0.00476704
0.00501136
0.00440201
0.00438734
0.00431073
0.00425394
0.00494253
0.00528015
0.00518179
0.00537671
0.00553281
0.00569304
0.00560058
0.00555369
0.00549797
0.00566415
0.00554242
0.00560576
0.00550146
0.00518256
0.00536015
0.00514307
0.00540501
0.00453112
0.00530714
0.00548744
0.00485878
0.00552412
0.00560848
0.00545276
0.0057197
0.00419312
0.00418435
0.00387441
0.00413749
0.00490302
0.00599317
0.00536827
0.00535734
0.0046573
0.00477808
0.00539484
0.00537968
0.00525119
0.00498013
0.00626114
0.00672622
0.00568793
0.00670063
0.0062258
0.00596832
0.00588651
0.00589088
0.00585324
0.00577303
0.0056829
0.00559667
0.00552965
0.00547905
0.00540498
0.00492625
0.00519235
0.00540279
0.00513846
0.00477395
0.00480751
0.00489891
0.00497438
0.0049816
0.00492765
0.00487987
0.00488305
0.00487395
0.00474693
0.0045451
0.00425658
0.00433581
0.00433872
0.00435373
0.00434002
0.00435294
0.00446626
0.00485142
0.005146
0.00522028
0.00520811
0.00505556
0.0049525
0.00508632
0.00531489
0.00556997
0.00569808
0.00579003
0.00588109
0.00596439
0.0061378
0.00650638
0.00704799
0.00725713
0.00643037
0.00566148
0.00549246
0.00530212
0.00518971
0.00505566
0.00479022
0.00432922
0.00459522
0.00454834
0.00528516
0.00551589
0.00559278
0.00553216
0.00505313
0.00350746
0.00363348
0.00361218
0.00326169
0.00277516
0.00317906
0.00324891
0.00362744
0.0036693
0.00337947
0.00323823
0.00309021
0.00348614
0.00374449
0.00370335
0.00367217
0.00353258
0.00337002
0.00324805
0.00309009
0.0030085
0.00291191
0.00287511
0.00282616
0.00280731
0.00276135
0.00437014
0.00497833
0.00487976
0.00460707
0.00418972
0.00441073
0.00459179
0.00416253
0.00264811
0.00274617
0.00268989
0.00276635
0.00271518
0.00271412
0.00272332
0.00272292
0.0027297
0.00272104
0.00273491
0.00272877
0.00279699
0.00274019
0.00287035
0.00318319
0.00160002
0.00172423
0.00174657
0.00173534
0.00169427
0.00167185
0.00166283
0.00165272
0.00165041
0.00165015
0.00166747
0.00166033
0.00161554
0.00148007
0.00157276
0.00264318
0.00260443
0.00408705
0.00257088
0.00153381
0.0015615
0.00180667
0.00180116
0.0018714
0.00183169
0.0016884
0.00164519
0.00165068
0.00166139
0.00167288
0.00173934
0.0019549
0.00202203
0.00200305
0.00175121
0.00178881
0.00209022
0.00201475
0.00173466
0.00142315
0.00126896
0.00124329
0.00124177
0.0012384
0.00123281
0.00122546
0.00121731
0.00120753
0.00119724
0.001212
0.0013452
0.00161794
0.00184314
0.00167311
0.0017601
0.0016894
0.00147446
0.00246827
0.00387189
0.00242103
0.00142601
0.00161807
0.00149231
0.00156539
0.00134234
0.00139298
0.00153942
0.00133148
0.00123181
0.00109605
0.00103973
0.00107224
0.00108435
0.00109677
0.00110741
0.00111493
0.00112021
0.00109955
0.00116804
0.00132291
0.0014472
0.00169756
0.00187264
0.00158506
0.00130734
0.00117891
0.00105489
0.000743257
0.000732117
0.000720767
0.000720075
0.00073659
0.000747459
0.000749362
0.000749219
0.000741398
0.000731116
0.000715325
0.000666344
0.000672939
0.000688832
0.000704822
0.000705338
0.000713215
0.000724715
0.000732464
0.000739572
0.000734315
0.000731266
0.000735563
0.000741995
0.000742144
0.000735584
0.000732926
0.000728013
0.000726088
0.000717884
0.000710516
0.00070068
0.000695191
0.00069003
0.000684258
0.000672632
0.000665268
0.000654734
0.000959285
0.00105963
0.00115397
0.00137071
0.00161135
0.00176069
0.00155854
0.00263595
0.00416934
0.00259116
0.0015173
0.00170284
0.00155146
0.00130125
0.00125947
0.0012767
0.00131936
0.00111331
0.00113242
0.00117833
0.00107548
0.000968377
0.000659172
0.000667397
0.000671338
0.000682173
0.000686101
0.000689494
0.000692964
0.000701107
0.000706244
0.000711734
0.000710141
0.000712214
0.000713137
0.000718685
0.000718354
0.000712484
0.000708265
0.000717272
0.000404154
0.000443209
0.000457651
0.000456124
0.000455441
0.000450216
0.000455591
0.000449354
0.000445992
0.000435619
0.000427379
0.000422375
0.000420962
0.000416908
0.000405401
0.000370833
0.000413218
0.000662373
0.000661564
0.000409835
0.000362391
0.00063766
0.000992726
0.000641433
0.000391426
0.000454327
0.000485524
0.000443475
0.000491409
0.000464741
0.000485328
0.000502402
0.00051026
0.000520394
0.000530233
0.00053528
0.000542206
0.000563818
0.000560543
0.000568043
0.000567402
0.000559016
0.00053211
0.000471277
0.000522887
0.000581196
0.000603145
0.000611271
0.000561929
0.000562279
0.000587644
0.000578714
0.000573023
0.000566402
0.00053382
0.000512873
0.000536517
0.000511766
0.000533545
0.000508725
0.000527001
0.000500102
0.000467126
0.000395084
0.000640652
0.000996264
0.000639964
0.000394614
0.000466885
0.00051115
0.000540314
0.000541876
0.000550075
0.000548285
0.000561621
0.000547667
0.000497531
0.000535172
0.00021186
0.000376771
0.000297689
0.000372233
0.000308415
0.000419039
0.000506806
0.000499453
0.000510922
0.00043387
0.000412824
0.0004059
0.000413955
0.000424085
0.000412056
0.000454425
0.000460518
0.000574575
0.00057361
0.000584582
0.000610366
0.000511864
0.000526679
0.00048426
0.000535521
0.000519608
0.000531631
0.000539175
0.000549547
0.000652772
0.000669538
0.00068557
0.000577471
0.000407275
0.000500862
0.000374798
0.000472853
0.000249146
0.000575146
0.000574411
0.000550312
0.000575838
0.000580937
0.000581806
0.000582551
0.000558233
0.000725466
0.000687695
0.000779191
0.000278765
0.000561807
0.000384015
0.000530787
0.000395423
0.000523311
0.000673236
0.000707372
0.000699303
0.000593597
0.000645288
0.00178519
0.128076
0.00136087
0.00166404
0.00169141
0.0016597
0.00127395
0.000941337
0.00127084
0.00080352
0.00131877
0.000576726
0.00192163
0.0016969
0.00188607
0.00199353
0.00088664
0.000943008
0.000977336
0.00102807
0.000893127
0.000869425
0.00104758
0.00107054
0.10593
0.129895
0.136879
0.130742
0.100048
0.128337
0.345203
0.545425
0.645311
0.187934
0.00141968
0.00151908
0.00100699
0.000854635
0.000382445
0.000847749
0.00162103
0.136644
0.292882
0.747571
1.38277
0.993618
0.646109
0.335148
0.124764
0.294304
0.119302
0.326507
0.133072
0.17105
0.447998
0.825741
0.638385
0.977058
0.610917
0.986497
1.27228
1.50441
1.75585
1.21258
0.47755
0.13818
0.00113768
0.000816894
0.000853213
0.00160098
0.00123411
0.000697771
0.000821195
0.00165447
0.14327
0.500351
1.31816
1.63795
1.73297
1.64172
1.47651
1.26044
1.39099
1.15795
1.2039
0.870057
0.470125
0.170708
0.177102
0.470495
0.866209
1.17923
1.40187
1.42154
1.55406
1.53868
1.69699
1.76752
1.78015
1.65748
1.07163
0.2136
0.00205977
0.00106936
0.00117098
0.00209775
0.209596
1.13535
1.73528
1.81499
1.77839
1.70923
1.70354
1.56706
1.44884
1.26783
1.03193
0.681557
0.369968
0.119708
0.00161672
0.00161339
0.0017101
0.00150433
0.11785
0.309754
0.589708
0.945703
1.18087
1.35683
1.59532
1.7015
1.78079
1.82012
1.81306
1.225
0.203382
0.00208827
0.00116454
0.000872705
0.00170475
0.120587
0.460251
1.79698
1.79292
1.6004
1.52672
0.852269
0.771602
0.657013
0.485144
0.289434
0.112824
0.00192785
0.00123651
0.00160257
0.16429
0.178195
0.184427
0.185619
0.122239
0.46395
0.119736
0.451718
0.118205
0.00197352
0.00218211
0.000900818
0.00082262
0.000926067
0.00198732
0.00206186
0.00091038
0.000954264
0.00185241
0.00214408
0.000845015
0.000689102
0.00140421
0.00172656
0.000850097
0.000844657
0.00175618
0.00170521
0.000810653
0.000744773
0.000539644
0.000657239
0.000569955
0.00064263
0.000615983
0.00065828
0.00130558
0.00113363
0.00101393
0.00112407
0.00124682
0.00149336
0.00152304
0.00168386
0.00169035
0.00176855
0.00183532
0.00185134
0.00170425
0.00130925
0.00159081
0.00170047
0.0016728
0.00141467
0.00200082
0.00118756
0.00102073
0.00108625
0.00110437
0.000863639
0.00108922
0.00120073
0.00127473
0.00113049
0.000967732
0.00114721
0.00130786
0.00165885
0.00166451
0.00147276
0.00152023
0.00192538
0.00171923
0.00179499
0.00188318
0.00169183
0.00158131
0.00176862
0.00141715
0.00150487
0.00312741
0.0120987
0.0196131
0.0323811
0.0379607
0.0352369
0.0209571
0.0144007
0.00554946
0.00114899
0.00121304
0.000815961
0.00113687
0.00142787
0.00153788
0.0014079
0.00104289
0.00129477
0.00155455
0.00105336
0.000902998
0.000942638
0.00106292
0.000977235
0.000766361
0.000701021
0.000963933
0.00100086
0.00106987
0.000981896
0.000779291
0.000869978
0.00104597
0.00112146
0.00100087
0.000952579
0.000792244
0.000553331
0.00103432
0.0011634
0.001286
0.00124242
0.00125242
0.00140887
0.00150871
0.00153799
0.00109169
0.000905707
0.0012465
0.00149366
0.00166268
0.00161766
0.00711651
0.00271643
0.00145921
0.00105083
0.000962565
0.000945734
0.00104183
0.000765067
0.000900233
0.000999513
0.00104904
0.000991853
0.000960398
0.000845242
0.000961316
0.00102556
0.00100164
0.000933197
0.000782572
0.000879787
0.000892115
0.000977644
0.000932237
0.000816616
0.000853196
0.000922878
0.000980339
0.000944093
0.00107642
0.000828327
0.00107985
0.0010707
0.00103197
0.00117245
0.000999785
0.00121496
0.000906255
0.00084537
0.0012679
0.000879006
0.000813928
0.001401
0.000909099
0.000847011
0.00163385
0.000967043
0.000851888
0.00204377
0.000781882
0.00121759
0.00115261
0.00117603
0.0010121
0.00104547
0.00117906
0.00118679
0.00162912
0.00123552
0.000921033
0.000469577
0.000409776
0.000455272
0.000538084
0.000591195
0.000616403
0.000641345
0.000650818
0.000603548
0.000624998
0.000654371
0.000678035
0.000655794
0.000622982
0.000566073
0.000469454
0.000474563
0.000574309
0.000649771
0.000691078
0.000687015
0.000662721
0.000932314
0.00157229
0.00157096
0.00135011
0.00146646
0.00167938
0.00149761
0.00122493
0.00104587
0.00114377
0.00125642
0.00121046
0.00112723
0.00102365
0.00118854
0.00119465
0.00121484
0.0012144
0.00123259
0.00104233
0.00112976
0.00123449
0.00128138
0.00126283
0.00117496
0.00120566
0.00138684
0.00151093
0.00139158
0.00147949
0.00157169
0.00142837
0.00108122
0.000682898
0.000679048
0.000661479
0.00057308
0.000473148
0.000466894
0.000570242
0.000663782
0.000671453
0.000683543
0.000647789
0.000561011
0.000454491
0.000434874
0.000538946
0.000610646
0.000659778
0.000637512
0.000579585
0.000493257
0.000400549
0.000411104
0.00050246
0.000598385
0.00062918
0.000651065
0.000682772
0.000695925
0.000690463
0.000677759
0.000658022
0.000626133
0.000610021
0.000603861
0.000577633
0.000566637
0.000564822
0.000546866
0.000540145
0.000551637
0.00052333
0.000487841
0.000438864
0.000404231
0.000356541
0.000630814
0.000982007
0.00112584
0.00134841
0.00131257
0.00110219
0.00109082
0.00106348
0.0010827
0.000972584
0.000628012
0.000388743
0.000459856
0.000511473
0.000518435
0.00052346
0.000760487
0.000795735
0.000941472
0.00098932
0.000869188
0.000967837
0.00107634
0.00096727
0.000829184
0.000954801
0.00105316
0.00122546
0.00136248
0.00120486
0.00113907
0.00131101
0.00144569
0.0012796
0.00102661
0.000693371
0.00110233
0.00118219
0.00103417
0.000878652
0.00485427
0.000953768
0.00148102
0.00098789
0.000871534
0.000910814
0.00100714
0.000921629
0.000743302
0.000678004
0.000903498
0.00093364
0.000994306
0.000909604
0.000738944
0.000825143
0.000972833
0.00104104
0.000945703
0.00101755
0.000782402
0.000534274
0.000859239
0.000983832
0.0010962
0.00101768
0.00113815
0.00142192
0.00129755
0.00120617
0.00127241
0.000882492
0.000887716
0.000844355
0.000819914
0.00211096
0.000818472
0.000759971
0.00205732
0.000913688
0.000832711
0.0010495
0.000849489
0.000915093
0.000912835
0.000932798
0.00175332
0.00196402
0.00183445
0.00137767
0.00134182
0.00142122
0.00200424
0.00202503
0.00200626
0.00179046
0.0012032
0.00171033
0.00215493
0.00223996
0.00183721
0.00144926
0.00159941
0.0016579
0.00147345
0.001059
0.00104479
0.00102531
0.00095756
0.000992561
0.00100707
0.00100719
0.00101033
0.000941066
0.00104359
0.00107245
0.00111375
0.00103613
0.000976672
0.00108938
0.00113024
0.00125054
0.00106637
0.00113091
0.000867936
0.00124149
0.00146275
0.00170953
0.00174239
0.00154038
0.00119969
0.000950214
0.00112128
0.00136065
0.00164122
0.00153898
0.00131193
0.00154166
0.0012282
0.00130429
0.00159167
0.00114355
0.00108438
0.00106011
0.0010761
0.000941186
0.00152264
0.00117315
0.00120446
0.00110377
0.00105398
0.00153029
0.000892446
0.00118225
0.00117568
0.00124663
0.00131206
0.00120489
0.00209939
0.000801868
0.00120413
0.00122749
0.00195614
0.00126327
0.00137539
0.00135068
0.00130232
0.00203906
0.00141339
0.00146319
0.0012635
0.00122558
0.00281391
0.00149325
0.00151588
0.00119231
0.00108837
0.00255449
0.00141105
0.00138491
0.00108046
0.00113715
0.000425778
0.000518451
0.000615492
0.0006115
0.000672525
0.000635271
0.000690627
0.000640005
0.000657787
0.000592032
0.000596638
0.00058181
0.000569632
0.000541698
0.000532964
0.000531783
0.000527268
0.000517647
0.000505271
0.000484267
0.000461499
0.000408999
0.000654486
0.000653279
0.000646509
0.000643598
0.00193537
0.00087561
0.000448575
0.000386005
0.000634278
0.000628882
0.000982103
0.000970648
0.000952821
0.000613641
0.000623291
0.000385531
0.000456588
0.00050939
0.000504751
0.000511168
0.000501431
0.000454322
0.000380893
0.000379574
0.000611388
0.000621504
0.000383963
0.00045585
0.000453222
0.000488265
0.000500113
0.000512399
0.000501208
0.000506095
0.00045464
0.000384667
0.000622377
0.000630012
0.000388654
0.000459403
0.000511631
0.000518803
0.000506394
0.000776263
0.000946754
0.00101222
0.00112585
0.00110928
0.00094591
0.000979066
0.00106084
0.00117667
0.0011685
0.00116293
0.00120188
0.00108758
0.00085965
0.000780096
0.000988588
0.00104511
0.00114676
0.00183125
0.0013313
0.00102549
0.000959564
0.00104926
0.000986383
0.000989502
0.000941485
0.000883666
0.000939483
0.000914165
0.000734424
0.000794562
0.000898831
0.000937159
0.000861295
0.000926527
0.000821424
0.00072081
0.000858091
0.000918646
0.000912732
0.000832789
0.000659402
0.000873877
0.000903892
0.000938274
0.000818839
0.000713118
0.000855284
0.000849623
0.000898653
0.00192231
0.000837219
0.000873189
0.00189498
0.000758899
0.000719656
0.000665032
0.000744729
0.000743197
0.000805201
0.000805295
0.0008431
0.000851643
0.00188657
0.000787703
0.000846841
0.00182691
0.000741267
0.000649653
0.000657338
0.000720436
0.000675188
0.00072876
0.00067194
0.00197643
0.000771239
0.000817317
0.000861854
0.000867272
0.000915503
0.000873965
0.00209834
0.000803246
0.000854459
0.000714724
0.000660317
0.000689023
0.000661451
0.00213444
0.000831422
0.000903837
0.000892422
0.000952946
0.000901839
0.00050368
0.000458941
0.000387829
0.000666879
0.00206249
0.000880535
0.000839962
0.00067295
0.000713604
0.00083824
0.00187845
0.00165826
0.00172845
0.0017539
0.00165783
0.00156224
0.00161759
0.00167747
0.00168568
0.00172399
0.00172084
0.00183867
0.0018256
0.00218853
0.00256711
0.00163107
0.00229724
0.00502964
0.00649501
0.00850085
0.00172171
0.00126691
0.000988722
0.00101384
0.000914743
0.000999606
0.000959437
0.00117847
0.00122044
0.00117276
0.00092274
0.000939653
0.00097389
0.00106641
0.00102792
0.00127135
0.00167228
0.0081724
0.00681581
0.00383762
0.00257156
0.00149514
0.00157239
0.00158392
0.0015958
0.00106172
0.0053704
0.00325454
0.0018392
0.00398014
0.00257299
0.00347664
0.0031704
0.00385035
0.0037916
0.00144357
0.00143992
0.0014354
0.00142905
0.00142276
0.0014161
0.00141333
0.00142552
0.00155462
0.00258151
0.00319105
0.00327786
0.00353697
0.00366912
0.00414374
0.00448611
0.00505066
0.00565855
0.00608529
0.00552986
0.00806855
0.00583652
0.00719235
0.00707166
0.00795835