/*--------------------------------*- C++ -*----------------------------------*\
| =========                 |                                                 |
| \\      /  F ield         | OpenFOAM: The Open Source CFD Toolbox           |
|  \\    /   O peration     | Version:  v2012                                 |
|   \\  /    A nd           | Website:  www.openfoam.com                      |
|    \\/     M anipulation  |                                                 |
\*---------------------------------------------------------------------------*/
FoamFile
{
    version     2.0;
    format      ascii;
    class       volScalarField;
    location    "760";
    object      alphat;
}
// * * * * * * * * * * * * * * * * * * * * * * * * * * * * * * * * * * * * * //

dimensions      [1 -1 -1 0 0 0 0];


internalField   nonuniform List<scalar> 
18258
(
0.00485752
0.00211154
0.00173035
0.00149922
0.00099247
0.00162435
0.00225584
0.00268558
0.00281763
0.00279344
0.00289207
0.00487972
0.00684756
0.0084621
0.00888834
0.0088732
0.00805282
0.00768947
0.00834573
0.0102688
0.00864488
0.00553609
0.00663641
0.00766527
0.00832969
0.00737394
0.00596046
0.00552275
0.00500109
0.00416826
0.00349245
0.0023721
0.00175717
0.00163016
0.00147593
0.0016815
0.00183042
0.00195044
0.00199451
0.00202587
0.00201192
0.00200051
0.00194664
0.00191444
0.00185933
0.00154096
0.00187793
0.00189348
0.00207421
0.0028738
0.00309125
0.0026017
0.00288076
0.00257095
0.00169521
0.00194018
0.00210605
0.00215162
0.0021242
0.00203623
0.00200667
0.00198162
0.00194981
0.001912
0.00188895
0.00190789
0.00192763
0.00190663
0.00181287
0.00173693
0.00161401
0.0014908
0.00139944
0.00132867
0.00127533
0.00121619
0.00114973
0.00100992
0.000935989
0.00123932
0.00155581
0.00166231
0.00235606
0.00287252
0.00289204
0.00216439
0.0015423
0.00160056
0.00177941
0.00179739
0.00152332
0.0018114
0.00205209
0.00212704
0.0022168
0.00247762
0.00282058
0.00274971
0.00244872
0.00225597
0.00221755
0.0025389
0.00241251
0.00312892
0.00315287
0.00275253
0.00253193
0.00284959
0.00367522
0.00395467
0.00307417
0.00288732
0.00283008
0.00279395
0.00252673
0.00261509
0.00237485
0.00213986
0.00233131
0.00281815
0.00267289
0.00291939
0.00302535
0.00283844
0.00328923
0.00379321
0.00373796
0.00299116
0.00243805
0.00227261
0.00228993
0.00140049
0.00151239
0.00163003
0.00166996
0.00169792
0.00172169
0.00183595
0.00183181
0.00180492
0.00180094
0.00183255
0.00100991
0.00109414
0.00112135
0.0011292
0.00107252
0.00106148
0.00104167
0.00102557
0.000966876
0.000925099
0.00110695
0.001243
0.00135391
0.00148357
0.00167711
0.0019139
0.00216275
0.00241421
0.00258054
0.00262793
0.00267584
0.00257862
0.00248095
0.00256933
0.00258417
0.00256744
0.00253287
0.00248926
0.00243033
0.00232226
0.00244665
0.00243956
0.00229182
0.00196437
0.00200805
0.00200442
0.00205668
0.00204652
0.00206758
0.0020388
0.00200504
0.00190893
0.00177488
0.00147819
0.00143712
0.00145617
0.00187098
0.00227227
0.00351097
0.00428453
0.00497652
0.00532688
0.00570392
0.00461276
0.00513272
0.00395475
0.00355097
0.00451393
0.00590658
0.0033696
0.0018387
0.00348636
0.00309092
0.00224011
0.00199321
0.00205311
0.00205841
0.0023679
0.00272922
0.00302664
0.00317048
0.00329799
0.00339958
0.00351178
0.00365445
0.00369365
0.00356862
0.00302131
0.00363952
0.00295407
0.00344903
0.00311336
0.00209734
0.00224307
0.00237358
0.00216982
0.00210952
0.00202191
0.00181733
0.00222921
0.00289824
0.00336469
0.00384644
0.00512626
0.00474276
0.00455053
0.00352395
0.00340751
0.00176969
0.00252556
0.00261269
0.00293647
0.00195254
0.00178023
0.00168817
0.00223866
0.00259365
0.00306055
0.00339299
0.00402999
0.00312177
0.00356432
0.00322354
0.00224348
0.00216229
0.00309961
0.00334007
0.00274762
0.00246018
0.00308504
0.00291815
0.00206908
0.00166188
0.00255258
0.0026453
0.00189566
0.00471364
0.0050004
0.00476651
0.00580854
0.00728386
0.00830833
0.00773404
0.00686221
0.00766337
0.00608406
0.00589056
0.00628404
0.00527666
0.00370104
0.00379547
0.00392653
0.004034
0.00433193
0.00460246
0.00493239
0.00524652
0.00476896
0.00396016
0.00299706
0.00206205
0.00203425
0.00202417
0.00181762
0.00269364
0.00407473
0.00404685
0.00229882
0.00133991
0.00151558
0.00171142
0.00169465
0.00122951
0.000925523
0.00159446
0.00182324
0.00185277
0.00180682
0.00170598
0.0017827
0.00286289
0.00441045
0.00484611
0.00501914
0.00518279
0.00529828
0.00536236
0.00538241
0.00539334
0.00540683
0.00541863
0.00543686
0.00541967
0.00530397
0.00466506
0.00293304
0.00171464
0.00159292
0.00175802
0.0018894
0.00200412
0.00170534
0.00104264
0.0016654
0.00213243
0.00245084
0.00247164
0.00230663
0.00223752
0.00352806
0.00469084
0.00552905
0.00569861
0.00577387
0.00571008
0.00570134
0.00557629
0.0055367
0.00485429
0.00347587
0.00380093
0.00408141
0.00412882
0.00422463
0.00436832
0.00426695
0.00403018
0.00589221
0.00679751
0.00688441
0.00703084
0.00694729
0.00682666
0.00651581
0.00616092
0.00518634
0.00388921
0.0024538
0.00250485
0.00266639
0.00264071
0.0022986
0.00242223
0.00262887
0.00265521
0.00274207
0.00307516
0.00349285
0.00333165
0.0028667
0.00243472
0.00226703
0.0022197
0.00212991
0.00159552
0.00161914
0.00157367
0.00159949
0.00214852
0.00255719
0.00294908
0.00418322
0.00373178
0.00303499
0.00481267
0.00493082
0.00529668
0.00585058
0.00599573
0.00664259
0.00462562
0.004169
0.00428275
0.00349837
0.00323816
0.00327272
0.00328505
0.0030616
0.00335097
0.00332153
0.00320157
0.00353478
0.00389525
0.00513664
0.00622467
0.00656827
0.0067671
0.00684852
0.00682252
0.00668863
0.00672976
0.00591002
0.00590212
0.00565316
0.00549066
0.00543281
0.00516254
0.00591107
0.00613688
0.00621215
0.00636709
0.0066086
0.00643055
0.00623044
0.00607837
0.00596818
0.00585283
0.00591558
0.00602571
0.00614312
0.00630815
0.00652892
0.00656621
0.0063374
0.00616461
0.00604644
0.00593545
0.00594033
0.00603936
0.00615483
0.00631862
0.00652787
0.00641201
0.00624942
0.00610465
0.00598588
0.00588132
0.00567576
0.00581301
0.00596398
0.00608844
0.00616922
0.00533005
0.00569717
0.00559894
0.00506889
0.00474402
0.00360265
0.00389889
0.00411154
0.00447825
0.00497108
0.00506798
0.00425279
0.00364448
0.00355135
0.00352266
0.00360556
0.00363544
0.00365309
0.00412783
0.00622017
0.00626204
0.00627936
0.0062815
0.00537113
0.00521936
0.00486308
0.0088886
0.00827481
0.00717031
0.00590986
0.00316789
0.00271555
0.00321696
0.00391187
0.00437334
0.00482553
0.00320396
0.00198427
0.00231231
0.00239711
0.00233796
0.00216089
0.0018003
0.00166181
0.00150821
0.00162316
0.00287484
0.0045884
0.00516885
0.00522416
0.00517277
0.0050725
0.00495045
0.0047804
0.00472115
0.00595607
0.00806574
0.00909246
0.00905485
0.00777962
0.00634256
0.00357604
0.00184086
0.00135242
0.00146106
0.00160473
0.00188501
0.00168068
0.00141259
0.00154799
0.00146649
0.00297019
0.00512588
0.00652417
0.00774972
0.00762925
0.00663559
0.00541971
0.00513249
0.005252
0.00533254
0.00540103
0.00547132
0.00551938
0.00548814
0.00499476
0.00308526
0.00184168
0.00163619
0.00175916
0.00206178
0.00219104
0.00221377
0.0021833
0.00189297
0.00313125
0.00497142
0.00316199
0.00172505
0.00186365
0.0018498
0.0032631
0.00325832
0.0031885
0.00496074
0.00524558
0.00523265
0.00491671
0.00469335
0.00277898
0.00315438
0.0031651
0.00318175
0.00323378
0.0016339
0.00178106
0.00183661
0.00197748
0.00172758
0.00219477
0.000568009
0.000787496
0.000914808
0.00099493
0.00107203
0.00105172
0.00201241
0.00204208
0.00194836
0.00189695
0.00240732
0.00258321
0.00264016
0.0024317
0.00224372
0.00238823
0.00239352
0.00225584
0.00213677
0.0022153
0.00221687
0.00212464
0.00180717
0.00169342
0.0018589
0.00183889
0.00182428
0.0032752
0.00326935
0.00309451
0.00508313
0.00500196
0.00560243
0.00556638
0.00555983
0.00553698
0.00559681
0.00562806
0.00565147
0.00567873
0.00566771
0.00561251
0.00778093
0.00552286
0.00481914
0.00278727
0.00268501
0.00189647
0.00166215
0.00195718
0.00209327
0.0022694
0.00221812
0.00233823
0.00233538
0.00247808
0.00229999
0.00204216
0.00312757
0.00334104
0.00326303
0.00332744
0.00324914
0.00322991
0.00320633
0.00316094
0.00310618
0.00184977
0.0018146
0.00212489
0.00223054
0.00239676
0.00241834
0.00247086
0.0023432
0.00206067
0.00199465
0.00229733
0.00226631
0.00231055
0.00217843
0.00216925
0.00193235
0.00198131
0.00399228
0.00735541
0.00379434
0.00421416
0.00381929
0.0043429
0.00380495
0.00328228
0.00335948
0.00295924
0.00308685
0.00323784
0.00329639
0.00346455
0.00408391
0.00393172
0.00345115
0.00335099
0.00328504
0.00309761
0.0027883
0.00292061
0.00294673
0.00300994
0.00334534
0.0038369
0.00430046
0.00522418
0.00506955
0.00444207
0.00406111
0.00425816
0.00433305
0.005453
0.00509388
0.00506401
0.00534246
0.00528973
0.00501954
0.00475583
0.0045904
0.00394238
0.0040072
0.00458406
0.00443586
0.00457147
0.0044914
0.00466984
0.00475462
0.00456305
0.00424124
0.00446037
0.00445182
0.00494292
0.00480668
0.00445958
0.00407821
0.00436141
0.0043095
0.00497682
0.00468402
0.00438093
0.00403403
0.00386498
0.00438585
0.00430541
0.0048805
0.00502274
0.00502487
0.00438171
0.0042795
0.00508764
0.00489374
0.00472851
0.00492536
0.00408004
0.00419582
0.00516719
0.00527516
0.00500547
0.0041803
0.00424363
0.00363852
0.00427856
0.00532404
0.00502845
0.0041221
0.0034213
0.00478511
0.00503398
0.00532267
0.00503093
0.00547756
0.00590005
0.00481221
0.00523466
0.00683611
0.00522684
0.00606469
0.00619846
0.00623433
0.00623684
0.00626014
0.0062904
0.00662557
0.0064414
0.00410054
0.00490166
0.0047649
0.00398876
0.00339527
0.00373892
0.00402678
0.00408498
0.0041886
0.00434773
0.00427217
0.00412706
0.00604494
0.0068989
0.00704665
0.00718534
0.00706756
0.00689404
0.0064933
0.00600563
0.00499619
0.00372787
0.00232929
0.00237486
0.00253111
0.00250751
0.0021755
0.00164068
0.00107859
0.00159981
0.00165512
0.00156036
0.00142449
0.00126157
0.0013121
0.0023776
0.00430793
0.00621302
0.00691508
0.00748082
0.00807104
0.00861484
0.00902372
0.00932356
0.00952928
0.00965709
0.00968401
0.00950002
0.00863219
0.00824233
0.00775925
0.00736208
0.00681852
0.00640691
0.00724638
0.00796413
0.00840731
0.00890443
0.00913486
0.00903842
0.00784911
0.0076022
0.00874805
0.0107842
0.00916908
0.0115243
0.0135506
0.0105397
0.00947757
0.00947719
0.0106029
0.0108093
0.0104251
0.00982471
0.00913423
0.00825988
0.0086985
0.00909918
0.0094878
0.00984612
0.0107996
0.0109608
0.0108753
0.0106996
0.0104679
0.0101468
0.00965234
0.00896299
0.00814964
0.00733816
0.00639605
0.00439379
0.00222607
0.00250436
0.00246955
0.00249085
0.00249899
0.00119728
0.00132233
0.00133858
0.00134632
0.00126849
0.00144495
0.00208865
0.00337609
0.00242663
0.00200359
0.0013807
0.00161463
0.00269314
0.00455638
0.00514458
0.00525132
0.00537072
0.00708511
0.00795267
0.0084351
0.00881604
0.00907518
0.00896623
0.00867996
0.00817057
0.00751397
0.00726261
0.00684666
0.00648507
0.00628621
0.00608888
0.00570555
0.00445616
0.00432237
0.00450402
0.00444367
0.00425241
0.00454617
0.00471164
0.0047085
0.00476143
0.00480757
0.00494979
0.00511701
0.00526243
0.00533858
0.00536661
0.00537513
0.00538568
0.0053939
0.00540989
0.00539112
0.00527273
0.00462965
0.00289496
0.00168989
0.00156207
0.00171263
0.00181102
0.00185302
0.00164557
0.00105942
0.00164625
0.00213092
0.00218575
0.00239862
0.0024748
0.00262378
0.00292162
0.00337569
0.00348326
0.00309093
0.00292752
0.00286558
0.00279306
0.0023922
0.002982
0.00328501
0.00327817
0.00324664
0.00350905
0.00431822
0.00414826
0.00365818
0.00361795
0.00358188
0.00324354
0.00319526
0.00348595
0.00352402
0.00365482
0.00428514
0.00513851
0.0047675
0.00434272
0.00416466
0.00384667
0.00339037
0.00306527
0.0037581
0.00307911
0.00163924
0.00139918
0.00138435
0.0013919
0.00134635
0.00159631
0.00167937
0.00170117
0.00157956
0.00175167
0.0019484
0.0018833
0.0021313
0.00210458
0.00188644
0.00186983
0.00201644
0.00212264
0.00217772
0.00224213
0.00366959
0.00379354
0.00293478
0.00424115
0.004883
0.00483201
0.00512648
0.00422314
0.00378965
0.00449708
0.00519048
0.00594364
0.00470247
0.00445069
0.00454984
0.00209407
0.00110201
0.00155434
0.00193001
0.00215285
0.00208947
0.00197404
0.00166932
0.00295873
0.00303915
0.00481543
0.00540188
0.00547269
0.00543965
0.00552547
0.00605188
0.00697645
0.00788537
0.00815326
0.00803812
0.00768253
0.00702281
0.00635521
0.00631189
0.00608734
0.00592502
0.00587428
0.00509083
0.00452522
0.0048504
0.00476332
0.00492486
0.00500042
0.00505531
0.00511103
0.00520366
0.00531528
0.00541676
0.00548551
0.0055309
0.0055688
0.00560743
0.00564619
0.00568819
0.00571031
0.00565515
0.0051102
0.00306534
0.00182766
0.00166722
0.00177892
0.00209074
0.00220141
0.002366
0.00210066
0.00110643
0.00130046
0.00226043
0.00250683
0.0023195
0.00217083
0.00213186
0.00178595
0.00323515
0.0031929
0.00501184
0.00563746
0.00571726
0.00570249
0.00565954
0.00561085
0.00556381
0.00552516
0.00549421
0.00546105
0.00541359
0.00535513
0.00530158
0.00524768
0.00515469
0.00502291
0.00486481
0.00505357
0.00523782
0.00545602
0.00568854
0.00580702
0.00570542
0.00555218
0.00548414
0.00551813
0.00556465
0.00561275
0.00565608
0.00567707
0.00561325
0.0052898
0.00496338
0.00314356
0.00318446
0.00156727
0.00174092
0.00200872
0.00207467
0.00225299
0.00224211
0.00176271
0.00137425
0.00155066
0.00144921
0.00258864
0.00284658
0.00315644
0.00312515
0.00169745
0.00174125
0.00180977
0.00204122
0.0018984
0.00183455
0.00452285
0.00433496
0.00453758
0.00556594
0.00479456
0.00331039
0.00362538
0.00504554
0.00532177
0.00321652
0.0024145
0.00267546
0.00338812
0.00498977
0.00505224
0.00480031
0.00477244
0.00348265
0.0042826
0.0051557
0.00501499
0.00390744
0.00269175
0.00200688
0.00097686
0.00185806
0.00158848
0.0038918
0.00430683
0.00425667
0.00465458
0.00494539
0.00499593
0.00485428
0.00430567
0.00439117
0.00443444
0.00505237
0.00507464
0.00429671
0.00362589
0.00294605
0.0029723
0.0030297
0.00335692
0.00420311
0.00396018
0.00347124
0.00336618
0.00329378
0.00309829
0.00279607
0.0024526
0.00246958
0.00229864
0.00222458
0.00350659
0.0046675
0.00550396
0.00566233
0.00571988
0.00563254
0.00559328
0.00543403
0.00535198
0.00464999
0.00593941
0.00627772
0.00605687
0.00610059
0.00613765
0.0061835
0.00618353
0.00606661
0.00521339
0.00311354
0.00203379
0.00229558
0.0024777
0.00232662
0.00231344
0.00246571
0.00233975
0.00205525
0.00332987
0.00325471
0.00520395
0.00589325
0.00602037
0.00602875
0.00600543
0.00598625
0.00599453
0.00630964
0.0061635
0.00623735
0.00655969
0.00657317
0.006654
0.00624799
0.0061692
0.00611918
0.0060859
0.00603124
0.00588392
0.00520767
0.00504854
0.00573225
0.005908
0.00598568
0.00603953
0.00610414
0.00618942
0.00643528
0.00661746
0.00668453
0.00642242
0.00633014
0.0061853
0.00597668
0.00592706
0.0059164
0.00591094
0.00588137
0.00572784
0.00504176
0.00324172
0.0033216
0.00197598
0.00198884
0.00229065
0.00240586
0.0023629
0.00218811
0.00213339
0.00366974
0.00417728
0.00444333
0.00478588
0.00457141
0.0045445
0.00519386
0.00502684
0.00447963
0.00466134
0.00418182
0.00398535
0.00385339
0.00387483
0.00203965
0.00220097
0.0022958
0.00225776
0.00215899
0.00192573
0.00176599
0.00322296
0.00319934
0.00315749
0.00187772
0.00183651
0.00216361
0.00210112
0.00192206
0.00163843
0.00179618
0.00277329
0.00310182
0.00480986
0.00498239
0.00533365
0.00570475
0.00584613
0.00588505
0.00590857
0.00593502
0.0059907
0.00605614
0.00607321
0.00606778
0.0061132
0.00610387
0.0061039
0.00606992
0.00603171
0.00598786
0.00594151
0.00586585
0.00571014
0.00533651
0.00496971
0.00560351
0.00565479
0.00575982
0.00586882
0.00591578
0.00592427
0.00590466
0.00586424
0.0058165
0.00576015
0.00575944
0.00592503
0.00596388
0.00599267
0.005975
0.005955
0.00594843
0.00592242
0.00587974
0.00577008
0.00565995
0.00561261
0.00551822
0.00566649
0.00573282
0.00574371
0.0058003
0.00589034
0.0059153
0.00591342
0.00586903
0.0058318
0.00578495
0.00570936
0.00561162
0.00527808
0.00534469
0.00543314
0.00554833
0.00565974
0.00574977
0.0058
0.0058025
0.00574855
0.00571263
0.00571412
0.00566618
0.00569193
0.00571774
0.00568902
0.00568641
0.00569211
0.00562954
0.00551365
0.00535169
0.00517979
0.00503626
0.00496057
0.00483964
0.00523236
0.00537933
0.00551084
0.00562812
0.00573448
0.00584157
0.00587574
0.00586505
0.00579873
0.00576041
0.00575755
0.00570092
0.00569918
0.00575407
0.0057576
0.00578964
0.00584689
0.00582923
0.00574934
0.00554852
0.00535341
0.00518421
0.00502314
0.00485086
0.00478824
0.00486638
0.00480596
0.0048784
0.00505006
0.0052631
0.00544633
0.00556177
0.0055973
0.00563094
0.00568146
0.00567558
0.00564569
0.00562955
0.00556129
0.00550222
0.0054295
0.00526876
0.00506211
0.00487815
0.00481612
0.00491175
0.0050098
0.00491938
0.00458213
0.00476404
0.00493447
0.00510519
0.00534722
0.00562662
0.00575098
0.00579559
0.00576798
0.00574568
0.00574161
0.00568954
0.00567247
0.00572044
0.00572519
0.00574754
0.0057833
0.00574453
0.00564115
0.00529818
0.00489186
0.00469772
0.00458417
0.00442749
0.00494412
0.00504677
0.0049218
0.00483785
0.0049696
0.00512454
0.0052854
0.00539221
0.00543424
0.00549257
0.00556928
0.00560575
0.00555115
0.00548768
0.00540903
0.00536806
0.00536566
0.00533639
0.00523183
0.00511071
0.00497378
0.00514222
0.00524028
0.00514651
0.00466925
0.00474669
0.00485804
0.00492216
0.00530234
0.00563776
0.00572014
0.00572579
0.00569238
0.00567001
0.00567019
0.00563971
0.00558471
0.00557527
0.00557033
0.00563478
0.00571857
0.00576274
0.00578342
0.00553221
0.00507774
0.00500488
0.00480254
0.00470467
0.00521574
0.00527505
0.00515521
0.00504264
0.00528368
0.00538721
0.00541765
0.00539817
0.00534371
0.00530724
0.00537502
0.00548149
0.00540043
0.00505085
0.00473947
0.00489888
0.00493657
0.00492274
0.00485495
0.00474351
0.0045025
0.00502681
0.00553745
0.0055805
0.00504286
0.00505093
0.0048833
0.00454167
0.00498291
0.00521986
0.00527395
0.00525643
0.00517765
0.00498201
0.00526294
0.00550972
0.00546249
0.00494448
0.00320929
0.00325358
0.00327734
0.00328064
0.00323724
0.00322502
0.00317773
0.00315316
0.0030798
0.0030051
0.002934
0.00312871
0.00329611
0.00352121
0.00353938
0.00363227
0.00347586
0.00329082
0.00307287
0.00239332
0.0030368
0.00362237
0.00385048
0.00414258
0.00420339
0.00485055
0.00510356
0.00524145
0.00514188
0.0041264
0.00350085
0.00279784
0.00181959
0.00113376
0.00133087
0.00138427
0.00145453
0.00177822
0.00328784
0.00167429
0.00232443
0.00181629
0.00313052
0.00164998
0.00103028
0.000681675
0.000865903
0.00102418
0.00103247
0.000991583
0.000827593
0.000652205
0.000666744
0.000623299
0.000662488
0.000597936
0.000685173
0.000640443
0.000894481
0.00134552
0.00152715
0.00156073
0.00126137
0.0014222
0.00118812
0.00137026
0.00122342
0.00133355
0.00127923
0.00156471
0.00171495
0.00164218
0.00164704
0.00144147
0.00100835
0.00116871
0.000918285
0.00110248
0.000843724
0.0010899
0.000934658
0.00121454
0.00125209
0.00124855
0.00120224
0.000918545
0.00108894
0.000857219
0.00104929
0.000858957
0.000911805
0.000758228
0.00109774
0.00111738
0.00102997
0.00109428
0.00122765
0.00131716
0.00145416
0.0013804
0.00157769
0.00152845
0.00155575
0.00147364
0.00143312
0.00140031
0.00140301
0.00137982
0.00138726
0.00143183
0.00143391
0.00143945
0.00148485
0.00146298
0.00142772
0.00140654
0.00124948
0.00100795
0.00175574
0.00181064
0.00183723
0.00183657
0.00179462
0.00177462
0.00171355
0.00169726
0.0016441
0.00161274
0.00154154
0.00148284
0.00141611
0.00159142
0.000890456
0.00101099
0.00106734
0.00109897
0.00112117
0.00113136
0.00113972
0.00113342
0.00111945
0.00109177
0.0010823
0.00105215
0.00134648
0.00153158
0.00160096
0.00161956
0.00151825
0.0014458
0.0031593
0.00382241
0.00581441
0.00594319
0.00446071
0.0044478
0.00154025
0.00162443
0.00111112
0.00156155
0.00161023
0.001594
0.00150602
0.00108638
0.00163023
0.00113541
0.00152872
0.001144
0.00141331
0.00116027
0.00164441
0.00209418
0.00201902
0.00182793
0.00124325
0.00103427
0.00103148
0.000883858
0.000970116
0.000803451
0.000989209
0.000838117
0.00124859
0.00178207
0.00197175
0.00201126
0.00158589
0.00218818
0.00164494
0.00238142
0.00188973
0.00233007
0.0018694
0.00216449
0.00267829
0.00269036
0.00262674
0.0021173
0.00169752
0.00190499
0.00168799
0.00194368
0.0028084
0.00184085
0.00279096
0.00115374
0.00157268
0.00162103
0.00159886
0.00150767
0.00101606
0.00258749
0.00136804
0.00243633
0.00157584
0.00252935
0.00183057
0.00241778
0.00288916
0.00301589
0.00300085
0.00244969
0.00220393
0.00227104
0.00181281
0.00217576
0.00162786
0.00236626
0.00135035
0.0017578
0.00194739
0.00205069
0.00205938
0.00169331
0.00334363
0.00209885
0.00316821
0.00220224
0.00282155
0.00226126
0.00247458
0.00292223
0.0029043
0.00288024
0.00244255
0.00197629
0.00260829
0.00186136
0.055273
0.127869
0.0508286
0.129208
0.0585068
0.0830454
0.0818332
0.0820099
0.0823173
0.0618043
0.134902
0.15938
0.166214
0.168227
0.166964
0.269826
0.219992
0.330577
0.214314
0.126034
0.0545762
0.0753052
0.194528
0.321349
0.482164
0.611827
0.416891
0.431535
0.275375
0.271518
0.255607
0.206761
0.126736
0.0635251
0.0109234
0.0119594
0.0171109
0.022765
0.0179236
0.0109852
0.00217161
0.00224176
0.0022933
0.00232625
0.00232026
0.00227377
0.00231328
0.00218946
0.00206383
0.00231129
0.00251908
0.00266264
0.00314586
0.0034799
0.00313682
0.00343959
0.00364609
0.0038146
0.00395413
0.0041614
0.00439457
0.0045989
0.00460991
0.00422389
0.0035996
0.00292867
0.00246261
0.00233341
0.00219141
0.00193251
0.00176794
0.00165592
0.00160136
0.0015785
0.00162186
0.00177219
0.00190235
0.00194791
0.00190926
0.00187426
0.00184372
0.00164172
0.00191942
0.0026329
0.00265406
0.00454694
0.00523925
0.00534792
0.00535506
0.00474785
0.00303305
0.00303955
0.00305508
0.00311303
0.00312511
0.00313254
0.00312917
0.00311767
0.00309944
0.00306533
0.00304845
0.00299919
0.00295773
0.00285413
0.00285875
0.00289502
0.00292401
0.00287626
0.00288808
0.0028278
0.00366739
0.00490868
0.00554805
0.00579854
0.00601488
0.00583816
0.00808509
0.00690915
0.00485409
0.00478335
0.00472367
0.00560139
0.00564096
0.0051018
0.00512286
0.00466439
0.00291124
0.00290192
0.00290383
0.00310533
0.00316627
0.00327474
0.00330469
0.00333184
0.00334782
0.00334275
0.00334099
0.00331245
0.00329054
0.00321659
0.00319197
0.00318138
0.00175387
0.00191415
0.00198552
0.00199848
0.00202684
0.00201425
0.00200178
0.00197749
0.00196145
0.00192837
0.00188998
0.00183374
0.00172419
0.00157081
0.00172872
0.00293459
0.00293377
0.00478322
0.00540741
0.00544692
0.00605361
0.0057472
0.00544275
0.00584023
0.00527112
0.00523028
0.00472731
0.00293422
0.00297434
0.0017646
0.00174943
0.00204515
0.00198883
0.00212517
0.00218335
0.00219037
0.0022209
0.00224997
0.00228611
0.00234451
0.00236221
0.00232615
0.00231957
0.00218505
0.00188807
0.00191046
0.00225252
0.00236265
0.00219326
0.00215416
0.00213701
0.00208424
0.00204424
0.00200596
0.00203186
0.00218746
0.00218476
0.00214594
0.00204191
0.00198816
0.00172352
0.00166433
0.00291084
0.00295492
0.00489154
0.00500408
0.00496067
0.00571295
0.00637603
0.00725641
0.0061929
0.00503932
0.00527211
0.00602625
0.00448486
0.00375241
0.00223471
0.00167186
0.00209098
0.0019228
0.00200504
0.00207742
0.00184502
0.00198252
0.00183319
0.00166592
0.00165678
0.00165489
0.00169595
0.00171324
0.00174451
0.00174878
0.00179149
0.00178756
0.00179309
0.00181506
0.00182527
0.00201679
0.00219258
0.00184505
0.00156406
0.00152323
0.00143827
0.00136904
0.00140225
0.00136829
0.00135985
0.00133473
0.00131199
0.00125182
0.00130439
0.00138397
0.00161899
0.00154968
0.00125261
0.0011193
0.000765071
0.000780401
0.000785808
0.000810031
0.000818933
0.000829872
0.000833953
0.000847607
0.00085028
0.000854618
0.000854299
0.000875225
0.000872268
0.000862323
0.000855845
0.000860057
0.0008641
0.000863542
0.00126453
0.00140822
0.00153899
0.0018282
0.00215197
0.00185225
0.00156959
0.00135228
0.0008692
0.000882283
0.000898452
0.000906753
0.000926165
0.000943767
0.000963498
0.000975916
0.000985304
0.000995058
0.00100536
0.00100947
0.00100702
0.000987542
0.000976075
0.00100085
0.00110001
0.00115763
0.00123156
0.00125946
0.00128313
0.00129484
0.00128873
0.00130229
0.00128702
0.00128493
0.00126308
0.0012538
0.00124495
0.00123379
0.00121987
0.00118543
0.00117399
0.00123511
0.00209251
0.00273792
0.00315404
0.003475
0.00321792
0.00261567
0.00274347
0.00482445
0.00457188
0.00269433
0.00251814
0.00232783
0.00204024
0.00176756
0.00213201
0.00243515
0.00266459
0.00286581
0.00304997
0.00317524
0.00333601
0.00354553
0.00391518
0.00396184
0.00361385
0.00292902
0.00248042
0.00231758
0.0022395
0.00210279
0.00195332
0.00200208
0.00201637
0.00195616
0.00188132
0.00185979
0.00189034
0.00192906
0.00190584
0.00190511
0.00170195
0.00170138
0.0029071
0.0029627
0.0045571
0.00480119
0.00484717
0.00311684
0.00307383
0.00179537
0.00166724
0.00181881
0.00188798
0.00189176
0.00189918
0.00188927
0.00185601
0.00183172
0.00180346
0.00178058
0.00176046
0.00172568
0.00165941
0.00153257
0.00167013
0.00187312
0.00195603
0.00197749
0.00198772
0.0020191
0.00207059
0.00211194
0.00220785
0.00221798
0.00221738
0.00222536
0.00208014
0.00214544
0.00181574
0.00181331
0.00314304
0.00313481
0.00180079
0.00212656
0.0021407
0.00211599
0.00227778
0.00208428
0.00201793
0.00200679
0.00192155
0.00187625
0.00181597
0.00177998
0.00181489
0.00193067
0.00186941
0.0016565
0.00159721
0.00179158
0.00172336
0.00142982
0.00122159
0.00118795
0.00113715
0.00110635
0.00115961
0.00120112
0.00122481
0.00125492
0.00126388
0.0013193
0.00128375
0.00134737
0.00142888
0.00149389
0.00177217
0.00192027
0.00173477
0.0017013
0.00168017
0.00167806
0.00168328
0.00161372
0.00160911
0.00157321
0.00155555
0.0015087
0.00148753
0.00146062
0.00146545
0.00148092
0.00162806
0.00419299
0.00534386
0.0055649
0.00949285
0.00384122
0.0039224
0.0076773
0.00318371
0.00478208
0.00512322
0.00535767
0.00559484
0.00512064
0.00649462
0.00454197
0.00505757
0.0052748
0.00462605
0.00172862
0.00196008
0.00226508
0.00202761
0.00179126
0.00122121
0.00131722
0.00136047
0.00139558
0.00141834
0.00144365
0.00147076
0.00149622
0.00151413
0.00151447
0.00146854
0.00141899
0.00130506
0.00126714
0.00131624
0.00136703
0.00120077
0.00113063
0.00114404
0.00116297
0.0011736
0.00117594
0.00118754
0.00119072
0.00120901
0.00119932
0.00120857
0.00118798
0.00119857
0.00118282
0.00114237
0.00108574
0.000989336
0.000965714
0.00139095
0.00148113
0.00155598
0.00176548
0.00203836
0.00217501
0.00194922
0.00179718
0.00172505
0.00191365
0.00191392
0.00347607
0.00667406
0.0029886
0.00335033
0.00976886
0.00388157
0.0030185
0.00306442
0.00309669
0.00310089
0.00180205
0.00213457
0.00206982
0.00207785
0.00176216
0.00147937
0.00132673
0.00118621
0.000804272
0.000801577
0.000807631
0.000819933
0.000823749
0.000788428
0.000788332
0.000783818
0.000782048
0.000765443
0.000760811
0.00074733
0.000739146
0.00071974
0.00070921
0.000690703
0.000687375
0.000716047
0.000795439
0.00096134
0.0010711
0.00121672
0.00123925
0.00139798
0.00346605
0.00401904
0.00553556
0.00548953
0.00865753
0.00541002
0.0040875
0.00369504
0.00540496
0.00558314
0.00518269
0.00702184
0.00486009
0.00321683
0.00481944
0.00400564
0.00476355
0.00466675
0.00495029
0.00787258
0.0083016
0.0023378
0.0020842
0.00219267
0.00248747
0.00295321
0.00271943
0.00309783
0.00309518
0.00238875
0.00152103
0.00484371
0.00583502
0.00468339
0.00562276
0.00870837
0.00349755
0.00341123
0.00301839
0.00251946
0.00229001
0.00225927
0.00251903
0.00301423
0.00755654
0.00807989
0.00743649
0.00740348
0.00671741
0.00739213
0.0092409
0.00920361
0.00812923
0.00760705
0.00787251
0.00486007
0.00303134
0.00353167
0.00391266
0.00522
0.0053825
0.0113677
0.00385723
0.00426104
0.00432785
0.00578954
0.00560503
0.009917
0.00419775
0.00452846
0.00596679
0.00797676
0.0147211
0.00536464
0.00565476
0.00813655
0.00825982
0.00754808
0.00544959
0.00493725
0.00537985
0.00405299
0.00396178
0.00338246
0.00499377
0.00672472
0.00531427
0.00516062
0.00439229
0.0039062
0.00400428
0.00415449
0.00345038
0.00340276
0.00392854
0.00291125
0.00281709
0.00298566
0.000828582
0.00042476
0.000434264
0.000445537
0.000454697
0.000464118
0.000471029
0.000479204
0.000482924
0.000483313
0.000484529
0.000512467
0.000507772
0.000491729
0.000446505
0.000509548
0.000808629
0.000809216
0.000509021
0.000448758
0.000805176
0.00128313
0.00151289
0.00178995
0.00181225
0.00156357
0.00135548
0.000834185
0.000821095
0.000497694
0.000581244
0.000631201
0.000559815
0.000624738
0.000579016
0.000613318
0.000619565
0.000573164
0.000569999
0.000572209
0.000567813
0.000557729
0.000545387
0.000530345
0.000518476
0.00051192
0.000506746
0.000495548
0.000412128
0.000384001
0.000461412
0.000735462
0.000734344
0.000688483
0.000649412
0.000616097
0.000600991
0.000596808
0.000593576
0.00060394
0.000623495
0.00062901
0.000634506
0.000683751
0.000662605
0.000707751
0.000664199
0.000709646
0.000666127
0.000612787
0.000514536
0.000530886
0.00085645
0.000865571
0.00139874
0.00160038
0.00181487
0.00182432
0.00203638
0.00214448
0.00181577
0.00188521
0.00216083
0.00201264
0.0017942
0.00180111
0.00162024
0.00162161
0.00143622
0.000897436
0.000885213
0.000555935
0.000539876
0.000643744
0.000632448
0.000703381
0.000752721
0.000752947
0.000750495
0.000731365
0.000724557
0.000637155
0.00062468
0.000625491
0.000606533
0.000602457
0.000628067
0.000685123
0.000803774
0.000972064
0.0010586
0.0010959
0.00105146
0.000941676
0.000694358
0.000627883
0.00108783
0.00112972
0.00201857
0.00478071
0.00221929
0.00426399
0.00307838
0.000766335
0.000855216
0.00109062
0.00122208
0.00131935
0.00137472
0.001256
0.0010477
0.000788931
0.000651563
0.000973903
0.00084215
0.000951489
0.000831062
0.00107559
0.00124371
0.00120324
0.00121238
0.00102468
0.000834784
0.000884032
0.000793763
0.000874914
0.000732425
0.000881205
0.000795689
0.000999918
0.0010093
0.000988295
0.000936778
0.000713283
0.000748365
0.000627713
0.000680917
0.000611283
0.000631778
0.000598643
0.000698145
0.000804466
0.000772043
0.000769
0.000631825
0.000495052
0.000546741
0.000472688
0.000534969
0.00041573
0.000503625
0.000422378
0.000546758
0.000563618
0.000566575
0.000562841
0.000457817
0.000538194
0.000659748
0.000692839
0.000698583
0.000665575
0.000512999
0.0007939
0.00071679
0.000875249
0.000757228
0.000828759
0.000754783
0.00087979
0.00112675
0.00117637
0.00118422
0.000960755
0.000954587
0.00174152
0.0964903
0.00156653
0.00185145
0.0019091
0.00190217
0.00157271
0.00153459
0.00190047
0.00140613
0.00199095
0.0012536
0.00212299
0.000809349
0.00123022
0.00132077
0.00131792
0.00122479
0.000821016
0.0024279
0.119339
0.30818
0.334304