/*--------------------------------*- C++ -*----------------------------------*\
| =========                 |                                                 |
| \\      /  F ield         | OpenFOAM: The Open Source CFD Toolbox           |
|  \\    /   O peration     | Version:  v2012                                 |
|   \\  /    A nd           | Website:  www.openfoam.com                      |
|    \\/     M anipulation  |                                                 |
\*---------------------------------------------------------------------------*/
FoamFile
{
    version     2.0;
    format      ascii;
    class       volScalarField;
    location    "45";
    object      alphat;
}
// * * * * * * * * * * * * * * * * * * * * * * * * * * * * * * * * * * * * * //

dimensions      [1 -1 -1 0 0 0 0];


internalField   nonuniform List<scalar> 
18258
(
0.00523795
0.00243934
0.0021243
0.00187646
0.00122921
0.00193279
0.00255199
0.00301681
0.00313768
0.00303031
0.00306322
0.00505849
0.0070062
0.00854886
0.00891598
0.00888559
0.00801301
0.00780823
0.00865608
0.0105884
0.00891073
0.00570929
0.00693475
0.00794677
0.0083174
0.00730697
0.00588868
0.00553082
0.00505574
0.00424548
0.00355209
0.00233375
0.00179043
0.00169824
0.00150519
0.00170738
0.00185003
0.00196066
0.00200121
0.00203791
0.00202658
0.0020178
0.00196263
0.00193264
0.00187508
0.00155473
0.00201192
0.00212601
0.00167621
0.00233769
0.00263225
0.00228145
0.00262765
0.00238586
0.00162187
0.00186313
0.00202169
0.00207451
0.00206105
0.00198806
0.00196962
0.0019542
0.00193107
0.00190117
0.00188511
0.0019101
0.0019336
0.00191409
0.0018214
0.00174322
0.00161356
0.00148201
0.00138127
0.00130204
0.00124268
0.00118687
0.0011238
0.000988337
0.000915529
0.00121695
0.00152828
0.00163257
0.00230348
0.0028075
0.00282465
0.00208255
0.00145822
0.00150492
0.0016853
0.00172616
0.0014752
0.00179133
0.00207314
0.0021765
0.00227019
0.00252807
0.0027266
0.00261808
0.002937
0.00298938
0.00297631
0.00294929
0.0027192
0.00351059
0.00362179
0.00353226
0.00337437
0.0033748
0.00342495
0.00372486
0.00320756
0.00294341
0.0028827
0.00287625
0.00255535
0.00260201
0.00233304
0.00210079
0.00227104
0.00284213
0.00269737
0.00296423
0.0030665
0.00287381
0.00333669
0.00387399
0.0037914
0.00302875
0.00236425
0.00220509
0.00222629
0.00135898
0.00146827
0.00164422
0.00168369
0.00170122
0.00171756
0.00180369
0.00179929
0.001779
0.00177802
0.00186374
0.00100399
0.0010756
0.0010987
0.00110644
0.00106642
0.00106305
0.00104886
0.001034
0.000941632
0.000897171
0.0010784
0.00121442
0.00132459
0.00144973
0.00164857
0.00188784
0.0021338
0.00237787
0.00253558
0.00257349
0.00261354
0.00251069
0.0024085
0.00248738
0.00249822
0.0024811
0.00244928
0.00240749
0.00234736
0.00223501
0.00235927
0.00235601
0.00221576
0.00187382
0.00191302
0.00190457
0.00195193
0.00193809
0.00195842
0.00193736
0.00191652
0.00184001
0.00173604
0.00153257
0.0013656
0.00141786
0.00185278
0.00227356
0.00354143
0.00436163
0.00511301
0.0054963
0.00596218
0.00477923
0.00529485
0.00403851
0.00363794
0.00464958
0.00610224
0.00346798
0.00187111
0.00353134
0.0030979
0.00218561
0.0019252
0.00195676
0.00200427
0.0023149
0.0025931
0.00281711
0.00291727
0.00303579
0.00311086
0.00321418
0.00334329
0.00338134
0.0032665
0.00277475
0.00328316
0.00257141
0.00291479
0.00250418
0.00186715
0.00272083
0.00306721
0.0026142
0.00241328
0.00224283
0.0019888
0.00240359
0.00305371
0.00348938
0.00394038
0.00522222
0.00480208
0.00461051
0.00359102
0.00345537
0.00183101
0.00261676
0.00265606
0.00295407
0.00196406
0.00176796
0.0016046
0.00210525
0.0023644
0.0027539
0.00304168
0.00364684
0.00269788
0.00299679
0.00262145
0.0019167
0.00184224
0.00259021
0.00286166
0.00244208
0.0022492
0.00269406
0.00249894
0.00178816
0.0014853
0.00227584
0.00240778
0.00188215
0.00397734
0.00410194
0.00411953
0.00502242
0.00642496
0.00751219
0.00679158
0.0060408
0.00701232
0.0054433
0.00515808
0.00544674
0.0045351
0.00327587
0.00346364
0.00367746
0.00381281
0.00411157
0.00437791
0.00469904
0.00507804
0.00466929
0.00393151
0.00303135
0.00215839
0.00216279
0.00214942
0.00192679
0.0028521
0.00423425
0.00413497
0.00232486
0.00137301
0.0015725
0.00177253
0.00174226
0.0012366
0.000937055
0.00161493
0.00184164
0.00186797
0.0018191
0.00171582
0.00179111
0.00287599
0.00443091
0.00486959
0.00504226
0.00520379
0.00531578
0.00537457
0.00538845
0.00539368
0.00540285
0.0054122
0.00542976
0.00541316
0.00529846
0.00466012
0.00292653
0.00171458
0.00159957
0.00176764
0.00190236
0.00202259
0.00172493
0.00104916
0.00167916
0.0021458
0.00245902
0.00247728
0.00231037
0.0022398
0.00353031
0.00469447
0.00553326
0.00569931
0.00576812
0.00569513
0.00567442
0.00553503
0.00547683
0.00478376
0.00347608
0.00381339
0.00410253
0.00416253
0.00426982
0.00442844
0.00433466
0.00410221
0.00598973
0.00685958
0.00695811
0.00710695
0.00700435
0.00684653
0.00648334
0.00608541
0.00511083
0.0038261
0.00240646
0.0024523
0.00260726
0.00257914
0.0022434
0.00238076
0.00259523
0.00262231
0.00271173
0.00304846
0.00347045
0.00330017
0.00281667
0.00240723
0.00224877
0.00221911
0.002141
0.00162253
0.00163584
0.00157551
0.00158877
0.00211033
0.00251055
0.00290034
0.00414513
0.00369793
0.00300477
0.00484551
0.00493833
0.00532828
0.00589653
0.00606336
0.00681379
0.00465549
0.00415723
0.00427008
0.00347694
0.0032108
0.00323678
0.0032465
0.00300678
0.0032921
0.0032632
0.00314609
0.00347649
0.00386104
0.00510459
0.00622148
0.0066014
0.00683521
0.00693889
0.00690754
0.00672829
0.00672198
0.00588001
0.0058228
0.0055911
0.00542605
0.00536096
0.00506888
0.00585836
0.00609923
0.00617983
0.00633612
0.00657471
0.00644358
0.0062333
0.00607482
0.00595698
0.00582588
0.00590678
0.00603478
0.0061665
0.00634732
0.00658866
0.00664776
0.00640169
0.00620918
0.00607106
0.00594068
0.00595543
0.00607367
0.00620874
0.00638998
0.00660635
0.00647175
0.00631312
0.00615597
0.00602233
0.00590127
0.00569529
0.00584468
0.00600479
0.00613234
0.00620132
0.00533299
0.00571983
0.0056248
0.00508853
0.00475613
0.00360872
0.00390638
0.00412173
0.00448826
0.00497888
0.00507175
0.00424143
0.00362728
0.00352021
0.00348854
0.00356692
0.00360001
0.00362951
0.0041103
0.00641974
0.00643892
0.00639401
0.00635935
0.00537844
0.0052383
0.00491695
0.00936895
0.00862159
0.00735771
0.00593663
0.00313486
0.00268863
0.00319504
0.00388484
0.0043366
0.00477764
0.00317707
0.00194788
0.00225582
0.00231537
0.00222451
0.00204457
0.00170908
0.00157624
0.00142479
0.00153416
0.00273859
0.00441179
0.00497158
0.00500869
0.00491797
0.00472384
0.00448066
0.00642503
0.00821428
0.00888639
0.00923053
0.00936707
0.00912179
0.00811401
0.00698197
0.0041751
0.00235263
0.00205724
0.00213157
0.00212075
0.00230601
0.00243312
0.00216063
0.00213877
0.00210082
0.00366698
0.00606892
0.00672285
0.0077573
0.00828429
0.00840489
0.00800761
0.00695116
0.00551224
0.00501175
0.0052082
0.00531041
0.00536786
0.00533602
0.00484273
0.00296274
0.0017647
0.00155864
0.00166654
0.00195862
0.00209696
0.002141
0.00212882
0.00185972
0.0031061
0.00491689
0.00313252
0.0016962
0.00181887
0.0017914
0.00316653
0.00317892
0.0031363
0.00487838
0.00519628
0.00522512
0.00490277
0.00465712
0.002758
0.00316461
0.00318115
0.00319818
0.0032467
0.0016409
0.00179087
0.00184906
0.00199402
0.00172393
0.00214557
0.000556207
0.000779126
0.000907375
0.0010017
0.00108196
0.00105935
0.00205081
0.00210269
0.00199701
0.00189992
0.00241628
0.00260281
0.00264897
0.0024274
0.00223655
0.00238251
0.00239662
0.00226111
0.00213885
0.00221223
0.00220888
0.00211932
0.00180193
0.00168875
0.00185215
0.00183482
0.00182244
0.00326597
0.00326119
0.00308749
0.00508117
0.005004
0.00560365
0.00555737
0.00551029
0.00544654
0.0055066
0.00557923
0.00563918
0.00567917
0.00567177
0.00561435
0.00814421
0.00552284
0.00481879
0.00278931
0.00268732
0.00189794
0.00166599
0.00196333
0.0021012
0.0022795
0.00222978
0.00234675
0.00234232
0.00248553
0.00230552
0.00204576
0.00313123
0.00334565
0.00326766
0.0033321
0.00325229
0.00323206
0.00320882
0.00316449
0.00310997
0.0018527
0.00181801
0.00213082
0.00223825
0.00240576
0.00242627
0.00247917
0.00234955
0.0020649
0.00199848
0.00230315
0.00227156
0.00231735
0.00218351
0.00217317
0.00193501
0.00198488
0.00401637
0.00757688
0.00380951
0.00424953
0.00384952
0.00440115
0.00383509
0.00329641
0.00336764
0.002963
0.00308971
0.00323983
0.00329831
0.00346684
0.00408744
0.00392557
0.00344484
0.00334572
0.00328192
0.00309885
0.00278918
0.00291287
0.00293135
0.00299152
0.0033268
0.00382262
0.00427306
0.00523318
0.00506601
0.00441815
0.00404357
0.00422655
0.00431563
0.00546051
0.00507531
0.00506508
0.00538934
0.00537834
0.00509664
0.00480375
0.00462276
0.00395676
0.00403274
0.00462352
0.00446047
0.00458703
0.00449202
0.00468388
0.00475279
0.00454657
0.00421158
0.00447777
0.0044841
0.00496673
0.00480825
0.00445131
0.00404853
0.00435314
0.00435372
0.0050096
0.00468651
0.00438781
0.00402149
0.00390714
0.00443838
0.00433682
0.00490071
0.00506847
0.00508438
0.00444918
0.00432131
0.00512277
0.00493057
0.00479957
0.00500023
0.00416334
0.00422811
0.00521355
0.00531775
0.0050699
0.00426827
0.00427822
0.00365013
0.00428586
0.00535798
0.00506122
0.00415045
0.0034926
0.00483675
0.00507845
0.00538699
0.00508683
0.00553773
0.00599503
0.00486246
0.00531069
0.00699284
0.00523418
0.00607665
0.00620529
0.00622836
0.00621107
0.00620767
0.00620404
0.00648808
0.00622575
0.00406109
0.0048225
0.00480642
0.00404989
0.00346452
0.00380904
0.00410247
0.00416638
0.00427718
0.00444134
0.00435321
0.00412537
0.00599375
0.00686931
0.00700896
0.00715529
0.00703043
0.0068557
0.00648874
0.00609182
0.00511684
0.00383111
0.00241221
0.0024632
0.00262744
0.00260759
0.00226615
0.0017048
0.00113205
0.00168483
0.0017748
0.00169638
0.0015704
0.0014239
0.00152495
0.00270675
0.00434595
0.00490315
0.00493672
0.00482272
0.00456762
0.00536557
0.00781818
0.00873856
0.00922098
0.00945425
0.00948479
0.00921335
0.00821356
0.00787974
0.00745119
0.0071165
0.00676305
0.00647464
0.00727374
0.00797812
0.00840784
0.00887894
0.00906556
0.00895167
0.00786027
0.00775502
0.0088792
0.0108581
0.00913971
0.0114906
0.0137024
0.0107191
0.00963899
0.009584
0.0105029
0.0107232
0.010387
0.00980242
0.0091077
0.00822002
0.00857462
0.00889896
0.00921024
0.00945878
0.01052
0.010788
0.0107145
0.0104476
0.00992559
0.00904125
0.0067562
0.00476822
0.00495815
0.00517938
0.00517916
0.00458767
0.00258183
0.00287302
0.00287224
0.00290102
0.00283596
0.00133891
0.00148705
0.00152152
0.00156354
0.0014738
0.00170905
0.0024345
0.00386135
0.00296497
0.00262504
0.00153537
0.00172846
0.00289983
0.00477474
0.00529089
0.00533349
0.00527389
0.00514417
0.00504796
0.0064165
0.00786482
0.00843526
0.00867609
0.00844765
0.00793935
0.00704349
0.00687303
0.00656372
0.006363
0.00635018
0.00617002
0.0057842
0.00445265
0.00436841
0.00455234
0.00446789
0.00425547
0.00454615
0.0047107
0.00470674
0.00475882
0.00480579
0.00495021
0.00512044
0.00526946
0.00534966
0.00538186
0.00539438
0.0054084
0.00541936
0.00543746
0.00542029
0.00530332
0.00465993
0.00292268
0.00171029
0.00158022
0.00173179
0.00183098
0.00187306
0.00166587
0.00107368
0.00166553
0.00215577
0.00220724
0.00242044
0.00249288
0.00263503
0.00292178
0.00336869
0.00347226
0.00308788
0.00293355
0.00287802
0.00280348
0.00244059
0.00304454
0.00330212
0.00329265
0.00325055
0.00350431
0.00430214
0.00414096
0.003661
0.00363532
0.00360234
0.00331597
0.00327701
0.0035114
0.00354513
0.0036562
0.00427422
0.00510787
0.00474841
0.00433709
0.00419
0.00387975
0.0034828
0.00315284
0.00372536
0.00315197
0.00186877
0.00178404
0.00153452
0.00149046
0.00145756
0.00173126
0.00182626
0.00190212
0.00179144
0.00196139
0.0021478
0.00203952
0.00224777
0.00223071
0.00204312
0.00194712
0.00201437
0.00208277
0.00222882
0.00232917
0.00386853
0.00411916
0.00321181
0.00451278
0.00495055
0.00465177
0.00502353
0.00426547
0.00394312
0.00464304
0.00519189
0.00569964
0.00463028
0.00446156
0.00446386
0.0021107
0.00111294
0.00156962
0.00196128
0.00222621
0.00217508
0.00204997
0.00173458
0.00307704
0.00312301
0.00487033
0.00544446
0.00550547
0.00547664
0.0054169
0.00532003
0.00555296
0.00645361
0.00731337
0.00775074
0.0075354
0.00664646
0.00583769
0.00600772
0.00593951
0.00591242
0.00596685
0.00512068
0.00457587
0.00490155
0.00478255
0.00494217
0.00501532
0.00506778
0.00512138
0.00521258
0.00532321
0.00542339
0.00549154
0.00553659
0.00557392
0.00561106
0.00564617
0.00568305
0.00569829
0.00563803
0.00509422
0.00307834
0.00184373
0.00168573
0.00179918
0.00211335
0.00222595
0.00239364
0.00212707
0.00111904
0.00131292
0.00228516
0.00252892
0.0023394
0.00218992
0.00214353
0.00179705
0.00323628
0.00318837
0.004973
0.00559868
0.00568812
0.00568473
0.00565339
0.00561509
0.00557277
0.00553794
0.00550996
0.00547939
0.00543493
0.00538074
0.00533255
0.00528316
0.0051969
0.0050731
0.00482003
0.00506344
0.00527207
0.00548458
0.00568843
0.00573511
0.0056225
0.0055154
0.0055012
0.00553283
0.00557165
0.00560994
0.0056436
0.00564971
0.00556848
0.0052355
0.00491311
0.00312614
0.00316538
0.00157174
0.0017487
0.00201553
0.00208077
0.00226334
0.00225136
0.00177437
0.00138799
0.00156329
0.00145533
0.00258968
0.00284383
0.00314226
0.00311056
0.001702
0.0017469
0.00181763
0.00205105
0.00191684
0.0018451
0.00440085
0.00426317
0.00450586
0.0054883
0.00473034
0.00327364
0.00355762
0.00495636
0.00523051
0.0031602
0.00240062
0.00263028
0.00331452
0.00489708
0.00495846
0.0047145
0.00468165
0.00340903
0.00421513
0.00510255
0.00495257
0.00383376
0.00263654
0.00199544
0.000987706
0.00187638
0.00160317
0.00391671
0.00433274
0.00428129
0.00465967
0.00496346
0.00501291
0.00485767
0.0043264
0.00441622
0.00445397
0.00506177
0.0050664
0.00431019
0.00363346
0.00296602
0.00298472
0.00303345
0.00335141
0.0041883
0.00395154
0.003471
0.00337501
0.00331111
0.0031212
0.00281993
0.00247969
0.00249578
0.00232277
0.00224799
0.00354007
0.0047066
0.00554691
0.00571126
0.00577663
0.00569817
0.00567016
0.00552215
0.00545393
0.00475467
0.00614315
0.00644332
0.00618601
0.00620623
0.00622076
0.00624491
0.00622531
0.00609716
0.0052511
0.00314157
0.0020541
0.00231829
0.00250296
0.00235203
0.00233734
0.0024893
0.00236055
0.00207302
0.00335694
0.00327866
0.0052336
0.0059157
0.00605611
0.00609035
0.00609273
0.00610147
0.00613581
0.00648632
0.0063472
0.00630961
0.00635407
0.00640876
0.00652664
0.00615479
0.006104
0.00608204
0.00607156
0.00603333
0.00589304
0.00521507
0.00505158
0.00573317
0.00590187
0.00596443
0.00600178
0.00605066
0.00612952
0.00637319
0.00653858
0.00655417
0.00652061
0.00650047
0.00634442
0.00611214
0.00604555
0.00601025
0.00598138
0.00592368
0.00575482
0.00506911
0.0032627
0.00334344
0.00199094
0.00200536
0.00231053
0.00242845
0.00238648
0.00221095
0.00215635
0.00368458
0.0041862
0.00446329
0.00477842
0.00456414
0.00453985
0.0051752
0.00501136
0.00444277
0.0046271
0.00418515
0.00399111
0.00382238
0.00383448
0.00206085
0.00222237
0.00231659
0.00227641
0.00217685
0.00194015
0.00177919
0.00324253
0.00321902
0.00317378
0.00189328
0.00185297
0.00218296
0.00212133
0.00194205
0.0016559
0.00181361
0.00279114
0.00311799
0.00482874
0.00499235
0.0053554
0.00573005
0.00588502
0.00595066
0.00598887
0.00602812
0.0060817
0.00614422
0.00615312
0.00612019
0.00612041
0.00615499
0.00614749
0.00608566
0.00602783
0.0059782
0.00593315
0.00586333
0.0057089
0.005337
0.00497483
0.00560822
0.00566065
0.00577147
0.00589279
0.00594866
0.0059726
0.00597775
0.00597414
0.00597043
0.00593566
0.00590869
0.0059344
0.00596103
0.00599077
0.00598858
0.00599303
0.00599681
0.00597627
0.00592123
0.00579644
0.00568226
0.00562802
0.00553758
0.00568438
0.00574704
0.0057606
0.00582005
0.00591018
0.00593237
0.00590827
0.00584661
0.00578422
0.00572923
0.00566652
0.00560807
0.00557321
0.00563084
0.00569575
0.00575696
0.00581986
0.00587234
0.00589401
0.00587318
0.0057892
0.0057349
0.00572529
0.00566779
0.00569839
0.00574307
0.00573861
0.00576789
0.00581704
0.00580217
0.00572548
0.00561128
0.00548698
0.00537555
0.00528393
0.00518065
0.00520849
0.00531569
0.00541191
0.00551982
0.00564806
0.00577565
0.00585278
0.00586341
0.00580616
0.00576937
0.00576715
0.00571601
0.00570956
0.00575599
0.00575562
0.00578272
0.00582835
0.00577364
0.00562143
0.0053962
0.00518909
0.00502116
0.00490178
0.00473761
0.00473393
0.00488303
0.00499045
0.00515397
0.00534495
0.00554838
0.00570384
0.00576696
0.00573483
0.00571889
0.00572923
0.00569138
0.00567524
0.00570523
0.00569089
0.00568868
0.00567472
0.00556313
0.00533673
0.00509767
0.00490455
0.00481135
0.00480202
0.0047031
0.00466823
0.00479022
0.0048289
0.00493494
0.00514742
0.00542443
0.00565007
0.0057494
0.00574658
0.00573399
0.00573486
0.00569374
0.00566964
0.00570563
0.00570716
0.00572455
0.00573625
0.00563109
0.00542096
0.00512217
0.00483047
0.00481018
0.00480593
0.00468387
0.00473642
0.00482908
0.0047657
0.00477397
0.00502155
0.00528924
0.00551661
0.00564266
0.00565265
0.00565737
0.0056738
0.00565196
0.00561437
0.00561641
0.00559582
0.00559168
0.00558365
0.00549116
0.00530485
0.00510258
0.00495547
0.00508002
0.0050546
0.00494861
0.00487984
0.00501454
0.00514983
0.00505941
0.00525787
0.00548156
0.00563503
0.00569734
0.00567442
0.00565139
0.00564943
0.00562986
0.00556877
0.00555221
0.00555845
0.00564328
0.00571204
0.00570147
0.00567379
0.00554939
0.00533113
0.00535321
0.00506552
0.00488793
0.0049722
0.00510537
0.00522909
0.00517463
0.00536668
0.00547972
0.00554463
0.00558426
0.00554982
0.00549932
0.00552007
0.00555965
0.00548963
0.00520063
0.00491703
0.0050924
0.0051148
0.005065
0.00497973
0.00486954
0.00466941
0.00509749
0.00538302
0.00536636
0.00526588
0.00532863
0.00521847
0.00481433
0.00506645
0.00515392
0.00520721
0.00522881
0.00517675
0.00496962
0.00523732
0.00548797
0.00543493
0.00491406
0.00320773
0.00325626
0.00327889
0.0032796
0.00322667
0.00321154
0.00315366
0.00312377
0.00304199
0.00295828
0.00288673
0.00307293
0.00324199
0.00346237
0.00346816
0.00355146
0.00337212
0.00318181
0.00295534
0.00233712
0.00296332
0.00352911
0.00378059
0.0040945
0.00417886
0.00487902
0.00512572
0.00524189
0.00512399
0.00412155
0.00349407
0.00279233
0.00181652
0.00113057
0.00132512
0.00137672
0.00143549
0.00171192
0.00327715
0.00164147
0.00230276
0.00179965
0.00312963
0.00156019
0.00101828
0.000675571
0.000854627
0.00100511
0.00100775
0.000967038
0.000809589
0.000635474
0.000650422
0.000604806
0.000643631
0.000582403
0.000672378
0.000643629
0.00117456
0.00152259
0.00163078
0.00164589
0.0013209
0.00147117
0.00122735
0.0014046
0.00124803
0.00135701
0.00129956
0.00158903
0.00174145
0.00166989
0.00167743
0.00146878
0.00102812
0.00119039
0.00093464
0.00112054
0.000856624
0.00110804
0.000949574
0.00123317
0.00127081
0.001267
0.00122001
0.000932219
0.00110491
0.000868117
0.00105182
0.000847182
0.000891486
0.000742461
0.00106924
0.00108829
0.00100321
0.00106642
0.00119719
0.00129127
0.00143994
0.00137167
0.00158024
0.00153895
0.00158097
0.00149562
0.00145254
0.00141919
0.00142149
0.00139819
0.00140657
0.00145297
0.00145776
0.00146623
0.00151555
0.00149514
0.00146244
0.00144409
0.00128565
0.00103635
0.00180659
0.00186472
0.00189142
0.0018879
0.00184236
0.00182485
0.00177269
0.00175504
0.00170901
0.00167568
0.00160956
0.00154735
0.00148176
0.0016628
0.000926624
0.00105044
0.00110788
0.00113682
0.00115947
0.00116796
0.00117733
0.0011701
0.0011561
0.00112579
0.00111416
0.00108238
0.00138498
0.00157043
0.00163684
0.00165235
0.00154733
0.00147087
0.00316445
0.00381368
0.00583802
0.00596684
0.00446121
0.00446132
0.00156635
0.001631
0.00112125
0.00157514
0.00162253
0.00160545
0.00151677
0.00109344
0.00164431
0.00114253
0.0015601
0.00115909
0.0014486
0.00115448
0.00162132
0.00205734
0.0019766
0.00179029
0.00120999
0.000981969
0.000965422
0.000834086
0.000913495
0.000774952
0.000976781
0.000866378
0.00154046
0.00196036
0.0020872
0.00210993
0.00165923
0.00227991
0.0017147
0.00246077
0.00193738
0.0023676
0.0018891
0.00219159
0.00270944
0.00272075
0.00265868
0.00214569
0.00173271
0.00194002
0.00172327
0.00197779
0.00284129
0.00186674
0.00279711
0.00116172
0.00158265
0.0016296
0.00160588
0.00151325
0.00102
0.00260218
0.00137418
0.0024789
0.00160605
0.00260248
0.0018543
0.0024232
0.00289344
0.00300566
0.0029778
0.00242379
0.00216368
0.00220115
0.00176839
0.00211933
0.00160631
0.00234786
0.00134588
0.00180941
0.00200782
0.00210059
0.00212037
0.00176443
0.00343508
0.00214928
0.00323318
0.00223509
0.00285245
0.00228057
0.00249976
0.00294519
0.00292997
0.00291028
0.00247107
0.00199934
0.00263571
0.00189114
0.054162
0.126884
0.0497426
0.127557
0.0581519
0.0822739
0.0811004
0.0813333
0.0816235
0.0612413
0.133569
0.158052
0.164964
0.166962
0.165708
0.267977
0.218469
0.328967
0.213912
0.125043
0.0537698
0.0747849
0.193893
0.320956
0.480243
0.608467
0.414209
0.428438
0.27335
0.269472
0.253421
0.204614
0.124669
0.0622195
0.010895
0.012017
0.0171509
0.022736
0.0181887
0.0113408
0.00220996
0.00228626
0.0023437
0.0023835
0.00238627
0.00235267
0.00241555
0.00233815
0.00222103
0.00250404
0.00271594
0.00246912
0.00251628
0.00293587
0.00259715
0.00303665
0.00335445
0.00359763
0.00376832
0.00398299
0.00421752
0.00446676
0.00453108
0.00420759
0.00361764
0.00300444
0.0026073
0.00249611
0.00235378
0.00206994
0.00189409
0.00179729
0.00172901
0.00168608
0.00171383
0.00185855
0.00196777
0.00200005
0.00193969
0.00190124
0.00186675
0.00165872
0.00193287
0.00265137
0.00270618
0.00463372
0.00534194
0.00544889
0.00545034
0.00489364
0.0031456
0.00315306
0.00317092
0.00323582
0.00324716
0.00324826
0.00324084
0.00321362
0.00319336
0.00315195
0.00313527
0.00308677
0.0030499
0.00296709
0.00297035
0.00299836
0.00302724
0.00300328
0.00303012
0.00296999
0.00298307
0.00361602
0.00509433
0.00560297
0.00591745
0.00567981
0.00749374
0.00585462
0.00483952
0.00492334
0.00485552
0.00551467
0.00544189
0.00533556
0.00546419
0.00497988
0.00307507
0.00306418
0.00306134
0.00317194
0.00321189
0.00325061
0.00326151
0.00328738
0.00330248
0.00331603
0.00331886
0.00330254
0.00328571
0.00320641
0.00318103
0.00317103
0.00174505
0.00190946
0.00198866
0.0019985
0.0020196
0.00200879
0.00197925
0.00195747
0.00193952
0.00192277
0.00191202
0.0018771
0.00180289
0.00165066
0.00181247
0.0031057
0.00308959
0.00510445
0.00570657
0.00572024
0.00584193
0.00575052
0.00555473
0.00573804
0.00563796
0.00558999
0.00500276
0.00309042
0.00313954
0.00184039
0.0018291
0.00212204
0.00206956
0.00217787
0.00220866
0.00219243
0.00220326
0.0022363
0.0022698
0.00235837
0.00236691
0.00234057
0.00233875
0.00218514
0.00187791
0.00190001
0.00225638
0.00239271
0.0022037
0.00215539
0.00214711
0.00207119
0.00203254
0.00199302
0.00203698
0.00221478
0.00224044
0.00219889
0.00211216
0.00204821
0.00179102
0.00172404
0.00307785
0.00313228
0.00514333
0.00535411
0.00514781
0.00528163
0.00561991
0.00643406
0.0052594
0.00467112
0.00543131
0.00614615
0.00458417
0.00394194
0.00233844
0.00176989
0.00226515
0.00197231
0.00204603
0.00212453
0.00186713
0.00200819
0.00184116
0.00166935
0.00165033
0.00164473
0.00168798
0.00170472
0.00173675
0.00174081
0.00180208
0.0017961
0.00179494
0.00181624
0.00183485
0.00203
0.00222376
0.001869
0.00157884
0.00152471
0.00143911
0.00137386
0.00141067
0.00136389
0.00135532
0.00132914
0.00130634
0.00124455
0.00130088
0.00138733
0.00163053
0.00156
0.00125531
0.00111693
0.000762056
0.000775328
0.000780549
0.000806108
0.000814921
0.000826188
0.000830067
0.000844704
0.000846943
0.000851571
0.000851076
0.000880313
0.000876514
0.000864504
0.000857996
0.000860851
0.000863671
0.000863073
0.00126525
0.00141236
0.00156311
0.00185832
0.00218536
0.00188729
0.00160121
0.00136328
0.000872428
0.000884386
0.000905247
0.00091443
0.000937169
0.000955466
0.000976584
0.000988327
0.000997201
0.00100481
0.00101365
0.00101432
0.00100999
0.000986448
0.000973293
0.000994412
0.00108819
0.00114345
0.00121272
0.00123942
0.00125633
0.0012666
0.00126118
0.00127593
0.0012615
0.00125967
0.00123971
0.00123153
0.00122412
0.00121419
0.00120126
0.00116849
0.00115758
0.00121714
0.0020736
0.00271945
0.00313156
0.003458
0.00322586
0.00264647
0.00274369
0.00485507
0.00461448
0.00269528
0.0025383
0.00236698
0.0021282
0.00177218
0.00150141
0.00193968
0.00229914
0.00261545
0.00287926
0.0030633
0.00324821
0.00345162
0.00384732
0.00392591
0.00360641
0.00299345
0.0026296
0.00252387
0.00245097
0.00230104
0.00213572
0.00216533
0.00217631
0.00210517
0.00200839
0.00196
0.00198256
0.00199067
0.00195758
0.00195229
0.00173879
0.00174251
0.00296865
0.00307841
0.0047282
0.00496974
0.00500526
0.00324084
0.00319178
0.00186382
0.00172962
0.0018878
0.00195906
0.00196242
0.00197139
0.00195529
0.00192324
0.00189697
0.00187082
0.00184711
0.00183133
0.0017995
0.00174286
0.001601
0.00175813
0.00199212
0.00207012
0.00208523
0.00208629
0.00211583
0.00215899
0.00219874
0.00228419
0.0023034
0.00229567
0.00230293
0.00215974
0.002229
0.00188703
0.00188828
0.00327509
0.00327587
0.00188125
0.00222241
0.00222807
0.00218606
0.00235209
0.00216091
0.00209915
0.00207984
0.00200401
0.00196272
0.00191164
0.00188009
0.00192798
0.00206092
0.00201741
0.00176293
0.00174697
0.00196071
0.00185991
0.00154453
0.00131915
0.00127739
0.0012173
0.00117861
0.00122865
0.00126422
0.00128392
0.00131001
0.00131753
0.00136701
0.00133263
0.00140318
0.00148756
0.001546
0.00183359
0.00199026
0.00179905
0.00177092
0.00174866
0.00174056
0.0017444
0.00168284
0.00167921
0.00164722
0.00163199
0.00159171
0.00157308
0.00154949
0.00155946
0.00158169
0.00174264
0.00468381
0.00599893
0.0063127
0.0108522
0.00424703
0.00440169
0.00894742
0.00345273
0.00537225
0.00587518
0.00606828
0.00629253
0.00574485
0.00738554
0.00497042
0.00547378
0.00604516
0.00582965
0.00187119
0.00172176
0.00143646
0.00119771
0.00108646
0.000728651
0.00107981
0.00121105
0.00130484
0.00135788
0.00139422
0.00143421
0.0014689
0.00149931
0.00151031
0.00147781
0.00143899
0.00134131
0.00130987
0.00136134
0.00141649
0.00126087
0.00119216
0.00120806
0.00123361
0.001247
0.00125368
0.0012689
0.0012759
0.00129876
0.00129062
0.00130238
0.00128558
0.00129944
0.00127812
0.00122779
0.00116886
0.00105997
0.00103085
0.00148521
0.00158664
0.00166887
0.00187902
0.00216591
0.00231622
0.00206745
0.00187719
0.00179981
0.00200324
0.00196712
0.00356192
0.00689723
0.00305396
0.00349887
0.010306
0.00398233
0.00314286
0.00320194
0.0032373
0.00323633
0.00188937
0.00224076
0.00216042
0.00215239
0.0018232
0.00152839
0.00137923
0.00123532
0.000835499
0.000832383
0.000838622
0.000849981
0.000853144
0.000821886
0.000821959
0.000818362
0.000816927
0.000802693
0.000798746
0.000787529
0.000781169
0.000764522
0.000755795
0.000737557
0.000732235
0.000704752
0.000699379
0.000695695
0.0010342
0.001138
0.00123665
0.00147697
0.00406606
0.00452054
0.00614841
0.00612527
0.00994645
0.00605172
0.00456786
0.00416873
0.00624134
0.00625447
0.00622304
0.00929562
0.00615443
0.00390471
0.00365451
0.00393006
0.00591508
0.00599264
0.00571975
0.00552897
0.00472626
0.00184995
0.00176401
0.00203267
0.00221601
0.00258358
0.00182356
0.00232626
0.0020077
0.00163814
0.00167098
0.0054044
0.00729817
0.00512152
0.00524717
0.0069608
0.003133
0.00315623
0.00292531
0.00244548
0.00224404
0.00216516
0.00237787
0.00281086
0.00782525
0.00715832
0.0039829
0.00558607
0.00555117
0.00746161
0.0075542
0.00856516
0.00784782
0.00753823
0.00493528
0.0032685
0.00358801
0.00393336
0.00430865
0.00577235
0.00603141
0.0128099
0.00419714
0.00472841
0.00475503
0.00650529
0.00613223
0.0113709
0.00444723
0.00486195
0.00649966
0.00835701
0.0166325
0.00546608
0.00595045
0.00873029
0.00876987
0.00799095
0.00582514
0.00539191
0.00597927
0.00444296
0.00434168
0.00369946
0.00563933
0.00792637
0.00587147
0.00571168
0.00504336
0.00396244
0.00457955
0.00454314
0.00365703
0.00362932
0.00445653
0.00297549
0.00258614
0.00333153
0.000862091
0.000453603
0.000463234
0.000472579
0.000480139
0.00048771
0.00049416
0.000500536
0.000504346
0.000503567
0.000504502
0.000530605
0.000527642
0.000510695
0.000464016
0.00052995
0.00084111
0.000842472
0.00052948
0.000467725
0.000836653
0.00133281
0.00156305
0.0018547
0.00188119
0.0016186
0.00140652
0.000864873
0.000852878
0.000518112
0.000604079
0.000656964
0.000582592
0.000648704
0.000601278
0.000639246
0.000641436
0.000595749
0.000593615
0.000597797
0.00059356
0.000585186
0.000573882
0.00055999
0.000547994
0.000537882
0.000523403
0.000494667
0.000437675
0.000397418
0.000435187
0.00045445
0.000511432
0.000544363
0.000576665
0.000597552
0.00061182
0.000620798
0.000621045
0.000630813
0.000650661
0.000654669
0.000658723
0.000706294
0.000691638
0.0007381
0.000689329
0.000736315
0.000693249
0.000636814
0.000535396
0.00055164
0.00088801
0.000896075
0.00145094
0.00166302
0.00189345
0.00190996
0.00214477
0.00226302
0.0019102
0.00198773
0.00228882
0.00212761
0.00189486
0.00189378
0.00170204
0.00169334
0.00149275
0.000929651
0.00091728
0.000577105
0.000560832
0.00066843
0.000656586
0.000731281
0.000780924
0.000784093
0.000782279
0.000753692
0.000746925
0.000660852
0.000649846
0.000651609
0.000630886
0.000620753
0.000620584
0.000603709
0.00059523
0.000606618
0.000573743
0.000538092
0.000509406
0.000480069
0.000417486
0.00037202
0.000692
0.000678279
0.000762903
0.00343702
0.000869657
0.00116569
0.000962089
0.000429556
0.000655768
0.000801715
0.00085846
0.000868027
0.000826114
0.000736579
0.000655016
0.000518088
0.00042342
0.000738364
0.00065551
0.000912304
0.000817988
0.00106541
0.00124307
0.00120765
0.00122158
0.00103652
0.000849835
0.000899215
0.00081609
0.000903177
0.00075173
0.000902401
0.000818467
0.00103136
0.00104216
0.00102174
0.000969918
0.000739761
0.000776854
0.000651159
0.00070576
0.000632217
0.000653439
0.000620684
0.000724269
0.000834983
0.000801407
0.000798481
0.000656127
0.000514237
0.00056674
0.000486912
0.000550528
0.000428242
0.000520509
0.000438829
0.000567253
0.000580568
0.000571384
0.00054142
0.000403791
0.000476641
0.000636698
0.000693055
0.000707616
0.000680574
0.000524085
0.000812999
0.000743922
0.000912843
0.000797781
0.000865504
0.000789776
0.000915659
0.00116934
0.00121768
0.00122528
0.000991358
0.000981014
0.00175936
0.0949515
0.00158301
0.00186856
0.00192285
0.00191352
0.00158192
0.00155632
0.00191395
0.0014303
0.00200932
0.00126426
0.00212356
0.000811315
0.00123211
0.00132229
0.00131844
0.00122538
0.000797474
0.00222239
0.137294
0.317938
0.334083
0.33273
0.319714
0.143767
0.496334
0.134305