/*--------------------------------*- C++ -*----------------------------------*\
| =========                 |                                                 |
| \\      /  F ield         | OpenFOAM: The Open Source CFD Toolbox           |
|  \\    /   O peration     | Version:  v2012                                 |
|   \\  /    A nd           | Website:  www.openfoam.com                      |
|    \\/     M anipulation  |                                                 |
\*---------------------------------------------------------------------------*/
FoamFile
{
    version     2.0;
    format      ascii;
    class       surfaceScalarField;
    location    "45";
    object      phi;
}
// * * * * * * * * * * * * * * * * * * * * * * * * * * * * * * * * * * * * * //

dimensions      [1 0 -1 0 0 0 0];
oriented        oriented;


internalField   nonuniform List<scalar> 
50655
(
0.00242901
-0.00542194
1.16706e-05
-0.00480556
-0.0025717
0.00776392
-0.00583913
-0.000329451
0.00963731
-0.00112621
-0.000187205
-0.00152901
-0.00420177
-0.00205219
0.00451521
-0.00271303
-0.00280937
0.0036274
-0.00291733
-0.00234035
0.00459995
-0.00513958
-0.00848037
0.00605245
-0.0125968
0.00624311
-0.00222542
-0.014069
-0.00576528
0.00712736
-0.014575
-0.00646075
0.00686434
-0.0153173
-0.00689441
0.00753257
-0.0303276
-0.0107366
0.0255529
-0.0541331
-0.0314913
0.0547365
-0.0522837
-0.0565887
0.054042
-0.0324691
-0.0735088
0.0529161
-0.00532081
-0.0767537
0.0488222
0.00510492
-0.0505145
0.0392772
-0.00503954
-0.0312347
0.040606
-0.0196167
-0.0271837
0.0409937
-0.0118992
-0.0548046
0.0463642
-0.00279214
-0.0523461
0.0426811
-0.0350471
0.0319258
-0.0334152
0.0191655
-0.0210988
-0.00750786
-0.0755351
0.0491328
0.0236999
-0.0758133
0.0441089
0.0313268
-0.0265937
0.0186596
0.0328609
-0.0018716
0.0362441
0.0203016
-0.0240075
0.0250541
-0.0212587
0.0321727
0.0156961
-0.0111824
0.0203712
0.00165763
-0.0018051
0.0157165
-0.00730254
0.00393412
0.00493074
-0.00546993
-0.00200608
0.00013276
-0.00542488
-0.00188905
0.00182561
-0.00646127
0.000843622
0.000175477
-0.00786062
0.000806086
0.000576653
-0.00910803
0.000647021
0.000583251
-0.0095225
0.000279539
0.000118555
-0.00978252
-0.000146682
0.000390112
-0.00927011
-0.000574837
4.61291e-05
-0.00860392
-0.00104491
0.000362038
-0.0073179
-0.00150653
0.000204072
-0.00591137
-0.00196097
0.000537572
-0.0040007
-0.00227111
0.000344254
-0.0021306
-0.00244526
0.0005582
0.000247046
-0.00239525
-0.000511819
-0.00266784
0.00340106
0.000922057
0.00623185
-0.0077075
0.000115912
0.00564043
-0.0048908
-0.00725771
0.00607071
0.00123586
-0.00882379
0.00563907
-0.00413997
-0.00264556
0.00466605
-0.0109007
0.00116525
0.00589737
-0.00974991
0.00066212
0.00355518
-0.0030777
-0.00143689
0.00208141
-0.00257099
0.00216309
-0.00104613
-0.00388654
0.0022201
-0.000920702
-0.00506172
0.00239116
-0.00123237
-0.00627097
0.00236284
-0.00116855
-0.00772095
0.0025355
-0.00109955
-0.00925481
0.00261889
-0.00109843
-0.0105479
0.00243539
-0.00115549
-0.0114825
0.00210938
-0.00118775
-0.0120134
0.00173724
-0.00121937
-0.012397
0.00158406
-0.00121375
-0.0130516
0.00171977
-0.00107938
-0.0133139
0.00129659
-0.00104942
-0.0130701
0.00106878
-0.001328
-0.0131035
0.000955283
-0.000937487
-0.0128535
0.00100509
-0.00127117
-0.012624
0.00108549
-0.00133099
-0.0124892
0.00103906
-0.00118964
-0.0122281
0.000792596
-0.00106923
-0.011708
0.000367018
-0.00090259
-0.0108646
-0.000148363
-0.00071025
-0.00981416
-0.000561092
-0.000504721
-0.00855168
-0.000655467
-0.000621778
-0.00714795
-0.000421618
-0.000995961
-0.0074086
-0.000428635
0.000677277
-0.016158
0.00127235
0.00745048
-0.0206226
0.00157355
0.00283047
-0.021824
0.00206013
-0.000923915
-0.0405193
0.017154
0.00142372
-0.051926
0.00955508
0.00155323
-0.0285388
-0.0108672
-0.0128275
-0.0124947
-0.0126821
-0.00349419
-0.0103566
-0.00292199
0.000705829
-0.00884823
-0.00178487
0.000186411
-0.0068432
-0.00197011
-0.000136443
-0.00388011
-0.00200924
-0.00104914
-0.00213503
-0.0018304
-0.00260739
0.00335538
-0.00297793
-0.000135387
0.00586883
-0.00845448
0.00447399
0.00535978
-0.0101014
0.0104039
0.00538893
-0.0114636
0.0207815
0.00749149
-0.0180502
0.0259425
0.012325
-0.0177686
-0.00141994
0.0156713
0.0114095
-0.0125851
-0.00715193
0.0181323
-0.0140296
-0.00925635
0.0105535
-0.013637
-0.0092275
0.00869997
-0.0111874
-0.00909264
0.00652668
-0.00856692
0.00333446
0.0105187
-0.000830805
-0.0121092
0.0127755
-0.0127407
0.00127746
0.0128035
-0.0125062
0.00312492
0.00999602
-0.0109638
0.00438208
0.002991
-0.00629046
0.00600669
-0.0293526
0.0220594
-0.0032957
0.0286697
-0.0164569
0.0342195
-0.0138505
-0.0215173
-0.00854055
0.00846786
-0.0090272
-0.00408935
0.008255
-0.00744734
0.000186297
0.00827745
-0.00731577
0.00288803
0.00823681
-0.00517966
0.00571608
-0.00157574
0.00994252
-0.00254179
-0.00377196
0.0111022
0.000210021
-0.00325705
0.00882309
-0.000673483
-0.00143242
-0.00247697
-0.0196392
0.00113744
0.0284153
-0.0115205
-0.0130749
0.00153106
-0.00803122
0.0007661
-0.00829255
0.0147356
0.00566551
-0.0115216
0.0205785
0.00543492
-0.009903
0.0295656
0.00601149
-0.0140379
0.0798212
0.00530316
-0.0386865
0.0446503
-0.00493594
0.0445668
0.0044258
0.00427453
0.000108322
0.0373699
0.00272727
0.0201394
0.00124247
0.0228005
-0.000628064
0.0108348
0.0138783
0.00503053
-0.00546844
0.000483173
0.00660221
0.00500673
-0.000687054
0.00713032
0.00790095
-0.000871582
0.00693182
-0.0144763
0.00771094
-0.00103127
0.0071839
-0.0152643
0.00822025
-0.000472436
0.00729911
-0.0161381
0.00825963
-0.000287155
0.00728502
-0.0159391
0.00844797
-0.000121928
0.00681507
-0.0152476
0.00824675
5.71008e-05
0.00655124
-0.0148915
0.00814121
0.000559103
0.00557604
-0.0137457
0.0076491
0.00447849
0.00403919
-0.0150815
0.00710839
0.00166164
-0.00498716
0.00439889
0.0033908
0.000977
0.00470749
9.35006e-06
0.000506643
0.0063997
-0.000364064
0.000438301
0.0074875
-0.000880211
0.000398166
0.0078208
-0.00097858
0.00069588
0.00823202
-0.00125797
0.000912218
0.00842581
-0.00135632
0.00097175
0.00847297
-0.00136158
0.000798886
0.00849123
-0.00139886
0.000596904
0.00855662
-0.00123621
0.00707429
-0.000314203
0.0090781
-0.00149207
-0.00094734
0.0106953
-0.00131932
-0.000968747
0.0119097
-0.00101661
-0.000774747
0.0126634
0.000114942
-0.00103277
0.0130587
0.00121072
-0.0012547
0.0132276
0.00200079
-0.00139296
0.0132315
0.00247083
-0.00145188
0.0132876
0.00246419
-0.00145138
0.0132331
0.00204345
-0.00100038
0.0132088
0.00157602
-0.000612457
0.0133407
0.00147484
-0.000553581
0.0126829
0.00141772
0.000521428
0.0117796
0.00246569
0.000391677
-0.000248415
0.0119169
-0.000388272
0.00246546
-0.00064376
0.0114968
-0.000219922
0.00279152
-0.000427521
0.0105859
-6.27903e-05
0.00305651
1.34162e-05
0.00932243
4.7527e-05
0.000452614
0.00318547
0.00776289
0.00085272
0.0032061
0.000106088
0.00610505
0.00115541
0.00294727
7.68275e-05
0.00514355
0.0010868
0.00222341
-8.25634e-07
0.00381908
0.00464504
-0.000945806
0.00250542
0.00428436
-0.000766817
0.00136075
-0.000758191
0.00404953
0.00381687
-0.000391636
0.00549147
-0.000539673
-0.00115108
0.00666681
-0.000387013
-0.000805185
0.00767008
-0.000622464
-0.000397302
0.00808863
-0.000461686
2.64205e-05
0.00827911
-0.00065079
0.000443833
0.00773932
-0.000295484
0.000818674
0.00700255
-0.00041715
0.00113735
0.00552093
8.00562e-05
0.00138447
0.00356988
0.000396018
0.0015379
-8.1533e-06
0.00193011
0.00162996
-0.00337035
0.00145758
0.00188661
-0.00513576
-0.000432489
0.00217862
-0.00649714
0.000722018
0.000617418
-0.0124981
0.000535653
0.00542039
-0.022828
-0.00673508
0.0169492
-0.0290249
-0.0157065
0.0217381
-0.0381416
-0.0248351
0.0336852
-0.0288901
0.0223638
0.0152951
-0.0367506
0.011495
0.0247872
-0.0172666
0.00770585
-0.00509381
0.00499197
-0.0317254
0.0241693
0.00241352
-0.013624
-0.02495
0.00681334
-0.0384331
0.00749617
0.0402196
-0.0553515
-0.0007918
0.0275079
-0.0504724
0.0144167
0.011507
-0.0107417
0.0172938
-0.0108981
0.0101296
-0.00216628
0.0171126
0.00852882
0.00903705
-0.0128114
0.014036
0.00347849
-0.00586867
0.000725789
0.0111122
0.00321203
0.000977016
0.00160436
0.00116495
-0.00166362
0.00237359
0.00233039
-0.00535369
0.00324098
0.00235767
-0.00575142
-0.00185739
0.00263017
-0.00968042
0.00135892
0.00262965
-0.00824106
-0.00407472
0.00219812
-0.0117568
0.00162033
0.00158001
-0.00875904
-0.00449495
0.000826639
-0.010975
0.00179816
-6.36448e-05
-0.00712733
-0.0034967
-0.000993107
-0.00799962
0.00195254
-0.00148744
-0.00431779
-0.00211984
-0.00212091
0.000979713
-0.00215303
0.00176819
0.0117895
-0.00885988
0.00789267
0.00696408
-0.00847501
0.00719705
0.0098379
-0.00357296
-0.000199998
0.0117598
0.00163812
-0.00101948
0.00992857
-0.00352114
0.0126316
-0.0069589
-0.00186545
0.00134581
0.0175831
-0.000343971
-0.00436327
-0.00312258
0.00280291
0.0185023
-0.00314034
-0.00287195
0.0041343
0.000885519
0.0144326
-0.00514127
-0.00253875
0.00421073
0.00746483
0.00646182
-0.00550493
-0.00204173
0.00193441
0.013498
0.000495074
-0.00390534
0.00919527
-0.00144124
-0.00704791
0.0128104
-0.00144145
-0.01206
0.0134404
-0.0103449
-0.016478
-0.0157284
0.0088539
0.00665937
-0.0271194
0.00393354
-0.0207646
0.00611061
-0.0177102
-0.012257
0.00913348
0.00971056
0.00946365
-0.036931
-0.025198
0.00775392
0.0127582
0.00898734
-0.0104596
-0.0365725
-0.00984442
0.00889755
-0.002081
0.000295519
0.00894191
-0.00731685
-0.0118282
0.0104872
-0.00777479
-0.0133782
0.0108697
0.00970577
-0.000804281
-0.00936946
0.00962956
-0.00151085
0.00642519
-0.00763778
0.00490209
0.00150898
-0.000242562
-0.00265953
0.00774688
-0.00662058
0.0143833
-0.0123499
-0.00544109
0.0105944
-0.0166989
-0.00409634
0.00591761
-0.0165547
-0.00258167
-0.000332825
-7.65156e-05
-0.00630818
0.00482302
0.0104716
-0.00847594
0.00624557
0.0123566
-0.00402149
0.00279461
0.0134554
0.00167516
0.0123664
-5.60359e-05
-0.00466132
0.0129955
0.00082144
-0.00558988
0.0139736
0.000326792
-0.0022678
0.013129
-0.00417809
0.0111701
-0.00561879
-0.000412337
0.00789928
-0.000485906
0.0049721
0.00984904
-0.00219178
0.00671384
0.0106522
0.00149251
0.0093007
0.0051957
-0.00728822
0.00874844
0.00226402
-0.00580319
0.00400942
0.00506931
0.000754241
0.000630288
0.00257181
0.00289485
-0.0123362
-0.00564495
-0.00475727
0.0201691
0.00529828
-0.0235824
0.0178024
-0.00305742
-0.00414476
-0.0183435
-0.0133361
0.00259261
-0.000270716
-0.0101973
-0.0110523
-0.00779328
0.00209429
-0.00495809
-0.0052721
-0.000750937
0.000770413
0.000370025
-0.00222024
-0.00311033
-0.00101205
0.00325842
-0.00187793
-0.000365222
0.0010744
-0.00172261
0.000141277
-0.00272892
0.0050609
0.000412417
-0.0106162
0.00118721
-0.00286344
0.00597161
-0.00326981
-0.00465509
-0.0132669
0.00854479
-0.0109225
-0.0147068
-0.013049
0.00967136
0.00472541
-0.0231562
-0.0175002
0.00373915
0.00998603
0.0121133
-0.0322609
-0.0184605
0.0140202
0.00284067
0.0106019
-0.0392124
-0.0165575
0.010962
0.0010165
0.0114272
-0.0410915
-0.012817
0.00464189
-0.000616804
0.0105666
-0.0412767
-0.00837169
0.000126314
-0.000930409
0.00925109
-0.0377806
-0.00547839
-0.00336045
0.00524869
-0.0334359
-0.00348428
-0.00594519
0.00710442
-0.00212775
-0.0309568
-0.00125395
-0.00513266
0.00625693
-0.00245141
-0.0279452
-0.000402347
0.00529325
-0.00273439
-0.00527087
-0.0279617
-0.00135891
0.00500289
-0.00201514
-0.00172441
-0.028713
-0.00329148
0.0043347
-0.00039903
-0.0266961
-0.00508261
0.00404077
-0.00108869
-0.0211344
-0.00599298
0.0032867
-0.00295178
-0.0275835
0.00341067
0.0214621
-0.0184992
-0.0556596
0.028822
-0.0167761
0.0151287
0.00195775
-0.0181494
-0.0056358
-0.0160264
-0.0244819
-0.00470054
-0.0118217
-0.00222737
-0.00767651
-0.0105661
-0.00151238
0.000893524
-0.00891261
-0.00322204
0.00165837
-0.00534877
-0.00609153
0.00228092
-0.00254706
-0.00534994
0.00140066
-0.00474973
0.000302576
-0.0045605
0.000414202
-0.000650689
-0.0071177
0.00191631
0.000577678
-0.0111103
0.00204693
0.00186606
-0.0133944
0.000665123
0.00154036
-0.0135779
-0.000484713
0.000598347
-0.0132105
-0.00184843
0.00142708
-0.0238201
0.00137538
0.00915937
-0.0570126
0.0175498
0.015436
-0.100629
0.00837984
0.034663
-0.116374
-0.00631748
0.0213694
-0.124889
-0.0118603
0.0195996
-0.130493
-0.0165615
0.0213304
-0.133395
-0.0221086
0.0241259
-0.134197
-0.0270382
0.0269293
-0.133796
-0.0305547
0.0292297
-0.132837
-0.0328857
0.0310007
-0.131319
-0.0344456
0.0320109
-0.129146
-0.0354361
0.032362
-0.125355
-0.0362097
0.0315464
-0.117624
0.0291128
-0.037678
-0.0991883
0.0225033
-0.0416984
-0.0513436
0.00585931
-0.0543229
-0.0219076
-9.64005e-05
-0.0295586
-0.0120524
-0.00384064
-0.00609186
-0.0117787
0.00219333
-0.00252221
-0.0108978
0.00461877
-0.00557045
-0.00851138
0.00417653
-0.00664341
-0.00398425
0.00440386
-0.00901539
-0.00467143
0.00389209
-0.00327617
-0.00798297
0.000215866
0.00304484
-0.0077077
0.00276697
-0.00311345
-0.00928622
0.00149068
-0.0142127
0.00683405
-0.00200618
-0.0169289
0.00704059
-0.00443438
-0.0190957
0.00762461
-0.00556046
-0.023861
0.00701888
-0.00235837
-0.0531777
0.0187887
0.0103315
-0.0967953
-0.00906889
0.0521126
-0.10901
-0.0326961
0.0441896
-0.110051
-0.0428665
0.0430971
-0.105371
-0.0487058
0.0432027
-0.0970826
-0.0531289
0.0439837
-0.0853558
-0.0552105
0.0426588
-0.069856
-0.0564202
0.0401003
-0.0517202
-0.057186
0.0382839
-0.0266042
-0.0479288
0.0221759
-0.0366378
0.00959478
-0.0529825
0.0278932
-0.0120158
-0.0600638
0.0313454
-0.024767
-0.0610441
0.0325234
-0.0320696
-0.053007
0.0320209
-0.0405845
-0.0436552
0.0286922
-0.0385469
-0.0260866
0.0185878
-0.0366238
0.00744402
-0.0339695
0.0243311
0.0416233
-0.0591473
0.0463139
0.0539427
-0.0766916
0.0692232
0.0541304
-0.0778598
0.0892181
0.0536134
-0.074433
0.104208
0.0499599
-0.0658067
0.111789
0.0417621
-0.0501657
0.109833
0.0341888
-0.0330434
0.0955353
0.0303816
-0.016804
0.0517822
0.0390354
0.00414416
0.0242921
0.0241778
0.00311596
0.0204398
0.00408928
-0.000341754
0.0186776
0.000620587
0.00103904
0.0151738
0.000260433
0.00313345
0.00865337
-0.000264567
0.00668642
-0.00103561
0.00960117
-0.00107375
-0.00947881
0.00942117
0.00052974
-0.012744
0.0110315
0.00221487
-0.0138003
0.011992
0.00355586
-0.0131244
0.0116478
0.00354675
-0.0184778
0.018309
0.00655657
-0.0273432
0.0240482
0.00249562
0.0225791
-0.0188019
-0.00131129
0.0159398
-0.0123121
-0.00141797
0.00801211
-0.00804113
-0.00157479
0.00746818
-0.00743459
-0.00185319
0.00714799
-0.00697862
0.00620058
-0.00665891
0.00410388
0.00536903
-0.000567916
0.00407238
0.00603117
0.00107624
0.00418906
0.00573428
0.00153945
0.0046598
0.00463144
0.00283167
0.0107713
0.0108711
-0.00114843
0.0186787
-0.00798549
3.2535e-05
0.00962845
-0.00378574
0.0127953
-0.0212905
-0.0107755
0.0416246
-0.0153884
-0.00553514
-0.000445565
-0.000851398
0.00330166
0.00485752
-0.00902631
0.00589344
-0.00257
0.00388064
-0.00178786
-0.00773181
0.000808395
-0.00843401
-0.0100265
-0.0122325
0.0172462
-0.00354685
-0.0296013
0.00302346
0.00345128
0.00399363
-0.0166786
-0.0475401
0.00575989
0.00946143
0.00100782
-0.0558126
-0.0150366
0.0252262
-0.00390244
-0.0197096
0.00600443
-0.0029825
-0.0196575
0.00548061
-0.00209559
-0.0200172
0.00520531
-0.000796778
-0.0184991
0.00434378
-0.0146117
0.00397478
-0.0204551
0.00213177
0.00384718
-0.0211216
-0.00124915
0.00242205
-0.0171428
7.2596e-05
0.00550173
0.00146835
-0.0444486
0.034139
0.00829981
0.00729522
-0.108963
0.0350737
0.0493372
0.0182476
-0.117836
0.047934
-0.00953402
-0.118285
0.0564224
-0.0226521
-0.110895
0.0670364
-0.0335402
-0.0964387
0.0767526
-0.0421318
-0.0776852
0.0815068
-0.0475148
-0.0578204
0.0797961
-0.0463699
-0.0373274
0.0793628
-0.0467272
0.0541067
-0.0317907
0.0617018
0.0483663
-0.0278769
0.0704466
0.0556326
-0.0329816
0.0704497
0.0569119
-0.0250167
0.0642672
0.054727
-0.0178068
0.0470974
-0.00343353
-0.0900939
0.0724995
0.0066914
-0.10057
0.0761005
-0.0118061
-0.102356
0.0801537
-0.0223985
-0.0923504
0.0786043
-0.0339199
0.0697598
-0.0352901
0.0925204
0.0888724
-0.0327279
0.100745
0.0973517
-0.0279019
0.0970572
0.0981546
-0.0152424
0.0837207
0.0940733
-0.00552746
0.0890054
0.00995496
-0.0833102
0.100776
0.0154614
-0.0973021
0.106831
0.000312878
-0.101801
0.111053
-0.0093608
-0.0949008
0.110638
-0.0211476
0.104542
-0.0299852
0.0907569
0.116567
-0.0269653
0.0978596
0.120884
-0.0183265
0.0939528
0.120306
-0.00632283
0.0803062
0.115525
0.00401599
0.108629
0.0184417
-0.0743342
0.112981
0.0203991
-0.0868044
0.120287
0.00677011
-0.089387
0.125534
-0.00362476
-0.0816084
0.126791
-0.014665
0.123462
-0.0224042
0.0701974
0.124545
-0.0157954
0.0781544
0.127521
-0.00966441
0.0770492
0.124987
0.000674651
0.0658136
0.119845
0.0107406
0.112084
0.0229773
-0.0541282
0.103068
0.029593
-0.0661292
0.112015
0.018888
-0.0655766
0.114585
0.00888539
-0.0574191
0.11918
-0.00077962
0.119768
-0.00565157
0.0360222
0.0165483
0.0588336
0.0424988
0.0522461
0.0904426
0.0116382
0.0553557
0.088744
0.0218563
0.0367498
0.046907
0.0433361
0.0394384
0.0437774
0.0354657
0.0506136
-0.0125663
0.0263431
0.0151388
0.0146455
-0.0190539
0.0269779
0.0147738
-0.0154821
0.0300603
0.0130715
-0.0140101
0.027909
0.013746
-0.0399383
0.0271113
0.039108
-0.0011961
0.0229893
-0.0280139
-0.00824647
0.0370392
0.00540478
-0.0355937
-0.00673284
0.0289058
0.0050663
-0.0356623
-0.00457454
0.0280784
-0.035161
0.00475432
0.0250298
0.0031236
0.00364803
0.00486034
0.00470207
0.0068364
0.00656467
0.0072065
0.00866763
0.00816601
0.00785389
-0.00361421
-0.0186903
0.0148142
0.00251915
-0.000711445
0.000414197
0.00591393
0.00275074
0.00023384
-0.000469468
0.000254782
0.00390888
-0.00141779
-0.00233277
-0.00122441
0.00380779
-0.00166783
-0.000434745
0.00121738
0.0101351
0.0114148
0.0294208
-0.0493795
0.00534029
0.0160688
-0.00371364
-0.00655948
0.0532583
0.000864907
-0.0145746
0.00246468
0.00386199
-0.00616188
0.00481815
0.0035852
-0.00595338
-0.0213998
0.00884317
0.0173345
-0.00944993
-0.0117023
-0.000291172
0.0169121
-0.0023677
0.0235383
-0.00714815
0.0441027
-0.0117909
0.022949
0.0721337
-0.0306406
-0.0276718
0.00637647
0.00769079
0.0281723
0.00358223
-0.0166557
0.00857827
0.0128682
-0.00373183
-0.0101163
0.00895334
0.0138758
-0.00364244
-0.010715
0.00796694
0.0131239
-0.00186664
-0.0103774
0.00621581
0.011424
-0.00945488
-0.00031669
0.00356204
0.00927625
-0.00786802
0.00115819
0.00750327
-0.0069754
0.0029537
0.00710991
-0.00314698
0.00346961
0.00663866
-0.0026699
0.00308605
0.012594
-0.00727906
0.00124651
0.0327114
-0.0148493
-0.00548708
0.0599001
-0.0368873
0.00907983
0.0660165
-0.0265782
0.0197022
0.0635621
-0.0216995
0.0233199
0.0550571
-0.0164132
0.0240454
0.0396156
-0.00850285
0.0230413
0.0123633
0.00676629
0.0195674
-0.0195232
0.0357201
-0.00476167
-0.0384812
0.0494658
-0.0314359
-0.0423101
0.0541397
-0.051229
-0.0342995
0.0550334
-0.0639466
-0.0149466
0.0496023
-0.0698272
0.0107247
0.0375426
-0.0640471
0.0248528
0.0262516
-0.0411382
0.0190072
0.039952
-0.0347239
0.00619053
0.0178216
-0.00522326
0.00323355
0.00701403
-0.00413404
0.00387959
0.00315793
-0.00385858
0.00329653
0.00507494
-0.00456143
0.00540978
-0.00372008
-0.0027716
0.00951227
-0.00174545
-0.00399379
0.00919553
-0.00297386
0.000334046
-0.00119148
0.00883965
-0.00152023
-0.0046043
0.0103741
0.00324124
-0.00028421
-0.00329073
0.0118001
0.00453659
-0.00209232
0.0301805
0.00680934
0.000783591
0.00141501
0.00919439
0.0126443
0.00554478
0.0328775
-0.000383946
0.0081427
0.0528035
-0.00673445
0.00779591
0.058848
-0.0044203
-0.00390428
0.0556644
0.00921023
-0.0272461
0.0434872
0.0283479
-0.0499837
0.0234418
0.0340427
-0.0688083
-0.00392989
0.0285543
-0.0792762
-0.020649
0.0216599
-0.0838991
-0.0308877
0.01816
-0.0835566
-0.0379536
0.0149899
-0.0773869
-0.0438314
0.0101749
-0.0277654
-0.0368395
-0.0453962
-0.00525665
-0.0161592
-0.0104031
-0.0162242
0.00301739
-0.013615
-0.00728753
0.00161268
-0.00467904
0.000388485
-0.00823554
0.000864859
-0.00416839
0.00198562
-0.00789991
0.00143609
-0.00925396
0.0142911
8.07185e-05
-0.00852077
0.0145971
-0.00155489
-0.00680309
0.0130509
-0.00198187
-0.00459023
0.0187943
0.00702393
0.0224894
0.100181
-0.0505822
-0.00567176
0.00450577
0.0299991
0.00667347
0.00795727
0.00970839
-0.000161066
0.00863977
0.0130362
0.000799673
0.0135787
0.00197454
-0.0165433
-0.0172653
-0.0129477
0.0274996
-0.0181911
0.0429786
-0.016323
-0.0540556
0.0971994
-0.0191691
-0.0565671
0.113113
-0.0115857
-0.0983195
-0.0492133
0.118176
-0.028375
-0.0711514
-0.0308446
-0.0207191
-0.0273137
-0.0171249
-0.00662129
-0.0373779
0.0161852
-0.00402108
-0.0234807
-0.00599488
0.0262177
-0.00711479
-0.00969842
0.015106
-0.00926915
-0.010605
0.011887
-0.00709297
-0.0105126
-0.0114801
-0.00412448
0.0478231
-0.0204357
-0.0120383
-0.00722939
0.000642547
-0.0114732
-0.00991648
6.55915e-07
-0.00861977
-0.00873819
-0.00132239
-0.0051566
-0.00617117
-0.00141282
0.00120567
-0.00112862
-0.00497472
-0.000325241
-0.00944204
-0.000144919
0.000121894
0.00129065
-0.00232703
0.00130111
-0.00289812
0.00333762
0.00181505
-0.00327436
0.00404002
0.00201365
-0.00239691
0.00339832
0.00170221
0.0024601
0.000681713
0.00524647
0.00232871
-0.00129193
0.00574966
0.00335796
-0.000538634
0.00575467
0.00446824
-0.000514313
0.00473101
-0.00068692
-0.00776291
0.0105415
-0.0043292
-0.00729987
0.0104904
-0.00659688
-0.00610716
0.00968236
-0.00762264
0.00872726
-0.0081931
0.00720813
0.0114944
-0.00588614
0.00896169
0.0131099
-0.00527986
0.00948353
0.0145719
-0.00470996
0.0144037
-0.00322357
-0.0103563
0.0162588
-0.00151556
-0.0101682
0.0172625
-0.00298484
-0.0101428
0.0171696
-0.0041896
0.0101108
-0.00421696
0.0127597
-0.000477295
0.0105978
-0.00170766
0.00817684
0.0225475
-0.00307028
0.00828767
0.0176746
-0.000613157
0.016705
0.000533314
-0.0104514
0.0472368
-0.024337
-0.0061427
0.0400494
-0.026828
0.0436465
-0.02751
0.0330512
0.112825
-0.0573046
0.121625
-0.0438348
0.054301
0.128222
-0.0416243
-0.0203201
0.0584553
0.126485
-0.0135795
0.0537837
0.12003
-0.00336128
0.103567
0.00253871
-0.0500683
0.105993
0.00866796
-0.0573014
0.123747
0.00243293
-0.0555716
0.13181
-0.00813777
-0.0468518
-0.0142864
0.132768
-0.122627
-0.0237601
0.127726
-0.0298315
-0.0135097
-0.0515621
-0.109037
0.0294253
0.113789
-0.101958
-0.0681327
0.113966
-0.0367829
-0.0483006
-0.0693532
-0.00283145
0.0143684
-0.0139116
-0.0187617
-0.0186321
-0.0094605
-0.00578209
-0.0127965
-0.00277927
-0.0136
-0.00443817
0.0026649
-0.0139889
-0.00867395
0.0034121
-0.0124297
-0.0110748
0.0027855
-0.00959799
-0.0150296
0.00309213
-0.0111873
0.00129555
-0.0134652
0.0157368
-0.0142811
0.000725994
-0.00997808
0.000133387
-0.0157746
0.0142697
-0.00154675
-0.0170414
0.0115296
-0.00274258
-0.0182307
0.00962771
-0.00150366
0.0149472
-0.0256274
0.0111144
0.0250975
0.0189199
0.0208185
-0.050025
0.0186904
0.0164092
0.0180527
-0.0281864
0.0302102
0.0162931
0.0194211
-0.0473697
0.0211169
0.013695
-0.0234188
0.0186886
0.0390806
-0.0427003
0.0091095
0.0155264
0.0202937
0.0452225
-0.00983685
-0.0167001
0.0258799
0.0286898
-0.0195864
-0.0148179
-0.0166897
-0.0197793
0.0103058
-0.0177422
0.00378704
-0.0131228
-0.0173711
0.00439534
-0.0167484
-0.0128141
0.00341992
-0.015704
-0.0146588
0.00244096
-0.0173506
0.00224678
-0.0173705
-0.0175681
0.0170709
0.000400489
-0.0167396
-0.000760368
-0.0187246
0.0154288
-0.00202638
0.0129023
-0.00316933
0.0179338
0.0141557
-0.00286504
0.017134
-0.00144822
0.0169866
0.0178588
-0.0174123
-0.000404378
0.0179263
0.00136531
-0.0155942
0.00286372
-0.0158519
0.000950946
0.0170692
-0.0151673
-0.00127739
0.0142114
-0.0022159
-0.00747464
-0.0157786
0.0231527
0.0171856
-0.00136962
-0.0139161
-0.0165741
-0.0255918
-0.0237059
-0.00219975
-0.104411
0.100038
0.00751397
0.0013222
0.0182469
0.01289
0.0238602
0.0147761
-0.0200527
0.0179724
-0.00841348
0.0181779
-0.0122877
-0.00477403
0.00240605
-0.000490778
-0.0055692
0.00487338
-0.00590441
-0.00166584
-0.00209478
-0.00219033
-0.0037855
0.0132425
-0.000997498
-0.00319488
-0.00139124
-0.00339573
0.0163013
-0.0200888
-0.0116535
0.0154971
0.00678303
-0.0117206
0.0173187
0.00892954
-0.013324
0.0196956
0.00871568
-0.0142129
0.0221323
0.00864028
0.0289783
0.0116289
0.009662
0.0127956
0.0120903
0.00928789
0.0127352
0.00959186
0.00775145
0.0115816
0.0094796
0.00603035
0.0107485
0.00813715
0.0101541
0.00681406
-0.00191204
0.00330422
-0.00226484
0.00401008
-0.00284647
0.00460392
-0.00349243
0.00520737
0.00631463
0.00167044
0.00279266
0.00132753
0.000514171
0.000407371
0.0013412
-8.0598e-05
0.00190146
-0.00152652
2.94772e-05
-0.000893773
0.00178509
0.00100671
-0.000392363
0.000836994
-0.000524316
0.00176499
-0.00107063
0.00117906
-0.000635862
0.000313124
-5.86863e-05
0.00193792
-0.00159828
-2.98078e-05
0.00378184
-0.000669271
-0.00344054
0.0107586
-0.00606261
0.00332828
-0.0172503
0.00339943
0.0164121
0.00365424
-0.0174982
0.0197526
0.0068533
0.00279449
0.00666087
-0.0167665
0.0202873
0.000182411
0.00605946
0.0193077
-0.0147646
-0.0138238
0.0138986
0.00526167
0.0107605
-0.00741442
0.0174935
-0.00764084
0.0169215
0.0111262
-0.000192491
0.0195666
0.00715247
0.00347366
-0.0010553
0.0015399
-0.00335795
0.000465971
-0.00228298
0.0123137
0.00137643
-0.00230427
0.00103132
0.000583401
-0.000774117
0.00156531
-0.000566783
0.00161446
-0.000363447
-0.00131279
0.00110818
-0.0020773
0.000938249
-0.000225227
-0.00026471
-0.00158885
-0.000509351
-0.00202214
0.000247685
-0.00181433
0.00133728
-0.00135571
0.000423589
0.000106404
-0.00188696
0.000151073
-0.00131775
-0.000705324
-0.00116768
-0.0024151
0.00117673
0.00132407
0.000335893
0.000615459
-0.00120334
0.000444909
-0.00172382
-0.000492663
0.000487313
0.000448743
8.73495e-05
0.000119888
-0.000701254
0.00106298
0.000346703
0.000380578
-0.000800115
-0.00162464
0.00280194
-0.000780796
0.000426771
0.000139442
-0.000802758
-0.00114145
0.00377223
0.00143933
-0.000305605
-0.00282184
0.0118682
-0.00248759
-0.00122063
-0.0017269
0.000121619
-0.00081889
0.000356869
-0.000761545
0.000296938
1.6932e-05
-0.00113513
6.24629e-06
0.00184307
-0.000284293
-0.00155585
-0.00125619
0.00321655
-0.000871787
-3.06715e-05
-0.00114169
0.00114425
0.00198978
0.000317956
0.000307243
0.000897046
-6.26132e-05
0.00186338
-0.00145144
-0.000108045
-0.00132093
0.00297099
0.00020895
-0.000740942
0.000313884
0.00274508
-0.00395857
0.0128746
-0.00154998
-0.0177678
0.00128592
0.00698591
0.0237782
-0.0165537
0.0212483
0.00653846
-0.0177162
0.0219667
-0.00187303
-0.0145537
-0.00435377
-0.0205301
-0.0216397
-0.00633059
-0.0216384
-0.00583183
0.0149053
-0.00202189
0.0194039
0.0312281
0.036994
-0.0240169
-0.0989127
0.065005
-0.0961177
0.0696885
-0.106334
0.0711688
-0.0176077
-0.108053
0.0691955
-0.0252556
-0.1045
0.0687175
-0.0299583
-0.0964253
0.0683748
-0.0333675
-0.0852871
0.0664561
-0.03583
-0.0694958
0.0612666
-0.0378416
-0.052102
0.0576597
-0.0376702
-0.0430349
0.0448777
-0.0325163
-0.00525353
-0.0285981
0.00251632
0.0367217
-0.0451593
0.00832143
0.0379445
-0.0444173
-0.00826682
0.044035
-0.0278582
-0.0356329
0.0269272
-0.0519946
-0.012921
0.0288153
-0.0594973
-0.0255943
0.032594
-0.0607527
-0.0330625
0.0337914
-0.0530823
-0.041481
0.0332841
-0.0440391
-0.0394499
0.0299036
-0.026388
-0.0376527
0.0195343
0.00808731
-0.0349143
0.0242867
0.0421421
-0.0589785
0.0457735
0.0540424
-0.0762956
0.0699074
0.0539457
-0.0788999
0.0909597
0.0522651
-0.0741423
0.105669
0.0479713
-0.0635376
0.112526
0.0397876
-0.0474674
0.110072
0.0325974
-0.0309534
0.0957165
0.0292294
-0.0155948
0.0519741
0.0382087
0.00495994
0.0244532
0.0240043
0.00332009
0.0206742
0.00398303
-0.00030885
0.0191414
0.000510048
0.00091992
0.0160532
0.000276223
0.00270163
0.0096231
0.000116626
0.00621444
0.00962122
-8.57818e-05
0.0080735
0.00268527
-0.00120821
0.00538007
0.00407269
-0.00142639
0.00586942
0.00129761
-0.00184982
0.0077147
0.00138801
-0.00331218
0.00835755
0.00247078
-0.0031915
0.00782695
0.00296276
-0.00250176
0.00736155
0.00270198
-0.00229122
0.0134371
0.000676707
-0.00682932
0.0341686
-0.00666234
-0.0142878
0.0600323
0.00857709
-0.0350592
0.0637728
0.0197115
-0.0242116
0.0581169
0.0236342
-0.0188126
0.0447725
0.0249956
-0.0125245
0.0211018
0.0247329
-0.00196685
-0.0135045
0.0143251
0.0193591
-0.0399052
-0.018135
0.0435984
-0.0515832
-0.0430571
0.0537898
-0.0512334
-0.0615189
0.0602169
-0.0395132
-0.0750732
0.0623956
-0.0167874
-0.0825348
0.0588455
0.0131434
-0.0770689
0.0461771
0.0268837
-0.049577
0.0348751
0.0238682
-0.0393844
0.0414773
0.0149758
-0.0316012
0.0395899
0.000732261
-0.0243611
0.0377772
-0.00543989
-0.024996
0.0303661
-0.0376661
0.0314766
-0.0533723
-0.0183082
0.0332162
-0.0607761
-0.033644
0.0402369
-0.0615461
-0.0488893
0.0487843
-0.0535968
-0.0641576
0.0553328
-0.0312833
-0.0812122
0.0579996
-0.00176964
-0.0831757
0.0527857
0.00518141
-0.0488873
0.0410706
-0.00983692
-0.0285439
0.042752
-0.021841
-0.0293366
0.0405546
-0.00764121
-0.0594967
0.0445584
-0.0514547
0.0413725
-0.0101687
-0.0678829
-0.000699183
0.0208813
-0.055436
-0.0359959
0.0292668
-0.0400866
0.00148886
0.0354746
-0.0515877
0.0159416
0.0361887
-0.0817824
0.0312563
0.0472651
-0.127218
0.0320268
0.0591529
-0.123453
0.0294073
0.0603924
-0.0960885
0.0297599
0.0542509
-0.0719921
0.0283383
0.0429028
-0.0502723
0.0271162
-0.0281357
0.0269112
-0.0337036
-0.0462714
0.0266069
-0.0352972
-0.0536536
0.0227163
-0.0300604
-0.0624412
0.0168494
-0.0014339
-0.0743435
-0.00485837
0.0380095
-0.109879
-0.00763888
0.0593058
-0.119315
0.0144778
0.0688087
-0.111834
0.0262567
0.06757
-0.0930457
0.0317692
0.053212
-0.0674702
0.037781
0.0258207
-0.0338879
0.0421615
-0.00774595
0.00766659
0.0392533
-0.031306
0.0323211
0.0150136
-0.0463969
0.0398461
-0.000701472
-0.0554411
0.0413526
-0.00960125
-0.058829
0.0391753
-0.0169927
-0.0261917
-0.0216049
0.0310774
-0.0345192
0.00592711
-0.0106165
-0.00672255
-0.0149337
0.00935083
-0.0103882
-0.014777
0.00546659
-0.00952378
0.0257342
-0.0124544
-0.000279576
-0.00601287
0.0209749
-0.00931721
-0.00553533
0.0185585
-0.00551184
-0.00789162
-0.00574458
-0.00656243
0.000709144
-0.00616415
-0.0100352
0.000855809
-0.00579362
-0.0114202
0.00057916
-0.00506969
-0.0116202
0.000198318
0.00627627
-0.0080332
-0.000665073
0.00908742
-0.00215774
-0.00434974
-0.000207744
-0.0020231
-0.00212283
-0.0010786
-0.00128893
-0.000263726
-0.00120465
0.000387203
-0.00134589
-0.00577584
0.018003
-0.00578545
-0.0155432
0.00186675
0.030169
-0.00966643
-0.0169589
0.0790184
-0.0390432
-0.0430148
-0.0028335
0.0825675
-0.0410508
0.0123818
0.0802799
-0.0346733
0.0172264
0.0721355