/*--------------------------------*- C++ -*----------------------------------*\
| =========                 |                                                 |
| \\      /  F ield         | OpenFOAM: The Open Source CFD Toolbox           |
|  \\    /   O peration     | Version:  v2012                                 |
|   \\  /    A nd           | Website:  www.openfoam.com                      |
|    \\/     M anipulation  |                                                 |
\*---------------------------------------------------------------------------*/
FoamFile
{
    version     2.0;
    format      ascii;
    class       volScalarField;
    location    "540";
    object      alphat;
}
// * * * * * * * * * * * * * * * * * * * * * * * * * * * * * * * * * * * * * //

dimensions      [1 -1 -1 0 0 0 0];


internalField   nonuniform List<scalar> 
18258
(
0.00483494
0.00210717
0.00172687
0.00149643
0.000991367
0.00162182
0.00225249
0.00268148
0.00281335
0.00278973
0.0028889
0.00487552
0.00684271
0.00845762
0.00888571
0.00887318
0.0080568
0.00769469
0.00836649
0.01028
0.0086314
0.00553143
0.00661913
0.00766174
0.0083582
0.00740882
0.00599104
0.0055446
0.00501987
0.00418541
0.00351392
0.00241369
0.00175262
0.00162344
0.00147313
0.0016802
0.00183085
0.00195322
0.00199644
0.00202777
0.00201385
0.0020022
0.00194782
0.00191286
0.00185358
0.00152874
0.00182792
0.0019277
0.00210747
0.0028991
0.00310888
0.00261271
0.00288963
0.00257648
0.00169678
0.00194333
0.00210953
0.0021546
0.00212642
0.00203776
0.0020077
0.00198225
0.0019501
0.00191202
0.00188877
0.00190757
0.00192726
0.00190629
0.00181255
0.00173667
0.0016139
0.00149083
0.00139961
0.00132896
0.00127569
0.00121652
0.00115003
0.00101018
0.000936234
0.00123961
0.00155622
0.00166283
0.00235692
0.00287371
0.00289351
0.00216599
0.00154354
0.00160198
0.00178089
0.00179867
0.00152405
0.00181189
0.00205232
0.00212715
0.00221663
0.00247767
0.0028206
0.00274923
0.0024484
0.00225619
0.00220955
0.00253405
0.00240924
0.00312445
0.00314684
0.00274211
0.00253311
0.0028504
0.00367653
0.00395543
0.00307404
0.00288765
0.00283079
0.00279412
0.00252728
0.00261624
0.00237627
0.0021411
0.0023329
0.00281905
0.00267374
0.00292007
0.00302624
0.00283921
0.00328992
0.00379345
0.00373848
0.0029915
0.00243917
0.00227364
0.00229083
0.00140104
0.00151296
0.00163017
0.00167011
0.00169813
0.00172193
0.00183575
0.0018316
0.00180457
0.00180059
0.00183198
0.00100969
0.00109393
0.00112121
0.00112907
0.00107262
0.00106157
0.00104174
0.00102563
0.000967191
0.000925441
0.00110729
0.00124334
0.00135424
0.00148395
0.00167735
0.00191397
0.00216269
0.00241408
0.00258043
0.00262797
0.00267594
0.0025793
0.00248178
0.00257053
0.00258558
0.00256899
0.00253456
0.00249108
0.00243239
0.00232478
0.00245005
0.00244368
0.00229607
0.00196758
0.00201198
0.00200889
0.00206144
0.00205072
0.00207119
0.00204126
0.00200587
0.0019084
0.00177202
0.00147398
0.00144946
0.00146593
0.00188026
0.0022811
0.00352171
0.00429227
0.00497812
0.00532268
0.00569081
0.00461042
0.00513421
0.00396192
0.0035557
0.00451742
0.00590642
0.00337075
0.00184338
0.00349662
0.003105
0.00225677
0.00200944
0.00207174
0.00206787
0.00236325
0.00272789
0.00303433
0.00318281
0.00331216
0.00341579
0.00352912
0.00367257
0.00371158
0.00358493
0.00303328
0.00365828
0.00297446
0.00347679
0.00314686
0.00213293
0.00218218
0.00233597
0.00214666
0.00209123
0.00199736
0.00180634
0.00224944
0.00290409
0.00336967
0.00385344
0.00513923
0.00475495
0.0045606
0.00353035
0.00341413
0.00177103
0.0025253
0.0026211
0.00295438
0.00196286
0.00179269
0.00170312
0.00224704
0.00260576
0.00307559
0.00341297
0.004052
0.0031464
0.00359592
0.00325595
0.00227343
0.00218213
0.0031213
0.00336118
0.00276343
0.00246461
0.0030936
0.0029297
0.00207977
0.00164915
0.00253663
0.0026222
0.00188838
0.0047184
0.00506762
0.00482165
0.00585104
0.00732401
0.00833594
0.00778431
0.00690072
0.00768289
0.00610647
0.00593703
0.00633901
0.00532088
0.00371162
0.00380328
0.00393068
0.00403624
0.00433368
0.00460447
0.00493526
0.00524915
0.00477124
0.00396132
0.00299753
0.00206158
0.00203323
0.00202285
0.00181646
0.00269205
0.0040736
0.00404687
0.00229987
0.00134024
0.00151537
0.001711
0.00169417
0.00122954
0.00092531
0.00159391
0.00182269
0.00185224
0.00180634
0.00170553
0.00178226
0.00286219
0.00440943
0.00484514
0.0050183
0.00518212
0.00529783
0.00536219
0.00538257
0.00539392
0.00540788
0.00542018
0.00543892
0.00542221
0.00530687
0.00466791
0.00293484
0.00171534
0.00159323
0.00175834
0.00188969
0.00200431
0.00170532
0.00104285
0.00166558
0.00213283
0.00245177
0.00247284
0.00230797
0.002239
0.00353072
0.00469466
0.0055341
0.00570446
0.0057806
0.00571766
0.00571003
0.00558612
0.0055482
0.00486607
0.00347855
0.00380298
0.00408321
0.00412963
0.00422478
0.00436784
0.0042668
0.00403189
0.00588926
0.00679734
0.00688443
0.00703031
0.00694663
0.00682659
0.0065168
0.00616277
0.00518817
0.00389073
0.00245503
0.00250624
0.00266794
0.00264229
0.00229992
0.00242325
0.00263017
0.00265658
0.00274362
0.00307709
0.00349516
0.00333419
0.0028695
0.00243703
0.00226902
0.00222096
0.00213052
0.00159536
0.00161958
0.00157474
0.00160095
0.00215087
0.00255992
0.00295237
0.00418734
0.00373513
0.00303741
0.00481759
0.00493733
0.00530575
0.00586182
0.006007
0.00665673
0.00462981
0.00417185
0.00428539
0.00350048
0.00323999
0.00327439
0.00328669
0.00306304
0.0033526
0.00332313
0.00320298
0.00353621
0.00389696
0.00513866
0.00622673
0.00656994
0.00676847
0.00685036
0.00682602
0.00669494
0.00673843
0.00592027
0.00591766
0.00566712
0.00550464
0.0054474
0.00517837
0.00592386
0.00614942
0.00622426
0.00637907
0.0066205
0.00643947
0.00624018
0.00608839
0.00597845
0.00586328
0.00592459
0.00603442
0.0061515
0.00631582
0.00653514
0.00657041
0.00634322
0.0061714
0.00605381
0.00594323
0.00594709
0.00604561
0.00616038
0.00632318
0.00653098
0.00641476
0.00625327
0.00610934
0.00599125
0.00588719
0.00568081
0.00581767
0.00596811
0.00609191
0.00617191
0.00533256
0.00570041
0.00560263
0.00507266
0.00474785
0.00360545
0.00390188
0.00411461
0.00448153
0.00497433
0.00507094
0.00425505
0.00364638
0.003553
0.0035243
0.00360732
0.00363723
0.00365508
0.00413016
0.0062251
0.00626823
0.00628664
0.00628986
0.00537802
0.00522505
0.00486677
0.00890435
0.00829055
0.00718187
0.00591927
0.00317058
0.0027176
0.00321919
0.00391509
0.00437739
0.00483118
0.00320714
0.00198675
0.00231564
0.00240091
0.00234211
0.00216461
0.00180277
0.0016642
0.00151052
0.00162576
0.00287951
0.00459493
0.00517555
0.0052303
0.00517824
0.00507731
0.0049547
0.00478397
0.00471579
0.00593827
0.0080299
0.00908313
0.0090485
0.00777286
0.00633462
0.00357152
0.00183871
0.00135129
0.00145677
0.0016014
0.00188094
0.0016747
0.00141125
0.00154608
0.00146471
0.00296692
0.00512026
0.00652748
0.00774439
0.00761484
0.00661203
0.00541262
0.00513473
0.00525593
0.0053365
0.00540575
0.00547683
0.00552568
0.00549521
0.00500204
0.00309052
0.00184467
0.00163883
0.00176213
0.0020652
0.00219469
0.00221721
0.0021864
0.00189527
0.00313425
0.00497737
0.00316528
0.00172708
0.00186618
0.00185257
0.00326829
0.00326319
0.00319246
0.00496699
0.00525183
0.00523932
0.0049228
0.00469931
0.00278214
0.0031578
0.00316849
0.00318533
0.0032377
0.00163528
0.00178259
0.0018382
0.00197893
0.00173145
0.00219762
0.000568717
0.000788276
0.000915785
0.000995594
0.00107254
0.00105209
0.00201239
0.0020419
0.00194908
0.00189862
0.00240963
0.00258551
0.00264248
0.00243371
0.00224566
0.00239076
0.00239608
0.00225819
0.00213896
0.00221771
0.00221913
0.00212632
0.00180853
0.00169469
0.00186068
0.00184076
0.00182613
0.00327984
0.00327394
0.00309818
0.00509065
0.005009
0.00561
0.00557324
0.00556615
0.00554341
0.00560266
0.00563399
0.00565799
0.00568584
0.00567464
0.00562026
0.00783715
0.00552707
0.0048232
0.00278935
0.00268682
0.00189738
0.00166278
0.00195793
0.00209407
0.00227026
0.0022189
0.0023393
0.00233653
0.0024793
0.00230136
0.00204358
0.00313019
0.00334413
0.00326621
0.00333092
0.00325252
0.00323346
0.00320955
0.00316383
0.00310878
0.00185085
0.00181546
0.00212589
0.00223157
0.00239784
0.00241966
0.00247216
0.00234475
0.00206229
0.00199628
0.00229891
0.00226791
0.00231186
0.00217968
0.00217079
0.00193402
0.00198302
0.00400184
0.00739892
0.00380141
0.00422318
0.00382491
0.00435116
0.00381038
0.00328547
0.00336242
0.0029613
0.00308893
0.00324028
0.00329888
0.00346714
0.00408679
0.00393461
0.00345381
0.00335355
0.00328747
0.00309956
0.00278986
0.00292272
0.00294913
0.00301245
0.00334791
0.00384134
0.00430636
0.00523459
0.00507956
0.00444908
0.00406762
0.00426626
0.00433953
0.00546431
0.00510506
0.00507468
0.00535306
0.00529986
0.00503074
0.00476703
0.00460143
0.00394932
0.00401434
0.0045959
0.00444694
0.0045828
0.00450234
0.00468019
0.00476463
0.00457344
0.00425019
0.00446684
0.00445726
0.00495076
0.00481547
0.00446629
0.00408705
0.00436745
0.00431382
0.00498432
0.00469256
0.00438879
0.00403892
0.0038682
0.00439056
0.00431045
0.00488897
0.00502996
0.00503228
0.00438621
0.00428441
0.00509695
0.00490443
0.00473628
0.00493349
0.00408473
0.00420148
0.0051774
0.0052859
0.0050143
0.00418522
0.00424939
0.00364311
0.00428545
0.00533536
0.00503876
0.00412933
0.00342571
0.00479461
0.00504518
0.00533851
0.00504457
0.00549615
0.00592189
0.00482483
0.00524995
0.00686412
0.00523215
0.00607253
0.0062079
0.00624534
0.00624952
0.00627478
0.00630731
0.00664647
0.00646818
0.00410871
0.00491544
0.00477138
0.00398907
0.00339042
0.00373502
0.00402262
0.00408061
0.00418409
0.00434373
0.00426997
0.00413158
0.00604463
0.00689269
0.00704738
0.00718637
0.00706491
0.0068846
0.00647728
0.0059795
0.00495728
0.00369716
0.00230603
0.00235156
0.00250734
0.00248461
0.00215709
0.00162836
0.00106906
0.00158532
0.00163522
0.00153681
0.00139754
0.00122846
0.00126106
0.00232374
0.00477453
0.00636441
0.00700571
0.00753464
0.00809998
0.00861179
0.00899694
0.00928226
0.00948269
0.00961095
0.0096385
0.00945803
0.0086493
0.0082764
0.00781127
0.00742875
0.00688585
0.0064351
0.00727412
0.00798152
0.00841374
0.00890145
0.00912479
0.00902738
0.00783703
0.00762223
0.0087896
0.0108201
0.00921054
0.0115669
0.0135743
0.0105802
0.00950115
0.00947927
0.0105907
0.010793
0.0104159
0.00982811
0.00915501
0.00830145
0.00873642
0.0091257
0.00949544
0.00983695
0.0107276
0.0108884
0.0108053
0.0106256
0.0103963
0.010094
0.00963112
0.00898117
0.00820447
0.00743603
0.0065551
0.00477558
0.00214388
0.00252794
0.00246788
0.00276663
0.00263333
0.00116893
0.00127584
0.00128991
0.00129564
0.0012243
0.00138801
0.00201566
0.0032583
0.00235391
0.00192902
0.00134584
0.00159583
0.00266626
0.00454006
0.00511914
0.00520255
0.00539078
0.00729563
0.00798349
0.00843103
0.00879781
0.00900896
0.00889819
0.00862755
0.00814381
0.00756539
0.00731984
0.00692609
0.00655383
0.00634266
0.0061221
0.00575042
0.0045464
0.00431877
0.00449439
0.00444488
0.00425684
0.00454535
0.00470729
0.00470137
0.00475184
0.00479602
0.00493627
0.00510169
0.00524569
0.00532103
0.00534879
0.00535751
0.00536861
0.00537767
0.00539464
0.00537697
0.00525981
0.00461904
0.00288895
0.00168654
0.00155938
0.00170976
0.00180807
0.00185014
0.00164287
0.00105742
0.00164341
0.00212693
0.00218139
0.00239288
0.00246817
0.00261633
0.00291478
0.00336824
0.00347527
0.00308422
0.00292193
0.00285927
0.00278626
0.00238015
0.00296488
0.00327531
0.00326962
0.00323906
0.00350041
0.00430763
0.00413741
0.00364829
0.00360702
0.00357011
0.00322301
0.00317185
0.00347226
0.00351106
0.00364354
0.00427328
0.00512554
0.0047539
0.0043288
0.00414743
0.00382873
0.00336347
0.0030405
0.00376438
0.00309545
0.00160065
0.00135623
0.00136648
0.00136711
0.00131283
0.00155168
0.00162904
0.00164865
0.00153675
0.00170927
0.00190518
0.00184735
0.00210377
0.00207007
0.00184414
0.00182459
0.00198667
0.00210845
0.00216874
0.00222147
0.00362435
0.00372787
0.00289519
0.0041908
0.00483677
0.00483921
0.00512856
0.00421188
0.0037617
0.00446482
0.00518098
0.00597614
0.00471377
0.00444477
0.00456373
0.00208798
0.00109842
0.00155037
0.00192422
0.00214024
0.00207404
0.00195933
0.00165663
0.00294242
0.00302142
0.00479156
0.00537399
0.00543707
0.00539412
0.00555938
0.00616912
0.00722797
0.00791291
0.0081126
0.00798938
0.00765971
0.00704957
0.0064558
0.00639417
0.00616759
0.0059865
0.00592541
0.00516513
0.00453657
0.00482869
0.00475877
0.00491685
0.00498939
0.00504127
0.0050943
0.00518424
0.00529299
0.00539149
0.00545868
0.00550344
0.00554155
0.00558103
0.0056211
0.00566463
0.00568841
0.00563521
0.00509396
0.0030573
0.0018232
0.00166346
0.00177491
0.00208604
0.00219633
0.00236059
0.0020965
0.00110424
0.00129824
0.00225637
0.00250116
0.00231384
0.00216554
0.0021271
0.00178185
0.00322667
0.00318424
0.00499451
0.00561535
0.00569219
0.00567477
0.00562928
0.00557847
0.00553164
0.00549365
0.00546405
0.00543286
0.0053879
0.00533413
0.00528123
0.00522677
0.00513548
0.00500134
0.00488185
0.00509535
0.005219
0.00542815
0.00569191
0.00583981
0.00573768
0.00556075
0.00546221
0.00548081
0.00552768
0.00557826
0.00562445
0.00564798
0.00558785
0.00526874
0.00494619
0.00313414
0.00317511
0.00156327
0.00173678
0.00200397
0.0020695
0.00224839
0.00223842
0.00176031
0.001371
0.00154612
0.00144514
0.00258161
0.00283833
0.00314704
0.00311579
0.00169288
0.00173591
0.00180405
0.00203566
0.00189239
0.00182885
0.00450787
0.00431782
0.00452116
0.00555051
0.0047816
0.00330263
0.00362282
0.00503938
0.00531398
0.00321437
0.00240906
0.00267489
0.00338882
0.00498618
0.00504795
0.00479508
0.00476971
0.00348574
0.00428374
0.00515047
0.00500962
0.00391036
0.00269477
0.00200466
0.000974758
0.00185429
0.00158605
0.00388354
0.00429736
0.00424658
0.00464369
0.00493367
0.00498435
0.00484332
0.00429597
0.00438126
0.00442435
0.00504045
0.00506286
0.00428661
0.00361772
0.00293881
0.00296482
0.00302207
0.00334913
0.00419337
0.00395081
0.00346285
0.00335822
0.00328601
0.00309139
0.00278985
0.00244764
0.00246444
0.00229382
0.00221995
0.0034995
0.00465842
0.00549355
0.00565191
0.00570963
0.00562249
0.00558309
0.00542371
0.00534134
0.00464061
0.00592339
0.00625894
0.00603938
0.00608396
0.00612183
0.00616838
0.00616932
0.00605354
0.0052023
0.00310697
0.00202959
0.00229095
0.00247284
0.00232216
0.00230911
0.00246099
0.00233509
0.00205099
0.00332276
0.00324754
0.00519209
0.00587914
0.00600431
0.00601112
0.00598676
0.00596669
0.00597454
0.00629008
0.00615011
0.00624291
0.0065877
0.00659764
0.00667595
0.00626686
0.00618596
0.00613379
0.00609856
0.00604197
0.00589265
0.00521371
0.00505467
0.00574117
0.00591913
0.00599871
0.00605418
0.00612018
0.00620628
0.00645295
0.00663676
0.00670656
0.00642168
0.00631406
0.00616441
0.00595436
0.00590477
0.00589485
0.00589061
0.00586276
0.00571198
0.00502914
0.00323416
0.00331413
0.00197172
0.00198463
0.00228604
0.00240121
0.0023585
0.00218419
0.0021296
0.00366206
0.00416818
0.00443392
0.00477641
0.00456213
0.00453641
0.00518574
0.00501821
0.00447702
0.00465793
0.00417512
0.00397856
0.0038471
0.00386774
0.00203595
0.00219683
0.00229131
0.00225316
0.00215448
0.00192148
0.00176199
0.00321513
0.00319177
0.00315038
0.0018737
0.00183277
0.0021593
0.00209711
0.00191853
0.00163537
0.00179269
0.00276734
0.00309503
0.0047981
0.0049694
0.00531916
0.00568659
0.00582476
0.00586195
0.00588452
0.00591077
0.00596737
0.00603537
0.00605694
0.00606
0.00612226
0.00611252
0.00611371
0.00608149
0.00604416
0.00600034
0.0059533
0.00587633
0.00571879
0.00534296
0.0049749
0.0056088
0.00566116
0.00576756
0.0058775
0.00592481
0.00593276
0.00591174
0.00586903
0.00581808
0.00575924
0.00575628
0.00591041
0.00594696
0.00597282
0.00595191
0.00592972
0.00592199
0.00589629
0.0058551
0.00574866
0.0056418
0.00559629
0.00550346
0.00564981
0.00571406
0.00572254
0.00577601
0.00586288
0.00588717
0.00588606
0.00584387
0.00580945
0.00576526
0.00569058
0.00559145
0.00526426
0.0053366
0.00542706
0.00554578
0.00566046
0.00575304
0.00580495
0.00580819
0.00575449
0.00571805
0.00571879
0.00566996
0.00569508
0.00572151
0.00569304
0.00569019
0.00569474
0.00562974
0.00551174
0.00534764
0.00517449
0.00503269
0.00496266
0.00484422
0.00521363
0.00536138
0.00549142
0.00560558
0.005709
0.00581371
0.0058466
0.00583614
0.00577238
0.00573689
0.00573671
0.00568259
0.00567941
0.00573161
0.0057325
0.00576219
0.00581773
0.00580095
0.00572393
0.00552632
0.00533469
0.00516807
0.00500845
0.00483615
0.0048119
0.00489067
0.0048195
0.00488115
0.00504835
0.00526027
0.00544392
0.00556188
0.005599
0.00563341
0.00568414
0.005678
0.00564737
0.00563122
0.00556254
0.00550276
0.00542918
0.00526792
0.00506283
0.00488344
0.00483016
0.00493152
0.00502963
0.00493754
0.00457134
0.00475246
0.00492107
0.00508853
0.005327
0.00560275
0.0057239
0.00576693
0.00574005
0.00571965
0.00571808
0.0056687
0.00565102
0.00569638
0.00569867
0.00571925
0.00575423
0.00571679
0.00561664
0.00527699
0.00487625
0.0046842
0.00457228
0.0044157
0.00496135
0.00506614
0.00494045
0.00485537
0.00498472
0.00513447
0.00529085
0.00539462
0.00543513
0.00549326
0.00557018
0.00560676
0.00555165
0.00548817
0.00540978
0.00537021
0.00537172
0.00534646
0.00524576
0.00512754
0.0049891
0.00515763
0.005258
0.00516241
0.00465538
0.00473063
0.00483756
0.00489485
0.00527033
0.00560636
0.00568867
0.0056952
0.00566334
0.00564318
0.00564608
0.00561817
0.00556358
0.00555147
0.00554302
0.00560378
0.00568338
0.00572344
0.00574161
0.00548898
0.00504667
0.00498761
0.00478755
0.00469318
0.00523199
0.0052929
0.00516811
0.00505436
0.00529644
0.00539906
0.00542781
0.00540567
0.00534742
0.0053083
0.00537529
0.00548161
0.00540024
0.00505081
0.00474009
0.0049013
0.00494143
0.00492935
0.00486262
0.0047515
0.00451015
0.00503833
0.00555583
0.00559639
0.00502948
0.00503618
0.00487226
0.00451935
0.00494578
0.00518024
0.00523492
0.00522082
0.00514737
0.00495724
0.00524091
0.00548956
0.00544388
0.00492545
0.0031952
0.00323996
0.00326435
0.00326863
0.00322695
0.00321582
0.00317012
0.00314695
0.00307542
0.00300318
0.00293305
0.00312782
0.00329277
0.00351638
0.00353532
0.00362823
0.0034786
0.00329686
0.00308174
0.00240091
0.00304613
0.00363377
0.00385887
0.00414927
0.00420942
0.00484548
0.00509393
0.00522905
0.00513012
0.00411529
0.00349129
0.0027904
0.00181483
0.00113098
0.00132809
0.00138199
0.00145928
0.00179428
0.00329213
0.00168505
0.00233266
0.00182195
0.00313595
0.00166813
0.00103889
0.00068915
0.00088263
0.0010534
0.00106802
0.00102416
0.000854082
0.000674262
0.000689248
0.000643414
0.000683594
0.000610912
0.000698793
0.000646435
0.000885676
0.001281
0.00149756
0.00153602
0.00124399
0.00140775
0.00117648
0.00135969
0.00121574
0.00132617
0.00127273
0.00155684
0.00170632
0.00163302
0.0016368
0.00143241
0.00100197
0.00116165
0.000912877
0.0010965
0.000839177
0.00108312
0.000929054
0.00120729
0.00124442
0.00124069
0.00119437
0.000912257
0.00108072
0.000851347
0.00105211
0.000867293
0.000933363
0.000777948
0.00113256
0.00115463
0.00106418
0.00113353
0.00127322
0.00136276
0.0014917
0.00140621
0.00159308
0.00153255
0.00154392
0.00146328
0.00142437
0.00139243
0.00139593
0.00137317
0.00138057
0.00142477
0.00142633
0.00143137
0.00147552
0.00145363
0.00141713
0.00139453
0.00123893
0.00100053
0.00174298
0.00179736
0.0018255
0.00182607
0.00178672
0.001765
0.00170009
0.00168343
0.0016283
0.00159819
0.00152535
0.00146807
0.00140094
0.00157538
0.000882405
0.00100209
0.00105779
0.00109003
0.00111141
0.00112165
0.00112896
0.00112233
0.00110788
0.00108138
0.00107333
0.0010441
0.00133514
0.00151913
0.00159001
0.00160999
0.00150926
0.00143805
0.00316355
0.0038327
0.00580942
0.00593717
0.0044657
0.00444838
0.00153241
0.00162252
0.00110857
0.00155787
0.00160669
0.00159033
0.00150199
0.00108315
0.00162517
0.00113368
0.00152266
0.00114792
0.00140871
0.00118365
0.00169747
0.00217065
0.0021006
0.00190606
0.00132258
0.00110792
0.00112024
0.000959539
0.00105364
0.000854964
0.00103614
0.000860152
0.00124328
0.00172046
0.00193918
0.00198106
0.00156383
0.00215975
0.00162453
0.00235577
0.00187527
0.00231787
0.00186243
0.00215311
0.00266473
0.00267744
0.00261412
0.00210713
0.00168635
0.00189382
0.00167697
0.00193284
0.00279672
0.0018326
0.00278977
0.00115167
0.00157046
0.00161945
0.00159784
0.00150703
0.00101529
0.00258229
0.00136686
0.00242249
0.00156774
0.00250226
0.00182983
0.00244311
0.00292274
0.00306432
0.00305657
0.00249672
0.00226212
0.00235624
0.00188593
0.00226756
0.0016807
0.00243112
0.00136374
0.00176129
0.0019324
0.0020378
0.00204309
0.00167469
0.00331445
0.00208354
0.00314579
0.00219104
0.00280926
0.00225234
0.00246087
0.0029074
0.00288884
0.00286389
0.00242841
0.00196724
0.00259785
0.00185078
0.0557079
0.128279
0.0512151
0.129708
0.0585983
0.083244
0.0820134
0.0821764
0.0825094
0.0619897
0.135334
0.159788
0.166563
0.168562
0.167299
0.270327
0.22045
0.331113
0.214589
0.126485
0.0549876
0.0757152
0.195008
0.321739
0.482891
0.612819
0.417645
0.432387
0.27592
0.272104
0.256301
0.207502
0.127458
0.0639751
0.0109185
0.0119241
0.0170958
0.0227935
0.0178619
0.0108764
0.00214813
0.00221573
0.00226434
0.00229362
0.00228304
0.00223091
0.00226192
0.00213141
0.00199839
0.002229
0.00243127
0.00271642
0.00317031
0.00349425
0.00314555
0.00344512
0.00365002
0.0038168
0.00395499
0.0041615
0.00439439
0.00459918
0.00461013
0.00422387
0.00359955
0.00292749
0.00246027
0.0023309
0.00218891
0.00193037
0.00176597
0.00165358
0.00159935
0.00157694
0.00162057
0.001771
0.00190141
0.0019471
0.00190869
0.00187371
0.00184321
0.00164129
0.00191893
0.00263226
0.00265331
0.00454583
0.0052382
0.00534713
0.00535457
0.00474737
0.00303301
0.00303983
0.00305552
0.00311423
0.00312656
0.0031351
0.00313193
0.00312128
0.00310316
0.00306954
0.00305274
0.00300372
0.00296224
0.00285867
0.00286339
0.00290166
0.0029312
0.00288347
0.00289606
0.00283378
0.00366298
0.00490341
0.0055459
0.00579667
0.00601248
0.00583628
0.00808101
0.0069039
0.00486023
0.00479768
0.00473596
0.00562177
0.00565941
0.00509351
0.00511052
0.00466092
0.00290465
0.00288833
0.0028898
0.00308475
0.00314342
0.00325107
0.00328025
0.00330787
0.00332365
0.00332028
0.00331879
0.00329298
0.00327187
0.00320056
0.00317657
0.00316684
0.00174617
0.0019051
0.00197471
0.00198698
0.0020137
0.00200136
0.00198898
0.00196512
0.00194868
0.00191645
0.00187852
0.00182422
0.00171715
0.00156548
0.00172429
0.00293069
0.0029319
0.00479418
0.0053992
0.00544045
0.00607708
0.00576844
0.00546385
0.00586984
0.00528133
0.00523531
0.00473558
0.00293829
0.00297739
0.00176507
0.00174684
0.0020407
0.00198213
0.00211674
0.00217287
0.0021791
0.00220847
0.00223803
0.00227361
0.0023296
0.00234672
0.00231253
0.00230688
0.00217508
0.00188056
0.00190359
0.00224279
0.00235002
0.00218101
0.00214074
0.00212409
0.00207368
0.00203437
0.00199614
0.00202305
0.00217914
0.0021792
0.00214276
0.0020415
0.00199095
0.00172914
0.00167411
0.00291992
0.00294189
0.00482186
0.00498858
0.00497476
0.0057252
0.00637421
0.00725028
0.00618392
0.0050145
0.00513869
0.00586397
0.00433957
0.00358599
0.00212977
0.00164473
0.00197734
0.00192853
0.00200529
0.00207757
0.00184391
0.00197751
0.0018268
0.00165951
0.00164984
0.0016474
0.00168843
0.0017054
0.00173619
0.00174019
0.00178089
0.00177677
0.00178217
0.00180401
0.00181516
0.00200566
0.00218129
0.00183496
0.00155559
0.0015143
0.00142989
0.00136108
0.00139433
0.00136198
0.00135389
0.00132924
0.00130694
0.00124716
0.00130014
0.00137992
0.00161471
0.00154739
0.00125048
0.00111698
0.000763755
0.000777766
0.000783152
0.000807343
0.000816048
0.00082679
0.000830721
0.000844173
0.000846726
0.000850906
0.000850528
0.000870569
0.000867517
0.000857513
0.000851016
0.000855455
0.000859564
0.000858943
0.00125747
0.00140029
0.00153057
0.00181824
0.00214131
0.00184232
0.00156089
0.0013451
0.00086484
0.000878073
0.000894134
0.00090247
0.000921654
0.000939211
0.000958795
0.000971291
0.00098071
0.000990692
0.00100111
0.00100562
0.00100338
0.000984503
0.000973276
0.000998537
0.00109761
0.00115516
0.00122869
0.00125658
0.00128114
0.00129388
0.0012872
0.00130026
0.00128444
0.00128212
0.00125945
0.00124965
0.00124002
0.00122823
0.00121377
0.00117879
0.00116699
0.00122817
0.00207687
0.00271538
0.00313008
0.00344914
0.00316882
0.00255171
0.0027048
0.00473895
0.00447186
0.00265801
0.00247231
0.00227031
0.00196774
0.00176963
0.0021411
0.0024393
0.00266621
0.00286703
0.00305054
0.00317504
0.00333514
0.00354416
0.00391371
0.00396023
0.00361236
0.00292695
0.00247735
0.00231347
0.00223504
0.0020987
0.0019498
0.00199881
0.00201335
0.00195355
0.00187928
0.00185826
0.00188898
0.00192813
0.00190501
0.00190434
0.00170137
0.00170079
0.00290628
0.00296114
0.00455496
0.00479936
0.00484602
0.00311545
0.00307297
0.00179492
0.00166714
0.00181878
0.00188822
0.00189225
0.0019001
0.00189064
0.00185763
0.00183359
0.00180535
0.00178265
0.0017626
0.00172795
0.00166177
0.00153517
0.00167314
0.00187563
0.00195829
0.00197947
0.00198962
0.00202077
0.00207247
0.00211359
0.00220907
0.0022185
0.00221744
0.00222514
0.00207968
0.00214454
0.00181494
0.00181217
0.00314096
0.00313221
0.00179941
0.00212471
0.00213938
0.00211496
0.00227723
0.00208388
0.00201797
0.00200759
0.00192283
0.00187773
0.00181728
0.00178151
0.00181667
0.001933
0.00187209
0.00165959
0.00160052
0.00179447
0.0017255
0.00143134
0.00122269
0.00118891
0.00113798
0.00110707
0.00116029
0.00120194
0.00122565
0.00125572
0.00126459
0.00131972
0.00128389
0.00134705
0.0014285
0.00149329
0.00177119
0.00191966
0.00173422
0.00170108
0.00168001
0.00167849
0.0016839
0.00161472
0.00161018
0.00157436
0.0015567
0.00150968
0.00148858
0.00146178
0.00146669
0.0014823
0.00162977
0.00419624
0.00534921
0.00557064
0.0095159
0.00384634
0.00392801
0.00771406
0.00318453
0.00479184
0.00513511
0.00536628
0.00560429
0.00513104
0.00651744
0.00454996
0.0050648
0.00528392
0.0046445
0.00172871
0.00194971
0.00226032
0.0020266
0.00179039
0.00122043
0.00131618
0.0013594
0.00139447
0.0014173
0.00144257
0.00146963
0.00149498
0.00151272
0.00151292
0.00146682
0.00141717
0.00130316
0.00126519
0.00131412
0.00136467
0.00119852
0.0011285
0.0011418
0.00116053
0.00117103
0.00117322
0.00118467
0.00118772
0.00120581
0.00119607
0.00120516
0.0011845
0.00119488
0.00117935
0.00113922
0.00108275
0.000986907
0.000963498
0.0013878
0.00147793
0.00155262
0.00176227
0.0020353
0.00217207
0.00194708
0.00179592
0.00172391
0.00191229
0.00191312
0.00347837
0.00668108
0.00298897
0.00334777
0.00976024
0.00388003
0.00301667
0.00306203
0.00309411
0.00309852
0.00180052
0.00213232
0.00206721
0.00207604
0.00176085
0.00147853
0.00132621
0.00118578
0.000804232
0.00080163
0.000807679
0.000820142
0.000824036
0.00078884
0.000788752
0.000784271
0.000782531
0.000765924
0.000761303
0.000747793
0.000739604
0.000720114
0.000709586
0.000691081
0.000687747
0.000716348
0.000795926
0.000961804
0.00107174
0.00121768
0.00124015
0.00139797
0.00347609
0.00402429
0.00554989
0.00549636
0.00866523
0.00541525
0.0040899
0.00369796
0.00541153
0.0055937
0.00520148
0.00704115
0.00487182
0.00322548
0.00483664
0.00401833
0.00479523
0.0046938
0.00497401
0.00789036
0.00829715
0.00233617
0.00208249
0.00219076
0.00248572
0.0029516
0.00271738
0.00309583
0.00309154
0.00238445
0.00152357
0.0048554
0.00586787
0.00470161
0.00563528
0.00869607
0.0034961
0.00340979
0.00301667
0.00251768
0.00228816
0.00225753
0.0025174
0.00301275
0.00754998
0.00807701
0.00743257
0.00740554
0.00673241
0.00741388
0.00924058
0.00919658
0.00812192
0.00759559
0.0078661
0.00487733
0.00304073
0.00353483
0.00391576
0.00522491
0.00538894
0.0113641
0.00386451
0.00426487
0.00432997
0.00579035
0.00561386
0.00990471
0.0042073
0.00453245
0.00597295
0.00797501
0.0146772
0.00537364
0.00565184
0.00812298
0.00824615
0.00754117
0.00545929
0.00494463
0.00538105
0.00405446
0.00396463
0.00338539
0.0049972
0.006716
0.00531877
0.00516433
0.00439024
0.00391847
0.00400374
0.00415503
0.0034524
0.00340487
0.0039283
0.00292632
0.00281988
0.00299129
0.000828915
0.000424897
0.000434411
0.000445742
0.000454912
0.000464368
0.00047126
0.000479457
0.000483112
0.000483537
0.000484814
0.000512594
0.000507778
0.000491707
0.000446483
0.000509433
0.000808442
0.000808937
0.000508802
0.000448537
0.00080486
0.00128233
0.00151166
0.00178814
0.00181007
0.00156187
0.00135431
0.000833764
0.000820655
0.000497409
0.000580935
0.000630876
0.000559604
0.000624571
0.000578924
0.000613182
0.000619689
0.00057348
0.000570228
0.000572405
0.000568086
0.000557976
0.000545633
0.000530535
0.000518626
0.000512006
0.00050681
0.000495612
0.000412249
0.00038413
0.000461527
0.000735553
0.000734435
0.000688529
0.000649414
0.000616106
0.000601053
0.000596972
0.000593798
0.000604206
0.000623692
0.00062922
0.000634824
0.00068394
0.000662364
0.000707444
0.000663953
0.000709297
0.000665708
0.000612398
0.000514203
0.000530496
0.000855847
0.000864942
0.00139724
0.00159819
0.00181225
0.00182137
0.00203349
0.00214188
0.00181412
0.00188338
0.00215808
0.00200968
0.00179098
0.0017981
0.00161726
0.00161897
0.00143432
0.000896527
0.000884386
0.000555406
0.000539427
0.000643206
0.000631993
0.000702871
0.000752262
0.000752526
0.000750114
0.000731542
0.000724823
0.000637436
0.000624847
0.000625669
0.000606745
0.00060255
0.000627982
0.000684851
0.000803507
0.000971901
0.00105844
0.00109559
0.00105095
0.000941144
0.000694313
0.000627601
0.00108759
0.00112917
0.00202102
0.00480429
0.00222692
0.00426723
0.00307848
0.000765845
0.000854524
0.00108969
0.00122098
0.00131816
0.00137383
0.00125531
0.00104707
0.000788263
0.000651196
0.000973187
0.00084156
0.000950669
0.000830257
0.00107445
0.00124229
0.00120179
0.00121082
0.00102327
0.000833561
0.000882748
0.000792493
0.000873485
0.000731353
0.000879912
0.000794427
0.000998282
0.00100766
0.000986693
0.000935254
0.000712115
0.000747182
0.000626755
0.000679949
0.000610506
0.000631077
0.000598001
0.00069739
0.000803635
0.000771311
0.000768325
0.000631324
0.00049475
0.000546471
0.000472692
0.000535011
0.000415921
0.000503808
0.000422439
0.000546874
0.000563699
0.000566489
0.000562606
0.000457599
0.000538294
0.000659789
0.00069306
0.000698878
0.000665528
0.000513274
0.000794066
0.000716184
0.000874377
0.000756116
0.000827848
0.000753811
0.000878632
0.00112527
0.00117484
0.00118261
0.000959509
0.000953509
0.00174062
0.0965562
0.00156576
0.0018507
0.00190851
0.00190171
0.00157236
0.00153392
0.00190014
0.00140543
0.00199052
0.00125341
0.00212326
0.000809283
0.00123023
0.00132079
0.00131794
0.00122478
0.000821172
0.00242807
0.119329
0.308179
0.334307
0.333726
0.320738