/*--------------------------------*- C++ -*----------------------------------*\
| =========                 |                                                 |
| \\      /  F ield         | OpenFOAM: The Open Source CFD Toolbox           |
|  \\    /   O peration     | Version:  v2012                                 |
|   \\  /    A nd           | Website:  www.openfoam.com                      |
|    \\/     M anipulation  |                                                 |
\*---------------------------------------------------------------------------*/
FoamFile
{
    version     2.0;
    format      ascii;
    class       volScalarField;
    location    "1035";
    object      alphat;
}
// * * * * * * * * * * * * * * * * * * * * * * * * * * * * * * * * * * * * * //

dimensions      [1 -1 -1 0 0 0 0];


internalField   nonuniform List<scalar> 
18258
(
0.00483597
0.00210629
0.00172568
0.00149523
0.000991
0.00162101
0.00225148
0.0026804
0.00281237
0.00278902
0.00288842
0.00487504
0.00684237
0.00845767
0.00888611
0.00887372
0.00805769
0.00769541
0.00836702
0.0102796
0.00862987
0.00553089
0.00661817
0.0076608
0.00835835
0.00740901
0.00599134
0.00554426
0.0050193
0.0041848
0.00351358
0.00241424
0.00175168
0.00162258
0.00147247
0.00167956
0.00183031
0.00195273
0.00199607
0.00202754
0.00201372
0.00200212
0.00194771
0.00191254
0.00185291
0.00152763
0.00182517
0.00192953
0.00210955
0.00290114
0.00311063
0.00261413
0.00289111
0.00257701
0.00169669
0.00194341
0.00210982
0.00215502
0.0021268
0.00203807
0.00200794
0.00198243
0.00195024
0.00191214
0.00188889
0.00190772
0.00192747
0.00190657
0.0018129
0.00173706
0.00161434
0.00149129
0.00140009
0.00132945
0.00127618
0.00121699
0.00115047
0.00101055
0.000936579
0.00124006
0.00155677
0.00166342
0.00235774
0.00287469
0.00289443
0.0021667
0.0015441
0.00160257
0.00178147
0.00179915
0.00152438
0.00181208
0.00205241
0.00212722
0.00221672
0.00247785
0.0028214
0.00275029
0.00244943
0.00225738
0.00220723
0.00253231
0.00240827
0.00312331
0.00314501
0.00273921
0.00253475
0.00285202
0.00367868
0.00395682
0.00307411
0.00288779
0.00283094
0.00279414
0.00252744
0.00261661
0.00237676
0.00214157
0.00233348
0.00281948
0.00267407
0.00292028
0.00302657
0.00283959
0.00329043
0.00379418
0.00373946
0.00299233
0.0024401
0.00227454
0.00229175
0.00140161
0.00151357
0.00163066
0.00167062
0.00169872
0.00172254
0.00183644
0.00183228
0.00180524
0.00180125
0.00183255
0.00101004
0.00109433
0.00112162
0.00112949
0.00107301
0.00106193
0.00104206
0.00102594
0.000967568
0.000925816
0.00110773
0.00124382
0.00135475
0.00148449
0.00167786
0.00191445
0.00216315
0.00241454
0.00258088
0.00262841
0.00267631
0.00257981
0.00248223
0.00257099
0.00258602
0.00256938
0.00253499
0.00249154
0.00243291
0.00232541
0.00245093
0.00244445
0.00229645
0.00196758
0.00201203
0.00200881
0.00206118
0.00205027
0.00207059
0.00204059
0.00200515
0.00190775
0.00177146
0.00147371
0.00145012
0.00146651
0.00188082
0.00228162
0.00352226
0.00429248
0.00497781
0.00532201
0.00568974
0.00460976
0.00513371
0.00396177
0.00355542
0.00451693
0.00590578
0.00337036
0.00184331
0.00349685
0.00310568
0.00225771
0.00201036
0.00207277
0.0020682
0.00236204
0.00272622
0.00303284
0.00318173
0.00331158
0.00341582
0.00352974
0.00367393
0.00371309
0.00358666
0.00303442
0.00366088
0.00297658
0.00347858
0.00314869
0.00213479
0.00218049
0.00233494
0.002146
0.00209064
0.00199632
0.00180521
0.00224919
0.00290268
0.00336817
0.00385172
0.0051374
0.00475311
0.00455815
0.00352865
0.00341248
0.00177018
0.00252388
0.00262093
0.00295446
0.00196304
0.00179309
0.00170371
0.00224624
0.00260466
0.0030751
0.00341378
0.00405478
0.00314844
0.00359719
0.00325732
0.00227493
0.00218321
0.00312211
0.00336148
0.00276359
0.00246397
0.0030936
0.00293036
0.00208059
0.00164897
0.00253651
0.0026216
0.00188805
0.00471242
0.00505733
0.00483035
0.00587877
0.00735387
0.00837445
0.00781542
0.00692675
0.00771804
0.00612875
0.0059544
0.00635918
0.00533501
0.00371411
0.00380616
0.00393369
0.00403877
0.00433567
0.00460586
0.00493613
0.00525023
0.00477225
0.00396207
0.00299814
0.00206198
0.00203343
0.00202294
0.00181653
0.00269215
0.00407401
0.00404741
0.00230032
0.00134044
0.00151541
0.00171097
0.00169412
0.00122962
0.000925326
0.00159394
0.00182277
0.00185237
0.0018065
0.00170572
0.00178248
0.00286259
0.00441012
0.00484599
0.00501929
0.00518329
0.00529919
0.00536376
0.00538433
0.00539585
0.00540994
0.00542232
0.00544108
0.00542431
0.00530882
0.00466949
0.00293562
0.00171572
0.00159356
0.00175871
0.00189008
0.00200469
0.00170561
0.00104305
0.0016659
0.00213327
0.00245231
0.0024734
0.0023085
0.00223953
0.00353155
0.00469571
0.00553524
0.00570556
0.00578164
0.00571862
0.00571092
0.00558696
0.00554908
0.004867
0.00347884
0.00380297
0.00408306
0.00412939
0.00422451
0.00436754
0.00426654
0.00403181
0.00588903
0.00679735
0.00688441
0.00703023
0.00694662
0.00682672
0.00651709
0.00616318
0.00518857
0.00389106
0.00245527
0.0025065
0.00266823
0.00264259
0.00230021
0.00242352
0.00263045
0.00265686
0.00274394
0.00307744
0.00349561
0.00333474
0.00287012
0.00243754
0.00226951
0.00222142
0.00213093
0.00159558
0.00161984
0.00157503
0.00160126
0.00215134
0.00256046
0.00295295
0.00418797
0.0037357
0.00303792
0.0048178
0.00493752
0.00530572
0.00586164
0.00600673
0.00665602
0.00463014
0.00417241
0.00428585
0.00350082
0.0032403
0.00327469
0.003287
0.00306335
0.00335293
0.00332345
0.00320327
0.00353652
0.00389725
0.005139
0.00622703
0.00657015
0.00676859
0.00685042
0.0068261
0.0066952
0.006739
0.0059214
0.00591906
0.00566798
0.00550532
0.00544801
0.0051793
0.0059244
0.00614969
0.00622455
0.00637949
0.00662113
0.00643977
0.00624041
0.00608858
0.00597868
0.00586376
0.00592511
0.00603472
0.00615169
0.00631598
0.00653528
0.00657051
0.00634337
0.00617163
0.00605419
0.00594383
0.00594776
0.00604606
0.00616067
0.00632337
0.00653112
0.00641496
0.00625353
0.00610971
0.00599178
0.00588794
0.00568163
0.00581827
0.00596855
0.00609224
0.0061722
0.00533289
0.00570082
0.00560312
0.00507326
0.00474862
0.00360609
0.00390253
0.00411516
0.0044821
0.00497487
0.00507139
0.00425539
0.00364667
0.00355328
0.00352458
0.00360763
0.00363754
0.0036554
0.00413053
0.00622442
0.00626752
0.00628604
0.00628927
0.00537786
0.00522501
0.0048669
0.00890234
0.00828879
0.00718058
0.00591877
0.00317093
0.00271793
0.0032196
0.00391556
0.00437788
0.00483195
0.00320759
0.00198699
0.00231586
0.00240115
0.0023424
0.00216492
0.0018031
0.00166449
0.00151079
0.00162603
0.00287983
0.00459563
0.00517659
0.00523166
0.00517991
0.00507931
0.00495705
0.00478668
0.00471781
0.00593688
0.00802263
0.0090812
0.00904714
0.00777142
0.00633148
0.00356817
0.00183484
0.00134502
0.00145602
0.0016003
0.00188067
0.00167513
0.00140676
0.00154156
0.00146198
0.00296264
0.0051152
0.00652636
0.0077425
0.00761127
0.00660722
0.00541327
0.00513733
0.00525843
0.00533861
0.00540763
0.00547847
0.00552708
0.00549631
0.00500276
0.00309076
0.00184488
0.00163905
0.00176237
0.00206547
0.00219495
0.00221744
0.00218663
0.00189551
0.0031347
0.00497841
0.00316584
0.00172732
0.0018664
0.00185277
0.00326859
0.00326358
0.00319297
0.00496798
0.00525316
0.00524081
0.00492391
0.00470026
0.00278265
0.00315832
0.003169
0.0031859
0.00323834
0.00163549
0.0017828
0.00183836
0.00197901
0.0017318
0.00219811
0.000568846
0.000788371
0.000915922
0.000995743
0.0010727
0.00105224
0.00201257
0.00204202
0.00194923
0.00189872
0.00240989
0.0025859
0.00264294
0.00243418
0.00224616
0.00239126
0.00239653
0.00225852
0.00213932
0.00221818
0.00221964
0.0021268
0.00180894
0.00169508
0.00186111
0.00184116
0.00182646
0.00328065
0.00327487
0.00309904
0.00509259
0.00501057
0.00561206
0.00557507
0.00556778
0.00554479
0.00560427
0.00563583
0.00566007
0.00568814
0.00567718
0.00562264
0.00784402
0.00552947
0.00482511
0.0027902
0.00268757
0.00189785
0.00166318
0.00195841
0.00209457
0.00227078
0.00221937
0.00233985
0.00233706
0.00247989
0.00230193
0.00204411
0.00313101
0.00334504
0.00326722
0.00333201
0.00325369
0.0032347
0.00321077
0.00316497
0.00310984
0.00185141
0.00181596
0.00212646
0.00223214
0.00239843
0.00242029
0.00247277
0.00234536
0.00206284
0.00199686
0.00229954
0.00226858
0.0023125
0.00218032
0.00217147
0.00193467
0.00198364
0.00400279
0.00740035
0.00380209
0.00422371
0.00382547
0.00435161
0.0038109
0.00328606
0.00336304
0.00296192
0.00308958
0.00324089
0.00329945
0.00346764
0.00408732
0.00393518
0.00345437
0.00335416
0.00328813
0.00310022
0.00279046
0.00292333
0.00294972
0.003013
0.00334845
0.00384178
0.00430675
0.00523471
0.00507972
0.00444941
0.00406798
0.00426664
0.00433989
0.00546446
0.00510533
0.0050749
0.00535313
0.00529989
0.00503083
0.00476732
0.00460183
0.0039498
0.00401479
0.00459632
0.0044474
0.00458333
0.00450301
0.00468093
0.00476543
0.00457423
0.00425092
0.00446749
0.00445782
0.00495139
0.00481603
0.00446686
0.0040877
0.00436799
0.00431432
0.0049849
0.00469309
0.0043893
0.00403945
0.00386868
0.0043911
0.00431106
0.00488953
0.00503051
0.00503285
0.00438677
0.00428504
0.00509752
0.00490489
0.00473682
0.00493393
0.00408513
0.00420199
0.00517786
0.00528632
0.00501474
0.0041856
0.00424986
0.00364359
0.00428587
0.00533569
0.0050391
0.00412968
0.00342599
0.00479504
0.0050455
0.00533915
0.00504538
0.00549651
0.00592206
0.00482518
0.0052502
0.00686353
0.00523354
0.006074
0.00620925
0.00624652
0.00625052
0.00627559
0.006308
0.00664726
0.00646969
0.00410929
0.0049161
0.00477235
0.00398955
0.00339014
0.003735
0.00402274
0.00408085
0.00418436
0.00434398
0.00427027
0.00413232
0.00604521
0.00689391
0.00704865
0.0071887
0.00706862
0.00688948
0.00648267
0.00598447
0.00495803
0.0036968
0.00230468
0.00234965
0.00250485
0.00248158
0.002154
0.00162625
0.00106767
0.00158396
0.00163429
0.00153615
0.00139705
0.00122784
0.00126075
0.00232554
0.00480927
0.00637475
0.00700036
0.00751685
0.00808082
0.00860223
0.00899492
0.00928318
0.00948351
0.00961048
0.00963707
0.00945442
0.00864363
0.0082707
0.0078066
0.00742563
0.00688517
0.00643517
0.0072737
0.00798092
0.00841318
0.00890083
0.00912412
0.00902733
0.00783806
0.00762461
0.00879205
0.0108225
0.00921065
0.0115676
0.0135781
0.0105889
0.00950722
0.00948296
0.0105909
0.0107921
0.0104148
0.00982674
0.0091533
0.00829971
0.00873304
0.00912103
0.00948983
0.00983113
0.0107258
0.0108894
0.0108081
0.0106323
0.0104064
0.0101024
0.00962987
0.00896493
0.00819087
0.0074382
0.00657411
0.00481875
0.0021422
0.00254376
0.00248651
0.00280578
0.00265717
0.00117172
0.00127078
0.00128593
0.00129281
0.00122317
0.00138727
0.00201564
0.00327055
0.0023605
0.00193322
0.00134659
0.00159686
0.0026698
0.00454781
0.00513376
0.00521737
0.0053088
0.00716565
0.00796315
0.00842609
0.00879924
0.00901901
0.00890467
0.00862989
0.00813992
0.00756033
0.00731447
0.00692322
0.0065525
0.00634343
0.00612313
0.00575269
0.0045519
0.00431622
0.00449131
0.00444425
0.00425665
0.00454414
0.00470544
0.0046991
0.00474922
0.00479321
0.00493332
0.00509871
0.00524278
0.00531832
0.00534639
0.00535546
0.00536693
0.00537634
0.00539359
0.00537613
0.00525914
0.00461853
0.00288861
0.00168629
0.00155908
0.00170942
0.00180769
0.00184972
0.00164247
0.00105715
0.00164295
0.00212634
0.00218084
0.00239239
0.00246781
0.00261633
0.00291508
0.00336878
0.00347617
0.00308515
0.00292286
0.00286011
0.0027871
0.0023788
0.00296363
0.0032762
0.00327074
0.00324029
0.00350173
0.00430918
0.00413933
0.00364987
0.00360841
0.00357124
0.00322189
0.00317073
0.00347343
0.00351248
0.00364529
0.00427556
0.00512813
0.00475692
0.00433125
0.00414934
0.00383006
0.00336288
0.00303959
0.00377076
0.00310494
0.00159753
0.00135387
0.00136492
0.00136365
0.0013078
0.00154638
0.00162441
0.00164542
0.00153559
0.00170751
0.00190299
0.00184553
0.00210058
0.00206659
0.00184078
0.00182012
0.00198426
0.00210826
0.0021693
0.00221868
0.00362712
0.00373008
0.00289722
0.00420047
0.00484817
0.00485716
0.00514666
0.00422056
0.00376943
0.00447683
0.00519662
0.00599918
0.00472601
0.00445605
0.00457636
0.00208874
0.00109878
0.00155091
0.0019249
0.00214124
0.00207522
0.00196066
0.00165794
0.00294682
0.00302528
0.00479998
0.00538382
0.00544802
0.00540335
0.00552217
0.00612898
0.00718647
0.00790999
0.00812013
0.00799594
0.00766275
0.00704775
0.00645138
0.00639034
0.0061666
0.00598687
0.00592721
0.00516912
0.00453592
0.00482365
0.00475726
0.00491487
0.00498708
0.00503867
0.00509151
0.00518135
0.00529014
0.00538881
0.00545644
0.00550177
0.0055405
0.00558056
0.00562108
0.00566494
0.00568898
0.00563596
0.00509476
0.0030575
0.00182319
0.00166334
0.00177477
0.00208589
0.0021962
0.00236045
0.00209627
0.00110406
0.00129807
0.00225608
0.00250112
0.00231385
0.00216554
0.00212712
0.00178187
0.00322709
0.00318505
0.00499715
0.00561844
0.00569524
0.0056775
0.0056315
0.00557992
0.00553198
0.00549302
0.00546263
0.00543089
0.0053856
0.00533207
0.00527889
0.00522369
0.00513165
0.00499642
0.00487994
0.00509408
0.00521395
0.00542677
0.00569526
0.005844
0.00574017
0.00556092
0.00546192
0.00548193
0.00553022
0.00558205
0.00562923
0.00565355
0.00559325
0.00527358
0.00495003
0.00313555
0.00317659
0.00156346
0.00173688
0.00200408
0.00206961
0.00224834
0.00223821
0.00175992
0.00137077
0.001546
0.00144523
0.00258221
0.00283911
0.00314817
0.00311699
0.00169309
0.00173618
0.0018043
0.00203568
0.00189227
0.00182901
0.00451455
0.0043212
0.00452329
0.00555373
0.00478351
0.0033033
0.00362312
0.00504011
0.00531531
0.00321469
0.00240964
0.00267503
0.00338872
0.00498651
0.0050487
0.00479634
0.00477011
0.00348488
0.00428268
0.00515058
0.00501006
0.003909
0.00269376
0.00200484
0.000974584
0.00185391
0.00158564
0.00388381
0.00429788
0.00424756
0.0046452
0.00493476
0.00498538
0.00484475
0.00429642
0.00438176
0.00442494
0.00504171
0.00506464
0.00428714
0.00361808
0.00293844
0.00296467
0.0030222
0.00334963
0.0041944
0.00395151
0.00346319
0.00335824
0.00328579
0.00309098
0.00278934
0.00244705
0.00246393
0.00229343
0.00221964
0.00349919
0.00465825
0.00549369
0.00565223
0.00571002
0.00562281
0.00558325
0.00542365
0.00534102
0.00464009
0.00592251
0.0062585
0.00603936
0.00608425
0.00612236
0.00616908
0.00617006
0.00605412
0.00520214
0.00310667
0.0020293
0.00229058
0.00247237
0.00232164
0.00230864
0.00246057
0.00233478
0.00205077
0.00332251
0.00324724
0.00519186
0.00587952
0.00600486
0.00601166
0.00598729
0.00596705
0.00597476
0.00629003
0.00614992
0.00624393
0.00658851
0.00659808
0.00667655
0.00626766
0.006187
0.00613508
0.00610007
0.00604367
0.00589447
0.0052154
0.00505663
0.00574333
0.0059212
0.00600058
0.00605578
0.00612147
0.00620722
0.00645348
0.00663689
0.00670689
0.00642262
0.00631424
0.00616488
0.00595509
0.00590547
0.00589563
0.00589112
0.00586304
0.00571201
0.00502872
0.00323379
0.00331384
0.00197148
0.00198439
0.00228572
0.00240079
0.00235803
0.00218374
0.00212916
0.0036624
0.00416913
0.00443427
0.00477724
0.00456322
0.00453682
0.00518595
0.00501866
0.00447616
0.00465728
0.004175
0.00397829
0.0038481
0.00386915
0.00203555
0.00219641
0.00229091
0.00225283
0.00215413
0.00192121
0.00176172
0.00321476
0.00319135
0.00315003
0.00187338
0.00183244
0.00215892
0.00209672
0.00191816
0.00163507
0.00179235
0.00276705
0.0030947
0.00479769
0.00496903
0.00531883
0.00568656
0.00582518
0.0058628
0.00588585
0.00591204
0.00596865
0.00603623
0.0060574
0.00606045
0.00612169
0.00611191
0.00611376
0.00608224
0.00604545
0.00600206
0.00595536
0.00587864
0.00572123
0.0053453
0.00497709
0.00561143
0.0056638
0.00577012
0.00587985
0.0059268
0.00593428
0.00591266
0.00586917
0.0058172
0.00575744
0.00575415
0.00591003
0.00594736
0.00597387
0.00595356
0.00593145
0.00592376
0.00589741
0.00585547
0.00574844
0.00564121
0.00559556
0.00550275
0.00564884
0.00571305
0.00572175
0.00577565
0.005863
0.0058882
0.00588783
0.00584544
0.00581071
0.00576574
0.00569019
0.00558963
0.00525979
0.00533308
0.00542455
0.00554457
0.00566038
0.00575385
0.00580645
0.00581022
0.00575691
0.00572069
0.00572152
0.00567253
0.00569767
0.00572413
0.00569543
0.00569217
0.00569611
0.00563025
0.00551135
0.00534623
0.00517211
0.00502984
0.00496039
0.00484236
0.00521108
0.0053601
0.0054913
0.00560648
0.00571069
0.00581617
0.00584805
0.00583615
0.0057719
0.00573588
0.00573541
0.00568133
0.0056778
0.00572995
0.0057312
0.00576154
0.00581749
0.00580253
0.00572664
0.00552738
0.00533445
0.00516695
0.00500625
0.0048332
0.00481424
0.00489315
0.0048201
0.00488023
0.0050471
0.0052593
0.00544352
0.00556245
0.00560035
0.00563535
0.00568649
0.00568047
0.00564962
0.00563317
0.00556395
0.00550353
0.00542929
0.0052675
0.00506239
0.00488355
0.00483152
0.0049337
0.00503188
0.00493974
0.00456876
0.00474997
0.00492002
0.00508807
0.00532816
0.00560623
0.00572618
0.00576801
0.00573987
0.00571832
0.00571613
0.00566671
0.00564865
0.0056942
0.00569744
0.00571969
0.00575646
0.00572191
0.00562408
0.00528229
0.0048772
0.00468377
0.00457048
0.00441443
0.00496391
0.00506875
0.00494281
0.00485774
0.00498707
0.00513602
0.00529149
0.00539489
0.00543564
0.00549426
0.00557172
0.00560871
0.00555328
0.00548934
0.00541053
0.00537077
0.0053726
0.00534822
0.00524862
0.00513073
0.00499131
0.00515966
0.0052605
0.0051649
0.00465417
0.00472952
0.00483985
0.00489958
0.0052808
0.00561802
0.00569733
0.00569962
0.00566484
0.00564229
0.00564379
0.00561546
0.00556061
0.00554916
0.00554254
0.00560649
0.00569054
0.00573609
0.00575744
0.00550415
0.00505449
0.00499185
0.00478674
0.00469199
0.00523466
0.0052952
0.00516943
0.00505599
0.00529949
0.00540223
0.00543012
0.00540707
0.00534826
0.00530897
0.00537618
0.00548293
0.00540129
0.00505145
0.00474063
0.00490214
0.00494282
0.00493147
0.00486529
0.00475382
0.00451133
0.00504
0.00555852
0.00559859
0.00502847
0.00503554
0.00487663
0.00452654
0.00495944
0.00519397
0.00524698
0.00522877
0.00515059
0.00495701
0.00523864
0.00548639
0.00544053
0.00492297
0.00319412
0.00323861
0.00326236
0.00326626
0.00322464
0.00321355
0.00316795
0.00314489
0.00307363
0.00300167
0.00293192
0.0031264
0.00329116
0.00351474
0.00353405
0.00362712
0.00347828
0.00329682
0.00308179
0.00240261
0.00304793
0.00363509
0.00385984
0.00414996
0.00420983
0.00484482
0.00509258
0.00522659
0.00512706
0.00411306
0.00348933
0.00278884
0.00181382
0.00113036
0.00132733
0.00138116
0.00145841
0.00179354
0.00329213
0.00168532
0.00233285
0.00182204
0.00313653
0.00166683
0.00103855
0.000689114
0.00088276
0.00105358
0.00106662
0.00102074
0.000850146
0.000667954
0.000682662
0.000636006
0.000675517
0.00060524
0.000692692
0.000643355
0.000882486
0.00127953
0.00149725
0.00153579
0.00124383
0.00140763
0.00117639
0.00135955
0.0012156
0.00132591
0.00127238
0.00155636
0.00170566
0.00163221
0.0016358
0.00143138
0.00100108
0.00116063
0.000911958
0.00109539
0.000838338
0.00108195
0.000928004
0.00120591
0.00124308
0.00123942
0.00119324
0.000911505
0.00108046
0.000851077
0.00105133
0.000866119
0.000930871
0.00077606
0.00113027
0.00115238
0.00106146
0.00113332
0.00127398
0.00136417
0.00149378
0.00140649
0.0015939
0.00153263
0.00154391
0.0014628
0.00142303
0.00139089
0.00139418
0.00137136
0.00137868
0.00142278
0.00142433
0.00142938
0.00147353
0.00145186
0.00141568
0.00139334
0.0012381
0.00100004
0.00174226
0.00179669
0.001825
0.00182569
0.00178656
0.00176488
0.00169994
0.00168332
0.00162813
0.00159806
0.00152508
0.00146779
0.00140052
0.0015752
0.000882359
0.00100208
0.00105778
0.00109003
0.00111136
0.00112156
0.00112879
0.00112209
0.00110755
0.00108101
0.0010729
0.00104363
0.00133428
0.00151789
0.00158842
0.00160811
0.00150732
0.0014362
0.00315757
0.00382592
0.00580027
0.00592805
0.00445855
0.00444163
0.00153107
0.00162104
0.00110728
0.00155602
0.00160482
0.00158853
0.00150037
0.00108211
0.00162426
0.00113321
0.00152382
0.00114909
0.00141304
0.00118544
0.00170068
0.00217438
0.0021044
0.00190921
0.00132219
0.00110352
0.00111368
0.000950405
0.00104213
0.000845399
0.0010265
0.000855543
0.00124046
0.00171961
0.00193874
0.00198052
0.0015633
0.00215901
0.00162403
0.00235504
0.00187483
0.0023174
0.00186201
0.00215235
0.00266368
0.00267625
0.00261276
0.00210583
0.00168507
0.00189235
0.00167555
0.00193117
0.00279517
0.0018315
0.00278847
0.00115085
0.00156933
0.00161833
0.00159677
0.00150606
0.00101468
0.00258189
0.00136684
0.0024251
0.00157018
0.00250904
0.001834
0.00244802
0.00292918
0.00307168
0.00306602
0.00250373
0.0022648
0.00235721
0.00188344
0.00226302
0.00167536
0.00242457
0.00136207
0.00176041
0.00193212
0.0020376
0.00204273
0.00167417
0.00331334
0.00208298
0.0031449
0.00219058
0.00280868
0.00225183
0.00246004
0.00290638
0.00288768
0.00286257
0.00242715
0.00196618
0.00259652
0.00184962
0.0557632
0.128348
0.0512703
0.129793
0.0586523
0.0833109
0.0820758
0.0822343
0.0825594
0.0620141
0.13535
0.159835
0.166622
0.168626
0.167369
0.270431
0.220549
0.331248
0.214669
0.126551
0.0550357
0.0757582
0.195087
0.321855
0.483078
0.613019
0.417802
0.432536
0.276018
0.272191
0.256362
0.207496
0.127338
0.0639044
0.0109195
0.0119239
0.0170755
0.0227563
0.0178244
0.0108544
0.0021458
0.00221316
0.00226163
0.00229089
0.00228041
0.00222844
0.00225939
0.00212867
0.0019953
0.00222541
0.00242768
0.00272014
0.00317298
0.00349656
0.00314785
0.0034475
0.00365265
0.00381958
0.00395759
0.00416374
0.00439613
0.00460075
0.00461151
0.00422502
0.00360051
0.00292813
0.00246054
0.00233097
0.00218888
0.00193029
0.00176579
0.00165322
0.001599
0.00157661
0.00162028
0.00177075
0.00190129
0.00194705
0.00190874
0.0018738
0.00184332
0.00164143
0.00191915
0.00263258
0.00265346
0.00454615
0.00523867
0.00534777
0.0053554
0.00474779
0.00303326
0.00304014
0.00305585
0.00311472
0.00312711
0.00313593
0.00313284
0.00312256
0.0031045
0.00307114
0.00305429
0.0030051
0.00296346
0.00285936
0.00286406
0.00290236
0.00293186
0.00288403
0.00289654
0.00283428
0.00366954
0.00490982
0.00554908
0.00580029
0.00601648
0.00584005
0.00808695
0.00691096
0.00486371
0.00479887
0.00473714
0.00562387
0.00566147
0.00509248
0.00510996
0.00466565
0.00290778
0.00289261
0.00289415
0.00309207
0.00315146
0.00325902
0.00328831
0.00331508
0.00333076
0.00332542
0.00332348
0.00329539
0.00327365
0.00320076
0.00317636
0.00316638
0.00174599
0.00190522
0.00197562
0.00198851
0.00201656
0.00200466
0.00199307
0.00196926
0.00195316
0.00192082
0.00188296
0.00182806
0.00171969
0.00156749
0.00172659
0.00293366
0.00293465
0.00479837
0.00539814
0.00543882
0.00607907
0.00576993
0.00546546
0.00587176
0.00528021
0.00523403
0.00473864
0.00294091
0.00298008
0.00176736
0.00174907
0.00204382
0.00198526
0.00212107
0.00217783
0.00218397
0.00221341
0.00224276
0.00227828
0.00233396
0.00235035
0.00231436
0.00230781
0.00217511
0.00188024
0.0019031
0.00224263
0.00235071
0.00218256
0.00214384
0.00212788
0.00207769
0.00203841
0.00200025
0.00202721
0.00218364
0.00218331
0.00214642
0.00204461
0.00199377
0.00173127
0.00167613
0.00292237
0.00294463
0.0048239
0.00498781
0.00497548
0.00572915
0.00638023
0.00725629
0.00618939
0.00501713
0.00513397
0.00586065
0.00433784
0.00358686
0.0021293
0.00164647
0.00197932
0.00193121
0.00200838
0.00208086
0.00184698
0.00198115
0.00183037
0.00166278
0.00165311
0.00165069
0.00169172
0.00170873
0.00173954
0.00174354
0.00178416
0.00177992
0.00178477
0.00180652
0.00181648
0.00200698
0.00218165
0.00183585
0.00155661
0.00151629
0.00143189
0.00136337
0.00139683
0.00136452
0.0013564
0.00133171
0.00130937
0.00124948
0.00130255
0.00138248
0.0016177
0.00155009
0.00125264
0.00111891
0.000765022
0.000779157
0.000784545
0.000808763
0.00081749
0.000828251
0.000832198
0.000845668
0.000848225
0.000852414
0.000852037
0.000872075
0.000869003
0.000858894
0.000852392
0.000856738
0.000860741
0.00086006
0.00125915
0.00140199
0.00153151
0.001819
0.00214137
0.00184278
0.00156174
0.00134654
0.000865775
0.000878963
0.000894988
0.000903317
0.000922425
0.000939941
0.00095941
0.000971814
0.000981105
0.00099097
0.00100127
0.00100567
0.00100334
0.000984376
0.000973095
0.000998342
0.00109741
0.00115497
0.00122853
0.00125643
0.00128094
0.00129363
0.00128697
0.00130003
0.00128421
0.00128191
0.00125925
0.00124947
0.00123984
0.00122808
0.00121363
0.00117868
0.00116688
0.00122801
0.00207628
0.00271431
0.00312828
0.00344697
0.00316699
0.0025503
0.0027032
0.0047353
0.00446823
0.00265609
0.00247028
0.00226786
0.0019644
0.00177125
0.00214342
0.0024414
0.0026682
0.00286901
0.00305259
0.00317708
0.00333712
0.00354598
0.00391565
0.00396198
0.00361371
0.00292773
0.00247759
0.00231334
0.00223476
0.00209841
0.0019495
0.00199848
0.00201301
0.0019532
0.00187894
0.00185795
0.00188871
0.00192805
0.00190497
0.00190434
0.00170142
0.00170083
0.00290642
0.00296099
0.00455482
0.00479939
0.00484625
0.00311555
0.00307313
0.00179499
0.00166725
0.00181894
0.00188847
0.00189256
0.00190052
0.00189116
0.00185829
0.00183431
0.00180616
0.00178341
0.00176326
0.00172847
0.00166205
0.00153544
0.00167338
0.00187583
0.00195868
0.00198003
0.00199031
0.00202155
0.00207322
0.00211428
0.00220965
0.00221895
0.00221779
0.00222543
0.00207982
0.00214464
0.00181496
0.00181213
0.00314096
0.0031321
0.00179933
0.00212468
0.00213943
0.00211516
0.00227751
0.00208415
0.00201833
0.00200808
0.00192342
0.00187835
0.00181789
0.00178204
0.00181708
0.00193327
0.00187219
0.0016597
0.00160027
0.00179439
0.00172571
0.00143155
0.0012229
0.00118916
0.00113824
0.00110735
0.00116062
0.00120229
0.00122602
0.00125608
0.00126495
0.00132003
0.00128415
0.00134724
0.00142871
0.00149348
0.00177138
0.00191991
0.00173444
0.00170135
0.00168028
0.00167887
0.00168431
0.00161519
0.00161066
0.00157487
0.0015572
0.00151016
0.00148903
0.00146218
0.00146705
0.0014826
0.00163006
0.00419931
0.00535431
0.00557579
0.0095315
0.00384758
0.00392911
0.00772336
0.00318413
0.00479355
0.0051379
0.00537017
0.00560858
0.00513308
0.00652699
0.00455109
0.00506765
0.00528609
0.00464327
0.00173023
0.00195716
0.00226567
0.00202856
0.00179191
0.00122131
0.00131694
0.0013601
0.00139516
0.00141792
0.00144319
0.00147021
0.00149554
0.00151323
0.0015134
0.00146724
0.00141754
0.00130343
0.00126542
0.00131433
0.00136486
0.00119859
0.00112853
0.0011418
0.00116049
0.00117096
0.00117312
0.00118454
0.00118756
0.00120561
0.00119587
0.00120492
0.00118424
0.00119458
0.00117909
0.001139
0.00108254
0.000986755
0.000963384
0.00138766
0.00147779
0.00155244
0.00176212
0.00203514
0.00217188
0.0019469
0.00179576
0.00172375
0.00191205
0.0019131
0.00347945
0.00668396
0.00298943
0.00334794
0.00976538
0.00388103
0.0030165
0.00306184
0.00309394
0.0030984
0.00180044
0.00213225
0.00206719
0.00207615
0.00176102
0.00147871
0.00132639
0.00118594
0.00080437
0.000801787
0.000807836
0.000820323
0.000824226
0.000789049
0.000788962
0.000784486
0.000782747
0.000766144
0.000761518
0.000748
0.000739802
0.000720302
0.000709763
0.000691255
0.000687958
0.000717145
0.000797216
0.000963432
0.00107303
0.00121959
0.00124199
0.00139873
0.00347646
0.00402603
0.00555285
0.00550149
0.00867729
0.00542047
0.00409298
0.00369968
0.00541546
0.00559753
0.00520219
0.00704508
0.0048727
0.00322614
0.00484842
0.00403085
0.00479569
0.00469881
0.00498141
0.00790138
0.00830624
0.00233769
0.00208372
0.00219197
0.0024872
0.00295345
0.00271969
0.0030983
0.00309536
0.00238871
0.00152352
0.00485611
0.00587461
0.00471034
0.00565153
0.00870603
0.00349795
0.00341153
0.00301824
0.00251893
0.00228917
0.00225861
0.00251873
0.00301435
0.00755586
0.00808146
0.00744555
0.00742612
0.0067469
0.0074269
0.00924851
0.00920065
0.00812766
0.00760119
0.00787295
0.00488814
0.00304172
0.00353659
0.00391882
0.00522988
0.00539346
0.0113779
0.00386679
0.00426756
0.00433282
0.00579545
0.00561748
0.00990904
0.00420971
0.00453452
0.00597656
0.00798006
0.0146857
0.00537707
0.00565424
0.00812707
0.00825117
0.0075457
0.00546306
0.00494807
0.00538591
0.00405769
0.00396788
0.00338739
0.0050008
0.00672269
0.00532384
0.00516917
0.00439391
0.00392119
0.00400708
0.00415837
0.00345494
0.00340716
0.00393134
0.00293011
0.00282366
0.00299245
0.000829296
0.000425012
0.000434513
0.000445846
0.000455021
0.000464485
0.000471379
0.000479577
0.000483228
0.000483653
0.000484939
0.000512698
0.000507869
0.000491791
0.000446558
0.000509504
0.000808558
0.000809041
0.000508858
0.000448582
0.000804959
0.00128248
0.00151182
0.00178825
0.00181015
0.00156199
0.00135444
0.000833859
0.000820746
0.000497453
0.000580992
0.000630938
0.000559668
0.000624654
0.000579011
0.000613269
0.000619805
0.000573616
0.000570353
0.000572532
0.000568218
0.000558106
0.00054576
0.000530664
0.000518778
0.000512219
0.000507127
0.000496073
0.000412408
0.000384381
0.000462117
0.000736734
0.000735666
0.000689585
0.000650197
0.000616599
0.000601347
0.000597158
0.000593942
0.000604342
0.000623824
0.000629348
0.000634964
0.000684065
0.000662443
0.000707518
0.000664031
0.000709367
0.000665762
0.000612448
0.000514242
0.000530533
0.00085593
0.000865024
0.00139734
0.00159825
0.00181225
0.00182133
0.0020334
0.00214177
0.00181404
0.00188328
0.00215796
0.00200955
0.00179087
0.00179803
0.00161719
0.00161896
0.00143438
0.00089659
0.000884457
0.000555435
0.00053946
0.000643244
0.00063204
0.000702919
0.000752324
0.000752589
0.000750179
0.00073166
0.000724951
0.000637565
0.000624967
0.0006258
0.000606889
0.00060274
0.00062832
0.000685498
0.000804514
0.0009732
0.00105975
0.00109676
0.00105186
0.000941875
0.000695168
0.000628144
0.00108883
0.00113012
0.00202524
0.00481485
0.00223536
0.00427289
0.00308254
0.000766402
0.000855015
0.00109028
0.00122162
0.00131888
0.00137477
0.00125642
0.00104816
0.000789066
0.000651816
0.00097369
0.00084198
0.00095095
0.000830449
0.00107472
0.00124257
0.00120202
0.00121102
0.0010234
0.000833627
0.000882817
0.000792512
0.000873494
0.000731351
0.000879899
0.000794411
0.000998256
0.00100763
0.000986661
0.000935221
0.000712088
0.000747159
0.000626739
0.000679943
0.000610508
0.000631083
0.000598003
0.000697399
0.000803651
0.000771333
0.000768354
0.000631355
0.000494785
0.000546515
0.000472757
0.000535091
0.000416002
0.000503905
0.000422515
0.00054699
0.000563851
0.000566716
0.000562962
0.000458011
0.000538817
0.00066018
0.000693336
0.00069909
0.000665685
0.000513407
0.000794207
0.00071622
0.00087445
0.000756132
0.000827905
0.000753844
0.000878634
0.00112528
0.00117486
0.00118264
0.000959543
0.000953484
0.00174064
0.096558
0.00156578
0.00185072
0.00190853
0.00190173
0.00157235
0.00153394
0.00190019
0.00140546
0.00199058
0.00125349
0.00212337
0.000809323
0.00123024
0.00132082
0.00131797
0.00122483
0.000821399
0.00242887
0.119262
0.308123