/*--------------------------------*- C++ -*----------------------------------*\
| =========                 |                                                 |
| \\      /  F ield         | OpenFOAM: The Open Source CFD Toolbox           |
|  \\    /   O peration     | Version:  v2012                                 |
|   \\  /    A nd           | Website:  www.openfoam.com                      |
|    \\/     M anipulation  |                                                 |
\*---------------------------------------------------------------------------*/
FoamFile
{
    version     2.0;
    format      ascii;
    class       volScalarField;
    location    "1035";
    object      epsilon;
}
// * * * * * * * * * * * * * * * * * * * * * * * * * * * * * * * * * * * * * //

dimensions      [0 2 -3 0 0 0 0];


internalField   nonuniform List<scalar> 
18258
(
0.0240759
0.0122732
0.0091539
0.00720706
0.0126686
0.0125585
0.0130155
0.0173538
0.0241666
0.0370007
0.053563
0.0481435
0.0435234
0.0452682
0.0474409
0.045019
0.0350831
0.0303497
0.0400719
0.0667347
0.0607082
0.0496612
0.0606615
0.0514212
0.0660047
0.0835555
0.0640895
0.0575165
0.0515906
0.0485486
0.0420956
0.0244012
0.0342549
0.052726
0.0723103
0.0792062
0.0850428
0.0899596
0.0950987
0.0972313
0.0974744
0.0922222
0.0829863
0.0677119
0.0495761
0.0378406
0.0288538
0.0322546
0.0451787
0.0454388
0.0559993
0.0859236
0.108322
0.0811229
0.0518535
0.0826961
0.112728
0.144506
0.170989
0.193388
0.201046
0.197568
0.185995
0.169236
0.147776
0.122788
0.101805
0.0848934
0.0671157
0.0573231
0.046379
0.0384709
0.0329064
0.0292474
0.0270465
0.0253207
0.0241557
0.0250858
0.0249717
0.017809
0.0140092
0.0131602
0.00941498
0.00782537
0.00814241
0.0077467
0.0080473
0.00710492
0.00608431
0.00528085
0.00447625
0.00651562
0.00700876
0.00724958
0.00726826
0.00779131
0.00804558
0.00777964
0.00787379
0.00720298
0.00745387
0.0119365
0.0136989
0.0173805
0.0155384
0.010786
0.00906626
0.0101109
0.0107319
0.0133442
0.012562
0.0133429
0.0118353
0.0108062
0.00912533
0.00886218
0.00909767
0.0096705
0.0100745
0.0116806
0.0115111
0.0106763
0.011809
0.0130292
0.0127556
0.0122088
0.0116249
0.0142669
0.0114679
0.0121523
0.0136503
0.021994
0.0215207
0.0260097
0.0255319
0.0259748
0.0261582
0.0315443
0.0316654
0.0320393
0.0323588
0.0340841
0.0570972
0.050873
0.0497671
0.0495736
0.0428955
0.0424292
0.0417364
0.042551
0.0360733
0.0347246
0.0314883
0.0311264
0.0347309
0.0438641
0.0613477
0.0886009
0.122542
0.158882
0.189159
0.210167
0.231911
0.237392
0.251313
0.256081
0.25703
0.251389
0.243006
0.233572
0.220761
0.202258
0.189452
0.148977
0.105466
0.059275
0.0787188
0.090821
0.100588
0.102428
0.103523
0.099352
0.0929971
0.0817401
0.0660979
0.042911
0.0491406
0.0664382
0.0686321
0.0692872
0.0549145
0.0527849
0.0489434
0.0488691
0.0640938
0.0736953
0.0620084
0.0858708
0.100829
0.0881166
0.0638293
0.0977975
0.144091
0.0810991
0.0690923
0.0536777
0.0527167
0.0445983
0.0373424
0.0626502
0.0937825
0.129361
0.150839
0.172831
0.190637
0.204065
0.21828
0.189729
0.172325
0.115894
0.203411
0.154741
0.0783498
0.058132
0.0571248
0.0429751
0.0495664
0.0551526
0.0511977
0.0391622
0.0274034
0.0252481
0.0465787
0.064961
0.0785822
0.0625638
0.0796148
0.0897988
0.0970671
0.102449
0.129742
0.0954763
0.106658
0.0767102
0.103994
0.0739839
0.0477868
0.0528267
0.101148
0.161571
0.221825
0.259171
0.147899
0.0749604
0.0557502
0.0561217
0.0537988
0.0485022
0.0602112
0.107057
0.0720567
0.0468136
0.0406934
0.0481504
0.0407895
0.0303835
0.0317824
0.0395073
0.0551701
0.06995
0.0828938
0.126424
0.12212
0.147447
0.155049
0.130568
0.126095
0.0814082
0.0836783
0.123555
0.0920407
0.0744194
0.104419
0.147519
0.201691
0.247969
0.288358
0.314217
0.303696
0.274789
0.173803
0.0760962
0.0229044
0.0177988
0.0168411
0.0173147
0.0105213
0.00629974
0.00585299
0.00666954
0.0070158
0.00591242
0.00544129
0.00543186
0.00578012
0.0101781
0.0087464
0.0108222
0.0131121
0.0156593
0.0187024
0.01943
0.0128922
0.00872662
0.00818961
0.00812562
0.00805702
0.00802789
0.00803978
0.0080804
0.00809657
0.0080646
0.00798634
0.00784974
0.0077147
0.00765782
0.00829443
0.0111849
0.0153472
0.0148401
0.0135508
0.0121957
0.0110348
0.00870515
0.0151455
0.0128423
0.0109345
0.0133939
0.0165004
0.0208543
0.0245041
0.0176755
0.0141508
0.0128071
0.0126814
0.0125674
0.012613
0.0124909
0.0125565
0.0123589
0.012958
0.0135769
0.0169719
0.0189953
0.0211715
0.022668
0.0232489
0.023965
0.0211319
0.0229575
0.0227228
0.0235025
0.0233156
0.0226259
0.0207086
0.0189195
0.0176997
0.0191143
0.0236787
0.0323275
0.0267231
0.0207387
0.0167796
0.0137229
0.0149918
0.0166678
0.016843
0.0158561
0.0156274
0.0154199
0.0138994
0.0131116
0.0111066
0.0104955
0.0100324
0.0101819
0.014364
0.0135134
0.0137161
0.0144491
0.0155417
0.0146991
0.0151329
0.0142891
0.0145358
0.0149558
0.0170226
0.0185811
0.0178227
0.0165067
0.0160084
0.0137382
0.0158444
0.0157051
0.0170248
0.0186091
0.0190992
0.0190336
0.0183962
0.0167984
0.0186905
0.022059
0.0257107
0.0247108
0.0243899
0.020447
0.0192464
0.0202179
0.0214896
0.0223966
0.0224707
0.0223024
0.022391
0.0264022
0.0260523
0.0248453
0.0227665
0.0203112
0.0176641
0.0152093
0.0166831
0.0181638
0.0195553
0.0208251
0.0205864
0.0190596
0.0177011
0.0164711
0.0149786
0.0146896
0.016142
0.017363
0.0187931
0.0205058
0.0205796
0.0188686
0.0173753
0.0160946
0.0146219
0.0145725
0.0160715
0.017368
0.0187831
0.0202647
0.0196323
0.0184801
0.0172316
0.015991
0.0145399
0.0146067
0.0159271
0.0169941
0.0180755
0.0190233
0.019877
0.0179176
0.017009
0.0171034
0.0161172
0.0193017
0.0185438
0.0194851
0.0180323
0.0168063
0.0178106
0.0210008
0.0240341
0.0245841
0.0243041
0.0201708
0.0206267
0.0206048
0.0191874
0.0159647
0.0153674
0.0181391
0.0208778
0.0213399
0.0200309
0.0169277
0.0132888
0.0143097
0.0174716
0.019784
0.0185263
0.0183656
0.0169512
0.0158722
0.0161706
0.0138915
0.0166302
0.0267026
0.0241659
0.0221446
0.0196707
0.015663
0.0106047
0.0115046
0.0126623
0.0130791
0.0105725
0.00791731
0.00710964
0.00691651
0.00675836
0.00653964
0.00617092
0.0056128
0.00537581
0.0106103
0.0257913
0.0364524
0.0358136
0.0241015
0.0207723
0.0201189
0.0187862
0.00921929
0.00818752
0.00841996
0.0103769
0.00817028
0.00850391
0.0147513
0.010129
0.0138778
0.0107571
0.0146397
0.0229602
0.0217476
0.0144183
0.00801792
0.00689105
0.0073809
0.00766597
0.00786992
0.00806675
0.00830044
0.00868671
0.0100086
0.0157337
0.0203089
0.0177663
0.0167737
0.0153003
0.0188429
0.0213273
0.0232667
0.0260292
0.0160946
0.011785
0.0166336
0.0272595
0.0247458
0.0232879
0.0171533
0.017694
0.0171239
0.011011
0.0106668
0.0105878
0.0113991
0.0127843
0.0147081
0.0158722
0.0166231
0.0169544
0.0178674
0.0231381
0.0216534
0.0211419
0.017362
0.0134115
0.015398
0.0515865
0.0195697
0.0206874
0.0189073
0.0191756
0.0204584
0.0151583
0.0135166
0.0129437
0.0146486
0.0215349
0.0215405
0.0213995
0.0182568
0.0174716
0.0209056
0.0219995
0.0224033
0.0217806
0.021335
0.0194679
0.0166844
0.0181146
0.0196322
0.0208289
0.0228393
0.023183
0.0179641
0.0172403
0.0158441
0.0105513
0.0112941
0.00973022
0.00969801
0.00966101
0.00938583
0.00893653
0.0092262
0.00934587
0.00934555
0.00900001
0.00929772
0.00834196
0.00868054
0.00977209
0.0152184
0.014784
0.0175794
0.0194902
0.0167363
0.0155774
0.0142151
0.0131921
0.0154451
0.0142817
0.0168598
0.0212125
0.0265039
0.0191336
0.0181378
0.0179146
0.0175094
0.0173516
0.0174043
0.0167098
0.0157064
0.0151381
0.02359
0.0212881
0.0181647
0.0172155
0.0157821
0.0180355
0.0174781
0.0213777
0.0268627
0.0270675
0.0215453
0.0216232
0.0189656
0.0200711
0.022262
0.0271041
0.0270278
0.0144409
0.00959765
0.0154427
0.0157825
0.018392
0.0170079
0.0185355
0.019716
0.0204431
0.020303
0.0177016
0.018878
0.0196661
0.0206521
0.0185969
0.0165911
0.0173813
0.016159
0.0152592
0.0147584
0.0126832
0.0129296
0.0139011
0.0153523
0.0162932
0.0177878
0.0194432
0.0194736
0.0201424
0.0197362
0.0191395
0.0252416
0.0239977
0.0255397
0.0282551
0.0224572
0.0178196
0.0146944
0.0150075
0.0147735
0.0146812
0.0154223
0.0167824
0.0151595
0.01454
0.0170545
0.019416
0.0246879
0.0330601
0.0287938
0.0262196
0.0332319
0.0313949
0.0382508
0.0286844
0.0281551
0.020862
0.0262995
0.030518
0.0392223
0.0255269
0.0209666
0.0224238
0.0255459
0.0347954
0.0328057
0.0331748
0.0412128
0.0399815
0.0362155
0.0311907
0.0353778
0.0212612
0.0302095
0.0322416
0.0268291
0.02572
0.0307624
0.0310935
0.0330317
0.0283869
0.0267875
0.0179245
0.0274629
0.0314041
0.0331041
0.0278408
0.0205395
0.0280339
0.0205629
0.0191982
0.0203103
0.0137814
0.0127281
0.0148031
0.013874
0.0111996
0.0121517
0.0111719
0.0111595
0.0112413
0.011357
0.0114901
0.011747
0.0117138
0.0127346
0.0133404
0.0126296
0.0115538
0.0122061
0.0125622
0.0160745
0.0181623
0.0204288
0.0220229
0.0228697
0.0240225
0.0227457
0.0248184
0.0236915
0.0252104
0.0249171
0.0238312
0.0212793
0.0186191
0.0162029
0.0166744
0.0203002
0.0266826
0.0218747
0.016957
0.0137313
0.0113938
0.0126859
0.0158651
0.00857981
0.00778543
0.00745463
0.00723661
0.00701963
0.00609652
0.0055648
0.00909584
0.0132895
0.0165753
0.0206588
0.0263448
0.0322826
0.0373913
0.0413148
0.0442107
0.0460838
0.046625
0.0439294
0.0339096
0.029193
0.025099
0.0207713
0.0168805
0.0169244
0.0246505
0.0322596
0.0397176
0.0462662
0.0511466
0.0492273
0.0329543
0.0301157
0.0467679
0.0785245
0.0745656
0.0977723
0.111103
0.0631095
0.0465226
0.0452561
0.0620125
0.0646084
0.0566794
0.0468148
0.0366622
0.02653
0.0310768
0.03553
0.0397716
0.0442893
0.0575364
0.0602939
0.0589564
0.0561356
0.0525717
0.0479585
0.0413208
0.0331539
0.0252073
0.0192458
0.0146284
0.00976882
0.00692318
0.0083117
0.00763523
0.0111783
0.00967266
0.00844351
0.00774755
0.00794958
0.00777043
0.0079207
0.0069584
0.00628845
0.0102763
0.00940669
0.00929897
0.00983381
0.0131871
0.0101353
0.00751604
0.00707819
0.00698407
0.00734619
0.0183424
0.0255189
0.0305541
0.0350331
0.0378998
0.0365949
0.0334017
0.0280501
0.0224847
0.0202773
0.0172676
0.0146606
0.01337
0.014603
0.0120669
0.00610845
0.00518876
0.00570187
0.00558054
0.0051138
0.00614536
0.00683337
0.00744251
0.00785983
0.00816373
0.00821684
0.00814853
0.00805273
0.00800404
0.00798043
0.00794946
0.00788311
0.00778709
0.00764516
0.00750939
0.00744612
0.00803797
0.0106483
0.0145673
0.0143413
0.0132306
0.0121247
0.011267
0.00955129
0.0153786
0.013055
0.0109434
0.0101191
0.00997155
0.0102647
0.0112206
0.0128512
0.0137655
0.0157567
0.0158052
0.0157104
0.0159994
0.0157823
0.0131486
0.014893
0.0176324
0.0184584
0.0190656
0.0188302
0.0172948
0.019307
0.020445
0.019895
0.0192831
0.0163896
0.0190582
0.0230857
0.0235334
0.0238138
0.0211695
0.0183473
0.0214955
0.0226444
0.0222267
0.0230873
0.0212042
0.0219275
0.0278542
0.0141075
0.0126308
0.00758287
0.00864138
0.00879197
0.00839143
0.00806531
0.00836337
0.00858121
0.00840131
0.00909771
0.00942962
0.0088055
0.0114
0.0104286
0.00994493
0.00931883
0.00996004
0.0107263
0.0110924
0.0121729
0.0195185
0.0199467
0.0181688
0.0205678
0.021193
0.0179637
0.0203575
0.0212394
0.021458
0.0217952
0.0233475
0.0219966
0.0243433
0.0235122
0.0222179
0.0214437
0.0380702
0.0251402
0.0165491
0.0151953
0.0147959
0.0148451
0.0167072
0.0125666
0.0140761
0.00991365
0.00858673
0.00820963
0.00789457
0.00847221
0.0116858
0.0189967
0.025503
0.0277211
0.02656
0.0234457
0.0182689
0.0139852
0.0135462
0.0122
0.0113062
0.0111083
0.00750433
0.00518054
0.00646182
0.00658677
0.00716472
0.00756967
0.00789662
0.00813979
0.00826835
0.00832791
0.00839567
0.0085034
0.00862338
0.0087279
0.00881057
0.00887048
0.00893422
0.00905453
0.00935948
0.0105551
0.0152023
0.0196024
0.0185107
0.0170541
0.0157489
0.0165076
0.0172626
0.0180094
0.0221853
0.0190655
0.021958
0.0206001
0.0196104
0.0182087
0.0189357
0.020719
0.0164859
0.0164116
0.0111807
0.00975604
0.0093784
0.00916235
0.00899293
0.00882702
0.00867311
0.00853657
0.00840938
0.00830098
0.00821874
0.00814871
0.00801331
0.0077711
0.00738202
0.00694861
0.00620603
0.00688045
0.00733351
0.00828322
0.00954998
0.0102486
0.00967716
0.00880886
0.00834727
0.00840356
0.0085748
0.00877338
0.0090008
0.00931101
0.00978221
0.0107522
0.0114296
0.0160743
0.0168025
0.0201032
0.0199179
0.0178312
0.0171827
0.018798
0.0173413
0.012643
0.0173321
0.0168375
0.0210532
0.015607
0.0147074
0.0150942
0.0155661
0.0182476
0.0171516
0.0156861
0.0156609
0.0126
0.0141596
0.0161565
0.0176511
0.0278664
0.0272951
0.0343799
0.0343123
0.0592976
0.0563962
0.0496968
0.0537998
0.0236947
0.0463684
0.0542467
0.0494221
0.042872
0.0272819
0.0436545
0.0665407
0.096353
0.0694088
0.0567377
0.105569
0.0766472
0.0373172
0.0265343
0.0149808
0.0150745
0.0250194
0.0290614
0.0240741
0.0232143
0.0333901
0.0347557
0.0279709
0.0286595
0.031038
0.0299753
0.0324241
0.0280468
0.02737
0.0154905
0.0127078
0.0137305
0.015451
0.0164551
0.0159472
0.016782
0.0174505
0.0160213
0.0150032
0.0144533
0.0124015
0.0131477
0.0161164
0.0203134
0.0238056
0.0171886
0.01381
0.0125174
0.0123263
0.0121033
0.011987
0.0116692
0.0114849
0.0110185
0.0112272
0.00976803
0.00977491
0.0103073
0.0104687
0.0106707
0.0108268
0.0109485
0.0110605
0.0119259
0.0186691
0.0258352
0.0206752
0.0163902
0.013925
0.0151069
0.0170161
0.0208938
0.0262849
0.0177483
0.0175655
0.011448
0.0106691
0.0104596
0.0102884
0.0101381
0.0100426
0.0101059
0.0101153
0.0118559
0.0115447
0.0135636
0.0146426
0.012099
0.0116685
0.0111968
0.0109098
0.0107514
0.0106657
0.0107537
0.0116135
0.0114481
0.0105208
0.0104288
0.010551
0.0107667
0.0110926
0.0115432
0.0120517
0.0129709
0.0127434
0.0111904
0.0111686
0.0105044
0.010191
0.00995729
0.00993284
0.0099821
0.0101225
0.0103466
0.0112544
0.0170233
0.0172066
0.026491
0.0264777
0.0210538
0.0176028
0.0154627
0.014219
0.0134924
0.0350324
0.0307687
0.0487306
0.0388655
0.0311132
0.0505002
0.0718488
0.0558057
0.0909121
0.0982319
0.0723908
0.0655812
0.0208413
0.0158795
0.0153807
0.0168589
0.0185379
0.021154
0.021742
0.0265247
0.0286129
0.017077
0.016403
0.0154833
0.0247524
0.0229433
0.0195842
0.0177144
0.0163401
0.0188763
0.0206552
0.014888
0.0149292
0.00961461
0.0106054
0.0103548
0.0100116
0.00989019
0.00981523
0.00985069
0.00995021
0.0102366
0.010738
0.0111277
0.0112978
0.0116442
0.0114317
0.0111585
0.0108341
0.0106411
0.0104479
0.0102897
0.010167
0.010198
0.0105121
0.0106562
0.00935069
0.00969814
0.00980961
0.00982469
0.00985998
0.00982842
0.00969531
0.00949267
0.00929785
0.00909119
0.00913072
0.00989279
0.0100202
0.0100685
0.00990669
0.00978633
0.00977467
0.00971231
0.00970112
0.00969778
0.00958167
0.00927158
0.00855614
0.00840679
0.00900208
0.0093415
0.0095144
0.00959208
0.00957275
0.00951555
0.00928849
0.00912011
0.00892077
0.00859181
0.00815746
0.00679713
0.00707408
0.00742954
0.00792445
0.00843482
0.00888184
0.00918102
0.0093365
0.00942315
0.00933749
0.00904347
0.00851421
0.00845992
0.00885279
0.0090354
0.0089976
0.00873888
0.00833273
0.00777197
0.00707379
0.00639719
0.00588174
0.00564244
0.00525062
0.00654377
0.00711914
0.00765342
0.00814772
0.0086207
0.00913269
0.00933633
0.00939844
0.00938051
0.00922928
0.00890454
0.00838516
0.00838938
0.00885783
0.00916329
0.00928694
0.00927193
0.00908523
0.00868091
0.00778091
0.00698404
0.00634271
0.00576901
0.00519184
0.0051307
0.00538659
0.00514926
0.00534781
0.00592435
0.00672531
0.00750192
0.00810572
0.00852919
0.00870979
0.00865635
0.00840266
0.0083044
0.00842981
0.0083753
0.00807335
0.00750923
0.00676692
0.0059688
0.00534095
0.00516515
0.00549758
0.00583322
0.0055199
0.00436701
0.00490642
0.00545173
0.00603231
0.00693619
0.00810636
0.00869319
0.00900525
0.0091621
0.0090978
0.00881335
0.00838085
0.00836104
0.00877772
0.00905519
0.00910313
0.00897062
0.00868486
0.00819488
0.00677211
0.00532562
0.00471134
0.00437178
0.00393512
0.00559558
0.00596355
0.00553749
0.00526229
0.00569947
0.00624148
0.00686816
0.00738162
0.00780637
0.00810865
0.00820896
0.00817564
0.00804302
0.00804841
0.00799551
0.00779321
0.00754842
0.00733836
0.00690077
0.00644962
0.00591964
0.00647556
0.00677459
0.00634213
0.00464016
0.00492279
0.00534374
0.00559869
0.00703113
0.00846243
0.00887243
0.00901669
0.00915645
0.0090888
0.00877566
0.00834028
0.00832585
0.00884116
0.00923432
0.00936541
0.00945831
0.00954339
0.00962031
0.00846179
0.00660762
0.00619766
0.00524054
0.00479721
0.00666217
0.00709516
0.00688368
0.00661425
0.00755441
0.00794809
0.00809462
0.00811027
0.00812148
0.00809154
0.00799801
0.00792667
0.00781212
0.00825495
0.00889464
0.00880119
0.0087064
0.00854672
0.00818379
0.00773108
0.00721957
0.00790178
0.00847869
0.00819332
0.00593628
0.00630319
0.00716001
0.00729008
0.0087689
0.00995099
0.0102964
0.0103089
0.0102134
0.0102003
0.00920712
0.00829304
0.00814914
0.00948946
0.0153963
0.0152445
0.0152848
0.0152257
0.014667
0.0145085
0.013955
0.0137124
0.0130277
0.0125996
0.0119226
0.0139582
0.0176685
0.0197383
0.0221172
0.0246157
0.0233717
0.0189095
0.0167004
0.0102294
0.00806378
0.00695142
0.00600798
0.00530079
0.00509408
0.00751786
0.00935651
0.0115123
0.0134759
0.0137852
0.0162085
0.020147
0.0306795
0.0487832
0.0412282
0.0389608
0.0398995
0.100598
2.55748
2.78244
2.51707
2.92278
3.34859
0.40542
0.155551
0.290673
0.31366
0.355786
0.335478
0.302198
0.274755
0.283297
0.271694
0.281174
0.261495
0.266322
0.231862
0.233812
0.230481
0.617886
0.99666
1.21183
1.69877
1.71413
1.93419
1.89401
1.91761
1.77432
1.89075
1.64345
1.36287
1.28636
1.21329
1.30214
1.41505
1.22883
1.11449
1.00161
0.912077
0.780189
0.990036
0.751495
0.710255
0.70875
0.740232
0.985669
0.896889
1.03391
0.975254
1.03362
0.640945
0.72358
0.535279
0.447261
0.370666
0.451581
0.609048
0.805373
0.986096
0.74546
0.995695
0.907691
0.881881
0.840404
0.766789
0.728386
0.716566
0.737696
0.750182
0.765182
0.792181
0.812687
0.830038
0.979378
1.04154
1.03017
0.84439
0.756823
0.523974
0.561141
0.595973
0.600194
0.560843
0.541585
0.48845
0.475861
0.430357
0.412344
0.37361
0.35538
0.323458
0.447575
0.767219
0.796747
0.865117
0.918923
0.967099
0.988855
1.00377
0.986154
0.952269
0.885338
0.857557
0.796513
0.901203
1.08362
1.08505
0.999292
0.848577
0.804664
3.72781
4.5301
3.00226
6.45781
9.77325
16.3627
7.54652
2.06949
3.45141
2.37162
2.1062
2.05317
2.16648
3.41254
2.49696
3.27795
2.7127
2.90443
2.25184
2.63995
2.56348
1.98115
1.67982
1.42977
1.35042
1.09912
1.11578
0.904384
0.844568
0.747043
0.603858
0.716185
0.683749
1.54963
2.21999
2.77702
4.36666
4.80272
5.25272
8.31684
6.7726
8.51939
5.0798
5.11534
3.78357
3.56077
3.59943
4.95037
7.05135
4.86433
8.47861
4.73557
15.4306
34.4897
9.20159
18.9694
10.9515
9.9118
9.55982
9.85442
13.9996
9.53091
15.5375
12.9917
17.3143
16.716
18.114
14.3406
10.652
11.7885
12.7505
16.3827
11.7515
13.8429
10.5491
10.3369
9.48345
7.76897
6.70667
5.06794
5.86474
6.90358
7.83162
12.3405
15.5455
17.9116
21.5998
16.0108
18.288
11.0182
12.0526
9.31983
8.73994
8.86531
11.6628
20.749
14.7185
26.8093
0.495005
0.225579
0.542597
0.229094
0.486873
0.390225
0.402833
0.403814
0.399386
0.460928
0.219884
0.184913
0.177206
0.175065
0.176566
0.100128
0.124285
0.0803389
0.126807
0.228727
0.50135
0.364157
0.140269
0.082535
0.0545511
0.0429124
0.0634031
0.0612
0.0978693
0.0992214
0.105511
0.131949
0.22757
0.432211
31.634
7.10139
1.1175
0.521473
0.280724
0.171617
0.14543
0.164042
0.176026
0.178202
0.166752
0.141045
0.100766
0.0664923
0.0443928
0.0371226
0.0271184
0.0292165
0.0400003
0.0535498
0.0494936
0.0651411
0.0835349
0.106281
0.130479
0.149764
0.164282
0.16829
0.15628
0.122322
0.0804911
0.0443551
0.0265095
0.022859
0.0209285
0.0194333
0.0167872
0.0145758
0.0131532
0.0112419
0.00991103
0.00894298
0.00863211
0.00875615
0.00955844
0.0120914
0.0145524
0.0188435
0.0179649
0.0134516
0.0126128
0.00781425
0.007226
0.00737533
0.00762804
0.0084554
0.013233
0.0135431
0.0134222
0.0134554
0.013274
0.0132625
0.0130929
0.0129261
0.0127062
0.0122846
0.0119937
0.011472
0.0111906
0.0105312
0.0105588
0.0109443
0.0112519
0.0101861
0.0100843
0.00937432
0.0203773
0.0486897
0.0700885
0.0785699
0.0883674
0.0810894
0.041893
0.0229657
0.00791243
0.00774921
0.00824175
0.00890536
0.00845025
0.00614921
0.00667952
0.00787206
0.0109992
0.0108697
0.0108981
0.0126705
0.0131828
0.0145335
0.0150676
0.0154673
0.0156957
0.0156636
0.0158008
0.0155574
0.0156613
0.015488
0.0155834
0.0151948
0.0269901
0.0253969
0.0260686
0.0260753
0.0271953
0.0266851
0.0261833
0.0252123
0.0244757
0.0229848
0.0214109
0.0198934
0.0178473
0.0186082
0.0180052
0.0112522
0.0106966
0.007736
0.0076979
0.00740611
0.0103423
0.00940252
0.00790602
0.00931404
0.00677233
0.00694015
0.00729664
0.0103914
0.0109137
0.0173575
0.0172788
0.0152876
0.0162081
0.0172259
0.0185109
0.0196501
0.0210392
0.0220614
0.02314
0.0249523
0.0253622
0.0236976
0.0233902
0.0223421
0.024281
0.0232871
0.0215342
0.0230267
0.024621
0.0270596
0.0267416
0.0246633
0.0233622
0.0219473
0.0196776
0.0170878
0.0157676
0.0148023
0.0148613
0.0138791
0.0162701
0.014773
0.0101948
0.0104034
0.00778417
0.00627754
0.00606779
0.00926817
0.0131546
0.0280947
0.0175098
0.00932055
0.00994046
0.0159253
0.0326987
0.0187885
0.0303318
0.0140185
0.0137054
0.0126705
0.0125451
0.0138297
0.0160952
0.0170947
0.0206844
0.0233115
0.025273
0.026158
0.0274878
0.0278679
0.0292641
0.0296959
0.0322959
0.0325422
0.0325921
0.0321352
0.0298389
0.0268305
0.024712
0.0305386
0.0353751
0.0385548
0.0409379
0.0433478
0.0421022
0.0385371
0.0376894
0.0358014
0.0347122
0.0333146
0.0302666
0.0264835
0.0217335
0.0212054
0.0271656
0.0328501
0.0490993
0.0528194
0.0525571
0.0548698
0.0553456
0.0570633
0.0574776
0.0600897
0.060643
0.0617736
0.0620977
0.0671358
0.067995
0.0689621
0.0692724
0.0690328
0.0700085
0.0700182
0.0475568
0.042631
0.0386783
0.0321119
0.02692
0.0341289
0.0425109
0.0476722
0.0728164
0.0733193
0.0769898
0.0795877
0.0844488
0.0880976
0.092911
0.0973696
0.101732
0.105162
0.107227
0.107642
0.108146
0.107324
0.106082
0.114951
0.149378
0.165888
0.196334
0.211354
0.224231
0.228642
0.2197
0.223286
0.21498
0.217431
0.210855
0.208655
0.203077
0.196492
0.192696
0.186122
0.181921
0.209802
0.157876
0.120893
0.0805787
0.0648208
0.056842
0.0520385
0.0561092
0.0430494
0.0363797
0.0556701
0.0506972
0.0399908
0.0262419
0.0188826
0.0323158
0.0477637
0.0645498
0.0817701
0.09749
0.107747
0.110287
0.109176
0.10446
0.0966469
0.0815117
0.0613999
0.042193
0.0347695
0.0320693
0.0281081
0.0221693
0.01782
0.0157051
0.0141212
0.012358
0.0111117
0.0105588
0.0107175
0.0110282
0.013226
0.0173084
0.0172998
0.0115983
0.0111484
0.00767062
0.0077595
0.00801827
0.0133353
0.0134836
0.0209104
0.0233619
0.0220047
0.0226987
0.0224355
0.0227358
0.0223835
0.0211975
0.0203635
0.0193959
0.0185558
0.0178141
0.0169932
0.0161936
0.0175204
0.0164737
0.0138788
0.0139919
0.0146022
0.0152464
0.0161296
0.0173901
0.0184637
0.0211545
0.0213189
0.0208145
0.0209053
0.0194324
0.018713
0.0199659
0.0194869
0.0132754
0.0130966
0.0191194
0.0187679
0.0186614
0.022481
0.0209052
0.0214287
0.0225651
0.0224668
0.0195342
0.0181778
0.0166243
0.0154469
0.014072
0.012562
0.0121897
0.0149535
0.013181
0.0108107
0.0119981
0.0144085
0.0170221
0.0184828
0.0204688
0.0231855
0.0241519
0.0263958
0.0278178
0.0299126
0.0307481
0.035551
0.0362041
0.0340393
0.0321928
0.03119
0.0274147
0.023497
0.0259137
0.0267897
0.027167
0.0272907
0.027171
0.0235974
0.0231667
0.021652
0.0211347
0.019559
0.0190013
0.0178412
0.0170817
0.016061
0.0142318
0.0134844
0.0126708
0.0123185
0.0173732
0.01087
0.0106222
0.0160288
0.00988641
0.0116315
0.0113701
0.0118851
0.0125365
0.0103797
0.0151789
0.0103687
0.0112533
0.0114661
0.0143618
0.00993756
0.0202347
0.0632486
0.0925442
0.111415
0.202445
0.242749
0.26311
0.283834
0.298089
0.314073
0.331619
0.349273
0.362275
0.363689
0.337998
0.319475
0.254558
0.227897
0.251623
0.281701
0.194221
0.166629
0.168887
0.169697
0.172253
0.17348
0.177091
0.175045
0.180073
0.175729
0.182962
0.176954
0.183375
0.176032
0.160769
0.144214
0.111829
0.101138
0.0652359
0.0505292
0.0395325
0.0287123
0.0209319
0.0187884
0.0177859
0.0164416
0.0165254
0.0126619
0.0130971
0.00839404
0.00616903
0.00985764
0.00969499
0.0072216
0.0098245
0.011222
0.0117334
0.0122691
0.0125623
0.0192093
0.0192408
0.0246394
0.0245558
0.0291306
0.0347434
0.0359942
0.0396435
0.0570333
0.0575576
0.0573011
0.0571353
0.0567144
0.0494977
0.0492166
0.0481135
0.0475294
0.0445857
0.0440322
0.0419493
0.0408119
0.0378581
0.0370349
0.0359043
0.0363432
0.0403893
0.0552814
0.0977916
0.0293169
0.0278603
0.0204871
0.0145406
0.0213369
0.0159292
0.015443
0.0136244
0.0187232
0.0134684
0.013724
0.0165395
0.0170543
0.0164383
0.0213911
0.0266929
0.0234381
0.0258573
0.115991
0.0739053
0.0241106
0.0477424
0.071539
0.157439
0.203673
0.139408
0.159244
0.183394
0.166493
0.13978
0.10903
0.08133
0.0575082
0.0441518
0.0114169
0.0133788
0.0185134
0.0405447
0.0602714
0.101389
0.083265
0.108859
0.148763
0.173185
0.20914
0.20061
0.172549
0.148521
0.145371
0.160713
0.162451
0.104855
0.101852
0.0776333
0.173947
0.219146
0.184375
0.231363
0.243823
0.142826
0.0317589
0.0184051
0.0151465
0.013941
0.0124621
0.0194018
0.0114868
0.0116707
0.0123867
0.0132979
0.016982
0.0293615
0.0134736
0.0149468
0.0183583
0.0158993
0.0149085
0.0146561
0.0145615
0.0151759
0.0165317
0.021569
0.0216713
0.0213381
0.0160073
0.0173026
0.0157178
0.0200326
0.0212401
0.033356
0.0152787
0.0162233
0.0215295
0.478994
0.0246689
0.0178458
0.0232424
0.0219134
0.0301619
0.0438144
0.457987
0.0441162
0.0351316
0.058648
0.0609323
0.0656143
0.0692909
0.072816
0.0753329
0.0792902
0.0819302
0.0831744
0.0844308
0.100072
0.100023
0.0989458
0.103547
0.0976402
0.0576817
0.057885
0.0974193
0.105138
0.0594245
0.0410176
0.038498
0.0311909
0.0323101
0.0418483
0.0439332
0.061645
0.0614707
0.10251
0.0934857
0.0948847
0.0966537
0.0916676
0.092155
0.0942073
0.0942619
0.0755188
0.073183
0.0714121
0.0683764
0.0648278
0.061923
0.0589979
0.0559018
0.0532593
0.0533342
0.0580606
0.0584012
0.0660846
0.0729741
0.220995
0.15002
0.107177
0.0795862
0.0648989
0.0588701
0.0585098
0.0617264
0.0649771
0.066619
0.0674264
0.0708178
0.0925543
0.0948529
0.0977036
0.0951582
0.0989588
0.0969938
0.0945329
0.10443
0.112238
0.0656099
0.0676853
0.0477539
0.0445331
0.0324905
0.033043
0.0235884
0.0195641
0.0195529
0.0195315
0.0197534
0.0226306
0.0316141
0.0317218
0.0463338
0.046254
0.0516996
0.0753102
0.0723765
0.129056
0.1183
0.108627
0.101324
0.101695
0.103839
0.106443
0.101447
0.0978748
0.0923408
0.0725502
0.0685178
0.0663814
0.0651301
0.0638052
0.0671688
0.0903265
0.146153
0.223781
0.329062
0.429771
0.440742
0.399253
0.249009
0.289176
0.143748
0.164319
0.186189
0.161825
0.17046
0.319152
0.265298
0.375451
0.480713
0.534486
0.600779
0.637597
0.62575
0.496566
0.322382
0.329629
0.4392
0.767332
0.860787
0.743136
0.760929
0.657602
0.539778
0.521363
0.496714
0.560432
0.611231
0.576839
0.5937
0.537998
0.513905
0.444061
0.495408
0.361939
0.32601
0.306462
0.297639
0.356649
0.288634
0.325125
0.267279
0.273577
0.222371
0.227892
0.190254
0.145668
0.138119
0.128059
0.143394
0.162602
0.14899
0.153549
0.134092
0.1147
0.0913237
0.0985454
0.0736192
0.0696026
0.0705919
0.0802837
0.125673
0.368527
0.173292
0.163656
0.16789
0.178024
0.319768
0.28303
0.723512
0.507044
0.70864
0.473867
0.562237
0.470396
0.362879
0.378428
0.418195
0.598438
0.821544
6.65096
0.284673
4.26208
3.1643
3.32322
3.46916
4.44665
7.8059
7.11033
9.38773
6.80506
9.08121
4.97725
4.97586
4.32604
4.4714
4.43888
4.26162
5.19385
6.63002
0.238488
0.0909634
0.0854241
0.0856101
0.0873872
0.197773
0.0525659
0.201976
0.0539546
0.213401
0.0495059
0.246571
0.196834
0.0382324
0.0192577
0.0200899
0.0168072
0.0203755
0.016923
0.025048
0.0235425
0.023699
0.0265838
0.0762218
0.291866
13.7872
1.65409
0.689024
0.789147
1.18228
0.803243
1.20291
1.67145
1.12363
0.560165
0.366816
0.43286
0.523484
0.499784
0.638034
0.91896
0.899116
0.706671
0.71073
0.626345
0.884667
0.8934
1.05962
1.23798
1.13326
0.887238
0.698654
0.590714
1.01922
1.02504
0.95824
0.405286
0.114069
0.0467977
0.0489709
0.035736
0.0376584
0.0348255
0.0547783
0.159936
0.220673
0.132507
0.429071
0.414132
0.564271
0.402738
0.412768
0.325636
0.349901
0.533439
0.582731
0.642255
0.673645
0.72417
0.668179
1.28411
2.19885
2.4865
12.8346
17.4073
3.19539
3.09256
13.9408
0.314851
0.0838604
0.0233126
0.0174303
0.0162168
0.0161299
0.0150008
0.0155383
0.0159995
0.0169634
0.0188281
0.023194
0.0458262
0.201422
0.203385
0.0643291
0.0324235
0.0229684
0.0196154
0.0170461
0.0163868
0.0155315
0.0154591
0.015008
0.0156575
0.0174636
0.0237787
0.0774141
0.270983
11.3259
2.43402
2.253
8.37916
5.79177
0.20669
0.0437857
0.0200931
0.0169264
0.0158837
0.0167536
0.0162655
0.0182108
0.0184018
0.0230152
0.0250199
0.0317612
0.0570624
0.110155
0.315402
9.57712
8.64835
8.37016
7.80819
0.310032
0.115163
0.0543822
0.0382272
0.0346219
0.0338165
0.0226483
0.0236725
0.0189818
0.0216398
0.0182948
0.0226812
0.0483003
0.211846
5.34927
1.56882
1.69967
1.20868
0.611958
0.654531
0.668385
0.688014
1.7731
4.05533
4.98742
3.42549
3.35928
4.70548
3.16898
2.48033
1.82814
1.74651
2.54436
1.96216
1.82438
1.35557
1.46538
1.0671
1.46643
0.810687
0.976316
1.07211
1.53025
1.39678
1.40969
0.907915
1.04964
1.47423
1.724
1.6486
0.843395
1.22634
1.01308
0.654337
0.606206
0.632631
0.60264
0.577468
0.574454
0.57868
0.557664
0.574786
0.555035
0.586977
0.54664
0.531899
0.5064
0.526059
0.543677
0.576208
0.359587
0.422076
0.426364
0.440756
0.453355
0.374284
0.450373
0.441169
0.658247
0.994026
0.833006
1.15014
0.678315
1.00251
2.00655
5.20692
2.34252
0.818797
1.34648
1.58233
1.13831
0.627611
2.55176
3.55869
1.22969
1.7836
10.3811
8.42966
16.5167
10.9644
18.6206
6.02974
4.63187
17.8037
6.66999
6.90341
4.50991
4.51749
2.95666
1.58345
1.62673
1.73907
1.22529
1.29824
1.20859
1.13285
1.47304
1.43775
1.88345
2.03274
2.57455
1.81006
1.77344
2.59473
1.06207
1.39829
1.83529
1.82697
1.35825
2.33857
3.1534
2.9641
2.1359
2.33365
3.50082
4.81383
4.57184
3.16477
3.96208
10.1253
13.5133
13.6849
4.22037
19.3219
18.2982
2.07466
0.565076
0.322794
0.0890979
0.0444928
0.0367092
0.0387777
0.143886
0.0458663
0.0571023
0.0455634
0.072874
0.0697911
0.0871894
0.217683
0.126394
0.215551
0.155138
0.189084
0.120666
0.19306
0.226352
0.236165
0.187841
0.115307
0.212554
0.306252
0.105624
0.353793
0.389083
0.259311
0.331594
0.395263
0.195735
0.994092
0.185285
0.126977
0.146429
0.392615
1.25724
0.218087
0.460859
4.47213
14.7101
3.67506
0.936263
0.679443
0.0555984
0.0301844
0.0317924
0.0279369
0.0194592
0.083915
0.0986628
0.404854
0.208271
0.27786
0.661425
2.92897
2.39887
1.12637
5.48601
10.2729
15.15
9.13331
2.23249