/*--------------------------------*- C++ -*----------------------------------*\
| =========                 |                                                 |
| \\      /  F ield         | OpenFOAM: The Open Source CFD Toolbox           |
|  \\    /   O peration     | Version:  v2012                                 |
|   \\  /    A nd           | Website:  www.openfoam.com                      |
|    \\/     M anipulation  |                                                 |
\*---------------------------------------------------------------------------*/
FoamFile
{
    version     2.0;
    format      ascii;
    class       volVectorField;
    location    "1035";
    object      U;
}
// * * * * * * * * * * * * * * * * * * * * * * * * * * * * * * * * * * * * * //

dimensions      [0 1 -1 0 0 0 0];


internalField   nonuniform List<vector> 
18258
(
(-0.176222 0.116199 0.137776)
(-0.0516275 0.245747 0.157718)
(-0.10465 0.213855 0.0961499)
(-0.0391366 0.0697419 0.0841592)
(-0.226086 0.202241 0.0182866)
(-0.159127 0.360691 0.0165864)
(-0.222749 0.0447591 0.0537382)
(-0.341036 -0.0527932 0.0750369)
(-0.448183 -0.105487 0.107978)
(-0.535051 -0.159343 0.145564)
(-0.620853 -0.216892 0.179778)
(-0.687233 -0.271255 0.309383)
(-0.678285 -0.333979 0.357152)
(-0.621992 -0.445216 0.385784)
(-0.487973 -0.542745 0.369444)
(-0.205441 -0.58723 0.340486)
(0.073392 -0.374396 0.289045)
(0.0773052 -0.163764 0.298043)
(-0.128586 -0.0788846 0.236966)
(-0.402225 -0.273337 0.117417)
(-0.140414 -0.526991 0.293969)
(-0.201015 -0.366488 0.407441)
(-0.306684 -0.738527 0.302176)
(-0.368328 -0.78046 0.262789)
(-0.138424 -0.707476 0.131109)
(0.00238287 -0.644979 0.18244)
(-0.0187528 -0.340838 0.42319)
(0.172982 -0.113191 0.805932)
(0.298277 -0.0953569 0.894064)
(0.315884 0.0576696 0.915375)
(0.316743 0.183928 0.817506)
(0.167789 0.301382 0.110099)
(0.0755174 0.13524 -0.4285)
(0.00853945 0.0829614 -0.720275)
(-0.0693251 0.0790765 -0.895957)
(-0.0593875 0.0747533 -1.07869)
(-0.072286 0.0736606 -1.21767)
(-0.100868 0.0917422 -1.31103)
(-0.14294 0.0830991 -1.35819)
(-0.191052 0.0897517 -1.34407)
(-0.240881 0.0761902 -1.26003)
(-0.28768 0.0855846 -1.10638)
(-0.326783 0.0799348 -0.895648)
(-0.357888 0.0812472 -0.641551)
(-0.367559 0.0842314 -0.349302)
(-0.35007 0.0788194 -0.152254)
(-0.153126 0.186816 -0.193098)
(0.372159 -0.104251 -0.135457)
(0.640032 -0.131453 -0.155673)
(0.681457 -0.113804 -0.165915)
(0.791742 -0.135948 -0.1756)
(0.818229 -0.131943 -0.1934)
(0.509713 -0.00181877 -0.257475)
(0.260471 -0.137683 -0.217847)
(0.113529 -0.0412644 -0.158521)
(0.283294 -0.00908733 -0.168988)
(0.5391 -0.00213115 -0.173655)
(0.793844 -0.0299446 -0.177958)
(1.09456 -0.0347471 -0.175791)
(1.43047 -0.0489388 -0.185234)
(1.76515 -0.0646698 -0.183573)
(2.04929 -0.0811947 -0.166595)
(2.24981 -0.0928093 -0.138047)
(2.34968 -0.0988437 -0.102306)
(2.35593 -0.0960888 -0.0675874)
(2.2951 -0.0883592 -0.0408492)
(2.20113 -0.0818489 -0.024255)
(2.1084 -0.0757518 -0.0175516)
(2.03879 -0.06697 -0.0186075)
(1.99304 -0.0641139 -0.0233276)
(1.96866 -0.0589829 -0.0258132)
(1.95809 -0.0500905 -0.0203147)
(1.94383 -0.0395947 -0.00332346)
(1.90038 -0.024779 0.0242468)
(1.81279 -0.00773434 0.0538263)
(1.69181 0.00965196 0.0771357)
(1.57093 0.0218556 0.079987)
(1.47823 0.0308436 0.0753381)
(1.40012 0.0379291 0.0706435)
(1.33791 0.0507468 0.0632481)
(1.28707 0.057403 0.0650516)
(1.19344 0.0444691 0.0786523)
(1.09638 0.0191292 0.110353)
(1.01353 0.00082365 0.127908)
(0.906412 -0.0207977 0.120831)
(0.762453 0.0168022 0.146053)
(0.641647 0.0817217 0.133334)
(0.518034 0.10063 0.134255)
(0.381084 0.118135 0.118656)
(0.224603 0.127264 0.0966163)
(0.120116 0.190008 0.0920626)
(0.122227 0.010313 0.197615)
(0.164185 -0.100778 0.143897)
(0.113174 -0.129637 0.0397969)
(0.104599 -0.115187 -0.142187)
(0.216799 -0.210441 -0.371013)
(0.262913 -0.232672 -0.556483)
(0.204433 -0.139518 -0.730209)
(0.105973 -0.0814065 -0.714898)
(0.0363585 0.0572286 -0.491883)
(-0.0891973 0.23102 -0.159694)
(-0.216126 0.194732 0.179543)
(-0.234345 0.0650856 0.1539)
(-0.340091 0.0154109 0.169051)
(-0.272714 0.138747 0.177809)
(-0.246491 0.286461 -0.0487438)
(-0.106209 0.162674 -0.404148)
(0.0641297 0.0039675 -0.585499)
(0.333863 -0.0943673 -0.632815)
(0.496145 -0.230232 -0.4902)
(0.35171 -0.211004 -0.280598)
(0.271774 -0.192112 -0.100838)
(0.282991 -0.186674 0.0395938)
(0.280805 -0.140031 0.160295)
(0.225595 -0.0989471 0.191721)
(0.396784 -0.0812115 0.180897)
(0.535854 -0.0631603 0.176487)
(0.588293 -0.0519136 0.164542)
(0.700261 -0.0786366 0.160742)
(0.732496 -0.133646 0.13251)
(0.600958 -0.134193 0.135236)
(0.454513 -0.151701 0.139717)
(0.461489 -0.18587 0.0354162)
(0.610819 -0.162834 0.0513716)
(0.736197 -0.162064 0.0488761)
(0.904667 -0.141728 0.0809882)
(1.08821 -0.109897 0.110536)
(1.18944 -0.0777381 0.148137)
(1.20851 -0.0106342 0.139847)
(1.24568 -0.00901483 0.120333)
(1.33564 -0.00691721 0.139851)
(1.37765 -0.00165346 0.129772)
(1.36923 -0.0124699 0.158581)
(1.3287 -0.0481637 0.19379)
(1.32302 -0.0510945 0.190704)
(1.28589 -0.061996 0.151858)
(1.27919 -0.0601894 0.135001)
(1.25835 -0.0477611 0.108382)
(1.24981 -0.0457244 0.110405)
(1.20134 0.00454774 0.109202)
(1.19431 0.0280335 0.137825)
(1.07669 0.137265 0.271683)
(1.22607 0.0530873 0.254253)
(1.21782 0.0202443 0.158844)
(1.2668 -0.0207322 0.128249)
(1.27894 -0.0249366 0.119069)
(1.28928 -0.0381591 0.144124)
(1.30817 -0.0414542 0.183364)
(1.35078 -0.0366736 0.217317)
(1.38661 -0.0366525 0.222242)
(1.42347 -0.0127333 0.183364)
(1.43688 -0.00186773 0.138094)
(1.51307 -0.00648373 0.15122)
(1.6111 -0.0166734 0.159305)
(1.75042 -0.0315813 0.143657)
(1.88257 -0.0541593 0.0489457)
(1.96396 -0.0756065 -0.071342)
(1.98326 -0.0904419 -0.164444)
(1.9657 -0.096435 -0.200662)
(1.94928 -0.0967443 -0.194577)
(1.95941 -0.0911012 -0.174753)
(2.0065 -0.0825549 -0.144239)
(2.08813 -0.0700533 -0.107527)
(2.19952 -0.0597506 -0.0834756)
(2.31419 -0.0593995 -0.112187)
(2.39171 -0.0605288 -0.172481)
(2.39489 -0.0582247 -0.276493)
(2.28934 -0.0500889 -0.391982)
(2.07399 -0.0425416 -0.483599)
(1.77355 -0.036793 -0.540221)
(1.42957 -0.0316441 -0.549109)
(1.08333 -0.0193405 -0.527959)
(0.794527 -0.0242785 -0.459571)
(0.538485 -0.0154693 -0.415605)
(0.28398 -0.0208572 -0.386903)
(0.109382 -0.0394861 -0.360671)
(0.102576 -0.0413764 -0.637242)
(0.0776638 -0.0367292 -0.873395)
(0.0508821 -0.0387964 -1.05788)
(0.0118577 -0.0401333 -1.17637)
(-0.0233702 -0.0278342 -1.21578)
(-0.0600985 -0.0153342 -1.16761)
(-0.0938929 0.00386977 -1.03788)
(-0.119331 0.0282295 -0.818629)
(-0.120872 0.0863914 -0.557192)
(-0.147313 0.131823 -0.02482)
(-0.194662 0.0236481 0.577006)
(-0.21065 -0.0348475 0.762931)
(-0.22884 -0.00359915 0.930613)
(-0.233992 -0.0469928 1.07193)
(-0.319496 -0.106944 1.13532)
(-0.372251 -0.114715 1.14728)
(-0.370818 -0.23568 1.00589)
(-0.300075 -0.25446 0.771247)
(-0.460625 -0.670763 0.687155)
(-0.485165 -0.548973 0.705146)
(-0.413498 -0.416272 0.833127)
(-0.548135 -0.769689 0.860917)
(-0.681727 -0.834382 0.608536)
(-0.472804 -0.757058 0.800329)
(-0.434244 -0.57598 0.743825)
(-0.781641 -0.526241 0.752178)
(-0.901075 -0.409536 0.862557)
(-0.529728 -0.708331 0.828301)
(-0.439534 -0.577871 0.66954)
(-0.32061 -0.321446 0.409079)
(-0.299959 -0.184392 0.403124)
(-0.283742 -0.148126 0.357832)
(-0.235633 0.106909 0.118264)
(-0.162138 0.299587 -0.415916)
(-0.151599 0.192997 -0.637625)
(-0.132193 0.0301366 -0.912357)
(-0.0871292 -0.0558681 -1.08531)
(-0.0287244 -0.0687505 -1.23349)
(0.0385085 -0.101221 -1.26872)
(0.0984181 -0.0982202 -1.23402)
(0.173182 -0.108752 -1.12026)
(0.217357 -0.123252 -0.920405)
(0.26178 -0.146433 -0.705883)
(0.25064 -0.139199 -0.398473)
(0.421066 -0.0474999 -0.637764)
(0.778563 -0.117668 -0.455968)
(0.735053 -0.109701 -0.410347)
(0.637955 -0.0767212 -0.401966)
(0.579778 -0.105972 -0.40637)
(0.140659 -0.100267 -0.514252)
(0.18494 -0.116766 -0.896998)
(0.262718 -0.224846 -1.04931)
(0.345948 -0.28263 -0.939051)
(0.388994 -0.351583 -0.498131)
(0.198974 0.0492397 0.123288)
(0.266571 0.124136 0.183297)
(0.429104 -0.324888 0.335443)
(0.516428 -0.529048 0.505142)
(0.546342 -0.522447 0.551107)
(0.413017 -0.235325 0.678421)
(0.472105 -0.337665 0.563788)
(0.487696 -0.609968 0.543523)
(0.705125 -0.672945 0.316358)
(0.747282 -0.489406 0.451333)
(0.799337 -0.345963 0.597974)
(0.236354 -0.226263 0.576379)
(-0.234044 -0.269584 0.83152)
(-0.170702 -0.191513 0.683343)
(-0.671999 -0.299207 0.821636)
(-0.467999 -0.184447 0.698255)
(-0.318701 -0.00637646 0.546879)
(-0.21848 0.178812 -0.294034)
(-0.192113 -0.0390172 -0.616494)
(-0.0575062 -0.167742 -1.09959)
(0.104808 -0.156472 -1.25024)
(0.277113 -0.0854951 -1.11817)
(0.440375 -0.107564 -0.697356)
(0.510902 -0.0736065 -0.620248)
(0.506468 -0.0441048 -0.607844)
(0.562356 -0.0886908 -0.630591)
(0.601129 -0.121771 -0.722599)
(0.40558 -0.0433188 -0.674804)
(0.363362 -0.078855 -0.655774)
(0.137935 -0.113345 -0.665619)
(-0.111103 -0.0477936 -0.576936)
(0.298417 0.00841398 -0.586545)
(0.358694 0.0166438 -0.602812)
(0.644601 -0.0959514 -0.638986)
(0.574561 -0.0974766 -0.359807)
(0.270751 0.0756693 -0.348399)
(0.269821 0.0566542 -0.221367)
(-0.302235 -0.0367212 0.130058)
(-0.30837 0.145249 0.000845613)
(-0.283498 -0.0235745 -0.445527)
(0.0901907 -0.201586 -0.57276)
(0.365067 -0.280134 -0.567182)
(0.730163 -0.34581 -0.404542)
(0.813755 -0.418356 -0.377305)
(0.775361 -0.290523 -0.295434)
(0.816755 -0.365199 -0.219515)
(0.831089 -0.486884 -0.283583)
(0.744983 -0.433147 -0.277301)
(0.724615 -0.306925 -0.330169)
(0.751526 -0.252092 -0.341076)
(0.797204 -0.312186 -0.211864)
(0.809695 -0.36795 -0.160107)
(0.896037 -0.464412 -0.156355)
(1.16095 -0.630808 -0.11753)
(1.61897 -0.726153 -0.0986169)
(1.99582 -0.671453 -0.0379614)
(2.15208 -0.489096 0.0474205)
(2.07169 -0.289897 0.0954892)
(1.90605 -0.161995 0.102964)
(1.80826 -0.0938223 0.0995184)
(1.71125 0.00124089 0.0990471)
(1.57365 0.0896063 0.091181)
(1.43621 0.108041 0.0481647)
(1.33162 0.0583521 0.0274346)
(1.24177 -0.00367155 0.02177)
(1.13999 -0.0531066 0.0235238)
(1.05598 -0.0779125 0.0217104)
(0.998146 -0.0617061 0.0173413)
(0.822125 -0.109398 -0.0234827)
(0.71689 0.00333671 0.0103742)
(0.633532 0.0697121 0.00940292)
(0.497852 0.0246415 0.00706357)
(0.359606 -0.0596582 -0.0129083)
(0.139181 -0.1462 -0.0320031)
(0.225716 -0.307871 0.0011617)
(0.353358 -0.0818499 0.0120769)
(-0.00242511 -0.23008 -0.00921162)
(0.0430539 -0.545893 -0.0504554)
(0.012043 -0.71247 -0.0525862)
(-0.0079985 -0.876462 -0.0532173)
(-0.0259529 -1.00655 -0.0649219)
(-0.0359876 -1.10254 -0.0957642)
(-0.0464859 -1.15699 -0.105048)
(-0.0580065 -1.21438 -0.118191)
(-0.0882359 -1.27624 -0.134191)
(-0.113345 -1.32109 -0.14951)
(-0.137331 -1.35494 -0.162427)
(-0.159371 -1.37673 -0.173488)
(-0.178415 -1.38818 -0.183152)
(-0.193835 -1.38989 -0.189869)
(-0.205985 -1.38283 -0.193725)
(-0.216013 -1.36814 -0.193845)
(-0.224569 -1.34627 -0.191923)
(-0.232848 -1.31585 -0.186471)
(-0.240512 -1.275 -0.178108)
(-0.245962 -1.22077 -0.165055)
(-0.243859 -1.15162 -0.147302)
(-0.190958 -1.07214 -0.126904)
(-0.141226 -0.96943 -0.112526)
(-0.165751 -0.868872 -0.0794508)
(-0.189763 -0.754859 -0.0818622)
(-0.20497 -0.543326 -0.0854652)
(-0.273673 -0.450431 -0.0919732)
(0.0226144 0.0530929 -0.116153)
(-0.350864 -0.308505 0.0252052)
(-0.231675 -0.617647 -0.0545239)
(-0.270408 -0.0993169 -0.0110165)
(-0.458088 -0.182513 0.0645714)
(-0.678868 -0.198697 0.0822292)
(-0.842432 -0.209268 0.114034)
(-0.953977 -0.223114 0.144154)
(-1.03484 -0.232509 0.203729)
(-1.11825 -0.244308 0.245244)
(-1.18751 -0.244188 0.301991)
(-1.20121 -0.248402 0.336279)
(-1.17423 -0.250147 0.366216)
(-1.10725 -0.248845 0.394546)
(-0.99636 -0.243157 0.422769)
(-0.841587 -0.230147 0.454243)
(-0.667472 -0.205886 0.493769)
(-0.420381 -0.146855 0.543251)
(-0.136484 -0.119049 0.567723)
(-0.15388 0.028418 0.823345)
(-0.15687 0.0829329 1.04294)
(-0.156506 0.115112 1.11225)
(-0.157764 0.164056 1.02051)
(-0.161933 0.153286 0.837549)
(-0.150137 0.131349 0.567127)
(-0.124334 0.143422 0.285162)
(-0.225848 0.439128 0.370465)
(-0.50768 0.467111 0.334972)
(-0.69289 0.480161 0.338962)
(-0.917864 0.464967 0.332484)
(-1.1001 0.42438 0.30852)
(-1.22726 0.353021 0.265822)
(-1.28297 0.273175 0.218729)
(-1.26575 0.206047 0.181525)
(-1.23271 0.147852 0.15828)
(-1.18975 0.115167 0.140386)
(-1.10029 0.0924678 0.0902263)
(-0.958476 0.0451055 0.0698831)
(-0.767083 -0.0207691 0.0594573)
(-0.500631 -0.114021 0.0190087)
(-0.253012 -0.207804 -0.0190216)
(-0.274013 -0.197569 -0.0663726)
(-0.318309 -0.176998 0.00798372)
(-0.314525 -0.174198 0.0592434)
(-0.272658 -0.156634 0.150429)
(-0.380977 -0.233848 0.118054)
(-0.422891 -0.297106 0.118147)
(-0.326919 -0.288171 0.176871)
(-0.269869 -0.215263 0.0449144)
(-0.140928 -0.100912 -0.0261794)
(-0.140991 -0.0769406 -0.00754988)
(-0.138659 -0.0742838 -0.0357015)
(-0.169372 -0.0557703 -0.0681198)
(-0.167909 -0.501685 -0.148801)
(-0.126294 -0.479922 -0.138408)
(-0.110758 -0.447351 -0.095892)
(-0.100596 -0.424254 -0.14606)
(-0.266695 -0.538322 -0.0318935)
(-0.276493 -0.575831 -0.0261793)
(-0.283943 -0.632212 -0.0843817)
(-0.337499 -0.583125 -0.0204773)
(-0.34037 -0.530248 0.0547497)
(-0.301741 -0.359338 0.0849535)
(-0.44472 -0.317212 0.114516)
(-0.361759 -0.432038 0.0400361)
(-0.347613 -0.522953 0.0136053)
(-0.378156 -0.508709 -0.0241522)
(-0.428795 -0.394709 0.0317487)
(-0.497587 -0.346796 0.0728351)
(-0.529221 -0.255034 0.163671)
(-0.591552 -0.215599 0.241299)
(-0.680477 -0.197702 0.255887)
(-0.57678 -0.206857 0.211488)
(-0.517 -0.18792 0.181064)
(-0.54527 -0.18505 0.117709)
(-0.539822 -0.172129 0.0917773)
(-0.496257 -0.184306 0.000691356)
(-0.761828 -0.0867383 0.0644697)
(-0.97199 -0.00543233 0.089579)
(-1.07967 0.0520882 0.103456)
(-1.12889 0.0749874 0.138034)
(-1.1666 0.0358015 0.237769)
(-1.25136 0.0689741 0.267014)
(-1.31747 0.119397 0.348872)
(-1.33115 0.170861 0.431515)
(-1.27392 0.22196 0.523955)
(-1.1491 0.260987 0.603589)
(-0.976505 0.281366 0.648081)
(-0.776196 0.283758 0.657079)
(-0.623321 0.28902 0.644085)
(-0.341934 0.272787 0.64368)
(-0.435409 0.245567 0.874453)
(-0.467408 0.228323 1.00292)
(-0.460332 0.180564 1.08132)
(-0.441085 0.124388 1.01339)
(-0.439731 0.0591137 0.797948)
(-0.711231 -0.00475829 0.744268)
(-0.721852 0.0718943 0.94447)
(-0.740568 0.117686 1.02339)
(-0.745473 0.164758 0.979407)
(-0.695407 0.199218 0.872402)
(-0.838555 0.186674 0.862305)
(-0.880227 0.146277 0.964989)
(-0.882956 0.08866 1.00108)
(-0.873212 0.0422917 0.926297)
(-0.866867 -0.038758 0.706977)
(-1.01026 -0.0600803 0.675817)
(-1.02488 0.0207704 0.901078)
(-1.03795 0.0697935 0.966226)
(-1.04632 0.122281 0.944086)
(-1.02154 0.174209 0.853989)
(-1.16519 0.163089 0.803965)
(-1.16564 0.110748 0.892694)
(-1.14877 0.0573153 0.91456)
(-1.13151 0.00664275 0.859429)
(-1.11132 -0.0729023 0.640088)
(-1.17149 -0.083587 0.595474)
(-1.19714 -0.00609163 0.796849)
(-1.22361 0.043727 0.840045)
(-1.25309 0.091929 0.811458)
(-1.27083 0.141421 0.716809)
(-1.32031 0.110876 0.610139)
(-1.29177 0.0688894 0.709204)
(-1.25323 0.0250483 0.747204)
(-1.21772 -0.0216647 0.716369)
(-1.18748 -0.0934236 0.539738)
(-1.15421 -0.104693 0.472668)
(-1.18248 -0.0413671 0.621344)
(-1.22142 0.000204884 0.640677)
(-1.27585 0.0391513 0.606397)
(-1.30899 0.0742473 0.509108)
(-1.22585 0.0356636 0.414292)
(-1.18903 0.00284138 0.500073)
(-1.12922 -0.0322106 0.53114)
(-1.08689 -0.0601079 0.520171)
(-1.04049 -0.111789 0.386738)
(-0.919508 -0.120177 0.315169)
(-0.923821 -0.109415 0.358101)
(-0.973327 -0.0804163 0.438246)
(-0.957283 -0.087072 0.425045)
(-0.928406 -0.102696 0.394654)
(-1.0052 -0.0684921 0.381367)
(-0.996901 -0.0631167 0.307384)
(-1.00159 -0.0392144 0.282747)
(-1.04467 -0.027209 0.209067)
(-1.03966 -0.0095534 0.202369)
(-0.806715 -0.105234 0.145273)
(-0.819631 -0.125271 0.157787)
(-0.788653 -0.128491 0.216207)
(-0.824615 -0.141566 0.24936)
(-0.61051 -0.281873 0.132998)
(-0.557393 -0.291622 0.114763)
(-0.503872 -0.327061 0.132406)
(-0.420438 -0.399813 0.115957)
(-0.397086 -0.384215 0.149415)
(-0.488377 -0.284352 0.165211)
(-0.606348 -0.23919 0.183597)
(-0.615738 -0.267999 0.0967435)
(-0.513817 -0.378123 0.0438744)
(-0.439855 -0.46039 0.0279503)
(-0.397534 -0.526593 0.0576039)
(-0.384119 -0.698224 0.12195)
(-0.387248 -0.663606 0.12771)
(-0.405609 -0.380513 0.106654)
(-0.408594 -0.536771 0.0811937)
(-0.399492 -0.602198 0.0434855)
(-0.21591 -0.788596 -0.1591)
(-0.193533 -0.79439 -0.259955)
(-0.11544 -0.704272 -0.36959)
(-0.0786201 -0.624295 -0.385616)
(-0.0452041 -0.589107 -0.347887)
(-0.0137348 -0.556178 -0.301546)
(0.0314927 -0.502155 -0.232145)
(0.124139 -0.455631 -0.108985)
(0.124716 -0.580384 -0.121977)
(0.11682 -0.636873 -0.12025)
(0.0848463 -0.6949 -0.157738)
(0.0922347 -0.74959 -0.155869)
(0.100387 -0.80619 -0.175016)
(0.118131 -0.834522 -0.16708)
(0.126149 -0.841289 -0.152879)
(0.12636 -0.827466 -0.130322)
(0.11769 -0.791379 -0.0959716)
(0.104082 -0.734669 -0.0426794)
(0.0372032 -0.65467 0.0332748)
(0.00172254 -0.546309 0.153202)
(0.0157137 -0.300589 0.360006)
(-0.147183 0.0126675 0.448785)
(-0.366204 0.095029 0.350321)
(-0.392053 -0.0397136 0.256733)
(-0.219404 -0.172522 0.252036)
(-0.18025 -0.189239 0.268407)
(-0.157694 -0.179084 0.214312)
(-0.0923325 -0.144942 0.205877)
(-0.00127251 -0.0388545 0.0728509)
(-0.0351545 0.109258 0.0809857)
(-0.0807088 0.146772 0.0804115)
(-0.0492429 0.211364 0.17069)
(-0.00509813 0.17912 0.192668)
(0.0150765 0.0306372 0.143359)
(-0.046296 -0.0320351 0.228183)
(0.023935 0.0888692 0.324294)
(-0.00298391 -0.0663288 0.286447)
(0.0768184 0.142141 0.247263)
(0.0905375 -0.0263294 0.226741)
(-0.0204254 -0.256152 0.455841)
(0.0511174 -0.359828 0.544582)
(0.172797 -0.504499 0.51428)
(0.166743 -0.694528 0.351304)
(0.0752505 -0.818153 0.143714)
(0.058766 -0.889776 -0.00791319)
(0.0652868 -0.924172 -0.119657)
(0.0632868 -0.950558 -0.197805)
(0.0601931 -0.965213 -0.248784)
(0.0520678 -0.963408 -0.279439)
(0.0419117 -0.943489 -0.29277)
(0.0293129 -0.905887 -0.289598)
(0.0236609 -0.831082 -0.249879)
(0.00734228 -0.785303 -0.329115)
(0.0435525 -0.704444 -0.225536)
(0.0475969 -0.654183 -0.211548)
(0.0447924 -0.636705 -0.232269)
(0.00462491 -0.702699 -0.325529)
(-0.0225848 -0.742302 -0.383334)
(-0.0573622 -0.777638 -0.411066)
(-0.0732978 -0.844439 -0.401904)
(-0.132088 -0.904879 -0.346155)
(-0.0940798 -0.969327 -0.331937)
(-0.0890322 -0.980084 -0.373261)
(-0.0538251 -0.91867 -0.418308)
(-0.0435914 -0.868674 -0.432223)
(-0.0177578 -0.826503 -0.4046)
(-0.00960522 -0.869978 -0.341409)
(-0.039341 -0.902234 -0.374365)
(-0.0560829 -0.948885 -0.396748)
(-0.0237585 -0.992013 -0.405974)
(-0.0487065 -1.06034 -0.420584)
(-0.0666553 -1.04296 -0.424213)
(-0.0935661 -0.920775 -0.345021)
(-0.186732 -0.762118 -0.224591)
(-0.198546 -0.614217 -0.0410189)
(-0.100122 -0.733734 -0.197028)
(-0.0797351 -0.839845 -0.25954)
(-0.0594542 -0.929136 -0.32341)
(-0.0608867 -0.946569 -0.334109)
(-0.0277571 -0.829731 -0.380838)
(-0.0239525 -0.724796 -0.337146)
(-0.0321283 -0.542332 -0.253819)
(-0.0162428 -0.353397 -0.163118)
(0.0335892 -0.0905673 -0.208575)
(-0.248302 -0.433869 0.0731295)
(-0.329382 -0.461518 0.0261267)
(0.221496 -0.118426 -0.244371)
(-0.172653 -0.247454 0.0434763)
(-0.218092 -0.266617 -0.11676)
(-0.258439 -0.268881 -0.103316)
(-0.20858 -0.2817 -0.0213263)
(0.0812161 0.140759 -0.219152)
(0.10278 0.0595986 -0.231754)
(0.100946 -0.00028377 -0.260657)
(0.0963566 -3.1745e-05 -0.265709)
(-0.0799966 -0.429918 -0.201412)
(-0.132956 -0.450132 -0.222498)
(-0.186099 -0.458487 -0.206514)
(-0.249085 -0.445246 -0.169173)
(-0.168965 -0.547625 -0.1842)
(-0.12682 -0.559517 -0.25717)
(-0.096249 -0.565847 -0.291367)
(-0.0606131 -0.554104 -0.291661)
(-0.0507357 -0.743125 -0.348971)
(-0.0816151 -0.757721 -0.331983)
(-0.106371 -0.769987 -0.281705)
(-0.147186 -0.760206 -0.194731)
(-0.13451 -0.821983 -0.18232)
(-0.128805 -0.88296 -0.200296)
(-0.098176 -0.905659 -0.297393)
(-0.0727093 -0.872779 -0.373767)
(-0.0492136 -0.852615 -0.400068)
(-0.0768613 -0.968231 -0.370849)
(-0.112231 -0.989866 -0.335823)
(-0.138168 -1.0101 -0.28362)
(-0.137251 -1.09281 -0.346912)
(-0.0801948 -1.06724 -0.399269)
(-0.0725979 -1.14487 -0.440926)
(-0.0494318 -1.12339 -0.473603)
(-0.0269438 -1.11445 -0.458934)
(-0.00329809 -1.04265 -0.415632)
(0.0121205 -1.07471 -0.406765)
(-0.0127165 -1.15301 -0.469828)
(-0.0398914 -1.18004 -0.494299)
(-0.0686165 -1.20816 -0.463032)
(-0.131606 -1.22865 -0.379167)
(-0.134945 -1.16634 -0.369224)
(-0.283725 -1.04648 -0.225392)
(-0.4574 -1.14586 -0.0769639)
(-0.463795 -1.09995 -0.0674813)
(-0.416071 -1.04566 -0.0647734)
(-0.302902 -1.03619 -0.0738296)
(-0.255744 -0.967461 -0.0640303)
(-0.309219 -0.944931 -0.0576199)
(-0.342339 -0.849071 -0.0421951)
(-0.378098 -0.713719 -0.0378641)
(-0.473799 -0.62699 -0.0366936)
(-0.409879 -0.401566 -0.0340609)
(-0.464854 -0.660944 -0.00582058)
(-0.316678 -0.457746 0.0246042)
(-0.638478 -0.398869 0.00542727)
(-0.815449 -0.379465 0.0601249)
(-0.917984 -0.384586 0.0845947)
(-0.968028 -0.397369 0.12432)
(-0.979991 -0.525468 0.0977482)
(-0.940314 -0.689605 0.0653532)
(-0.924006 -0.750382 0.0524792)
(-0.874488 -0.848711 0.03642)
(-0.858866 -0.895887 0.0304384)
(-0.820997 -0.928204 0.00759189)
(-0.703699 -0.967907 -0.0230363)
(-0.592509 -1.00248 -0.0420164)
(-0.626758 -0.95308 -0.0172161)
(-0.484956 -0.972133 -0.0307118)
(-0.502858 -0.893832 -0.030128)
(-0.530479 -0.797354 -0.0232767)
(-0.55932 -0.73113 -0.0194636)
(-0.686446 -0.712697 -0.00980948)
(-0.675011 -0.598362 -0.00778851)
(-0.824205 -0.577424 0.0303295)
(-0.918576 -0.559779 0.0503863)
(-0.881445 -0.697272 0.0231283)
(-0.800465 -0.704834 0.0121831)
(-0.777577 -0.790052 0.00226962)
(-0.660935 -0.798546 -0.0107822)
(-0.635772 -0.882948 -0.0170465)
(-0.748511 -0.866507 -0.00514718)
(-0.825559 -0.850859 0.00442581)
(-0.863205 -0.773255 0.0134953)
(-0.801712 -0.739161 -0.0117924)
(-0.624294 -0.61236 0.00184768)
(-0.847255 -0.659864 0.0116718)
(-0.868264 -0.518508 0.0520433)
(-0.870685 -0.379881 0.0581293)
(-0.843624 -0.282313 0.121589)
(-0.832571 -0.302326 0.0765219)
(-0.879127 -0.350717 0.0525592)
(-0.875498 -0.203961 0.129028)
(-0.894524 -0.184266 0.174073)
(-0.761023 -0.161555 0.158435)
(-0.766842 -0.129099 0.259142)
(-0.778153 -0.120799 0.301914)
(-0.821905 -0.108686 0.355325)
(-0.82943 -0.119305 0.352649)
(-0.642742 -0.181783 0.251025)
(-0.607774 -0.173705 0.248441)
(-0.567815 -0.18054 0.215549)
(-0.551323 -0.175697 0.188921)
(-0.568969 -0.191259 0.120337)
(-0.338437 -0.194859 0.0768388)
(-0.320339 -0.189364 0.101765)
(-0.329531 -0.192065 0.114281)
(-0.36087 -0.198955 0.12443)
(-0.449511 -0.216988 0.141746)
(-0.405524 -0.253483 0.0596417)
(-0.382386 -0.285036 0.0682938)
(-0.410937 -0.341171 0.0469549)
(-0.316188 -0.427081 0.0358014)
(-0.311976 -0.394485 0.0490311)
(-0.283802 -0.416394 0.015519)
(-0.193108 -0.419636 -0.0205614)
(-0.337361 -0.254207 0.0353272)
(-0.403209 -0.331027 0.041013)
(-0.248455 -0.457568 -0.00675023)
(-0.29188 -0.459961 0.000186404)
(-0.452062 -0.321329 0.0718669)
(-0.524866 -0.299092 0.131187)
(-0.498251 -0.318761 0.136274)
(-0.471101 -0.336913 0.111327)
(-0.458882 -0.350755 0.0942337)
(-0.493266 -0.373271 0.00853104)
(-0.710878 -0.317889 0.0631237)
(-0.717927 -0.529978 0.0388939)
(-0.549077 -0.554541 -0.00184803)
(-0.509955 -0.60725 -0.0041018)
(-0.46572 -0.649549 -0.0175803)
(-0.436958 -0.652811 -0.0212761)
(-0.412883 -0.531071 -0.0231088)
(-0.411071 -0.54105 -0.0485417)
(-0.409938 -0.541519 -0.0344595)
(-0.335425 -0.550611 -0.0171636)
(-0.267443 -0.596105 -0.00738482)
(-0.319508 -0.581096 -0.00360787)
(-0.403401 -0.513175 0.00703354)
(-0.331958 -0.53557 -0.00424235)
(-0.438716 -0.630591 -0.0119692)
(-0.292904 -0.473401 -0.00519084)
(-0.210326 -0.539902 -0.01835)
(-0.281042 -0.524846 -0.0163249)
(-0.39441 -0.436256 -0.000794333)
(-0.413851 -0.362893 -0.0104911)
(-0.260556 -0.394366 -0.0110913)
(-0.156944 -0.423096 -0.0363574)
(-0.136312 -0.399686 -0.0226311)
(-0.238174 -0.205449 0.0223733)
(-0.382571 -0.34301 -0.00205081)
(-0.251688 -0.474782 -0.0197547)
(-0.219025 -0.468209 -0.0236665)
(-0.122077 -0.393038 -0.0299719)
(-0.219273 -0.194598 0.0392487)
(-0.34686 -0.338092 0.0121648)
(-0.36628 -0.363441 0.0541697)
(-0.195867 -0.511353 -0.0108358)
(-0.174138 -0.468296 0.0186924)
(-0.110051 -0.420444 0.0020105)
(-0.222428 -0.229196 0.0447567)
(-0.325954 -0.342051 0.0523675)
(-0.335211 -0.339137 0.0570087)
(-0.180691 -0.463479 0.0167444)
(-0.109419 -0.409203 0.000180103)
(-0.232097 -0.220599 0.0622068)
(-0.286154 -0.221587 0.0775558)
(-0.240626 -0.2304 0.0713222)
(-0.350504 -0.337193 0.0785332)
(-0.189817 -0.465573 0.048432)
(-0.117932 -0.415867 0.0375173)
(-0.140635 -0.449955 -0.00371267)
(-0.196613 -0.497875 0.0257713)
(-0.381878 -0.350849 0.0791711)
(-0.334515 -0.62579 -0.00355498)
(-0.355786 -0.63248 -0.0116366)
(-0.499488 -0.512146 0.057877)
(-0.651509 -0.444924 0.0982822)
(-0.667001 -0.286907 0.136344)
(-0.798455 -0.27169 0.170516)
(-0.891166 -0.32088 0.166434)
(-1.02104 -0.488982 0.125978)
(-1.1079 -0.495269 0.16774)
(-1.13278 -0.502852 0.192926)
(-1.11277 -0.505159 0.21594)
(-1.0494 -0.501386 0.238837)
(-0.94369 -0.490375 0.260729)
(-0.794571 -0.466966 0.28733)
(-0.639625 -0.431803 0.326936)
(-0.396901 -0.380681 0.395878)
(-0.16153 -0.293449 0.484497)
(0.0456288 -0.150729 0.48778)
(0.339931 -0.158304 0.428204)
(0.340053 -0.21507 0.377495)
(0.205422 -0.127913 0.486761)
(0.273329 -0.00348096 0.765989)
(0.284478 0.0456695 1.0321)
(0.269409 0.0805141 1.14258)
(0.25112 0.133054 1.09265)
(0.213007 0.122491 0.956131)
(0.142326 0.1211 0.704887)
(0.0398378 0.187684 0.405515)
(0.174127 0.513477 0.425346)
(0.420949 0.514747 0.374585)
(0.607219 0.539015 0.375727)
(0.852094 0.497701 0.351415)
(1.00968 0.416509 0.317624)
(1.07255 0.321936 0.27416)
(1.05381 0.253458 0.234921)
(0.998791 0.210223 0.201116)
(1.01435 0.158813 0.169492)
(1.0342 0.118209 0.146174)
(0.976274 0.0918021 0.0916691)
(0.874225 0.041963 0.0684914)
(0.709963 -0.0234133 0.05452)
(0.465484 -0.110415 0.0212302)
(0.238629 -0.21716 -0.0234195)
(0.0990324 -0.61806 -0.111293)
(0.17446 -0.381652 -0.0792923)
(-0.179763 -0.169899 0.00556955)
(-0.100023 -0.386077 -0.0385792)
(-0.109484 -0.303508 -0.064265)
(-0.11151 -0.326072 -0.072158)
(-0.108886 -0.280676 -0.0601828)
(-0.0743311 -0.195009 -0.0530516)
(-0.159979 -0.140884 -0.0139281)
(-0.222787 0.271658 0.163078)
(-0.12606 0.491138 0.120219)
(-0.038076 0.612344 0.072405)
(0.0338548 0.652331 0.078241)
(0.120542 0.671898 0.170415)
(0.21686 0.720712 0.291271)
(0.310363 0.759241 0.33402)
(0.394777 0.757165 0.366919)
(0.473231 0.694849 0.374745)
(0.539389 0.555592 0.371842)
(0.591753 0.33408 0.337293)
(0.571432 0.00119849 0.263342)
(0.394743 -0.337091 0.25832)
(0.294291 -0.337126 0.320457)
(0.228797 -0.291536 0.329926)
(0.161719 -0.200915 0.33502)
(0.147872 -0.00421604 0.313176)
(0.289341 0.00894803 0.340627)
(0.452388 -0.158431 0.331001)
(0.604929 -0.255841 0.342468)
(0.644065 -0.344839 0.351538)
(0.62493 -0.436669 0.353537)
(0.478055 -0.541396 0.334818)
(0.109076 -0.56624 0.316699)
(-0.170289 -0.298503 0.302365)
(-0.0375047 -0.128812 0.355715)
(0.230613 -0.152692 0.237897)
(0.281693 -0.404559 0.072333)
(0.00834521 -0.520315 0.238379)
(-0.141564 -0.749736 -0.142407)
(0.200275 -0.721288 -0.481325)
(0.309202 -0.395457 -0.177809)
(0.332455 -0.376343 0.092702)
(0.346523 -0.546496 0.183118)
(0.329152 -0.89032 0.119768)
(0.533305 -0.873062 0.0648546)
(0.612551 -0.692508 0.0982112)
(0.577928 -0.538951 0.137708)
(0.508196 -0.396807 0.188088)
(0.338858 -0.231795 0.24644)
(0.36309 -0.348128 0.194599)
(0.426734 -0.37906 0.141881)
(0.50791 -0.365075 0.0794935)
(0.618897 -0.296858 -0.0568571)
(0.863807 0.191482 -0.11823)
(0.908436 0.475851 -0.0226837)
(0.853799 0.677904 0.0488321)
(0.754744 0.779405 0.0915824)
(0.626697 0.804554 0.137337)
(0.480377 0.772226 0.154245)
(0.3178 0.70798 0.168137)
(0.14659 0.639199 0.106975)
(-0.0289814 0.598638 0.0513145)
(-0.151303 0.560349 0.0579656)
(-0.271617 0.455183 0.115975)
(-0.40177 0.265428 0.1646)
(-0.288268 -0.0994019 0.0211282)
(-0.408579 0.049477 0.0787727)
(-0.493121 0.0921684 0.103625)
(-0.52797 0.210484 0.13653)
(-0.540024 0.157143 0.105658)
(-0.501633 0.0221184 0.0267725)
(-0.455101 -0.0537934 0.0142053)
(-0.382296 -0.117214 -0.0077266)
(-0.286109 -0.18859 -0.0208229)
(-0.191083 -0.224365 -0.0352062)
(-0.137598 -0.192706 -0.0261857)
(-0.199129 -0.152372 -0.0178961)
(-0.18217 -0.315983 -0.0296206)
(-0.1215 -0.31227 -0.042259)
(-0.100418 -0.333703 -0.0693591)
(-0.0794314 -0.369284 -0.101716)
(-0.0485361 -0.560738 -0.220208)
(-0.0896896 -0.500532 -0.148294)
(-0.108243 -0.607032 -0.113036)
(-0.153091 -0.612923 -0.0846215)
(-0.199045 -0.514517 -0.0757266)
(-0.307268 -0.311088 -0.0395441)
(-0.231515 0.250624 0.146813)
(-0.0845466 0.398117 0.298579)
(0.00507149 0.492419 0.441036)
(0.0746601 0.486163 0.560841)
(0.144232 0.425562 0.624218)
(0.197658 0.313911 0.654794)
(0.249113 0.160717 0.627499)
(0.235386 -0.0184148 0.531505)
(0.105791 -0.138898 0.440385)
(-0.0113859 -0.102839 0.449451)
(-0.0322123 0.0122172 0.427081)
(-0.0343424 0.136666 0.428259)
(0.0373141 0.243631 0.369908)
(0.199427 0.136453 0.38531)
(0.158015 0.271558 0.451788)
(-0.0576269 0.180465 -0.0518306)
(-0.171247 -0.0695107 -0.644215)
(-0.17994 -0.307268 -0.545039)
(-0.167875 -0.345825 -0.310317)
(-0.144074 -0.305096 -0.0962571)
(-0.0621983 -0.588854 -0.107288)
(-0.028339 -0.866795 -0.0937581)
(0.00158746 -1.02341 -0.0907248)
(0.0317586 -1.14631 -0.0995382)
(0.0647347 -1.22935 -0.113583)
(0.0949903 -1.28145 -0.127475)
(0.121522 -1.30722 -0.139333)
(0.145527 -1.31497 -0.151305)
(0.166507 -1.31209 -0.163943)
(0.184924 -1.30208 -0.174935)
(0.200728 -1.2866 -0.183639)
(0.214834 -1.26629 -0.189047)
(0.227323 -1.241 -0.191996)
(0.23871 -1.20944 -0.19104)
(0.24839 -1.17017 -0.185993)
(0.254235 -1.12075 -0.175225)
(0.251446 -1.05832 -0.158558)
(0.194563 -0.99538 -0.138767)
(0.139662 -0.910587 -0.122618)
(0.164281 -0.826736 -0.0869121)
(0.187547 -0.726411 -0.0881226)
(0.203679 -0.558001 -0.0880049)
(0.246461 -0.441241 -0.0843275)
(0.0720106 -0.0296948 -0.0953351)
(0.365454 -0.2975 0.0435646)
(0.245408 -0.549824 -0.0570024)
(0.285614 -0.0943997 -0.0268164)
(0.180376 -0.0366601 -0.147151)
(0.201141 -0.112083 -0.124463)
(0.193886 -0.119031 -0.0806431)