/*--------------------------------*- C++ -*----------------------------------*\
| =========                 |                                                 |
| \\      /  F ield         | OpenFOAM: The Open Source CFD Toolbox           |
|  \\    /   O peration     | Version:  v2012                                 |
|   \\  /    A nd           | Website:  www.openfoam.com                      |
|    \\/     M anipulation  |                                                 |
\*---------------------------------------------------------------------------*/
FoamFile
{
    version     2.0;
    format      ascii;
    class       volScalarField;
    location    "105";
    object      nut;
}
// * * * * * * * * * * * * * * * * * * * * * * * * * * * * * * * * * * * * * //

dimensions      [0 2 -1 0 0 0 0];


internalField   nonuniform List<scalar> 
18258
(
0.00417084
0.00181995
0.00149311
0.00129556
0.000857034
0.00140212
0.00194752
0.00231771
0.00243132
0.00241068
0.00249629
0.00421335
0.00591367
0.00730911
0.00767898
0.00766817
0.00696585
0.00665829
0.00725275
0.0088965
0.00745408
0.00478183
0.0057152
0.00662591
0.00724374
0.00642274
0.00519822
0.00480672
0.00435223
0.00363375
0.00305916
0.00214596
0.00149531
0.00139348
0.00127131
0.00145476
0.00158842
0.00169582
0.00173501
0.00176449
0.00175436
0.00174596
0.0016998
0.00166765
0.00161193
0.00132035
0.00154963
0.00169074
0.0018432
0.00251739
0.00269243
0.00225952
0.00249635
0.00222587
0.00146654
0.00168003
0.00182363
0.00186241
0.00183805
0.00176145
0.0017355
0.00171355
0.00168583
0.00165296
0.00163291
0.0016492
0.00166624
0.00164811
0.00156714
0.00150157
0.00139549
0.00128919
0.0012104
0.00114935
0.0011033
0.00105228
0.000994898
0.000874011
0.000810115
0.00107274
0.00134671
0.00143889
0.00203941
0.00248649
0.0025034
0.00187504
0.00133644
0.00138697
0.0015423
0.00155838
0.00132107
0.00157098
0.00177986
0.00184457
0.00192222
0.00214839
0.00244234
0.00237891
0.0021186
0.00195213
0.00191623
0.0021937
0.002083
0.00270044
0.00272169
0.00237275
0.00219159
0.00246594
0.0031788
0.00342171
0.00266473
0.00250201
0.00245319
0.00242297
0.00219181
0.00226761
0.00205862
0.00185481
0.00201965
0.00244085
0.00231628
0.00253092
0.00262163
0.00245876
0.00284785
0.00328165
0.00323338
0.00258734
0.00210948
0.00196633
0.00198095
0.00121153
0.00130825
0.00140992
0.00144441
0.00146831
0.00148877
0.00158755
0.00158398
0.0015605
0.00155704
0.0015833
0.00087303
0.000945998
0.000969645
0.000976418
0.00092738
0.000917899
0.000900931
0.000887042
0.000836323
0.000800271
0.000957476
0.00107498
0.00117055
0.00128212
0.00144879
0.00165293
0.00186763
0.00208473
0.00222844
0.00226956
0.00231111
0.00222765
0.00214362
0.00222039
0.0022336
0.00221954
0.00218996
0.00215258
0.00210203
0.00200917
0.00211747
0.00211203
0.00198455
0.00170084
0.00173903
0.00173645
0.00178183
0.00177255
0.00179018
0.00176412
0.00173292
0.00164835
0.00152945
0.00127308
0.00126227
0.00127493
0.00163326
0.00198006
0.00305546
0.00372051
0.00430961
0.0046033
0.0049184
0.00399051
0.00444617
0.00343582
0.0030827
0.00391492
0.00511744
0.00292087
0.0015995
0.00303456
0.00269774
0.00196427
0.00174955
0.00180472
0.00179523
0.00203837
0.00235288
0.00262094
0.00275038
0.00286246
0.002952
0.00305025
0.00317406
0.0032084
0.00309873
0.00262206
0.00316174
0.00257457
0.00301458
0.00273669
0.00186795
0.00183815
0.00199634
0.0018416
0.00179401
0.00170511
0.0015508
0.00199723
0.00253067
0.00291947
0.00333052
0.0044467
0.00411185
0.00393657
0.00304906
0.00294816
0.00153375
0.00218847
0.00227558
0.00257096
0.00170662
0.00156156
0.00148416
0.00194771
0.00225384
0.00265725
0.00294915
0.00350132
0.00272366
0.00311855
0.00282859
0.0019832
0.00189541
0.00270387
0.00290998
0.00239012
0.00212826
0.00267284
0.00253199
0.00179941
0.00141306
0.00217837
0.002253
0.00163116
0.00406982
0.00436013
0.00415745
0.00504159
0.006308
0.00718402
0.00671966
0.00595789
0.00661967
0.00525638
0.00512025
0.00547518
0.00460015
0.00320639
0.0032839
0.00339279
0.00348348
0.00373975
0.00397284
0.00425756
0.00452818
0.00411661
0.00341946
0.00258898
0.00178271
0.00175903
0.00175026
0.00157174
0.00232963
0.00352539
0.00350244
0.00199163
0.00116165
0.00131444
0.00148446
0.00147013
0.00106656
0.000802464
0.00138195
0.00157972
0.00160491
0.0015648
0.00147719
0.00154348
0.00247858
0.00381832
0.00419535
0.00434516
0.00448705
0.00458739
0.0046434
0.00466142
0.00467162
0.00468402
0.00469488
0.0047112
0.0046967
0.00459669
0.0040431
0.00254182
0.00148551
0.00137952
0.00152248
0.00163616
0.00173525
0.00147646
0.000903076
0.00144204
0.00184674
0.00212306
0.00214144
0.00199872
0.00193912
0.00305826
0.00406672
0.00479408
0.00494206
0.00500864
0.0049549
0.00494938
0.00484339
0.00481261
0.00422312
0.00301131
0.00329047
0.00353263
0.00357164
0.00365296
0.00377492
0.0036878
0.00348786
0.00508766
0.00587626
0.0059523
0.00607882
0.00600775
0.00590627
0.00563989
0.00533458
0.00449143
0.00336845
0.0021257
0.0021703
0.00231061
0.00228858
0.00199233
0.00209846
0.00227766
0.00230056
0.00237608
0.00266451
0.00302639
0.00288747
0.00248574
0.00211092
0.00196585
0.00192378
0.00184488
0.00138089
0.00140245
0.00136414
0.00138681
0.00186327
0.0022177
0.0025576
0.00362654
0.0032347
0.00263048
0.00416994
0.0042743
0.00459259
0.00507444
0.00519966
0.0057599
0.00400753
0.00361247
0.00371039
0.00303086
0.00280544
0.00283518
0.00284582
0.00265237
0.00290311
0.00287745
0.00277321
0.0030616
0.00337357
0.00444812
0.00538917
0.00568544
0.0058563
0.00592641
0.00590623
0.00579551
0.00583607
0.0051314
0.00513595
0.00491645
0.00477621
0.00472733
0.00449714
0.00513761
0.00533165
0.00539589
0.00552948
0.00573819
0.00557785
0.00540661
0.005276
0.0051814
0.00508258
0.0051342
0.00522842
0.00532895
0.00546992
0.00565782
0.00568667
0.00549198
0.00534475
0.00524404
0.00514924
0.00515174
0.00523605
0.00533427
0.00547381
0.00565218
0.00555179
0.00541306
0.00528962
0.00518842
0.00509926
0.00492015
0.00503783
0.0051672
0.00527348
0.00534199
0.00461595
0.00493483
0.00485083
0.00439262
0.00411196
0.00312258
0.00337928
0.00356318
0.00388083
0.00430709
0.00439022
0.00368381
0.00315688
0.00307602
0.0030512
0.00312335
0.00314922
0.00316469
0.00357595
0.00538278
0.00542134
0.00543903
0.00544294
0.00465614
0.00452314
0.00421173
0.00769708
0.00716877
0.00621205
0.0051242
0.00274568
0.00235342
0.00278751
0.00339016
0.00379079
0.0041842
0.00277709
0.00172076
0.00200578
0.00208043
0.00203061
0.00187729
0.00156344
0.00144314
0.00130988
0.0014095
0.00249533
0.00398047
0.00448305
0.00453029
0.00448513
0.0043977
0.00429148
0.00414372
0.00408594
0.00514135
0.00695085
0.00785685
0.00782436
0.00671736
0.00547968
0.00309689
0.00160606
0.00120733
0.00125514
0.00138322
0.00161981
0.00143372
0.00125052
0.00135912
0.0012781
0.00258185
0.00444175
0.00565297
0.00670166
0.00659194
0.00572729
0.00468725
0.00444617
0.00455123
0.00462158
0.00468171
0.00474331
0.00478567
0.00475939
0.00433246
0.00267756
0.00159864
0.00142053
0.00152791
0.00179063
0.0019023
0.00192105
0.00189382
0.00164142
0.00271376
0.00431107
0.00274095
0.0014957
0.00161639
0.00160495
0.0028309
0.00282635
0.0027649
0.00430169
0.00454871
0.0045375
0.00426328
0.00407029
0.00241011
0.00273423
0.00274317
0.00275779
0.00280323
0.00141596
0.00154346
0.00159147
0.0017131
0.0015025
0.00190495
0.000492703
0.000683035
0.000793307
0.000862488
0.000929003
0.000911169
0.00174229
0.00176812
0.00168878
0.0016446
0.00208652
0.0022394
0.00228883
0.00210824
0.0019454
0.00207115
0.00207553
0.00195564
0.00185251
0.00192112
0.00192248
0.00184189
0.0015666
0.00146789
0.00161179
0.00159452
0.00158169
0.00284074
0.00283575
0.00268334
0.00440934
0.00433812
0.00485895
0.00482692
0.00482098
0.00480107
0.00485242
0.0048798
0.00490055
0.00492487
0.00491535
0.00486817
0.00678556
0.00478774
0.00417781
0.00241544
0.00232656
0.00164304
0.00143977
0.00169538
0.00181328
0.00196583
0.00192136
0.00202571
0.00202358
0.00214693
0.00199292
0.00176985
0.00271142
0.00289692
0.00282956
0.00288577
0.00281787
0.00280149
0.00278044
0.00274036
0.0026923
0.00160281
0.00157206
0.00184087
0.00193236
0.00207635
0.00209533
0.00214078
0.0020306
0.00178619
0.00172907
0.00199095
0.00196415
0.00200201
0.00188757
0.00188005
0.00167522
0.00171765
0.00346756
0.00640901
0.00329354
0.00365931
0.00331373
0.00376978
0.00330067
0.0028456
0.00291229
0.00256477
0.00267529
0.00280642
0.00285713
0.00300264
0.00353903
0.00340743
0.00299134
0.00290471
0.00284749
0.00268454
0.00241617
0.00253155
0.00255455
0.00260917
0.00289943
0.00332629
0.00372954
0.00453172
0.00439809
0.00385314
0.00352279
0.00369584
0.00375769
0.00473061
0.00442131
0.00439409
0.00463324
0.00458654
0.00435434
0.00412694
0.003984
0.00341996
0.00347654
0.00398098
0.00385135
0.00396872
0.00389957
0.00405231
0.00412631
0.00396189
0.00368243
0.00386698
0.00385759
0.0042851
0.00416872
0.00386639
0.00354158
0.00378038
0.00373275
0.00431417
0.0040625
0.00379978
0.00349577
0.00334708
0.00380008
0.00373157
0.00423271
0.00435369
0.00435614
0.00379642
0.00370899
0.00441299
0.00424628
0.00410066
0.00427183
0.00353748
0.00363834
0.00448265
0.00457672
0.00434223
0.00362398
0.00367943
0.00315507
0.00371153
0.00461953
0.00436406
0.00357779
0.00296833
0.00415232
0.00436777
0.00462215
0.00436779
0.0047583
0.00512807
0.00417821
0.00454756
0.00594676
0.00453291
0.00526177
0.00537987
0.00541329
0.0054181
0.00544151
0.00547179
0.00576984
0.00562469
0.00356319
0.00426764
0.00414289
0.00345725
0.00292889
0.00322971
0.00347876
0.00352816
0.00361652
0.00375346
0.00369032
0.0035785
0.00522421
0.00595323
0.00610186
0.0062291
0.00612635
0.00596374
0.00560235
0.00516691
0.00428649
0.00319686
0.00199463
0.00203392
0.00216867
0.00214939
0.00186654
0.00140771
0.000922733
0.00136413
0.00140329
0.00131666
0.00119555
0.00104872
0.00107349
0.00199972
0.00397257
0.00545373
0.00606392
0.00658967
0.007078
0.00749214
0.00780513
0.00803813
0.00820437
0.00831279
0.00833501
0.00817901
0.00750272
0.00718394
0.00679005
0.00647363
0.00602342
0.00561932
0.00633945
0.00694237
0.0073055
0.00771269
0.00788664
0.00778589
0.00675759
0.00664203
0.0076565
0.00939251
0.00798107
0.0100133
0.0117678
0.00921159
0.00825754
0.0082119
0.00913785
0.00933145
0.00902472
0.00853104
0.00795975
0.00723283
0.00759666
0.00792158
0.00823137
0.00852592
0.00926879
0.00940809
0.009339
0.00918258
0.00898759
0.00874056
0.0083654
0.00783752
0.00715632
0.00640879
0.00558989
0.00398973
0.00184561
0.00215845
0.00210871
0.00232294
0.00224528
0.00100629
0.00110289
0.00111177
0.00111254
0.00104728
0.00118498
0.00173128
0.00281804
0.0020276
0.00165146
0.00115049
0.00137111
0.00229067
0.00389593
0.00436684
0.00444736
0.0054539
0.0064967
0.00698998
0.0073449
0.0076589
0.00779897
0.0076987
0.00746552
0.00704606
0.0065718
0.00636195
0.00603925
0.0057282
0.00556278
0.00536268
0.00506046
0.00412814
0.00372448
0.00388151
0.00384749
0.00368518
0.00393586
0.00407864
0.00407585
0.00412183
0.00416166
0.00428411
0.00442777
0.00455222
0.00461627
0.00463853
0.00464412
0.00465186
0.00465802
0.00467128
0.00465476
0.00455221
0.00399628
0.00249689
0.00145677
0.00134784
0.00147833
0.00156369
0.00160056
0.00142063
0.000913679
0.00142171
0.00183991
0.00188638
0.00206734
0.00213063
0.00225592
0.00251415
0.00291088
0.00300668
0.00266765
0.00252709
0.00247257
0.00240829
0.00205859
0.00256492
0.0028344
0.00282978
0.00280388
0.00303084
0.00373152
0.00358502
0.00316015
0.00312333
0.00309123
0.00278871
0.00274411
0.00300696
0.00304067
0.00315714
0.00370403
0.00444462
0.00412198
0.0037524
0.00359226
0.00331586
0.00290851
0.00262946
0.00327289
0.00270678
0.00138255
0.00117719
0.00119162
0.0011904
0.00114
0.00134455
0.00140784
0.00141972
0.00131711
0.00146612
0.00163398
0.00158209
0.00181772
0.00178828
0.00159131
0.00158108
0.0017221
0.00182859
0.00188018
0.00192116
0.00314726
0.00323659
0.00250774
0.00363038
0.00420959
0.00422068
0.00446153
0.00365218
0.00325456
0.00386982
0.00449344
0.00519347
0.00408592
0.0038479
0.00395621
0.00180398
0.000948376
0.0013392
0.00166073
0.00184594
0.00178716
0.00168768
0.00142585
0.00253227
0.00260433
0.00412143
0.00462338
0.00467147
0.00465191
0.00489294
0.00552138
0.00651971
0.00691903
0.00703666
0.00691901
0.00663533
0.00611877
0.00563088
0.00557674
0.00539212
0.00524416
0.00520495
0.00460219
0.00400917
0.00417047
0.00412062
0.00425994
0.00432493
0.00437157
0.00441906
0.00449849
0.00459413
0.00468096
0.00474093
0.00478088
0.00481453
0.00484889
0.00488307
0.00491984
0.0049388
0.0048905
0.00441764
0.00264395
0.00157492
0.00143638
0.00153254
0.00180139
0.00189591
0.00203692
0.00180878
0.000953079
0.00112361
0.00195096
0.00216098
0.00199864
0.00187058
0.00184075
0.00154125
0.00279362
0.002758
0.00433287
0.00487282
0.00493994
0.00492483
0.00488442
0.00483865
0.00479842
0.00476578
0.00474039
0.00471348
0.00467526
0.00462826
0.00457977
0.00452811
0.00445016
0.00432829
0.00426812
0.0044502
0.00449031
0.00466401
0.00493302
0.00509725
0.00502836
0.00486242
0.00475036
0.00474792
0.00478751
0.00483161
0.00487149
0.00489151
0.00484198
0.00456623
0.0042827
0.00271494
0.0027516
0.00135297
0.00150326
0.00173568
0.0017928
0.00194742
0.00194163
0.00152649
0.0011847
0.00133424
0.00124528
0.00222602
0.00245036
0.00272225
0.00269681
0.00146491
0.00150065
0.00155736
0.00176236
0.00163342
0.00157599
0.00391911
0.00376121
0.00393081
0.00482978
0.00417161
0.00289203
0.0031801
0.00441932
0.00465107
0.00282018
0.00210121
0.00234625
0.00298106
0.00437604
0.00442399
0.00419295
0.0041771
0.00306955
0.0037526
0.00448918
0.00437037
0.00343597
0.00237318
0.00174856
0.000842398
0.00160402
0.00137359
0.00336009
0.00371752
0.00366777
0.0040182
0.00426976
0.00431572
0.0041939
0.00371895
0.00379238
0.00383124
0.00436701
0.00438824
0.00371315
0.00313328
0.00254006
0.00256212
0.00261211
0.0028965
0.00363054
0.00342064
0.00299709
0.00290554
0.00284259
0.00267403
0.00241196
0.00211704
0.00213185
0.00198458
0.00192098
0.00302897
0.00403293
0.00475662
0.00489317
0.00494171
0.00486409
0.00482734
0.00468661
0.00461248
0.00400509
0.00511182
0.00540451
0.00522056
0.00526403
0.00530088
0.00534416
0.00534646
0.00524591
0.0045058
0.00268981
0.00175648
0.00198227
0.00213923
0.00200832
0.00199731
0.00212925
0.00202084
0.00177545
0.00287723
0.00281282
0.00449945
0.00509826
0.00520759
0.00521169
0.0051873
0.00516562
0.00516867
0.00543886
0.00531869
0.00541927
0.005727
0.00572788
0.00579304
0.00543658
0.00536506
0.00531852
0.00528686
0.00523683
0.00510657
0.00451743
0.00437982
0.00497547
0.00513036
0.00519993
0.00524847
0.00530589
0.00538018
0.00559303
0.00575291
0.00581985
0.00557083
0.00546549
0.0053337
0.00515295
0.00511229
0.00510779
0.00510754
0.00508632
0.00495474
0.00435967
0.00280214
0.00287116
0.00170736
0.0017182
0.00197851
0.00207766
0.00204023
0.00188904
0.00184168
0.00316561
0.00360437
0.00383494
0.00413986
0.00395205
0.00393215
0.00450287
0.00435531
0.00390326
0.00405735
0.00361819
0.00344026
0.00334545
0.00336303
0.00176068
0.00190039
0.00198267
0.00195027
0.00186486
0.00166392
0.00152592
0.00278629
0.00276542
0.00272867
0.00162181
0.00158568
0.00186837
0.00181398
0.00165893
0.00141373
0.00155038
0.00239428
0.00267966
0.00415509
0.00430933
0.00461293
0.00493443
0.00505522
0.00508378
0.00510005
0.00511941
0.00516786
0.00522753
0.00524933
0.00525263
0.00529886
0.0052861
0.00528929
0.00526516
0.00523529
0.00519884
0.0051588
0.00509232
0.00495567
0.00462957
0.00430998
0.00485911
0.00490471
0.00499663
0.00509098
0.00513048
0.00513509
0.00511352
0.00507203
0.00502202
0.00496724
0.00496523
0.0051196
0.00515987
0.00518219
0.00516177
0.00514163
0.00513731
0.00511779
0.00508533
0.00499186
0.00489599
0.00485423
0.00476862
0.00489791
0.00495958
0.00497121
0.00502175
0.00510003
0.00511775
0.00511349
0.00507348
0.00504342
0.00500566
0.00493724
0.004837
0.00452156
0.00458874
0.00467051
0.00478025
0.00488626
0.00497198
0.00502115
0.0050271
0.00498301
0.00495276
0.00495392
0.0049115
0.00493297
0.00495529
0.00492915
0.00492408
0.00492403
0.00486206
0.00475428
0.00460751
0.00445516
0.00433626
0.00428796
0.00419393
0.00451473
0.00465428
0.00477146
0.00487036
0.00496104
0.00505548
0.00508868
0.00508316
0.00502432
0.00498927
0.00498335
0.00492906
0.00492961
0.00498427
0.00499279
0.00502428
0.00507882
0.00506041
0.00498823
0.00481089
0.0046406
0.00449455
0.00435167
0.00419232
0.00418905
0.00425598
0.00418054
0.00421657
0.00435333
0.00453479
0.00469565
0.00480414
0.00484142
0.00487502
0.00492149
0.00491759
0.00489021
0.00487397
0.0048112
0.00475535
0.00468746
0.00454521
0.00436998
0.00422266
0.00419007
0.00428484
0.00436766
0.00428803
0.00396855
0.00413388
0.00428934
0.00443292
0.00464568
0.00489195
0.00500331
0.0050418
0.00501373
0.00498955
0.00497853
0.00492413
0.00491298
0.00496634
0.00498003
0.00500597
0.0050432
0.00500675
0.00491488
0.00461394
0.0042627
0.00409447
0.00398145
0.00383531
0.00430623
0.00439719
0.00428994
0.00421658
0.00432488
0.00444572
0.00457301
0.00465966
0.00469609
0.00474958
0.00481957
0.00485407
0.00480542
0.0047474
0.00467663
0.00464087
0.00464436
0.00462799
0.00454878
0.00445149
0.00432942
0.00447335
0.00455937
0.00447772
0.00404166
0.00411541
0.00424027
0.0042927
0.00461327
0.00491097
0.00498865
0.00500127
0.00496718
0.00494031
0.00492919
0.0048887
0.00484518
0.00485284
0.00486023
0.004923
0.00499624
0.00502157
0.00503529
0.00481725
0.00445757
0.00440149
0.00416938
0.00407577
0.00453724
0.00458799
0.00447867
0.00438171
0.00459421
0.00468093
0.00470067
0.00467689
0.00462324
0.00458896
0.00464899
0.00474402
0.00467303
0.00436782
0.0040976
0.00423743
0.00427464
0.00426788
0.00421388
0.00411913
0.00390771
0.00436616
0.00481682
0.00484921
0.00436947
0.00438749
0.00430911
0.00399844
0.00434336
0.00455162
0.00459913
0.0045915
0.00452646
0.00435079
0.0045857
0.00478359
0.00474459
0.0043103
0.0028058
0.00284676
0.00286966
0.00287445
0.00283456
0.00282461
0.00278096
0.00276004
0.00269282
0.00262777
0.00256177
0.0027348
0.00288266
0.00308083
0.00309809
0.00317979
0.00304574
0.00288119
0.00268941
0.00208618
0.0026475
0.0031594
0.0033527
0.00360167
0.00364872
0.00419849
0.00442051
0.00454144
0.00445227
0.0035694
0.00302628
0.00241698
0.00157126
0.000978257
0.00114715
0.00119214
0.00125085
0.00153091
0.00282356
0.00143949
0.00199183
0.00155554
0.00267848
0.00140193
0.000891506
0.00059229
0.000760453
0.000914176
0.000929072
0.000893043
0.000746666
0.00059254
0.000605763
0.000566489
0.00060205
0.000537668
0.000615022
0.000567186
0.000767667
0.00106556
0.00126843
0.00130719
0.00106192
0.00120791
0.00101008
0.00117018
0.00104808
0.00114407
0.00109865
0.00134442
0.00147366
0.00140967
0.00141214
0.00123557
0.000863615
0.00100163
0.000786509
0.000945118
0.000721898
0.000929757
0.000797628
0.00103632
0.00106754
0.00106372
0.00102339
0.000781137
0.000924075
0.000727898
0.000901104
0.000744128
0.00080748
0.0006741
0.000982222
0.00100239
0.000925928
0.000982669
0.00110021
0.00117423
0.00128073
0.0012089
0.0013635
0.00131092
0.00131831
0.00125081
0.00121982
0.00119383
0.00119839
0.00117987
0.00118692
0.00122556
0.00122716
0.00123217
0.00127077
0.00125322
0.00122141
0.00120158
0.00106858
0.000864714
0.00150847
0.00155521
0.00158186
0.00158297
0.00155139
0.00152994
0.0014687
0.0014532
0.00140208
0.00137654
0.00131011
0.00126069
0.00120059
0.00135309
0.000758754
0.000862917
0.000911572
0.0009408
0.000959074
0.00096825
0.000973824
0.000967785
0.000954951
0.000933149
0.000926649
0.000901841
0.00115125
0.0013093
0.00137114
0.00138867
0.00130011
0.00123798
0.00275056
0.00333973
0.00503791
0.00514967
0.00388337
0.00385976
0.00131766
0.00140062
0.000955385
0.00134237
0.00138382
0.0013686
0.00129104
0.000929696
0.00139279
0.000972178
0.0013036
0.000986058
0.00120789
0.00102024
0.00146612
0.00187793
0.0018207
0.00165482
0.00115224
0.000965133
0.000974015
0.000834773
0.000915701
0.000745465
0.000904712
0.000751182
0.00107195
0.00144517
0.00164784
0.00168829
0.0013362
0.00184501
0.00139042
0.00201451
0.00161014
0.00199339
0.00160885
0.00185889
0.00230149
0.00231249
0.00225695
0.00181783
0.00145011
0.00163067
0.00144108
0.00166363
0.00240943
0.00157619
0.00241033
0.000993682
0.00135495
0.001397
0.00137795
0.00129906
0.000873993
0.00221863
0.00117465
0.00207573
0.00134385
0.0021393
0.00157239
0.0021024
0.00251431
0.00264019
0.00263587
0.00215596
0.00195485
0.00203748
0.00163034
0.00195892
0.00145157
0.00210048
0.00117995
0.00152155
0.001659
0.00175022
0.00175383
0.00143583
0.00284255
0.00179065
0.00270234
0.00188642
0.00241974
0.00194324
0.00212135
0.00250771
0.00249127
0.00246895
0.00209326
0.00169585
0.00224005
0.00159241
0.0482467
0.110806
0.0444314
0.112229
0.0505521
0.0719324
0.07089
0.0710432
0.0713841
0.0537499
0.117211
0.138207
0.143959
0.145651
0.144527
0.233489
0.190387
0.28578
0.185045
0.109205
0.0475374
0.0653853
0.168214
0.27738
0.416678
0.529184
0.360695
0.373599
0.23841
0.235202
0.221733
0.17973
0.110608
0.0556462
0.00936169
0.0101735
0.0146677
0.0196783
0.0154341
0.0093889
0.00185542
0.00191182
0.00195136
0.00197337
0.00195978
0.00190841
0.00192675
0.00180743
0.00168236
0.0018704
0.00202978
0.00237111
0.00274719
0.00302115
0.00271655
0.0029746
0.00315141
0.00329529
0.00341447
0.00359265
0.00379356
0.00397007
0.00397981
0.00364718
0.00310872
0.00252971
0.00212747
0.0020159
0.0018931
0.00166957
0.00152756
0.00143036
0.00138376
0.00136488
0.00140314
0.00153399
0.00164771
0.00168743
0.00165437
0.00162351
0.00159663
0.00142143
0.00166181
0.00227942
0.0022964
0.00393408
0.00453251
0.00462667
0.00463325
0.00410522
0.00262161
0.00262767
0.00264122
0.00269215
0.00270309
0.0027116
0.00270932
0.00270187
0.00268668
0.00265938
0.00264507
0.00260341
0.00256722
0.00247658
0.00248069
0.00251584
0.00254155
0.00250154
0.0025141
0.00245606
0.00314278
0.00421768
0.00478846
0.00500607
0.00519254
0.00504088
0.00697495
0.00595094
0.00420183
0.00416377
0.0041056
0.00487494
0.00490493
0.00443119
0.00445922
0.0041294
0.00257039
0.00255491
0.00255632
0.00271302
0.00276122
0.00285652
0.00288194
0.00290589
0.00291956
0.00291854
0.0029178
0.0028947
0.00287624
0.00280941
0.00278725
0.00277824
0.00153153
0.00167252
0.00173638
0.00174677
0.00177027
0.00175891
0.00174785
0.00172717
0.00171346
0.00168544
0.00165327
0.00160833
0.00152041
0.00138463
0.00152834
0.00259561
0.00259795
0.00425886
0.00471564
0.00473799
0.00526989
0.00500711
0.00474669
0.00509992
0.00462195
0.00459058
0.00420142
0.00260952
0.00264273
0.00156995
0.00154996
0.00181351
0.001759
0.00187271
0.00191791
0.0019199
0.00194443
0.00196909
0.00199993
0.00204849
0.00206418
0.00203475
0.00203064
0.00191096
0.00164959
0.00166996
0.0019714
0.00206933
0.00191866
0.00188262
0.00186781
0.00182397
0.00179021
0.00175836
0.00178438
0.00192657
0.00193265
0.00190336
0.00181833
0.00177543
0.00154176
0.00149659
0.00259718
0.00261511
0.00423053
0.00436844
0.00433993
0.00495073
0.00549873
0.00625358
0.00532821
0.00431862
0.00439528
0.00502311
0.00367933
0.00303506
0.00175303
0.00145874
0.00171257
0.00172361
0.00178878
0.00184911
0.0016375
0.00175147
0.00161336
0.00146435
0.00145445
0.00145147
0.0014864
0.00150073
0.00152726
0.00153054
0.0015662
0.00156242
0.00156722
0.00158648
0.0015969
0.00176479
0.00192114
0.00161598
0.0013689
0.00133154
0.00125706
0.00119651
0.00122599
0.00119755
0.00119074
0.00116961
0.00115081
0.00109919
0.00114699
0.00121882
0.00142832
0.00137063
0.00110593
0.000986484
0.000674326
0.000685426
0.000690101
0.000711006
0.000718421
0.000727444
0.00073075
0.000742316
0.000744443
0.000747961
0.000747598
0.000765246
0.000762511
0.000753579
0.000747922
0.000751498
0.000755004
0.000754588
0.00110517
0.00123126
0.00134788
0.00160227
0.00188756
0.00162509
0.00137592
0.00118342
0.000760001
0.000771341
0.000786096
0.000793201
0.000810934
0.000826438
0.000844522
0.000855691
0.0008647
0.000873692
0.000883447
0.000887572
0.000885973
0.000869275
0.000859615
0.000881725
0.000968701
0.00101894
0.00108322
0.00110737
0.00112955
0.00114097
0.00113472
0.00114552
0.00113122
0.00112859
0.00110784
0.00109815
0.00108874
0.00107698
0.00106338
0.0010312
0.00102004
0.00107391
0.00181275
0.00236898
0.00273401
0.00300407
0.0027196
0.00215799
0.00232795
0.00409024
0.00383838
0.00229091
0.0021203
0.00192972
0.00164267
0.00151655
0.00184828
0.00210476
0.00230077
0.00247532
0.00263436
0.00274213
0.00288038
0.00306079
0.00337989
0.00342029
0.00312007
0.00252895
0.00214152
0.00200035
0.00193235
0.00181423
0.00168559
0.00172778
0.00174068
0.00168934
0.00162559
0.00160784
0.00163493
0.00166995
0.0016501
0.00164889
0.00147277
0.00147216
0.00251515
0.00256035
0.00393837
0.00414952
0.00419013
0.0026921
0.00265572
0.00155113
0.00144093
0.00157194
0.00163205
0.00163576
0.001643
0.00163551
0.0016075
0.00158727
0.00156344
0.00154414
0.00152707
0.00149702
0.00143948
0.0013302
0.00145011
0.00162499
0.00169641
0.0017146
0.00172307
0.00174957
0.00179397
0.00182893
0.00191095
0.00191813
0.00191668
0.00192311
0.00179717
0.00185294
0.0015682
0.00156562
0.00271383
0.00270593
0.00155465
0.00183542
0.00184828
0.0018275
0.00196807
0.00180092
0.00174442
0.00173644
0.00166372
0.00162524
0.00157318
0.00154271
0.00157362
0.00167495
0.00162287
0.00143904
0.00139008
0.00155718
0.00149514
0.00123998
0.00105902
0.00102952
0.00098524
0.000958311
0.00100427
0.00104028
0.00106074
0.00108657
0.0010941
0.00114149
0.00111016
0.00116419
0.00123457
0.00129043
0.00153032
0.00165889
0.00149864
0.0014703
0.00145214
0.0014516
0.00145652
0.00139708
0.00139327
0.00136259
0.00134739
0.00130678
0.00128864
0.00126573
0.00127013
0.00128394
0.00141193
0.00362643
0.00462067
0.00481535
0.00823709
0.00332875
0.00340012
0.00670224
0.00275024
0.00414344
0.00444656
0.0046405
0.00484155
0.00443575
0.0056571
0.00392631
0.00436468
0.00456926
0.00405987
0.00149349
0.00161165
0.00191437
0.0017436
0.00154142
0.00105037
0.00113396
0.00117197
0.00120289
0.00122346
0.00124551
0.00126912
0.00129106
0.00130665
0.0013069
0.00126719
0.00122436
0.00112598
0.00109322
0.0011354
0.00117896
0.00103555
0.000975109
0.000986487
0.00100256
0.00101146
0.00101321
0.00102285
0.00102534
0.00104066
0.0010322
0.00103975
0.00102186
0.00103053
0.00101724
0.000982665
0.000934008
0.000851548
0.000831488
0.00119776
0.00127574
0.00134041
0.0015218
0.00175831
0.00187713
0.00168319
0.00155289
0.00149078
0.00165428
0.00165636
0.00301491
0.00578342
0.00258866
0.00289608
0.00843069
0.00335617
0.00260799
0.00264648
0.00267367
0.00267748
0.0015559
0.00184195
0.00178507
0.00179322
0.00152115
0.00127752
0.00114609
0.00102472
0.000695268
0.000693119
0.000698339
0.000709311
0.000712772
0.000682439
0.000682372
0.000678566
0.000677105
0.000662815
0.000658838
0.000647163
0.00064009
0.00062321
0.000614101
0.000598102
0.000595099
0.000617648
0.000684797
0.000826251
0.000923965
0.00104919
0.0010691
0.0012056
0.00302145
0.00348629
0.00481123
0.00475048
0.00749259
0.00467853
0.00353323
0.00320032
0.00468339
0.00484628
0.00453279
0.00613253
0.00423525
0.00280389
0.00415887
0.00341695
0.00420006
0.00407728
0.00431305
0.00681177
0.00712309
0.0020125
0.00179441
0.00188876
0.00214306
0.00254448
0.00233657
0.00266542
0.00265576
0.00204251
0.00132166
0.00420157
0.00512335
0.00406946
0.00485346
0.00748952
0.00301848
0.00294444
0.00260498
0.00217398
0.00197613
0.00194879
0.00217279
0.00260068
0.00652625
0.00698103
0.00635099
0.00633044
0.00579014
0.00643924
0.00798357
0.0079405
0.00700719
0.00655254
0.00676103
0.00420212
0.00264337
0.0030584
0.00338405
0.0045155
0.00466081
0.00981145
0.00334791
0.00368954
0.00374453
0.00500255
0.00485992
0.0085434
0.00364637
0.00392114
0.00516894
0.006901
0.0126572
0.00465944
0.00488652
0.0070165
0.00712549
0.00651724
0.00472982
0.00427953
0.00464797
0.003503
0.00342603
0.00292803
0.00431918
0.0057878
0.00459554
0.00446133
0.00378567
0.00340244
0.00345526
0.00358941
0.00298481
0.00294355
0.00339003
0.00254477
0.00244494
0.00259386
0.000717555
0.000367522
0.000375832
0.000385687
0.000393621
0.000401813
0.000407741
0.000414816
0.00041789
0.000418278
0.000419471
0.000443302
0.000439005
0.000425086
0.000385991
0.000440315
0.000698743
0.00069907
0.000439661
0.000387559
0.000695555
0.00110796
0.00130588
0.00154437
0.00156307
0.00134891
0.00116993
0.000720483
0.000709111
0.000429759
0.000501946
0.00054508
0.000483579
0.0005398
0.000500418
0.000529957
0.00053587
0.000496166
0.000493229
0.000495102
0.000491474
0.00048274
0.000472071
0.000458945
0.000448519
0.000442526
0.000437636
0.000427442
0.000356416
0.000331772
0.000397512
0.000631124
0.000630554
0.000591868
0.000559232
0.000531546
0.000519283
0.000516209
0.000513651
0.0005227
0.000539453
0.000544214
0.000549203
0.000591492
0.000572356
0.000611258
0.000573766
0.000612855
0.0005751
0.000529073
0.000444236
0.000458281
0.000739427
0.000747284
0.0012068
0.00137993
0.00156465
0.00157233
0.00175594
0.00185031
0.00156794
0.00162797
0.00186469
0.0017357
0.00154613
0.0015523
0.00139592
0.00139757
0.00123856
0.000774371
0.000763934
0.000479704
0.000465951
0.000555578
0.000545963
0.000607149
0.00064988
0.000650112
0.000648064
0.000632629
0.000626926
0.000551407
0.000540387
0.000541143
0.000524809
0.000520934
0.000542265
0.000590151
0.000691282
0.000835564
0.000909746
0.000941698
0.000903677
0.000809444
0.000596393
0.000539778
0.000934979
0.000971886
0.00172881
0.00415584
0.0019065
0.00366289
0.00263423
0.000658788
0.00073569
0.000938175
0.0010513
0.0011348
0.00118265
0.00108031
0.000900905
0.000678305
0.000560607
0.000839057
0.00072572
0.00082095
0.000717264
0.000928125
0.00107321
0.00103823
0.00104599
0.000883901
0.000719963
0.000762482
0.000684435
0.000754412
0.000631571
0.000759815
0.000685867
0.000861828
0.000869898
0.000851771
0.000807337
0.000614692
0.000644977
0.000541074
0.000587042
0.000527186
0.000544982
0.000516442
0.000602218
0.000693993
0.00066612
0.000663573
0.000545284
0.0004274
0.00047216
0.000408667
0.000462609
0.000359812
0.000435796
0.000365279
0.000472939
0.000487386
0.000489399
0.00048546
0.000394346
0.000464691
0.000570144
0.000599369
0.000604592
0.000575367
0.000444071
0.000686667
0.000618374
0.000754904
0.000652373
0.000714701
0.000650624
0.00075829
0.000971233
0.00101412
0.00102081
0.000828312
0.00082326
0.00150323
0.0835025
0.00135228
0.0015985
0.00164855
0.00164275
0.00135815
0.00132455
0.00164123
0.00121338
0.00171917
0.0010826
0.00183474
0.000699247
0.00106315