/*--------------------------------*- C++ -*----------------------------------*\
| =========                 |                                                 |
| \\      /  F ield         | OpenFOAM: The Open Source CFD Toolbox           |
|  \\    /   O peration     | Version:  v2012                                 |
|   \\  /    A nd           | Website:  www.openfoam.com                      |
|    \\/     M anipulation  |                                                 |
\*---------------------------------------------------------------------------*/
FoamFile
{
    version     2.0;
    format      ascii;
    class       volScalarField;
    location    "110";
    object      alphat;
}
// * * * * * * * * * * * * * * * * * * * * * * * * * * * * * * * * * * * * * //

dimensions      [1 -1 -1 0 0 0 0];


internalField   nonuniform List<scalar> 
22960
(
0.00449302
0.00248045
0.00210733
0.00184237
0.00108764
0.00158807
0.00180713
0.00214909
0.0020628
0.0018053
0.00164745
0.00269841
0.00385095
0.0046341
0.00475384
0.00475022
0.00462245
0.0049724
0.00590428
0.00645365
0.00585734
0.00369661
0.00504798
0.00618133
0.00502157
0.00382578
0.00336857
0.00455146
0.00516556
0.00520729
0.00530219
0.00531226
0.00536515
0.0053905
0.00547754
0.00553395
0.00572005
0.00583554
0.00597796
0.00667395
0.00695977
0.00704949
0.00721073
0.0072786
0.00739004
0.00747243
0.00756073
0.00762627
0.00764666
0.0080568
0.00842459
0.00822681
0.0081027
0.0079788
0.00774922
0.00680467
0.00439329
0.00265886
0.00247853
0.00264896
0.00276592
0.00282186
0.00242509
0.00129301
0.00169245
0.00197213
0.00242415
0.00238817
0.00215416
0.00203431
0.00332529
0.00445735
0.00515134
0.00526255
0.00531529
0.00526099
0.00526593
0.00516444
0.00513636
0.00454095
0.00338216
0.00387647
0.00452575
0.00453473
0.00381779
0.00286725
0.00478235
0.00540778
0.00532288
0.00574828
0.00634108
0.00678549
0.00686964
0.00669674
0.00557362
0.00410803
0.00251182
0.00251678
0.00263896
0.00255383
0.00217061
0.00171369
0.00107178
0.00178907
0.00202947
0.00184104
0.00168426
0.00149067
0.00163595
0.00293207
0.00533392
0.00612544
0.00611834
0.00602301
0.00596688
0.00595421
0.00594555
0.00617975
0.00636954
0.00652576
0.00683525
0.00712749
0.0071845
0.00628741
0.00380339
0.00216903
0.00194557
0.00207092
0.00213188
0.00243261
0.0024392
0.00211183
0.00202126
0.00217257
0.00348753
0.00614551
0.00687755
0.00678784
0.00650889
0.00618078
0.00597206
0.00572515
0.00543715
0.00538797
0.00543259
0.0055501
0.00569297
0.0057319
0.00509305
0.00289951
0.0017763
0.0015989
0.00169065
0.00203609
0.00210062
0.00225164
0.0018468
0.00110692
0.00184862
0.00230123
0.00244453
0.00249518
0.00263204
0.00293771
0.00330464
0.00321023
0.00286272
0.00258857
0.00241948
0.00231811
0.00212062
0.00191344
0.00148906
0.000921963
0.00155286
0.00168276
0.00158733
0.00147101
0.00133782
0.001445
0.00253592
0.00407847
0.00460157
0.00462806
0.00450422
0.00425788
0.00395498
0.00369785
0.00416064
0.00453189
0.00481581
0.00502512
0.00511725
0.00506189
0.00447407
0.00264842
0.00149178
0.00134441
0.00151401
0.00160793
0.00162512
0.00135419
0.000820479
0.00130784
0.00175683
0.00197494
0.00202555
0.00196315
0.00196828
0.0019568
0.00189787
0.00167853
0.00125179
0.000853037
0.000917397
0.00105219
0.00114032
0.00121745
0.00132996
0.00148057
0.00163712
0.00177472
0.00187361
0.00192649
0.00193877
0.00190955
0.00182578
0.00159054
0.00151026
0.00244255
0.00320888
0.0033952
0.00333555
0.00305745
0.00259292
0.00185662
0.00119495
0.00117975
0.00121139
0.000988526
0.000698226
0.000485154
0.000409098
0.000225779
0.000234694
0.000285761
0.000304424
0.000325237
0.000253763
0.000224335
0.000429412
0.000567178
0.0006699
0.000745875
0.000807379
0.00085677
0.0008592
0.000847174
0.00079522
0.000542356
0.000360202
0.000480614
0.000590247
0.000547981
0.000505468
0.000405327
0.000374975
0.000630155
0.000716688
0.000804713
0.000738581
0.000664358
0.000681161
0.000698267
0.000711115
0.000723107
0.000720941
0.000724997
0.000713251
0.000711864
0.000687452
0.000678449
0.000629131
0.00060653
0.000545851
0.00051714
0.000518601
0.000668937
0.00090453
0.00154085
0.00240516
0.00290146
0.00319893
0.00341982
0.00347015
0.00473751
0.00464612
0.00412572
0.00333502
0.00271773
0.00162287
0.00100519
0.000917696
0.000932011
0.000848066
0.000822351
0.000693155
0.0007753
0.000879638
0.00108951
0.00110854
0.000868523
0.000938321
0.000971318
0.00102202
0.00103499
0.0010637
0.0010628
0.0010823
0.00107264
0.00108545
0.00106769
0.00107457
0.00107241
0.00109256
0.00113546
0.00120378
0.000959222
0.0012904
0.00153205
0.00143546
0.00142755
0.00195058
0.0025374
0.00267494
0.00445324
0.00511944
0.00461998
0.00248607
0.00238233
0.00169543
0.00110799
0.00115005
0.00127759
0.00129236
0.00121272
0.0011833
0.00121548
0.00130168
0.00131672
0.00130747
0.00129566
0.00127848
0.00125347
0.00121596
0.00109257
0.00103915
0.00137203
0.00177192
0.00192897
0.00310022
0.00430148
0.00501312
0.00417505
0.00508129
0.00570187
0.00600522
0.0060527
0.00611062
0.00607326
0.00679872
0.00679921
0.00671604
0.00656126
0.00625548
0.00568979
0.00474377
0.00552498
0.00607345
0.00653757
0.00679261
0.00701873
0.00713274
0.00715582
0.00713939
0.00730056
0.00741279
0.00764781
0.00770387
0.00766475
0.00750571
0.00717998
0.0061109
0.0037215
0.00200028
0.00175279
0.00182942
0.00182978
0.00185171
0.00167809
0.00105205
0.00164925
0.00225211
0.00243711
0.0023664
0.00213066
0.00201122
0.00323395
0.00436787
0.00511089
0.00525711
0.00536781
0.00528036
0.00517048
0.00447735
0.00337102
0.00208534
0.00193472
0.00150055
0.0011465
0.00119617
0.00130626
0.00112558
0.000864741
0.000670977
0.000760519
0.000716755
0.000699632
0.000697387
0.000692148
0.000687772
0.000691016
0.000684954
0.000689222
0.000678765
0.000681593
0.00065972
0.000654561
0.000607662
0.000588957
0.000530959
0.000494439
0.000481036
0.000605716
0.000828754
0.00147163
0.00237892
0.00280614
0.00313715
0.00340162
0.00346381
0.00398818
0.00375935
0.00309337
0.0033099
0.00274081
0.00294468
0.00327162
0.00423419
0.00444013
0.00509323
0.00486915
0.00443536
0.0041309
0.0032604
0.00332183
0.00296569
0.00150806
0.0024614
0.00215051
0.00137003
0.00136394
0.00103264
0.00122022
0.00158783
0.00142235
0.00135791
0.0026493
0.00226334
0.00240098
0.00252823
0.00267412
0.00407486
0.00293448
0.00297384
0.0046852
0.00404208
0.00339339
0.00349944
0.00409577
0.00398234
0.00372475
0.00341554
0.00378277
0.00372046
0.00373558
0.00369801
0.00368916
0.00367825
0.00366276
0.00384674
0.00398888
0.00423074
0.00434161
0.00437665
0.00431004
0.00403676
0.00375304
0.00138815
0.000521496
0.000596735
0.000713893
0.000847533
0.00100798
0.0011385
0.00127056
0.00147659
0.00147725
0.00137085
0.0012526
0.00110673
0.00091321
0.000563863
0.000339406
0.000305535
0.000527255
0.000867128
0.0012108
0.0013455
0.00190974
0.00180644
0.00271269
0.0045501
0.00489487
0.00520688
0.00536215
0.0053997
0.00530596
0.00457504
0.0029665
0.00296944
0.00306968
0.00300783
0.00298193
0.00299048
0.00292339
0.00286431
0.0024808
0.0022655
0.00157995
0.00135957
0.0016174
0.00173747
0.00188509
0.00187149
0.00209702
0.00198221
0.00203571
0.00195539
0.00175019
0.00160292
0.00264383
0.00378802
0.00460739
0.00476806
0.00483716
0.00465398
0.00442071
0.0036825
0.00271518
0.00166331
0.00152231
0.00117162
0.000887425
0.000916743
0.000991294
0.000842135
0.000633769
0.000474786
0.000418722
0.000247503
0.000258445
0.000317554
0.00032981
0.000336845
0.000270389
0.000252671
0.000503227
0.000651649
0.000750865
0.000824866
0.000891762
0.000939398
0.00094146
0.000928758
0.000864504
0.000521897
0.000352177
0.000466221
0.000564004
0.000528326
0.000491002
0.00039515
0.000366002
0.000605249
0.000549648
0.000608002
0.000692687
0.000739817
0.00078327
0.000797229
0.00080241
0.00081637
0.000908373
0.0010589
0.00138064
0.0019241
0.00220585
0.00256573
0.00256498
0.00248985
0.00239531
0.00223691
0.00203949
0.00179162
0.00146802
0.000871569
0.000581058
0.000553002
0.00158115
0.00161293
0.00174388
0.0023516
0.00255425
0.00220444
0.00355283
0.00376367
0.00549456
0.0050004
0.00505913
0.00524866
0.00531754
0.0052437
0.00470114
0.00459018
0.00512105
0.00520511
0.00513722
0.00495344
0.00510387
0.00518573
0.00365316
0.00382791
0.00220724
0.00226301
0.00267427
0.00254327
0.0022527
0.00228514
0.00199787
0.00185357
0.00174335
0.00183694
0.00180323
0.00220916
0.00238442
0.00261153
0.00269049
0.00266643
0.00269812
0.00278225
0.0027828
0.00253911
0.00232692
0.00169878
0.0014281
0.00155104
0.00190183
0.00204784
0.00213892
0.00204553
0.00197356
0.00196144
0.0020068
0.00208015
0.00201193
0.00193645
0.00168486
0.00176199
0.00176523
0.0017346
0.00172708
0.00172752
0.00174665
0.00177107
0.00175726
0.00154036
0.0014137
0.00149303
0.00144637
0.00149818
0.00166056
0.00175732
0.00180585
0.00179341
0.00182498
0.00180822
0.0018063
0.00174079
0.00169408
0.00175558
0.00179452
0.00188934
0.00194487
0.00187064
0.00222994
0.00218882
0.00251261
0.00259669
0.00244856
0.00211178
0.00188883
0.00348087
0.00333252
0.00332391
0.00207848
0.00214542
0.00251374
0.00235109
0.00230357
0.00203646
0.00183762
0.00179726
0.00183176
0.00182142
0.00181784
0.00177973
0.00177342
0.00173708
0.00167801
0.00157469
0.00158984
0.00157279
0.00154774
0.00141439
0.00127236
0.00123884
0.001136
0.00143804
0.00153597
0.00148115
0.00152223
0.00176089
0.00165475
0.00154696
0.00289648
0.00192703
0.00129345
0.00129528
0.00129557
0.00129606
0.00129263
0.00128419
0.00126456
0.0012277
0.00116849
0.00101861
0.00163375
0.0026334
0.00322697
0.00401549
0.00458037
0.0046941
0.00545435
0.00543763
0.00549597
0.0055442
0.00557948
0.00557615
0.00547268
0.00471909
0.00366679
0.00326838
0.00297441
0.00319611
0.00345686
0.0036225
0.00222841
0.00243131
0.00249048
0.00260291
0.00296408
0.00353868
0.00371326
0.00339668
0.00319112
0.00302697
0.00286699
0.00252787
0.0029744
0.00323559
0.00330874
0.00333276
0.00359785
0.00437813
0.00454229
0.00438452
0.00393288
0.00390715
0.00381917
0.00387536
0.00387035
0.00385524
0.00408665
0.0052292
0.00548652
0.00519863
0.00519913
0.00549658
0.0052141
0.00473412
0.00479409
0.00259189
0.000691593
0.00286432
0.00353986
0.00492914
0.00442831
0.00355898
0.00309251
0.00419122
0.00401557
0.00500194
0.00511821
0.00454427
0.00506771
0.0050285
0.0052928
0.00549696
0.00483415
0.00444015
0.00462837
0.00484633
0.0049211
0.00469983
0.0049398
0.00487035
0.00511517
0.00515176
0.0044033
0.00532121
0.00404462
0.0034705
0.0056169
0.00638758
0.00718326
0.00800147
0.00860737
0.00918847
0.00981664
0.0104918
0.0107779
0.0109565
0.0103643
0.0095968
0.0089541
0.00842325
0.00798893
0.00765397
0.00739402
0.00711314
0.00700178
0.00674579
0.00627684
0.00672533
0.00706902
0.00733141
0.00756687
0.00776075
0.00790474
0.00807182
0.00866232
0.00869403
0.00870157
0.00854447
0.00830467
0.00801565
0.00759928
0.00651977
0.00386509
0.00228443
0.00207136
0.00213362
0.00237076
0.00232557
0.00234254
0.00197866
0.00112707
0.00143289
0.00216785
0.00254352
0.00251965
0.00253385
0.00262531
0.00233837
0.00406923
0.00418741
0.00660608
0.00777426
0.00827887
0.00868993
0.00912121
0.00951872
0.00974826
0.00988485
0.00888784
0.00848422
0.0082098
0.00793265
0.00766366
0.00740176
0.00711422
0.00731994
0.00757514
0.00784248
0.0081975
0.00865224
0.00925696
0.0100728
0.0113064
0.0108222
0.0101403
0.00949039
0.0089125
0.00840217
0.00786696
0.00709102
0.0063578
0.00408072
0.00416673
0.00224768
0.0024078
0.00265304
0.00265085
0.00264614
0.00259843
0.00221387
0.0016838
0.00198725
0.00186851
0.00327662
0.00364721
0.0039893
0.00408577
0.00239182
0.00239961
0.00246861
0.00260214
0.00251412
0.00249028
0.00355222
0.00354806
0.00359342
0.00369931
0.00379803
0.0027909
0.00308888
0.00395126
0.00387755
0.00330765
0.00318666
0.00334736
0.00328227
0.00404288
0.00395222
0.00378231
0.00378663
0.00286127
0.00312389
0.0039013
0.00376715
0.00299403
0.0027148
0.00302286
0.00113443
0.002144
0.00176973
0.00300146
0.00371472
0.0039887
0.0047023
0.00455801
0.0044833
0.00440196
0.0036385
0.00336154
0.00308609
0.00430735
0.00425248
0.0035321
0.00360886
0.00406815
0.0037746
0.0046711
0.00476195
0.00447835
0.00425713
0.00281199
0.00418627
0.00432086
0.0044342
0.00420862
0.00379301
0.00335655
0.00309693
0.00373965
0.00373186
0.00372292
0.00317271
0.0026559
0.00212648
0.00301467
0.00325991
0.00391633
0.00376836
0.00359951
0.00276614
0.00285649
0.0020609
0.00232377
0.00243706
0.00225412
0.00191382
0.00334689
0.00513348
0.00581701
0.00588808
0.005891
0.00584816
0.00573601
0.00500829
0.00320572
0.00315982
0.00324298
0.00322313
0.00323258
0.00323455
0.00316515
0.00325588
0.00321164
0.00325244
0.00326218
0.00329208
0.00334269
0.00335934
0.00342775
0.00531791
0.00505954
0.00521417
0.00501083
0.00492927
0.00508975
0.00514473
0.00507225
0.00480454
0.00450755
0.00436056
0.00488447
0.00495496
0.00498274
0.00503926
0.00510159
0.00505883
0.00493643
0.00486881
0.00464173
0.0049368
0.00530423
0.00541815
0.00530754
0.00511281
0.00505256
0.00499088
0.00534775
0.0050097
0.00505006
0.00564022
0.00574948
0.00579002
0.00577558
0.00567188
0.00510114
0.00323621
0.00181805
0.00214456
0.00232088
0.00232239
0.00216373
0.00204793
0.00216069
0.00219128
0.00207455
0.00177151
0.00328841
0.00326786
0.00506239
0.00563622
0.00574929
0.00576235
0.00571536
0.00560218
0.00564693
0.0057435
0.00580292
0.00581962
0.00576471
0.00555421
0.00541075
0.00328899
0.00333011
0.00163618
0.00173898
0.00200914
0.0021088
0.00213581
0.0020376
0.00180226
0.00190503
0.00185674
0.00179994
0.00333978
0.00339857
0.00307589
0.00314815
0.0019955
0.003002
0.00394623
0.00406805
0.00420933
0.00325605
0.00377477
0.00282725
0.00288776
0.00374888
0.00372519
0.00356505
0.00369611
0.00386898
0.00400732
0.00374909
0.00376789
0.0053585
0.0040268
0.00409067
0.00380554
0.00414778
0.00416495
0.00410854
0.00386579
0.00600398
0.00480983
0.00442053
0.00426635
0.00479423
0.00477074
0.00460676
0.00314011
0.00339753
0.00350683
0.00358579
0.00406645
0.00401029
0.0047845
0.00487565
0.00454228
0.00417292
0.00405395
0.00354607
0.00343704
0.00472282
0.00536249
0.00537602
0.00365623
0.00425981
0.00533901
0.00530232
0.00546141
0.00563358
0.00560709
0.00341807
0.00328301
0.00318469
0.00299222
0.00277953
0.00311685
0.00345282
0.00377525
0.00391597
0.00430391
0.00467989
0.00510918
0.00517781
0.00488139
0.00541518
0.00534355
0.00528661
0.00523052
0.00520885
0.00446139
0.00573566
0.0055389
0.00524895
0.00483409
0.00309683
0.00193126
0.00223788
0.00250205
0.00241533
0.0036036
0.00445683
0.0036054
0.00464228
0.00468706
0.00483846
0.00436072
0.0041767
0.00461682
0.00510557
0.00494938
0.0049476
0.00572913
0.00484146
0.00483961
0.00513383
0.00504274
0.0055006
0.00500556
0.00475762
0.00505738
0.00532928
0.00491731
0.00456455
0.00488915
0.0050524
0.00440383
0.00417303
0.00370186
0.00291863
0.00319698
0.00340692
0.00330121
0.00367579
0.00443662
0.00500707
0.00384278
0.00484545
0.00484726
0.00480083
0.00475532
0.00519403
0.00575467
0.00556262
0.00586074
0.0057807
0.00573785
0.00543448
0.00529535
0.00494675
0.00524721
0.00537788
0.00535392
0.00516048
0.00488954
0.00523975
0.00482384
0.00419875
0.00435002
0.00495846
0.00516594
0.00465251
0.00474078
0.00523863
0.00568567
0.00550507
0.0050364
0.00461632
0.00504976
0.00518391
0.00464677
0.0044307
0.00392992
0.00410056
0.00476693
0.00501125
0.00440188
0.00438723
0.00431061
0.00425381
0.00494241
0.00528004
0.00518175
0.00537666
0.00553267
0.0056929
0.00560043
0.00555359
0.00549782
0.005664
0.00554222
0.0056057
0.00550139
0.00518245
0.00536001
0.00514292
0.00540488
0.00453101
0.00530706
0.00548735
0.0048589
0.00552413
0.00560827
0.00545278
0.00571949
0.0041929
0.00418413
0.00387422
0.00413729
0.00490293
0.00599287
0.00536776
0.005357
0.00465699
0.00477761
0.00539429
0.00537933
0.00525087
0.00497974
0.00626098
0.00672565
0.00568777
0.00670027
0.00622555
0.00596823
0.00588656
0.00589126
0.0058539
0.00577359
0.00568341
0.00559714
0.00553049
0.00548019
0.00540583
0.0049253
0.00519038
0.00540025
0.00513939
0.00477464
0.00480734
0.00489883
0.00497437
0.00498165
0.00492776
0.00487998
0.00488318
0.00487411
0.00474705
0.00454519
0.00425665
0.00433589
0.00433877
0.00435373
0.00433994
0.00435273
0.00446629
0.0048517
0.00514574
0.00522017
0.00520786
0.00505501
0.00495374
0.005088
0.00531677
0.00557113
0.00569872
0.00579058
0.00588145
0.00596447
0.00613775
0.0065062
0.00704763
0.00725677
0.00643018
0.00566144
0.00549257
0.00530253
0.00519049
0.00505672
0.004793
0.0043311
0.00459437
0.00454776
0.00528473
0.0055157
0.00559287
0.00553243
0.0050533
0.00350724
0.00363354
0.00361271
0.00326271
0.0027758
0.00317822
0.00324816
0.00362672
0.00366861
0.0033788
0.00323765
0.0030903
0.0034862
0.00374433
0.00370312
0.00367191
0.0035323
0.00336983
0.00324787
0.00309005
0.00300848
0.002912
0.00287519
0.00282628
0.00280741
0.0027615
0.00437037
0.00497866
0.0048801
0.00460736
0.00418986
0.00441079
0.00459188
0.00416259
0.00264816
0.00274622
0.00268993
0.00276641
0.00271523
0.00271417
0.00272336
0.00272294
0.0027297
0.00272101
0.00273486
0.00272866
0.00279685
0.00274008
0.00287023
0.00318287
0.00159997
0.00172413
0.00174645
0.00173521
0.0016942
0.00167181
0.00166282
0.00165273
0.00165044
0.00165018
0.00166751
0.00166037
0.00161558
0.00148011
0.00157279
0.00264322
0.00260447
0.0040871
0.00257093
0.00153385
0.00156153
0.00180671
0.0018012
0.00187144
0.00183172
0.00168843
0.00164522
0.0016507
0.00166138
0.00167286
0.0017393
0.00195475
0.00202195
0.00200304
0.00175126
0.00178898
0.00209029
0.00201477
0.00173461
0.00142309
0.00126894
0.00124328
0.00124176
0.0012384
0.00123281
0.00122547
0.00121733
0.00120755
0.00119726
0.00121203
0.00134523
0.00161797
0.00184317
0.00167314
0.00176014
0.00168943
0.00147451
0.00246836
0.00387198
0.00242104
0.00142607
0.0016182
0.0014924
0.00156542
0.00134238
0.00139301
0.00153947
0.00133152
0.00123184
0.00109608
0.00103975
0.00107226
0.00108437
0.00109678
0.00110741
0.00111493
0.00112021
0.00109954
0.00116803
0.00132289
0.00144718
0.00169754
0.00187275
0.00158503
0.00130732
0.00117891
0.00105488
0.0007432
0.000732087
0.000720757
0.000720062
0.000736561
0.000747439
0.000749362
0.000749228
0.000741406
0.000731112
0.000715332
0.000666358
0.000673058
0.000688951
0.000704919
0.000705428
0.000713286
0.000724775
0.000732567
0.000739755
0.000734373
0.000731297
0.000735597
0.000742025
0.000742174
0.000735613
0.000732956
0.000728044
0.00072612
0.000717919
0.000710549
0.000700714
0.000695221
0.000690061
0.000684283
0.000672657
0.000665276
0.000654767
0.000959327
0.00105968
0.00115402
0.00137077
0.00161144
0.00176078
0.00155859
0.00263605
0.00416955
0.00259128
0.00151739
0.00170291
0.00155155
0.0013013
0.00125953
0.00127679
0.00131939
0.00111334
0.00113247
0.00117836
0.00107551
0.000968407
0.000659193
0.000667424
0.000671355
0.000682188
0.000686113
0.000689504
0.00069297
0.000701112
0.000706246
0.000711733
0.000710139
0.000712209
0.000713131
0.000718677
0.000718345
0.000712474
0.000708255
0.000717254
0.000404139
0.00044319
0.000457628
0.000456101
0.000455416
0.000450195
0.000455575
0.000449343
0.00044598
0.000435615
0.000427377
0.000422376
0.000420966
0.000416917
0.000405413
0.000370849
0.000413234
0.000662394
0.000661589
0.000409855
0.000362415
0.000637684
0.000992762
0.000641457
0.00039145
0.000454353
0.000485546
0.000443493
0.000491425
0.000464756
0.000485339
0.000502408
0.000510261
0.00052039
0.000530228
0.000535268
0.000542192
0.000563797
0.00056051
0.000568003
0.000567365
0.000558979
0.000532079
0.000471249
0.000522857
0.000581166
0.000603113
0.000611239
0.000561897
0.000562253
0.000587633
0.000578706
0.000573018
0.000566397
0.000533814
0.000512873
0.000536525
0.000511779
0.00053356
0.000508743
0.000527026
0.000500131
0.00046716
0.000395113
0.000640688
0.000996302
0.000639991
0.00039464
0.000466918
0.000511185
0.000540345
0.000541895
0.000550094
0.000548296
0.000561631
0.000547673
0.000497533
0.000535178
0.000211857
0.00037678
0.000297688
0.000372255
0.000308425
0.000419109
0.00050686
0.000499503
0.000510963
0.000433957
0.000412854
0.000405935
0.000414005
0.000424132
0.000412101
0.000454466
0.000460588
0.000574654
0.00057368
0.000584649
0.000610434
0.000511925
0.000526722
0.000484303
0.000535576
0.000519666
0.00053171
0.000539279
0.000549674
0.000652815
0.000669549
0.000685571
0.000577464
0.000407274
0.000500875
0.000374804
0.000472864
0.000249135
0.000575132
0.000574398
0.000550299
0.000575837
0.000580941
0.000581812
0.000582555
0.000558233
0.00072539
0.000687735
0.000779351
0.000278849
0.000561855
0.000384095
0.000530676
0.00039537
0.00052298
0.000673129
0.000707304
0.000699339
0.000593646
0.00064564
0.00178531
0.128084
0.00136099
0.00166405
0.00169134
0.00165953
0.00127364
0.000941198
0.00127065
0.000803492
0.0013187
0.000576784
0.00192184
0.00169697
0.00188598
0.00199345
0.000886648
0.000943033
0.000977341
0.00102806
0.000893034
0.000869301
0.00104739
0.00107042
0.10593
0.129892
0.13688
0.130747
0.100046
0.12831
0.345149
0.545358
0.645265
0.187939
0.00141966
0.00151902
0.00100686
0.000854516
0.000382407
0.000847554
0.00162097
0.136644
0.292916
0.747569
1.3826
0.993444
0.645945
0.33509
0.124737
0.294231
0.119266
0.326458
0.133045
0.171021
0.447896
0.825564
0.638217
0.976851
0.610704
0.986252
1.27209
1.50428
1.75575
1.21262
0.477643
0.138206
0.00113746
0.00081645
0.000852861
0.00160093
0.00123397
0.000697416
0.000821085
0.00165448
0.143284
0.500425
1.31822
1.63796
1.73293
1.64163
1.47636
1.26025
1.39087
1.15778
1.20382
0.869942
0.470049
0.170688
0.177113
0.4705
0.866223
1.17928
1.40194
1.42149
1.55402
1.53858
1.69693
1.76749
1.78015
1.65752
1.07169
0.2136
0.00205974
0.00106944
0.00117126
0.00209781
0.209589
1.13535
1.73529
1.815
1.77838
1.70921
1.70359
1.56712
1.44898
1.268
1.03209
0.681637
0.369919
0.11973
0.00161691
0.00161355
0.00171019
0.0015044
0.117864
0.309802
0.589889
0.945947
1.18106
1.35696
1.59542
1.70155
1.78082
1.82012
1.81297
1.22487
0.203381
0.00208835
0.00116469
0.000872905
0.00170473
0.12059
0.460205
1.79654
1.79282
1.60004
1.52673
0.852305
0.771679
0.657103
0.485217
0.289446
0.112832
0.00192792
0.00123657
0.00160262
0.164287
0.1782
0.184442
0.185637
0.122253
0.463825
0.119737
0.451627
0.118208
0.00197344
0.00218217
0.000901087
0.000822759
0.000926617
0.00198749
0.00206188
0.000910798
0.000954775
0.00185261
0.00214407
0.000845191
0.000689198
0.00140419
0.00172653
0.00085017
0.000844698
0.00175617
0.00170523
0.00081066
0.000744782
0.000539727
0.000657438
0.000570065
0.000643082
0.000616413
0.000659263
0.00130678
0.0011348
0.00101494
0.00112466
0.00124794
0.00149455
0.00152335
0.00168471
0.00169165
0.00177012
0.00183648
0.00185282
0.00170627
0.00130988
0.00159266
0.00170218
0.00167396
0.00141549
0.00200172
0.00118812
0.00102118
0.00108686
0.001105
0.000863917
0.00109029
0.00120157
0.00127586
0.00113121
0.000968342
0.00114844
0.00130936
0.00166038
0.00166612
0.00147419
0.00152159
0.00192701
0.00172065
0.00179638
0.00188449
0.0016927
0.00158213
0.00177042
0.00141795
0.00150579
0.00312769
0.0121064
0.0196229
0.0323922
0.0379507
0.0352157
0.020937
0.0143854
0.00554213
0.00114824
0.00121229
0.000816244
0.0011371
0.00142735
0.00153748
0.00140794
0.00104293
0.00129459
0.00155421
0.00105338
0.000903083
0.000942717
0.00106286
0.000977127
0.000766421
0.000701159
0.000963908
0.00100088
0.00106993
0.000981935
0.000779521
0.000870304
0.00104605
0.00112151
0.00100095
0.000952472
0.000792477
0.000553346
0.00103423
0.00116291
0.00128558
0.00124184
0.0012522
0.00140821
0.00150869
0.00153828
0.00109171
0.000906134
0.00124586
0.00149362
0.00166261
0.00161836
0.00711214
0.00271599
0.0014589
0.00105064
0.000962551
0.000945703
0.00104169
0.000765069
0.000899928
0.000999301
0.0010487
0.000991469
0.000959981
0.000844921
0.000961113
0.00102521
0.00100134
0.0009331
0.00078237
0.000879457
0.000891768
0.000977237
0.000931791
0.000816383
0.000852914
0.000922502
0.000979872
0.000943638
0.00107605
0.000828145
0.00107948
0.00107028
0.00103168
0.00117225
0.000999686
0.00121548
0.000906326
0.000845298
0.00126781
0.000878896
0.000813821
0.00140087
0.000908961
0.000846923
0.00163376
0.000966893
0.000851792
0.00204363
0.000781818
0.00121739
0.00115247
0.00117588
0.00101198
0.00104536
0.00117896
0.00118669
0.0016294
0.00123536
0.000920866
0.000469549
0.000409759
0.00045525
0.000538053
0.000591167
0.000616381
0.000641325
0.000650794
0.000603519
0.000624975
0.000654353
0.000678025
0.000655782
0.000622965
0.000566049
0.000469436
0.000474548
0.000574292
0.000649751
0.000691073
0.000687014
0.000662712
0.000932449
0.00157199
0.00157071
0.00134993
0.00146617
0.00167897
0.00149732
0.0012251
0.00104606
0.00114402
0.00125668
0.00121096
0.00112781
0.00102394
0.00118888
0.00119478
0.0012152
0.00121453
0.00123272
0.00104232
0.00113043
0.00123488
0.0012818
0.001263
0.00117508
0.00120642
0.00138747
0.00151137
0.00139197
0.00147974
0.0015719
0.00142866
0.00108148
0.000682894
0.000679036
0.000661458
0.000573065
0.000473133
0.000466872
0.000570223
0.000663758
0.000671436
0.00068353
0.000647757
0.00056098
0.000454458
0.000434849
0.000538914
0.000610614
0.000659772
0.000637562
0.000579636
0.000493277
0.000400569
0.000411184
0.000502575
0.000598553
0.000629357
0.000651202
0.00068289
0.000696014
0.000690539
0.000677822
0.000658084
0.0006262
0.000610097
0.000603926
0.000577697
0.000566698
0.000564887
0.000546929
0.000540201
0.000551688
0.000523374
0.000487876
0.00043889
0.000404249
0.000356553
0.000630855
0.000982065
0.00112591
0.0013485
0.00131265
0.00110227
0.00109087
0.00106353
0.00108277
0.000972638
0.000628063
0.00038878
0.000459899
0.00051152
0.000518476
0.000523489
0.000760496
0.000795817
0.000941062
0.000988941
0.000869058
0.000967507
0.00107593
0.000966923
0.000829054
0.000954545
0.00105273
0.0012249
0.00136194
0.00120433
0.00113857
0.00131082
0.00144535
0.0012795
0.00102665
0.00069346
0.00110204
0.00118219
0.0010328
0.000878401
0.00484063
0.000952556
0.00148056
0.000987784
0.000871572
0.000910784
0.00100688
0.000921399
0.000743363
0.000678207
0.000903463
0.000933612
0.000994284
0.000909622
0.000739197
0.000825448
0.000972879
0.00104112
0.000945849
0.00101764
0.000782563
0.000534289
0.000859247
0.000983848
0.00109601
0.00101751
0.00113793
0.00142162
0.00129752
0.00120615
0.00127204
0.000882541
0.000887658
0.000844302
0.000819984
0.00211083
0.000818346
0.000759846
0.00205695
0.000913428
0.000832577
0.00104915
0.000849275
0.000915051
0.000912791
0.000932765
0.00175304
0.00196395
0.00183395
0.00137704
0.00134152
0.00142118
0.0020042
0.00202503
0.00200629
0.00179012
0.00120306
0.00171003
0.00215512
0.00224016
0.00183737
0.00144895
0.00159922
0.00165762
0.00147313
0.00105882
0.00104453
0.00102505
0.000957341
0.000992376
0.00100691
0.00100702
0.00101014
0.000940808
0.0010433
0.00107226
0.00111355
0.00103594
0.000976393
0.00108909
0.0011302
0.0012505
0.00106623
0.00113084
0.000867702
0.00124143
0.00146268
0.00170946
0.00174241
0.00154048
0.00119974
0.000950097
0.00112122
0.00136065
0.00164113
0.00153893
0.00131191
0.00154148
0.00122805
0.0013041
0.00159143
0.00114345
0.00108435
0.00106025
0.00107626
0.000941211
0.0015224
0.00117301
0.00120432
0.00110395
0.00105401
0.00152995
0.00089245
0.00118236
0.00117566
0.00124661
0.00131204
0.00120471
0.00209974
0.000801809
0.00120393
0.00122723
0.00195634
0.0012631
0.00137526
0.00135037
0.00130215
0.00203959
0.00141339
0.00146327
0.00126334
0.00122563
0.00281549
0.00149351
0.0015162
0.00119244
0.00108833
0.00255411
0.0014111
0.00138525
0.00108078
0.00113784
0.000425861
0.00051857
0.000615655
0.000611642
0.000672634
0.000635357
0.000690698
0.000640074
0.000657857
0.000592105
0.000596709
0.000581884
0.000569694
0.000541756
0.000533021
0.00053184
0.000527324
0.000517696
0.000505312
0.0004843
0.000461524
0.00040902
0.000654517
0.000653301
0.000646509
0.00064364
0.00193558
0.000875409
0.000448602
0.000386028
0.00063432
0.00062892
0.000982181
0.000970696
0.000952874
0.000613693
0.000623328
0.000385566
0.000456635
0.000509451
0.000504809
0.000511226
0.000501491
0.000454376
0.000380934
0.000379605
0.000611421
0.000621528
0.000383975
0.000455867
0.000453262
0.00048831
0.000500163
0.000512438
0.000501235
0.000506165
0.000454682
0.000384702
0.000622409
0.000630073
0.000388699
0.000459458
0.000511665
0.000518807
0.000506479
0.000776541
0.000946837
0.0010124
0.00112605
0.00110979
0.00094581
0.000979089
0.00106148
0.00117711
0.001168
0.00116256
0.00120176
0.00108731
0.000859233
0.000779918
0.000988672
0.00104478
0.00114657
0.00183204
0.00133187
0.00102551
0.000960123
0.00104969
0.000986455
0.000989368
0.000941318
0.000883431
0.000939174
0.000914099
0.000734239
0.000794065
0.000898603
0.000936724
0.000860675
0.000926019
0.000821036
0.000720701
0.000858055
0.000918277
0.000912524
0.000832896
0.000659612
0.000873632
0.000903503
0.000937946
0.00081863
0.000713274
0.000855302
0.000849703
0.000898723
0.00192225
0.000837177
0.000873236
0.00189497
0.000758865
0.000719599
0.000665044
0.00074482
0.000743205
0.000805338
0.000805302
0.000843125
0.000851881
0.00188628
0.00078774
0.000846955
0.00182682
0.00074125
0.000649673
0.00065738
0.000720606
0.000675295
0.000729033
0.000672088
0.00197609
0.000771359
0.000817432
0.000861979
0.000867282
0.000915742
0.000874879
0.00209778
0.000803379
0.000854951
0.00071524
0.000660512
0.000689855
0.000660933
0.00213447
0.000830878
0.000903721
0.000892491
0.00095292
0.000902213
0.000503719
0.000458972
0.000387855
0.000667009
0.00206285
0.000880051
0.000840164
0.000673234
0.000713136
0.000838426
0.00187863
0.00165779
0.00172793
0.00175407
0.0016581
0.00156304
0.00161755
0.00167756
0.00168584
0.00172409
0.00172065
0.00183864
0.00182571
0.00218859
0.00256679
0.00163033
0.00229803
0.00503253
0.00649696
0.00850166
0.00172186
0.00126676
0.000988622
0.00101372
0.000914578
0.000999441
0.000959244
0.00117816
0.00122019
0.00117245
0.000922494
0.000939425
0.000973695
0.00106611
0.00102766
0.0012712
0.00167228
0.00817317
0.00681603
0.003837
0.00257029
0.00149498
0.0015724
0.00158384
0.00159553
0.00106169
0.00536967
0.00325339
0.00183857
0.00397891
0.00257249
0.00347621
0.00316942
0.00384901
0.00379033
0.00144356
0.00143991
0.00143541
0.00142906
0.00142278
0.00141612
0.00141336
0.00142555
0.00155466
0.00258151
0.00319097
0.0032779
0.00353682
0.00366869
0.00414272
0.00448437
0.00504793
0.00565546
0.00608286
0.00552874
0.00806785
0.00583615
0.00719146
0.00707046
0.00795729