/*--------------------------------*- C++ -*----------------------------------*\
| =========                 |                                                 |
| \\      /  F ield         | OpenFOAM: The Open Source CFD Toolbox           |
|  \\    /   O peration     | Version:  v2012                                 |
|   \\  /    A nd           | Website:  www.openfoam.com                      |
|    \\/     M anipulation  |                                                 |
\*---------------------------------------------------------------------------*/
FoamFile
{
    version     2.0;
    format      ascii;
    class       surfaceScalarField;
    location    "110";
    object      phi;
}
// * * * * * * * * * * * * * * * * * * * * * * * * * * * * * * * * * * * * * //

dimensions      [1 0 -1 0 0 0 0];
oriented        oriented;


internalField   nonuniform List<scalar> 
63799
(
0.00327021
-0.0054693
0.00431049
-0.00837324
-0.00580413
0.00883295
-0.00502719
-0.00845204
0.0105054
0.00615706
0.00625388
-0.007829
-0.00353136
0.00382016
0.00325761
-0.000887053
0.00433235
0.00172469
-0.00228423
0.00549461
0.00293947
-0.00417264
0.00151405
0.00389268
0.00297279
-0.00643416
0.00487638
0.00450553
-0.00591771
0.00427478
0.00538687
-0.00449302
0.00350915
0.00645961
-0.00306808
0.00189112
0.0122484
-0.00514422
-0.000837718
0.0141808
-0.0115755
0.00908674
0.0150865
-0.0131772
0.0115779
0.0180641
-0.0123414
0.00858809
0.0176157
-0.00986504
0.00953225
0.0118745
-0.00752985
0.0124602
-0.00537559
-0.00768817
0.0241617
-0.0200548
-0.0165721
0.0304889
-0.0174344
-0.03027
0.0269574
-0.00676886
-0.0337212
0.0225031
-0.0149557
0.00783018
-0.0486408
0.0309656
0.00237866
-0.0535667
-0.0226659
0.0270402
-0.0624325
-0.012654
0.0209677
-0.0441873
-0.0329602
0.0143724
-0.0555714
0.0110255
-0.0892395
0.00720725
0.0259047
-0.109119
0.0145433
0.00463843
-0.122763
0.0082882
0.00458599
-0.128883
0.00273911
0.00257759
-0.130382
-0.00122184
0.00186902
-0.129041
-0.00500522
0.00280644
-0.125459
-0.00972213
0.0052638
-0.118644
-0.0164539
0.00878466
-0.105717
-0.0267871
0.0130042
-0.0836915
-0.0392612
0.0164406
-0.0512691
-0.0508626
0.0176517
-0.061887
0.00987036
-0.103303
0.00333102
0.0372828
-0.131741
-0.000582862
0.0281904
-0.150044
-0.00285382
0.0202486
-0.158553
-0.00456537
0.0121468
-0.15823
-0.00729135
0.00600211
-0.149763
-0.0111291
0.00169672
-0.132766
-0.015956
-0.00200948
-0.106906
-0.0209842
-0.00583779
-0.07036
-0.0253691
-0.012134
-0.0414543
-0.0179719
-0.0118836
0.0152879
-0.0145535
-0.0431303
0.0818734
-0.018196
-0.0493161
0.119368
-0.00362238
-0.0347809
0.141625
0.00313418
-0.0262687
0.151169
0.00842111
-0.0188029
0.140839
0.0161498
-0.00658327
0.081694
0.0367958
0.0217275
0.0343683
0.0174815
0.0296242
0.0193127
0.0114422
0.00353577
0.0198414
0.000757379
-0.00134148
0.0196589
-0.00104345
0.00115479
0.0167191
0.000216579
0.00264243
0.010968
0.000911135
0.00475511
0.00641255
0.000781563
0.00370236
0.00557125
0.000405343
0.0003849
-0.00254459
0.00628802
0.00175632
-0.000673211
-0.00195956
0.00657965
0.000104282
-0.00745618
0.012504
0.00251872
-0.00855345
0.0176442
0.00213042
-0.00737369
0.0240228
-0.000882743
-0.00560104
0.057313
-0.0171339
-0.0163534
0.111873
-0.0114949
-0.0436395
0.134209
0.00285938
-0.0259146
0.14356
0.00446634
-0.0146241
0.14594
0.00402243
-0.00721585
0.143236
0.00425616
-0.00239138
0.135479
0.00511905
0.00184081
0.120211
0.00682063
0.00766986
0.0983608
0.0061022
0.0150427
0.0613893
0.0074648
0.0289461
0.0500478
0.0109814
0.0802174
0.0141781
-0.0446906
0.0759243
0.00886081
-0.0051196
0.051808
0.0162225
0.00734208
-0.00148325
0.0533786
-0.000430347
-0.00593835
0.00409517
0.0111329
0.0173675
-0.0349992
0.0107088
0.0283355
-0.0286165
0.00164327
0.0319057
-0.023618
0.00149294
0.0308501
-0.0314965
0.0147031
0.0342544
-0.0483032
0.0298938
0.0396928
-0.055696
0.0429132
0.0422331
-0.0560585
0.0457096
0.0437127
-0.0472281
0.0247466
0.0467177
-0.0263287
0.0126161
0.0210472
-0.00911363
0.0122778
0.00610582
-0.00587259
0.0121941
0.00565097
-0.00567031
0.0109021
0.00630526
-0.00512354
0.00710007
0.0053871
-0.00168405
0.00195545
0.00505649
0.00307581
0.00347411
-0.00466592
0.00269803
0.00277049
-0.00244372
0.00182496
0.004114
-0.00331243
0.00261813
0.00469182
-0.00556966
0.00218006
0.00430704
-0.00394974
0.00182758
0.00397049
-0.00368903
0.00212759
0.00198867
-0.00234399
0.00330527
0.0018575
-0.00311275
-0.00181101
0.0105618
-0.00566531
-0.0122607
0.0343269
-0.0244981
-0.011968
0.0328524
-0.0339074
-0.0122978
0.0346924
-0.0351996
-0.014348
0.037196
-0.0360216
-0.0132569
0.036537
-0.0385344
-0.0109912
0.036904
-0.0400916
-0.00698561
0.037427
-0.0423644
0.00174545
0.0430547
-0.0527179
0.00620329
0.0486497
-0.0540299
0.00472522
0.0516557
-0.0510844
0.00311648
0.0526168
-0.0518842
0.00886387
0.048427
-0.0550117
0.0190221
0.0457734
-0.0566941
0.0164999
0.0480055
-0.0461042
0.00552622
0.0187205
-0.00796627
0.00372208
0.00647336
-0.00474662
0.00557928
0.00258234
-0.00449443
0.00735085
0.00394483
-0.00578634
0.00454432
-0.00510071
-0.00811637
0.00950254
-0.00537948
-0.00563984
0.00764246
-0.00625004
-0.00119907
-0.00188013
0.00737105
-0.00212558
-0.00592937
0.012199
0.00700934
-0.00602136
-0.00545598
0.0162717
0.00180318
-0.000654583
0.0749086
0.0149519
-0.0476429
0.0176242
0.0714503
-0.0448668
0.0262144
0.0712237
-0.0323114
0.0227629
0.0736905
-0.0185623
0.0153529
0.0697853
-0.0116765
0.0106437
0.0635318
-0.0111419
0.0103359
0.0533445
-0.0109578
0.00731883
0.0413871
-0.00191838
0.00249724
0.0406636
9.35473e-05
-0.00474076
0.0441218
-0.00130302
-0.014191
0.0477472
-0.0020406
-0.0172826
0.0450918
-0.00823181
-0.0154212
0.0467258
-0.0166458
-0.00984936
0.0527627
-0.00500517
-0.0199892
-0.00602483
0.010663
-0.00409817
-0.00754151
0.00901434
-0.00517244
-0.00243893
-0.00455839
-0.00115461
-0.00168744
-0.000904097
-0.00267182
0.00860641
-0.00372834
-0.00305792
0.00859388
-0.00398841
-0.00173736
0.00889794
-0.00561825
-0.00263152
0.00694803
-0.00200905
-0.00264017
0.00474411
-0.0020113
-0.00218425
0.00648666
-0.00353124
0.0101568
-0.00738072
0.0147568
-0.0077582
0.00304889
0.0190939
-0.00787353
0.0034128
0.0238884
-0.00830464
0.00337409
0.034112
-0.0124301
0.002028
0.046277
-0.0189603
0.00650928
0.034253
-8.90666e-05
0.0118285
0.0248793
-0.000816001
0.0100099
0.0208882
-0.00188552
0.00574049
0.0172679
-0.00100809
0.00450481
0.0130356
0.000350233
0.00377272
0.00771545
0.00184187
0.00338216
0.00360511
0.00402223
0.00286749
0.00615575
-0.00548955
0.00277256
0.00393787
-0.00389394
0.00558581
0.00167864
-0.00456337
0.00753212
0.00237769
-0.00440863
0.00873441
0.00288411
-0.00416712
0.00853202
0.00337885
-0.00324741
0.00814506
0.0030126
-0.00268088
0.015093
0.000943406
-0.0079688
0.0391779
-0.0067529
-0.0175512
0.0691304
0.0131112
-0.0436808
0.07663
0.0246204
-0.0328758
0.0747026
0.0291509
-0.0280501
0.0666513
0.0308337
-0.0236385
0.0532782
0.0304471
-0.0179424
0.025976
0.0285314
-0.00209113
-0.0149914
0.0255039
0.0146066
-0.0397779
0.0320817
-0.0081524
-0.0497387
0.0371254
-0.0280267
-0.0554765
0.0393314
-0.0344607
-0.0569209
0.038764
-0.0381723
-0.0526879
0.0361509
-0.0412055
-0.0420182
0.0325351
-0.0439557
-0.0207722
0.0266439
-0.0485053
-0.00715167
0.0028204
-0.01666
-0.00345733
0.00280198
-0.00657387
-0.00401912
0.00360573
-0.00309925
-0.00372776
0.00473281
-0.00509492
-0.00220527
0.00445303
-0.00605475
-0.000518922
0.00437536
-0.00614185
0.000626534
0.00191103
-0.00312009
0.000647668
0.00275317
-0.00282201
-0.000620977
0.00540841
-0.00421023
0.0056245
-0.00633217
0.00957862
0.00211888
-0.00617226
0.0122342
0.00385529
-0.00661875
0.0145374
0.00373545
-0.00614509
0.0162416
0.00398171
-0.00578916
0.0172938
0.00420503
-0.0053575
0.0170205
0.00454334
-0.00436411
0.0119703
0.006269
-0.00129592
0.00555079
-0.000123247
0.00651252
0.00540185
-0.000773157
0.000908594
0.00646196
-0.000854087
-0.000220681
0.00749084
-0.000932501
-0.000111907
0.00832281
-0.000655245
-0.000192473
0.00882892
-2.79002e-05
-0.000493664
0.00892389
0.000615888
-0.000726277
0.00874063
0.00106368
-0.000895774
0.00841595
0.00126327
-0.00095397
0.00806801
0.00128602
-0.000953504
0.00772278
0.00122888
-0.000899108
0.00739185
0.00115285
-0.000837443
0.00704634
0.00109085
-0.000760801
0.00669537
0.00104765
-0.000712281
0.00616387
0.000964138
-0.000447834
0.00543451
0.00073768
-2.25295e-05
0.00580272
0.000611661
-0.000992672
0.0123803
-0.000821852
-0.00578394
0.0175601
-0.00320554
-0.00204304
0.0184194
-0.00091295
-2.87411e-05
0.0177879
-0.00020971
0.000758745
0.0156524
0.000372979
0.00167972
0.00960815
0.00212867
0.00384652
0.0039201
0.00390375
0.0017562
0.00323539
0.000284082
0.000387996
0.0030131
-0.000330761
0.000539402
0.00235868
5.10116e-05
0.000589849
0.000999591
0.000421241
0.000926696
0.000364967
0.000429773
0.000199389
0.000145468
0.000216391
9.50743e-05
0.000127441
-7.87431e-05
7.47801e-05
6.36836e-05
-4.41069e-05
0.000126057
2.51075e-05
-7.70318e-05
0.000214018
2.95124e-05
-0.000118379
0.000329478
3.60656e-05
-0.000152707
0.000548731
4.66564e-05
-0.000267176
0.00050563
-1.08938e-05
5.29638e-05
0.000735005
-0.000351363
0.000121224
0.00120815
-0.000728936
0.000254602
0.00186853
-0.000933748
0.000272133
0.00252622
-0.00104705
0.000388111
0.00296971
-0.000960777
0.000516038
0.00307809
-0.000757402
0.000647765
0.00300471
-0.000632598
0.000704721
0.00259654
-0.000291269
0.000698194
0.00166586
0.000229073
0.000700351
0.000146804
0.00079237
0.000725455
-0.00144223
0.00138726
0.00020059
-0.00222934
0.000624158
0.000162186
-0.00215503
1.36198e-05
-8.89524e-05
-0.00133679
-0.000795941
-2.35478e-05
-0.000811135
-0.000547593
2.07626e-05
-0.000444044
-0.000404202
3.62145e-05
-0.00024856
-0.000262118
6.59921e-05
-0.000302924
-0.000147173
0.000200827
-0.000468894
-0.000129504
0.0002938
0.000366731
-0.00083869
0.000248565
-0.000614781
0.00072941
3.59328e-05
-0.000404288
0.000613812
-0.000272324
-0.000240355
0.000545493
-0.000546469
-0.000254036
0.000525194
-0.000714652
-0.00034461
0.000509803
-0.000857595
-0.000341846
0.000481901
-0.000875735
-0.000458647
0.000473954
-0.000920597
-0.00041078
0.000452874
-0.000872324
-0.000505622
0.00045463
-0.000876136
-0.000440464
0.000441578
-0.00080501
-0.000520265
0.000446504
-0.00079481
-0.000443218
0.000430358
-0.000717258
-0.000503211
0.000423129
-0.000697994
-0.000408793
0.000386924
-0.000612854
-0.000458317
0.000370828
-0.000528724
-0.000420313
0.000333669
-0.000545663
-0.000489192
0.000503759
-0.00130416
-0.000300661
0.0010539
-0.00147324
-0.000585825
0.000748406
-0.00266098
-0.000354884
0.00152991
-0.00481168
-0.00410399
0.00621919
-0.010717
-0.0174732
0.0232535
-0.0157153
-0.0220374
0.0268652
-0.0174268
-0.035006
0.0364024
-0.0152131
-0.0461672
0.0436106
-0.0504809
0.0459203
0.0156283
-0.0811937
0.0217636
0.0247534
-0.0820409
0.0261867
0.0217388
-0.0748865
0.0054578
0.0367705
0.012571
-0.0233142
0.0102858
0.00489181
-0.0249281
0.0123428
0.00261373
0.0024025
0.00324682
-0.00488932
0.00280428
0.00165722
-0.0036915
0.00161356
0.00192877
0.000515832
0.00107592
0.000264075
0.000736312
-4.30172e-05
0.000380692
0.00034718
8.72357e-05
-0.000175299
3.24785e-05
-0.00115484
0.000815543
0.000162388
-0.00170082
0.000500727
0.00218444
-0.00402937
0.00178698
0.000962649
0.00135087
-0.00436434
0.00206693
0.00215132
0.000813579
0.000540345
0.00114645
0.000555803
0.000964479
-0.000803525
0.000572873
0.0013463
-0.00145207
0.000563253
0.0010804
-0.000777956
0.000596832
0.00144567
-0.00146985
0.000580492
0.00112032
-0.000735362
0.000616403
0.00144338
-0.00143767
0.000605095
0.00105631
-0.000684876
0.000657227
0.00125553
-0.0013275
0.000665627
0.00080908
-0.000633557
0.000734108
0.000791365
-0.00109454
0.000763541
0.000438411
-0.000745455
0.000840248
0.000347674
-0.00101796
0.000864207
9.20061e-05
-0.00107279
0.000919957
-0.000244621
-0.00125078
0.000967886
-0.00201326
0.000924602
-0.00435068
0.00059072
0.00173596
-0.00517224
-0.000178432
0.000987351
-0.00518519
-0.000231863
0.000231993
-0.00591235
-0.000268304
0.000984721
-0.013646
0.000893478
0.00681531
-0.0203607
0.00586618
0.000796883
-0.0245165
0.00234023
0.00175407
-0.0474982
0.00661274
0.0162737
-0.0492351
0.00434712
-0.00281461
-0.0274157
-0.00405537
-0.0178579
-0.0243804
-0.00140293
-0.00169234
-0.0185021
-0.00494879
-0.000980083
-0.00852377
-0.00124628
-0.00875667
-0.00794248
0.000381762
-0.000973851
-0.00904282
0.000209677
0.00087757
-0.00943762
8.57208e-05
0.000295603
-0.00900646
-0.000551266
0.000106594
-0.00872496
-0.000482873
0.000188695
-0.00862858
-0.000332966
0.000223785
-0.00882933
-0.00012339
0.000310902
-0.00938976
7.33461e-05
0.000472637
-0.00969549
-0.000358694
0.000649126
-0.00958165
-0.000905443
0.000775794
-0.00911094
-0.00137268
0.000886103
-0.0084123
-0.00168076
0.000966356
-0.00778127
-0.00163891
0.000992055
-0.0070248
-0.00153439
0.000762553
-0.00605166
-0.001306
0.000318122
-0.00617329
-0.0011986
0.00130691
-0.0134537
-0.000691007
0.00794047
-0.0184478
0.00809829
-0.0031801
-0.0208302
0.0053945
-0.00309923
-0.0418868
0.0127152
0.00816935
-0.0543386
0.0249836
-0.0129798
-0.0357254
0.00927138
-0.0284385
-0.0331497
-0.00314495
-0.0513493
-0.0254745
0.0429918
-0.0592054
-0.0391043
0.0462041
-0.057159
-0.0501929
0.0473235
-0.0453107
-0.0578771
0.0451919
-0.027852
-0.0613239
0.0430594
-0.0624464
0.0436736
0.019392
-0.104259
0.0249282
0.0383382
-0.10333
0.0222016
0.0520934
-0.0969013
0.024381
0.0547194
-0.0838024
0.0301034
0.0460887
-0.0653791
0.0340787
0.0261495
-0.0430293
0.0367452
-0.0144652
0.0367928
-0.029115
-0.0292112
0.043101
-0.0401929
-0.0373903
0.0475955
-0.0455481
-0.0459332
0.0503793
-0.0439223
-0.0551724
0.0525936
-0.0365203
-0.0630122
0.0546584
-0.0244178
-0.0696894
0.0566408
-0.0065569
-0.074593
0.0558105
0.0112286
-0.0718702
0.0531911
0.0101748
-0.0547608
0.0549424
0.00470409
-0.0577803
0.062386
0.00978654
-0.0687067
0.0627585
0.0182991
-0.07083
0.0614469
0.0277546
-0.0677986
0.0574858
0.0347057
-0.0613664
0.0535879
0.0346951
-0.0513983
0.0506527
0.0147667
-0.0343671
0.0536784
0.00614233
-0.0106359
0.0190413
0.00326607
-0.00119735
0.00399632
0.00275543
-0.00300682
0.00346263
0.0015616
-0.00416952
0.00529351
9.15557e-05
-0.00386722
0.00525913
-0.00100826
-0.00466428
0.00568489
0.000535445
-0.00405936
0.00245256
0.0014045
-0.00460477
0.00368839
-0.00118997
-0.00520865
0.00773217
0.0083792
-0.00965721
0.0139145
-0.00963224
0.00399756
0.0170104
-0.00993948
0.00673292
0.019164
-0.00819624
0.00593958
0.0224926
-0.00883299
0.00539972
0.0507227
-0.0306702
0.00224514
0.107507
-0.000837222
-0.05651
0.133224
0.0162423
-0.0426488
0.14592
0.0236062
-0.0370689
0.152095
0.0263032
-0.0332221
0.151404
0.0288451
-0.0289087
0.136406
0.0338298
-0.0194952
0.0791633
0.0490177
0.00769876
0.0363923
0.0190951
0.0234992
0.0293014
0.00630609
0.000694105
0.0188008
0.0103089
0.000119808
0.00784495
0.0103056
0.000620684
0.00690577
0.00164672
-0.000719928
0.00687511
0.000634479
-0.000617461
0.00571967
0.00160224
-0.000460045
0.00259246
0.00248352
0.000632752
0.00106859
0.0012633
0.000255188
0.000432041
0.000633486
0.000256502
-0.000758639
0.00093063
3.04589e-05
-0.000592752
0.000815678
-0.000122341
-0.000649396
0.000799068
-0.000267423
-0.000614675
0.000756761
-0.00032535
-0.000657069
0.000711997
-0.000399202
-0.000580199
0.000651155
-0.000382144
-0.000641395
0.000621497
-0.000399832
-0.000564096
0.000579008
-0.000341569
-0.000629059
0.000568071
-0.00033454
-0.000555005
0.000545272
-0.000272893
-0.000612392
0.0005481
-0.000267718
-0.000539333
0.000531488
-0.000234648
-0.000562198
0.000526584
-0.000242463
-0.000490185
0.000495374
-0.000190322
-0.000519826
0.000465313
-6.04954e-05
-0.00047837
0.00034604
-1.48194e-06
-0.00043609
0.000374748
-0.000394036
-0.000693467
0.00108073
-0.00064539
0.000871864
-0.000627099
-0.0013336
0.0013645
-0.000689048
-0.00252824
0.00552758
-0.00436873
-0.00913989
0.0249066
-0.0184219
-0.0161282
0.0303026
-0.0234902
-0.020556
0.0407113
-0.0366039
-0.0164732
0.0447772
-0.0492035
0.0493167
-0.055185
0.0191997
0.0712475
-0.0272633
0.0260397
0.0636121
-0.0259417
-0.0184404
0.0498009
-0.00540373
0.026979
-0.00477412
0.0338727
-0.00207413
-0.00487677
0.000154314
0.0451097
-0.0114321
0.0649045
-0.0150162
-0.0120674
0.0511294
-0.00105911
-0.0283049
0.0546441
-0.0292974
0.0698124
0.0105247
0.0638935
-0.0135541
0.0162529
0.0360336
0.0273578
0.00928568
0.00849421
0.0677798
-0.00580106
-0.00589817
-0.0123944
0.0839487
-0.0178996
0.00154693
-0.00247604
0.012931
-0.0257273
-0.00338383
0.0100556
-0.0102353
0.00120163
-0.030715
-0.00895751
0.0227848
0.00658171
0.00431176
-0.0069292
0.0062305
0.0145077
0.0221176
-0.0137601
0.00863405
0.00348785
-0.00593501
1.88439e-05
0.0161453
0.00385602
0.00311865
0.0115094
0.00135228
0.00327654
0.010643
-2.63559e-05
0.000882137
-0.00928079
-0.000377089
0.0202872
-0.0192598
0.00100502
0.00419803
0.0035419
0.005435
-0.00478514
0.00725512
-0.000440345
0.00465892
0.00256571
-0.0046798
0.00895744
0.00175517
0.010766
0.00361425
-0.0118404
-0.000810005
-0.00564547
-0.00243749
-0.0029538
0.0307428
-0.0101852
-0.00250483
0.000927247
0.00971461
0.00426116
0.00267659
-0.0337705
0.00348663
-0.00230526
0.00057071
-0.00111333
0.00308557
-0.00443457
0.00292794
-0.00450903
0.00315102
-0.011511
-0.0133291
0.0063294
0.0108278
0.0034143
-0.00818703
-0.0108842
0.00708581
0.0117
-0.00293428
0.00224783
-0.0125314
0.019059
-0.00256118
-0.00282143
-0.0027821
0.00571141
0.000645507
-0.00260829
-0.00208503
0.00182145
-0.000710646
0.000410452
0.00298385
-0.00247024
-0.00211371
0.00183236
0.000530826
0.00254167
0.00189746
-0.00251489
-0.0020474
0.00043779
-0.0025508
-0.00206848
0.00215889
0.00255045
0.000672205
-0.00262878
-0.00203608
0.00199463
0.00243295
0.000665611
-0.00229948
-0.00204069
0.00182404
0.00251992
0.0010445
-0.00256015
-0.00191813
0.00162601
0.00247066
0.000976122
-0.00232396
-0.00198616
0.00176404
0.00261185
0.00142231
-0.00287635
0.00265823
0.00179164
-0.00202222
0.0013358
-0.00269486
0.00202656
0.00307801
-0.0023258
0.00162078
-0.00268121
-0.00354417
0.00347382
0.00246384
0.00121953
-0.00365163
0.00324529
-0.00319067
0.00399537
0.00103913
-0.00451129
-0.00346689
0.00379542
0.00436009
0.00043632
-0.00438041
0.00513741
0.00364192
-0.00379905
5.19225e-05
0.00416635
-0.00483549
0.00556342
-0.00451305
6.94354e-05
-0.00190002
0.00242696
0.00179021
-0.00233595
0.00179929
-0.00110292
0.00122475
-0.00185243
0.00226256
0.00213412
0.000341133
-0.00293945
0.00208068
-0.000879769
0.00064505
0.000415635
0.00213202
-0.00164572
0.00135135
0.000241866
0.00174271
-0.00109068
0.0011986
0.000280273
0.00134672
-0.000654777
0.000769576
0.000280109
0.000645019
-3.78552e-05
0.000325583
0.000412925
-0.000354476
0.000509015
-8.54863e-05
0.000574903
-0.0010468
0.000560179
-0.000484454
0.000615534
-0.00125291
0.000753045
-0.0010777
0.000529711
-0.00124979
0.000965916
-0.00150425
0.000534132
-0.00113337
0.00100584
-0.00154901
0.000425636
-0.000925339
0.000928221
-0.0013664
0.000228979
-0.000786056
0.000379633
-0.000488452
-3.14275e-05
-0.000431316
0.000574226
0.000110069
-0.00103996
-0.000158254
0.000271175
-0.00057627
3.1288e-05
-0.000584886
0.000668905
-0.000560733
0.000316972
-0.00125247
0.00155948
0.00135688
7.62225e-05
-0.00234293
-0.00270239
0.00264797
-0.0021617
0.000941459
-0.00395705
0.00013493
0.0022169
0.000447808
-0.00263422
0.000978405
-0.00217882
-0.000741995
-0.00503404
0.00389561
-0.0028414
0.00184936
-0.00498991
0.00372481
-0.00725384
-0.00107402
-0.00388631
0.00925648
-0.0264268
-0.0100232
-0.0184486
-0.00676579
0.0535883
-0.0429857
-0.0203063
0.0251143
0.0109549
-0.0495523
-0.0292368
0.0461926
-0.01121
-0.0494848
-0.031021
0.0512268
-0.0211026
-0.0464814
-0.0320525
0.053514
-0.025298
-0.0415117
-0.0299763
0.0526016
-0.0284123
-0.0121129
-0.0231141
0.047258
-0.0164631
-0.0379307
0.0164699
-0.00726512
-0.00961407
-0.0118388
0.0136348
0.0260023
-0.0101642
-0.0131335
0.0217206
0.0165988
-0.0140995
-0.0107195
0.0123111
0.034525
-0.0112785
-0.0139638
0.00530569
0.0276983
-0.00810791
-0.0126843
-0.00656627
0.0394119
-0.010484
-0.0171559
-0.0125324
0.0402162
-0.0144775
-0.0198998
-0.00759243
0.0292738
-0.0138221
-0.0205276
-0.00888218
0.0333235
-0.0132293
-0.0189582
-0.0106506
-0.0050368
-0.00739784
-0.00233279
-0.00926852
0.00588713
-0.00105848
-0.00991273
0.00641578
-0.0024732
-0.00868015
0.00449422
-0.00292958
-0.00626563
0.00287902
-0.00300649
0.00198779
-0.00269954
-0.00912153
0.0058639
0.0101243
-0.00497526
-0.00430952
0.00657584
-0.0053325
0.00614496
-0.00653115
0.00682755
-0.00664994
0.00585714
0.00728087
-0.00589501
0.00533901
0.00725038
-0.00476531
0.00469123
0.0121947
-0.0126793
0.00754021
0.0224688
-0.0339503
0.0319295
-0.040127
0.0399069
-0.0407957
0.0460776
-0.0379348
0.047151
-0.0310641
0.0454282
-0.0192465
0.0314979
0.00338068
0.0164051
0.0138421
0.0155895
0.00257442
0.0120901
0.00268548
0.00501866
0.00592626
0.00111567
0.00440402
0.000798437
-0.000196176
0.00423142
0.000272046
-0.00011309
0.0033917
0.000873888
-4.73975e-05
0.00146144
0.000602685
0.00131665
0.000548254
0.000241756
0.000666058
0.000443538
0.00010165
0.000305173
3.73321e-05
9.93565e-05
0.000223137
-5.1068e-05
0.000132393
0.000342453
-0.000131046
1.10885e-05
0.000569296
-0.000187484
-4.02559e-05
0.000791971
-0.000184466
-3.93817e-05
0.00106258
-4.0746e-05
-0.00023112
0.000888332
-5.73776e-05
0.000230603
0.00130926
-4.20576e-05
0.00218051
5.57829e-05
0.0030778
0.000107323
0.00376931
0.000273156
0.00406246
0.000458655
0.0039885
0.000632877
0.00377426
0.000722005
0.00302976
0.000705398
0.00173947
0.000634267
2.23453e-05
0.000625213
-0.00181498
0.000190419
-0.0029007
0.000205187
-0.0027521
-9.39975e-05
-5.56261e-05
-0.00172162
-1.71003e-05
-0.00101463
-0.00105032
3.96697e-05
-0.000712145
-0.000579386
5.57925e-05
-0.000527621
-0.000327547
8.89399e-05
-0.000341422
-0.000403737
0.000263795
-0.000188316
-0.000146003
0.000374074
-0.000646207
0.000458474
4.12786e-05
-0.000241033
0.000301047
0.000555361
0.000454691
-0.00212026
0.000611398
0.000811891
0.00113059
-0.00273753
0.000949507
0.00111044
0.00115844
-0.00247441
0.001236
0.00120874
0.00206506
-0.00383092
0.0013437
0.00157866
0.00195616
-0.00286122
0.0014198
0.00154847
0.0043006
-0.00534886
0.00290067
0.00505022
0.0041232
0.00297188
-0.00206163
0.00397412
0.00178894
-0.000996244
0.00480472
0.00162967
-0.00111083
0.00485649
0.0023538
-0.00120867
0.00460491
0.00201518
-0.000995688
0.00410872
0.00102932
-0.000209096
0.00330097
0.000247501
0.000473205
0.00243201
-0.000379178
0.00076212
0.00163168
-0.00160706
0.00132813
0.000932779
-0.00276521
0.00195821
0.00011659
-0.00289805
0.00216352
-0.000853012
-0.0024562
0.0020575
-0.00103526
-0.000687437
0.000379796
-0.000644556
0.000658594
-0.00047641
0.000655517
-0.000361409
0.0040635
-0.00245467
-0.0032661
-0.00123558
0.00419051
0.00446761
-0.00145529
0.00259126
0.00622981
-0.000715534
0.00157784
0.0197331
-0.00522509
-0.0120327
0.00378616
0.0156361
-0.00715555
0.00610734
0.0114402
-0.00663545
0.00575405
-0.00973703
-0.00128896
0.0254108
-0.00839764
-0.0168209
-0.0100562
0.0160142
-0.0178941
-0.0395298
0.0591472
-0.0291739
0.0265407
0.0428455
-0.0500784
0.0586364
0.00754356
-0.0575913
0.0666206
-0.00880229
-0.0590181
0.0702019
-0.0161913
-0.0565471
0.0703991
-0.0212041
0.064387
-0.0320068
0.0694211
0.0835695
-0.0274397
0.0687429
0.0841023
-0.0140519
0.063936
0.0812793
-0.00728202
0.0507447
0.0775375
0.00127434
0.0169318
0.0709625
0.0204877
-0.0385358
0.0314037
0.0495922
-0.0368705
-0.046807
-0.0222792
0.048491
0.013892
-0.0193177
-0.011641
-0.0199252
-0.018665
-0.0154996
0.00741277
-0.024402
-0.00735114
0.00559524
-0.0224816
0.00635427
-0.027249
-0.00834065
0.00584804
-0.0119542
-0.0151749
-0.00709521
0.00165033
0.00398917
-0.0116156
-0.00422051
-0.000130355
-0.00994421
0.00116169
-0.00981324
-0.00394405
0.00233791
-0.00369576
-0.00686759
-0.00417937
0.00245696
0.00320298
-0.00473635
-0.00315034
0.000984113
0.00211374
-0.00372484
0.00154442
-0.00145852
0.00164618
-0.00338322
-0.00347975
0.00294456
-0.00515549
-0.00318048
0.00205182
-0.00727747
-0.0031165
0.00247024
-0.00908085
-0.00227316
0.00246654
-0.0100727
-0.00181239
0.00242204
-0.0115896
-0.00107231
0.00283375
-0.0118018
-0.000544706
0.00178327
-0.0111659
0.000925189
0.000451089
-0.010274
0.00184012
-0.000381115
-0.00922311
0.00297438
-0.00239931
-0.00896251
0.00275476
-0.00122947
0.0101851
0.00622525
-0.0161393
-0.00122796
0.00945555
0.00324971
0.000231036
0.0111928
0.00266384
-0.00143028
0.0123903
0.000802962
-0.000163386
0.0124864
-0.000308823
0.00113472
0.0114699
-0.00115573
0.00162463
0.0106057
-0.00195449
0.00174359
0.00966566
-0.00271537
0.00184016
0.00871073
-0.00323809
0.00191691
0.00711856
-0.00343955
0.00191207
0.00573875
-0.00339728
0.00159357
-0.00381126
0.00234183
-0.00672807
-0.00378925
0.00196604
-0.00778906
-0.00473861
0.0023988
-0.00875172
-0.00431534
0.00183528
-0.00973926
-0.0040894
0.00183582
-0.0107596
-0.0035126
0.00181462
-0.0114242
-0.00288847
0.00159559
-0.012011
-0.0016202
0.00104825
-0.0124523
-0.000168864
0.000298214
-0.0117498
0.00138937
-0.00129242
-0.00970761
0.00143626
-0.000818321
-0.00931345
0.00217928
0.000672443
0.0118408
0.00311946
-0.0188138
0.000747504
0.00904003
0.00461641
0.000359722
0.0129345
-0.00166078
-0.000801387
0.011619
0.0035747
-0.000873818
0.0158452
-0.00353549
-0.000863652
0.0122937
0.00159551
0.000331621
0.0151123
-0.00562663
-8.46548e-05
0.0110375
-0.000647647
0.00120578
0.0128553
-0.00673602
0.000824585
0.00852787
-0.00196207
0.00197012
0.00842108
-0.00644891
0.00181306
0.00527139
-0.00217952
0.00153604
-0.00534656
0.000596075
0.0113763
-0.00734557
-0.0139181
0.00234429
0.0117965
-0.00598791
0.00137155
-0.00503488
0.00125217
0.0125886
-0.00509915
-0.0130087
0.000464978
-0.00564019
-0.00118939
0.0138012
-0.00434978
-0.0133736
-0.0017409
0.0296042
-0.00471678
-0.0189262
0.000644125
-0.00767399
0.00443666
0.0249636
-0.00655644
-0.030138
0.00396784
-0.00667131
0.00489548
0.0123259
-0.003089
-0.0185704
0.00261651
-0.0298954
-0.0163216
-0.0229364
-0.0184592
0.00831667
0.00479421
-0.0398354
0.00270513
0.00928191
-0.0232362
0.00283409
0.00624975
-0.00576668
-0.027801
0.00400356
-0.0315466
0.00285333
0.00802743
-0.000183698
-0.0324121
-0.00632837
-0.000745863
-0.0134505
-0.00182069
0.0046778
-0.0185613
0.000227198
-0.0141192
0.000304398
0.0055776
-0.0156143
-0.00512392
0.00102221
-0.014347
0.000909727
-0.0167829
-0.00633837
0.00141065
0.0077268
-0.0200505
-0.00632202
0.00184521
-0.0181164
0.00349817
-0.0215055
-0.0064223
0.0024121
-0.0224209
-0.00361639
0.000484879
-0.0208839
-0.000460678
-0.00105294
-0.0192735
0.00230047
-0.00097234
-0.0187511
0.00375557
-0.0011752
-0.00504656
0.00436425
-0.0173194
-0.000768957
-0.00641914
-0.0165953
-0.000865802
-0.00744225
-0.0150249
-0.000110655
-0.00580538
-0.0115866
0.00172169
-0.00390537
-0.00925808
0.00103737
-0.00688476
0.000590675
-0.00930172
0.00433866
-0.000336555
-0.00668178
-0.00133078
-0.000669966
-0.00471458
-0.000324515
0.00560658
-2.37603e-05
0.0151048
0.00978488
-0.0309379
0.010822
-0.00060889
-0.00457322
0.00702894
0.00104026
0.000274162
-0.00431597
0.00468656
-0.0079161
0.00902517
-0.00122412
-0.0017158
0.00637731
-0.00136877
-0.00796356
-0.00117809
0.00529897
-0.00631167
-0.00191263
0.00565061
0.00189654
-0.00682922
-0.00234542
0.00559069
-0.00698965
0.00181418
-0.00253299
0.00547839
-0.00701737
0.00170859
-0.00250912
0.00535772
-0.00695508
0.00155542
-0.00238163
0.00526824
-0.00689085
0.00147708
-0.00229565
0.00514898
-0.00670621
0.00145321
-0.00225456
0.00507669
-0.00656246
0.00142671
-0.00212611
0.00473472
-0.00619339
0.00131293
-0.00200671
0.00407637
-0.00493572
0.000724466
-0.00177453
0.00524826
-0.00773662
0.00223255
-0.0116521
0.00366162
-0.0260582
0.0136714
-0.0220047
-0.0248379
0.0115366
-0.0275001
0.00506812
-0.0780187
0.0411571
-0.0178063
-0.0877379
0.0282667
-0.0890752
0.0230126
-0.117084
0.0201538
0.0131774
-0.130536
0.0156585
0.00379949
-0.137731
0.0145764
-0.0031024
-0.140056
0.0146094
-0.00889117
-0.13748
0.0160177
-0.015435
-0.129137
0.0196794
-0.0244158
-0.11416
0.0236878
-0.0366581
-0.0457835
-0.0400382
0.0253113
-0.0660366
-0.00664164
0.00980155
-0.0283337
-0.0208266
-0.0176362
-0.0062044
-0.0161199
-0.00243716
-0.0131625
0.00860021
-0.00954185
-0.00433059
0.00492722
-0.0113658
0.000483619
0.0016834
-0.00649054
0.00140075
-0.0029729
0.0059381
0.00183344
-0.00648026
0.00981103
0.00197011
-0.00596679
0.0127558
0.00167641
-0.00475745
0.0201667
0.00359067
-0.0111817
0.0347274
0.0152577
-0.0301037
0.0300403
0.0322478
-0.0278496
0.025058
0.0213516
-0.0165554
0.0227922
0.0155686
-0.0134515
0.0195762
0.0135108
-0.0104308
0.0157704
0.0120936
-0.00840502
0.00952295
-0.00350779
-0.0147081
0.0142935
0.00020716
-0.0183067
-0.00254251
0.01812
-0.020749
0.0196828
-0.00385674
-0.0215347
0.0213696
-0.00514991
-0.0159373
0.021803
-0.00618778
-0.0553302
0.0382084
0.0567449
-0.0239087
-0.0218104
-0.0201491
-0.0451795
0.0464698
-0.0191567
-0.00724225
0.0256571
-0.0212596
-0.0155441
-0.00758688
0.0196535
-0.0158592
-0.0100286
-0.00722478
0.0183036
-0.0167658
-0.00616529
0.0161882
-0.015279
0.0058582
-0.00861971
0.00992641
-0.00944811
0.0125802
-0.00869751
-0.0113589
-0.00367032
-0.00282832
-0.00271761
-0.00215255
-0.0011057
-0.00140382
-0.00116327
-0.00199654
0.00211587
-0.00122817
0.00247261
-0.00253797
-0.00193562
0.00277883
-0.00171336
-0.00446387
0.000583376
0.00381952
0.00317806
0.00532806
-0.0155219
0.00294153
-0.000376479
-0.00779573
0.00508929
-0.00563998
-0.000781329
-0.00717554
0.000144527
0.0271045
-0.00881277
-0.0132467
-0.00593553
0.00671215
0.013963
0.00638787
0.0377586
0.00672989
-0.0378461
0.00906529
-0.00160503
0.0302199
-0.0186723
-0.00242298
0.000333781
-0.00675655
0.00799658
-0.000917086
0.00283465
-0.00321837
0.0159871
-0.00645121
0.00413922
0.0102181
0.00969702
-0.0106724
-0.0105881
-0.00679268
-0.00750987
0.00817363
-0.0100988
-0.00217084
-0.00660693
-0.0314145
-0.0189623
0.0413581
0.00642226
-0.000160864
-0.00250174
-0.0686728
0.0333235
-0.0078494
-0.0214145
0.00652696
-0.0201273
0.00394576
0.00317317
-0.000596888
0.00322146
-0.00145063
-0.00260414
-0.00097081
-0.00035235
-0.00219908
0.00146744
0.00252863
0.0016584
-0.0290396
0.0151701
-0.0109605
-0.010945
-0.0102548
0.0793421
0.047011
0.0338262
-0.0158763
-0.0150214
-0.0141651
0.0226845
0.0270707