/*--------------------------------*- C++ -*----------------------------------*\
| =========                 |                                                 |
| \\      /  F ield         | OpenFOAM: The Open Source CFD Toolbox           |
|  \\    /   O peration     | Version:  v2012                                 |
|   \\  /    A nd           | Website:  www.openfoam.com                      |
|    \\/     M anipulation  |                                                 |
\*---------------------------------------------------------------------------*/
FoamFile
{
    version     2.0;
    format      ascii;
    class       volScalarField;
    location    "390";
    object      k;
}
// * * * * * * * * * * * * * * * * * * * * * * * * * * * * * * * * * * * * * //

dimensions      [0 2 -2 0 0 0 0];


internalField   nonuniform List<scalar> 
18258
(
0.0336164
0.0158384
0.0123865
0.010229
0.0110151
0.014042
0.0168438
0.02122
0.0256468
0.0315827
0.0386442
0.047568
0.0535603
0.0606982
0.0636547
0.061924
0.0520333
0.0472833
0.0564565
0.080981
0.0711449
0.0514372
0.0624029
0.0615498
0.0722632
0.0763525
0.0600889
0.0548965
0.0494946
0.0438115
0.0372294
0.0229675
0.0241601
0.0289364
0.0321349
0.0358347
0.0386774
0.0409871
0.0426378
0.0434471
0.0433458
0.0420474
0.0393602
0.0353396
0.0299108
0.0239766
0.0238005
0.0235437
0.0292477
0.0349077
0.0403818
0.0459868
0.0544197
0.0445785
0.0290141
0.0391482
0.0476116
0.0545026
0.0589403
0.0614017
0.0621761
0.0612722
0.0589897
0.0557351
0.0517764
0.0474376
0.0434178
0.0394292
0.0341839
0.0309205
0.0268059
0.0234591
0.0210168
0.0193029
0.0181835
0.0171814
0.0163168
0.0155845
0.014969
0.0145468
0.0144552
0.0144806
0.0145803
0.0146763
0.0150196
0.0126698
0.0108995
0.0104319
0.0101802
0.00953481
0.00808536
0.0106416
0.0117511
0.0121687
0.0124409
0.0136148
0.014757
0.0143298
0.0136029
0.0124821
0.0126866
0.017127
0.0178643
0.0229165
0.021773
0.0170088
0.0148245
0.0166141
0.0194355
0.0224938
0.0192596
0.0192307
0.0179273
0.0170272
0.0148755
0.0149065
0.0143877
0.0140808
0.0149976
0.0177669
0.0171783
0.0172936
0.0185118
0.0188341
0.0200614
0.0210794
0.0204142
0.0202308
0.0163653
0.0162649
0.0173049
0.017178
0.0176584
0.0201651
0.0202218
0.0205642
0.0207798
0.0235729
0.0235918
0.0235589
0.0236502
0.0244913
0.0235272
0.0231137
0.023141
0.0231761
0.0210036
0.0207823
0.0204202
0.0204593
0.0182815
0.0175434
0.0182761
0.0192562
0.0212299
0.0249743
0.0314099
0.0403327
0.050428
0.0606676
0.0684365
0.0727888
0.0771534
0.0765966
0.0772971
0.0793882
0.0797568
0.0786171
0.0767654
0.0746022
0.0716485
0.0670082
0.066523
0.058883
0.0480205
0.0333537
0.03884
0.0416686
0.0444208
0.0447389
0.0452343
0.0440436
0.0423104
0.038746
0.0336636
0.0247943
0.0256914
0.0301541
0.0348337
0.0386352
0.0428118
0.0464604
0.0483297
0.0500491
0.0594433
0.0571669
0.0552483
0.0569345
0.0585034
0.0617164
0.0601558
0.0562105
0.0502327
0.051856
0.04495
0.0335744
0.0313515
0.029225
0.0269731
0.0378783
0.0496454
0.0611079
0.0673811
0.0734979
0.0782908
0.0822856
0.086783
0.081352
0.07623
0.0575877
0.0835285
0.0654757
0.0502801
0.0409841
0.0330303
0.0317248
0.0344358
0.0344552
0.0326333
0.0280994
0.022083
0.0229317
0.0359045
0.0457225
0.0537426
0.0552962
0.0599968
0.0624597
0.0571737
0.0577497
0.0469136
0.0481433
0.0514684
0.0460712
0.0437902
0.0351724
0.0274475
0.0335264
0.0498571
0.0683906
0.084195
0.0991683
0.0657148
0.049949
0.0408926
0.0340517
0.0329405
0.03758
0.0435173
0.05267
0.0411511
0.0370782
0.0335522
0.0306701
0.0258079
0.0275421
0.0287903
0.0269703
0.0498735
0.0572147
0.0608633
0.0831907
0.0920657
0.107994
0.106667
0.0922723
0.0959472
0.0687759
0.0684874
0.0857747
0.0679205
0.0511396
0.0614028
0.0743339
0.0881745
0.101355
0.112675
0.121762
0.123469
0.111991
0.0812105
0.0467671
0.0212978
0.0186586
0.0181101
0.0174007
0.0165112
0.0157052
0.0150789
0.0121231
0.00949709
0.00927965
0.00946205
0.00940815
0.00826211
0.00951636
0.0115806
0.0137723
0.01528
0.0164886
0.0175082
0.0182415
0.0188294
0.0192273
0.0195228
0.0197886
0.0200215
0.0202044
0.0203387
0.0204252
0.0204634
0.0204453
0.0203651
0.0202216
0.0200132
0.0197239
0.0192508
0.0177283
0.0158846
0.0150609
0.0151197
0.0148708
0.0145703
0.0119406
0.0123107
0.0143285
0.0149588
0.0177422
0.0197723
0.0214698
0.0229178
0.024438
0.025211
0.0260354
0.0262972
0.0263457
0.0262413
0.0260867
0.0258577
0.02555
0.0244827
0.0212617
0.0248693
0.0272691
0.028967
0.0303264
0.0312368
0.0313398
0.0285808
0.0360739
0.0385213
0.0394261
0.0396909
0.0388684
0.0368565
0.0344083
0.0323538
0.0308457
0.0297279
0.0275855
0.0253385
0.0230298
0.0206152
0.017395
0.0186667
0.0205021
0.0207117
0.0204197
0.0214649
0.0227211
0.0210636
0.0189691
0.0160903
0.0150946
0.0146098
0.0144236
0.0148373
0.0144889
0.0143817
0.0148762
0.0178758
0.0189676
0.0206659
0.0239236
0.022793
0.0208528
0.0280229
0.0296302
0.0300772
0.0304271
0.0303333
0.0295741
0.0265043
0.0250491
0.0264382
0.0249842
0.0243536
0.0244438
0.0240768
0.0222129
0.0245126
0.0265128
0.0281034
0.0289513
0.030191
0.0317462
0.0339094
0.035706
0.0373683
0.0383737
0.0383494
0.0378024
0.03797
0.0386026
0.0382667
0.0365866
0.0345127
0.0324193
0.0294509
0.0292857
0.0312614
0.0328248
0.0344848
0.0362589
0.0355875
0.0336962
0.0320688
0.0306473
0.028936
0.0288196
0.0304975
0.0319434
0.0336859
0.0358132
0.035997
0.0338464
0.0320224
0.0305146
0.0288099
0.0287799
0.0304826
0.0319991
0.0337288
0.0356244
0.0347533
0.0332763
0.0317484
0.0302769
0.0286102
0.0281744
0.0297805
0.0311664
0.0324847
0.0335548
0.0318789
0.0312853
0.0302119
0.0288199
0.0270603
0.025807
0.026316
0.0277041
0.0278155
0.0282972
0.0294179
0.0292668
0.0289845
0.0289409
0.0286592
0.0264135
0.0268205
0.0268682
0.0275594
0.0308569
0.0303745
0.033039
0.0354443
0.0331359
0.031652
0.0280937
0.0336464
0.0336849
0.0346435
0.0334681
0.0237126
0.0218623
0.0228616
0.0243896
0.0260264
0.025327
0.0225872
0.0225172
0.0231189
0.0225293
0.0209648
0.0179871
0.0135167
0.0135249
0.0135151
0.0142474
0.0170469
0.0186398
0.0187491
0.0185928
0.0182895
0.0178167
0.0170979
0.0160248
0.0156337
0.0247628
0.0450685
0.0565341
0.0558879
0.0425124
0.0356739
0.0263788
0.0183162
0.0110334
0.0107779
0.0114418
0.0137576
0.0115453
0.0108083
0.0149028
0.0120014
0.0199763
0.0230906
0.0302797
0.0414049
0.0400684
0.030515
0.0204693
0.0184064
0.019261
0.019782
0.0201693
0.0205501
0.0209348
0.0213533
0.021863
0.02154
0.0189101
0.0166715
0.0167955
0.0173668
0.0198668
0.0212479
0.0220428
0.0217144
0.0219676
0.0236742
0.0224374
0.0212139
0.021004
0.0202971
0.023132
0.0234783
0.0228549
0.0228569
0.0231334
0.0230142
0.023152
0.023956
0.019777
0.02189
0.0224399
0.0227192
0.0235087
0.0190298
0.0192205
0.0192871
0.0181417
0.0148673
0.0179786
0.0167411
0.0121497
0.0134601
0.0134275
0.0140406
0.014367
0.0171184
0.0162864
0.0155565
0.016318
0.022282
0.0230851
0.0232611
0.0206206
0.0193748
0.0218591
0.022449
0.0219955
0.021107
0.021267
0.0203237
0.0184258
0.0177079
0.0178449
0.0192516
0.0200492
0.0201205
0.0237134
0.0232088
0.0216535
0.0226326
0.0232334
0.0228219
0.0227166
0.0226653
0.0222957
0.0218748
0.0222859
0.0224709
0.0225196
0.0220773
0.022326
0.0249303
0.0214182
0.0212272
0.0201525
0.0194983
0.0178759
0.0176241
0.0177219
0.017682
0.017588
0.016752
0.0186063
0.0178805
0.0200115
0.0216206
0.0227681
0.0239349
0.024082
0.0236488
0.023606
0.0232199
0.0231832
0.0226363
0.0217941
0.0212133
0.0204452
0.019241
0.0192339
0.0191851
0.0190419
0.0204438
0.0203439
0.0219048
0.0230216
0.022734
0.0217727
0.0216625
0.0204903
0.0204664
0.0215035
0.0223876
0.0226386
0.0234915
0.0259989
0.0236851
0.025236
0.0259396
0.026601
0.0259935
0.0248982
0.0256499
0.0239905
0.0228801
0.0241968
0.0249199
0.0261818
0.0269771
0.0250003
0.0239721
0.0227753
0.0219133
0.0209297
0.01841
0.0190195
0.0198069
0.0210375
0.0228512
0.0255683
0.0282987
0.0312149
0.0312708
0.0289754
0.0272837
0.0320793
0.0315551
0.0365195
0.03712
0.0330001
0.0301996
0.0272909
0.0268624
0.0259411
0.0254051
0.0241371
0.0253833
0.0258
0.0248589
0.027324
0.0288945
0.0332241
0.0387776
0.0354395
0.0326215
0.0376867
0.0366079
0.0425573
0.0363404
0.0346906
0.0285466
0.0331575
0.0355185
0.0432452
0.0338407
0.0296623
0.0294478
0.0307768
0.038254
0.0367917
0.0393742
0.0445389
0.0438796
0.039014
0.0357806
0.0415195
0.0315643
0.0370032
0.0390131
0.0324022
0.0321569
0.0390189
0.0396391
0.0398064
0.0337364
0.0330061
0.0249937
0.0335404
0.0400098
0.0399223
0.0331511
0.0259615
0.0358486
0.0314861
0.0312816
0.031283
0.0268852
0.0268158
0.026119
0.0263723
0.0270762
0.0246515
0.0254504
0.0257069
0.0258669
0.0259956
0.0261856
0.0265279
0.0271682
0.0278848
0.0228466
0.0242757
0.0229377
0.0216141
0.0202833
0.024059
0.0265371
0.0283464
0.0298021
0.0309349
0.0314099
0.0299659
0.0379501
0.0396587
0.0412858
0.0414374
0.0402117
0.0375754
0.0341627
0.0307373
0.0286186
0.0273054
0.0248297
0.0227029
0.0206289
0.0184762
0.0156666
0.014332
0.0130215
0.0116587
0.0113419
0.010824
0.0102479
0.00960774
0.00930796
0.0116557
0.0164498
0.0271057
0.032585
0.0382613
0.0451219
0.0518078
0.0572088
0.0612281
0.064076
0.0658577
0.0663377
0.0637744
0.0529278
0.0478362
0.0428663
0.0378429
0.0327751
0.0320639
0.0411903
0.0495195
0.05657
0.062934
0.0670917
0.0654692
0.0499259
0.0466756
0.0622052
0.0896833
0.0804566
0.103401
0.119842
0.0793461
0.0647461
0.0640943
0.0795728
0.0820767
0.0754381
0.0664423
0.0565389
0.0455525
0.0506591
0.0555308
0.0601901
0.0648747
0.0780531
0.0804527
0.0792048
0.0766732
0.0733477
0.0688199
0.0621172
0.0534161
0.044092
0.0360962
0.0287752
0.0176819
0.0128904
0.0138151
0.0133234
0.01368
0.0138997
0.0101815
0.0105326
0.01074
0.0106555
0.0103768
0.0104483
0.0118496
0.0183033
0.015082
0.0137465
0.0118581
0.0145419
0.0164054
0.0181878
0.0187611
0.0189523
0.0198116
0.034775
0.0440764
0.0498442
0.0546331
0.0580174
0.0567224
0.0532318
0.047188
0.0399241
0.03722
0.0331501
0.0297613
0.0280343
0.0289823
0.0254035
0.0156654
0.0147072
0.01577
0.0154286
0.0144301
0.01639
0.0176172
0.0183979
0.0190286
0.0194989
0.0198595
0.0201156
0.020284
0.0203704
0.0203929
0.0203663
0.0202958
0.0201806
0.0200184
0.0197988
0.0194918
0.0189718
0.0172625
0.0154256
0.0147111
0.0147947
0.0145633
0.0141997
0.0123229
0.0125507
0.0144116
0.0150157
0.0146248
0.0152161
0.0156864
0.0168869
0.0190539
0.021192
0.0230318
0.0217249
0.021071
0.0210482
0.0206459
0.0175323
0.0208498
0.0236858
0.0241936
0.0244579
0.0252742
0.0268684
0.0278284
0.0268973
0.026402
0.0258761
0.0228293
0.0244705
0.0279563
0.0283662
0.0290293
0.0296195
0.0301842
0.03148
0.0308574
0.029986
0.0293995
0.0266047
0.0257356
0.0316729
0.0207451
0.014662
0.0106096
0.0109531
0.0111842
0.0108847
0.0116667
0.0122126
0.0124511
0.0117809
0.0128583
0.0137661
0.013014
0.0156169
0.0149255
0.0139298
0.0134745
0.0142327
0.0149443
0.0153256
0.0164527
0.0265745
0.0274032
0.0228684
0.0294287
0.0319867
0.029039
0.031947
0.0296192
0.0283022
0.0310966
0.0344486
0.0356402
0.0333039
0.0319501
0.0312587
0.0208508
0.020165
0.0194407
0.0175877
0.0178729
0.0174122
0.0169512
0.0165375
0.0190127
0.0204101
0.0215153
0.0212118
0.0209122
0.0205109
0.0212273
0.0255832
0.0341585
0.0437579
0.0468829
0.0456446
0.0417594
0.0349269
0.0285797
0.0281412
0.0262029
0.0249796
0.0247046
0.018726
0.014951
0.0174913
0.0173897
0.018462
0.0191397
0.0196738
0.0201
0.0204553
0.0207618
0.0210577
0.0213311
0.0215688
0.0217674
0.0219366
0.0220757
0.0222252
0.0224061
0.0226584
0.0228609
0.0212349
0.0186173
0.0172762
0.0171295
0.0178451
0.0187485
0.0198758
0.0191235
0.0154046
0.0154785
0.0219003
0.0223474
0.0209776
0.0195556
0.0197565
0.0189165
0.0227153
0.022515
0.0232987
0.0230971
0.0228213
0.0225455
0.0222707
0.0219875
0.0217102
0.0214668
0.0212442
0.0210358
0.020829
0.0206009
0.0203257
0.0199229
0.0192422
0.018451
0.0169534
0.0180604
0.0193392
0.0210013
0.0228016
0.0236832
0.0228204
0.0216218
0.0210935
0.0213094
0.021604
0.0219234
0.0222674
0.0226694
0.0230853
0.0234784
0.0234356
0.0221135
0.0227524
0.0174601
0.0183135
0.0186127
0.0185725
0.0202317
0.0193765
0.014667
0.0151832
0.0159076
0.017189
0.0197723
0.0201315
0.0214756
0.0216997
0.0173154
0.0170115
0.0165884
0.017595
0.0152316
0.0158677
0.0265958
0.0272108
0.0349605
0.0383167
0.0399247
0.0331396
0.0456072
0.0524613
0.0505828
0.0409185
0.0235148
0.0346595
0.04218
0.0488351
0.0457718
0.0356118
0.0449361
0.0473959
0.0633203
0.0589662
0.0525968
0.0633587
0.0447547
0.0269382
0.0158336
0.0164062
0.0152069
0.0306818
0.0347917
0.0314903
0.0323415
0.0399797
0.0409935
0.0362505
0.0345574
0.0363128
0.0358642
0.0398248
0.0371258
0.033742
0.0233129
0.0190358
0.0198747
0.0212831
0.0231093
0.0254526
0.0253491
0.0242054
0.0228403
0.0218656
0.0208123
0.0183152
0.017659
0.0196192
0.0212489
0.0226271
0.0241355
0.0249543
0.0257939
0.0259581
0.0258497
0.0255275
0.0251009
0.0245485
0.0238672
0.0224593
0.0236996
0.0243817
0.0245867
0.0248605
0.0251691
0.0254417
0.0255792
0.0254615
0.0245137
0.0237045
0.0225376
0.0214195
0.019813
0.0176967
0.0183778
0.0201365
0.0217365
0.0228511
0.0239017
0.0235108
0.0240007
0.0246561
0.0246832
0.0245063
0.0242856
0.0241384
0.0242337
0.0248664
0.0265715
0.0262516
0.0290405
0.0302308
0.0276647
0.0263354
0.0256443
0.0252213
0.0249795
0.0247779
0.0245845
0.0240471
0.0235028
0.0239957
0.0242427
0.0245346
0.0248878
0.0253908
0.0260804
0.0271749
0.0285845
0.0284591
0.026265
0.0261472
0.0250956
0.0243098
0.0239312
0.0238764
0.0239195
0.0240189
0.0239522
0.0234314
0.0231033
0.0235082
0.0224962
0.0225628
0.02159
0.020231
0.0187903
0.0173382
0.0166767
0.0353048
0.0352916
0.0458118
0.0424603
0.0371269
0.0471878
0.0601935
0.0521768
0.0629029
0.0666895
0.0541851
0.0503426
0.0278973
0.0244075
0.0174105
0.0189361
0.0202813
0.021486
0.0213025
0.0222244
0.0221069
0.0230757
0.0225312
0.0217425
0.0211989
0.0201819
0.0202375
0.0189658
0.0174205
0.0172873
0.018936
0.0199786
0.021159
0.0211518
0.0226143
0.0231228
0.0235279
0.0236862
0.023681
0.0237727
0.0239461
0.0243944
0.0251055
0.025567
0.0256981
0.0260898
0.0258336
0.0255111
0.0250521
0.0247405
0.0244223
0.0241443
0.0238523
0.0235782
0.0231528
0.0225013
0.0223834
0.022893
0.0232298
0.023463
0.0235992
0.0235841
0.0233967
0.0230892
0.0227823
0.0224388
0.0225009
0.0238089
0.024048
0.0241771
0.023963
0.0237905
0.0237706
0.0236462
0.0235447
0.0233075
0.0229309
0.0224535
0.0213809
0.0214859
0.0223739
0.0228257
0.0231634
0.0234508
0.0234739
0.0233904
0.0230116
0.0227158
0.0223657
0.0218068
0.0210834
0.0186541
0.0191139
0.0197315
0.0205652
0.0214039
0.0221184
0.0225726
0.0227608
0.022756
0.0225834
0.0222322
0.0214874
0.0214705
0.0220089
0.0221779
0.0221296
0.0218296
0.0212165
0.0202942
0.0190918
0.0178744
0.0168957
0.0163946
0.0156076
0.0182382
0.0192743
0.0202263
0.0210997
0.0219177
0.0227759
0.0231089
0.0231728
0.0230095
0.0227358
0.0223134
0.0215336
0.0215456
0.0222594
0.0226597
0.0228842
0.0229841
0.0227012
0.0220164
0.0204723
0.0190439
0.0178537
0.0167615
0.0156325
0.0152382
0.015739
0.015349
0.0158176
0.0169618
0.0184525
0.0198191
0.0207992
0.0213908
0.0216738
0.0217012
0.0213713
0.0211949
0.0213246
0.0211308
0.0206427
0.0197843
0.0185062
0.0170294
0.0157899
0.015383
0.0159978
0.0166434
0.0160495
0.0139202
0.0150454
0.0161393
0.017279
0.0189685
0.0210371
0.0220478
0.0225423
0.0226878
0.0225611
0.0221874
0.0215247
0.0214728
0.0221065
0.0224708
0.0225737
0.0224713
0.0220126
0.0211599
0.0186406
0.015884
0.0146398
0.0139318
0.0129893
0.0162019
0.0168907
0.0160767
0.0155414
0.0164059
0.0174653
0.0186355
0.0195325
0.0201721
0.0206679
0.0209366
0.0209603
0.0206924
0.0205824
0.0203674
0.0200247
0.0196802
0.0193254
0.0185296
0.0176878
0.0167273
0.0177919
0.0183559
0.0176073
0.0144907
0.0150569
0.0158727
0.0163743
0.0190304
0.0215108
0.0222033
0.0224141
0.0225305
0.0224052
0.0220088
0.0213872
0.0212647
0.021906
0.0223878
0.0226768
0.0229535
0.0231348
0.0232635
0.0213559
0.0180668
0.0173207
0.0156189
0.0147783
0.018165
0.0188483
0.018384
0.017826
0.0194903
0.0201917
0.0204483
0.0204507
0.0203855
0.0202943
0.0203087
0.0204164
0.0201211
0.0200035
0.0201098
0.0203247
0.0202745
0.0200446
0.0194693
0.0187043
0.0176158
0.0194534
0.0211097
0.0208475
0.0170222
0.0175593
0.0183553
0.0179138
0.0206215
0.0224937
0.0230053
0.0229869
0.0227075
0.0222535
0.0217175
0.0210771
0.0207969
0.021362
0.0219342
0.0219719
0.0220803
0.0220426
0.0214747
0.0213073
0.0207281
0.0204537
0.0196849
0.0190982
0.0183452
0.020499
0.0236992
0.025903
0.0274766
0.0293609
0.027899
0.0243772
0.0221025
0.015245
0.0152518
0.0154693
0.0148509
0.0144828
0.0143069
0.0187448
0.0214807
0.0241713
0.0259036
0.0234828
0.0234562
0.0233761
0.0232613
0.0231482
0.0230453
0.0228338
0.0235154
0.0409215
0.282668
0.208882
0.234811
0.223938
0.314643
0.0789535
0.0387701
0.0429328
0.0496497
0.0566758
0.0549436
0.0514195
0.0449444
0.0407286
0.0403455
0.0398922
0.0397045
0.038461
0.0384809
0.037693
0.0454289
0.0963459
0.124509
0.138028
0.14645
0.155345
0.150748
0.159704
0.151528
0.152019
0.153623
0.158385
0.151016
0.143708
0.13993
0.135649
0.118307
0.118642
0.100149
0.103962
0.0867742
0.0913409
0.0952535
0.0945976
0.0933868
0.0931691
0.0934511
0.0942758
0.0979207
0.0932052
0.0988799
0.0913254
0.0727517
0.0701902
0.0719996
0.0662283
0.0579424
0.065376
0.0801945
0.0958291
0.112784
0.0966923
0.121039
0.114965
0.116003
0.11019
0.103756
0.0999268
0.0991547
0.0997524
0.100875
0.103526
0.105472
0.107087
0.110021
0.118621
0.120995
0.119606
0.102021
0.0865896
0.0950631
0.0999051
0.103546
0.103778
0.0989545
0.0968423
0.090706
0.0891379
0.0836208
0.0809944
0.0755553
0.0722163
0.0674175
0.0839607
0.0820919
0.0890994
0.0954135
0.0996595
0.103358
0.104977
0.106302
0.10514
0.10278
0.0977583
0.0956275
0.0907907
0.109403
0.127919
0.130654
0.125969
0.112414
0.106731
0.340538
0.412997
0.414423
0.615162
0.657177
0.849869
0.336995
0.180187
0.192835
0.189519
0.181311
0.178127
0.177936
0.189721
0.198717
0.189543
0.200291
0.177406
0.174405
0.166085
0.191269
0.188579
0.169418
0.148098
0.115707
0.0948777
0.0939413
0.0788584
0.0799714
0.0705655
0.0718301
0.073734
0.0915029
0.171777
0.210229
0.236931
0.263388
0.324016
0.293539
0.443312
0.354682
0.440072
0.303716
0.328714
0.3144
0.305595
0.303628
0.319729
0.342656
0.301196
0.37472
0.300108
0.649298
0.786309
0.496999
0.459886
0.407744
0.393537
0.383616
0.378052
0.370003
0.487607
0.451851
0.553805
0.513454
0.642174
0.561045
0.564864
0.530928
0.566655
0.584524
0.597857
0.477564
0.518902
0.404703
0.438266
0.368958
0.405252
0.291098
0.291776
0.334982
0.372109
0.398195
0.455458
0.715842
0.607435
0.819259
0.586283
0.708394
0.49199
0.539607
0.515292
0.497679
0.499455
0.527665
0.631935
0.610924
0.698362
0.514723
0.526979
0.516721
0.53405
0.523491
0.5584
0.563089
0.564276
0.562269
0.523425
0.534022
0.532194
0.53197
0.53199
0.532339
0.509586
0.512771
0.505229
0.511011
0.52691
0.514602
0.514514
0.512373
0.504798
0.502743
0.502257
0.504017
0.503784
0.508918
0.508787
0.509128
0.512186
0.526897
0.514424
1.82515
0.903952
0.431597
0.34123
0.220999
0.13559
0.0560533
0.0605634
0.0635522
0.0645354
0.062533
0.0571711
0.0489918
0.038984
0.0311867
0.0303627
0.0270552
0.0264726
0.0343132
0.0419906
0.0384024
0.0462144
0.0539183
0.0622478
0.070261
0.077255
0.083174
0.0861131
0.0830936
0.0703854
0.0527172
0.0353263
0.0250695
0.0226679
0.0210227
0.0190234
0.0169132
0.0152622
0.0142539
0.0130781
0.0124429
0.0123523
0.0125688
0.0128073
0.0132448
0.0147584
0.0160571
0.0172406
0.0182008
0.0184453
0.017934
0.0184752
0.0190686
0.0194608
0.0198018
0.0196322
0.0196275
0.0198736
0.0198333
0.0200365
0.0199366
0.0199387
0.0197973
0.0196234
0.019397
0.0189603
0.0186825
0.0181225
0.0177756
0.0169425
0.0169778
0.017377
0.0177034
0.0167056
0.0166503
0.0159001
0.0267565
0.0478797
0.0610818
0.0661003
0.0713941
0.067372
0.0570008
0.0390126
0.0191459
0.018775
0.0192526
0.0217527
0.0212738
0.0173993
0.0181899
0.0187641
0.0175613
0.0174817
0.0175136
0.0195558
0.0201543
0.0215261
0.0220234
0.0224083
0.0226296
0.0225929
0.0226877
0.0224133
0.022413
0.0220301
0.0220121
0.0216944
0.0214613
0.021754
0.0224576
0.0225336
0.0231775
0.0228768
0.0225764
0.0220126
0.021602
0.0207466
0.0198167
0.0187979
0.017252
0.0168019
0.0173156
0.0178099
0.0173464
0.0187562
0.0200381
0.0197196
0.0243609
0.0226431
0.0201997
0.0226678
0.0184628
0.0186455
0.0181296
0.0170481
0.0175996
0.0171059
0.0170382
0.0173399
0.0176365
0.0187987
0.0197699
0.0204145
0.0212851
0.0219329
0.0226501
0.0238576
0.0241624
0.0231792
0.0229961
0.0217965
0.0211095
0.0207865
0.0217221
0.0230273
0.0229355
0.0238256
0.0235722
0.0223183
0.0215029
0.0206451
0.0196577
0.0189911
0.018202
0.0174558
0.0170333
0.0162069
0.016297
0.0152021
0.0167773
0.0172639
0.0195131
0.0174478
0.016923
0.0224498
0.028347
0.0442391
0.0322898
0.0213728
0.023329
0.03163
0.0394177
0.0278058
0.0273976
0.0153394
0.0179828
0.0151939
0.0155005
0.0165661
0.0168574
0.0180552
0.0191225
0.0193622
0.0201152
0.0204625
0.0212335
0.0214931
0.0222322
0.0224278
0.0237121
0.0237827
0.0238512
0.0238304
0.0230319
0.0229591
0.0229786
0.023433
0.0232126
0.0239071
0.0239336
0.024017
0.0239451
0.022592
0.0222657
0.0214907
0.020972
0.0200648
0.0195092
0.0187882
0.0184006
0.0177548
0.0180739
0.0187984
0.0189927
0.0199402
0.0199598
0.0207049
0.0209145
0.021384
0.021519
0.0221881
0.0223294
0.0225994
0.0226568
0.0238788
0.0239957
0.0240361
0.0240016
0.0240129
0.02424
0.0242392
0.0241817
0.0241672
0.0240811
0.0239212
0.0237585
0.0248259
0.0255017
0.0250372
0.0247968
0.0250622
0.02592
0.0264726
0.0275701
0.0284265
0.0295051
0.0303973
0.031223
0.0318948
0.032371
0.0324852
0.0325164
0.0320564
0.0316777
0.0333638
0.0398646
0.0430916
0.048365
0.0507421
0.0526993
0.0533956
0.0522522
0.0529823
0.0517165
0.0519814
0.0508029
0.0503826
0.0495769
0.0485847
0.0478761
0.046422
0.0456981
0.0503136
0.056979
0.0571068
0.0500045
0.0470684
0.0429105
0.0375317
0.0392973
0.0459049
0.0413399
0.0387638
0.0360213
0.031076
0.0239833
0.0178443
0.0255145
0.0332875
0.0405511
0.0473475
0.0533521
0.0572502
0.0593903
0.060937
0.0626385
0.0606181
0.0531784
0.0415802
0.0317554
0.0278945
0.0263456
0.0238987
0.0204522
0.0185593
0.017482
0.0163239
0.0149702
0.0141079
0.0138624
0.0141015
0.0142169
0.0155644
0.0168262
0.0168194
0.017999
0.0178232
0.0183335
0.018923
0.0193223
0.0199881
0.0199541
0.018991
0.0193373
0.0195996
0.0202755
0.020173
0.0203386
0.0201189
0.0193992
0.018884
0.018285
0.0177688
0.0173115
0.0167398
0.0160255
0.0160129
0.0162074
0.0157659
0.0161784
0.0166193
0.017025
0.0176509
0.0185581
0.0193168
0.0211498
0.0212922
0.021044
0.0211328
0.019704
0.0196437
0.0186683
0.018437
0.0200343
0.0198789
0.0182038
0.0196011
0.0196017
0.0213833
0.0213852
0.0207094
0.0209022
0.0207855
0.0189562
0.0180657
0.0169984
0.0162202
0.0156317
0.0152302
0.0147602
0.0153788
0.0141789
0.0136064
0.0140624
0.0140401
0.0141083
0.0144983
0.0149286
0.0156731
0.0163774
0.0174224
0.0180606
0.0189587
0.019292
0.0212033
0.0211142
0.0209872
0.021019
0.0211594
0.0216117
0.0208192
0.0207809
0.0209172
0.0209318
0.0209534
0.020936
0.0190948
0.0188914
0.0180563
0.0177388
0.016808
0.0164494
0.0157933
0.0154785
0.0150871
0.014889
0.023264
0.0254591
0.0256195
0.0397601
0.0199781
0.0199581
0.0343101
0.0173408
0.0230533
0.0236047
0.0246852
0.0259055
0.0225449
0.0307132
0.0212071
0.0233276
0.0240643
0.025232
0.0128238
0.0195408
0.0370572
0.0424134
0.043748
0.048713
0.0554257
0.0586491
0.0616993
0.0637432
0.0660141
0.0684738
0.0708868
0.0726415
0.0728039
0.0691324
0.066081
0.0565894
0.0527686
0.0565196
0.0609572
0.0474536
0.042654
0.0432025
0.0436743
0.0442099
0.0444208
0.0451107
0.044917
0.0459166
0.0451818
0.0462889
0.0451413
0.046169
0.0449247
0.0421799
0.0389456
0.0327212
0.0307349
0.0296224
0.0268979
0.0243858
0.022125
0.0202886
0.0198513
0.0182778
0.0168636
0.0165629
0.0152723
0.0155246
0.0167448
0.0198782
0.016827
0.0176753
0.0260273
0.0191535
0.0180518
0.0186032
0.0191242
0.0193619
0.0182554
0.01989
0.0221701
0.0221601
0.0222218
0.0222295
0.0214208
0.0212557
0.0209823
0.0210386
0.021071
0.0211933
0.0211611
0.0193344
0.0192779
0.0190046
0.0188665
0.0180774
0.0179101
0.0173267
0.0169966
0.0161562
0.0158624
0.0154129
0.0154679
0.0166213
0.0204701
0.029934
0.0173122
0.0179704
0.0155562
0.0139588
0.0265991
0.0247476
0.0286023
0.0267577
0.0393873
0.0264073
0.0231701
0.0241776
0.0296922
0.0296352
0.0325786
0.0423341
0.032985
0.0281677
0.0730409
0.0531882
0.0332023
0.0461527
0.0581109
0.108864
0.127435
0.0559429
0.0564708
0.0621668
0.063069
0.0629484
0.0533467
0.0491719
0.0413326
0.0318153
0.0128826
0.0249033
0.0321478
0.0426734
0.0569799
0.0920066
0.0528704
0.0597033
0.0656658
0.0647476
0.0678519
0.0659985
0.0646138
0.0655586
0.102662
0.111625
0.107648
0.0862324
0.0809207
0.0740043
0.12409
0.139142
0.119955
0.130046
0.135815
0.0814046
0.0302865
0.0249276
0.0238093
0.0263847
0.0253307
0.0459848
0.0205749
0.0218078
0.0226395
0.0271444
0.0301731
0.0529023
0.0232447
0.0254515
0.0324026
0.0348861
0.0459721
0.0274416
0.0280962
0.0344318
0.0362255
0.0395431
0.0336436
0.0317463
0.0287071
0.0259021
0.0244053
0.0254528
0.0318409
0.046323
0.0278668
0.028295
0.0300588
0.133627
0.0307255
0.0266345
0.0276964
0.0267015
0.0336482
0.035093
0.111198
0.0354578
0.0166942
0.0154523
0.0159262
0.016737
0.0173748
0.0179927
0.0184379
0.0190784
0.0194727
0.0196257
0.019794
0.0221754
0.0220764
0.0216096
0.0210656
0.0218593
0.0211649
0.0212138
0.0218307
0.0212966
0.0214424
0.0224964
0.0236728
0.023185
0.0237517
0.0251027
0.0239391
0.0222333
0.0220279
0.0221489
0.0228563
0.0239952
0.022802
0.023454
0.0226349
0.0235561
0.0236669
0.0203627
0.0199949
0.0197913
0.0192875
0.0186139
0.0179896
0.0173177
0.0166678
0.0161651
0.0160892
0.0165911
0.0151862
0.0155848
0.0179334
0.0393861
0.0324203
0.0265416
0.0222285
0.0195657
0.0184134
0.0182946
0.0187395
0.0193925
0.0199553
0.0201642
0.0207496
0.0246342
0.0245743
0.02578
0.024644
0.0259825
0.0249276
0.0236037
0.0227335
0.023943
0.0232487
0.0237399
0.0253623
0.0262109
0.0238451
0.0241167
0.0215226
0.0201087
0.0184898
0.0188318
0.0202848
0.0209604
0.023402
0.0234814
0.0269235
0.0269013
0.0267519
0.02551
0.024834
0.026282
0.0247923
0.0259422
0.0248292
0.0262331
0.0274169
0.0277606
0.0270548
0.026202
0.0253266
0.0210481
0.0202591
0.0199527
0.0194592
0.0191978
0.0201112
0.0243481
0.0335242
0.0456036
0.0577212
0.0671551
0.0666587
0.0600585
0.0406649
0.0417245
0.0386877
0.0421927
0.0600202
0.0857876
0.060105
0.114251
0.0885476
0.0525505
0.0628489
0.0748462
0.0840093
0.0899205
0.0908726
0.0773332
0.0568928
0.0499418
0.0523763
0.0847399
0.0834605
0.0824815
0.0780263
0.0825252
0.0804117
0.0777433
0.0761828
0.0744063
0.0701518
0.0701313
0.0674386
0.0674056
0.0602602
0.0614452
0.0616784
0.0591036
0.0563545
0.0540669
0.0518758
0.0495512
0.045655
0.0443747
0.0418961
0.0401525
0.0367917
0.036255
0.0357713
0.0335964
0.0320435
0.0307897
0.029528
0.0278245
0.0279856
0.0263946
0.0262375
0.021378
0.0209988
0.0199824
0.0196478
0.0193964
0.0195881
0.020819
0.0234817
0.0435482
0.033094
0.0329584
0.0335214
0.0337204
0.0396409
0.046423
0.0706436
0.065363
0.0719274
0.0614987
0.0639473
0.0631572
0.0627773
0.0655026
0.0690939
0.0744388
0.0869296
0.333692
0.513805
0.253342
0.23729
0.246895
0.251772
0.259181
0.339285
0.360207
0.356173
0.360706
0.330576
0.31839
0.196635
0.226045
0.238118
0.236995
0.223859
0.202183
0.392838
0.522658
0.518788
0.523657
0.523769
0.518766
0.522603
0.502912
0.514274
0.501758
0.515028
0.502299
0.521671
0.518931
0.504364
0.501137
0.501157
0.500916
0.501379
0.501556
0.504894
0.506055
0.506107
0.505102
0.504114
0.514524
0.436701
0.122258
0.0849787
0.141171
0.196162
0.160549
0.232609
0.267459
0.192747
0.109517
0.0892602
0.100688
0.124003
0.125551
0.152596
0.199826
0.187151
0.152744
0.153745
0.154185
0.199333
0.191009
0.217305
0.259666
0.253029
0.188348
0.149902
0.148943
0.227043
0.242006
0.237255
0.122633
0.0439359
0.0218004
0.0227011
0.0326733
0.0165196
0.0168285
0.0220807
0.0576669
0.0963457
0.0497059
0.135831
0.137771
0.182008
0.147427
0.178376
0.115503
0.118877
0.0676234
0.0796404
0.0895932
0.095358
0.0996542
0.0936763
0.216381
0.319372
0.190458
0.560978
0.537997
0.196068
0.217217
0.576027
0.513011
0.503524
0.501784
0.501698
0.501859
0.501816
0.500969
0.500915
0.500728
0.500765
0.500716
0.501163
0.504767
0.520395
0.514608
0.50524
0.501385
0.500824
0.500799
0.50069
0.50073
0.50075
0.500807
0.501017
0.501049
0.501151
0.50167
0.503942
0.512029
0.435743
0.170015
0.182439
0.406208
0.361965
0.511503
0.504622
0.501369
0.500942
0.500855
0.500829
0.500794
0.500969
0.50089
0.501397
0.501231
0.501287
0.502777
0.508259
0.506397
0.443357
0.369586
0.417327
0.330177
0.506673
0.507778
0.503277
0.5029
0.503246
0.503414
0.501514
0.501527
0.500992
0.50106
0.500893
0.50134
0.504756
0.511015
0.346127
0.171
0.177907
0.258246
0.087968
0.0908864
0.0928046
0.0948886
0.247181
0.441538
0.555642
0.47128
0.475383
0.542291
0.385701
0.364479
0.294151
0.317773
0.402121
0.347426
0.312963
0.250458
0.288766
0.247913
0.303718
0.218067
0.234361
0.221914
0.283265
0.287152
0.287515
0.226914
0.216754
0.271851
0.28614
0.317149
0.218957
0.259235
0.203468
0.192525
0.087188
0.0893573
0.0812324
0.0712728
0.0710339
0.0791824
0.0776287
0.0838284
0.0808305
0.0845438
0.0816746
0.0796425
0.0728228
0.0748487
0.0686195
0.0712688
0.13037
0.166584
0.150477
0.151897
0.179662
0.131104
0.157488
0.153536
0.197652
0.248071
0.226634
0.291574
0.22512
0.275688
0.405756
0.754438
0.438302
0.244455
0.318243
0.34032
0.288847
0.189693
0.449757
0.538809
0.298225
0.360519
1.19672
1.04406
1.78168
0.992687
1.11905
0.670889
0.597846
1.02884
0.653848
0.666242
0.559752
0.573576
0.499233
0.32435
0.323809
0.305676
0.241905
0.280598
0.271305
0.266863
0.296438
0.261534
0.316574
0.352379
0.39706
0.322707
0.285494
0.366813
0.21563
0.290625
0.346219
0.315568
0.259671
0.337837
0.449804
0.420954
0.362214
0.398985
0.509353
0.563128
0.53215
0.451437
0.512505
1.00637
0.962878
0.93079
0.590442
1.93393
1.7184
0.352729
0.137421
0.0957376
0.0362244
0.0224298
0.0182643
0.0178729
0.0488254
0.0195391
0.0235194
0.0211696
0.0299774
0.0272959
0.0315516
0.0553517
0.0375532
0.052728
0.0391239
0.0519978
0.0413969
0.0569107
0.0611137
0.0643536
0.0520421
0.0410308
0.0620029
0.0827566
0.0387248
0.0996543
0.105308
0.0680323
0.0827414
0.10216
0.0528697
0.164829
0.0571721
0.0568124
0.0675684
0.126742
0.251498
0.0854473
0.112056
0.585637
1.53017
0.51015
0.20131
0.164138
0.0413628
0.0358958
0.0292205
0.0355103
0.031324