/*--------------------------------*- C++ -*----------------------------------*\
| =========                 |                                                 |
| \\      /  F ield         | OpenFOAM: The Open Source CFD Toolbox           |
|  \\    /   O peration     | Version:  v2012                                 |
|   \\  /    A nd           | Website:  www.openfoam.com                      |
|    \\/     M anipulation  |                                                 |
\*---------------------------------------------------------------------------*/
FoamFile
{
    version     2.0;
    format      ascii;
    class       volScalarField;
    location    "355";
    object      k;
}
// * * * * * * * * * * * * * * * * * * * * * * * * * * * * * * * * * * * * * //

dimensions      [0 2 -2 0 0 0 0];


internalField   nonuniform List<scalar> 
18258
(
0.0334607
0.01577
0.0123332
0.0101876
0.010989
0.0139947
0.0167894
0.0211498
0.0255627
0.0314928
0.038554
0.0474816
0.0534811
0.0606324
0.0636176
0.0619269
0.0520892
0.0473507
0.0567367
0.0811509
0.0709236
0.0513494
0.0620791
0.061496
0.0727579
0.0770753
0.0607119
0.0553363
0.0498694
0.0441743
0.0376902
0.0237858
0.0240326
0.0286972
0.0320102
0.0357728
0.0386838
0.0410845
0.0426967
0.0435019
0.0434015
0.0420927
0.0393863
0.0352638
0.0297129
0.0235886
0.022538
0.0244104
0.0302035
0.0355341
0.0408498
0.046376
0.0547469
0.044769
0.0290702
0.0392759
0.047767
0.0546519
0.0590638
0.0614964
0.0622438
0.0613159
0.059013
0.0557422
0.051772
0.0474267
0.0434056
0.0394186
0.0341749
0.0309143
0.0268049
0.0234626
0.0210242
0.0193134
0.0181959
0.0171928
0.0163274
0.0155944
0.0149787
0.0145555
0.0144646
0.0144916
0.0145929
0.0146905
0.0150369
0.0126903
0.0109188
0.010452
0.0101987
0.00954964
0.00809407
0.0106483
0.0117546
0.0121706
0.0124396
0.013616
0.0147593
0.0143272
0.0136018
0.0124876
0.0125849
0.0170545
0.0178118
0.0228454
0.0216809
0.0168651
0.0148428
0.0166281
0.0194551
0.022507
0.0192589
0.0192365
0.0179381
0.0170307
0.0148832
0.0149212
0.0144067
0.014099
0.01502
0.0177805
0.0171913
0.0173034
0.018525
0.0188468
0.0200726
0.0210849
0.0204224
0.0202377
0.0163825
0.0162818
0.0173207
0.0171938
0.0176741
0.0201707
0.0202277
0.0205716
0.0207878
0.0235701
0.0235886
0.023552
0.023643
0.0244758
0.0235186
0.0231072
0.0231374
0.0231731
0.02101
0.0207882
0.0204253
0.020464
0.0182957
0.0175586
0.0182898
0.0192692
0.021243
0.0249906
0.0314231
0.040341
0.0504319
0.0606695
0.0684393
0.0727993
0.0771685
0.0766407
0.0773519
0.0794641
0.0798464
0.0787158
0.0768716
0.074715
0.0717731
0.0671549
0.0667052
0.0590752
0.0481922
0.0334628
0.0389885
0.0418503
0.0446221
0.0449217
0.045394
0.044155
0.0423523
0.0387322
0.033561
0.024653
0.0261358
0.0305614
0.0351815
0.038938
0.0430764
0.0466295
0.0483596
0.0499679
0.0591682
0.0571086
0.0552809
0.0571435
0.0586606
0.0618115
0.0601525
0.0562506
0.0504938
0.0521663
0.0453676
0.0340819
0.0318689
0.0297623
0.0272246
0.037742
0.0496138
0.0614313
0.0679088
0.0741205
0.0790174
0.0830689
0.0876036
0.0821107
0.0768984
0.0580314
0.0843451
0.0663529
0.0510921
0.0418819
0.0341741
0.0300114
0.0333395
0.0337121
0.0320613
0.0274134
0.0218197
0.0233592
0.036053
0.045859
0.0539397
0.0555781
0.0603082
0.062739
0.0573835
0.0579767
0.0469862
0.0481345
0.0518072
0.0466479
0.0442647
0.0356764
0.0279442
0.0337898
0.05034
0.0690597
0.0851519
0.100187
0.0667178
0.0508393
0.0417325
0.0349804
0.0335591
0.0381216
0.0440785
0.053269
0.0413092
0.0372961
0.0338285
0.0309951
0.0254122
0.0272001
0.0282917
0.0267685
0.05
0.0583337
0.0618599
0.0840762
0.0924649
0.108381
0.107417
0.0928115
0.0962263
0.0689415
0.0689347
0.0865476
0.0684476
0.0514257
0.0616418
0.0744812
0.0882778
0.101454
0.112796
0.121917
0.123598
0.112098
0.0812588
0.0467827
0.0212892
0.0186409
0.0180875
0.0173796
0.016493
0.0156978
0.0150807
0.0121357
0.00950277
0.00927773
0.00945796
0.0094034
0.00826314
0.00951262
0.0115734
0.0137651
0.0152728
0.0164815
0.0175011
0.0182345
0.0188226
0.0192209
0.0195177
0.0197848
0.0200193
0.020204
0.0203404
0.0204295
0.0204707
0.0204562
0.0203796
0.0202397
0.0200345
0.0197478
0.0192765
0.0177517
0.0158989
0.015068
0.0151264
0.0148766
0.014574
0.0119412
0.0123165
0.0143325
0.0149655
0.017757
0.019793
0.0214962
0.02295
0.0244768
0.0252543
0.0260852
0.0263535
0.0264092
0.0263128
0.0261678
0.0259501
0.025657
0.0246021
0.0212958
0.024897
0.0272934
0.0289781
0.0303282
0.0312302
0.0313385
0.0286061
0.0360348
0.0385152
0.039422
0.0396811
0.0388582
0.036854
0.0344179
0.0323732
0.0308678
0.0297519
0.027614
0.0253675
0.0230576
0.0206407
0.0174159
0.0186835
0.0205236
0.0207342
0.0204439
0.0214932
0.0227526
0.0210971
0.0190078
0.016122
0.0151222
0.0146275
0.0144328
0.0148351
0.0144978
0.0144022
0.0149045
0.0179165
0.0190096
0.0207138
0.0239725
0.0228355
0.0208876
0.0280637
0.0296818
0.0301346
0.0304832
0.0303891
0.0296342
0.0265422
0.025085
0.0264724
0.0250158
0.0243824
0.0244699
0.0241021
0.0222348
0.0245375
0.0265393
0.028129
0.0289756
0.0302183
0.0317715
0.033931
0.0357219
0.0373798
0.0383893
0.0383827
0.0378674
0.0380624
0.0387341
0.0384652
0.0367629
0.0346843
0.0325905
0.0296305
0.0294116
0.0313864
0.0329481
0.0346088
0.0363837
0.0356796
0.0337954
0.0321702
0.0307505
0.0290391
0.0289077
0.0305841
0.0320268
0.0337623
0.0358751
0.0360377
0.0339042
0.0320904
0.0305883
0.0288863
0.0288468
0.0305458
0.0320554
0.0337745
0.0356545
0.0347809
0.0333159
0.0317971
0.0303321
0.0286691
0.0282267
0.0298298
0.0312104
0.0325217
0.0335834
0.0319094
0.0313219
0.0302531
0.0288647
0.0271061
0.0258493
0.0263585
0.0277475
0.0278582
0.0283361
0.0294539
0.0292993
0.0290159
0.0289688
0.0286869
0.0264405
0.0268481
0.0268988
0.027592
0.0308964
0.0304174
0.0330955
0.0355152
0.0332017
0.0317063
0.0281296
0.033709
0.0337533
0.0347153
0.0335381
0.0237545
0.0218968
0.0228948
0.0244315
0.0260764
0.0253886
0.0226339
0.0225754
0.0231872
0.0226026
0.0210411
0.0180508
0.0135551
0.0135651
0.013558
0.0142947
0.0171042
0.0186953
0.0188003
0.0186393
0.0183312
0.0178537
0.0171307
0.0160521
0.0155996
0.0246095
0.0446462
0.0564124
0.0558065
0.0424349
0.0355769
0.0263016
0.0182565
0.0109924
0.0107131
0.0113915
0.0136976
0.0114657
0.0107733
0.0148469
0.011963
0.0199199
0.0230305
0.0303082
0.0413432
0.0399067
0.0302853
0.0204153
0.0184264
0.0192942
0.0198152
0.0202083
0.0205949
0.0209858
0.0214112
0.0219295
0.0216157
0.0189733
0.0167271
0.0168539
0.0174261
0.0199349
0.0213156
0.0221072
0.0217691
0.0220115
0.0237334
0.0224862
0.0212657
0.0210629
0.0203595
0.0232079
0.0235508
0.0229141
0.0229174
0.0231914
0.0230757
0.0232117
0.024019
0.0198237
0.0219391
0.0224897
0.0227721
0.0235677
0.0190633
0.0192547
0.0193212
0.0181687
0.014936
0.0180268
0.0167843
0.0121744
0.0134894
0.0134461
0.0140546
0.0143779
0.0171188
0.016284
0.0155686
0.0163469
0.0223256
0.0231276
0.0233035
0.0206562
0.01941
0.0219072
0.0224987
0.0220426
0.0211519
0.021315
0.0203671
0.0184566
0.017736
0.0178732
0.0192902
0.0200919
0.020163
0.0237829
0.0232765
0.0217072
0.0227026
0.0233016
0.022887
0.0227758
0.02272
0.0223507
0.0219238
0.0223363
0.0225264
0.0225796
0.0221348
0.0223908
0.0250427
0.0214535
0.0212653
0.0201843
0.0195264
0.0178946
0.0176388
0.0177369
0.017697
0.0176026
0.0167649
0.0186247
0.0178993
0.0200327
0.0216481
0.0228016
0.023977
0.0241286
0.0236971
0.0236575
0.0232705
0.0232365
0.022684
0.021836
0.0212509
0.0204708
0.0192609
0.0192534
0.0192043
0.0190606
0.0204676
0.0203669
0.0219356
0.0230598
0.0227731
0.0218043
0.0216951
0.0205152
0.0204917
0.0215359
0.0224283
0.0226797
0.0235489
0.0261033
0.0237356
0.0252928
0.0259857
0.0266529
0.026038
0.0249358
0.0256887
0.0240257
0.0229126
0.0242352
0.0249594
0.0262229
0.027017
0.0250388
0.0240108
0.0228118
0.0219472
0.0209575
0.0184319
0.0190483
0.0198407
0.0210741
0.022888
0.0256158
0.0283558
0.0312864
0.0313445
0.029038
0.0273427
0.0321583
0.0316237
0.0366077
0.037218
0.0330811
0.0302648
0.0273457
0.0269236
0.0260023
0.0254659
0.0241807
0.0254307
0.0258597
0.0249128
0.0273907
0.028969
0.0333063
0.0388894
0.0355566
0.0327102
0.037755
0.0366576
0.0426422
0.0364168
0.0347482
0.0286115
0.0332099
0.0355561
0.0433269
0.0339124
0.0297224
0.0294891
0.0308048
0.038303
0.0368496
0.0394622
0.0446163
0.0439551
0.0390581
0.0358233
0.0416098
0.0316404
0.0370671
0.0390832
0.0324422
0.0322134
0.0391063
0.0397264
0.0398821
0.0337788
0.0330624
0.0250408
0.033618
0.0401106
0.0400226
0.0332276
0.0259957
0.0359268
0.0315605
0.0313688
0.0313634
0.0269637
0.0268968
0.0261841
0.0264418
0.027163
0.0247038
0.0255186
0.0257876
0.0259605
0.0261033
0.0263096
0.0266715
0.0273399
0.0281165
0.0229384
0.0244125
0.0230018
0.0216191
0.020227
0.024011
0.0264852
0.0282893
0.0297418
0.0308814
0.0313802
0.0300339
0.0379486
0.0395892
0.0412966
0.0414528
0.0401856
0.0374767
0.0339978
0.0304724
0.028171
0.0268522
0.0243285
0.0222514
0.0202356
0.0181329
0.0153962
0.0141128
0.0127879
0.0114453
0.0110677
0.0104963
0.00985988
0.00910426
0.00858925
0.0111302
0.0202754
0.028468
0.0334534
0.0388104
0.0454377
0.0517656
0.0568673
0.0606858
0.06345
0.065228
0.0657125
0.0632059
0.0531313
0.0482276
0.0434397
0.0385296
0.0334253
0.0323461
0.041505
0.0497339
0.0566542
0.0628892
0.0669418
0.0653091
0.0497737
0.0469197
0.0627871
0.0902652
0.0811846
0.104146
0.120246
0.0799194
0.0650522
0.0641216
0.0793916
0.0818278
0.0753016
0.0664847
0.0567932
0.0460098
0.051098
0.0558499
0.0602799
0.0647446
0.0770079
0.0793918
0.078189
0.0756187
0.0723527
0.0681102
0.0618432
0.0536257
0.0446879
0.037083
0.0302593
0.0209609
0.0119435
0.0141109
0.0133434
0.0169614
0.0154876
0.00971425
0.00979067
0.00995945
0.00985554
0.00965704
0.00963086
0.0110267
0.0179235
0.014586
0.0131197
0.0112615
0.014204
0.0160813
0.0180643
0.0185852
0.0186099
0.0199081
0.0368348
0.0444083
0.0497914
0.0544048
0.0571782
0.0558681
0.0525923
0.0468762
0.0404682
0.0378061
0.0339231
0.0303957
0.0285404
0.0292994
0.0258051
0.0163086
0.0146832
0.0157028
0.0154383
0.0144618
0.0163856
0.0175861
0.0183434
0.0189531
0.0194064
0.0197522
0.0199965
0.0201564
0.020238
0.0202593
0.0202346
0.0201691
0.0200612
0.0199076
0.0196968
0.0193983
0.0188868
0.0171922
0.0153656
0.0146613
0.014746
0.0145167
0.0141562
0.0122829
0.0125038
0.0143623
0.0149597
0.0145669
0.0151437
0.0156029
0.0167923
0.0189663
0.0210997
0.0229271
0.0216316
0.0209918
0.0209566
0.0205463
0.0173533
0.0206076
0.0235462
0.0240681
0.0243446
0.0251503
0.0267374
0.0276833
0.0267525
0.0262427
0.0257059
0.0225369
0.0241079
0.0277361
0.0281572
0.0288504
0.0294561
0.0300325
0.0313012
0.03066
0.0297375
0.0291243
0.0261786
0.0253154
0.0317329
0.0205014
0.0139648
0.00995782
0.0106664
0.0107797
0.0103358
0.0110086
0.0114767
0.0116814
0.0111428
0.0122344
0.0131529
0.0125145
0.0152078
0.0144301
0.0133006
0.0128167
0.0138073
0.0147424
0.0151988
0.0161444
0.0261018
0.0267667
0.0224935
0.0288094
0.0314232
0.0289058
0.0316818
0.0293288
0.0278668
0.0306007
0.0341031
0.035532
0.0331973
0.0316935
0.0311989
0.0207308
0.0200349
0.0193428
0.0174834
0.0176641
0.0171555
0.0166995
0.0162873
0.0188073
0.0201751
0.0213078
0.0209993
0.0206469
0.0201733
0.0214819
0.0265712
0.0366414
0.0440587
0.0464197
0.0450972
0.0415149
0.0351931
0.0294888
0.0288786
0.0268992
0.0255015
0.0251373
0.019279
0.015029
0.0173345
0.0173577
0.0184031
0.0190564
0.0195658
0.0199697
0.0203039
0.0205891
0.020863
0.0211246
0.0213572
0.0215573
0.0217333
0.0218829
0.0220446
0.0222378
0.0225024
0.0227193
0.0211264
0.0185285
0.0172
0.0170539
0.0177666
0.0186638
0.0197871
0.0190496
0.0153447
0.0154269
0.0218231
0.0222487
0.0208776
0.0194625
0.0196704
0.0188317
0.0225995
0.0223963
0.0231421
0.0229206
0.022626
0.0223311
0.0220372
0.0217379
0.0214627
0.0212248
0.0210132
0.0208205
0.0206329
0.0204409
0.0201711
0.0197653
0.0190998
0.0182927
0.0170719
0.0183631
0.0192007
0.020789
0.0228342
0.0239568
0.0230827
0.0216906
0.020927
0.0210247
0.0213212
0.021659
0.0220237
0.0224428
0.0228819
0.0232965
0.0232774
0.0219845
0.0226226
0.0173727
0.0182282
0.0185263
0.0184814
0.0201507
0.0193139
0.0146273
0.015112
0.0158153
0.017094
0.019667
0.0200172
0.0213503
0.0215727
0.0172238
0.0169088
0.0164851
0.0175003
0.0151361
0.0157707
0.0264484
0.0270599
0.0347915
0.0381477
0.0397427
0.0330055
0.0454362
0.0522558
0.0503694
0.0407672
0.0234224
0.0345213
0.0420283
0.0486562
0.045595
0.0354489
0.0447215
0.0472058
0.0629641
0.0585933
0.0522453
0.0629692
0.044552
0.026809
0.0157663
0.0163401
0.0151609
0.0305586
0.0346446
0.0313432
0.0321842
0.0397877
0.0408022
0.0360799
0.0343984
0.0361516
0.0357026
0.0396314
0.0369396
0.0335812
0.0232058
0.018943
0.0197756
0.0211769
0.0230032
0.0253355
0.0252299
0.0240891
0.022733
0.0217631
0.0207203
0.0182343
0.017588
0.019538
0.0211603
0.0225334
0.0240384
0.0248578
0.025697
0.0258636
0.0257584
0.0254382
0.0250115
0.0244576
0.0237747
0.0223709
0.0235743
0.0242388
0.0244476
0.0247274
0.0250413
0.0253187
0.0254628
0.0253529
0.0244102
0.0236051
0.0224449
0.0213337
0.0197359
0.0176295
0.0183099
0.0200603
0.0216508
0.0227572
0.0238004
0.0234082
0.0238925
0.0245394
0.024553
0.0243646
0.0241368
0.0239833
0.0240753
0.0247157
0.0264594
0.0263007
0.0292881
0.0304557
0.027848
0.0264959
0.0257856
0.0253441
0.0250859
0.0248687
0.02466
0.0241052
0.0235624
0.0240731
0.0243368
0.0246441
0.025011
0.0255264
0.0262242
0.0273252
0.0287511
0.0286469
0.0262628
0.0260192
0.0249309
0.0241325
0.0237549
0.0237054
0.0237572
0.0238688
0.0238213
0.0233157
0.0229969
0.0234037
0.0224004
0.0224683
0.0215042
0.0201538
0.0187212
0.017277
0.0166184
0.0351052
0.0351004
0.0455638
0.042229
0.036925
0.0469089
0.059822
0.0518633
0.0625269
0.0662967
0.0538857
0.0500707
0.027753
0.0242914
0.0173482
0.018866
0.0202031
0.0213995
0.0212148
0.0221277
0.022008
0.022965
0.0224261
0.0216464
0.0211096
0.0201012
0.0201582
0.0188946
0.0173576
0.017224
0.0188635
0.0198947
0.0210682
0.0210508
0.0224987
0.0229994
0.0233805
0.0235158
0.0234984
0.0235834
0.0237554
0.02421
0.0249393
0.0254358
0.025637
0.0261676
0.0259066
0.0255943
0.0251494
0.0248451
0.0245268
0.024243
0.0239404
0.0236525
0.0232115
0.0225509
0.0224285
0.0229475
0.0232953
0.0235355
0.0236742
0.0236545
0.0234551
0.0231284
0.0227951
0.0224304
0.0224756
0.023696
0.0239171
0.0240232
0.0237842
0.0235946
0.0235647
0.023442
0.0233507
0.0231372
0.0227863
0.0223254
0.0212688
0.0213619
0.0222301
0.0226602
0.0229726
0.0232361
0.0232557
0.02318
0.0228207
0.0225479
0.0222193
0.0216682
0.0209357
0.0185554
0.0190544
0.0196873
0.0205474
0.0214114
0.022146
0.022614
0.0228086
0.0228062
0.0226294
0.0222716
0.021519
0.0214974
0.0220411
0.0222125
0.0221621
0.0218526
0.0212206
0.0202823
0.0190642
0.0178381
0.0168705
0.0164059
0.0156348
0.01811
0.019149
0.0200886
0.0209364
0.0217294
0.0225654
0.0228855
0.0229487
0.022804
0.0225531
0.0221545
0.0213975
0.0213986
0.0220883
0.0224653
0.022671
0.0227594
0.022487
0.0218286
0.0203143
0.0189154
0.0177461
0.0166656
0.0155389
0.0153862
0.0158933
0.0154336
0.0158349
0.0169509
0.0184342
0.0198037
0.0208026
0.0214067
0.021696
0.021725
0.0213927
0.0212107
0.0213406
0.0211435
0.0206497
0.0197843
0.0185021
0.0170353
0.0158242
0.0154714
0.0161243
0.016773
0.0161664
0.0138545
0.0149727
0.0160544
0.0171703
0.0188305
0.0208653
0.0218463
0.0223245
0.0224723
0.02236
0.0220084
0.0213695
0.0213129
0.0219235
0.0222663
0.0223561
0.022251
0.0218069
0.0209838
0.0184979
0.0157866
0.014558
0.0138597
0.0129198
0.0163144
0.0170191
0.0161964
0.0156527
0.016506
0.0175343
0.0186759
0.0195523
0.0201815
0.0206762
0.0209467
0.0209712
0.0206994
0.0205893
0.0203761
0.0200435
0.0197272
0.0194007
0.0186302
0.0178051
0.0168296
0.0178972
0.0184805
0.0177176
0.0144035
0.0149546
0.015742
0.0161982
0.0188089
0.0212803
0.0219668
0.0221808
0.0223056
0.022197
0.0218247
0.0212262
0.021106
0.021722
0.0221722
0.0224326
0.0226778
0.0228286
0.0229382
0.021033
0.0178529
0.017205
0.0155207
0.0147047
0.0182806
0.0189765
0.0184747
0.0179083
0.0195858
0.0202832
0.0205281
0.0205105
0.0204168
0.0203055
0.0203141
0.0204206
0.0201229
0.0200064
0.0201183
0.020348
0.0203176
0.0201016
0.0195333
0.0187684
0.017675
0.0195421
0.0212527
0.020971
0.0169313
0.0174565
0.0182766
0.0177446
0.020324
0.0221627
0.0226745
0.022683
0.0224473
0.022036
0.0215385
0.0209249
0.0206572
0.0212001
0.0217444
0.0217904
0.0219072
0.0218828
0.0213397
0.0211873
0.0206306
0.0203749
0.0196311
0.0190762
0.0183361
0.02049
0.0236535
0.0258343
0.0274165
0.0292989
0.0279477
0.0244713
0.0222341
0.0153481
0.0153511
0.0155709
0.0149189
0.0145324
0.0143503
0.0187078
0.021402
0.0240587
0.0257861
0.0233572
0.0233285
0.0232519
0.0231396
0.0230345
0.0229484
0.0227576
0.0236677
0.0416549
0.28337
0.211569
0.236438
0.225241
0.315515
0.0805828
0.0393809
0.0437468
0.0512552
0.0594846
0.0582632
0.0544489
0.0475194
0.0432986
0.0428869
0.042381
0.0421605
0.0401635
0.040055
0.038456
0.0445652
0.0871853
0.119667
0.133637
0.14239
0.152161
0.147768
0.157226
0.149625
0.150357
0.152104
0.156844
0.14956
0.142185
0.138282
0.134045
0.116905
0.117301
0.0990414
0.102906
0.0858879
0.0902504
0.0941599
0.0935175
0.0922927
0.0920462
0.0922836
0.0930485
0.0965241
0.09199
0.0992128
0.0928089
0.0758346
0.0734739
0.0760908
0.0701638
0.0613864
0.0694642
0.0853397
0.101488
0.117574
0.099711
0.122849
0.115329
0.114356
0.108742
0.10257
0.0988666
0.0982071
0.0988411
0.0999504
0.102555
0.10441
0.105947
0.108717
0.117201
0.1193
0.117657
0.100361
0.0853501
0.0937113
0.0984676
0.102242
0.102601
0.0980727
0.0957756
0.0892478
0.0876504
0.0819662
0.0794829
0.0739145
0.0707246
0.0659221
0.0822106
0.0805576
0.0874808
0.0936609
0.0980004
0.101534
0.103162
0.104297
0.103097
0.100678
0.0959264
0.0940766
0.0894381
0.107628
0.125942
0.128979
0.124584
0.111164
0.105652
0.337021
0.408814
0.409819
0.607438
0.647967
0.836704
0.333667
0.17982
0.192006
0.188687
0.180576
0.177371
0.177052
0.188666
0.197603
0.189067
0.198832
0.178423
0.173084
0.171691
0.201811
0.200413
0.181246
0.159121
0.12864
0.106768
0.108154
0.0907275
0.0921295
0.0786214
0.0779615
0.0772433
0.0904811
0.159897
0.203283
0.229818
0.256049
0.315578
0.286232
0.43375
0.349252
0.435491
0.301522
0.325386
0.311365
0.302825
0.300895
0.316865
0.338346
0.297846
0.369994
0.296903
0.64413
0.779458
0.496675
0.458357
0.406697
0.392865
0.383213
0.37782
0.369542
0.485935
0.451281
0.548232
0.508572
0.629575
0.560243
0.57496
0.541351
0.582207
0.603248
0.618111
0.499358
0.552658
0.432579
0.469903
0.389247
0.424042
0.296201
0.292708
0.329718
0.367412
0.391869
0.445392
0.703307
0.598537
0.807656
0.580323
0.702287
0.488202
0.53379
0.510265
0.492622
0.494065
0.521881
0.626475
0.606311
0.690744
0.514657
0.526975
0.516654
0.53401
0.523429
0.558394
0.563063
0.564212
0.562147
0.52339
0.533933
0.532148
0.531954
0.53198
0.532322
0.509561
0.512732
0.505206
0.510987
0.526921
0.514561
0.514488
0.512352
0.50478
0.502728
0.502247
0.504002
0.503774
0.508901
0.508772
0.509107
0.512152
0.526852
0.514426
1.81767
0.900488
0.427831
0.337491
0.219536
0.134025
0.0548407
0.0591637
0.0619645
0.062754
0.0605628
0.0550485
0.0468355
0.0369271
0.0292202
0.0282234
0.0251901
0.0275619
0.0348573
0.0423409
0.0386196
0.0463599
0.0540274
0.0623148
0.070295
0.0772706
0.0831836
0.086133
0.083109
0.0703911
0.052719
0.0353004
0.0250241
0.0226207
0.0209762
0.0189827
0.0168765
0.0152197
0.0142188
0.0130525
0.0124235
0.0123362
0.0125571
0.0127976
0.0132378
0.014751
0.0160497
0.0172332
0.0181938
0.0184385
0.0179263
0.0184687
0.0190637
0.019458
0.0198013
0.0196314
0.01963
0.0198802
0.019842
0.0200551
0.0199582
0.0199743
0.0198353
0.0196718
0.0194464
0.0190147
0.018737
0.0181782
0.0178305
0.0169957
0.0170322
0.0174554
0.017789
0.0167878
0.0167407
0.0159662
0.026712
0.0478011
0.0610423
0.0660603
0.0713373
0.0673294
0.0569488
0.0389657
0.0191977
0.0188866
0.0193515
0.0219128
0.0214178
0.0173421
0.0181019
0.0187413
0.0174871
0.0173245
0.017351
0.0193051
0.0198725
0.0212242
0.0217073
0.0220949
0.0223118
0.0222964
0.0223933
0.0221553
0.0221638
0.0218145
0.0218035
0.0214995
0.0212762
0.0215519
0.0222178
0.0222794
0.0228836
0.0225911
0.0222958
0.0217451
0.021329
0.020498
0.0195844
0.0186097
0.0171171
0.0166934
0.0172323
0.0177677
0.0173291
0.018847
0.0199763
0.0196719
0.0245567
0.022813
0.0203567
0.022902
0.0185341
0.0186807
0.0181975
0.0171002
0.0176407
0.0171203
0.0169929
0.0172701
0.0175238
0.0186563
0.0195874
0.0202115
0.0210544
0.0217075
0.0224101
0.0235613
0.023852
0.0229126
0.0227485
0.0216009
0.0209445
0.0206394
0.0215372
0.0227847
0.0226835
0.0235346
0.0232938
0.022099
0.0213018
0.0204493
0.0194935
0.018853
0.0181154
0.0174096
0.0170319
0.0162575
0.0164083
0.015386
0.0168863
0.0171178
0.0189655
0.0173404
0.0170205
0.0225503
0.0283381
0.0441726
0.0322035
0.0211672
0.0221589
0.0299455
0.036901
0.0253974
0.0248855
0.0148532
0.0160899
0.0152893
0.0155091
0.0165736
0.016842
0.0179695
0.018995
0.019219
0.0199527
0.0202834
0.0210515
0.0213028
0.0220269
0.0222142
0.0234382
0.0235022
0.0235664
0.0235457
0.0227809
0.0227094
0.0227449
0.02318
0.0229648
0.0236319
0.0236599
0.023744
0.0236807
0.02239
0.0220767
0.0213197
0.0208164
0.0199208
0.0193873
0.0186833
0.0183086
0.0177071
0.018017
0.0187251
0.0189319
0.0198107
0.01983
0.0205728
0.0207726
0.0212308
0.0213579
0.0220142
0.0221487
0.0224092
0.0224629
0.0236309
0.0237405
0.0237739
0.0237366
0.0237615
0.0239907
0.023986
0.0239167
0.0238998
0.0238208
0.0236636
0.0235255
0.0245626
0.0252222
0.0247756
0.0245522
0.0248271
0.0256747
0.0262262
0.0273051
0.0281555
0.0292202
0.0301119
0.0309343
0.0316168
0.0320986
0.0322389
0.0322825
0.0318601
0.031497
0.033211
0.0396921
0.0429089
0.0481409
0.0505114
0.0525373
0.0533177
0.0521283
0.0528163
0.051508
0.0517535
0.0505115
0.0500499
0.0491847
0.048148
0.0473986
0.045905
0.0451563
0.049751
0.0561302
0.0561721
0.0492508
0.046373
0.0416107
0.0357162
0.0381963
0.0442899
0.0395464
0.0377247
0.0347175
0.0295509
0.0222979
0.0178909
0.0257393
0.0334062
0.0406028
0.0473878
0.0533719
0.0572457
0.0593664
0.0609001
0.0625994
0.0605763
0.0531401
0.0415259
0.0316798
0.0277979
0.026243
0.023808
0.0203804
0.0185002
0.017431
0.0162814
0.0149386
0.0140855
0.0138432
0.014089
0.0142056
0.0155533
0.0168166
0.0168097
0.0179911
0.0178066
0.0183187
0.0189113
0.019316
0.0199736
0.0199461
0.0189841
0.0193376
0.0196018
0.0202838
0.0201864
0.0203613
0.0201511
0.0194356
0.0189247
0.0183253
0.0178114
0.0173545
0.016784
0.0160703
0.0160661
0.0162646
0.0158072
0.0162154
0.0166528
0.0170582
0.0176815
0.0185936
0.0193492
0.0211763
0.0213056
0.0210485
0.0211319
0.0196982
0.0196302
0.0186545
0.0184162
0.020011
0.0198491
0.0181782
0.0195699
0.0195804
0.021366
0.0213784
0.0207046
0.0209063
0.020805
0.0189835
0.0180955
0.0170238
0.0162485
0.0156622
0.0152661
0.0148011
0.0154347
0.0142349
0.0136486
0.0140967
0.0140693
0.0141334
0.0145216
0.0149504
0.0156936
0.0163972
0.0174468
0.0180863
0.0189843
0.0193159
0.0212198
0.0211219
0.0209802
0.0210111
0.0211461
0.0215917
0.0208095
0.0207711
0.0209152
0.020931
0.0209672
0.0209544
0.0191204
0.0189183
0.018084
0.0177662
0.0168307
0.0164731
0.0158186
0.0155047
0.015115
0.0149197
0.0232975
0.0254998
0.0256598
0.0398371
0.0200275
0.0200101
0.0344521
0.0173814
0.0231281
0.0236721
0.0247385
0.0259613
0.022607
0.0308206
0.0212778
0.0233881
0.0241087
0.0252884
0.0128301
0.0193775
0.0369531
0.0423959
0.0437291
0.0486721
0.0553561
0.0585714
0.061615
0.0636617
0.065927
0.0683801
0.0707806
0.0725173
0.0726656
0.0689814
0.0659224
0.0564336
0.0526145
0.0563466
0.0607578
0.047284
0.0424993
0.0430394
0.0434972
0.0440231
0.0442226
0.0448995
0.0446979
0.0456808
0.0449446
0.0460354
0.0448848
0.0458934
0.04467
0.0419553
0.0387392
0.0325665
0.0305996
0.029494
0.0267865
0.0242851
0.0220483
0.0202306
0.0198004
0.0182398
0.0168418
0.0165428
0.0152519
0.015513
0.0167453
0.0198926
0.0168214
0.0176573
0.026017
0.0191359
0.0180321
0.0185767
0.0190951
0.0193352
0.0182269
0.0198512
0.022118
0.0221254
0.0221929
0.0222081
0.0214074
0.0212437
0.0209831
0.0210443
0.0210765
0.021207
0.0211785
0.0193564
0.0193002
0.0190281
0.0188912
0.0181011
0.0179341
0.0173488
0.0170182
0.0161735
0.0158796
0.0154301
0.0154858
0.0166472
0.0205178
0.029998
0.0173459
0.0180161
0.015592
0.0139621
0.0266549
0.0247965
0.028668
0.0268
0.0394546
0.0264502
0.0232047
0.0242212
0.0297517
0.0296942
0.0326494
0.0424397
0.0330805
0.0282612
0.0732778
0.0532178
0.0332263
0.0462598
0.0583596
0.109105
0.127323
0.055884
0.0563961
0.0620736
0.0629952
0.0628946
0.05329
0.0491254
0.0412588
0.0317271
0.0129241
0.0249605
0.0322686
0.0426971
0.0570024
0.0919593
0.0528337
0.0596594
0.0655972
0.0646648
0.0677525
0.0659078
0.0645405
0.0655028
0.102599
0.111617
0.107618
0.0862369
0.0810381
0.074261
0.124155
0.139051
0.119844
0.129823
0.135629
0.0816738
0.0304081
0.0249804
0.0238524
0.0264336
0.0253822
0.0460066
0.0206332
0.0218511
0.0226808
0.0271792
0.0302437
0.052842
0.0233184
0.0254948
0.0324399
0.0348913
0.0458497
0.0274936
0.0281075
0.034405
0.0361832
0.0395205
0.0336959
0.0318151
0.0287458
0.025941
0.0244489
0.0255044
0.0319064
0.0463631
0.0279191
0.0283482
0.0301099
0.134223
0.0307786
0.0266697
0.0277419
0.0267512
0.0337113
0.0350765
0.1113
0.0355618
0.0167137
0.0154634
0.0159376
0.0167528
0.0173918
0.0180128
0.0184569
0.0190998
0.0194894
0.0196455
0.0198191
0.022189
0.0220799
0.0216106
0.0210663
0.0218523
0.0211581
0.0212023
0.021815
0.0212788
0.0214286
0.0224723
0.0236387
0.0231427
0.0236992
0.025053
0.0239022
0.0222142
0.0220077
0.0221266
0.0228353
0.023974
0.022788
0.0234447
0.0226309
0.0235489
0.023679
0.0203868
0.0200124
0.0198063
0.0193071
0.0186312
0.0180065
0.0173311
0.0166791
0.0161739
0.0160996
0.016606
0.0151978
0.0156011
0.0179585
0.0394425
0.03247
0.0265766
0.022249
0.0195775
0.0184226
0.018307
0.0187547
0.0194106
0.0199692
0.0201791
0.0207719
0.0246503
0.0245598
0.0257612
0.0246292
0.0259606
0.0248999
0.0235771
0.0227072
0.0239112
0.0232197
0.0237091
0.0253126
0.0261445
0.0237809
0.0240435
0.0214651
0.0200629
0.0184588
0.0187979
0.0202363
0.020902
0.0233223
0.0234075
0.0268296
0.0268191
0.0266861
0.0254628
0.0247919
0.0262361
0.0247547
0.0259027
0.0247972
0.0261989
0.0273874
0.0277333
0.027031
0.0262172
0.0253475
0.0210682
0.0202713
0.0199654
0.0194741
0.0192067
0.0201133
0.0243472
0.0335361
0.0456369
0.0577587
0.067169
0.0666335
0.0600207
0.0406946
0.0417111
0.0387005
0.0421748
0.0600596
0.0862515
0.060299
0.114285
0.0885017
0.052507
0.0627677
0.0747422
0.0838848
0.0897898
0.0907977
0.0772989
0.0568717
0.0498998
0.0523571
0.0846435
0.0833693
0.0823519
0.0778861
0.0823628
0.080241
0.0775673
0.0759979
0.0742129
0.0699564
0.0699378
0.067232
0.0671944
0.060091
0.0612721
0.0614907
0.0589181
0.0561793
0.0538991
0.0517145
0.0493964
0.0455178
0.044246
0.0417838
0.0400565
0.0367152
0.0361822
0.0356991
0.0335319
0.0319873
0.0307399
0.0294852
0.027794
0.0279613
0.0263978
0.0262443
0.0213991
0.0210153
0.0199896
0.0196576
0.0194044
0.0195873
0.0208119
0.0234766
0.0435953
0.0331115
0.0329863
0.0335539
0.0337202
0.0396869
0.0464475
0.0705388
0.0652469
0.0717342
0.0613763
0.0637965
0.0630037
0.062625
0.0653459
0.0689212
0.0742626
0.0867489
0.333384
0.513792
0.253122
0.237119
0.246763
0.251669
0.259079
0.339022
0.360109
0.355862
0.360576
0.330514
0.318484
0.196613
0.226051
0.238128
0.237005
0.223861
0.202297
0.392986
0.522655
0.518786
0.523656
0.523768
0.518767
0.522597
0.502913
0.514274
0.501758
0.515025
0.502298
0.521658
0.518918
0.504364
0.501138
0.501157
0.500917
0.50138
0.501556
0.504895
0.506056
0.506108
0.505103
0.504115
0.514523
0.436924
0.122338
0.08502
0.141423
0.196578
0.16094
0.232945
0.267813
0.192952
0.109626
0.0894524
0.100938
0.124355
0.125872
0.152881
0.200118
0.187345
0.152905
0.153871
0.154455
0.199593
0.191175
0.217445
0.259851
0.253171
0.188441
0.149988
0.149217
0.227294
0.242163
0.237351
0.122934
0.044119
0.0218503
0.022754
0.0327854
0.0165463
0.0168422
0.0221476
0.0578973
0.0968367
0.0499158
0.13609
0.137894
0.181843
0.147256
0.178179
0.115342
0.118651
0.0675237
0.0795088
0.0894258
0.0951852
0.0994898
0.0935585
0.216256
0.319387
0.190414
0.560987
0.537845
0.195929
0.217008
0.575713
0.513011
0.503524
0.501785
0.501698
0.501859
0.501816
0.50097
0.500916
0.500728
0.500765
0.500716
0.501164
0.504767
0.520382
0.514598
0.50524
0.501385
0.500824
0.5008
0.500691
0.500731
0.500751
0.500808
0.501018
0.50105
0.501151
0.501671
0.503941
0.512028
0.43538
0.169745
0.182094
0.405843
0.361608
0.511502
0.504622
0.50137
0.500942
0.500856
0.50083
0.500795
0.50097
0.50089
0.501398
0.501232
0.501287
0.502776
0.508256
0.50639
0.442647
0.368972
0.416555
0.329617
0.506666
0.507774
0.503277
0.5029
0.503247
0.503415
0.501514
0.501528
0.500993
0.501061
0.500893
0.501341
0.504755
0.511011
0.345761
0.170634
0.177551
0.257717
0.0877687
0.0906964
0.0926191
0.0947163
0.246891
0.441242
0.555239
0.470863
0.474944
0.54188
0.385348
0.364129
0.293849
0.317381
0.401684
0.346979
0.312515
0.250072
0.288362
0.247498
0.303242
0.217682
0.233927
0.221488
0.282784
0.286665
0.287018
0.226479
0.216324
0.271362
0.28561
0.31657
0.218533
0.258734
0.203069
0.192148
0.0870054
0.0891778
0.081087
0.0711635
0.0709262
0.0790363
0.0774811
0.0836431
0.0806445
0.0843387
0.081461
0.0794483
0.0726766
0.0747041
0.0685092
0.0711558
0.130118
0.166275
0.150175
0.151595
0.179349
0.130856
0.157199
0.153284
0.197341
0.247717
0.226582
0.29181
0.225016
0.275334
0.405333
0.753746
0.438579
0.244412
0.317817
0.339705
0.288375
0.189346
0.449181
0.538097
0.297718
0.359856
1.19554
1.04303
1.78109
0.991956
1.1185
0.670398
0.597234
1.02839
0.65338
0.665754
0.559283
0.573083
0.498969
0.324055
0.323548
0.30536
0.241623
0.280409
0.271123
0.266537
0.296092
0.261211
0.316228
0.352006
0.396663
0.322339
0.285178
0.366478
0.215331
0.290501
0.345989
0.315299
0.259451
0.337627
0.44962
0.421006
0.362296
0.398779
0.509172
0.562953
0.53224
0.451556
0.512882
1.00638
0.963059
0.930674
0.590251
1.93363
1.7181
0.353174
0.137897
0.0959889
0.0363499
0.0224667
0.0182798
0.0178945
0.0489626
0.0195506
0.0235421
0.0212018
0.0300536
0.0273412
0.0316076
0.0554631
0.0376167
0.052821
0.0391603
0.0521047
0.0414819
0.0570414
0.0612596
0.0645171
0.052142
0.0411274
0.0621541
0.082992
0.0388103
0.0999376
0.105613
0.068175
0.0829463
0.102465
0.0529561
0.165214
0.0573615
0.0570427
0.0678797
0.127286
0.252114
0.0858345
0.112389
0.586015
1.52987
0.510458
0.20171
0.164692
0.0414754
0.035997
0.029331
0.03563
0.0313949
0.0630782
0.0636841