/*--------------------------------*- C++ -*----------------------------------*\
| =========                 |                                                 |
| \\      /  F ield         | OpenFOAM: The Open Source CFD Toolbox           |
|  \\    /   O peration     | Version:  v2012                                 |
|   \\  /    A nd           | Website:  www.openfoam.com                      |
|    \\/     M anipulation  |                                                 |
\*---------------------------------------------------------------------------*/
FoamFile
{
    version     2.0;
    format      ascii;
    class       volVectorField;
    location    "355";
    object      U;
}
// * * * * * * * * * * * * * * * * * * * * * * * * * * * * * * * * * * * * * //

dimensions      [0 1 -1 0 0 0 0];


internalField   nonuniform List<vector> 
18258
(
(-0.176175 0.115783 0.137947)
(-0.0516071 0.24559 0.157917)
(-0.104647 0.213574 0.0961734)
(-0.039359 0.0695618 0.0842302)
(-0.226078 0.201971 0.0184469)
(-0.159194 0.360306 0.0167382)
(-0.222799 0.0446689 0.0538594)
(-0.341095 -0.0529458 0.0751354)
(-0.448252 -0.105586 0.10804)
(-0.535139 -0.15941 0.145612)
(-0.620934 -0.216941 0.179814)
(-0.687309 -0.271305 0.309433)
(-0.678336 -0.334023 0.35719)
(-0.622043 -0.445259 0.38582)
(-0.487997 -0.542818 0.369464)
(-0.205337 -0.587383 0.340556)
(0.0735693 -0.37452 0.289131)
(0.0774654 -0.163814 0.298209)
(-0.128639 -0.0787369 0.237026)
(-0.402223 -0.273225 0.117394)
(-0.140409 -0.527011 0.293976)
(-0.201032 -0.36642 0.407421)
(-0.306918 -0.738482 0.302191)
(-0.368619 -0.780447 0.262744)
(-0.138602 -0.7076 0.130998)
(0.00236799 -0.645071 0.182315)
(-0.018719 -0.340848 0.423166)
(0.173103 -0.113181 0.805941)
(0.298303 -0.0953048 0.894014)
(0.315912 0.057704 0.915414)
(0.316846 0.184169 0.817681)
(0.167684 0.301667 0.109458)
(0.0756487 0.135058 -0.428773)
(0.00880546 0.0826982 -0.720532)
(-0.0691283 0.0788984 -0.896068)
(-0.0591876 0.0746141 -1.07873)
(-0.0720948 0.0735634 -1.2178)
(-0.100634 0.0916154 -1.31127)
(-0.142644 0.0829596 -1.35851)
(-0.190692 0.089579 -1.34442)
(-0.240477 0.0760134 -1.26039)
(-0.287225 0.0853823 -1.10674)
(-0.326268 0.079735 -0.896007)
(-0.357323 0.0809968 -0.641857)
(-0.366981 0.0839135 -0.349533)
(-0.349577 0.0785487 -0.152435)
(-0.153647 0.185668 -0.193451)
(0.371038 -0.103547 -0.135661)
(0.638626 -0.131351 -0.155953)
(0.680729 -0.113726 -0.166087)
(0.791218 -0.136006 -0.175656)
(0.817746 -0.132179 -0.193379)
(0.509465 -0.00231064 -0.257402)
(0.260443 -0.137856 -0.217874)
(0.113607 -0.0414003 -0.158642)
(0.283198 -0.00936795 -0.169074)
(0.538732 -0.00238945 -0.173728)
(0.793259 -0.030132 -0.178023)
(1.09382 -0.0348761 -0.175853)
(1.42961 -0.0490408 -0.185294)
(1.76419 -0.0647669 -0.183643)
(2.04826 -0.0813133 -0.1667)
(2.24881 -0.0929664 -0.138221)
(2.34886 -0.0990404 -0.102562)
(2.35544 -0.0963185 -0.067926)
(2.29497 -0.088603 -0.0412257)
(2.20127 -0.0820807 -0.0245679)
(2.10864 -0.0759509 -0.0178089)
(2.03905 -0.0671376 -0.0188156)
(1.99327 -0.0642576 -0.0234915)
(1.96882 -0.0591057 -0.0259451)
(1.95819 -0.0501981 -0.0204311)
(1.94388 -0.0396923 -0.00343563)
(1.90038 -0.0248702 0.0241361)
(1.81277 -0.00782251 0.0537185)
(1.6918 0.00956247 0.0770197)
(1.57092 0.0217658 0.0798694)
(1.4782 0.0307501 0.0752232)
(1.40009 0.0378232 0.0705393)
(1.33789 0.0506072 0.0631519)
(1.28705 0.0572636 0.0649403)
(1.19342 0.0443543 0.0785037)
(1.09635 0.0190265 0.110142)
(1.01347 0.000723833 0.127663)
(0.906313 -0.0208911 0.120574)
(0.762357 0.0167456 0.14583)
(0.641564 0.0817039 0.133182)
(0.517938 0.100629 0.134074)
(0.380971 0.118113 0.118472)
(0.224507 0.127187 0.0964131)
(0.120091 0.190007 0.0918948)
(0.122113 0.0104367 0.197476)
(0.164182 -0.100791 0.143668)
(0.113153 -0.129704 0.0394895)
(0.104542 -0.115203 -0.142592)
(0.216741 -0.210455 -0.371585)
(0.262869 -0.232475 -0.557016)
(0.20437 -0.13928 -0.730432)
(0.105865 -0.081125 -0.714683)
(0.0363293 0.0576864 -0.491279)
(-0.089938 0.231448 -0.15765)
(-0.216316 0.194395 0.179901)
(-0.23435 0.0649851 0.154338)
(-0.34011 0.015232 0.169399)
(-0.272985 0.138391 0.178224)
(-0.246897 0.286284 -0.0474427)
(-0.106353 0.163085 -0.40373)
(0.063855 0.00425053 -0.585276)
(0.333626 -0.0942069 -0.633035)
(0.495963 -0.230114 -0.490675)
(0.351666 -0.211024 -0.281094)
(0.271778 -0.192172 -0.10123)
(0.282983 -0.18674 0.0392263)
(0.280774 -0.140065 0.160062)
(0.225462 -0.0989456 0.191553)
(0.39666 -0.0812523 0.180685)
(0.535736 -0.0632106 0.176261)
(0.588184 -0.0519677 0.16434)
(0.700136 -0.0786841 0.160501)
(0.732413 -0.133702 0.132208)
(0.600901 -0.134244 0.134955)
(0.454468 -0.15175 0.139455)
(0.461471 -0.185936 0.0350403)
(0.610787 -0.162882 0.0509855)
(0.736157 -0.162099 0.048475)
(0.904606 -0.141761 0.0806601)
(1.08815 -0.109915 0.110209)
(1.18941 -0.0777557 0.147807)
(1.20846 -0.0106738 0.139581)
(1.24562 -0.0090562 0.120103)
(1.33561 -0.00695579 0.139616)
(1.37761 -0.00170269 0.129566)
(1.3692 -0.0125033 0.158343)
(1.32867 -0.0481846 0.193499)
(1.32299 -0.0511137 0.190415)
(1.28584 -0.0620145 0.151519)
(1.27913 -0.0602024 0.134653)
(1.25823 -0.0477735 0.108058)
(1.24969 -0.0457469 0.110087)
(1.20138 0.00456608 0.108822)
(1.19435 0.0280567 0.137471)
(1.07672 0.137335 0.27132)
(1.22612 0.0530949 0.253956)
(1.21784 0.0202509 0.158482)
(1.26669 -0.0207541 0.127936)
(1.27883 -0.0249507 0.118746)
(1.28923 -0.0381743 0.1438)
(1.30813 -0.0414734 0.183056)
(1.35075 -0.0366903 0.217034)
(1.38658 -0.0366733 0.221959)
(1.42345 -0.0127635 0.183126)
(1.43684 -0.00190903 0.137896)
(1.51304 -0.00652125 0.151024)
(1.61109 -0.0167122 0.159121)
(1.75041 -0.0316243 0.143489)
(1.88257 -0.0542074 0.0488163)
(1.96398 -0.0756655 -0.0714495)
(1.98332 -0.0905147 -0.164547)
(1.96584 -0.0965238 -0.200775)
(1.9495 -0.0968555 -0.194711)
(1.95971 -0.0912376 -0.174941)
(2.00685 -0.0827351 -0.144533)
(2.08847 -0.070291 -0.107975)
(2.19979 -0.0600527 -0.0841896)
(2.31413 -0.0597123 -0.113049)
(2.39118 -0.0608171 -0.173368)
(2.39398 -0.0584548 -0.277192)
(2.28824 -0.0502464 -0.392406)
(2.07292 -0.0426103 -0.483829)
(1.77259 -0.0368186 -0.54034)
(1.42875 -0.0316537 -0.549175)
(1.08264 -0.0193441 -0.528003)
(0.793957 -0.0243121 -0.459593)
(0.538075 -0.0155667 -0.415624)
(0.283794 -0.0209877 -0.386954)
(0.109403 -0.0395349 -0.360796)
(0.102573 -0.0414003 -0.637335)
(0.0776709 -0.0367614 -0.873461)
(0.0509253 -0.0388428 -1.05801)
(0.0119298 -0.0401744 -1.17664)
(-0.0232645 -0.0278646 -1.21625)
(-0.0599803 -0.015341 -1.1683)
(-0.0937777 0.00388341 -1.03876)
(-0.119231 0.0282574 -0.819736)
(-0.120853 0.0862933 -0.558135)
(-0.14716 0.132148 -0.0265448)
(-0.194506 0.0238457 0.576342)
(-0.210473 -0.0348108 0.762172)
(-0.228666 -0.0035628 0.929883)
(-0.23381 -0.0469166 1.07122)
(-0.319312 -0.106715 1.13471)
(-0.372137 -0.114391 1.1469)
(-0.370761 -0.235534 1.00576)
(-0.300046 -0.254344 0.771208)
(-0.460773 -0.670689 0.687109)
(-0.485266 -0.548784 0.705155)
(-0.41357 -0.416044 0.833178)
(-0.548415 -0.769324 0.860757)
(-0.682158 -0.834178 0.608481)
(-0.473189 -0.756942 0.800444)
(-0.434712 -0.575889 0.743855)
(-0.782075 -0.526119 0.752157)
(-0.901172 -0.409408 0.862491)
(-0.529846 -0.708038 0.827839)
(-0.439469 -0.577586 0.6689)
(-0.320608 -0.321001 0.408739)
(-0.299884 -0.184052 0.402735)
(-0.283621 -0.147822 0.35734)
(-0.23548 0.107473 0.117582)
(-0.162147 0.299515 -0.416592)
(-0.151676 0.192807 -0.638483)
(-0.132133 0.0300993 -0.913312)
(-0.0869987 -0.0560052 -1.0861)
(-0.0285808 -0.068885 -1.23407)
(0.0386433 -0.101442 -1.26908)
(0.0984781 -0.0984068 -1.23416)
(0.173188 -0.108981 -1.12025)
(0.217264 -0.123374 -0.920314)
(0.261663 -0.146519 -0.705791)
(0.250533 -0.139294 -0.398481)
(0.420903 -0.0478971 -0.637576)
(0.778154 -0.117871 -0.455921)
(0.734641 -0.109793 -0.410482)
(0.637392 -0.0766375 -0.402275)
(0.578444 -0.105838 -0.406873)
(0.139497 -0.100157 -0.515004)
(0.184211 -0.116557 -0.898061)
(0.262243 -0.224638 -1.05036)
(0.345678 -0.282418 -0.94002)
(0.389172 -0.351402 -0.499384)
(0.19891 0.0484452 0.124003)
(0.266394 0.124466 0.183083)
(0.42914 -0.324754 0.335505)
(0.516324 -0.528991 0.505045)
(0.546137 -0.52242 0.55089)
(0.412876 -0.235288 0.678218)
(0.47189 -0.337649 0.563523)
(0.487283 -0.609944 0.543083)
(0.70482 -0.67292 0.316088)
(0.746894 -0.489497 0.45097)
(0.799153 -0.345955 0.597717)
(0.236428 -0.226211 0.576087)
(-0.234027 -0.269542 0.831393)
(-0.170357 -0.191487 0.683162)
(-0.671665 -0.299095 0.821544)
(-0.46759 -0.184359 0.698288)
(-0.318657 -0.00609944 0.547032)
(-0.218373 0.179415 -0.295486)
(-0.192097 -0.0393129 -0.61736)
(-0.0573379 -0.168156 -1.10033)
(0.104928 -0.156983 -1.25051)
(0.277114 -0.0860568 -1.11812)
(0.44017 -0.107872 -0.69752)
(0.510785 -0.0738 -0.620602)
(0.506253 -0.0440862 -0.60836)
(0.561558 -0.088581 -0.631264)
(0.600646 -0.121658 -0.723397)
(0.405554 -0.0432522 -0.675523)
(0.363371 -0.0789904 -0.656389)
(0.13787 -0.113569 -0.666076)
(-0.110975 -0.0478834 -0.577529)
(0.298515 0.00811511 -0.587109)
(0.358799 0.0165656 -0.603492)
(0.644352 -0.0959836 -0.639746)
(0.574994 -0.0974715 -0.361308)
(0.271414 0.0755871 -0.349349)
(0.270602 0.0564467 -0.22327)
(-0.302577 -0.0368747 0.129289)
(-0.308263 0.144992 0.000782472)
(-0.283618 -0.0239408 -0.445784)
(0.0900909 -0.201887 -0.573047)
(0.36482 -0.280559 -0.567367)
(0.729906 -0.346218 -0.404636)
(0.81353 -0.418875 -0.377298)
(0.774928 -0.290695 -0.29518)
(0.816245 -0.365353 -0.21928)
(0.830764 -0.487394 -0.283554)
(0.744482 -0.43347 -0.2774)
(0.724146 -0.307102 -0.330215)
(0.751072 -0.252216 -0.340943)
(0.796703 -0.312203 -0.21172)
(0.809153 -0.367964 -0.160089)
(0.895495 -0.46457 -0.156334)
(1.16045 -0.631107 -0.11751)
(1.61844 -0.726644 -0.098648)
(1.99529 -0.672153 -0.0380217)
(2.15163 -0.489958 0.0473887)
(2.07135 -0.290712 0.0955249)
(1.90572 -0.162643 0.103021)
(1.80801 -0.0943859 0.0995066)
(1.71108 0.000747859 0.0990164)
(1.57348 0.0891279 0.0911416)
(1.43605 0.107542 0.0481186)
(1.33146 0.0578598 0.0273777)
(1.24161 -0.00414985 0.0216938)
(1.13984 -0.0535696 0.0234266)
(1.05585 -0.0783179 0.0216043)
(0.998016 -0.062047 0.0172079)
(0.821962 -0.109707 -0.0236075)
(0.716816 0.00297439 0.0101739)
(0.633472 0.0692749 0.00923665)
(0.497812 0.0241308 0.00689335)
(0.359587 -0.0600465 -0.0130096)
(0.139173 -0.146435 -0.0320764)
(0.225713 -0.308056 0.00120207)
(0.353384 -0.0819052 0.0120664)
(-0.0024549 -0.230178 -0.00921437)
(0.043031 -0.546023 -0.0504716)
(0.012016 -0.712607 -0.0526047)
(-0.0080277 -0.876595 -0.0532351)
(-0.0259842 -1.00668 -0.0649449)
(-0.0360212 -1.10266 -0.0958022)
(-0.0465295 -1.1571 -0.105092)
(-0.0580566 -1.21446 -0.118234)
(-0.0882885 -1.2763 -0.134236)
(-0.113398 -1.32112 -0.149556)
(-0.137385 -1.35495 -0.162475)
(-0.159423 -1.37672 -0.173536)
(-0.178465 -1.38815 -0.183198)
(-0.193883 -1.38985 -0.189912)
(-0.206031 -1.38279 -0.193764)
(-0.216059 -1.36809 -0.193878)
(-0.224615 -1.34621 -0.191951)
(-0.232893 -1.31578 -0.186494)
(-0.240553 -1.27491 -0.178124)
(-0.245997 -1.22066 -0.165066)
(-0.243884 -1.1515 -0.147309)
(-0.190969 -1.07202 -0.126911)
(-0.141233 -0.969322 -0.112538)
(-0.165761 -0.868775 -0.0794609)
(-0.189772 -0.754775 -0.0818696)
(-0.204978 -0.543256 -0.0854699)
(-0.273688 -0.450365 -0.091975)
(0.0225784 0.0531279 -0.116158)
(-0.350842 -0.308454 0.0251986)
(-0.231672 -0.617563 -0.0545308)
(-0.270399 -0.0992913 -0.0110259)
(-0.458052 -0.182482 0.0645653)
(-0.6788 -0.198669 0.0822263)
(-0.842333 -0.209241 0.114026)
(-0.953854 -0.223087 0.14414)
(-1.0347 -0.232481 0.203709)
(-1.11809 -0.244278 0.245219)
(-1.18734 -0.244161 0.301955)
(-1.20104 -0.248377 0.336233)
(-1.17408 -0.250127 0.36616)
(-1.10712 -0.248828 0.39448)
(-0.996273 -0.243147 0.422693)
(-0.84156 -0.230149 0.454155)
(-0.667528 -0.20591 0.493663)
(-0.420442 -0.146912 0.543057)
(-0.136838 -0.118951 0.567388)
(-0.154506 0.0283904 0.82308)
(-0.157634 0.0829031 1.04282)
(-0.157309 0.115117 1.11225)
(-0.158587 0.164125 1.0206)
(-0.162631 0.153324 0.837723)
(-0.150624 0.131366 0.567305)
(-0.124331 0.14344 0.285343)
(-0.225773 0.439234 0.3706)
(-0.507562 0.467182 0.335036)
(-0.69266 0.480206 0.339044)
(-0.91757 0.465023 0.332551)
(-1.09978 0.424421 0.308568)
(-1.22693 0.353054 0.265854)
(-1.28264 0.273198 0.218745)
(-1.26543 0.206065 0.181529)
(-1.23242 0.147871 0.15828)
(-1.18949 0.115186 0.140383)
(-1.10005 0.0924866 0.0902238)
(-0.958284 0.0451263 0.0698805)
(-0.766941 -0.0207445 0.0594513)
(-0.500544 -0.113988 0.0190062)
(-0.252978 -0.207768 -0.0190238)
(-0.273985 -0.197537 -0.0663591)
(-0.318257 -0.176964 0.00799707)
(-0.314469 -0.174164 0.0592317)
(-0.272604 -0.15659 0.150409)
(-0.380895 -0.233791 0.118032)
(-0.422781 -0.297045 0.118098)
(-0.326805 -0.288107 0.176801)
(-0.269768 -0.215187 0.0448213)
(-0.140883 -0.100851 -0.026264)
(-0.140954 -0.0768991 -0.00764194)
(-0.138647 -0.0742416 -0.0357675)
(-0.169365 -0.0557366 -0.0681609)
(-0.167901 -0.501608 -0.148841)
(-0.126295 -0.479829 -0.138494)
(-0.110745 -0.447261 -0.0959995)
(-0.10058 -0.424157 -0.146151)
(-0.266617 -0.538205 -0.0319594)
(-0.276387 -0.575688 -0.026248)
(-0.283822 -0.632051 -0.0844649)
(-0.337402 -0.583005 -0.0205669)
(-0.340275 -0.530127 0.0546797)
(-0.301636 -0.359253 0.0848738)
(-0.444604 -0.317147 0.114451)
(-0.361653 -0.431949 0.0399803)
(-0.347501 -0.522844 0.0135412)
(-0.378062 -0.508622 -0.0242239)
(-0.428702 -0.394632 0.0316857)
(-0.497499 -0.346734 0.0727722)
(-0.529092 -0.254986 0.163611)
(-0.591404 -0.215558 0.241239)
(-0.680322 -0.197664 0.25582)
(-0.576664 -0.206817 0.211436)
(-0.516901 -0.187882 0.181024)
(-0.545172 -0.185019 0.11768)
(-0.539731 -0.172096 0.091764)
(-0.496191 -0.184269 0.000688504)
(-0.761706 -0.086711 0.0644548)
(-0.971817 -0.0054147 0.0895658)
(-1.07946 0.0521049 0.103446)
(-1.12866 0.0750033 0.138025)
(-1.16636 0.0358141 0.237743)
(-1.25109 0.068987 0.266991)
(-1.31715 0.119404 0.348852)
(-1.33081 0.170862 0.43151)
(-1.27358 0.221954 0.52397)
(-1.14878 0.260969 0.603628)
(-0.976206 0.281333 0.64815)
(-0.775998 0.28367 0.65718)
(-0.623299 0.2889 0.644188)
(-0.342051 0.272653 0.643868)
(-0.435595 0.245353 0.874581)
(-0.467596 0.228084 1.00302)
(-0.460499 0.180309 1.08142)
(-0.441249 0.124124 1.01352)
(-0.439862 0.0588993 0.797944)
(-0.711265 -0.00485092 0.744259)
(-0.721899 0.0717746 0.944495)
(-0.740638 0.117569 1.02337)
(-0.745557 0.164616 0.979404)
(-0.69545 0.199084 0.872439)
(-0.838433 0.186568 0.862335)
(-0.880164 0.146163 0.964964)
(-0.882921 0.0885796 1.00102)
(-0.873176 0.0422171 0.926247)
(-0.866821 -0.03881 0.706922)
(-1.01014 -0.0601154 0.675748)
(-1.02475 0.0207179 0.901006)
(-1.0378 0.0697358 0.966156)
(-1.04613 0.122211 0.944057)
(-1.02129 0.174152 0.854004)
(-1.1649 0.163055 0.803963)
(-1.16539 0.110701 0.89266)
(-1.14856 0.0572741 0.914492)
(-1.13133 0.00660575 0.859346)
(-1.11116 -0.0729253 0.640016)
(-1.1713 -0.0835987 0.595406)
(-1.19692 -0.00611437 0.796769)
(-1.22336 0.0437027 0.839981)
(-1.25281 0.0919046 0.811416)
(-1.27051 0.141406 0.716791)
(-1.31999 0.110872 0.610108)
(-1.29148 0.0688803 0.709157)
(-1.25297 0.0250386 0.747141)
(-1.21749 -0.0216738 0.716296)
(-1.18728 -0.0934243 0.539679)
(-1.15401 -0.104683 0.472619)
(-1.18225 -0.0413637 0.621279)
(-1.22116 0.000206833 0.640617)
(-1.27557 0.0391539 0.606345)
(-1.30869 0.0742524 0.509066)
(-1.22558 0.0356766 0.414245)
(-1.18877 0.00285422 0.500019)
(-1.12899 -0.0321981 0.531082)
(-1.08669 -0.0600944 0.520115)
(-1.04032 -0.111772 0.386701)
(-0.919358 -0.120155 0.315139)
(-0.923663 -0.109395 0.358067)
(-0.973142 -0.0803987 0.438198)
(-0.957093 -0.087054 0.424994)
(-0.928209 -0.102676 0.394597)
(-1.00499 -0.0684737 0.381306)
(-0.996699 -0.0630993 0.307328)
(-1.00139 -0.0391981 0.282696)
(-1.04446 -0.0271967 0.209033)
(-1.03947 -0.00953894 0.202342)
(-0.806572 -0.105208 0.145249)
(-0.81948 -0.125247 0.157752)
(-0.788503 -0.128464 0.216159)
(-0.824448 -0.141539 0.249303)
(-0.610396 -0.281818 0.132932)
(-0.557293 -0.291559 0.114693)
(-0.503779 -0.326993 0.13233)
(-0.420362 -0.399735 0.115879)
(-0.397012 -0.384141 0.149336)
(-0.488284 -0.284291 0.165133)
(-0.60622 -0.239141 0.183525)
(-0.615635 -0.267943 0.0966698)
(-0.513731 -0.378054 0.0437999)
(-0.439787 -0.460302 0.0278791)
(-0.397467 -0.526495 0.0575318)
(-0.384048 -0.698102 0.121895)
(-0.387168 -0.663485 0.127671)
(-0.405509 -0.380432 0.106598)
(-0.408499 -0.536662 0.0811288)
(-0.399411 -0.602083 0.043426)
(-0.215867 -0.788473 -0.159166)
(-0.193499 -0.794269 -0.25998)
(-0.11542 -0.704177 -0.369583)
(-0.0786123 -0.624207 -0.385612)
(-0.0451978 -0.589015 -0.347888)
(-0.0137261 -0.556083 -0.301535)
(0.0314917 -0.502067 -0.232121)
(0.124124 -0.45555 -0.108966)
(0.124702 -0.580289 -0.121959)
(0.116808 -0.636761 -0.12023)
(0.0848426 -0.694773 -0.157718)
(0.0922383 -0.749442 -0.155855)
(0.100393 -0.80603 -0.175008)
(0.118142 -0.834345 -0.167074)
(0.126161 -0.841089 -0.152868)
(0.126367 -0.827235 -0.130301)
(0.117679 -0.791125 -0.0959275)
(0.104073 -0.734361 -0.0426139)
(0.0369522 -0.65424 0.0333994)
(0.00171281 -0.545851 0.153501)
(0.0160084 -0.299985 0.36033)
(-0.147672 0.0137868 0.448812)
(-0.366577 0.0952971 0.350193)
(-0.392263 -0.039475 0.256844)
(-0.219548 -0.172629 0.251917)
(-0.18058 -0.189488 0.26834)
(-0.158009 -0.17945 0.214423)
(-0.0930623 -0.145605 0.206034)
(-0.00179629 -0.0408057 0.0734376)
(-0.0348183 0.10863 0.0810937)
(-0.0806253 0.14615 0.0804935)
(-0.0491319 0.210858 0.170937)
(-0.00461653 0.178376 0.193165)
(0.0151385 0.0284054 0.143645)
(-0.047003 -0.0330953 0.228655)
(0.0237468 0.0878506 0.324827)
(-0.00329457 -0.0670348 0.286706)
(0.0764142 0.141677 0.247647)
(0.0903306 -0.0261954 0.226588)
(-0.0206683 -0.255587 0.455725)
(0.0508405 -0.359225 0.544649)
(0.172742 -0.503625 0.514595)
(0.16712 -0.694051 0.351663)
(0.0753708 -0.817783 0.144019)
(0.0587122 -0.889451 -0.00773942)
(0.0653026 -0.923935 -0.11957)
(0.063295 -0.950353 -0.197751)
(0.0602081 -0.965027 -0.248763)
(0.0520835 -0.963244 -0.279435)
(0.041925 -0.943341 -0.292774)
(0.0293233 -0.905749 -0.289602)
(0.0236734 -0.830945 -0.249869)
(0.00734836 -0.785184 -0.329096)
(0.0435548 -0.704327 -0.225514)
(0.047597 -0.654074 -0.211524)
(0.0447912 -0.636603 -0.232246)
(0.00462621 -0.70259 -0.325514)
(-0.0225814 -0.742194 -0.383329)
(-0.0573535 -0.777532 -0.41106)
(-0.0732815 -0.844327 -0.4019)
(-0.132056 -0.904754 -0.346175)
(-0.0940518 -0.969196 -0.332001)
(-0.0890045 -0.979952 -0.373293)
(-0.0538094 -0.918552 -0.418307)
(-0.0435805 -0.868559 -0.432214)
(-0.0177509 -0.826387 -0.404589)
(-0.00959424 -0.869846 -0.341414)
(-0.0393275 -0.902107 -0.374377)
(-0.0560647 -0.948761 -0.39677)
(-0.0237438 -0.991887 -0.405998)
(-0.0486901 -1.06021 -0.420641)
(-0.0666471 -1.04283 -0.424276)
(-0.0935358 -0.920632 -0.345079)
(-0.18668 -0.761982 -0.224631)
(-0.198434 -0.614158 -0.0410875)
(-0.100062 -0.733608 -0.197123)
(-0.0796975 -0.839706 -0.259645)
(-0.0594369 -0.928991 -0.323512)
(-0.0608897 -0.946435 -0.334207)
(-0.027767 -0.829621 -0.380983)
(-0.0239665 -0.724687 -0.3373)
(-0.0321422 -0.542222 -0.254008)
(-0.0162758 -0.353355 -0.163373)
(0.0337729 -0.0904167 -0.208849)
(-0.248109 -0.433747 0.0730706)
(-0.329191 -0.46139 0.0260873)
(0.22119 -0.118491 -0.244275)
(-0.172668 -0.247392 0.0433715)
(-0.218067 -0.266565 -0.116879)
(-0.258407 -0.268831 -0.103384)
(-0.208543 -0.281655 -0.0213717)
(0.0811915 0.14079 -0.219186)
(0.102758 0.0596375 -0.231816)
(0.100915 -0.000261288 -0.26076)
(0.0962955 -5.84476e-05 -0.265764)
(-0.0800487 -0.429845 -0.201525)
(-0.13299 -0.450065 -0.222566)
(-0.186131 -0.458415 -0.206553)
(-0.249108 -0.445179 -0.169188)
(-0.168972 -0.547548 -0.184216)
(-0.126831 -0.559432 -0.257201)
(-0.0962659 -0.565758 -0.291423)
(-0.0606438 -0.554018 -0.291742)
(-0.0507625 -0.743023 -0.349046)
(-0.0816277 -0.757617 -0.332038)
(-0.106379 -0.769887 -0.281736)
(-0.147192 -0.760114 -0.19475)
(-0.134516 -0.821886 -0.182338)
(-0.128809 -0.882854 -0.200317)
(-0.0981782 -0.905548 -0.297425)
(-0.0727137 -0.872667 -0.373822)
(-0.0492295 -0.8525 -0.400147)
(-0.0768792 -0.968095 -0.370911)
(-0.112241 -0.989738 -0.335868)
(-0.138175 -1.00997 -0.283657)
(-0.137269 -1.09268 -0.346946)
(-0.0802087 -1.0671 -0.399335)
(-0.0726141 -1.14475 -0.440987)
(-0.0494315 -1.12326 -0.473665)
(-0.0269345 -1.11432 -0.458986)
(-0.00328634 -1.04252 -0.415656)
(0.0121327 -1.07458 -0.40678)
(-0.0127105 -1.15289 -0.469873)
(-0.0398954 -1.17992 -0.494354)
(-0.0686338 -1.20805 -0.463089)
(-0.131634 -1.22854 -0.379208)
(-0.134971 -1.16622 -0.369261)
(-0.283765 -1.04635 -0.22539)
(-0.457444 -1.14577 -0.0769509)
(-0.463823 -1.09984 -0.0674708)
(-0.416078 -1.04554 -0.0647702)
(-0.302913 -1.03607 -0.0738294)
(-0.255747 -0.967344 -0.0640326)
(-0.309225 -0.944818 -0.0576227)
(-0.342341 -0.848966 -0.0421967)
(-0.37809 -0.713626 -0.0378645)
(-0.473784 -0.626907 -0.0366907)
(-0.409869 -0.401514 -0.0340608)
(-0.464842 -0.660853 -0.00581895)
(-0.31667 -0.457678 0.0246022)
(-0.638433 -0.398817 0.00542761)
(-0.815374 -0.379418 0.0601217)
(-0.917891 -0.38454 0.0845888)
(-0.967924 -0.397324 0.12431)
(-0.979898 -0.525404 0.0977408)
(-0.94025 -0.689524 0.0653495)
(-0.923956 -0.750294 0.0524788)
(-0.874461 -0.84862 0.0364232)
(-0.858852 -0.895799 0.0304449)
(-0.82099 -0.928112 0.00759883)
(-0.7037 -0.967804 -0.0230281)
(-0.592517 -1.00237 -0.0420097)
(-0.626757 -0.952973 -0.0172154)
(-0.484963 -0.97202 -0.0307119)
(-0.50286 -0.893721 -0.0301266)
(-0.530472 -0.797249 -0.0232754)
(-0.559306 -0.73103 -0.0194623)
(-0.686415 -0.712605 -0.00980699)
(-0.674971 -0.598285 -0.00778629)
(-0.824142 -0.577352 0.0303287)
(-0.918495 -0.55971 0.0503831)
(-0.881386 -0.697188 0.0231279)
(-0.800418 -0.704746 0.0121841)
(-0.777543 -0.789955 0.00227108)
(-0.660914 -0.798446 -0.0107797)
(-0.635763 -0.882843 -0.0170444)
(-0.748491 -0.866406 -0.00514519)
(-0.825532 -0.850762 0.00442776)
(-0.863161 -0.773162 0.0134958)
(-0.801676 -0.739067 -0.0117887)
(-0.624279 -0.612251 0.00185223)
(-0.847201 -0.659781 0.0116732)
(-0.868189 -0.518438 0.0520421)
(-0.8706 -0.379833 0.0581249)
(-0.843533 -0.282272 0.121579)
(-0.832482 -0.302283 0.0765151)
(-0.879037 -0.350672 0.0525535)
(-0.875385 -0.20393 0.129017)
(-0.8944 -0.18424 0.174059)
(-0.760921 -0.16153 0.158425)
(-0.766719 -0.129074 0.25912)
(-0.778017 -0.120776 0.301884)
(-0.821744 -0.108663 0.355284)
(-0.829256 -0.119282 0.352602)
(-0.642597 -0.18175 0.250983)
(-0.607647 -0.173673 0.248404)
(-0.56771 -0.180507 0.215521)
(-0.551236 -0.175662 0.188902)
(-0.568899 -0.191227 0.120329)
(-0.338398 -0.194817 0.0768192)
(-0.320288 -0.189319 0.101737)
(-0.32946 -0.192023 0.114242)
(-0.360782 -0.19891 0.124387)
(-0.449393 -0.216944 0.141695)
(-0.405427 -0.253432 0.0595942)
(-0.382295 -0.284979 0.0682428)
(-0.410853 -0.341099 0.0469194)
(-0.316121 -0.426994 0.0357617)
(-0.311902 -0.394407 0.0489795)
(-0.28374 -0.416308 0.0154649)
(-0.193065 -0.419547 -0.0206079)
(-0.337281 -0.254148 0.0352832)
(-0.403132 -0.330952 0.0409816)
(-0.248407 -0.457471 -0.00678528)
(-0.291822 -0.459865 0.000151426)
(-0.45197 -0.321263 0.0718346)
(-0.524768 -0.299037 0.131154)
(-0.498174 -0.318703 0.136249)
(-0.471041 -0.336854 0.11131)
(-0.458835 -0.350692 0.0942269)
(-0.493231 -0.373213 0.00853299)
(-0.710807 -0.317841 0.063122)
(-0.717871 -0.529899 0.0388957)
(-0.549046 -0.554454 -0.00184349)
(-0.509934 -0.607151 -0.00409958)
(-0.465707 -0.649445 -0.0175787)
(-0.436946 -0.652705 -0.021278)
(-0.412866 -0.531001 -0.0231109)
(-0.411066 -0.54099 -0.0485355)
(-0.409935 -0.541456 -0.0344537)
(-0.335416 -0.550535 -0.0171635)
(-0.267451 -0.596014 -0.00738784)
(-0.31952 -0.581003 -0.00361045)
(-0.403392 -0.513095 0.00703274)
(-0.331954 -0.535487 -0.00424425)
(-0.438709 -0.630496 -0.0119672)
(-0.292904 -0.473324 -0.00519494)
(-0.210341 -0.539815 -0.0183549)
(-0.281063 -0.52476 -0.0163253)
(-0.394402 -0.436185 -0.000793662)
(-0.413838 -0.362836 -0.0104876)
(-0.260564 -0.394296 -0.0111002)
(-0.156958 -0.423014 -0.0363736)
(-0.136327 -0.399603 -0.0226491)
(-0.238166 -0.2054 0.0223516)
(-0.382567 -0.342957 -0.0020525)
(-0.25171 -0.474704 -0.0197586)
(-0.219044 -0.468124 -0.0236733)
(-0.122087 -0.392953 -0.0299929)
(-0.219254 -0.194547 0.039223)
(-0.346851 -0.338034 0.0121613)
(-0.366252 -0.363376 0.0541659)
(-0.19587 -0.51126 -0.0108475)
(-0.174138 -0.468208 0.0186731)
(-0.110047 -0.420356 0.00197611)
(-0.222399 -0.229142 0.0447324)
(-0.325932 -0.341988 0.0523583)
(-0.335179 -0.339074 0.0569924)
(-0.180686 -0.463393 0.016721)
(-0.109411 -0.409119 0.000144336)
(-0.232061 -0.220549 0.0621758)
(-0.286102 -0.221539 0.0775204)
(-0.240588 -0.230347 0.0712827)
(-0.350467 -0.337127 0.078506)
(-0.189807 -0.465484 0.048392)
(-0.117925 -0.415783 0.0374626)
(-0.140624 -0.449869 -0.00376354)
(-0.196603 -0.497782 0.0257395)
(-0.381834 -0.350784 0.0791521)
(-0.334487 -0.625677 -0.00357143)
(-0.355768 -0.632369 -0.0116416)
(-0.499452 -0.512055 0.0578746)
(-0.651454 -0.444849 0.0982767)
(-0.666925 -0.286859 0.136334)
(-0.798363 -0.271647 0.170499)
(-0.891078 -0.320829 0.166418)
(-1.02094 -0.488924 0.125968)
(-1.1078 -0.495209 0.16772)
(-1.13268 -0.502795 0.192898)
(-1.11268 -0.505107 0.215903)
(-1.04935 -0.50134 0.238792)
(-0.943675 -0.490342 0.260679)
(-0.794622 -0.466955 0.287275)
(-0.639759 -0.431828 0.326858)
(-0.39709 -0.380652 0.395673)
(-0.162082 -0.293179 0.484015)
(0.0441863 -0.15065 0.487516)
(0.338647 -0.158402 0.428177)
(0.339021 -0.215622 0.377745)
(0.205177 -0.127745 0.487094)
(0.272964 -0.00324946 0.766289)
(0.284121 0.0459659 1.03227)
(0.269127 0.0808362 1.14257)
(0.250924 0.13333 1.09248)
(0.212866 0.12267 0.955858)
(0.142204 0.121144 0.704537)
(0.0395742 0.187495 0.405206)
(0.174165 0.513241 0.42521)
(0.420467 0.51441 0.374497)
(0.606577 0.538917 0.375694)
(0.851452 0.497745 0.351366)
(1.00929 0.416757 0.317566)
(1.0727 0.32224 0.274031)
(1.05476 0.254016 0.234696)
(1.00109 0.210446 0.200533)
(1.01749 0.158852 0.168998)
(1.0362 0.118297 0.14576)
(0.978026 0.0919704 0.0914608)
(0.875483 0.0420284 0.0683758)
(0.711095 -0.0232755 0.0545079)
(0.466619 -0.110276 0.0211801)
(0.239746 -0.217227 -0.022992)
(0.100014 -0.61889 -0.110819)
(0.175337 -0.382313 -0.0794352)
(-0.179305 -0.17036 0.00609623)
(-0.0998846 -0.386657 -0.0379902)
(-0.109326 -0.303931 -0.0637478)
(-0.111344 -0.326183 -0.0716689)
(-0.108844 -0.280442 -0.059824)
(-0.0741009 -0.193724 -0.0523834)
(-0.159253 -0.139984 -0.0146225)
(-0.222529 0.267879 0.158978)
(-0.125678 0.484992 0.116277)
(-0.0366358 0.604622 0.0705374)
(0.036524 0.646879 0.0823375)
(0.124638 0.672706 0.176953)
(0.22051 0.725579 0.296822)
(0.312689 0.764237 0.335334)
(0.396263 0.761303 0.367136)
(0.474116 0.697944 0.374586)
(0.540014 0.557778 0.371561)
(0.592448 0.335455 0.337295)
(0.572062 0.00197453 0.263455)
(0.395117 -0.33704 0.258797)
(0.294643 -0.336771 0.320989)
(0.229078 -0.291173 0.330362)
(0.161918 -0.200575 0.335444)
(0.14788 -0.00401349 0.313387)
(0.289077 0.00890216 0.340756)
(0.452116 -0.158256 0.331153)
(0.604611 -0.255648 0.342618)
(0.643662 -0.344667 0.351631)
(0.6244 -0.436523 0.353556)
(0.477514 -0.541305 0.33476)
(0.108279 -0.565981 0.316576)
(-0.170603 -0.298111 0.302345)
(-0.0374005 -0.128543 0.355658)
(0.23085 -0.152682 0.237844)
(0.282068 -0.404649 0.0721398)
(0.00846498 -0.520436 0.238306)
(-0.141468 -0.749817 -0.142587)
(0.200195 -0.720513 -0.481274)
(0.309079 -0.39393 -0.177318)
(0.332005 -0.375638 0.0928101)
(0.346089 -0.545557 0.183069)
(0.328501 -0.889805 0.119655)
(0.53288 -0.872784 0.0647816)
(0.612232 -0.692243 0.098305)
(0.577774 -0.538675 0.13795)
(0.50816 -0.396451 0.188384)
(0.338832 -0.23139 0.246734)
(0.363353 -0.347618 0.194973)
(0.42716 -0.378538 0.142208)
(0.508438 -0.364513 0.0798032)
(0.619948 -0.296825 -0.056938)
(0.86484 0.191897 -0.118567)
(0.909208 0.476802 -0.023149)
(0.854568 0.679825 0.0478301)
(0.756132 0.782519 0.0906472)
(0.629294 0.808892 0.136521)
(0.484403 0.777235 0.154386)
(0.323785 0.712931 0.170978)
(0.15374 0.640081 0.113528)
(-0.0232355 0.593184 0.0540009)
(-0.14912 0.552045 0.0561188)
(-0.27197 0.448037 0.113024)
(-0.402342 0.260147 0.161892)
(-0.288071 -0.0996354 0.0202732)
(-0.408463 0.0424499 0.0762175)
(-0.493282 0.0850767 0.100668)
(-0.531618 0.201954 0.134432)
(-0.542196 0.149186 0.104038)
(-0.502429 0.0139724 0.0253532)
(-0.456241 -0.0581136 0.0138959)
(-0.383569 -0.119861 -0.00807079)
(-0.286989 -0.189531 -0.0212261)
(-0.190808 -0.224453 -0.0351511)
(-0.137359 -0.192029 -0.0257355)
(-0.198795 -0.151858 -0.0179031)
(-0.182591 -0.315865 -0.0292663)
(-0.121606 -0.312052 -0.0417549)
(-0.10046 -0.333207 -0.0686327)
(-0.0795508 -0.368009 -0.10056)
(-0.0485965 -0.560138 -0.219067)
(-0.0896907 -0.499654 -0.1478)
(-0.108192 -0.606259 -0.114639)
(-0.154411 -0.606659 -0.0846543)
(-0.20477 -0.50034 -0.0705768)
(-0.313799 -0.272154 -0.028217)
(-0.216082 0.28716 0.163067)
(-0.077614 0.408392 0.305305)
(0.00762266 0.502166 0.444918)
(0.0761557 0.491613 0.563054)
(0.145153 0.429802 0.624769)
(0.198756 0.316927 0.655082)
(0.249761 0.162653 0.627635)
(0.235809 -0.0169709 0.53186)
(0.105773 -0.138169 0.440848)
(-0.0113942 -0.101749 0.450038)
(-0.0320894 0.0129745 0.427269)
(-0.0342157 0.137042 0.428145)
(0.0371796 0.243777 0.36923)
(0.199134 0.136393 0.384329)
(0.157464 0.272015 0.451472)
(-0.0586699 0.178457 -0.0563026)
(-0.171907 -0.0685508 -0.643947)
(-0.180007 -0.307048 -0.543569)
(-0.167857 -0.345179 -0.308414)
(-0.144205 -0.304269 -0.095849)
(-0.0620339 -0.587968 -0.107303)
(-0.0281402 -0.865841 -0.0940072)
(0.00184413 -1.02264 -0.0910592)
(0.032084 -1.14577 -0.0999184)
(0.0651535 -1.22904 -0.114029)
(0.0954428 -1.28134 -0.127977)
(0.121959 -1.30728 -0.13984)
(0.145917 -1.31518 -0.151801)
(0.166832 -1.31244 -0.164408)
(0.185183 -1.30257 -0.175343)
(0.200932 -1.28713 -0.183962)
(0.215002 -1.26675 -0.189278)
(0.227473 -1.24128 -0.192146)
(0.238851 -1.20949 -0.191146)
(0.248517 -1.17007 -0.186098)
(0.25435 -1.12058 -0.175328)
(0.251541 -1.05815 -0.158665)
(0.194604 -0.995271 -0.138848)
(0.139683 -0.910527 -0.122669)
(0.16431 -0.826705 -0.0869482)
(0.187586 -0.726402 -0.088164)
(0.203728 -0.557998 -0.088048)
(0.246537 -0.441262 -0.0843657)
(0.0720358 -0.0296329 -0.0953958)
(0.36555 -0.297527 0.0435445)
(0.245487 -0.549906 -0.0570755)
(0.285713 -0.094422 -0.0268732)
(0.180441 -0.0366636 -0.147272)
(0.201189 -0.112078 -0.124639)