/*--------------------------------*- C++ -*----------------------------------*\
| =========                 |                                                 |
| \\      /  F ield         | OpenFOAM: The Open Source CFD Toolbox           |
|  \\    /   O peration     | Version:  v2012                                 |
|   \\  /    A nd           | Website:  www.openfoam.com                      |
|    \\/     M anipulation  |                                                 |
\*---------------------------------------------------------------------------*/
FoamFile
{
    version     2.0;
    format      ascii;
    class       volScalarField;
    location    "600";
    object      epsilon;
}
// * * * * * * * * * * * * * * * * * * * * * * * * * * * * * * * * * * * * * //

dimensions      [0 2 -3 0 0 0 0];


internalField   nonuniform List<scalar> 
18258
(
0.0241477
0.0123009
0.00918627
0.00723522
0.0126905
0.0125876
0.0130424
0.0173862
0.0242068
0.0370464
0.0536078
0.0481673
0.0435346
0.0452677
0.0474314
0.0450058
0.0350671
0.0303402
0.0400651
0.0667373
0.0607597
0.0496852
0.0607142
0.0514543
0.0659912
0.0835224
0.0640714
0.0575309
0.0516151
0.048574
0.0421005
0.0243488
0.0343417
0.052858
0.0724407
0.0792974
0.0850792
0.0899644
0.0950719
0.0971758
0.0974078
0.092167
0.0829578
0.0677338
0.0496397
0.0379567
0.029064
0.0320969
0.0449674
0.0452913
0.0558433
0.0856699
0.108012
0.0810154
0.051854
0.0826497
0.11262
0.144356
0.170845
0.193269
0.20096
0.197515
0.185968
0.169223
0.147766
0.122772
0.101776
0.0848512
0.0670648
0.0572692
0.0463214
0.0384123
0.0328478
0.0291894
0.0269892
0.0252668
0.0241043
0.0250329
0.0249188
0.0177719
0.0139799
0.0131328
0.00939543
0.0078094
0.00812654
0.00773213
0.00803129
0.00709063
0.00607344
0.00527301
0.00447086
0.00651122
0.00700618
0.00724715
0.00726562
0.00778721
0.00803363
0.00776461
0.00785716
0.00718447
0.00748869
0.0119739
0.0137242
0.0174096
0.0155796
0.0108369
0.00903735
0.0100821
0.0106998
0.0133185
0.0125583
0.0133368
0.0118299
0.010804
0.00912096
0.00885419
0.00908626
0.00965785
0.0100591
0.0116673
0.0115004
0.0106696
0.0117995
0.013016
0.0127407
0.0121914
0.011604
0.0142401
0.0114414
0.0121238
0.0136177
0.0219412
0.0214693
0.0259585
0.025481
0.0259184
0.0260997
0.0314724
0.0315935
0.0319688
0.0322877
0.0340231
0.0569811
0.0507644
0.049657
0.0494631
0.0428008
0.0423395
0.0416541
0.0424691
0.0359903
0.0346431
0.0314165
0.0310571
0.0346577
0.043779
0.0612544
0.088503
0.122443
0.158784
0.189063
0.210064
0.231825
0.237204
0.251115
0.25586
0.256818
0.251203
0.242815
0.233384
0.220561
0.20202
0.18915
0.14873
0.10533
0.0592478
0.0786532
0.0907548
0.100537
0.102428
0.103566
0.0994368
0.0931121
0.081861
0.0662022
0.0429585
0.0490484
0.0663396
0.0685596
0.069236
0.05489
0.0527807
0.0489584
0.0488963
0.0641559
0.0737407
0.0620353
0.0858759
0.100845
0.0881378
0.0638526
0.0978398
0.144108
0.0810818
0.0690494
0.0536056
0.052633
0.0445177
0.0373283
0.0628035
0.0940066
0.129507
0.150838
0.172659
0.190261
0.203515
0.217519
0.189089
0.171718
0.115584
0.202444
0.153973
0.0780768
0.0579495
0.0568799
0.0431782
0.0496845
0.0552303
0.0512573
0.0392532
0.0274706
0.025242
0.0466718
0.0650898
0.0787405
0.0626609
0.0797436
0.0900048
0.0972758
0.102668
0.130037
0.0957319
0.106673
0.0767036
0.103971
0.0739519
0.0477439
0.0528961
0.10124
0.161414
0.221113
0.257892
0.147124
0.0747325
0.0556165
0.0559431
0.0536797
0.0484372
0.0601322
0.106822
0.0720964
0.0468104
0.0406576
0.0480715
0.0408282
0.0304046
0.0318386
0.0395679
0.0551654
0.0698566
0.0827228
0.125999
0.121785
0.14698
0.154571
0.130144
0.125694
0.0811667
0.0834622
0.123198
0.0917606
0.0741532
0.104023
0.147034
0.201238
0.247613
0.288091
0.313999
0.303407
0.274487
0.17363
0.0760068
0.0228744
0.0177844
0.0168319
0.0173063
0.0105165
0.0062947
0.00584749
0.00666201
0.00700962
0.00591087
0.00544125
0.00543237
0.00577773
0.0101765
0.0087453
0.0108196
0.013108
0.0156533
0.018694
0.01942
0.0128849
0.00872132
0.00818415
0.00811953
0.00805012
0.00801998
0.00803064
0.00806989
0.00808477
0.00805178
0.00797294
0.00783625
0.00770152
0.00764516
0.00828163
0.0111712
0.0153319
0.0148264
0.0135381
0.0121845
0.0110252
0.00869867
0.0151327
0.0128313
0.0109245
0.0133802
0.0164825
0.0208306
0.0244748
0.0176536
0.0141336
0.012792
0.0126668
0.012553
0.0125989
0.0124772
0.0125428
0.0123454
0.0129432
0.0135694
0.0169682
0.0189946
0.0211737
0.022672
0.0232537
0.0239687
0.0211312
0.0229617
0.0227218
0.0235019
0.0233153
0.0226241
0.0207044
0.0189131
0.0176918
0.0191049
0.0236663
0.032309
0.0267067
0.0207248
0.0167673
0.0137115
0.0149807
0.0166568
0.0168319
0.0158448
0.015617
0.0154087
0.0138866
0.013096
0.0110951
0.0104843
0.0100229
0.0101728
0.0143559
0.013504
0.0137043
0.0144357
0.0155236
0.0146819
0.0151163
0.0142768
0.014523
0.0149418
0.0170102
0.0185667
0.0178089
0.0164954
0.0159968
0.0137266
0.0158321
0.0156932
0.0170142
0.0185984
0.0190879
0.0190226
0.0183855
0.0167871
0.018679
0.0220462
0.0256964
0.0246974
0.0243785
0.0204383
0.0192398
0.0202124
0.0214856
0.0223937
0.0224673
0.0222961
0.0223815
0.0263844
0.0260299
0.0248302
0.0227531
0.0202977
0.017646
0.0151976
0.0166745
0.0181558
0.0195466
0.0208146
0.0205788
0.0190522
0.0176936
0.0164623
0.0149674
0.0146782
0.016133
0.0173557
0.0187868
0.0205005
0.0205752
0.0188629
0.017368
0.0160852
0.0146102
0.0145605
0.0160618
0.0173605
0.0187772
0.02026
0.0196268
0.0184736
0.0172235
0.0159808
0.0145276
0.0145938
0.0159163
0.0169853
0.0180682
0.0190169
0.0198689
0.0179093
0.0169994
0.017091
0.0161021
0.0192828
0.0185267
0.01947
0.0180187
0.0167954
0.0178011
0.0209907
0.0240224
0.0245722
0.0242921
0.02016
0.0206159
0.0205939
0.0191773
0.0159557
0.0153577
0.018127
0.020863
0.021324
0.0200167
0.0169167
0.0132793
0.0142987
0.0174582
0.0197687
0.0185139
0.0183528
0.0169389
0.0158606
0.0161593
0.0138789
0.0166176
0.0266847
0.0241522
0.0221309
0.0196549
0.0156487
0.0105931
0.0114923
0.0126483
0.0130654
0.0105642
0.0079092
0.0071005
0.00690576
0.00674606
0.00652597
0.00615613
0.00559731
0.00536569
0.0106282
0.02592
0.036492
0.0358388
0.0241251
0.0208243
0.0202125
0.0189808
0.00943391
0.00820987
0.0084498
0.0103876
0.00816122
0.00863859
0.0149664
0.0102243
0.0139786
0.0108122
0.0146543
0.0229923
0.0218052
0.0144783
0.0080166
0.00687457
0.00736384
0.00765087
0.0078558
0.00805371
0.00828871
0.00867645
0.00999957
0.0157251
0.0202935
0.0177516
0.0167588
0.0152873
0.0188288
0.0213134
0.0232521
0.0260108
0.0160824
0.011772
0.0166182
0.027239
0.0247288
0.0232719
0.0171433
0.0176815
0.0171091
0.0109992
0.0106531
0.0105733
0.0113863
0.0127706
0.014695
0.0158605
0.0166113
0.0169409
0.0178515
0.0231258
0.0216439
0.0211356
0.0173627
0.0133988
0.0153792
0.0515234
0.0195561
0.0206729
0.0188953
0.0191636
0.0204459
0.0151536
0.0135153
0.0129412
0.0146481
0.0215259
0.0215266
0.0213827
0.0182398
0.0174535
0.0208849
0.0219803
0.0223888
0.0217644
0.0213144
0.0194473
0.0166669
0.0180956
0.0196117
0.0208066
0.0228169
0.0231642
0.0179435
0.0172175
0.0158239
0.0105324
0.0112776
0.00971383
0.00968294
0.00964704
0.00937358
0.00892335
0.00921158
0.00932995
0.00932829
0.00898173
0.00927954
0.00832614
0.00866318
0.00975383
0.0151962
0.0147647
0.0175594
0.0194684
0.0167175
0.0155602
0.0141999
0.0131789
0.0154279
0.014266
0.0168408
0.0211871
0.0264698
0.0191073
0.0181114
0.0178855
0.0174791
0.0173193
0.01737
0.016678
0.0156785
0.0151132
0.0235562
0.0212608
0.0181419
0.0171946
0.0157638
0.0180129
0.0174573
0.0213504
0.0268259
0.0270275
0.0215159
0.0215918
0.0189405
0.0200432
0.022228
0.0270587
0.026985
0.0144166
0.00958113
0.0154185
0.0157598
0.018368
0.016987
0.0185128
0.0196906
0.0204199
0.0202807
0.0176828
0.0188593
0.0196478
0.0206352
0.018583
0.0165776
0.0173661
0.0161434
0.0152436
0.0147428
0.0126702
0.0129162
0.0138869
0.0153377
0.0162788
0.0177716
0.0194254
0.0194557
0.0201239
0.019718
0.0191236
0.0252227
0.0239787
0.0255196
0.0282342
0.0224391
0.0178036
0.0146806
0.0149917
0.0147565
0.0146633
0.0154044
0.0167623
0.0151388
0.0145215
0.0170335
0.0193936
0.0246635
0.0330273
0.0287596
0.0261921
0.0332088
0.031376
0.0382227
0.028659
0.0281342
0.0208405
0.0262798
0.0305013
0.0391949
0.0255028
0.0209451
0.0224061
0.0255307
0.0347768
0.0327831
0.0331448
0.0411867
0.0399583
0.0361998
0.0311759
0.0353505
0.0212392
0.0301906
0.0322221
0.0268157
0.0257013
0.0307371
0.0310712
0.033013
0.0283747
0.0267706
0.0179081
0.0274402
0.0313772
0.0330798
0.0278213
0.0205282
0.028014
0.0205427
0.0191791
0.0202905
0.0137628
0.0127101
0.0147846
0.0138564
0.011184
0.0121339
0.0111556
0.0111435
0.0112258
0.0113421
0.0114758
0.0117332
0.0117002
0.0127158
0.013327
0.0126147
0.0115422
0.0122007
0.0125684
0.016079
0.0181668
0.0204332
0.022027
0.0228725
0.0240215
0.0227321
0.0248102
0.023674
0.0251916
0.0248863
0.0237875
0.0212283
0.0185664
0.016158
0.0166823
0.0203303
0.0267825
0.0219763
0.0170497
0.013822
0.0114824
0.0127777
0.015981
0.00862329
0.00781541
0.00748134
0.00726419
0.00705822
0.00613476
0.00556173
0.00869249
0.0131497
0.0166042
0.0208767
0.0266215
0.0324453
0.0374458
0.0413225
0.0442254
0.0461273
0.046691
0.0440386
0.0340286
0.0292937
0.0251689
0.0208078
0.0168851
0.0169262
0.0246632
0.0322816
0.0397437
0.046294
0.0511748
0.0492394
0.0329422
0.0300761
0.0467071
0.0784387
0.0745413
0.0976983
0.111018
0.0628843
0.0463958
0.0451938
0.0620261
0.064647
0.0567245
0.0468626
0.0367075
0.0265612
0.0311402
0.0356273
0.0399018
0.0444425
0.0576289
0.0603187
0.0589371
0.0560263
0.0523896
0.0478144
0.041359
0.0334269
0.025392
0.0191838
0.0143841
0.0092673
0.00698362
0.00803703
0.00734543
0.0103537
0.00923669
0.00834873
0.00792715
0.00810018
0.00788546
0.00798772
0.00701077
0.00631878
0.010271
0.00943645
0.00931737
0.00983945
0.0131649
0.0100878
0.00745797
0.0069779
0.00689024
0.00810507
0.0195793
0.0257954
0.0306379
0.0350249
0.0377503
0.0365154
0.0333941
0.0281306
0.0225567
0.0203426
0.0172934
0.0146692
0.0133615
0.014594
0.0120466
0.00607602
0.00520295
0.0057198
0.00558479
0.00511504
0.00615293
0.00684576
0.00745903
0.00787966
0.00818572
0.00823952
0.00817088
0.00807406
0.00802394
0.00799846
0.00796518
0.00789623
0.00779762
0.00765338
0.00751584
0.00745135
0.00804276
0.0106546
0.0145789
0.014356
0.0132448
0.0121383
0.0112803
0.00956375
0.0153998
0.013074
0.0109595
0.010133
0.00998341
0.0102745
0.011225
0.0128515
0.0137637
0.0157494
0.0157949
0.0156999
0.0159918
0.0157753
0.0131982
0.0149376
0.0176274
0.0184457
0.0190485
0.0188135
0.0172816
0.0192846
0.0204237
0.0198784
0.0192735
0.0164312
0.0191055
0.0230727
0.0235133
0.0237868
0.0211408
0.0183252
0.0214596
0.0226127
0.0222041
0.0230755
0.0212408
0.0219769
0.0278156
0.0141595
0.0127667
0.00766851
0.00870421
0.00891431
0.0085676
0.00821947
0.00850159
0.00868865
0.00845387
0.00915793
0.00949299
0.00885958
0.0114962
0.0105242
0.0100483
0.00944787
0.0100341
0.0107481
0.0110946
0.0122596
0.0196229
0.0200761
0.0182285
0.0206722
0.0213129
0.0179831
0.0203898
0.0212861
0.0215315
0.0218739
0.0233877
0.0219861
0.0243358
0.0235416
0.0221938
0.0214308
0.0380518
0.0251225
0.0165347
0.0151731
0.0147685
0.0148109
0.0166614
0.0124913
0.0140047
0.00984065
0.00851943
0.00813768
0.00784096
0.00867311
0.0119767
0.0194188
0.0255449
0.0276282
0.0264868
0.0234211
0.0182955
0.0140214
0.0135743
0.0122013
0.0112987
0.0110923
0.00747704
0.00518311
0.0064922
0.00659693
0.00717858
0.00758648
0.00791597
0.00816083
0.00829007
0.00834945
0.00841632
0.00852173
0.00863848
0.00873909
0.0088176
0.00887351
0.00893367
0.00905067
0.00935278
0.0105453
0.0151947
0.0196014
0.0185172
0.017061
0.0157543
0.0165125
0.0172683
0.0180194
0.0222033
0.0190759
0.0219698
0.0206011
0.0196087
0.0182075
0.0189324
0.0207153
0.0164714
0.0163878
0.0111521
0.00973136
0.0093568
0.00914524
0.00898108
0.0088215
0.00867534
0.00854501
0.00842246
0.0083172
0.00823679
0.00816484
0.00803136
0.00779361
0.00740786
0.00697976
0.00621201
0.0068826
0.00736275
0.00829348
0.009528
0.0102176
0.00965947
0.00880931
0.00835302
0.00840144
0.00856302
0.00875217
0.00897078
0.00927243
0.00974098
0.0107083
0.0113904
0.016039
0.0167634
0.0200907
0.0199102
0.0178241
0.0171765
0.0187972
0.017347
0.012656
0.017348
0.0168472
0.021054
0.0155958
0.0146918
0.0150698
0.0155376
0.0182359
0.0171394
0.0156779
0.0156595
0.0126052
0.0141573
0.0161568
0.0176588
0.0278769
0.0272992
0.0343973
0.0343453
0.0593439
0.0564312
0.0497197
0.0538459
0.0237114
0.0463912
0.0542769
0.0494432
0.0428841
0.0272909
0.0436682
0.0665658
0.0963772
0.0694238
0.0567497
0.105592
0.0766733
0.0373336
0.0265594
0.0149969
0.0150943
0.0250446
0.029091
0.024096
0.0232352
0.0334225
0.034791
0.0279953
0.0286893
0.0310704
0.0300097
0.0324584
0.0280743
0.0274044
0.0155049
0.0127191
0.0137389
0.0154554
0.0164539
0.0159415
0.01678
0.0174532
0.0160285
0.0150139
0.014467
0.0124151
0.013165
0.0161358
0.0203359
0.0238298
0.0172033
0.0138193
0.0125233
0.0123306
0.0121066
0.0119904
0.0116734
0.0114904
0.0110251
0.0112352
0.00977544
0.00978201
0.0103135
0.0104737
0.0106748
0.0108302
0.0109518
0.0110643
0.0119345
0.0186862
0.025862
0.0206971
0.0164086
0.0139421
0.015124
0.0170338
0.0209137
0.0263091
0.0177636
0.0175817
0.0114571
0.0106743
0.0104643
0.0102931
0.0101424
0.0100471
0.0101103
0.0101197
0.0118586
0.0115356
0.0135474
0.0146287
0.012085
0.0116527
0.0111799
0.0108919
0.0107328
0.0106466
0.0107343
0.011593
0.0114249
0.0104987
0.0104069
0.0105298
0.0107466
0.0110741
0.0115271
0.0120389
0.0129615
0.0127327
0.0111818
0.011168
0.0105044
0.010191
0.00995884
0.00993496
0.00998662
0.0101287
0.0103539
0.0112648
0.0170402
0.0172222
0.0265164
0.0265033
0.0210742
0.0176211
0.0154796
0.0142345
0.0135076
0.0350433
0.0307838
0.048768
0.0388835
0.0311241
0.0505116
0.0718715
0.0558238
0.0909466
0.0982696
0.0724194
0.0656275
0.0208509
0.0158893
0.015397
0.0168768
0.018557
0.0211746
0.0217642
0.0265515
0.0286431
0.0170941
0.0164194
0.0154955
0.0247784
0.022967
0.0196044
0.0177327
0.0163567
0.0188949
0.0206759
0.0148961
0.0149391
0.00961982
0.0106126
0.0103632
0.010019
0.00989523
0.00981696
0.00984837
0.00994685
0.0102315
0.0107336
0.0111243
0.0112923
0.0116428
0.0114307
0.0111521
0.0108221
0.010625
0.0104288
0.0102685
0.0101445
0.0101749
0.0104888
0.0106334
0.00932996
0.00967607
0.00978749
0.00980401
0.0098417
0.00981364
0.0096852
0.00948847
0.00930102
0.00910077
0.00914251
0.0098956
0.0100185
0.0100626
0.00989809
0.00977868
0.00976853
0.00971184
0.00970635
0.00970647
0.00959153
0.00928046
0.00856276
0.00841534
0.00901304
0.00935297
0.00952422
0.00959925
0.00957272
0.00950896
0.00928139
0.00911425
0.00891969
0.00859665
0.00817093
0.00682274
0.00709474
0.00744464
0.00793175
0.00843466
0.0088752
0.00916909
0.0093205
0.00940411
0.00931725
0.0090237
0.00849686
0.00844309
0.00883483
0.00901843
0.00898354
0.0087296
0.00833002
0.00777535
0.00708312
0.00641102
0.00589653
0.0056532
0.00525849
0.00656036
0.00712931
0.0076568
0.00814479
0.00861294
0.00912111
0.00933296
0.009406
0.0093913
0.00924278
0.008918
0.00839608
0.00840314
0.0088742
0.00917909
0.00929883
0.00928086
0.00908084
0.00866801
0.00777721
0.00698758
0.00635093
0.00578224
0.00520796
0.0051175
0.00537179
0.00514392
0.00535138
0.0059314
0.00673228
0.0075061
0.00810329
0.00852103
0.00869726
0.00864122
0.00838711
0.00829086
0.00841817
0.00836733
0.00806997
0.00751026
0.0067708
0.00597172
0.00533946
0.00515588
0.00548373
0.00582032
0.00550864
0.00437908
0.00491872
0.00545848
0.0060365
0.00693199
0.0080891
0.00868419
0.00900479
0.00917081
0.00911414
0.00883214
0.00839752
0.00838033
0.00879825
0.00907106
0.00910794
0.00896323
0.00865832
0.00815436
0.00674647
0.00532313
0.00471484
0.00438002
0.00394096
0.00558342
0.00594939
0.00552288
0.00524739
0.00568501
0.00623231
0.00686502
0.00738135
0.00780492
0.00810401
0.00820068
0.0081645
0.00803426
0.00804278
0.00799262
0.00779123
0.00754374
0.00732732
0.00688262
0.00642917
0.00590496
0.00646239
0.00676103
0.0063302
0.00464652
0.0049289
0.00533647
0.00558008
0.00697813
0.00839629
0.00882381
0.00899635
0.00915473
0.00910279
0.00879713
0.00836167
0.00834877
0.00886305
0.00924586
0.00935571
0.00941913
0.00946622
0.00952185
0.00837442
0.0065718
0.00618051
0.00524559
0.0048036
0.00664923
0.0070822
0.00687395
0.00660241
0.00753315
0.00792622
0.00807877
0.00810128
0.00811727
0.00808901
0.0079942
0.00791999
0.00780713
0.00825241
0.00889223
0.00879598
0.00869615
0.00853045
0.0081636
0.00771302
0.00720902
0.0078885
0.00846205
0.00818202
0.00594355
0.00630862
0.00713848
0.00724976
0.00868009
0.00985533
0.0102108
0.0102556
0.0101974
0.0102113
0.00923013
0.00831695
0.00817338
0.00951491
0.0154293
0.015281
0.0153322
0.0152794
0.0147157
0.0145549
0.0139973
0.0137513
0.0130603
0.0126263
0.0119421
0.013983
0.0177009
0.0197718
0.0221448
0.0246408
0.0233794
0.0189162
0.0167084
0.0102004
0.00804509
0.00694193
0.00600219
0.00529727
0.00509208
0.00752288
0.00936839
0.0115399
0.0135201
0.0138327
0.0162688
0.0202246
0.0307971
0.0489682
0.0413883
0.0391124
0.0400403
0.100784
2.5572
2.77926
2.51528
2.92013
3.34048
0.405195
0.155347
0.288365
0.307654
0.345201
0.325424
0.296524
0.270705
0.283737
0.272268
0.284917
0.265396
0.271435
0.236289
0.236962
0.233111
0.621893
0.998755
1.21388
1.70138
1.71639
1.9367
1.897
1.92085
1.77839
1.89616
1.64864
1.36779
1.29185
1.21926
1.30917
1.42338
1.23591
1.12109
1.00749
0.917035
0.784685
0.995935
0.756022
0.714442
0.712834
0.74437
0.990892
0.900273
1.03781
0.973688
1.03211
0.634936
0.713194
0.524134
0.436751
0.362759
0.435569
0.584645
0.772843
0.951325
0.728409
0.981699
0.902468
0.884275
0.843666
0.770998
0.732708
0.721067
0.742464
0.755135
0.77032
0.797583
0.818361
0.835991
0.98624
1.04845
1.03662
0.849002
0.760205
0.52619
0.563369
0.597905
0.601836
0.561781
0.542425
0.489105
0.47641
0.430743
0.41257
0.373838
0.35554
0.32368
0.447663
0.767329
0.796927
0.865592
0.91967
0.968453
0.990741
1.00637
0.989287
0.955852
0.888873
0.861128
0.799962
0.906044
1.09026
1.09213
1.00612
0.854461
0.809947
3.74521
4.54849
3.01722
6.48495
9.80913
16.4197
7.57826
2.07807
3.46936
2.38425
2.11728
2.06384
2.17749
3.42864
2.50604
3.28701
2.70549
2.88204
2.20491
2.56139
2.45322
1.88909
1.59375
1.3518
1.26038
1.02986
1.03678
0.849783
0.797417
0.723414
0.592464
0.709061
0.680893
1.55376
2.22472
2.78327
4.37736
4.81535
5.26583
8.3376
6.78615
8.53429
5.09137
5.13258
3.79739
3.57464
3.61456
4.97244
7.08506
4.88789
8.51852
4.75808
15.4808
34.5956
9.22186
19.0339
10.9885
9.94374
9.58965
9.88446
14.0416
9.54655
15.5514
12.9551
17.2179
16.5244
17.8401
14.0052
10.364
11.4106
12.2625
15.7459
11.3054
13.2283
10.0984
9.89828
9.19927
7.56853
6.66022
5.0571
5.86585
6.90941
7.84167
12.3661
15.5793
17.9446
21.6446
16.0369
18.3196
11.0407
12.0886
9.3493
8.77058
8.8996
11.7108
20.8254
14.7679
26.9137
0.496092
0.225823
0.543712
0.229366
0.487624
0.390715
0.40331
0.404265
0.399804
0.461421
0.22
0.185034
0.177326
0.17519
0.176703
0.100202
0.124392
0.0804019
0.126903
0.228994
0.502463
0.364739
0.140404
0.0825967
0.054592
0.04294
0.0634492
0.0612424
0.097938
0.0992873
0.105575
0.131995
0.227377
0.431905
31.6142
7.10569
1.11964
0.522666
0.281837
0.1725
0.14632
0.16512
0.177257
0.179518
0.168037
0.142149
0.101544
0.0670099
0.0447649
0.0374683
0.0273542
0.0290323
0.0398454
0.0533717
0.049316
0.0649129
0.0832447
0.10595
0.130162
0.149505
0.164096
0.168081
0.156088
0.122167
0.0803696
0.0442955
0.0264883
0.0228496
0.0209253
0.0194339
0.0167931
0.0145907
0.0131669
0.0112531
0.00991967
0.00894883
0.00863453
0.00875707
0.00955712
0.012089
0.0145486
0.0188371
0.0179567
0.0134451
0.012611
0.00781272
0.00722421
0.00737274
0.00762435
0.00845401
0.0132311
0.0135401
0.0134185
0.0134483
0.0132655
0.0132482
0.013077
0.0129032
0.0126825
0.0122564
0.0119666
0.0114472
0.0111683
0.0105168
0.0105446
0.0109297
0.0112378
0.0101748
0.0100749
0.00936618
0.0202227
0.0484083
0.0698911
0.0783205
0.0880948
0.0808581
0.041748
0.0228612
0.00788687
0.00773933
0.00823117
0.00889179
0.00843966
0.00615659
0.00668465
0.00784439
0.0109602
0.0108148
0.0108424
0.0125626
0.013061
0.014406
0.0149349
0.0153474
0.0155762
0.0155815
0.0157266
0.0155267
0.015642
0.015498
0.0156013
0.0152166
0.0270242
0.0254122
0.0260443
0.0260189
0.0270656
0.0265336
0.0259927
0.0250242
0.0242755
0.0227983
0.0212301
0.0197453
0.0177575
0.0185286
0.0179239
0.0112147
0.0106648
0.00771347
0.00770643
0.0074175
0.010329
0.00939231
0.00789515
0.00930159
0.00677938
0.00694942
0.00728332
0.0103624
0.0108825
0.017281
0.017205
0.0152074
0.0161203
0.0171017
0.0183603
0.0194943
0.020873
0.0218957
0.0229716
0.0247878
0.0252278
0.0236432
0.0233718
0.0223592
0.0243163
0.0233282
0.0215574
0.0230179
0.0245715
0.0269269
0.0265749
0.0244955
0.0231992
0.0217887
0.0195357
0.0169638
0.0156638
0.014715
0.0147829
0.0138116
0.0162012
0.0147109
0.0101682
0.0103753
0.0077841
0.00628555
0.00606323
0.00923892
0.0130992
0.0279891
0.0174402
0.00929909
0.010004
0.016025
0.0328982
0.0188434
0.0304786
0.0139767
0.0136871
0.0126095
0.0124789
0.0137545
0.0160025
0.0169851
0.0205432
0.0231505
0.0250982
0.0259755
0.0273
0.0276774
0.0290659
0.0294944
0.0320872
0.0323399
0.0324304
0.0319841
0.0297763
0.0267813
0.0247148
0.0305026
0.0353095
0.0383845
0.0407433
0.0430934
0.0418359
0.038285
0.0374443
0.0355684
0.0344876
0.0330986
0.0300716
0.0263123
0.0215935
0.0210772
0.0270028
0.0326539
0.0488178
0.0524915
0.052233
0.0545346
0.0550058
0.0567124
0.0571221
0.0597184
0.0602684
0.0613911
0.0617129
0.066728
0.0675871
0.0685772
0.068884
0.0686777
0.0696839
0.0697125
0.0473429
0.0424587
0.0386102
0.0320816
0.0269357
0.0341172
0.0424446
0.0475029
0.0725561
0.0730757
0.076746
0.0793381
0.084211
0.0878657
0.092708
0.0971899
0.101592
0.10506
0.107164
0.107622
0.108157
0.107365
0.106142
0.115015
0.149437
0.165933
0.196353
0.211361
0.224246
0.22867
0.219699
0.223277
0.214953
0.217398
0.210807
0.208596
0.203008
0.196416
0.192618
0.186047
0.181856
0.209708
0.15792
0.121034
0.0808275
0.0651007
0.0571321
0.0523361
0.0564214
0.0433651
0.0366637
0.0560306
0.0510587
0.040315
0.0265116
0.0188083
0.0321564
0.0475728
0.0643225
0.0815058
0.0972044
0.107472
0.11005
0.108978
0.104259
0.0964693
0.0813657
0.0613133
0.0421636
0.034772
0.0320835
0.028123
0.0221842
0.0178329
0.0157177
0.0141335
0.0123691
0.0111209
0.0105662
0.01072
0.0110295
0.0132267
0.0173075
0.0172997
0.011597
0.0111526
0.00767285
0.00776067
0.00801819
0.0133364
0.0134834
0.0209108
0.0233594
0.0220003
0.0226889
0.0224224
0.0227155
0.0223579
0.021166
0.0203299
0.0193591
0.0185216
0.0177839
0.0169687
0.0161779
0.0175018
0.0164598
0.0138701
0.0139789
0.0145843
0.0152243
0.0161044
0.0173646
0.0184389
0.0211312
0.0213016
0.0208025
0.0208962
0.01943
0.0187126
0.0199687
0.0194919
0.0132782
0.0131012
0.019126
0.0187723
0.0186628
0.0224743
0.0208965
0.021419
0.0225501
0.0224447
0.0195104
0.0181539
0.0166022
0.0154288
0.0140591
0.0125539
0.0121853
0.0149468
0.0131895
0.0108127
0.0119928
0.0144017
0.0170127
0.0184696
0.0204518
0.0231643
0.0241268
0.0263664
0.0277856
0.0298789
0.0307143
0.0355176
0.0361755
0.0340221
0.0321763
0.0311765
0.0274054
0.0234871
0.0259027
0.026774
0.0271506
0.027266
0.0271442
0.0235698
0.0231392
0.0216249
0.0211086
0.0195351
0.0189795
0.0178229
0.0170661
0.0160488
0.0142223
0.0134646
0.0126544
0.012305
0.0173614
0.0108552
0.0106116
0.0160144
0.00987606
0.0116207
0.0113608
0.0118733
0.0125185
0.0103698
0.0151727
0.010359
0.0112433
0.0114504
0.0143312
0.00989964
0.0198725
0.0625188
0.0921086
0.110933
0.201671
0.241988
0.262357
0.283051
0.29735
0.313312
0.330892
0.348538
0.361595
0.363048
0.337478
0.319025
0.254273
0.227661
0.251396
0.281486
0.194134
0.166566
0.168848
0.169688
0.172271
0.173524
0.17717
0.175143
0.180213
0.175878
0.183154
0.17716
0.183631
0.176245
0.160942
0.144366
0.111919
0.101199
0.0652699
0.0505538
0.0395569
0.0287257
0.0209412
0.0187972
0.0177952
0.0164504
0.0165347
0.0126703
0.0130985
0.00839319
0.00616367
0.00985748
0.00969934
0.00721706
0.00982858
0.0112265
0.0117383
0.0122739
0.0125665
0.0192158
0.0192466
0.0246443
0.0245533
0.0291227
0.0347291
0.0359772
0.0396261
0.056998
0.0575152
0.0572595
0.0570858
0.0566619
0.0494466
0.0491657
0.0480627
0.0474786
0.0445375
0.0439852
0.0419064
0.040772
0.0378232
0.0370027
0.0358727
0.0363006
0.0401728
0.0548253
0.0969269
0.0291442
0.0276425
0.0203387
0.0145082
0.0212554
0.0159051
0.015411
0.0136013
0.0187016
0.0134482
0.0137056
0.0165151
0.0170262
0.0164055
0.0213185
0.0266155
0.0233708
0.0257396
0.115192
0.0728922
0.0238833
0.0472725
0.0711009
0.156794
0.203281
0.138945
0.158736
0.182826
0.165965
0.139328
0.108581
0.0810259
0.0571785
0.0437884
0.0114189
0.013354
0.0184559
0.0402641
0.0598735
0.101221
0.0830463
0.108573
0.148339
0.172711
0.208624
0.200069
0.172049
0.148097
0.145133
0.160634
0.162072
0.104337
0.101336
0.0773591
0.173603
0.218892
0.184036
0.230866
0.24327
0.14195
0.0315978
0.018376
0.0151246
0.0139208
0.0124455
0.0193922
0.0114658
0.0116533
0.0123657
0.0132811
0.0169596
0.0293489
0.0134512
0.0149277
0.0183415
0.0158932
0.0149157
0.0146435
0.0145533
0.0151733
0.0165332
0.0215649
0.0216503
0.0213075
0.0159858
0.0172772
0.0156942
0.0199996
0.0212054
0.0333216
0.0152547
0.0161972
0.0214937
0.478506
0.0246265
0.0178195
0.0232023
0.0218761
0.0301123
0.0437965
0.457098
0.0439728
0.0350771
0.0585903
0.0608832
0.0655615
0.0692322
0.0727492
0.0752636
0.0792149
0.081858
0.0830982
0.0843445
0.0999929
0.0999596
0.0988852
0.103485
0.0975955
0.0576537
0.0578608
0.0973866
0.105109
0.0594
0.0410024
0.0384854
0.0311865
0.0323085
0.04184
0.0439211
0.0616216
0.0614489
0.102486
0.09346
0.0948615
0.0966216
0.0916284
0.0921071
0.0941659
0.0941952
0.0754482
0.0731232
0.0713547
0.0683173
0.0647737
0.0618714
0.058946
0.0558389
0.0531658
0.0531824
0.0578022
0.0583096
0.0658883
0.0725115
0.219104
0.148701
0.106329
0.0791041
0.0646487
0.0587414
0.0584363
0.0616712
0.0649231
0.0665686
0.0673765
0.070757
0.0924881
0.094823
0.0976784
0.0951245
0.0989329
0.0969781
0.0945143
0.104411
0.112221
0.06559
0.0676643
0.0477434
0.044532
0.0324952
0.0330507
0.0235963
0.0195713
0.0195592
0.0195386
0.0197606
0.0226393
0.0316262
0.0317312
0.0463484
0.046261
0.0516942
0.0752949
0.0723594
0.129045
0.118288
0.108617
0.101307
0.101684
0.10382
0.106426
0.101427
0.0978123
0.0922736
0.0724933
0.0684713
0.0663317
0.0650717
0.0637241
0.0670042
0.0899075
0.145211
0.222205
0.326877
0.427302
0.438656
0.397572
0.247374
0.287856
0.142889
0.163604
0.185347
0.160602
0.169319
0.31817
0.264451
0.37398
0.479193
0.53286
0.599036
0.635638
0.623372
0.494218
0.32063
0.327912
0.437043
0.765251
0.858543
0.741955
0.759936
0.656675
0.53909
0.52079
0.496247
0.559998
0.610929
0.576554
0.593597
0.537952
0.513887
0.444069
0.495446
0.361985
0.326065
0.306524
0.297712
0.35675
0.28872
0.325217
0.267345
0.273627
0.222404
0.227932
0.190281
0.145685
0.13813
0.128064
0.143393
0.162585
0.148965
0.153476
0.134019
0.114613
0.0912572
0.0984841
0.0735619
0.0695287
0.0704702
0.0800482
0.125121
0.366749
0.172812
0.163371
0.167681
0.177879
0.319476
0.282867
0.723617
0.507085
0.708943
0.473915
0.562374
0.470536
0.36297
0.378489
0.418259
0.59849
0.821743
6.65132
0.2847
4.26225
3.16446
3.32333
3.46919
4.447
7.80661
7.10999
9.38894
6.80503
9.0802
4.97624
4.97513
4.32579
4.47109
4.43839
4.26075
5.18684
6.61896
0.238266
0.0909376
0.0854202
0.0856083
0.0873844
0.197753
0.0525598
0.201972
0.0539522
0.213406
0.0495044
0.246595
0.196852
0.0382324
0.0192573
0.0200891
0.016807
0.0203748
0.0169228
0.0250472
0.023542
0.023698
0.0265782
0.0761487
0.291555
13.7592
1.646
0.685126
0.784957
1.17614
0.798724
1.19761
1.66463
1.11857
0.557262
0.364578
0.430192
0.520208
0.496826
0.634737
0.914599
0.894978
0.703399
0.707551
0.623125
0.880698
0.889468
1.05549
1.23354
1.12959
0.883679
0.695613
0.587677
1.01526
1.02173
0.955137
0.403114
0.113178
0.0465801
0.0486791
0.0355936
0.0375256
0.0347496
0.0543674
0.158698
0.219096
0.131442
0.427159
0.412617
0.562985
0.401824
0.411975
0.3248
0.349132
0.532016
0.581275
0.640817
0.672223
0.72257
0.666231
1.28069
2.19229
2.47861
12.8166
17.3912
3.1886
3.08802
13.9323
0.314693
0.0838162
0.0233068
0.0174289
0.0162164
0.0161297
0.0150007
0.0155382
0.0159995
0.0169633
0.0188283
0.0231944
0.045828
0.20144
0.203403
0.0643337
0.0324254
0.0229689
0.0196156
0.0170461
0.0163868
0.0155315
0.0154591
0.0150079
0.0156572
0.0174626
0.0237752
0.0773918
0.270931
11.3233
2.43162
2.25034
8.37454
5.78844
0.206646
0.043779
0.0200923
0.0169262
0.0158836
0.0167535
0.0162655
0.0182107
0.0184018
0.0230152
0.0250201
0.0317624
0.0570674
0.110164
0.31545
9.57953
8.65056
8.37283
7.80933
0.310077
0.115175
0.054385
0.0382278
0.034622
0.0338162
0.0226482
0.0236723
0.0189817
0.0216397
0.0182947
0.0226809
0.0482951
0.211807
5.34633
1.56705
1.69761
1.20762
0.611041
0.653425
0.667139
0.686751
1.77007
4.04802
4.97987
3.42025
3.35506
4.69938
3.16502
2.47703
1.82517
1.74381
2.54106
1.95971
1.82226
1.35351
1.46313
1.06562
1.46486
0.809496
0.975077
1.07076
1.52851
1.39525
1.40824
0.906725
1.04835
1.47254
1.72245
1.64731
0.842253
1.22518
1.01185
0.653373
0.605096
0.631371
0.601302
0.576077
0.573188
0.577501
0.556599
0.57383
0.554206
0.586208
0.546041
0.531203
0.505579
0.52513
0.542632
0.575014
0.358929
0.421311
0.425623
0.439972
0.452567
0.37354
0.449547
0.440307
0.657146
0.992579
0.8308
1.14617
0.676634
1.00106
2.0045
5.20554
2.33596
0.816735
1.34492
1.58131
1.13712
0.626608
2.54993
3.5573
1.22854
1.78256
10.3827
8.43043
16.5197
10.9575
18.608
6.02242
4.62756
17.7958
6.66315
6.89513
4.50417
4.51274
2.95313
1.58077
1.62367
1.73553
1.22289
1.2956
1.2062
1.13113
1.47041
1.43485
1.87968
2.02901
2.57
1.80707
1.76997
2.58938
1.0601
1.39523
1.83173
1.82315
1.35537
2.33358
3.14776
2.95655
2.12994
2.32942
3.49597
4.80737
4.56278
3.15779
3.95247
10.1156
13.5004
13.675
4.21493
19.3254
18.295
2.0686
0.562067
0.320832
0.0885002
0.044348
0.0366579
0.0387291
0.143574
0.0458145
0.0570108
0.0454559
0.0724981
0.0695735
0.086901
0.216712
0.125934
0.214528
0.154503
0.187955
0.119921
0.191877
0.22497
0.23466
0.186632
0.114523
0.21123
0.304453
0.104903
0.351763
0.386801
0.257649
0.32958
0.392847
0.194474
0.990932
0.184497
0.126177
0.145371
0.390123
1.25178
0.216564
0.458633
4.46343
14.7056
3.66678
0.93247
0.676183
0.0554313
0.0301018
0.0316402
0.0278567
0.019428
0.08345
0.0980637
0.40309
0.207361
0.277434
0.660621
2.92832
2.39712
1.12186
5.47806
10.2723
15.1498
9.12987