/*--------------------------------*- C++ -*----------------------------------*\
| =========                 |                                                 |
| \\      /  F ield         | OpenFOAM: The Open Source CFD Toolbox           |
|  \\    /   O peration     | Version:  v2012                                 |
|   \\  /    A nd           | Website:  www.openfoam.com                      |
|    \\/     M anipulation  |                                                 |
\*---------------------------------------------------------------------------*/
FoamFile
{
    version     2.0;
    format      ascii;
    class       surfaceScalarField;
    location    "600";
    object      phi;
}
// * * * * * * * * * * * * * * * * * * * * * * * * * * * * * * * * * * * * * //

dimensions      [1 0 -1 0 0 0 0];
oriented        oriented;


internalField   nonuniform List<scalar> 
50655
(
0.00256866
-0.00360017
-0.00139617
-0.00511198
0.00133265
0.00361742
-0.00340418
0.00389423
0.00448827
-0.00249612
-0.00281243
0.00301413
-0.00368471
-0.00377479
0.00268325
-0.00178368
-0.00482929
0.000832484
0.000174928
-0.00469143
0.00161635
-0.00182479
-0.00718824
0.00240927
-0.0104739
0.00283961
0.000347331
-0.0112965
-0.00345966
0.00417219
-0.0120501
-0.00484019
0.00549137
-0.0129109
-0.00563347
0.00639013
-0.0261884
-0.0093146
0.0223982
-0.0487171
-0.0282551
0.0502236
-0.048324
-0.0527116
0.0516213
-0.031132
-0.0711244
0.0531545
-0.00460568
-0.0780698
0.0507604
0.00777692
-0.0547855
0.0415916
-0.00189502
-0.0314102
0.0403093
-0.0213541
-0.021713
0.0404053
-0.0174088
-0.0513259
0.0466583
-0.00745477
-0.0556243
0.0451126
-0.0391977
0.0314139
-0.0420296
0.0187829
-0.0162524
-0.0167155
-0.0756828
0.049874
0.01982
-0.0798706
0.0428387
0.0305466
-0.0295863
0.0185526
0.0342863
-0.00407697
0.0367415
0.0177272
-0.0205049
0.0256931
-0.0179907
0.0287631
0.0168003
-0.00949107
0.0182147
0.00394651
-0.00139215
0.014119
-0.00626819
0.00702998
0.00308943
-0.00537711
0.000434733
-0.00136651
-0.0053615
-0.00110143
0.00106743
-0.00628559
0.000119776
0.000787023
-0.00754594
0.000109377
0.00113437
-0.00865554
-4.90497e-06
0.00109737
-0.00903939
-0.000332645
0.000700126
-0.00929683
-0.000753761
0.000994618
-0.00886388
-0.00118322
0.000733984
-0.00823384
-0.00165952
0.0010128
-0.00701125
-0.00211338
0.000874368
-0.00557643
-0.00258319
0.0011315
-0.0037149
-0.00287867
0.00100096
-0.00190507
-0.00306078
0.00123399
0.00110043
-0.00302309
0.000845799
-0.00234285
0.00257184
-0.00598982
0.00489333
0.00190053
-0.011621
0.0046129
0.000961755
-0.0135317
0.00504642
-0.00320267
-0.0132365
0.00530911
-0.00567129
-0.00556431
0.00461326
-0.0123419
0.00046954
0.00558249
-0.0116581
0.000592642
0.00356734
-0.00371608
-0.00150971
0.00208476
-0.00296239
0.00214139
-0.000705844
-0.00452437
0.00218909
-0.000643258
-0.00583734
0.00234828
-0.0010517
-0.00710327
0.00230581
-0.00105483
-0.00860431
0.00249822
-0.0010112
-0.0101701
0.00258437
-0.001032
-0.011465
0.00237649
-0.00109466
-0.012367
0.00201485
-0.00112588
-0.0128339
0.00160153
-0.0011477
-0.0131512
0.00143568
-0.00113159
-0.0137542
0.00156279
-0.000974017
-0.0139606
0.00111875
-0.000927479
-0.0136653
0.000892913
-0.00120366
-0.0136546
0.000778969
-0.000805254
-0.0133796
0.000823569
-0.00111469
-0.0131319
0.000898469
-0.00116215
-0.0129869
0.000841762
-0.00100249
-0.0127109
0.000572132
-0.000863746
-0.0121714
0.000123334
-0.000678197
-0.0112702
-0.000452233
-0.000464269
-0.0101493
-0.000912059
-0.000224155
-0.00883171
-0.0010079
-0.000324472
-0.00738336
-0.000758415
-0.000703781
-0.00758058
-0.000690859
0.000876071
-0.0163839
0.000822204
0.00795461
-0.0211545
0.000396146
0.00431382
-0.0225994
0.00114449
0.000235192
-0.0425818
0.0163382
0.00352674
-0.0545651
0.00557152
0.00611343
-0.029458
-0.0163355
-0.00907912
-0.013113
-0.0149647
-0.00151259
-0.0112569
-0.00399651
0.00206245
-0.010005
-0.00308865
0.00174669
-0.00808824
-0.00343953
0.00142126
-0.00472406
-0.00330155
-0.000157898
-0.00318436
-0.001625
-0.0044529
0.00459514
-0.00342148
-0.00267615
0.00673283
-0.00862321
0.000911354
0.00621012
-0.00992981
0.00621098
0.00589796
-0.0113424
0.0149909
0.00879187
-0.0177529
0.028541
0.0137682
-0.0276008
0.0248956
0.0196583
-0.0162944
0.0164981
0.00637052
0.00184227
0.00774761
7.2975e-05
0.00853019
-0.00116041
-0.00401015
0.0127832
-0.00447484
-0.00681669
0.0100147
-0.00756903
0.00540601
0.00440361
0.000985781
-0.0102163
0.00212806
-0.00824418
0.00358938
-0.00505634
-0.00431816
0.00736663
-0.0124763
0.00202455
0.00533555
-0.014344
0.00568884
0.00241252
-0.0385086
0.0269359
0.0232683
-0.00696274
-0.0133204
0.0370984
-0.00977232
-0.0393236
-0.00481867
0.00928315
-0.00912748
-0.000552369
0.00896431
-0.00746272
0.00266351
0.00958798
-0.00671616
0.00458461
0.00960777
-0.00490597
0.00712793
-0.00134356
0.0112722
-0.00498675
-0.0027142
0.0124496
-0.00191876
-0.00244977
0.00881681
-0.000394332
-0.00417176
-0.00202647
-0.0210825
-0.00215631
0.0295547
-0.0106622
-0.0143272
-0.00169976
-0.00712004
-0.00252067
-0.00733209
0.0158818
0.00129503
-0.0102735
0.0219309
0.00110036
-0.00900547
0.0324877
0.000313247
-0.0132031
0.083226
-0.00219885
-0.0359959
0.0468044
-0.00194735
0.0455214
-0.00225027
0.00746588
-0.0031381
0.0384481
0.00385834
0.0217964
0.00196102
0.0232305
-0.000316681
0.0113172
0.0139348
0.0062358
-0.00796007
9.91318e-05
0.00680929
0.00521593
-0.00148934
0.00731997
0.00818611
-0.00153139
0.00712115
-0.0150756
0.0079784
-0.00210752
0.00736848
-0.0153148
0.00850261
-0.00127107
0.00743481
-0.0167059
0.00841419
-0.00131133
0.00741848
-0.0160123
0.00861329
-0.000635873
0.00728248
-0.016586
0.00860746
-0.000262494
0.00703099
-0.0159847
0.00856033
0.000703587
0.00623355
-0.0154467
0.00822843
0.00575883
0.00442031
-0.016941
0.0074509
0.00149326
-0.00415887
0.0056743
0.00273581
0.000808567
0.00537897
-0.000280945
0.000629324
0.0071374
-0.000735364
0.000783536
0.00801482
-0.00115034
0.000939352
0.00831781
-0.00120412
0.00127623
0.00838535
-0.001317
0.00149986
0.0085601
-0.00136219
0.00150169
0.00870573
-0.00135205
0.00126433
0.0087171
-0.00137089
0.000936177
0.00883234
-0.00119611
0.00730768
-0.000263469
0.00935531
-0.00200248
-0.000817534
0.0110333
-0.00184783
-0.00085346
0.012317
-0.00154476
-0.00066689
0.0131027
-0.000309289
-0.000944323
0.0135331
0.000854885
-0.00117765
0.0137107
0.00171155
-0.00133296
0.0137099
0.0022395
-0.00141314
0.0137695
0.00225173
-0.00142946
0.0137255
0.00182724
-0.000976077
0.0137336
0.00134962
-0.000594763
0.0139168
0.00122914
-0.000535111
0.0133055
0.00114731
0.000567554
0.0124541
0.00243613
0.000232598
-0.000268675
0.0126956
-0.000413447
0.00244129
-0.000846963
0.0123579
-0.000238025
0.00280388
-0.000639929
0.0114848
-7.45487e-05
0.00311653
-0.000167186
0.0102224
4.84397e-05
0.000296524
0.0032807
0.00862343
0.000722039
0.00331851
0.000129267
0.00687767
0.00104063
0.00305224
0.000137285
0.00587315
0.000963463
0.00224352
8.83938e-05
0.0044299
0.00462534
-0.000850195
0.00287497
0.00428054
-0.000552738
0.00142566
-0.000501932
0.00407623
0.0038959
-0.00040241
0.00560596
-0.000509753
-0.00121646
0.00683109
-0.000405478
-0.000836494
0.00780274
-0.000602739
-0.000385401
0.00816666
-0.000468903
8.82729e-05
0.00822025
-0.000600553
0.000530498
0.00752684
-0.000252775
0.000929591
0.00654165
-0.000284471
0.0012531
0.00470803
0.000310315
0.00150622
0.00197258
0.00118943
0.0015289
-0.00181538
0.00206883
0.00170119
-0.00453709
0.000508975
0.00219474
-0.00605424
-0.000903771
0.00240165
-0.00733778
0.000610163
0.000651438
-0.0138312
0.000486016
0.00596254
-0.0249851
-0.0065789
0.0176169
-0.0311452
-0.0162252
0.0222201
-0.039206
-0.0262771
0.0340714
-0.03188
0.0237776
0.0162194
-0.0386215
0.00906918
0.0260329
-0.0166968
0.00681478
-0.00458361
0.00428541
-0.0323359
0.0262753
0.00142814
-0.0147771
-0.0232628
0.00566878
-0.0374695
0.00594926
0.0412606
-0.0574967
-0.000727091
0.0291025
-0.0500637
0.0152194
0.0126165
-0.00992561
0.0169677
-0.010218
0.0109803
-0.00256837
0.0190619
0.00784086
0.0114489
-0.0125572
0.0134755
0.00540711
-0.00626355
0.00138637
0.0112802
0.00497533
0.00103049
0.00276296
0.00129838
-0.000990887
0.00147301
0.00276823
-0.00485852
0.00386825
0.00204669
-0.00542683
-0.000418614
0.00215539
-0.00956876
0.0020161
0.00241567
-0.00822252
-0.00367127
0.00202046
-0.0118763
0.00196523
0.00141593
-0.00891685
-0.00416975
0.000589924
-0.0112531
0.00216216
-0.00031456
-0.00732965
-0.00319221
-0.00135365
-0.00816456
0.00230041
-0.00189114
-0.00441074
-0.00170033
-0.00258248
0.00130873
-0.00257361
0.00405857
0.0117438
-0.0106708
0.0116382
0.00648088
-0.00949975
0.0132622
0.0087818
-0.00516645
0.0104223
0.0103741
-0.00255753
0.00433037
0.0093796
0.00127276
0.0125464
-0.00179697
-0.00224609
0.000661051
0.0147455
-0.00611428
0.00525731
-0.00335825
0.00194065
0.0146428
-0.00763508
-0.00315696
0.00307564
0.00774586
0.0100556
-0.00794846
-0.00275781
0.00313595
0.0120833
0.001737
-0.00674135
-0.00206216
0.000975921
0.0160612
-0.000536267
-0.00466472
0.00742056
-0.000159766
-0.00525015
0.0114062
0.000229512
-0.0103827
0.0126048
-0.00897589
-0.0142382
-0.0141653
0.00841971
0.00572453
-0.0241309
0.00411966
-0.0185681
0.00624725
-0.0165761
-0.011349
0.0092879
0.00789384
0.00962436
-0.0341409
-0.0238359
0.00756363
0.0111659
0.00743365
-0.0100702
-0.0324538
-0.00921082
0.00783416
-0.00168038
-4.5754e-05
0.00786418
-0.00663464
-0.0104578
0.01159
-0.00768641
-0.0142306
0.0104439
0.0106275
-0.000678724
-0.00888808
0.010383
-0.0015852
0.00802506
-0.0076055
0.00362852
0.00104459
0.00483644
-0.00347765
0.00555031
-0.00630949
0.0139951
-0.012146
-0.00346122
0.0108177
-0.0170453
-0.00260218
0.00572207
-0.0169827
-0.000956663
-0.00118699
0.00208859
-0.00829468
0.00854037
0.00959567
-0.00963543
0.0110769
0.011181
-0.00501595
0.0118115
0.0117802
-0.00222084
0.0105471
0.0044608
-0.0111387
0.0108827
0.00309762
-0.00929501
0.0120142
-0.0021612
-0.00505213
0.0116297
-0.0047752
0.0096685
-0.00615242
0.0022838
0.00358452
0.0011253
0.00812706
0.00720876
-0.0015096
0.0111211
0.00849661
0.000436546
0.00730806
0.00667565
-0.00918955
0.0101986
-0.00051385
-0.00701163
0.00401514
0.0022151
0.000214667
0.00173403
-0.00184105
0.00509942
-0.00634579
-0.00144099
-0.00225595
0.0187355
-0.00375919
-0.0192198
0.017
-0.00145552
-0.00170522
-0.0161148
-0.0118674
-0.00096901
0.00342249
-0.00858638
-0.010711
-0.0132726
0.0066905
-0.00597145
-0.00495401
0.000921896
0.0014038
0.000391825
-0.00209166
-0.00427407
-0.000991628
0.00399341
-0.00261155
-0.000425167
0.00182206
-0.00238991
0.00130882
-0.00382784
0.00681272
0.000713568
-0.0111835
0.000647684
-0.00348675
0.0105591
-0.00346569
-0.00442546
-0.0190408
0.0140791
-0.0118945
-0.0194701
-0.0118039
0.00785135
0.00428972
-0.0266374
-0.0154145
0.00258848
0.00934171
0.0105406
-0.035602
-0.0164939
0.0130783
0.00184579
0.0104322
-0.0423018
-0.0146515
0.00984564
9.6401e-05
0.0113059
-0.0436662
-0.010809
0.00324712
-0.00151811
0.0103399
-0.043154
-0.00618931
-0.00149499
-0.0018282
0.00889046
-0.0394714
-0.00336616
-0.00449278
0.00408221
-0.0347272
-0.00120595
-0.00709988
0.00649254
-0.00303889
-0.0321651
0.00131723
-0.00610347
0.00561745
-0.00349526
-0.0291184
0.00262787
0.00449024
-0.00397841
-0.00628921
-0.0289224
0.00202637
0.00397983
-0.00354677
-0.00276753
-0.0298271
0.000161764
0.0018485
-0.00121259
-0.0277705
-0.00163964
0.00140033
-0.00193092
-0.022964
-0.00267711
0.00156178
-0.00378752
-0.0301435
0.00172203
0.0226291
-0.0172472
-0.0592645
0.0293203
-0.0129589
0.012385
0.00599126
-0.019897
-0.00138034
-0.0132325
-0.0251859
-0.00915468
-0.0122504
-0.000495719
-0.00874545
-0.0111516
0.000602215
0.000292448
-0.00942453
-0.000605219
0.000528222
-0.00580075
-0.00377928
0.00146647
-0.00309988
-0.00400562
0.00104846
-0.00453746
-0.000257094
-0.00445843
0.000800897
-0.000927177
-0.00684577
0.00204783
0.000276323
-0.0107862
0.00220321
0.00165761
-0.0130979
0.000813335
0.00141973
-0.013365
-0.000356386
0.000553696
-0.0130745
-0.00175172
0.00140725
-0.0236456
0.00142045
0.0090759
-0.0568453
0.0174988
0.0154942
-0.101272
0.00881477
0.0350394
-0.11792
-0.00591744
0.0218717
-0.127265
-0.0116408
0.0202109
-0.133685
-0.0165399
0.0221247
-0.137332
-0.0222315
0.0249946
-0.138657
-0.0272996
0.0277139
-0.13858
-0.0307846
0.0297833
-0.137771
-0.032938
0.0312035
-0.136317
-0.0341855
0.0318156
-0.134175
-0.0348314
0.0317874
-0.130339
-0.0353373
0.0306301
-0.122374
0.0278458
-0.0366446
-0.103237
0.0208159
-0.0407125
-0.0534367
0.00333774
-0.0537563
-0.0226077
-0.00121942
-0.0298285
-0.0123784
-0.00428131
-0.00602531
-0.0121004
0.00199166
-0.00232477
-0.0112006
0.00433116
-0.00530163
-0.00876539
0.00384606
-0.00636178
-0.00425006
0.00401326
-0.00861294
-0.00478757
0.00347986
-0.00301358
-0.008056
-5.90345e-05
0.00327665
-0.00781764
0.00236105
-0.00267059
-0.0089358
0.00103035
-0.0138078
0.00698051
-0.0022071
-0.0166416
0.00714721
-0.00442331
-0.0189186
0.0076444
-0.00547005
-0.0237763
0.00700355
-0.00225065
-0.0533267
0.0187363
0.0106177
-0.0979544
-0.00807158
0.0521256
-0.110954
-0.0316641
0.0439432
-0.112417
-0.0418164
0.042469
-0.107717
-0.04766
0.0421377
-0.0989206
-0.0521287
0.042475
-0.0862071
-0.0543455
0.0408076
-0.0692064
-0.0558435
0.0380229
-0.0494298
-0.0568163
0.0362737
-0.0237332
-0.0481199
0.0217866
-0.037648
0.0134761
-0.053493
0.0232181
-0.0078402
-0.0592869
0.0254248
-0.0201337
-0.0593403
0.0267454
-0.0272183
-0.0503146
0.0265265
-0.0360784
-0.0402356
0.0244368
-0.0350186
-0.0230609
0.0165945
-0.0342362
0.00940264
-0.0329023
0.0272426
0.0381012
-0.0565778
0.0510016
0.0494947
-0.0740196
0.0748709
0.0495926
-0.0742816
0.0950536
0.0498122
-0.0708194
0.110792
0.0470127
-0.0636079
0.119
0.0396923
-0.0487218
0.116948
0.0329246
-0.0316833
0.101245
0.0300507
-0.0150678
0.0544933
0.0398422
0.00633556
0.0254671
0.0250377
0.00379215
0.0213581
0.00417667
-0.000172356
0.0194452
0.000588779
0.00122155
0.0158661
0.000296558
0.00317259
0.0091285
-0.000250864
0.00688992
-0.000927936
0.00996866
-0.000974849
-0.00970819
0.00965935
0.000711996
-0.0131007
0.0113049
0.00255305
-0.0142307
0.0122665
0.0040564
-0.0135625
0.0119236
0.00430012
-0.0191594
0.0187378
0.00781701
-0.0286254
0.0248234
0.00380226
0.0236165
-0.0198855
-0.000209596
0.0168933
-0.0130607
-0.000401334
0.00843636
-0.00838028
-0.000560086
0.00774683
-0.00771128
-0.00109834
0.00737366
-0.00694439
0.0063167
-0.00648047
0.00344162
0.00545909
-0.000285492
0.00321966
0.00619517
0.00132839
0.00331519
0.0059195
0.00165406
0.00397957
0.0047877
0.00290604
0.0103365
0.0116019
-0.00117111
0.0194075
-0.00899864
-0.000117882
0.00910762
-0.00420571
0.0144649
-0.0230412
-0.0114198
0.0434988
-0.0155431
-0.00576034
-0.00181625
-0.000981841
0.00357934
0.00487281
-0.00944972
0.00605465
-0.00260394
0.00362226
-0.00178825
-0.00826305
0.000436907
-0.00917516
-0.0102627
-0.0126569
0.0184316
-0.00481264
-0.0307425
0.0032296
0.00366255
0.0040577
-0.0175476
-0.0496792
0.00586933
0.0101354
0.000846746
-0.0581618
-0.0156648
0.0262136
-0.00422117
-0.0204004
0.00617133
-0.00324385
-0.0202837
0.00561141
-0.00226502
-0.0206421
0.00530798
-0.000894779
-0.0190227
0.00443927
-0.0149834
0.00403282
-0.0211214
0.00226217
0.00404757
-0.0219381
-0.00134735
0.00263864
-0.0178864
8.70638e-05
0.0054331
0.00165342
-0.0465846
0.0354438
0.0083006
0.00805713
-0.115062
0.0350452
0.0514746
0.0209085
-0.125162
0.0472901
-0.00799419
-0.12602
0.054761
-0.0218452
-0.118206
0.0645171
-0.0335152
-0.103281
0.0731716
-0.0419659
-0.0841717
0.0769067
-0.0470714
-0.0615804
0.0746856
-0.0485234
-0.0367123
0.0743323
-0.0505196
0.05043
-0.0330141
0.058868
0.0458583
-0.030467
0.0684562
0.0517637
-0.0354504
0.0687638
0.0529118
-0.0270989
0.0633532
0.0506412
-0.0204134
0.0439374
-0.0060535
-0.0882074
0.0718742
0.00264028
-0.0979979
0.0755102
-0.0159871
-0.0994994
0.0799714
-0.0265005
-0.0881883
0.079207
-0.0396966
0.0719176
-0.040824
0.0880142
0.0944945
-0.0367963
0.097625
0.101689
-0.0330224
0.0944888
0.101108
-0.0189296
0.0819209
0.0960464
-0.00885915
0.0903342
0.00677808
-0.0812598
0.103431
0.01295
-0.0944671
0.110525
-0.00219223
-0.0983595
0.116013
-0.0119734
-0.0904721
0.116905
-0.0240644
0.111459
-0.0314511
0.0869989
0.124297
-0.0276014
0.0946583
0.128322
-0.0200527
0.0912423
0.126459
-0.00800765
0.0783229
0.120357
0.00215141
0.112108
0.0166342
-0.0724458
0.116682
0.0193353
-0.0843801
0.125449
0.00590463
-0.0867112
0.132042
-0.00423105
-0.0787935
0.134449
-0.0150239
0.131388
-0.0223052
0.0681864
0.132064
-0.0150381
0.0760815
0.1348
-0.00922343
0.0749973
0.131202
0.000947067
0.0640661
0.124791
0.0106527
0.115491
0.0225739
-0.0525714
0.105771
0.0297721
-0.0646028
0.116341
0.0195383
-0.0641549
0.119929
0.00986219
-0.0562145
0.125352
0.000543886
0.126242
-0.00404478
0.0351407
0.0191793
0.0613668
0.0446614
0.0514221
0.0947259
0.01347
0.054733
0.0924865
0.0232561
0.0357259
0.0482981
0.0452303
0.0408801
0.0445155
0.0365234
0.0514952
-0.0122944
0.026847
0.0153801
0.0143666
-0.0187225
0.0276674
0.0150825
-0.0152832
0.0311406
0.0135149
-0.0135281
0.0290584
0.0142078
-0.0399498
0.0275432
0.0407731
-0.000788781
0.0248797
-0.0283887
-0.00826723
0.0385067
0.00580938
-0.0370377
-0.00679038
0.0299642
0.005487
-0.0371046
-0.00458382
0.0290808
-0.0365534
0.00509607
0.0258741
0.00347664
0.00380425
0.00515528
0.00491525
0.00715701
0.00679983
0.00761672
0.0090513
0.00892144
0.00839369
-0.00414125
-0.0199492
0.0156886
0.00266652
-0.000612853
0.000588712
0.00624889
0.00289995
0.000297234
-0.000534701
0.000353765
0.00409107
-0.00154976
-0.00243924
-0.00132287
0.0041117
-0.00165649
-0.00048916
0.00117854
0.010599
0.0120871
0.031618
-0.0532141
0.00539828
0.017784
-0.0042392
-0.00729366
0.0568455
0.00123934
-0.0150794
0.00283982
0.00353443
-0.00655282
0.00505029
0.00398025
-0.00620543
-0.0222087
0.00969555
0.0175232
-0.00940675
-0.0125269
-0.000318749
0.0179325
-0.00256965
0.0239372
-0.00789735
0.0462775
-0.0127144
0.0215825
0.0766276
-0.0248023
-0.0326851
0.00459907
0.00708187
0.0297765
0.00212242
-0.0175577
0.00803317
0.0136667
-0.00405323
-0.0106571
0.00846853
0.0149687
-0.00404906
-0.0114616
0.00757229
0.0144445
-0.00236825
-0.0112865
0.00612996
0.0127984
-0.0104366
-0.00101814
0.00367444
0.0105359
-0.00880058
0.000632904
0.00873432
-0.00790599
0.00276568
0.00843805
-0.00315691
0.00338247
0.0080363
-0.00280211
0.00314879
0.0151923
-0.00809131
0.000858092
0.0392749
-0.0159707
-0.00833079
0.0728336
-0.0389348
0.00475748
0.0829077
-0.0276659
0.0168324
0.0844562
-0.0235201
0.0211378
0.0818803
-0.0202607
0.0219641
0.0766725
-0.0158315
0.0201364
0.0696752
-0.00873357
0.0148125
0.060263
0.00171801
0.00676614
0.0417548
0.0175717
8.68422e-06
0.0143639
0.0415186
-0.0150457
-0.0056484
0.0552925
-0.0361825
-0.00187006
0.0502829
-0.0549331
0.0121761
0.0392735
-0.0541527
0.0155059
0.0262899
-0.0303781
0.00966433
0.0288185
-0.0235943
0.00217874
0.0113173
-0.00405003
0.000459697
0.00385266
-0.00221059
-0.000357977
0.0017936
-0.00103051
-0.00206221
0.00327431
-0.0016396
0.00315443
-0.00228029
0.00318302
0.005241
-0.00146045
0.000119938
0.00663832
-0.000376345
0.00207569
-0.000183714
0.00651754
-0.000617844
0.00164071
0.00597329
-0.00374311
0.00253386
0.00551066
0.00622783
0.00104832
0.0116282
0.017059
-0.0107043
0.0153663
-0.0104628
0.023458
0.0240175
-0.0299486
0.0433571
0.0144832
-0.0442761
0.050583
0.0130921
-0.0626291
0.0463925
0.0263007
-0.0785833
0.0294357
0.027072
-0.089595
0.00768523
0.0199256
-0.0951361
-0.0086079
0.014894
-0.0985736
-0.0208687
0.0146064
-0.100782
-0.0294425
0.0148657
-0.100984
-0.0352031
0.0142075
-0.097616
-0.039565
0.0117549
-0.0887442
-0.0439663
0.00652039
-0.0319207
-0.0406143
-0.0447984
-0.0113288
-0.0184411
-0.0104308
-0.0191913
0.00262093
-0.0153879
-0.00711051
0.00132311
-0.00576187
0.000262619
-0.00944342
0.000857706
-0.00380445
0.00166351
-0.00749313
0.000994873
-0.00882024
0.0158432
-0.000177705
-0.00796495
0.0158524
-0.00183927
-0.00615768
0.0139418
-0.00216392
-0.00205864
0.0198193
0.00571704
0.0204911
0.107079
-0.0445909
-0.00953669
0.00401429
0.0307105
0.00548027
0.00762797
0.0105237
-0.000247674
0.00843858
0.0142948
0.000668259
0.0151536
0.00192752
-0.016264
-0.0197721
-0.012675
0.030844
-0.0202703
0.0463255
-0.0178704
-0.0511466
0.106998
-0.0245873
-0.0521795
0.121946
-0.0149989
-0.104483
-0.0444338
0.125758
-0.0301855
-0.0752863
-0.0286184
-0.0174291
-0.0288668
-0.0143233
-0.00288182
-0.040341
0.0170247
-0.0021087
-0.0241566
-0.00526916
0.027974
-0.0054386
-0.00855199
0.0163702
-0.00784669
-0.009309
0.0144773
-0.00618038
-0.00946114
-0.0118325
-0.00272674
0.0501816
-0.0212493
-0.0125816
-0.00609888
0.000615613
-0.0119243
-0.00847833
-0.000107259
-0.00874487
-0.00714239
-0.00156797
-0.00497081
-0.00440219
-0.00158026
-5.92826e-05
-0.000753532
-0.00377031
-0.000453958
-0.00986842
1.01835e-05
0.000443106
0.00127386
-0.00170336
0.00137375
-0.00207416
0.00335833
0.00175033
-0.00264681
0.00437534
0.00205997
-0.00197614
0.00371757
0.00175376
0.00267154
0.000706213
0.00450566
0.0026364
-0.00105957
0.00470425
0.0038453
-0.000402084
0.00456053
0.00492338
-0.000485374
0.00482785
-0.000752761
-0.00636834
0.0108779
-0.0041944
-0.00619805
0.0109022
-0.0062608
-0.00533179
0.0100565
-0.00718299
0.00901408
-0.00778743
0.00656697
0.0118737
-0.00566785
0.00799302
0.0136023
-0.00507054
0.00817991
0.0151244
-0.00451564
0.0149309
-0.00312207
-0.00919075
0.0168718
-0.00132873
-0.00931282
0.0178772
-0.00273686
-0.00965552
0.017774
-0.0039334
0.010482
-0.00400918
0.0128684
-0.00041656
0.0102327
-0.00167449
0.00749353
0.0232976
-0.00289769
0.0073488
0.0183124
-0.000380561
0.0173059
0.000737043
-0.00883578
0.0484911
-0.0252082
-0.00519108
0.0421745
-0.0276514
0.0450139
-0.0282986
0.0293814
0.117716
-0.0575543
0.127572
-0.0450589
0.0507857
0.135012
-0.0386739
-0.0205977
0.0554368
0.134936
-0.0149454
0.0520608
0.130188
-0.00598162
0.115372
-0.00132593
-0.0502514
0.119832
0.00520632
-0.0559677
0.135162
-0.000341224
-0.0534934
0.140864
-0.00948439
-0.0448377
-0.0146255
0.139961
-0.128271
-0.0233167
0.133675
-0.0293219
-0.0128492
-0.051167
-0.11443
0.028648
0.119413
-0.106099
-0.0668029
0.118424
-0.0384109
-0.0495577
-0.0680972
-0.00477581
0.0138678
-0.013527
-0.0193428
-0.0195629
-0.00998475
-0.00602828
-0.0131287
-0.00290474
-0.0140182
-0.00406606
0.00257625
-0.0143922
-0.00818136
0.00317336
-0.012752
-0.0106185
0.00252988
-0.00980654
-0.0145093
0.0028605
-0.0107488
0.00114287
-0.0137767
0.0160606
-0.0137415
0.000612646
-0.00949195
-7.49147e-05
-0.015359
0.0144779
-0.00157772
-0.016761
0.0116541
-0.00271214
-0.0180435
0.00966037
-0.00145835
0.0149501
-0.0254727
0.0110915
0.0252086
0.0187258
0.0207363
-0.0498569
0.0188536
0.0161727
0.0178327
-0.027782
0.0305661
0.0160549
0.0191758
-0.047079
0.0213633
0.0134295
-0.0227543
0.0183992
0.0392774
-0.0422217
0.0089348
0.015272
0.0201037
0.046344
-0.0101096
-0.0171621
0.0253897
0.030111
-0.020244
-0.0152814
-0.0172289
-0.0206027
0.00991642
-0.01826
0.00381678
-0.0127846
-0.0179467
0.00437251
-0.0172366
-0.0122954
0.00330647
-0.0161265
-0.0141097
0.00228265
-0.0167818
0.00209959
-0.0176642
-0.0170622
0.0174537
0.000374297
-0.0162747
-0.000771073
-0.0183815
0.0156388
-0.00198993
0.0130064
-0.00309177
0.0175567
0.0143264
-0.00279107
0.0174318
-0.00140716
0.0164851
0.0182419
-0.0170349
-0.000365557
0.0183892
0.0013328
-0.0151248
0.00285823
-0.0154881
0.0010084
0.0175005
-0.015409
-0.0012037
0.0144777
-0.0021476
-0.00752595
-0.0160206
0.023589
0.0168658
-0.00150724
-0.0143829
-0.0171429
-0.0262052
-0.0242693
-0.00255635
-0.105278
0.103836
0.0075454
0.00121122
0.0182448
0.0127137
0.0239198
0.0147
-0.0202593
0.0176534
-0.00846136
0.0179697
-0.0122429
-0.0047729
0.00236079
-0.000511522
-0.0055522
0.00484992
-0.00582315
-0.00170871
-0.00210856
-0.00217608
-0.00379238
0.0131664
-0.000990548
-0.003163
-0.00140314
-0.00338375
0.0163857
-0.0200774
-0.0115641
0.0154794
0.0068861
-0.0116029
0.0176078
0.00911603
-0.0132656
0.0202239
0.0089362
-0.0142002
0.0229791
0.00891944
0.0302029
0.0119984
0.00988502
0.0134952
0.0125017
0.00948242
0.0132846
0.00991787
0.0078486
0.0119316
0.00975534
0.00607532
0.0108105
0.00841654
0.0100054
0.00700117
-0.00220393
0.003425
-0.002616
0.00416563
-0.00328225
0.0047619
-0.00391643
0.00540582
0.00651569
0.00166381
0.00290546
0.00142513
0.000511445
0.000410463
0.00139519
-0.000144299
0.00198743
-0.00155139
-2.85375e-05
-0.000930492
0.0019496
0.000964884
-0.000330519
0.000792421
-0.000434955
0.00182759
-0.00111643
0.00121479
-0.00053642
0.000311555
-5.3178e-06
0.00202548
-0.00174548
2.82585e-05
0.00379651
-0.000560653
-0.00359537
0.0111552
-0.00639223
0.00357641
-0.018036
0.00336386
0.017067
0.00388619
-0.0181447
0.0204411
0.00715348
0.00293501
0.00677407
-0.017081
0.0208558
0.000287465
0.00596643
0.0198022
-0.0148511
-0.0136328
0.0141937
0.00503688
0.0109841
-0.00738964
0.0172043
-0.00765824
0.0172801
0.010914
-0.00040582
0.0199873
0.00717994
0.00334072
-0.00115156
0.00152941
-0.00351868
0.000374412
-0.00229309
0.0126036
0.00135511
-0.00233789
0.000792602
0.000619213
-0.000777659
0.00151171
-0.000568307
0.00156023
-0.000392583
-0.00124371
0.00106671
-0.0020705
0.000898778
-0.000211064
-0.000225391
-0.00163553
-0.000455624
-0.00209533
0.000247533
-0.0018567
0.00140214
-0.0013814
0.000391687
0.000112267
-0.00188662
0.000170863
-0.00141613
-0.000660884
-0.00126552
-0.00240718
0.00114942
0.00124196
0.000228448
0.000474443
-0.00129759
0.000448065
-0.00168395
-0.000480117
0.000536548
0.000390119
0.00010952
6.92319e-05
-0.00066022
0.00104467
0.000305072
0.000313669
-0.000891381
-0.00161349
0.00281514
-0.00077604
0.000272127
0.000179474
-0.000888689
-0.00113189
0.00380517
0.00137783
-0.000360515
-0.00302922
0.0122823
-0.00264815
-0.00129468
-0.00174918
1.0565e-05
-0.000830647
0.000259757
-0.000726722
0.000329661
-4.10683e-05
-0.00112161
-4.48013e-05
0.00188326
-0.000307394
-0.00162399
-0.00132306
0.00321257
-0.000894933
-0.000171513
-0.00124594
0.00111878
0.00204396
0.000342986
0.000324279
0.000921722
-0.000129796
0.00191612
-0.00142327
-0.000171926
-0.00137111
0.00319854
8.43265e-05
-0.000651667
0.000199097
0.00286231
-0.00405684
0.0133136
-0.00112965
-0.0180604
0.000745598
0.00705515
0.0245606
-0.0164938
0.0219138
0.00640885
-0.0177796
0.0225981
-0.00210005
-0.0148973
-0.0043926
-0.0206953
-0.0218716
-0.00631748
-0.0219035
-0.00573509
0.0151643
-0.00263081
0.0198016
0.0318002
0.0374646
-0.0235938
-0.10114
0.0665946
-0.0967707
0.0700688
-0.107849
0.0712821
-0.0171046
-0.11009
0.068697
-0.0248631
-0.106623
0.0674475
-0.0296671
-0.098129
0.0662813
-0.033202
-0.0860148
0.0636098
-0.0358106
-0.0685731
0.0576467
-0.0379491
-0.0487635
0.0532364
-0.0376725
-0.0386382
0.0426341
-0.0317203
0.00440338
-0.0299767
0.0170363
0.0322131
-0.0455135
0.0146803
0.0447414
-0.0430528
-0.00705896
0.0477974
-0.0264695
-0.0341718
0.0266742
-0.0509246
-0.0129462
0.0292318
-0.0596569
-0.0245297
0.0327592
-0.0620487
-0.0310378
0.0329034
-0.0557293
-0.0382293
0.0313837
-0.0477557
-0.0353061
0.0268296
-0.030366
-0.0335951
0.0157383
0.00326431
-0.034069
0.0201144
0.0445973
-0.0620842
0.0426902
0.0556379
-0.0789797
0.0679539
0.0549336
-0.0810172
0.0880234
0.0523885
-0.0732825
0.0991221
0.0477338
-0.0596892
0.0998438
0.0399983
-0.0415423
0.0939196
0.0341258
-0.0290121
0.0819484
0.0309551
-0.019704
0.0463889
0.0377795
-0.00279355
0.0223849
0.0228449
0.000962678
0.0192723
0.00392937
-0.000921548
0.0179252
0.000519883
0.000724438
0.0147802
0.000152942
0.00288169
0.00853849
2.36022e-05
0.00611917
0.00905511
-0.000604237
0.00712513
0.00348316
-0.00162381
0.00452687
0.00386407
-0.00131292
0.00469965
0.00171642
-0.001952
0.00557691
0.00191925
-0.00287537
0.00519583
0.00309766
-0.00279438
0.00400195
0.00335238
-0.00222806
0.00295476
0.0026838
-0.00169123
0.00472356
0.00166277
-0.00350858
0.0086877
0.00292916
-0.00711182
-0.0257927
0.033344
0.000518431
-0.051045
0.0227337
0.00175954
-0.0627744
0.0104077
0.00048782
-0.066432
-0.0012755
0.0040602
-0.0704395
-0.0160066
0.0191096
-0.0753834
-0.0311995
0.0352213
-0.076528
-0.0459346
0.0461422
-0.0736205
-0.0593257
0.0554732
-0.0632305
-0.0714741
0.0601321
-0.0451583
-0.0813559
0.0623265
-0.0171619
-0.0880529
0.0590932
0.0172453
-0.0842488
0.0488808
0.0328013
-0.0590802
0.0425629
0.0319408
-0.0454476
0.0453858
0.0243573
-0.035838
0.0425181
0.0105036
-0.0267259
0.0397525
-0.000195871
-0.0235073
0.0334049
-0.0349392
0.0339941
-0.0505942
-0.0197655
0.0346226
-0.0578089
-0.0345277
0.0409317
-0.0582299
-0.0493401
0.0488864
-0.0496842
-0.0643469
0.0549261
-0.0257022
-0.0818626
0.0569819
0.00448943
-0.0831577
0.0520901
0.00976823
-0.0470887
0.0409446
-0.00784565
-0.0265488
0.0433529
-0.0209737
-0.0287179
0.0410601
-0.00457828
-0.060709
0.0435754
-0.0525619
0.0433375
-0.0152949
-0.0693358
0.00178028
0.0184134
-0.0551826
-0.0401194
0.0286047
-0.0398514
6.69067e-05
0.0322549
-0.0478902
0.016797
0.030728
-0.0775213
0.0310354
0.0414694
-0.126529
0.0316914
0.0549315
-0.123652
0.0273824
0.05762
-0.0965522
0.0285855
0.0526629
-0.0731099
0.0278213
0.0420535
-0.0521686
0.0273903
-0.0305625
0.0285206
-0.0373672
-0.0479756
0.0271834
-0.0394054
-0.0577581
0.0230288
-0.0338187
-0.0688871
0.0168825
-0.00559618
-0.0850774
-0.00322329
0.035136
-0.120012
-0.00597479
0.0612595
-0.125716
0.0105338
0.076554
-0.119008
0.0213564
0.0839183
-0.104819
0.0249844
0.0831647
-0.0867301
0.027168
0.0789752
-0.0664263
0.0236988
0.0713236
-0.0450807
0.020561
0.0650469
-0.0235415
0.0128534
0.0595883
-0.00230356
0.00554523
0.0484957
0.0144504
0.00612319
0.0263748
0.0318744
0.0120641
-0.00698437
0.00419853
0.0460455
0.0154734
0.00849344
-0.00264689
-0.00891155
-0.00407325
0.0155528
-0.00160794
-0.00138936
0.0109573
-0.00125745
0.00465019
0.00107448
0.0157116
7.94857e-05
-0.00850167
0.00356659
-0.00664322
0.0272913
0.00377921
-0.00881638
-0.00774752
-0.000390325
0.00152446
-0.00794966
-0.00259346
0.001463
-0.00648454
-0.00383957
0.000684166
-0.00483114
-0.00482368
0.000441977
0.00175817
-0.00349466
-0.000465102
0.00431716
-0.00091951
-0.00171746
-0.00033572
-0.000248678
-0.00113699
-0.00068354
-0.000573731
-0.000576853
-0.000530645
0.000421392
-0.000907972
-0.00320613
0.012806
-0.00529429
-0.0115756
0.00304296
0.0224074
-0.00743391
-0.00945075
0.0629838
-0.0308815
-0.0284968
0.0183379
0.0584894
-0.0238552
0.0292014
0.0388111
-0.0172408
0.0364855
-0.0024629
-0.00702686