/*--------------------------------*- C++ -*----------------------------------*\
| =========                 |                                                 |
| \\      /  F ield         | OpenFOAM: The Open Source CFD Toolbox           |
|  \\    /   O peration     | Version:  v2012                                 |
|   \\  /    A nd           | Website:  www.openfoam.com                      |
|    \\/     M anipulation  |                                                 |
\*---------------------------------------------------------------------------*/
FoamFile
{
    version     2.0;
    format      ascii;
    class       volScalarField;
    location    "550";
    object      nut;
}
// * * * * * * * * * * * * * * * * * * * * * * * * * * * * * * * * * * * * * //

dimensions      [0 2 -1 0 0 0 0];


internalField   nonuniform List<scalar> 
18258
(
0.00417815
0.00181976
0.00149009
0.00129044
0.000856356
0.00140009
0.00194491
0.00231541
0.00242958
0.00240971
0.00249585
0.00421315
0.00591391
0.00731009
0.00768008
0.0076687
0.00696339
0.0066501
0.00722644
0.00887789
0.0074545
0.00477722
0.00571709
0.00661489
0.00720963
0.00638796
0.00516789
0.0047827
0.00432944
0.00360947
0.0030304
0.00208332
0.00151238
0.00140111
0.00127125
0.00144963
0.00157925
0.00168468
0.0017221
0.00174927
0.00173747
0.00172766
0.00168093
0.00165107
0.00160008
0.00131994
0.00157975
0.00166674
0.00182044
0.00250507
0.00268632
0.00225704
0.00249509
0.0022252
0.00146644
0.00167879
0.0018223
0.00186134
0.00183728
0.00176093
0.00173518
0.00171338
0.00168579
0.00165305
0.00163312
0.00164954
0.00166671
0.0016487
0.00156781
0.0015023
0.00139627
0.00128995
0.00121115
0.00115011
0.00110408
0.00105286
0.00099531
0.00087426
0.000810267
0.00107281
0.00134683
0.00143909
0.00203982
0.00248709
0.00250418
0.00187465
0.00133609
0.00138677
0.0015415
0.00155666
0.00131881
0.00156712
0.00177477
0.00183933
0.0019167
0.00214265
0.00244053
0.00237952
0.00211946
0.00195388
0.00190159
0.00218503
0.00208028
0.00269795
0.00271459
0.00236053
0.00219446
0.00246839
0.00318381
0.00342291
0.00265798
0.00249697
0.00244783
0.00241591
0.0021857
0.00226312
0.00205592
0.0018525
0.00201863
0.00243862
0.00231274
0.00252539
0.0026174
0.00245588
0.00284593
0.00328164
0.00323446
0.00258819
0.00211112
0.00196788
0.00198268
0.00121258
0.00130942
0.00141039
0.00144495
0.0014693
0.00148993
0.00158842
0.00158483
0.00156141
0.00155796
0.00158458
0.000873549
0.000946515
0.000970126
0.000976933
0.00092809
0.000918488
0.000901282
0.000887332
0.000837019
0.000800926
0.000958263
0.00107596
0.00117188
0.00128408
0.00145118
0.00165558
0.00187037
0.0020874
0.0022309
0.00227178
0.00231303
0.00222932
0.0021449
0.00222139
0.00223431
0.00221998
0.00219024
0.00215267
0.0021019
0.00200874
0.00211636
0.00211033
0.00198258
0.00169983
0.00173767
0.0017348
0.00178007
0.00177108
0.001789
0.00176358
0.00173344
0.00164963
0.00153215
0.00127419
0.00125136
0.00126544
0.00162318
0.00196931
0.00304053
0.00370595
0.00429857
0.00459645
0.00491441
0.00398072
0.00443284
0.00342011
0.0030694
0.00389973
0.0050995
0.00291006
0.00159097
0.00301824
0.00268002
0.00194757
0.00173415
0.00178794
0.00178597
0.00204258
0.00235641
0.00261902
0.00274586
0.00285679
0.00294546
0.00304303
0.00316655
0.0032009
0.00309222
0.00261771
0.00315487
0.00256579
0.00300115
0.00271737
0.00184174
0.00189014
0.0020204
0.00185532
0.00180685
0.0017254
0.00155975
0.00194252
0.00250416
0.00290391
0.00331938
0.00442842
0.0040966
0.00392654
0.00304035
0.00294018
0.001526
0.00217588
0.00226184
0.00254829
0.00169356
0.0015467
0.0014696
0.00194134
0.00224883
0.00265215
0.00294166
0.00349272
0.00271233
0.00310266
0.00281134
0.00196353
0.00188514
0.00269591
0.00290147
0.0023834
0.00212832
0.00267237
0.00253126
0.00179705
0.00142557
0.00219276
0.00226652
0.00163215
0.00406487
0.00434838
0.00413684
0.00503412
0.00630748
0.00719267
0.00671044
0.00595337
0.00663148
0.00526378
0.00510968
0.00545741
0.00458567
0.00320741
0.0032861
0.00339652
0.00348794
0.00374457
0.00397777
0.00426265
0.00453306
0.00412092
0.00342327
0.00259188
0.00178317
0.00175823
0.00174901
0.00157056
0.00232762
0.00352302
0.00350053
0.00198988
0.00115943
0.00131047
0.00147944
0.00146482
0.00106351
0.000800225
0.00137839
0.00157616
0.0016017
0.00156199
0.00147481
0.00154121
0.00247518
0.00381333
0.00419009
0.00433986
0.00448164
0.00458183
0.00463767
0.00465551
0.00466553
0.00467778
0.00468854
0.00470482
0.00469039
0.00459062
0.00403793
0.00253885
0.001484
0.00137838
0.00152126
0.00163488
0.00173402
0.00147551
0.000902353
0.00144101
0.00184534
0.00212109
0.00213926
0.00199649
0.00193673
0.00305402
0.00406071
0.00478652
0.00493368
0.00499941
0.00494493
0.00493837
0.00483136
0.00479891
0.00420938
0.00300793
0.00328765
0.0035297
0.00356958
0.00365163
0.0037751
0.00368776
0.00348542
0.00508999
0.00587628
0.00595208
0.00607893
0.00600751
0.00590477
0.0056377
0.0053321
0.00448921
0.00336673
0.00212452
0.00216906
0.00230927
0.00228726
0.00199123
0.00209742
0.00227626
0.00229907
0.00237435
0.0026626
0.00302407
0.002885
0.00248333
0.00210875
0.0019634
0.00192154
0.00184314
0.00137981
0.00140096
0.00136241
0.0013852
0.00186139
0.00221552
0.00255492
0.00362299
0.00323176
0.00262827
0.0041667
0.0042705
0.00458844
0.00506952
0.00519503
0.00575585
0.00400452
0.00360902
0.00370732
0.00302868
0.00280349
0.0028334
0.0028441
0.00265097
0.00290153
0.00287586
0.00277175
0.00306003
0.00337162
0.00444561
0.00538628
0.00568259
0.00585366
0.00592382
0.00590236
0.00578905
0.00582699
0.00511992
0.00511873
0.00490142
0.00476088
0.00471142
0.00447966
0.00512316
0.00531782
0.00538264
0.00551666
0.00572562
0.00556858
0.00539626
0.0052649
0.00516975
0.0050704
0.00512329
0.00521808
0.00531933
0.00546147
0.00565106
0.00568165
0.00548514
0.00533652
0.00523487
0.0051394
0.00514282
0.00522789
0.00532711
0.00546798
0.00564788
0.00554779
0.00540781
0.00528321
0.00518107
0.00509118
0.00491293
0.00503123
0.00516139
0.00526864
0.00533821
0.00461267
0.00493043
0.00484566
0.00438723
0.00410633
0.00311845
0.00337489
0.00355886
0.00387627
0.00430272
0.00438643
0.00368113
0.00315468
0.00307416
0.0030494
0.00312149
0.00314729
0.00316251
0.00357335
0.00538366
0.00542135
0.00543769
0.00544066
0.00465268
0.00452023
0.00420964
0.00769746
0.00716771
0.00621079
0.00512059
0.00274344
0.00235159
0.00278536
0.00338737
0.00378752
0.00418006
0.00277478
0.00171922
0.00200393
0.00207815
0.00202781
0.00187442
0.00156131
0.00144122
0.0013081
0.00140766
0.00249255
0.00397676
0.00447913
0.00452657
0.00448173
0.00439481
0.00428943
0.00414276
0.00408171
0.00512911
0.00692025
0.00784837
0.00782148
0.00672052
0.00547125
0.00307937
0.00157775
0.00114808
0.00125858
0.00138217
0.00162647
0.00145127
0.00120712
0.0013225
0.00125859
0.00255316
0.00441538
0.00564425
0.00669206
0.0065738
0.00570171
0.00467947
0.00444448
0.00454906
0.00461788
0.00467756
0.00473892
0.00478115
0.00475483
0.00432828
0.00267469
0.00159678
0.00141877
0.00152575
0.00178815
0.00189995
0.00191902
0.00189206
0.00163997
0.00271159
0.00430636
0.00273844
0.00149439
0.0016149
0.00160332
0.00282816
0.0028236
0.00276222
0.00429736
0.00454348
0.00453183
0.00425833
0.00406565
0.00240712
0.00273129
0.00274027
0.00275473
0.00279996
0.00141429
0.00154159
0.00158958
0.00171108
0.00149876
0.00190208
0.000492195
0.000682206
0.000792311
0.000861268
0.000927795
0.000910098
0.00174072
0.00176582
0.00168569
0.00164187
0.0020839
0.00223632
0.00228577
0.00210553
0.00194286
0.0020682
0.00207262
0.0019531
0.00185007
0.00191841
0.0019198
0.0018396
0.00156466
0.00146612
0.00160966
0.00159234
0.00157958
0.00283681
0.00283172
0.00267979
0.00440277
0.00433214
0.004852
0.00482061
0.00481522
0.00479601
0.00484722
0.00487386
0.00489398
0.00491771
0.00490793
0.0048608
0.00676667
0.00478046
0.00417172
0.00241261
0.00232401
0.00164135
0.00143839
0.00169375
0.00181154
0.00196396
0.00191955
0.00202363
0.00202136
0.00214471
0.00199066
0.0017676
0.00270745
0.0028924
0.00282496
0.00288085
0.00281303
0.0027965
0.00277584
0.00273633
0.00268877
0.00160093
0.00157041
0.00183896
0.00193039
0.00207425
0.00209304
0.00213849
0.00202816
0.00178376
0.00172664
0.00198848
0.00196164
0.00199975
0.00188539
0.00187761
0.00167274
0.00171514
0.00346044
0.00639255
0.00328744
0.00365195
0.00330793
0.00376264
0.00329535
0.00284161
0.00290833
0.00256149
0.002672
0.00280284
0.00285356
0.0029991
0.00353513
0.00340379
0.0029879
0.00290117
0.00284395
0.00268136
0.00241342
0.00252845
0.00255145
0.00260625
0.00289648
0.00332303
0.00372555
0.00452736
0.00439352
0.00384889
0.00351871
0.00369045
0.0037537
0.00472572
0.0044154
0.0043891
0.0046292
0.00458286
0.00435006
0.00412209
0.00397889
0.00341557
0.00347157
0.00397392
0.00384541
0.00396301
0.00389377
0.00404745
0.00412091
0.00395577
0.00367646
0.00386318
0.00385456
0.0042814
0.00416454
0.00386267
0.00353528
0.00377708
0.00373034
0.00431033
0.00405827
0.00379561
0.00349296
0.00334509
0.00379678
0.00372786
0.00422804
0.00434966
0.00435149
0.00379289
0.00370522
0.00440765
0.00424095
0.0040953
0.00426578
0.00353191
0.0036336
0.00447699
0.00457095
0.00433586
0.00361874
0.00367501
0.00315109
0.00370649
0.00461376
0.00435725
0.00357106
0.00296211
0.00414603
0.00436269
0.00461589
0.00436177
0.00475147
0.00511881
0.00417162
0.00453872
0.00593231
0.00452536
0.00525171
0.00536846
0.00540063
0.00540415
0.00542602
0.00545441
0.00574853
0.00559677
0.00355342
0.00425193
0.00412832
0.00345051
0.00293133
0.00322947
0.00347806
0.00352788
0.00361692
0.00375458
0.00369095
0.00357295
0.00522626
0.00596243
0.00609575
0.00621904
0.00611795
0.00596638
0.00561694
0.00518747
0.00429716
0.00320343
0.00199641
0.00203469
0.00216831
0.00214715
0.0018628
0.00140643
0.000923547
0.00137185
0.00141769
0.0013342
0.00121498
0.00106973
0.00110273
0.00202584
0.00412112
0.00549698
0.00603589
0.00647849
0.00696136
0.00742699
0.00778061
0.008035
0.00820548
0.00830865
0.00832552
0.00815586
0.00743123
0.00711242
0.0067169
0.00639414
0.00593801
0.00556234
0.00628317
0.00689389
0.00726851
0.00769112
0.00788484
0.00780106
0.00678141
0.00659525
0.00759144
0.00933986
0.00794189
0.00997144
0.0117223
0.00914462
0.00821923
0.00820407
0.00915082
0.00932652
0.00899731
0.00848519
0.00789926
0.00715987
0.00752526
0.0078533
0.00816566
0.00845209
0.00926101
0.00941717
0.00935461
0.00921681
0.0090326
0.00876571
0.00833634
0.00773769
0.00706674
0.00642092
0.00567597
0.00414541
0.00186983
0.00218837
0.00213826
0.00240818
0.0022835
0.00100873
0.00110411
0.00111904
0.00112719
0.00106752
0.00121292
0.00176056
0.00287568
0.0020665
0.00169327
0.00117447
0.00138792
0.00232177
0.00395267
0.00446358
0.00453912
0.00458926
0.00595948
0.00684971
0.00728006
0.00761174
0.0078341
0.00772441
0.00746887
0.00702165
0.00649523
0.00628636
0.00595572
0.00564629
0.00547796
0.00529588
0.00497888
0.00394963
0.0037225
0.00387473
0.00383826
0.00367638
0.00392265
0.0040617
0.00405673
0.00410093
0.00414005
0.00426237
0.00440654
0.00453227
0.00459868
0.00462393
0.00463265
0.00464331
0.00465207
0.00466752
0.00465287
0.00455199
0.00399771
0.00249973
0.00145887
0.00134867
0.0014788
0.00156384
0.00160021
0.00142082
0.000914388
0.00142118
0.00183954
0.00188671
0.00207012
0.00213586
0.00226536
0.00252489
0.00291857
0.00301227
0.00267312
0.0025319
0.00247714
0.00241407
0.00205826
0.00256517
0.00283739
0.00283302
0.00280735
0.00303453
0.00373465
0.00358737
0.00316257
0.00312579
0.00309322
0.00278955
0.0027459
0.0030088
0.00304288
0.00315871
0.00370543
0.00444497
0.00412255
0.00375333
0.00359492
0.0033181
0.00291364
0.00263308
0.00326547
0.00268947
0.00138544
0.00117475
0.0011824
0.00118147
0.00113405
0.00134301
0.00141245
0.00143243
0.00133756
0.00148544
0.00165409
0.00160299
0.00181806
0.001791
0.0015985
0.00158063
0.00172087
0.00182674
0.00187897
0.00191919
0.00314105
0.00323188
0.00251197
0.00364539
0.00420114
0.00420757
0.00446061
0.00365788
0.00326997
0.00388414
0.0045056
0.00519717
0.00409481
0.00386336
0.00396572
0.00180922
0.000951726
0.00134333
0.00166777
0.00185736
0.00180153
0.00170263
0.00144016
0.00256172
0.00262969
0.00417584
0.00468256
0.00473947
0.00470317
0.00472411
0.00518408
0.0060151
0.00681405
0.00704191
0.00693418
0.00662789
0.0060688
0.00552628
0.00548708
0.00530733
0.00516466
0.00512357
0.00447321
0.0039143
0.00415824
0.0041068
0.00424284
0.00430589
0.00435162
0.00439882
0.00447831
0.00457445
0.00466218
0.00472277
0.00476383
0.00479884
0.00483472
0.00487081
0.00490972
0.00493153
0.00488653
0.00441782
0.002649
0.00157861
0.00143961
0.00153606
0.00180553
0.00190108
0.0020431
0.00181367
0.000955051
0.00112381
0.00195236
0.00216577
0.00200387
0.00187524
0.0018423
0.00154304
0.0027972
0.00276177
0.00433698
0.00487567
0.00494157
0.00492536
0.00488473
0.00483899
0.00479468
0.00475829
0.00472927
0.00469913
0.00465742
0.00460821
0.00456078
0.00451144
0.00442963
0.00430932
0.00420087
0.00438321
0.00449671
0.00469425
0.00491846
0.00502969
0.00493598
0.00479043
0.00472305
0.00475344
0.00479817
0.00484458
0.00488685
0.00490997
0.00485811
0.00458097
0.00429903
0.0027208
0.00275669
0.00135453
0.0015044
0.00173619
0.00179329
0.00194737
0.00193812
0.00152277
0.00118622
0.00133843
0.00125167
0.002238
0.00246155
0.00273109
0.00270422
0.00146708
0.00150478
0.00156361
0.0017637
0.00163856
0.00158442
0.00394017
0.00376667
0.00393654
0.00483439
0.00416278
0.00287238
0.00314844
0.00438114
0.00462168
0.00279323
0.00209347
0.00232376
0.00294396
0.00433334
0.00438848
0.00417022
0.00414537
0.00302502
0.00371524
0.00447135
0.00435138
0.00339155
0.00233789
0.00174049
0.000843263
0.0016042
0.00137174
0.0033653
0.00372495
0.00368235
0.0040295
0.00427926
0.00432323
0.00420272
0.00372374
0.00379803
0.00383619
0.00437367
0.00439561
0.00371651
0.00313593
0.00254364
0.00256712
0.00261778
0.0029021
0.00363468
0.00342407
0.00300039
0.00290862
0.00284508
0.00267554
0.00241383
0.00211721
0.00213209
0.00198463
0.00192081
0.00302846
0.00403198
0.00475524
0.00489203
0.00494138
0.00486505
0.00482989
0.00469084
0.00461838
0.00401137
0.00511956
0.00541214
0.00522446
0.00526484
0.00529922
0.00534092
0.0053428
0.00524284
0.00450378
0.00268897
0.00175613
0.00198223
0.00213939
0.00200861
0.00199752
0.00212937
0.00202079
0.00177507
0.00287611
0.00281113
0.00449562
0.00509249
0.00520072
0.00520554
0.00518328
0.00516432
0.00516958
0.00544061
0.00531801
0.00540162
0.00569883
0.00570511
0.0057724
0.00541855
0.0053486
0.0053036
0.00527332
0.00522467
0.00509593
0.00450921
0.00437154
0.00496479
0.0051182
0.00518657
0.00523411
0.00529069
0.00536457
0.00557708
0.00573569
0.00579751
0.00555448
0.00545988
0.00533232
0.00515273
0.00511109
0.00510413
0.00510116
0.00507772
0.00494709
0.00435435
0.00279963
0.00286902
0.0017066
0.00171766
0.00197834
0.00207767
0.00204038
0.00188938
0.00184206
0.00317517
0.00361621
0.00384343
0.00414515
0.0039601
0.00393553
0.00449929
0.00435444
0.00388101
0.00403851
0.00361898
0.00344616
0.0033425
0.00336304
0.00176117
0.00190056
0.0019826
0.00194992
0.0018644
0.00166302
0.00152494
0.00278329
0.00276293
0.00272746
0.00162136
0.00158574
0.00186833
0.00181429
0.00165959
0.00141457
0.00155088
0.00239556
0.00267955
0.00415442
0.00430367
0.00460594
0.00492491
0.00504498
0.00507676
0.00509593
0.00511688
0.00516452
0.00522098
0.00523781
0.00523878
0.00528733
0.00527822
0.0052803
0.00525414
0.00522315
0.00518636
0.00514653
0.00508072
0.00494517
0.00462071
0.00430261
0.00485076
0.00489556
0.0049868
0.00508085
0.0051206
0.00512613
0.00510624
0.00506729
0.00502069
0.00496809
0.00496484
0.00510643
0.00514273
0.00516798
0.00515247
0.00513442
0.00512919
0.0051068
0.0050708
0.00497811
0.00488482
0.00484533
0.00476434
0.00489029
0.00494651
0.00495432
0.00500126
0.00507679
0.00509857
0.00509804
0.00505983
0.00502828
0.0049868
0.00491828
0.00482531
0.00453084
0.00459645
0.00467684
0.00478295
0.00488526
0.00496796
0.00501495
0.00501951
0.00497461
0.00494423
0.00494565
0.00490397
0.00492554
0.00494756
0.00492177
0.00491766
0.00491936
0.0048601
0.0047553
0.00461049
0.00445839
0.00433565
0.00427877
0.00417874
0.00449692
0.00463112
0.00474839
0.00485123
0.00494352
0.00503661
0.00506392
0.00505282
0.00499748
0.00496612
0.00496535
0.00491787
0.0049142
0.00495996
0.0049613
0.00498739
0.00503447
0.00502267
0.00495721
0.00478221
0.00461306
0.00446553
0.00432311
0.00416987
0.00416578
0.0042339
0.00416468
0.00421101
0.00435321
0.00453646
0.00469674
0.0048023
0.0048372
0.00486913
0.00491461
0.00491048
0.00488359
0.00486808
0.00480674
0.00475273
0.00468667
0.00454529
0.00436822
0.00421589
0.00417561
0.00426712
0.0043519
0.00427249
0.00394334
0.00410112
0.00425206
0.00439975
0.0046098
0.004853
0.00495597
0.00499273
0.00496849
0.00494956
0.00494725
0.00490388
0.00488739
0.00492743
0.00493082
0.0049505
0.0049815
0.00495449
0.0048725
0.00457538
0.00422049
0.00404977
0.0039479
0.00381454
0.00429333
0.00438384
0.00427489
0.0042005
0.0043112
0.00443735
0.00456938
0.0046581
0.00469413
0.00474619
0.00481463
0.00484802
0.00479993
0.00474325
0.00467389
0.00463878
0.00464091
0.00462149
0.00453786
0.00443706
0.00431494
0.00446068
0.00454739
0.00446499
0.00402273
0.00408867
0.00419532
0.00425456
0.00458844
0.00487727
0.00493977
0.00493761
0.00490462
0.0048831
0.0048831
0.00485774
0.00480927
0.00480062
0.00479718
0.00485616
0.00493377
0.00498331
0.00500989
0.00479494
0.00439934
0.00433243
0.00413857
0.00405452
0.00452495
0.00457602
0.00446671
0.00436886
0.00458213
0.00467106
0.00469374
0.00467245
0.00462062
0.00458656
0.00464546
0.00473903
0.00466842
0.0043649
0.00409577
0.00423543
0.00427119
0.00426231
0.00420591
0.00410952
0.0038974
0.00435525
0.00480376
0.00483735
0.00434575
0.00435351
0.00423222
0.00393987
0.00432327
0.00452263
0.00456304
0.00453864
0.00446326
0.00429058
0.00453127
0.00474392
0.00470281
0.00425673
0.00276179
0.00279905
0.00281768
0.00281945
0.00278318
0.00277284
0.00273324
0.0027127
0.00265146
0.00258884
0.00252971
0.00269634
0.00283842
0.00303132
0.00304815
0.00312839
0.00299975
0.00284406
0.00265948
0.00207703
0.00263444
0.00314093
0.00333554
0.00358624
0.00363713
0.00418281
0.00439559
0.00450847
0.00441968
0.00354828
0.00301045
0.00240649
0.00156527
0.00097552
0.00114527
0.00119148
0.00125335
0.00153502
0.00282269
0.00144266
0.00199448
0.00155871
0.00267625
0.00142309
0.0008907
0.000589374
0.000750058
0.000889152
0.000898136
0.000863164
0.000720642
0.000569055
0.000581683
0.000544323
0.000578532
0.000521701
0.000597625
0.000557051
0.00076671
0.00111798
0.0012979
0.00133049
0.00107718
0.00121835
0.00101826
0.00117643
0.00105177
0.00114699
0.00110069
0.00134621
0.00147537
0.001412
0.00141531
0.00123839
0.000866011
0.00100407
0.000788748
0.000947344
0.000724699
0.000935154
0.000801874
0.0010419
0.00107386
0.00107054
0.0010305
0.000787035
0.00093267
0.000734564
0.000902614
0.000742666
0.000790735
0.000657573
0.000953895
0.000971544
0.000896158
0.000951185
0.00106612
0.00114158
0.00125554
0.00118975
0.00135769
0.00131292
0.00133136
0.00126195
0.00122791
0.00120045
0.00120352
0.00118404
0.00119062
0.001229
0.00123065
0.0012353
0.00127401
0.00125556
0.00122471
0.00120581
0.0010713
0.000865091
0.00150717
0.00155409
0.00157801
0.00157824
0.00154367
0.00152513
0.00146937
0.00145499
0.00140733
0.00138102
0.00131805
0.00126829
0.00121022
0.00136182
0.000762716
0.000866295
0.000914627
0.000942501
0.000961202
0.000970122
0.000976704
0.000971109
0.000958741
0.000935581
0.000928283
0.000902807
0.00115452
0.00131353
0.00137409
0.00139064
0.00130322
0.00124126
0.00272621
0.00330321
0.00501104
0.00512187
0.00385098
0.00383665
0.00132341
0.00139982
0.000955883
0.00134316
0.00138496
0.00137062
0.00129435
0.000933308
0.00140083
0.000976706
0.0013112
0.000985268
0.00120646
0.00100192
0.00142469
0.00181729
0.00175396
0.00158823
0.00108768
0.000906902
0.000907875
0.000777662
0.000853677
0.000704262
0.000864357
0.000728979
0.00106853
0.0014964
0.00168004
0.00171609
0.00135448
0.00187003
0.00140671
0.00203889
0.00162248
0.00200408
0.00161067
0.00186234
0.00230466
0.00231522
0.00226003
0.00182116
0.00145726
0.00163668
0.00144886
0.00166995
0.00241565
0.00158223
0.00240715
0.000993344
0.00135418
0.00139596
0.00137686
0.00129813
0.000874037
0.00222445
0.00117679
0.00208744
0.00135029
0.00215641
0.00157012
0.00208121
0.00248636
0.00260052
0.00258822
0.00211347
0.00190973
0.00197603
0.00157832
0.00189506
0.00141391
0.00205319
0.00116907
0.00151745
0.00167079
0.00176185
0.0017672
0.00144966
0.00286724
0.00180214
0.00272057
0.00189439
0.00242828
0.0019474
0.00212834
0.00251434
0.00249817
0.00247647
0.00209965
0.00169966
0.00224426
0.00159882
0.0480604
0.110715
0.0442148
0.111996
0.0506541
0.0719436
0.0708797
0.0710104
0.0712841
0.0535748
0.116806
0.1379
0.143772
0.145529
0.144459
0.23341
0.190349
0.285879
0.185235
0.109127
0.0474074
0.0652749
0.168253
0.277705
0.416871
0.529039
0.360589
0.373279
0.238206
0.234866
0.221191
0.179062
0.109997
0.0552373
0.00938483
0.0102357
0.0146786
0.0195746
0.0153662
0.00937772
0.00185792
0.00191668
0.00195929
0.00198545
0.00197729
0.00193303
0.00196023
0.00184593
0.00173009
0.00193162
0.00210777
0.00234462
0.00274037
0.00302056
0.0027207
0.00297907
0.00315571
0.00329986
0.00341959
0.00359821
0.00379935
0.00397529
0.00398456
0.00365133
0.00311276
0.00253191
0.00212734
0.00201508
0.00189208
0.00166848
0.00152613
0.00142831
0.00138149
0.00136221
0.00140003
0.00153026
0.00164344
0.00168317
0.00165031
0.00162004
0.00159367
0.00141912
0.00165936
0.00227618
0.00229353
0.00392961
0.00452796
0.00462221
0.00462878
0.00410257
0.0026206
0.00262654
0.00264012
0.00269101
0.00270178
0.00270964
0.00270709
0.00269861
0.00268311
0.00265461
0.00264005
0.00259748
0.00256121
0.00246998
0.00247406
0.00250699
0.00253235
0.00249065
0.00250101
0.00244763
0.00318704
0.00425792
0.00479993
0.00501531
0.00520072
0.00504764
0.00699621
0.00598667
0.00420813
0.00414471
0.00409204
0.00485833
0.00489017
0.00439955
0.00441716
0.00404741
0.00252481
0.00251671
0.00251821
0.00269322
0.00274608
0.00283718
0.00286251
0.00288294
0.00289602
0.00288723
0.0028845
0.00285632
0.00283634
0.00277077
0.00274904
0.00273966
0.00151064
0.00164882
0.00171093
0.00172329
0.00175002
0.00174057
0.00173208
0.00171181
0.00169926
0.00167119
0.00163932
0.00159066
0.00149551
0.00136235
0.00149993
0.00254563
0.00254525
0.00415479
0.00466307
0.00469634
0.0052495
0.00498229
0.00471946
0.00506805
0.00455668
0.00451864
0.00410238
0.00254816
0.00258234
0.00153312
0.00151843
0.00177573
0.00172599
0.0018445
0.0018947
0.00189927
0.00192471
0.00194872
0.0019789
0.00202684
0.00203978
0.00200518
0.00199768
0.00188158
0.00162605
0.00164501
0.00193902
0.00203382
0.00189051
0.00186014
0.00184759
0.00180435
0.00177077
0.00173864
0.00176217
0.00189847
0.00189717
0.00186401
0.00177496
0.0017294
0.00149994
0.00145069
0.00253059
0.00255753
0.00419559
0.00431354
0.00429614
0.00495322
0.00552434
0.00628097
0.0053583
0.00434183
0.0044637
0.00510322
0.00378612
0.00315188
0.00186873
0.00143399
0.00174913
0.00167431
0.0017431
0.00180581
0.00160299
0.00172109
0.00159033
0.00144494
0.0014364
0.00143448
0.00146945
0.0014842
0.00151062
0.00151411
0.00154925
0.00154543
0.00154854
0.00156717
0.00157332
0.00173804
0.0018865
0.00158865
0.00134767
0.001315
0.0012421
0.00118345
0.00121274
0.00118475
0.00117768
0.00115639
0.00113696
0.00108524
0.00113118
0.00120072
0.00140507
0.00134548
0.00108719
0.00097104
0.000663666
0.000676545
0.000681209
0.000702017
0.000709647
0.000718982
0.000722464
0.00073406
0.0007363
0.000739929
0.000739614
0.000756985
0.000754307
0.000745386
0.000739772
0.000743313
0.000746492
0.000745765
0.00109195
0.00121536
0.00132536
0.00157338
0.00185029
0.00159279
0.00135081
0.0011664
0.000750087
0.000761323
0.000774903
0.000782053
0.000798263
0.000813257
0.000829705
0.000840142
0.000847763
0.000855916
0.000864456
0.000867853
0.000865569
0.000848872
0.000838971
0.000860445
0.000945666
0.000995282
0.00105884
0.00108294
0.00110358
0.00111404
0.00110877
0.00112036
0.00110715
0.00110538
0.0010864
0.00107838
0.00107058
0.00106092
0.00104881
0.00101907
0.00100911
0.00106177
0.00179604
0.0023478
0.00270293
0.00297656
0.00274338
0.00221706
0.0023409
0.00410574
0.00387948
0.00230002
0.00214225
0.00196971
0.0017096
0.00152949
0.0018529
0.00211129
0.00230724
0.00248023
0.00263844
0.00274606
0.00288476
0.00306581
0.00338499
0.00342498
0.0031242
0.00253119
0.0021416
0.00199896
0.00193073
0.00181292
0.00168428
0.0017266
0.00173916
0.00168749
0.00162334
0.00160527
0.00163197
0.00166644
0.00164662
0.00164601
0.00147062
0.00147006
0.00251213
0.0025584
0.00393572
0.00414703
0.0041876
0.00269157
0.00265501
0.0015507
0.0014404
0.00157144
0.00163158
0.00163516
0.00164207
0.00163421
0.00160576
0.00158516
0.00156086
0.00154121
0.00152365
0.00149334
0.00143537
0.00132611
0.00144505
0.00161966
0.00169166
0.00171047
0.00171963
0.0017467
0.00179149
0.00182692
0.00190953
0.00191725
0.00191626
0.00192284
0.0017968
0.00185275
0.00156788
0.00156539
0.00271343
0.0027056
0.00155436
0.00183543
0.00184822
0.00182759
0.00196794
0.00180072
0.0017438
0.00173527
0.00166194
0.001623
0.00157058
0.00153946
0.00156943
0.00166943
0.00161629
0.00143286
0.00138045
0.00154859
0.00149008
0.00123617
0.00105608
0.00102708
0.000983185
0.000956547
0.00100264
0.00103877
0.00105933
0.00108537
0.00109303
0.00114077
0.00110963
0.00116395
0.00123435
0.00129046
0.0015305
0.00165883
0.00149857
0.00146991
0.00145172
0.00145075
0.00145554
0.00139564
0.00139173
0.00136076
0.00134547
0.00130467
0.00128636
0.00126306
0.00126718
0.00128045
0.00140773
0.00362551
0.00462363
0.00481385
0.00823231
0.00332225
0.00339188
0.00667586
0.00274796
0.00413959
0.00443685
0.00463678
0.00484365
0.00443191
0.00564569
0.00393108
0.00437928
0.00456297
0.00399662
0.00149856
0.00171324
0.00197409
0.00175899
0.00155332
0.00105811
0.00114005
0.00117692
0.00120702
0.00122638
0.00124816
0.00127136
0.00129319
0.00130839
0.00130847
0.00126846
0.00122543
0.00112664
0.00109377
0.00113598
0.00117958
0.00103576
0.00097521
0.000986588
0.00100264
0.00101157
0.00101333
0.00102302
0.00102554
0.00104093
0.00103247
0.00104009
0.00102215
0.00103087
0.00101765
0.000983153
0.000934455
0.00085197
0.000831928
0.00119839
0.0012763
0.00134076
0.00152214
0.00175824
0.00187655
0.00168216
0.00155154
0.0014893
0.00165204
0.00165351
0.00301062
0.00578384
0.00258495
0.00289396
0.00845405
0.00335706
0.00260627
0.00264529
0.00267287
0.00267675
0.00155549
0.00184203
0.00178563
0.00179366
0.00152151
0.00127771
0.00114601
0.00102459
0.00069501
0.000692803
0.000698025
0.000708894
0.000712305
0.000681794
0.000681718
0.000677846
0.000676349
0.000661961
0.000657959
0.00064624
0.00063913
0.000622222
0.000613104
0.00059713
0.000594451
0.000622126
0.000693575
0.000838793
0.000931265
0.0010601
0.00107872
0.00120953
0.00299808
0.00347308
0.00479224
0.00475033
0.00749068
0.00468039
0.0035338
0.00319151
0.0046725
0.0048304
0.00448333
0.006072
0.00419873
0.00278358
0.00423173
0.00352807
0.00413919
0.00407392
0.00432566
0.00686218
0.00720138
0.00202423
0.00180389
0.00189685
0.00215254
0.00255638
0.00235657
0.00268336
0.00268549
0.00207652
0.00131508
0.00419119
0.00507113
0.00408572
0.00491718
0.00753995
0.00302596
0.00295061
0.00261014
0.00217844
0.00197965
0.00195359
0.00217874
0.00260739
0.00652739
0.00698534
0.00647003
0.00646696
0.00587116
0.00643189
0.00799958
0.00795004
0.0070262
0.00657077
0.00681885
0.00426409
0.00262641
0.00305146
0.00338419
0.00451651
0.00465703
0.00981432
0.00334114
0.00368499
0.00374132
0.00500179
0.0048528
0.00854764
0.00363887
0.00391693
0.00516298
0.00689965
0.0126785
0.00465267
0.00488645
0.0070214
0.00713072
0.00652041
0.00472194
0.00427413
0.00464911
0.00350371
0.00342688
0.00292393
0.00431496
0.00579652
0.00459734
0.00446338
0.00379062
0.00339261
0.00345753
0.0035905
0.00298414
0.00294205
0.00339158
0.0025358
0.00244564
0.00258256
0.000716738
0.00036723
0.000375362
0.000385158
0.000393096
0.000401305
0.000407259
0.000414379
0.00041751
0.000417906
0.000419065
0.000443058
0.000438824
0.00042493
0.000385846
0.00044021
0.00069858
0.000698968
0.000439628
0.000387536
0.00069549
0.00110804
0.00130626
0.00154493
0.00156377
0.00134949
0.00117019
0.000720485
0.000709117
0.000429763
0.000501946
0.000545071
0.000483519
0.000539702
0.000500282
0.000529833
0.000535612
0.000495707
0.00049282
0.000494675
0.000490969
0.000482196
0.000471533
0.00045851
0.000448353
0.000442955
0.000439021
0.000430102
0.000356539
0.000332741
0.00040136
0.000641472
0.000641202
0.000600336
0.000564876
0.000534439
0.000520319
0.000516205
0.000513228
0.000522199
0.000539007
0.000543798
0.00054873
0.000591187
0.000572285
0.000611226
0.000573713
0.00061286
0.000575139
0.00052911
0.000444265
0.000458344
0.000739523
0.000747402
0.00120725
0.00138066
0.00156539
0.00157316
0.00175644
0.00185033
0.00156741
0.0016273
0.0018645
0.00173599
0.00154684
0.00155305
0.00139673
0.00139839
0.00123917
0.000774634
0.000764155
0.000479844
0.000466046
0.000555699
0.000546039
0.000607239
0.000649946
0.000650156
0.000648075
0.000632338
0.00062657
0.000550968
0.000540008
0.000540737
0.000524459
0.000521049
0.000543788
0.000594533
0.000698971
0.000846002
0.000920807
0.00095195
0.000912274
0.000816426
0.000604091
0.000544779
0.000945487
0.000979761
0.0017655
0.00420159
0.00196527
0.0037107
0.00267655
0.000664126
0.000740273
0.000943889
0.00105755
0.00114203
0.00119137
0.00108984
0.000909819
0.000684859
0.000565593
0.000843062
0.000728961
0.000822505
0.000718203
0.000929423
0.00107451
0.00103934
0.00104701
0.0008847
0.000720529
0.000763089
0.000684872
0.000754866
0.000632008
0.000760388
0.00068638
0.000862466
0.000870536
0.000852389
0.000807914
0.000615124
0.000645409
0.000541426
0.000587402
0.00052748
0.000545232
0.000516655
0.000602466
0.000694256
0.000666339
0.000663763
0.000545413
0.000427456
0.000472191
0.000408559
0.000462461
0.000359558
0.000435508
0.000365082
0.000472699
0.000487397
0.000490174
0.000487494
0.00039716
0.000467258
0.000571457
0.000599626
0.000604363
0.000575233
0.00044375
0.000686364
0.000618548
0.000755233
0.000652818
0.000715031
0.000650978
0.000758726
0.000971798
0.00101472
0.00102145
0.000828819
0.000823678
0.00150356
0.0834845
0.00135256
0.00159877
0.00164875
0.00164289
0.00135822
0.00132478
0.00164131
0.00121364
0.00171931
0.00108262
0.00183453