/*--------------------------------*- C++ -*----------------------------------*\
| =========                 |                                                 |
| \\      /  F ield         | OpenFOAM: The Open Source CFD Toolbox           |
|  \\    /   O peration     | Version:  v2012                                 |
|   \\  /    A nd           | Website:  www.openfoam.com                      |
|    \\/     M anipulation  |                                                 |
\*---------------------------------------------------------------------------*/
FoamFile
{
    version     2.0;
    format      ascii;
    class       surfaceScalarField;
    location    "550";
    object      phi;
}
// * * * * * * * * * * * * * * * * * * * * * * * * * * * * * * * * * * * * * //

dimensions      [1 0 -1 0 0 0 0];
oriented        oriented;


internalField   nonuniform List<scalar> 
50655
(
0.00257092
-0.00359588
-0.00141768
-0.00511984
0.00140237
0.00357054
-0.00338646
0.00393185
0.00443133
-0.00249225
-0.00283987
0.00306346
-0.00368888
-0.00379087
0.00264712
-0.0017589
-0.00485571
0.000791054
0.000226691
-0.00472396
0.00157037
-0.0017727
-0.00716647
0.00235498
-0.0104446
0.00279363
0.000385744
-0.011268
-0.00342775
0.0041411
-0.0120259
-0.0048208
0.00547634
-0.0128894
-0.00561954
0.00637889
-0.026153
-0.00929772
0.0223674
-0.0486736
-0.0282165
0.0501767
-0.0482873
-0.0526763
0.0515928
-0.0311202
-0.0711057
0.0531608
-0.00461038
-0.0780759
0.050783
0.00780508
-0.0548354
0.0416085
-0.00182163
-0.0314509
0.0403047
-0.0212887
-0.0216677
0.0403681
-0.0173435
-0.051294
0.0466264
-0.00740788
-0.0555759
0.0450827
-0.0391432
0.0314062
-0.0418979
0.018787
-0.0163335
-0.0165132
-0.0757238
0.0498445
0.0199089
-0.0798012
0.0428827
0.0305103
-0.0294494
0.018541
0.0342175
-0.0040445
0.0366862
0.0177153
-0.0205065
0.025639
-0.0179726
0.0287439
0.0167576
-0.00949712
0.0182094
0.0039661
-0.00144507
0.0141096
-0.00622967
0.00694721
0.00315328
-0.00536073
0.000442009
-0.00135165
-0.0053479
-0.00110555
0.00107433
-0.00627232
0.000133984
0.000773154
-0.00753072
0.000125901
0.0011159
-0.00864327
1.17616e-05
0.00108365
-0.0090283
-0.000317453
0.000686118
-0.00928896
-0.000737821
0.000981889
-0.00885746
-0.00116648
0.000718698
-0.00823216
-0.00164127
0.000999298
-0.00701165
-0.00209339
0.000856452
-0.0055809
-0.00256251
0.00111489
-0.00371836
-0.00285886
0.000980151
-0.00190796
-0.00304362
0.00121626
0.00108165
-0.0030072
0.00080581
-0.00233559
0.00258579
-0.00602592
0.00491482
0.00187514
-0.0115639
0.0046255
0.000856003
-0.0134754
0.00506091
-0.00321641
-0.0131995
0.00531931
-0.00566223
-0.00555152
0.00461922
-0.0123236
0.000472973
0.00558415
-0.0116504
0.000593156
0.00356658
-0.0037124
-0.00150886
0.00208443
-0.00296238
0.00214013
-0.000703743
-0.00452502
0.00218747
-0.00064098
-0.00583882
0.0023463
-0.00104889
-0.00710515
0.00230364
-0.00105226
-0.00860671
0.0024963
-0.00100876
-0.010173
0.00258273
-0.00102982
-0.0114685
0.00237504
-0.00109265
-0.012371
0.00201342
-0.001124
-0.0128382
0.00160003
-0.00114586
-0.0131559
0.00143418
-0.00112977
-0.0137593
0.00156134
-0.000972143
-0.0139661
0.00111728
-0.000925575
-0.0136711
0.000891398
-0.00120183
-0.0136607
0.000777346
-0.000803372
-0.0133859
0.00082177
-0.00111267
-0.0131382
0.000896495
-0.00116008
-0.0129933
0.000839588
-0.00100025
-0.0127172
0.000569645
-0.00086132
-0.0121777
0.000120577
-0.000675539
-0.0112758
-0.000455824
-0.000461322
-0.0101542
-0.000916298
-0.000220704
-0.00883592
-0.00101225
-0.000320767
-0.00738698
-0.000762703
-0.00070009
-0.0075835
-0.000694323
0.000878841
-0.0163886
0.00081633
0.00796221
-0.0211641
0.000379843
0.00433508
-0.0226137
0.00113145
0.00025297
-0.0426171
0.016328
0.0035578
-0.0546138
0.00551518
0.00618324
-0.0294801
-0.016415
-0.00902627
-0.0131246
-0.0150024
-0.00148525
-0.0112709
-0.00401296
0.00208126
-0.0100223
-0.0031099
0.00177128
-0.00810523
-0.00346229
0.00144369
-0.00473427
-0.00332111
-0.000145125
-0.00320062
-0.00161896
-0.00447579
0.00461075
-0.00343046
-0.00270586
0.00674001
-0.00862357
0.00087264
0.00621988
-0.00993056
0.00615988
0.00591186
-0.0113439
0.014911
0.00882379
-0.017756
0.0284816
0.0138181
-0.0276713
0.0249456
0.0196877
-0.0164331
0.0166459
0.00642084
0.00169419
0.00810023
5.5917e-05
0.0083424
-0.000889746
-0.00384402
0.0126991
-0.00438292
-0.00672298
0.0100998
-0.00755526
0.00542987
0.00432527
0.00100681
-0.0101912
0.00195991
-0.00811872
0.00364743
-0.00525249
-0.00416007
0.00740266
-0.0125818
0.00198423
0.00526818
-0.0143749
0.00571352
0.00236356
-0.0384312
0.0270749
0.0233023
-0.00721454
-0.0132781
0.0372038
-0.00969462
-0.0394216
-0.00477702
0.00931174
-0.00912356
-0.000515187
0.00898148
-0.00746152
0.00269331
0.00960396
-0.006715
0.00460698
0.00962286
-0.00490645
0.00714679
-0.00134399
0.0112936
-0.00501986
-0.00270642
0.0124721
-0.00194755
-0.0024433
0.00881989
-0.000391349
-0.00421174
-0.00202117
-0.021107
-0.00219691
0.0295763
-0.0106587
-0.0143456
-0.00173923
-0.00711555
-0.00256231
-0.00732682
0.0159001
0.00124561
-0.010268
0.021954
0.00105391
-0.00900327
0.0325314
0.000253474
-0.0132046
0.0832883
-0.0022799
-0.0359913
0.0468407
-0.00192534
0.0455425
-0.00232378
0.00750976
-0.00317402
0.0384672
0.0038676
0.0218209
0.00197024
0.0232384
-0.000313136
0.0113244
0.0139369
0.00624968
-0.00799173
9.41417e-05
0.00681259
0.00521901
-0.00149922
0.00732297
0.00819011
-0.00153914
0.00712436
-0.0150849
0.00798235
-0.0021193
0.00737156
-0.0153179
0.00850666
-0.00127931
0.00743767
-0.0167156
0.00841742
-0.00132199
0.00742128
-0.0160161
0.0086167
-0.000641532
0.00728691
-0.0165996
0.00861163
-0.000268683
0.00703582
-0.0159941
0.00856542
0.000701867
0.00623915
-0.0154617
0.00823339
0.0057657
0.00442327
-0.0169554
0.00745379
0.00149365
-0.00415951
0.0056843
0.00273293
0.00080944
0.0053837
-0.000283203
0.00063249
0.00714322
-0.000737877
0.000787949
0.00802009
-0.00115203
0.000945091
0.00832235
-0.00120556
0.00128236
0.00838834
-0.00131758
0.0015063
0.00856287
-0.00136243
0.00150785
0.00870931
-0.00135227
0.00127002
0.00872082
-0.00137095
0.000940556
0.00883642
-0.00119587
0.00731117
-0.000262744
0.00935944
-0.00200891
-0.000816039
0.0110382
-0.00185427
-0.000852128
0.0123226
-0.00155105
-0.000665572
0.0131086
-0.000314304
-0.000943159
0.0135393
0.000850638
-0.00117651
0.0137169
0.00170814
-0.00133193
0.0137158
0.00223668
-0.00141224
0.0137752
0.0022492
-0.00142866
0.0137307
0.00182489
-0.00097518
0.0137384
0.00134751
-0.000593875
0.0139213
0.00122728
-0.000534391
0.0133095
0.00114542
0.000568443
0.0124578
0.0024358
0.000231415
-0.000268303
0.0126992
-0.000413151
0.00244089
-0.000848271
0.0123614
-0.000237702
0.00280354
-0.000641268
0.011488
-7.41845e-05
0.00311626
-0.000168385
0.0102251
4.90755e-05
0.000295352
0.00328029
0.00862566
0.000720789
0.00331786
0.000129966
0.00687947
0.00103924
0.00305135
0.000138096
0.00587473
0.000961976
0.0022423
8.91408e-05
0.00443096
0.00462245
-0.000848767
0.00287524
0.00427797
-0.000550994
0.00142487
-0.000500122
0.0040742
0.00389488
-0.000402504
0.00560434
-0.000509889
-0.00121571
0.00682887
-0.000405627
-0.000835755
0.00779999
-0.000603065
-0.00038454
0.00816387
-0.000469685
8.90924e-05
0.00821808
-0.000601874
0.000531194
0.00752597
-0.000254492
0.000930011
0.00654289
-0.000286696
0.00125321
0.00471138
0.000308483
0.00150594
0.0019787
0.00118692
0.00152863
-0.00180903
0.00206873
0.00170106
-0.00453165
0.000510302
0.00219433
-0.00604746
-0.000903962
0.00240051
-0.00732927
0.000608259
0.000651606
-0.0138148
0.000483526
0.00595714
-0.0249564
-0.00657901
0.0176048
-0.0311122
-0.0162131
0.0222037
-0.0391812
-0.0262437
0.0340461
-0.0318456
0.0237603
0.0162088
-0.038579
0.0090758
0.0260021
-0.0166743
0.00681254
-0.00458172
0.00428612
-0.0323071
0.0262492
0.00142744
-0.014763
-0.0232417
0.00566232
-0.0374232
0.0059396
0.0412198
-0.0574537
-0.000633449
0.0290785
-0.0500893
0.0152034
0.0126016
-0.00991438
0.0169541
-0.0102217
0.0109689
-0.00255554
0.0190423
0.00783283
0.0114328
-0.0125534
0.0134681
0.00540112
-0.00625002
0.00137047
0.0112699
0.00496792
0.00103001
0.00275613
0.0012976
-0.000995667
0.00147376
0.00276677
-0.00486283
0.00386801
0.00204635
-0.00542835
-0.000423464
0.00215494
-0.00956758
0.00201205
0.00241519
-0.00822029
-0.00367508
0.00202101
-0.0118716
0.00196013
0.00141676
-0.00891321
-0.00417192
0.000591901
-0.0112483
0.0021581
-0.000312419
-0.00732704
-0.00319338
-0.00135065
-0.00816206
0.00229771
-0.00188848
-0.00440922
-0.00170224
-0.00257972
0.00130664
-0.00257086
0.00404605
0.0117448
-0.0106617
0.0115955
0.00649452
-0.00947722
0.0131938
0.00880357
-0.00515231
0.0103554
0.0103934
-0.00256384
0.0043538
0.00939011
0.00118447
0.0125654
-0.00183906
-0.00222086
0.00070378
0.0147551
-0.00613908
0.0052314
-0.00332994
0.00197255
0.0146358
-0.0076492
-0.00313371
0.00309901
0.00772991
0.0100331
-0.00795573
-0.00273322
0.00315398
0.0120635
0.00166168
-0.00673821
-0.0020323
0.00100241
0.0160544
-0.000648734
-0.00460644
0.00745277
-0.00020582
-0.00530047
0.0113752
0.000115644
-0.0103966
0.0125602
-0.0090206
-0.0142526
-0.0141698
0.00841854
0.0057085
-0.0241287
0.0041192
-0.0185641
0.00624534
-0.0165619
-0.0113618
0.00929051
0.00791298
0.00963576
-0.0341572
-0.0238236
0.00757261
0.0111718
0.00747193
-0.0100725
-0.0324835
-0.0092094
0.00781701
-0.00166322
-2.60581e-05
0.0078417
-0.00662999
-0.0104582
0.0115735
-0.00766915
-0.0142154
0.0104696
0.0106159
-0.000730122
-0.00886726
0.010375
-0.00155915
0.00801259
-0.00767166
0.00371272
0.00104113
0.0047939
-0.00354739
0.00565358
-0.00631963
0.0139864
-0.0121446
-0.00347852
0.0108146
-0.0170367
-0.00262651
0.00573024
-0.0169753
-0.000974244
-0.00117437
0.00207234
-0.00827388
0.00848791
0.0096071
-0.009597
0.0110105
0.0112034
-0.00500264
0.0117548
0.0118041
-0.00223518
0.0105707
0.00436626
-0.0110827
0.0109058
0.00302786
-0.00922489
0.0120417
-0.00217888
-0.00499624
0.0116546
-0.00476338
0.00968375
-0.00611794
0.00221937
0.00362605
0.00113913
0.00805033
0.0072449
-0.00150855
0.0110624
0.00854393
0.00039861
0.0073379
0.00660304
-0.00912043
0.010148
-0.000499396
-0.00694565
0.00395155
0.00232917
0.000255096
0.00175776
-0.00180308
0.00512152
-0.00638337
-0.00142888
-0.00228431
0.0187759
-0.00372367
-0.0192568
0.0170383
-0.00143966
-0.00174609
-0.0161343
-0.0118618
-0.000900721
0.00336557
-0.00859763
-0.0106891
-0.013216
0.00664226
-0.00596763
-0.00494948
0.00091265
0.00139345
0.00038922
-0.00208914
-0.00427016
-0.000991022
0.00398719
-0.00260853
-0.000423066
0.00181886
-0.0023882
0.00131129
-0.00382568
0.00679851
0.0007071
-0.0111558
0.00064401
-0.00348627
0.0105388
-0.00346341
-0.00443236
-0.0190332
0.0140589
-0.0118704
-0.0194749
-0.0117772
0.00783599
0.00429081
-0.0266405
-0.0153778
0.00257773
0.00932823
0.0105263
-0.0356107
-0.0164592
0.013071
0.00183474
0.0104214
-0.0423144
-0.0146216
0.0098371
8.71353e-05
0.0112977
-0.0436803
-0.0107823
0.00323775
-0.00152734
0.0103333
-0.0431699
-0.00616264
-0.00150432
-0.00183797
0.00888465
-0.039488
-0.00333823
-0.0045064
0.00406865
-0.0347413
-0.00117374
-0.00711514
0.00648459
-0.00305042
-0.0321802
0.00135594
-0.00611821
0.00560849
-0.00350926
-0.0291351
0.00267406
0.00447921
-0.0039956
-0.00630565
-0.0289381
0.00208014
0.00396563
-0.00356852
-0.00278624
-0.0298459
0.000216961
0.0018123
-0.00122854
-0.0277907
-0.00158173
0.00136161
-0.00194875
-0.0229984
-0.00261956
0.00153536
-0.00380442
-0.0301902
0.00169662
0.0226505
-0.0172309
-0.0593344
0.0293324
-0.0128969
0.0123353
0.00605987
-0.0199296
-0.00130466
-0.0131883
-0.0252085
-0.00923659
-0.0122598
-0.000468476
-0.00876846
-0.0111647
0.000635594
0.000281461
-0.00943715
-0.000561248
0.000508446
-0.00581107
-0.00374614
0.00145347
-0.00311028
-0.00398834
0.00104402
-0.00453547
-0.000263432
-0.00445699
0.000806499
-0.000932227
-0.00684237
0.00205138
0.000270823
-0.0107842
0.00220942
0.0016528
-0.0130974
0.000819082
0.00141556
-0.0133661
-0.000351183
0.00055004
-0.0130766
-0.00174831
0.00140487
-0.0236499
0.00142467
0.00907383
-0.0568552
0.0175127
0.0154859
-0.101305
0.00885729
0.0350192
-0.117969
-0.00587435
0.0218449
-0.12733
-0.0115951
0.0201809
-0.133765
-0.0164943
0.0220952
-0.137427
-0.0221896
0.0249667
-0.138759
-0.0272671
0.0276886
-0.138683
-0.030761
0.0297612
-0.137871
-0.0329208
0.0311837
-0.136415
-0.0341699
0.031797
-0.134272
-0.0348126
0.0317685
-0.130439
-0.0353149
0.0306102
-0.122475
0.0278232
-0.0366207
-0.10333
0.0207876
-0.0406922
-0.0534908
0.0032923
-0.0537504
-0.0226278
-0.00124017
-0.0298417
-0.0123886
-0.00429038
-0.00602611
-0.0121107
0.00198893
-0.00232192
-0.0112107
0.00432775
-0.00529849
-0.00877396
0.00384163
-0.00635889
-0.00425771
0.00400743
-0.00860804
-0.00479204
0.00347296
-0.00300985
-0.00806058
-6.49944e-05
0.00328271
-0.00782265
0.00235468
-0.00266378
-0.00893204
0.00102158
-0.0138038
0.00698628
-0.0022131
-0.0166397
0.00715298
-0.00442703
-0.0189185
0.00764887
-0.00547264
-0.0237781
0.00700714
-0.00225235
-0.0533354
0.0187429
0.010618
-0.0979793
-0.008075
0.0521452
-0.110986
-0.0316738
0.0439598
-0.11245
-0.0418282
0.0424817
-0.107746
-0.0476719
0.0421455
-0.0989405
-0.0521396
0.0424771
-0.0862126
-0.0543544
0.040802
-0.0691887
-0.0558501
0.0380064
-0.0493796
-0.056817
0.0362419
-0.0236588
-0.0481306
0.0217732
-0.0376946
0.0135971
-0.053525
0.0230847
-0.00772135
-0.0592825
0.0252536
-0.0199989
-0.0593156
0.0265759
-0.0270691
-0.0502703
0.026361
-0.0359325
-0.0401772
0.0243038
-0.0348997
-0.0230111
0.0165271
-0.0341603
0.00944969
-0.0328994
0.0272903
0.0380405
-0.0565178
0.0510638
0.0494285
-0.0739679
0.0749546
0.0495337
-0.0742444
0.0951463
0.0497698
-0.0707859
0.110899
0.0469877
-0.063597
0.11912
0.0396857
-0.0487292
0.117083
0.0329313
-0.0317041
0.101367
0.0300676
-0.0150721
0.0545598
0.0398791
0.0063548
0.0254987
0.0250664
0.00379828
0.0213852
0.00418131
-0.000172559
0.019471
0.000589604
0.00122203
0.0158904
0.000298512
0.00317217
0.00914562
-0.000248981
0.00689525
-0.000923869
0.00998171
-0.000967194
-0.00972219
0.00966976
0.000724441
-0.0131165
0.0113159
0.00257111
-0.0142479
0.0122781
0.00408037
-0.0135807
0.0119358
0.00433253
-0.0191807
0.0187506
0.00786427
-0.0286633
0.0248464
0.00384407
0.0236488
-0.0199123
-0.000179168
0.0169213
-0.0130773
-0.000378384
0.00844751
-0.00838395
-0.000538331
0.00775438
-0.00771764
-0.0010836
0.00738051
-0.00694422
0.0063215
-0.0064793
0.00343029
0.00546326
-0.000279911
0.00320358
0.00620057
0.0013346
0.0032975
0.00592486
0.00165785
0.00396411
0.00479136
0.00291131
0.0103244
0.011625
-0.00116962
0.0194304
-0.00902977
-0.000121734
0.009091
-0.004218
0.0145167
-0.0230913
-0.0114336
0.043546
-0.0155464
-0.00576255
-0.00186086
-0.000984019
0.00358878
0.00487255
-0.00946108
0.00605982
-0.00260353
0.00361344
-0.00178654
-0.00827821
0.000429518
-0.0091928
-0.0102645
-0.0126562
0.0184615
-0.00485908
-0.0307739
0.00323691
0.00367115
0.0040601
-0.0175965
-0.0497326
0.00588726
0.0101616
0.000834971
-0.0582243
-0.0156954
0.0262317
-0.00423677
-0.0204222
0.00617572
-0.0032576
-0.0203078
0.00561545
-0.00227469
-0.0206666
0.00531117
-0.00090055
-0.019045
0.00444191
-0.0150031
0.00403463
-0.0211478
0.00226851
0.0040499
-0.0219648
-0.00134777
0.00264022
-0.0179079
8.65194e-05
0.00543807
0.00165557
-0.046637
0.035483
0.00830907
0.00806674
-0.115188
0.0350755
0.0515309
0.0209325
-0.125294
0.0473192
-0.0080007
-0.126145
0.0547796
-0.0218635
-0.118321
0.0645209
-0.033536
-0.103383
0.073156
-0.0419886
-0.0842598
0.0768714
-0.0470922
-0.0616169
0.0746352
-0.0485836
-0.0366795
0.0742788
-0.0506017
0.0503711
-0.0330504
0.0588271
0.0457814
-0.0305412
0.0684225
0.0516664
-0.0355257
0.0687227
0.0528221
-0.0271714
0.0633266
0.0505556
-0.0205134
0.0438741
-0.00616093
-0.0881791
0.0718657
0.0025565
-0.0979733
0.0754962
-0.0160551
-0.0994864
0.0799528
-0.0265598
-0.0881561
0.0791898
-0.039796
0.0719246
-0.0409291
0.0879852
0.0945633
-0.0368795
0.0976221
0.101737
-0.0331129
0.0944852
0.101138
-0.0189779
0.0819158
0.0960712
-0.00889645
0.0903546
0.00673753
-0.0812641
0.103469
0.0129275
-0.0944718
0.110574
-0.00221682
-0.0983601
0.116075
-0.0120095
-0.0904522
0.116986
-0.0241187
0.111554
-0.031493
0.0869928
0.124411
-0.0276294
0.0946666
0.128426
-0.0200904
0.091255
0.126544
-0.00803426
0.078335
0.120425
0.00213338
0.112159
0.016623
-0.0724623
0.11674
0.0193333
-0.0843988
0.125527
0.00589663
-0.0867282
0.13214
-0.00424572
-0.0788033
0.134565
-0.0150427
0.131513
-0.0223215
0.0682086
0.132195
-0.0150477
0.0761068
0.134921
-0.00923221
0.0750215
0.131306
0.000942192
0.0640851
0.124873
0.0106533
0.11555
0.0225796
-0.0525909
0.105826
0.0297863
-0.0646317
0.116422
0.0195497
-0.064186
0.120029
0.009868
-0.0562437
0.125469
0.000546875
0.126371
-0.0040433
0.0351654
0.0192043
0.0614293
0.0447081
0.0514578
0.094817
0.0134846
0.0547681
0.0925684
0.0232749
0.0357441
0.0483324
0.0452644
0.0409096
0.0445368
0.0365429
0.0515235
-0.0123013
0.0268595
0.0153889
0.0143736
-0.0187351
0.0276833
0.0150919
-0.0152948
0.0311636
0.0135251
-0.0135414
0.0290824
0.0142196
-0.0399985
0.0275731
0.0408073
-0.000795258
0.0248967
-0.0284193
-0.00827937
0.0385478
0.00581168
-0.0370754
-0.00680177
0.0299967
0.00549254
-0.0371434
-0.00459094
0.0291137
-0.0365936
0.00509919
0.0259033
0.00347915
0.00381439
0.00515833
0.00492946
0.00716132
0.00681616
0.00762308
0.00905624
0.00894369
0.00840567
-0.00415999
-0.019975
0.0157039
0.00266947
-0.000607474
0.000596127
0.00625539
0.00290296
0.000299528
-0.000537051
0.000356906
0.00409502
-0.00155384
-0.00244174
-0.00132626
0.00412072
-0.00165449
-0.000491361
0.00117507
0.0106106
0.0121045
0.0316563
-0.0532847
0.00539242
0.0178261
-0.00425418
-0.0073119
0.0569123
0.00124576
-0.015081
0.00285036
0.00351928
-0.00655926
0.0050548
0.00399326
-0.00621241
-0.022234
0.00972399
0.0175245
-0.0094026
-0.0125566
-0.000318393
0.0179647
-0.00257474
0.0239438
-0.00791637
0.0463333
-0.0127351
0.0215421
0.0767191
-0.0246526
-0.0327775
0.00454637
0.00706487
0.0298087
0.00208846
-0.0175793
0.00801616
0.0136815
-0.00405698
-0.0106682
0.00845084
0.014989
-0.00405273
-0.0114775
0.00755658
0.0144685
-0.0023762
-0.0113046
0.00612216
0.012823
-0.0104561
-0.00103118
0.00367259
0.0105578
-0.00881824
0.000622712
0.00875624
-0.00792441
0.00276033
0.00846016
-0.00315372
0.00337908
0.00805874
-0.00280239
0.00314875
0.0152317
-0.00810081
0.000850608
0.0393686
-0.0159784
-0.00837737
0.0729903
-0.0389343
0.0046941
0.0830858
-0.0276455
0.0167906
0.0846482
-0.0235008
0.0211045
0.0820911
-0.0202535
0.021938
0.0768983
-0.015848
0.020138
0.0699803
-0.00877465
0.0147742
0.0606433
0.00161367
0.00679536
0.042165
0.0173393
0.000211102
0.0150212
0.0412534
-0.0150276
-0.00516569
0.0551617
-0.0358772
-0.00168395
0.05031
-0.0546636
0.0122333
0.0392535
-0.0540037
0.015405
0.0263746
-0.0303047
0.00950337
0.0286964
-0.0234121
0.00206599
0.0112354
-0.0040163
0.000356888
0.00377234
-0.00214021
-0.0004803
0.00175164
-0.000969035
-0.00213063
0.00323966
-0.00165885
0.00313136
-0.00227631
0.00326234
0.00519429
-0.00147851
0.000286617
0.00656159
-0.000421629
0.00218921
-0.000172517
0.00652366
-0.000590763
0.0017841
0.0059061
-0.00385507
0.00257574
0.00571407
0.00615534
0.000978863
0.0117355
0.0170139
-0.0109731
0.0156542
-0.0107022
0.0236677
0.0242392
-0.0303843
0.0434242
0.0145923
-0.0448482
0.0505024
0.0133364
-0.0631721
0.046164
0.0263692
-0.0789415
0.0291843
0.0268735
-0.0899098
0.00748125
0.0198538
-0.0953852
-0.00871148
0.0148276
-0.0987692
-0.0209086
0.0145517
-0.100964
-0.0294485
0.0148413
-0.101152
-0.0351789
0.0141761
-0.0977724
-0.0395217
0.0117202
-0.0888914
-0.0439139
0.00647918
-0.0319863
-0.0406694
-0.0447475
-0.0114059
-0.018477
-0.0104226
-0.0192369
0.00260828
-0.0154171
-0.00710033
0.00131888
-0.00578147
0.000260065
-0.00946284
0.000857245
-0.00379234
0.00165708
-0.00747751
0.000986721
-0.00880421
0.0158699
-0.000180744
-0.0079482
0.0158744
-0.00184171
-0.00614058
0.0139575
-0.00216513
-0.00199739
0.019838
0.00568637
0.0204381
0.107203
-0.0444468
-0.00959974
0.00400167
0.0307156
0.00545354
0.00761688
0.0105381
-0.00024787
0.0084281
0.0143166
0.000667884
0.0151795
0.00192811
-0.0162458
-0.0198112
-0.0126629
0.0309049
-0.0203034
0.0463819
-0.0178952
-0.0510497
0.107137
-0.0246546
-0.052065
0.122092
-0.0150381
-0.104607
-0.0443324
0.125896
-0.030186
-0.0753771
-0.0285726
-0.0173609
-0.0288702
-0.0142643
-0.00280078
-0.040375
0.0170388
-0.00205926
-0.0241717
-0.00525869
0.0280105
-0.00540067
-0.0085312
0.0163972
-0.00781656
-0.00928397
0.0145317
-0.00616124
-0.00943959
-0.0118413
-0.00269909
0.0502342
-0.0212663
-0.0125955
-0.00607627
0.000617195
-0.011938
-0.00844861
-0.000106955
-0.00875368
-0.00710826
-0.00156911
-0.00498915
-0.00434772
-0.00157577
-0.000125538
-0.000739757
-0.00373223
-0.000457906
-0.00988761
-1.2198e-07
0.000443087
0.00127779
-0.0016932
0.00137733
-0.00205936
0.00335386
0.00175383
-0.00263477
0.00438097
0.00206246
-0.00196837
0.00372516
0.00175583
0.00267734
0.000706402
0.00449302
0.00264389
-0.00105553
0.00468486
0.00385657
-0.000399016
0.00453697
0.00493255
-0.000484734
0.00483076
-0.000745622
-0.00633601
0.0108885
-0.00417986
-0.00617656
0.0109136
-0.00625219
-0.00531827
0.0100676
-0.00717476
0.00902321
-0.00778139
0.00655758
0.0118851
-0.00566522
0.00797717
0.0136162
-0.00506693
0.0081557
0.0151393
-0.00451075
0.0149444
-0.00311509
-0.00917044
0.0168872
-0.00132131
-0.00929994
0.0178937
-0.00273106
-0.00965021
0.0177909
-0.00392881
0.0104924
-0.00400627
0.0128751
-0.000415481
0.0102302
-0.00167436
0.00748352
0.0233184
-0.0028942
0.00733284
0.0183291
-0.000374788
0.0173214
0.000743685
-0.00880639
0.0485242
-0.0252276
-0.00517484
0.0422245
-0.0276715
0.0450516
-0.02832
0.0293126
0.117822
-0.0575497
0.127691
-0.0450593
0.0507028
0.135137
-0.0386161
-0.0205792
0.0553428
0.135079
-0.0149387
0.0519765
0.13034
-0.00599705
0.115518
-0.00136493
-0.0501854
0.119988
0.00517385
-0.0558936
0.135318
-0.00035313
-0.0534296
0.141006
-0.00947446
-0.0447927
-0.0146067
0.140086
-0.128384
-0.0232929
0.133786
-0.0292988
-0.0128352
-0.0511298
-0.114547
0.0286236
0.119527
-0.106197
-0.0667681
0.118521
-0.0384528
-0.0495941
-0.0680695
-0.00481735
0.0138613
-0.0135214
-0.0193601
-0.0195867
-0.00999806
-0.00603471
-0.0131395
-0.00290808
-0.0140313
-0.00406005
0.0025754
-0.0144055
-0.00817434
0.00316976
-0.0127635
-0.0106132
0.00252564
-0.00981474
-0.0145039
0.00285671
-0.0107444
0.00114006
-0.0137887
0.0160735
-0.0137353
0.000609958
-0.00948525
-8.10251e-05
-0.0153545
0.0144889
-0.00158078
-0.0167585
0.0116628
-0.00271418
-0.0180423
0.00966601
-0.00145914
0.0149564
-0.0254697
0.01109
0.0252222
0.0187239
0.0207345
-0.0498605
0.018865
0.0161691
0.0178278
-0.0277713
0.0305851
0.0160507
0.0191696
-0.0470762
0.0213748
0.013424
-0.0227345
0.0183923
0.0392871
-0.0422084
0.00893048
0.015265
0.0201012
0.0463809
-0.0101189
-0.0171775
0.025382
0.0301502
-0.0202636
-0.0152958
-0.017245
-0.0206251
0.00991086
-0.0182769
0.00381826
-0.0127797
-0.0179643
0.00437336
-0.0172529
-0.0122881
0.00330481
-0.0161416
-0.0141026
0.00227968
-0.0167755
0.00209656
-0.0176777
-0.0170557
0.0174689
0.000372477
-0.0162691
-0.000773168
-0.0183773
0.0156503
-0.00199145
0.0130148
-0.00309215
0.0175516
0.0143363
-0.00279104
0.0174454
-0.00140795
0.0164782
0.018257
-0.0170291
-0.000365839
0.0184057
0.00133163
-0.015118
0.0028583
-0.0154822
0.00100911
0.0175157
-0.0154201
-0.00120285
0.0144885
-0.00214725
-0.00753154
-0.0160317
0.0236062
0.0168594
-0.00150857
-0.0143967
-0.017161
-0.0262229
-0.0242852
-0.0025906
-0.105269
0.103933
0.00754952
0.00121082
0.0182433
0.0127084
0.023917
0.0146947
-0.0202716
0.0176483
-0.0084657
0.0179662
-0.0122495
-0.0047751
0.00235952
-0.000511916
-0.00555268
0.00485056
-0.00582667
-0.00170891
-0.00210768
-0.00217549
-0.00379309
0.0131659
-0.000991259
-0.00316289
-0.00140391
-0.00338441
0.0163888
-0.0200829
-0.0115708
0.0154817
0.00689097
-0.0116118
0.0176152
0.00912337
-0.0132782
0.0202361
0.00894353
-0.014215
0.0229964
0.00892745
0.0302301
0.0120102
0.00990223
0.0135096
0.0125153
0.00949796
0.0132935
0.00992792
0.00785983
0.0119392
0.00976427
0.00608305
0.0108124
0.00842548
0.0100052
0.00700767
-0.00221293
0.00342894
-0.00262766
0.00417038
-0.00329756
0.00476677
-0.00393329
0.00541261
0.00652279
0.00166352
0.00290841
0.00142869
0.000512344
0.000411058
0.00139668
-0.000146688
0.00198963
-0.00155072
-3.08103e-05
-0.000932011
0.00195513
0.000963074
-0.000328823
0.000790698
-0.00043159
0.00183036
-0.00111764
0.00121668
-0.000533747
0.000312237
-3.65124e-06
0.0020276
-0.00174907
3.04131e-05
0.0037974
-0.000557532
-0.00359922
0.0111683
-0.00639809
0.00358968
-0.0180521
0.00335686
0.0170845
0.00389895
-0.0181563
0.0204592
0.0071575
0.00294411
0.0067763
-0.0170879
0.0208731
0.000293669
0.00596489
0.0198185
-0.0148541
-0.0136315
0.0142047
0.00503417
0.0109932
-0.00739509
0.0172007
-0.00766444
0.017294
0.0109124
-0.000414507
0.0200029
0.00718265
0.00333831
-0.00115387
0.00152989
-0.00352352
0.000372708
-0.00229392
0.0126137
0.00135531
-0.00233909
0.000786351
0.000620204
-0.000777892
0.00151116
-0.000568446
0.00155966
-0.000393325
-0.00124264
0.00106624
-0.00207112
0.000898422
-0.000210945
-0.000224632
-0.00163703
-0.000454505
-0.00209753
0.000247795
-0.00185815
0.00140412
-0.00138236
0.000391107
0.000112201
-0.00188692
0.000171228
-0.00141857
-0.000660025
-0.00126821
-0.00240783
0.00114996
0.0012402
0.000226297
0.000471506
-0.00130053
0.000448045
-0.00168373
-0.000480001
0.000537711
0.00038882
0.000109991
6.79467e-05
-0.000659291
0.00104457
0.00030389
0.000312035
-0.000893626
-0.00161366
0.00281593
-0.00077619
0.000268732
0.000180488
-0.000891138
-0.00113224
0.00380661
0.00137608
-0.000362088
-0.00303494
0.0122946
-0.00265254
-0.00129673
-0.00174998
7.70163e-06
-0.000831088
0.000257558
-0.000726139
0.000330577
-4.26819e-05
-0.00112135
-4.64399e-05
0.00188447
-0.000308099
-0.00162613
-0.00132499
0.00321284
-0.000895646
-0.000174929
-0.00124897
0.00111814
0.00204545
0.000343968
0.000324988
0.000922383
-0.000131802
0.00191742
-0.00142167
-0.000174112
-0.00137286
0.00320501
8.08976e-05
-0.00064998
0.000196328
0.00286586
-0.00405951
0.0133266
-0.00111805
-0.0180673
0.000730716
0.00705611
0.0245828
-0.0164947
0.0219341
0.00640721
-0.0177815
0.0226176
-0.00211095
-0.0149097
-0.00439973
-0.0206977
-0.0218771
-0.00632542
-0.021908
-0.00574067
0.0151741
-0.00261855
0.019806
0.0318085
0.0374743
-0.0236228
-0.101169
0.066642
-0.0967781
0.0701074
-0.107863
0.071318
-0.0171183
-0.110103
0.068727
-0.0248799
-0.106632
0.0674692
-0.0296856
-0.0981269
0.0662908
-0.0332203
-0.0859954
0.063602
-0.0358257
-0.0685258
0.0576099
-0.0379568
-0.0486674
0.0531518
-0.0376685
-0.0385061
0.0425436
-0.0316791
0.0047078
-0.0300282
0.0175268
0.0320359
-0.0455224
0.0150253
0.0448788
-0.0430447
-0.00697195
0.0480223
-0.0264364
-0.0341333
0.0267227
-0.0509056
-0.0130024
0.0293075
-0.0596886
-0.024542
0.0328221
-0.0621194
-0.031012
0.0329165
-0.055818
-0.0381733
0.0313456
-0.0478502
-0.035242
0.0267714
-0.0304534
-0.0335456
0.0156816
0.00322216
-0.0341143
0.0200878
0.04466
-0.0621625
0.0427938
0.0556628
-0.0791348
0.0680653
0.0549434
-0.0810347
0.0880871
0.0524495
-0.0732959
0.0990942
0.0478202
-0.0596839
0.0997266
0.0401276
-0.0415823
0.093522
0.0342698
-0.0288757
0.0814076
0.0311488
-0.0197546
0.0460967
0.0378426
-0.00310518
0.0222594
0.0228006
0.000840287
0.0191782
0.00393875
-0.000962345
0.0178355
0.000535311
0.000704584
0.0146686
0.000156815
0.00289981
0.00843502
1.95023e-05
0.0061151
0.00900933
-0.000661925
0.00706913
0.00354732
-0.00167774
0.00447036
0.00386957
-0.00131791
0.00467244
0.00175165
-0.00201654
0.00558993
0.00195901
-0.00295535
0.00525273
0.0031317
-0.0028723
0.00409614
0.00338465
-0.00229762
0.00308176
0.00270549
-0.00174571
0.00501996
0.00167071
-0.00368593
0.00944335
0.00269549
-0.00733738
-0.0254881
0.033296
0.00101758
-0.051846
0.0231791
0.00241971
-0.064161
0.0113372
0.000143964
-0.0672746
0.000523546
0.00171699
-0.0693824
-0.0135606
0.0147641
-0.0736277
-0.028846
0.0321692
-0.0746951
-0.044124
0.0442543
-0.0720113
-0.058022
0.054393
-0.0620369
-0.0705969
0.0596704
-0.0443694
-0.0806386
0.0620138
-0.0169169
-0.0871723
0.0587565
0.0169686
-0.0831751
0.0483288
0.0324409
-0.0578847
0.041451
0.0317188
-0.0446562
0.044456
0.0242117
-0.0351935
0.0417972
0.0103666
-0.026284
0.039302
-0.000334892
-0.0233548
0.0332545
-0.0350622
0.0339781
-0.0506446
-0.0199025
0.034687
-0.0578185
-0.0346749
0.0410382
-0.0582848
-0.0494637
0.0490554
-0.0497606
-0.0644551
0.0550557
-0.025926
-0.0818968
0.0571635
0.00416371
-0.0832831
0.0523174
0.00970931
-0.0475258
0.0411149
-0.0076022
-0.0269005
0.0434022
-0.0207632
-0.0287799
0.0411552
-0.00454361
-0.0605318
0.0435741
-0.0523811
0.0432238
-0.0151595
-0.0691734
0.00180035
0.0183378
-0.0552862
-0.0396277
0.0285181
-0.0401864
0.000350826
0.0324013
-0.0484936
0.0168159
0.0310218
-0.0783076
0.0312371
0.041664
-0.126798
0.031934
0.0548646
-0.123791
0.0277484
0.0574415
-0.0966994
0.0287362
0.0523659
-0.0732658
0.027972
0.0417879
-0.052372
0.0274152
-0.0307728
0.0284807
-0.0375354
-0.0473452
0.0269527
-0.0395275
-0.0567931
0.0226624
-0.0337157
-0.0677347
0.0162963
-0.00523173
-0.0831997
-0.00416699
0.0352408
-0.118362
-0.0062913
0.0606616
-0.124687
0.0110884
0.0753485
-0.118207
0.0218799
0.0820946
-0.103615
0.0252757
0.0811296
-0.0848186
0.0267717
0.0771103
-0.0638894
0.0228023
0.0701861
-0.0420177
0.0191241
0.0660178
-0.0202963
0.00994579
0.0611729
0.000118522
0.00430847
0.0496687
0.0154961
0.00641864
0.0267616
0.0320086
0.0131613
-0.00733765
0.00394466
0.0456935
0.0167712
0.00847932
-0.0027874
-0.00893197
-0.00425147
0.0154467
-0.00170394
-0.00145525
0.0108519
-0.001285
0.00459918
0.00115234
0.0156771
0.000136367
-0.00883885
0.00377596
-0.00656122
0.0268559
0.00390148
-0.00861972
-0.00766654
-0.000352286
0.00154433
-0.00790442
-0.00261238
0.0014901
-0.00648551
-0.00389975
0.000694575
-0.00486703
-0.00491337
0.000426063
0.00187312
-0.00359383
-0.000495084
0.00448335
-0.000962806
-0.00180536
-0.000326547
-0.000299234
-0.00118351
-0.000702961
-0.000588433
-0.000575962
-0.000540888
0.000411323
-0.00103759
-0.00325298
0.0129393
-0.00542159
-0.0116854
0.00301723
0.0226335
-0.00758032
-0.00962276
0.0648158
-0.0311268
-0.0288357
0.0178154
0.0629513
-0.0248115
0.0281881
0.0483025
-0.0197248
0.0335961