/*--------------------------------*- C++ -*----------------------------------*\
| =========                 |                                                 |
| \\      /  F ield         | OpenFOAM: The Open Source CFD Toolbox           |
|  \\    /   O peration     | Version:  v2012                                 |
|   \\  /    A nd           | Website:  www.openfoam.com                      |
|    \\/     M anipulation  |                                                 |
\*---------------------------------------------------------------------------*/
FoamFile
{
    version     2.0;
    format      ascii;
    class       volVectorField;
    location    "550";
    object      U;
}
// * * * * * * * * * * * * * * * * * * * * * * * * * * * * * * * * * * * * * //

dimensions      [0 1 -1 0 0 0 0];


internalField   nonuniform List<vector> 
18258
(
(-0.176386 0.118097 0.137103)
(-0.0516977 0.246294 0.156814)
(-0.104617 0.215042 0.0961445)
(-0.0378857 0.0707373 0.0838198)
(-0.22593 0.203598 0.0174594)
(-0.158625 0.36254 0.0157727)
(-0.22231 0.0451944 0.0530934)
(-0.340476 -0.0520372 0.0745555)
(-0.447479 -0.105014 0.107704)
(-0.534272 -0.158978 0.145377)
(-0.620197 -0.216601 0.17963)
(-0.686694 -0.270983 0.309209)
(-0.677938 -0.333747 0.357075)
(-0.621714 -0.445065 0.385782)
(-0.487822 -0.542743 0.369557)
(-0.205321 -0.587404 0.34071)
(0.0734587 -0.374888 0.289121)
(0.0783276 -0.164328 0.298172)
(-0.127651 -0.0784151 0.236904)
(-0.400899 -0.273187 0.117041)
(-0.139324 -0.526487 0.293258)
(-0.199347 -0.365937 0.407187)
(-0.304092 -0.737667 0.301692)
(-0.364655 -0.779666 0.26267)
(-0.134786 -0.707508 0.132614)
(0.00416495 -0.644367 0.183625)
(-0.0174914 -0.3396 0.422583)
(0.173342 -0.112497 0.804368)
(0.298319 -0.0951751 0.89244)
(0.316051 0.0578513 0.913499)
(0.316911 0.183626 0.814266)
(0.168294 0.301793 0.110672)
(0.0766998 0.133181 -0.427694)
(0.010718 0.0811751 -0.719715)
(-0.067565 0.0777802 -0.895024)
(-0.057674 0.0734341 -1.07713)
(-0.070771 0.0724382 -1.21657)
(-0.0989957 0.0904521 -1.31051)
(-0.140556 0.0816525 -1.35816)
(-0.188174 0.0880207 -1.34441)
(-0.23785 0.07433 -1.26078)
(-0.284343 0.083434 -1.10751)
(-0.323274 0.0777289 -0.897038)
(-0.354313 0.078634 -0.642883)
(-0.364362 0.0811642 -0.350189)
(-0.347354 0.0754635 -0.152988)
(-0.153239 0.181487 -0.195058)
(0.368929 -0.107769 -0.13564)
(0.631452 -0.133725 -0.156634)
(0.675399 -0.114088 -0.166821)
(0.787244 -0.136035 -0.176188)
(0.814889 -0.132495 -0.193739)
(0.508444 -0.00356593 -0.257422)
(0.26006 -0.138044 -0.217962)
(0.113444 -0.0416712 -0.158667)
(0.282882 -0.00936424 -0.168984)
(0.538357 -0.0023246 -0.173597)
(0.792873 -0.0299781 -0.177869)
(1.09348 -0.0346925 -0.175691)
(1.42933 -0.0488382 -0.185143)
(1.76398 -0.0645703 -0.183508)
(2.04815 -0.0811337 -0.166586)
(2.24884 -0.0928109 -0.138129)
(2.34907 -0.098908 -0.102492)
(2.35586 -0.0962077 -0.0678732)
(2.29561 -0.0885102 -0.0411694)
(2.20207 -0.0819926 -0.024476)
(2.10955 -0.0758554 -0.0176832)
(2.04003 -0.0670313 -0.0186505)
(1.99427 -0.0641325 -0.0232873)
(1.96983 -0.0589674 -0.0257005)
(1.95919 -0.0500435 -0.0201507)
(1.94485 -0.0395197 -0.00312112)
(1.9013 -0.024677 0.0244771)
(1.81361 -0.00760952 0.0540709)
(1.6925 0.0098035 0.0774089)
(1.57152 0.0220263 0.0802674)
(1.47878 0.0310344 0.0756111)
(1.40063 0.0381496 0.0708906)
(1.33833 0.0510382 0.0634755)
(1.28746 0.0576919 0.0653146)
(1.19382 0.0447129 0.0789938)
(1.09681 0.0193544 0.110835)
(1.01403 0.00104694 0.12847)
(0.907027 -0.0205889 0.121436)
(0.763038 0.0169335 0.146587)
(0.642144 0.0818072 0.133707)
(0.518507 0.100687 0.134693)
(0.381526 0.118242 0.119101)
(0.224918 0.127528 0.0971221)
(0.120219 0.190202 0.0924972)
(0.122498 0.010124 0.198049)
(0.164248 -0.100793 0.144483)
(0.113272 -0.12957 0.0404846)
(0.104814 -0.115239 -0.141369)
(0.21709 -0.210537 -0.369948)
(0.263188 -0.233277 -0.555486)
(0.204774 -0.140458 -0.729978)
(0.106458 -0.0825334 -0.716628)
(0.0363787 0.0550185 -0.495602)
(-0.0846471 0.228602 -0.172564)
(-0.214659 0.196815 0.177378)
(-0.234177 0.0656346 0.151354)
(-0.33977 0.0163223 0.16717)
(-0.270812 0.140828 0.175475)
(-0.244362 0.287656 -0.0560768)
(-0.10618 0.160684 -0.406727)
(0.0651991 0.00273143 -0.587289)
(0.334716 -0.0950256 -0.632587)
(0.496911 -0.23062 -0.489336)
(0.352045 -0.211064 -0.279655)
(0.271956 -0.192071 -0.100056)
(0.283161 -0.186636 0.0403718)
(0.281005 -0.140047 0.160862)
(0.225968 -0.0989873 0.192176)
(0.397267 -0.0811838 0.181432)
(0.536397 -0.0630995 0.177057)
(0.588841 -0.0518381 0.165054)
(0.700896 -0.0785726 0.161341)
(0.733058 -0.133613 0.133221)
(0.601398 -0.134184 0.135888)
(0.454858 -0.151706 0.140336)
(0.46179 -0.185828 0.0362109)
(0.611217 -0.162825 0.0521741)
(0.736664 -0.16208 0.0497052)
(0.905187 -0.141748 0.0817424)
(1.08866 -0.10994 0.111242)
(1.18982 -0.0777695 0.148828)
(1.20896 -0.0105686 0.140449)
(1.24612 -0.00894167 0.120854)
(1.33603 -0.00686096 0.14038)
(1.37809 -0.00156894 0.130232)
(1.36963 -0.0124243 0.159133)
(1.32911 -0.0481724 0.194422)
(1.32341 -0.0511105 0.191325)
(1.2862 -0.0620313 0.152473)
(1.27952 -0.0602473 0.13564)
(1.25879 -0.047915 0.108753)
(1.2503 -0.0458805 0.110761)
(1.20207 0.00422192 0.109335)
(1.19501 0.0276152 0.13783)
(1.07797 0.136741 0.271257)
(1.22678 0.0527342 0.253911)
(1.2186 0.0199599 0.158891)
(1.26732 -0.0208605 0.128562)
(1.27937 -0.0250512 0.119454)
(1.28958 -0.0382014 0.144737)
(1.30847 -0.0414773 0.183949)
(1.35118 -0.0366853 0.217949)
(1.38704 -0.0366541 0.222886)
(1.42391 -0.0126915 0.183936)
(1.43737 -0.00179605 0.138545)
(1.51358 -0.00642296 0.151682)
(1.61166 -0.0166239 0.159753)
(1.75109 -0.0315455 0.144072)
(1.88336 -0.054145 0.0492582)
(1.96484 -0.0756159 -0.0711276)
(1.98423 -0.0904827 -0.164313)
(1.96676 -0.0965103 -0.200606)
(1.95042 -0.0968592 -0.194599)
(1.96063 -0.0912541 -0.174886)
(2.00772 -0.0827757 -0.144538)
(2.08928 -0.0703673 -0.108036)
(2.20049 -0.0601647 -0.0843258)
(2.31466 -0.0598231 -0.113214)
(2.39147 -0.0609122 -0.173528)
(2.39406 -0.0585233 -0.277282)
(2.28816 -0.0502769 -0.3924)
(2.07273 -0.0426014 -0.483728)
(1.77234 -0.0367871 -0.540152)
(1.42847 -0.0316197 -0.548917)
(1.08235 -0.0193266 -0.527708)
(0.793643 -0.0242727 -0.459337)
(0.53776 -0.0155274 -0.415401)
(0.28349 -0.020958 -0.386775)
(0.109191 -0.0396779 -0.360715)
(0.102349 -0.0415354 -0.637151)
(0.0774548 -0.0368561 -0.873162)
(0.0507167 -0.038919 -1.05758)
(0.011759 -0.0402776 -1.17613)
(-0.0234073 -0.0279933 -1.21575)
(-0.0600826 -0.0155105 -1.16795)
(-0.0938383 0.00366195 -1.03867)
(-0.119244 0.0279117 -0.82022)
(-0.1209 0.0856629 -0.558787)
(-0.147023 0.132155 -0.029459)
(-0.194256 0.0239735 0.574885)
(-0.210172 -0.0347526 0.760471)
(-0.228391 -0.0033892 0.928175)
(-0.233526 -0.046663 1.06956)
(-0.319084 -0.106405 1.13284)
(-0.371929 -0.113782 1.14522)
(-0.370485 -0.234829 1.00475)
(-0.299532 -0.253606 0.770892)
(-0.460234 -0.669625 0.686919)
(-0.484869 -0.547592 0.704552)
(-0.413262 -0.415052 0.832083)
(-0.54801 -0.768525 0.859051)
(-0.681757 -0.833472 0.606963)
(-0.472652 -0.756228 0.799429)
(-0.433815 -0.575676 0.742648)
(-0.781458 -0.525874 0.7507)
(-0.901123 -0.408967 0.860905)
(-0.529661 -0.707488 0.826092)
(-0.439502 -0.577471 0.667443)
(-0.320458 -0.320686 0.407422)
(-0.299705 -0.183613 0.401296)
(-0.283355 -0.147462 0.35586)
(-0.235179 0.108431 0.116107)
(-0.162167 0.298936 -0.417177)
(-0.151741 0.191809 -0.638639)
(-0.132102 0.0296251 -0.913246)
(-0.0870493 -0.0565248 -1.08565)
(-0.0286995 -0.0692499 -1.23349)
(0.038393 -0.101796 -1.26842)
(0.0981231 -0.0985878 -1.23354)
(0.172706 -0.109152 -1.11974)
(0.216776 -0.123453 -0.919957)
(0.261138 -0.146635 -0.705537)
(0.250032 -0.139402 -0.398395)
(0.42002 -0.0488619 -0.637549)
(0.774836 -0.117885 -0.456477)
(0.730244 -0.109658 -0.411571)
(0.631637 -0.0766822 -0.40388)
(0.570234 -0.107841 -0.409505)
(0.135975 -0.106158 -0.517492)
(0.182395 -0.120535 -0.901569)
(0.26136 -0.227198 -1.05279)
(0.345172 -0.284202 -0.941086)
(0.389694 -0.352716 -0.499965)
(0.199128 0.0457948 0.134656)
(0.26643 0.116962 0.182879)
(0.428917 -0.327187 0.335305)
(0.516585 -0.529552 0.505667)
(0.546338 -0.522219 0.552374)
(0.412908 -0.234991 0.678348)
(0.472297 -0.337293 0.564803)
(0.488099 -0.609308 0.546289)
(0.705307 -0.672279 0.318052)
(0.747717 -0.488096 0.453421)
(0.799635 -0.345863 0.598202)
(0.23574 -0.226004 0.57542)
(-0.235637 -0.268831 0.829903)
(-0.172916 -0.191169 0.681494)
(-0.672349 -0.298886 0.820386)
(-0.469037 -0.183062 0.696652)
(-0.320031 -0.00508705 0.54498)
(-0.218431 0.178145 -0.296172)
(-0.192415 -0.0407487 -0.617446)
(-0.0576972 -0.168751 -1.09964)
(0.104467 -0.157633 -1.24972)
(0.276222 -0.08674 -1.11776)
(0.437156 -0.107749 -0.698167)
(0.507048 -0.0737967 -0.622099)
(0.501785 -0.0444288 -0.610589)
(0.556163 -0.089925 -0.634807)
(0.596887 -0.122606 -0.726296)
(0.401627 -0.043605 -0.677935)
(0.360152 -0.0789775 -0.658645)
(0.134999 -0.113496 -0.667694)
(-0.113492 -0.0485696 -0.579029)
(0.295398 0.00703821 -0.589064)
(0.354736 0.0154927 -0.606462)
(0.641347 -0.0973163 -0.642428)
(0.572683 -0.0977073 -0.366537)
(0.267999 0.0742481 -0.354729)
(0.268966 0.0560694 -0.230085)
(-0.303816 -0.037735 0.121531)
(-0.309226 0.145439 -0.00253312)
(-0.284535 -0.0243564 -0.447587)
(0.0877789 -0.201329 -0.574412)
(0.362308 -0.279914 -0.568195)
(0.727712 -0.345364 -0.405292)
(0.811914 -0.417987 -0.377591)
(0.773079 -0.290196 -0.295498)
(0.814687 -0.364675 -0.219551)
(0.829367 -0.486344 -0.28382)
(0.742807 -0.432142 -0.27799)
(0.721575 -0.305976 -0.330973)
(0.748604 -0.251594 -0.341512)
(0.794597 -0.311547 -0.212044)
(0.807326 -0.367329 -0.16044)
(0.8945 -0.46411 -0.156422)
(1.15982 -0.630417 -0.117583)
(1.61825 -0.725992 -0.09886)
(1.99546 -0.671822 -0.0381465)
(2.152 -0.489888 0.0473664)
(2.07199 -0.290669 0.0955984)
(1.90645 -0.162415 0.103267)
(1.8087 -0.0939333 0.0997123)
(1.71178 0.0016041 0.0992141)
(1.57422 0.0902914 0.0913498)
(1.43681 0.108995 0.0483418)
(1.33221 0.0594271 0.0276357)
(1.24238 -0.00255166 0.0220108)
(1.14063 -0.0519855 0.0238035)
(1.05658 -0.0769251 0.0219982)
(0.998772 -0.0609033 0.0176768)
(0.822903 -0.108678 -0.0231411)
(0.717445 0.00414524 0.0108496)
(0.634024 0.0706579 0.00978667)
(0.498282 0.0257336 0.00744131)
(0.359926 -0.05889 -0.0126912)
(0.13936 -0.145796 -0.0318392)
(0.225867 -0.307641 0.0010716)
(0.353504 -0.0817454 0.0120991)
(-0.00231883 -0.22992 -0.00919313)
(0.0431917 -0.545838 -0.0504006)
(0.0121743 -0.712473 -0.0525188)
(-0.00786495 -0.876537 -0.0531488)
(-0.025818 -1.00667 -0.0648298)
(-0.0358466 -1.10271 -0.0956068)
(-0.0463017 -1.15721 -0.104875)
(-0.0577962 -1.21467 -0.118024)
(-0.0880267 -1.27662 -0.13403)
(-0.113158 -1.32154 -0.149353)
(-0.137168 -1.35549 -0.162281)
(-0.159234 -1.37738 -0.17336)
(-0.178314 -1.3889 -0.183044)
(-0.193766 -1.39064 -0.189785)
(-0.205938 -1.38358 -0.19366)
(-0.21597 -1.36886 -0.193792)
(-0.224514 -1.34698 -0.191876)
(-0.232777 -1.31657 -0.186427)
(-0.240428 -1.27573 -0.178061)
(-0.245872 -1.22152 -0.165008)
(-0.243773 -1.15237 -0.147257)
(-0.190915 -1.07287 -0.126855)
(-0.141219 -0.970084 -0.112466)
(-0.165723 -0.869456 -0.0793958)
(-0.18972 -0.755355 -0.081795)
(-0.204913 -0.543747 -0.0853931)
(-0.273515 -0.450781 -0.0918925)
(0.0228152 0.052839 -0.116056)
(-0.350898 -0.30876 0.0253147)
(-0.231655 -0.61796 -0.0544056)
(-0.270346 -0.0994164 -0.0108817)
(-0.458019 -0.182648 0.0646671)
(-0.678835 -0.198806 0.0822839)
(-0.84245 -0.209364 0.114076)
(-0.954037 -0.223203 0.144195)
(-1.03497 -0.232591 0.203787)
(-1.11845 -0.244382 0.245309)
(-1.18776 -0.244243 0.302072)
(-1.20146 -0.248435 0.336365)
(-1.17446 -0.250158 0.366302)
(-1.10744 -0.248829 0.394631)
(-0.996469 -0.243108 0.422852)
(-0.841576 -0.23005 0.454335)
(-0.667239 -0.205711 0.493891)
(-0.420137 -0.146606 0.543604)
(-0.135376 -0.11933 0.568387)
(-0.152189 0.0284034 0.823717)
(-0.155025 0.0829088 1.04293)
(-0.15476 0.114979 1.11202)
(-0.156127 0.163788 1.02013)
(-0.160678 0.15315 0.837)
(-0.149421 0.131295 0.566571)
(-0.124736 0.143334 0.284654)
(-0.226043 0.438628 0.370109)
(-0.507894 0.466767 0.334764)
(-0.693297 0.479929 0.338713)
(-0.918403 0.464815 0.332312)
(-1.10078 0.424331 0.308429)
(-1.2281 0.353042 0.265804)
(-1.28396 0.273244 0.218763)
(-1.26687 0.206094 0.181586)
(-1.23385 0.147882 0.158353)
(-1.19086 0.115192 0.140467)
(-1.10135 0.0924828 0.090283)
(-0.959446 0.0451275 0.0699345)
(-0.767915 -0.0207384 0.0595206)
(-0.501261 -0.114008 0.0190328)
(-0.253448 -0.207857 -0.0189351)
(-0.27433 -0.197606 -0.0661871)
(-0.318608 -0.177029 0.0083227)
(-0.314822 -0.174229 0.0597306)
(-0.272975 -0.156742 0.151051)
(-0.381262 -0.234054 0.118728)
(-0.42324 -0.297305 0.118856)
(-0.327343 -0.288406 0.177603)
(-0.270289 -0.215556 0.0458104)
(-0.140954 -0.10115 -0.0255449)
(-0.141117 -0.0770602 -0.00684066)
(-0.138635 -0.0744342 -0.0352087)
(-0.169341 -0.0558747 -0.0677564)
(-0.167938 -0.501937 -0.148455)
(-0.126247 -0.480268 -0.137786)
(-0.110791 -0.447659 -0.0950613)
(-0.100602 -0.424587 -0.145276)
(-0.267047 -0.538859 -0.0311468)
(-0.276993 -0.576437 -0.0253608)
(-0.28459 -0.632926 -0.0834046)
(-0.338005 -0.583549 -0.0194629)
(-0.340805 -0.530681 0.0556039)
(-0.302147 -0.359623 0.0858807)
(-0.445166 -0.317411 0.115171)
(-0.362248 -0.432328 0.0406871)
(-0.348215 -0.523367 0.0143502)
(-0.378632 -0.508974 -0.0233603)
(-0.429212 -0.39494 0.0324162)
(-0.498006 -0.347 0.0733928)
(-0.529684 -0.255183 0.164221)
(-0.592039 -0.215721 0.241812)
(-0.68101 -0.197815 0.256411)
(-0.577192 -0.20698 0.211998)
(-0.51744 -0.187996 0.18153)
(-0.545738 -0.185103 0.118095)
(-0.540284 -0.172177 0.092042)
(-0.496755 -0.184332 0.000820292)
(-0.762572 -0.0867663 0.064607)
(-0.972922 -0.00540655 0.0896921)
(-1.08069 0.052119 0.103554)
(-1.12995 0.0750281 0.138146)
(-1.16759 0.0358191 0.237965)
(-1.2524 0.0689923 0.267201)
(-1.31849 0.119429 0.349057)
(-1.33208 0.170923 0.431669)
(-1.27474 0.22202 0.524026)
(-1.14977 0.261038 0.603537)
(-0.977057 0.281389 0.647888)
(-0.776572 0.283854 0.656729)
(-0.623335 0.289188 0.643706)
(-0.34168 0.272922 0.643151)
(-0.43496 0.245915 0.874068)
(-0.466927 0.228742 1.00266)
(-0.459909 0.181054 1.08096)
(-0.440656 0.124969 1.01287)
(-0.439343 0.0596311 0.797716)
(-0.711095 -0.00451658 0.744077)
(-0.721687 0.072151 0.944225)
(-0.740325 0.117915 1.02331)
(-0.745177 0.165059 0.9793)
(-0.695235 0.199479 0.87215)
(-0.838771 0.186872 0.862071)
(-0.8803 0.146531 0.964923)
(-0.882977 0.0888219 1.00112)
(-0.873249 0.0424387 0.926248)
(-0.866931 -0.0386283 0.706933)
(-1.01047 -0.0599986 0.67585)
(-1.02511 0.0208701 0.901127)
(-1.03821 0.0699102 0.966315)
(-1.04668 0.122437 0.944079)
(-1.02201 0.174305 0.853867)
(-1.16581 0.163161 0.803974)
(-1.16617 0.11086 0.892771)
(-1.1492 0.0574008 0.914704)
(-1.13188 0.00671337 0.859558)
(-1.11163 -0.0728515 0.640176)
(-1.17186 -0.0835617 0.595595)
(-1.19761 -0.00604634 0.797024)
(-1.22416 0.043782 0.840235)
(-1.25376 0.0919959 0.811618)
(-1.27159 0.14147 0.716939)
(-1.32117 0.110913 0.610353)
(-1.29254 0.068929 0.709429)
(-1.25387 0.0250766 0.747439)
(-1.21825 -0.0216436 0.716575)
(-1.18789 -0.0934213 0.539877)
(-1.15463 -0.104713 0.472815)
(-1.18303 -0.0413704 0.621571)
(-1.22211 0.000211252 0.640943)
(-1.27667 0.039164 0.606663)
(-1.30992 0.0742622 0.509365)
(-1.22677 0.035664 0.414571)
(-1.18983 0.00282808 0.500368)
(-1.12991 -0.0322295 0.531433)
(-1.08745 -0.0601327 0.52042)
(-1.04088 -0.11183 0.386889)
(-0.919834 -0.120232 0.315308)
(-0.9242 -0.109468 0.358285)
(-0.97383 -0.0804586 0.438498)
(-0.957812 -0.0871173 0.425323)
(-0.929033 -0.102742 0.395018)
(-1.00593 -0.0685397 0.381739)
(-0.997667 -0.0631417 0.307732)
(-1.00239 -0.0392426 0.28307)
(-1.04556 -0.0272118 0.209318)
(-1.04056 -0.00955147 0.202576)
(-0.807411 -0.105284 0.145496)
(-0.820339 -0.125335 0.158092)
(-0.789304 -0.128574 0.216581)
(-0.825266 -0.141647 0.249771)
(-0.611078 -0.282062 0.133436)
(-0.557906 -0.291855 0.115253)
(-0.504339 -0.327313 0.132962)
(-0.42085 -0.400113 0.116549)
(-0.397416 -0.384501 0.150039)
(-0.488718 -0.284593 0.165812)
(-0.606824 -0.239349 0.184172)
(-0.616323 -0.268149 0.097247)
(-0.514322 -0.378378 0.0444619)
(-0.44023 -0.46076 0.0285443)
(-0.397819 -0.526967 0.0583003)
(-0.384349 -0.698665 0.122815)
(-0.387503 -0.664051 0.128474)
(-0.405953 -0.380797 0.107498)
(-0.409026 -0.537102 0.0820008)
(-0.399857 -0.602627 0.0443583)
(-0.216185 -0.789185 -0.158143)
(-0.193749 -0.795039 -0.259292)
(-0.115545 -0.704772 -0.369144)
(-0.0786368 -0.62487 -0.385123)
(-0.0452711 -0.589804 -0.347422)
(-0.0138962 -0.556977 -0.30122)
(0.0313529 -0.502949 -0.232089)
(0.124145 -0.456495 -0.108975)
(0.124713 -0.581409 -0.121959)
(0.116801 -0.638066 -0.12026)
(0.084793 -0.696163 -0.157694)
(0.0921519 -0.750897 -0.15576)
(0.100285 -0.807424 -0.174863)
(0.118 -0.835748 -0.166943)
(0.126013 -0.842539 -0.152782)
(0.126248 -0.828792 -0.130294)
(0.117654 -0.792772 -0.0960603)
(0.104048 -0.736312 -0.0428841)
(0.0382064 -0.6569 0.0327944)
(0.00160644 -0.548624 0.151934)
(0.0145071 -0.303507 0.358664)
(-0.144957 0.00770026 0.448699)
(-0.364487 0.0936936 0.350891)
(-0.391034 -0.0408053 0.256149)
(-0.218876 -0.172416 0.252354)
(-0.178971 -0.188591 0.268625)
(-0.156379 -0.177867 0.214003)
(-0.0890876 -0.142394 0.20541)
(0.00102341 -0.030221 0.070246)
(-0.036822 0.111649 0.0805757)
(-0.0810717 0.14946 0.0801131)
(-0.0497574 0.213504 0.169669)
(-0.00741784 0.182042 0.190584)
(0.0146761 0.0404625 0.142201)
(-0.0432013 -0.0274605 0.226358)
(0.0247893 0.0933339 0.322263)
(-0.0015766 -0.0635379 0.285582)
(0.0784456 0.143667 0.246161)
(0.091403 -0.0270069 0.227527)
(-0.019304 -0.258589 0.456117)
(0.0524231 -0.362588 0.544245)
(0.173116 -0.50843 0.512904)
(0.165206 -0.696899 0.349761)
(0.0747019 -0.820097 0.142403)
(0.0589591 -0.891519 -0.00857846)
(0.0651895 -0.925524 -0.119897)
(0.0632095 -0.95175 -0.197857)
(0.0600862 -0.96633 -0.24866)
(0.0519546 -0.964452 -0.279202)
(0.0418082 -0.944494 -0.292462)
(0.029223 -0.906865 -0.289264)
(0.023536 -0.832204 -0.249658)
(0.0072811 -0.786352 -0.328886)
(0.0434813 -0.705518 -0.225391)
(0.0474865 -0.655246 -0.211522)
(0.0446851 -0.637659 -0.232196)
(0.00455804 -0.703656 -0.32522)
(-0.0225985 -0.743151 -0.382897)
(-0.0573949 -0.77834 -0.410596)
(-0.0733806 -0.845084 -0.40143)
(-0.132312 -0.905575 -0.345513)
(-0.0942597 -0.970145 -0.331067)
(-0.0892092 -0.98093 -0.372579)
(-0.0538997 -0.919406 -0.417817)
(-0.043636 -0.869464 -0.431786)
(-0.0177803 -0.827423 -0.404209)
(-0.00969772 -0.870931 -0.340979)
(-0.0394586 -0.903067 -0.373838)
(-0.0562126 -0.949654 -0.396131)
(-0.0238802 -0.992844 -0.405443)
(-0.0488041 -1.06124 -0.419873)
(-0.066661 -1.04386 -0.423623)
(-0.0937128 -0.921637 -0.34436)
(-0.187029 -0.762812 -0.223965)
(-0.199192 -0.614417 -0.0402964)
(-0.10044 -0.734448 -0.196147)
(-0.0799189 -0.840661 -0.258611)
(-0.0595057 -0.930025 -0.322534)
(-0.0608241 -0.94738 -0.333283)
(-0.0276378 -0.830412 -0.379807)
(-0.0237958 -0.725466 -0.336015)
(-0.0319483 -0.543076 -0.252428)
(-0.0158777 -0.353752 -0.161295)
(0.0324853 -0.0917709 -0.206196)
(-0.249369 -0.434527 0.0738914)
(-0.330498 -0.46219 0.0267)
(0.223114 -0.117981 -0.244692)
(-0.172459 -0.247672 0.0441744)
(-0.218182 -0.266839 -0.115889)
(-0.258563 -0.269116 -0.102803)
(-0.208738 -0.28191 -0.0209617)
(0.0813388 0.140529 -0.218851)
(0.102901 0.0592807 -0.231234)
(0.101135 -0.000517425 -0.259829)
(0.0968091 2.49335e-05 -0.265076)
(-0.0795524 -0.430355 -0.200479)
(-0.132668 -0.450485 -0.221919)
(-0.185852 -0.458852 -0.206091)
(-0.2489 -0.445578 -0.168955)
(-0.168913 -0.548062 -0.18403)
(-0.126733 -0.560005 -0.256849)
(-0.096115 -0.566364 -0.290871)
(-0.0603664 -0.554618 -0.29096)
(-0.0505399 -0.743713 -0.348365)
(-0.0815287 -0.758305 -0.331547)
(-0.106327 -0.770547 -0.281443)
(-0.147153 -0.760716 -0.19458)
(-0.134488 -0.822533 -0.182203)
(-0.128788 -0.883561 -0.200175)
(-0.0981622 -0.906304 -0.29718)
(-0.0726685 -0.87343 -0.373386)
(-0.0490889 -0.853299 -0.399485)
(-0.0767217 -0.96903 -0.370333)
(-0.11215 -0.990611 -0.335475)
(-0.13812 -1.01082 -0.283369)
(-0.137144 -1.0936 -0.346704)
(-0.0800841 -1.0681 -0.398763)
(-0.0724792 -1.14572 -0.440524)
(-0.0493893 -1.12431 -0.473105)
(-0.0269924 -1.11539 -0.458345)
(-0.00339832 -1.04352 -0.41515)
(0.0120265 -1.07565 -0.406383)
(-0.0127388 -1.15396 -0.469359)
(-0.0398277 -1.18095 -0.493904)
(-0.0684998 -1.209 -0.462727)
(-0.131488 -1.22944 -0.379035)
(-0.13482 -1.16714 -0.36906)
(-0.283524 -1.04722 -0.225322)
(-0.45724 -1.14654 -0.0769529)
(-0.463636 -1.10063 -0.0674714)
(-0.415976 -1.04637 -0.0647351)
(-0.302817 -1.0369 -0.0737748)
(-0.255715 -0.968162 -0.0639712)
(-0.30915 -0.945602 -0.0575605)
(-0.342263 -0.849673 -0.0421367)
(-0.378045 -0.714238 -0.0377989)
(-0.473731 -0.627408 -0.0366304)
(-0.409785 -0.401794 -0.0339675)
(-0.464682 -0.661338 -0.00576608)
(-0.31653 -0.458017 0.0246762)
(-0.638375 -0.399092 0.00546487)
(-0.815395 -0.379657 0.0601511)
(-0.917976 -0.384761 0.0846265)
(-0.968072 -0.397541 0.124365)
(-0.980024 -0.525727 0.0977862)
(-0.94029 -0.689956 0.0653874)
(-0.923957 -0.750788 0.0525077)
(-0.874402 -0.849172 0.0364414)
(-0.858757 -0.896387 0.0304566)
(-0.820875 -0.928735 0.00760456)
(-0.703555 -0.968495 -0.0230285)
(-0.592354 -1.00312 -0.0419996)
(-0.626629 -0.953706 -0.0172043)
(-0.484833 -0.972808 -0.030689)
(-0.502719 -0.894465 -0.0301038)
(-0.53034 -0.797929 -0.0232406)
(-0.55917 -0.731633 -0.0194194)
(-0.686326 -0.713156 -0.00979412)
(-0.674891 -0.598714 -0.00776421)
(-0.824133 -0.577746 0.0303478)
(-0.918556 -0.560072 0.0504072)
(-0.88139 -0.697654 0.0231426)
(-0.800373 -0.705253 0.012196)
(-0.777474 -0.790543 0.00227969)
(-0.660811 -0.799082 -0.0107696)
(-0.635643 -0.883537 -0.0170359)
(-0.748397 -0.867049 -0.00513937)
(-0.825463 -0.851356 0.00443455)
(-0.863132 -0.773703 0.0135073)
(-0.801621 -0.739589 -0.0117758)
(-0.624249 -0.612768 0.001932)
(-0.847206 -0.660224 0.0116948)
(-0.868274 -0.518781 0.0520908)
(-0.870707 -0.380052 0.0581862)
(-0.843707 -0.282438 0.121685)
(-0.832619 -0.302463 0.0765934)
(-0.879142 -0.350873 0.0525979)
(-0.87561 -0.204042 0.129108)
(-0.894685 -0.184345 0.174162)
(-0.761175 -0.161642 0.158541)
(-0.767116 -0.129175 0.259295)
(-0.778503 -0.120872 0.302134)
(-0.822358 -0.108754 0.355603)
(-0.829963 -0.119371 0.35298)
(-0.643178 -0.181901 0.251394)
(-0.608116 -0.173829 0.248768)
(-0.568095 -0.180655 0.215831)
(-0.55151 -0.175822 0.189118)
(-0.569053 -0.191367 0.120479)
(-0.33848 -0.195025 0.0770776)
(-0.320431 -0.189537 0.102051)
(-0.329732 -0.192222 0.114687)
(-0.361087 -0.199142 0.12485)
(-0.449904 -0.217127 0.142243)
(-0.405834 -0.253649 0.0601514)
(-0.382716 -0.285215 0.0688504)
(-0.411245 -0.341438 0.0474196)
(-0.316425 -0.42744 0.0363429)
(-0.312248 -0.394789 0.0496446)
(-0.284002 -0.416763 0.016146)
(-0.193243 -0.419998 -0.0199948)
(-0.337634 -0.254411 0.0358331)
(-0.403484 -0.331322 0.041421)
(-0.248608 -0.457965 -0.0062762)
(-0.292074 -0.460375 0.000697032)
(-0.452384 -0.321584 0.0722616)
(-0.525224 -0.299308 0.131537)
(-0.498503 -0.318985 0.13658)
(-0.471276 -0.33713 0.111594)
(-0.458969 -0.350984 0.0944028)
(-0.493258 -0.373489 0.00864957)
(-0.710917 -0.318065 0.0632086)
(-0.717902 -0.530281 0.0389626)
(-0.549018 -0.554892 -0.00175027)
(-0.509878 -0.607653 -0.00399141)
(-0.465611 -0.649988 -0.0174563)
(-0.436869 -0.653249 -0.0210892)
(-0.412829 -0.531351 -0.0229146)
(-0.410943 -0.541283 -0.0484366)
(-0.4098 -0.54176 -0.034357)
(-0.335371 -0.5509 -0.0169718)
(-0.267325 -0.596453 -0.0071647)
(-0.319352 -0.581463 -0.00337299)
(-0.403335 -0.513479 0.00720096)
(-0.331896 -0.535875 -0.00406579)
(-0.438581 -0.630976 -0.0118566)
(-0.292843 -0.473673 -0.00499713)
(-0.21019 -0.540216 -0.0181042)
(-0.28087 -0.525175 -0.0160875)
(-0.394348 -0.436521 -0.000627583)
(-0.413799 -0.363115 -0.0103471)
(-0.260473 -0.39459 -0.0108898)
(-0.156831 -0.423396 -0.0360754)
(-0.136179 -0.399993 -0.0223042)
(-0.238118 -0.205624 0.0226833)
(-0.382483 -0.343209 -0.00184202)
(-0.251513 -0.475081 -0.0194964)
(-0.218872 -0.468516 -0.023383)
(-0.121979 -0.393355 -0.029621)
(-0.219289 -0.194775 0.0396031)
(-0.346807 -0.338306 0.0124117)
(-0.366308 -0.363685 0.0543823)
(-0.195799 -0.511707 -0.0105177)
(-0.174091 -0.468623 0.0190469)
(-0.110035 -0.420775 0.00245419)
(-0.222473 -0.229379 0.0451129)
(-0.325965 -0.342277 0.0526332)
(-0.335316 -0.33937 0.0573347)
(-0.1807 -0.463799 0.0171278)
(-0.109441 -0.409523 0.000641662)
(-0.232218 -0.220776 0.0626249)
(-0.286308 -0.22175 0.0779907)
(-0.240733 -0.230588 0.071786)
(-0.350617 -0.337428 0.0789181)
(-0.189847 -0.465888 0.0489096)
(-0.117937 -0.416163 0.038081)
(-0.140662 -0.45027 -0.00316441)
(-0.196636 -0.498213 0.0262015)
(-0.382016 -0.351083 0.0794912)
(-0.334593 -0.626221 -0.00321003)
(-0.355776 -0.632906 -0.0113964)
(-0.499541 -0.51248 0.0580283)
(-0.651588 -0.445193 0.0983999)
(-0.667145 -0.287077 0.136476)
(-0.79863 -0.271832 0.170634)
(-0.891345 -0.321042 0.166565)
(-1.02112 -0.489206 0.126026)
(-1.10803 -0.495457 0.167816)
(-1.13291 -0.503008 0.193018)
(-1.11288 -0.505275 0.216041)
(-1.04946 -0.501447 0.238941)
(-0.943661 -0.490364 0.26083)
(-0.794409 -0.466851 0.287423)
(-0.63924 -0.431538 0.327063)
(-0.396351 -0.380512 0.396296)
(-0.159979 -0.293962 0.485538)
(0.049493 -0.150978 0.488218)
(0.342878 -0.158357 0.428094)
(0.342442 -0.214195 0.376854)
(0.205811 -0.128605 0.486154)
(0.274092 -0.00429659 0.765797)
(0.285069 0.0447196 1.03254)
(0.269627 0.0795778 1.14352)
(0.250972 0.132287 1.09377)
(0.212602 0.121908 0.957189)
(0.141822 0.120822 0.705895)
(0.0396296 0.18793 0.406307)
(0.173326 0.513985 0.425508)
(0.421256 0.515486 0.374735)
(0.607695 0.539057 0.375941)
(0.852089 0.497832 0.352066)
(1.00935 0.416965 0.318617)
(1.07223 0.322691 0.275387)
(1.05366 0.25395 0.23604)
(0.998373 0.21066 0.201964)
(1.01358 0.159144 0.169852)
(1.03312 0.118645 0.146481)
(0.974987 0.09215 0.0918533)
(0.872823 0.0422059 0.0686502)
(0.70827 -0.0233175 0.054567)
(0.463645 -0.110378 0.0212754)
(0.236774 -0.216668 -0.0239748)
(0.0976078 -0.617042 -0.112116)
(0.173343 -0.380702 -0.0788595)
(-0.180698 -0.169391 0.00446192)
(-0.100344 -0.38704 -0.0406253)
(-0.109785 -0.307185 -0.0663949)
(-0.111927 -0.332469 -0.0742703)
(-0.109177 -0.290473 -0.0627056)
(-0.0754778 -0.211061 -0.0573329)
(-0.156606 -0.159177 -0.0190662)
(-0.225545 0.248104 0.165751)
(-0.131994 0.483795 0.126819)
(-0.0433767 0.608958 0.0740795)
(0.0273223 0.65586 0.0731339)
(0.110889 0.671916 0.158951)
(0.206254 0.712717 0.278238)
(0.302015 0.748139 0.329989)
(0.388499 0.745653 0.36543)
(0.468233 0.685241 0.373802)
(0.53457 0.548928 0.371154)
(0.585953 0.330753 0.335601)
(0.565861 0.00340497 0.260946)
(0.388943 -0.332218 0.253007)
(0.289019 -0.333556 0.315956)
(0.224367 -0.288901 0.325791)
(0.158163 -0.198958 0.331586)
(0.146832 -0.00184717 0.310451)
(0.290803 0.00959921 0.338191)
(0.452681 -0.158936 0.32929)
(0.604426 -0.256522 0.341177)
(0.643626 -0.345484 0.350815)
(0.624651 -0.437185 0.35316)
(0.478065 -0.541356 0.335299)
(0.111607 -0.566569 0.317858)
(-0.167999 -0.300447 0.302791)
(-0.0391567 -0.13076 0.355028)
(0.226833 -0.151329 0.238151)
(0.280827 -0.401346 0.0727218)
(0.00802583 -0.51816 0.2378)
(-0.140836 -0.747143 -0.140555)
(0.201712 -0.720624 -0.480076)
(0.306432 -0.396317 -0.17713)
(0.332731 -0.379337 0.0922457)
(0.348089 -0.55057 0.184123)
(0.331625 -0.891475 0.121522)
(0.532649 -0.87325 0.0659433)
(0.610104 -0.693194 0.0976542)
(0.5747 -0.539687 0.136861)
(0.504571 -0.397938 0.186825)
(0.336309 -0.232979 0.244619)
(0.358111 -0.349132 0.192898)
(0.419836 -0.379384 0.14056)
(0.500116 -0.365337 0.0788268)
(0.605394 -0.292687 -0.0552641)
(0.852641 0.195261 -0.114731)
(0.900905 0.475218 -0.0195798)
(0.847827 0.672329 0.0529637)
(0.74747 0.769263 0.0950166)
(0.615806 0.791896 0.140928)
(0.466171 0.760724 0.155718)
(0.300715 0.699706 0.161922)
(0.129607 0.63913 0.0957337)
(-0.0404279 0.603752 0.0478178)
(-0.158524 0.560084 0.0607502)
(-0.277612 0.450764 0.123645)
(-0.403823 0.249215 0.169596)
(-0.288146 -0.113446 0.0176619)
(-0.406179 0.0207933 0.0732002)
(-0.489223 0.0698135 0.099645)
(-0.527955 0.1946 0.136939)
(-0.535969 0.14311 0.105306)
(-0.496477 0.00288781 0.0251373)
(-0.453112 -0.068349 0.0141477)
(-0.38449 -0.130672 -0.00848874)
(-0.289508 -0.19904 -0.0224185)
(-0.191669 -0.235099 -0.0371733)
(-0.140016 -0.206754 -0.0292987)
(-0.199053 -0.16888 -0.0211924)
(-0.181995 -0.326608 -0.0352623)
(-0.122073 -0.322318 -0.0460839)
(-0.100447 -0.343227 -0.0738291)
(-0.0786621 -0.380456 -0.107763)
(-0.0481211 -0.567218 -0.225529)
(-0.0880667 -0.507293 -0.153346)
(-0.104759 -0.618243 -0.11826)
(-0.149417 -0.627674 -0.0864284)
(-0.19124 -0.543656 -0.0778819)
(-0.293376 -0.360795 -0.0427717)
(-0.259006 0.172543 0.114333)
(-0.104261 0.380472 0.276678)
(-0.00798957 0.470834 0.420129)
(0.0661884 0.473389 0.546409)
(0.137684 0.414438 0.617823)
(0.189718 0.306215 0.650094)
(0.241723 0.157429 0.623983)
(0.229721 -0.0166745 0.525725)
(0.10116 -0.136129 0.428623)
(-0.0145665 -0.103291 0.439355)
(-0.0348743 0.0138419 0.418759)
(-0.0354475 0.13779 0.423061)
(0.0382233 0.244939 0.368377)
(0.201456 0.137102 0.386207)
(0.161039 0.268966 0.449782)
(-0.0526557 0.186096 -0.0343623)
(-0.169544 -0.0776187 -0.639057)
(-0.182116 -0.3116 -0.538999)
(-0.168714 -0.346283 -0.308783)
(-0.144561 -0.305359 -0.0946815)
(-0.0633595 -0.58679 -0.104775)
(-0.0291282 -0.862936 -0.0913967)
(0.00102397 -1.01883 -0.0894984)
(0.0312499 -1.14184 -0.0989573)
(0.0642636 -1.22523 -0.113441)
(0.094686 -1.27798 -0.127437)
(0.121403 -1.30452 -0.139431)
(0.145569 -1.31303 -0.151481)
(0.166677 -1.31087 -0.164078)
(0.185117 -1.30162 -0.17499)
(0.20086 -1.2869 -0.183599)
(0.214848 -1.26725 -0.18889)
(0.227215 -1.2424 -0.19174)
(0.238498 -1.211 -0.190709)
(0.248119 -1.17164 -0.185592)
(0.253931 -1.12196 -0.174811)
(0.251141 -1.05926 -0.158155)
(0.194362 -0.995961 -0.138426)
(0.139508 -0.910971 -0.122355)
(0.164099 -0.826966 -0.0867279)
(0.187351 -0.726506 -0.0879461)
(0.203483 -0.558015 -0.0878523)
(0.246244 -0.441163 -0.0842192)
(0.0719392 -0.029778 -0.0951911)
(0.36524 -0.297259 0.0435314)
(0.245203 -0.549476 -0.056894)
(0.285373 -0.0942329 -0.0268101)
(0.180111 -0.0364859 -0.147063)
(0.200831 -0.111916 -0.124325)
(0.193537 -0.118864 -0.0803745)