/*--------------------------------*- C++ -*----------------------------------*\
| =========                 |                                                 |
| \\      /  F ield         | OpenFOAM: The Open Source CFD Toolbox           |
|  \\    /   O peration     | Version:  v2012                                 |
|   \\  /    A nd           | Website:  www.openfoam.com                      |
|    \\/     M anipulation  |                                                 |
\*---------------------------------------------------------------------------*/
FoamFile
{
    version     2.0;
    format      ascii;
    class       volScalarField;
    location    "605";
    object      epsilon;
}
// * * * * * * * * * * * * * * * * * * * * * * * * * * * * * * * * * * * * * //

dimensions      [0 2 -3 0 0 0 0];


internalField   nonuniform List<scalar> 
18258
(
0.0240674
0.01227
0.00914945
0.00720206
0.0126655
0.0125541
0.0130116
0.0173495
0.0241617
0.0369956
0.0535585
0.0481414
0.0435225
0.0452686
0.0474422
0.0450209
0.0350866
0.030354
0.040077
0.0667368
0.0607038
0.0496575
0.0606569
0.0514152
0.0659903
0.0835342
0.0640751
0.0575015
0.0515736
0.0485299
0.0420779
0.0243859
0.034244
0.0527106
0.072288
0.0791819
0.0850182
0.0899384
0.0950808
0.0972162
0.0974614
0.0922106
0.0829752
0.0677022
0.0495676
0.037833
0.0288495
0.0322616
0.0451843
0.0454457
0.0560087
0.0859385
0.108334
0.081125
0.0518553
0.082697
0.112732
0.144513
0.170998
0.193398
0.201056
0.197578
0.186006
0.169247
0.147786
0.122797
0.101812
0.0848997
0.0671206
0.0573273
0.0463829
0.0384748
0.0329103
0.0292514
0.0270506
0.0253247
0.0241595
0.0250899
0.0249758
0.017812
0.0140116
0.0131626
0.00941674
0.00782689
0.0081441
0.0077482
0.00804885
0.00710627
0.0060854
0.00528172
0.00447688
0.00651641
0.00700952
0.00725031
0.0072691
0.00779232
0.00804728
0.00778181
0.00787623
0.00720584
0.00744625
0.0119294
0.0136953
0.0173767
0.0155314
0.0107769
0.00907078
0.010115
0.0107363
0.0133483
0.0125643
0.0133454
0.011837
0.0108078
0.00912675
0.00886366
0.00909929
0.00967221
0.0100764
0.011683
0.0115134
0.0106781
0.0118114
0.0130321
0.0127587
0.0122117
0.0116274
0.0142697
0.0114703
0.0121547
0.0136529
0.0219982
0.0215248
0.0260144
0.0255365
0.0259797
0.0261633
0.0315516
0.0316728
0.0320466
0.0323662
0.034089
0.0571084
0.050884
0.049778
0.0495845
0.0429036
0.0424369
0.0417435
0.0425582
0.0360798
0.0347309
0.0314938
0.0311317
0.0347362
0.0438701
0.0613543
0.0886082
0.12255
0.158891
0.189171
0.210183
0.231933
0.237409
0.251335
0.256103
0.257049
0.251404
0.24302
0.233586
0.220775
0.202271
0.189457
0.148977
0.105461
0.0592742
0.0787141
0.0908153
0.100583
0.102422
0.103519
0.0993523
0.0930038
0.0817538
0.0661156
0.0429225
0.0491338
0.066429
0.0686243
0.06928
0.0549098
0.0527816
0.0489404
0.0488645
0.064086
0.0736899
0.0620062
0.0858669
0.10082
0.0881095
0.0638202
0.0977838
0.144072
0.0810945
0.0690838
0.053665
0.052704
0.0445872
0.0373429
0.0626637
0.0937894
0.129349
0.150818
0.172805
0.190611
0.204043
0.218266
0.189717
0.172319
0.115893
0.203425
0.154754
0.0783547
0.0581359
0.0571294
0.0429832
0.0495731
0.0551574
0.0512009
0.039166
0.0273956
0.0252313
0.0465504
0.0649215
0.0785318
0.0625292
0.0795696
0.0897331
0.0970007
0.102378
0.129655
0.0954067
0.106645
0.0766943
0.103975
0.0739637
0.0477719
0.0528372
0.101138
0.16155
0.22181
0.259183
0.147895
0.0749579
0.0557514
0.0561262
0.0538046
0.0485047
0.0602106
0.107046
0.0720584
0.0468198
0.0406996
0.0481584
0.0408063
0.0303952
0.0317947
0.0395141
0.0551732
0.069938
0.0828814
0.126421
0.122138
0.147472
0.155069
0.130587
0.126116
0.081428
0.0836943
0.123569
0.0920581
0.0744383
0.104446
0.147555
0.201737
0.24802
0.288417
0.314307
0.303756
0.27483
0.173824
0.0761061
0.0229074
0.0178006
0.0168426
0.0173165
0.0105224
0.00630056
0.00585399
0.00667068
0.00701669
0.00591298
0.00544177
0.00543235
0.00578068
0.010179
0.00874717
0.0108233
0.0131136
0.0156613
0.0187049
0.0194328
0.0128941
0.008728
0.00819098
0.00812705
0.00805852
0.00802946
0.00804142
0.00808209
0.00809828
0.00806627
0.00798794
0.00785121
0.00771604
0.00765902
0.00829558
0.0111863
0.0153491
0.0148416
0.0135521
0.0121967
0.0110355
0.0087057
0.0151468
0.0128431
0.0109351
0.0133947
0.0165012
0.0208551
0.0245048
0.017676
0.0141512
0.0128073
0.0126817
0.0125677
0.0126135
0.0124918
0.0125577
0.0123607
0.0129608
0.0135765
0.0169706
0.0189939
0.0211695
0.0226652
0.0232445
0.0239594
0.0211279
0.0229582
0.0227252
0.0235051
0.0233179
0.0226279
0.0207107
0.0189216
0.0177017
0.0191164
0.0236815
0.0323317
0.0267269
0.0207419
0.0167824
0.0137254
0.0149939
0.0166698
0.0168451
0.0158581
0.0156289
0.0154212
0.013901
0.0131138
0.0111078
0.0104967
0.0100332
0.0101825
0.0143639
0.0135138
0.0137171
0.0144503
0.0155443
0.0147017
0.0151353
0.0142904
0.0145372
0.0149574
0.0170235
0.0185824
0.0178239
0.0165072
0.0160091
0.0137391
0.0158454
0.0157061
0.0170259
0.0186105
0.0191011
0.0190356
0.0183982
0.0168007
0.018693
0.0220618
0.0257139
0.0247137
0.0243922
0.0204488
0.0192483
0.0202201
0.0214924
0.0224
0.022475
0.0223077
0.0223967
0.0264084
0.0260606
0.0248529
0.0227734
0.0203169
0.0176696
0.0152118
0.0166863
0.0181683
0.0195608
0.0208313
0.0205921
0.0190647
0.0177049
0.0164735
0.0149803
0.0146906
0.0161438
0.0173659
0.0187972
0.0205104
0.0205831
0.0188717
0.0173774
0.0160958
0.0146225
0.0145728
0.0160723
0.0173695
0.0187852
0.0202673
0.0196342
0.0184815
0.0172325
0.0159915
0.0145401
0.0146069
0.0159274
0.0169947
0.0180765
0.0190248
0.0198783
0.0179184
0.0170095
0.0171037
0.0161174
0.0193021
0.0185442
0.0194856
0.0180327
0.0168069
0.0178115
0.0210022
0.0240358
0.0245864
0.0243064
0.0201728
0.0206287
0.0206065
0.0191887
0.0159655
0.0153683
0.0181407
0.0208801
0.0213425
0.0200329
0.0169287
0.0132893
0.0143106
0.0174735
0.0197865
0.0185282
0.0183675
0.0169527
0.0158736
0.0161722
0.013893
0.0166316
0.0267063
0.0241694
0.0221491
0.0196762
0.0156679
0.0106076
0.0115074
0.0126655
0.0130822
0.0105745
0.00791833
0.0071104
0.00691718
0.00675904
0.00654041
0.00617188
0.00561403
0.00537674
0.0106083
0.0257768
0.0364464
0.0358092
0.0241
0.0207666
0.0201053
0.0187515
0.00917915
0.00818703
0.00841664
0.0103779
0.00817656
0.00848131
0.0147117
0.0101137
0.0138618
0.0107503
0.0146377
0.0229565
0.0217416
0.0144122
0.00801798
0.0068924
0.00738218
0.00766702
0.00787087
0.00806766
0.00830137
0.00868776
0.01001
0.0157368
0.0203132
0.0177702
0.0167784
0.0153045
0.0188474
0.0213313
0.0232702
0.0260325
0.0160959
0.0117864
0.0166351
0.0272627
0.0247493
0.0232918
0.0171562
0.0176968
0.0171261
0.0110124
0.0106681
0.0105889
0.0114001
0.0127855
0.0147095
0.0158727
0.0166235
0.0169551
0.0178683
0.0231387
0.0216532
0.0211408
0.0173597
0.0134139
0.0154009
0.0515966
0.0195719
0.0206886
0.0189082
0.0191764
0.0204595
0.0151584
0.0135159
0.0129432
0.0146471
0.0215343
0.0215411
0.0214008
0.0182587
0.0174737
0.0209078
0.0220011
0.0224039
0.0217819
0.0213372
0.0194703
0.0166865
0.018117
0.0196347
0.0208316
0.0228419
0.023185
0.0179661
0.0172423
0.015846
0.0105526
0.0112953
0.00973159
0.00969925
0.00966226
0.00938698
0.00893765
0.00922748
0.00934726
0.00934708
0.00900154
0.00929909
0.0083435
0.00868178
0.00977324
0.0152197
0.0147854
0.0175812
0.0194921
0.0167378
0.0155787
0.0142162
0.013193
0.0154461
0.0142829
0.0168606
0.0212134
0.0265047
0.0191341
0.0181382
0.0179152
0.01751
0.0173525
0.0174053
0.0167109
0.0157075
0.0151392
0.0235918
0.0212899
0.0181661
0.0172167
0.0157832
0.0180365
0.017479
0.0213786
0.0268635
0.0270685
0.0215463
0.0216243
0.0189668
0.0200725
0.0222633
0.0271055
0.027029
0.0144419
0.0095989
0.0154436
0.0157834
0.018393
0.0170087
0.0185365
0.0197171
0.0204442
0.0203037
0.0177023
0.0188787
0.0196668
0.0206528
0.0185976
0.016592
0.0173822
0.0161599
0.01526
0.0147592
0.0126841
0.0129305
0.0139023
0.0153536
0.0162946
0.0177894
0.0194454
0.0194755
0.0201444
0.0197385
0.0191409
0.0252436
0.0239996
0.0255416
0.0282573
0.022459
0.0178208
0.0146952
0.0150085
0.0147747
0.0146826
0.0154236
0.0167835
0.0151607
0.0145415
0.0170564
0.0194186
0.0246911
0.0330656
0.0287997
0.026224
0.0332356
0.0313972
0.0382553
0.0286872
0.0281575
0.0208645
0.0263017
0.0305195
0.0392265
0.0255294
0.0209686
0.0224255
0.0255471
0.0347978
0.0328092
0.0331793
0.0412166
0.0399846
0.0362173
0.0311917
0.0353815
0.0212633
0.0302114
0.0322435
0.02683
0.0257221
0.0307656
0.0310955
0.0330334
0.0283873
0.0267889
0.017926
0.027466
0.0314078
0.0331073
0.0278433
0.0205399
0.028036
0.0205645
0.0192002
0.0203124
0.0137829
0.0127293
0.0148042
0.0138748
0.0112004
0.012152
0.0111719
0.0111595
0.0112413
0.0113573
0.0114907
0.0117482
0.0117161
0.0127397
0.0133424
0.0126327
0.0115567
0.0122081
0.012561
0.0160734
0.0181603
0.0204256
0.0220188
0.0228656
0.0240194
0.0227464
0.0248186
0.0236958
0.0252127
0.0249216
0.0238394
0.0212912
0.0186326
0.0162162
0.0166827
0.0203071
0.0266834
0.0218709
0.0169508
0.0137232
0.0113847
0.0126768
0.0158548
0.00857874
0.00778888
0.00746108
0.00724606
0.00703276
0.00611675
0.00557686
0.00909119
0.0132823
0.0165502
0.0206101
0.0262723
0.0322336
0.037375
0.0413156
0.0442138
0.0460809
0.0466165
0.0439064
0.0338755
0.0291632
0.0250747
0.0207533
0.0168712
0.0169235
0.0246473
0.0322564
0.0397156
0.0462645
0.0511432
0.0492228
0.0329585
0.0301291
0.0467768
0.0785263
0.0745489
0.0977513
0.111116
0.0631387
0.0465444
0.0452722
0.062006
0.0646043
0.0566757
0.0468086
0.036653
0.02652
0.0310583
0.0355036
0.0397373
0.0442435
0.0575165
0.0602968
0.0589704
0.0561727
0.0526255
0.0479964
0.0413036
0.033085
0.0251668
0.0192353
0.0146355
0.00978125
0.00693812
0.00831105
0.0076363
0.0112033
0.00967791
0.00843657
0.00774597
0.00795412
0.00778205
0.00793794
0.00697852
0.00630516
0.0102813
0.00941436
0.00931367
0.0098583
0.0132039
0.0101509
0.00752795
0.00709598
0.00700744
0.00732404
0.0179112
0.0254232
0.0305164
0.0350187
0.0379465
0.0366277
0.0334156
0.0280352
0.0224618
0.020254
0.0172501
0.01465
0.0133672
0.0146042
0.0120698
0.00611273
0.00518642
0.0056991
0.00558059
0.00511416
0.00614457
0.00683173
0.00744014
0.00785688
0.00816047
0.00821357
0.00814548
0.00805002
0.00800177
0.00797865
0.00794819
0.00788232
0.00778665
0.00764494
0.00750927
0.00744602
0.00803781
0.0106473
0.0145652
0.0143386
0.0132281
0.0121223
0.0112646
0.00954902
0.0153748
0.013052
0.0109411
0.0101172
0.00997031
0.0102641
0.0112217
0.0128536
0.0137689
0.0157618
0.0158101
0.0157146
0.0160033
0.0157864
0.0131443
0.01489
0.0176364
0.0184637
0.0190721
0.0188374
0.0173018
0.0193157
0.0204532
0.0199018
0.0192885
0.016388
0.0190582
0.0230938
0.0235429
0.0238248
0.0211802
0.0183568
0.0215079
0.0226566
0.0222374
0.023097
0.0212096
0.0219306
0.027843
0.0141028
0.0126296
0.00758212
0.00863762
0.00878561
0.00838515
0.00806435
0.0083669
0.00859002
0.00841425
0.00910724
0.00943686
0.00881114
0.0113937
0.010426
0.00994777
0.00931986
0.00996044
0.0107269
0.011093
0.0121649
0.0195091
0.019936
0.0181658
0.0205623
0.021183
0.0179621
0.0203562
0.0212362
0.0214552
0.0217915
0.0233461
0.0219994
0.0243457
0.0235121
0.0222236
0.0214498
0.038081
0.0251469
0.0165547
0.0152049
0.0148086
0.0148596
0.0167256
0.012585
0.014095
0.00993234
0.00860358
0.00822821
0.0079143
0.00838832
0.0115281
0.0187318
0.0254592
0.0277449
0.0265882
0.0234599
0.0182598
0.0139644
0.0135284
0.0121895
0.0113015
0.0111087
0.00750642
0.00517873
0.00645661
0.00658582
0.00716324
0.00756778
0.00789435
0.00813728
0.00826582
0.0083256
0.0083938
0.00850223
0.008623
0.00872827
0.0088115
0.00887174
0.00893565
0.00905613
0.00936121
0.010557
0.0152031
0.0196016
0.0185089
0.0170525
0.0157476
0.0165064
0.017261
0.0180053
0.0221799
0.0190612
0.0219527
0.0205988
0.0196099
0.0182081
0.0189346
0.0207176
0.0164874
0.0164145
0.0111859
0.00976101
0.0093835
0.00916746
0.00899798
0.00883158
0.00867589
0.00853777
0.00840929
0.00830003
0.00821731
0.00814783
0.00801199
0.00776857
0.00737799
0.00694321
0.00620086
0.00687418
0.00732703
0.00828423
0.00955854
0.010257
0.00967909
0.00880533
0.00834543
0.00840738
0.00858115
0.00878119
0.00900941
0.00932057
0.00979132
0.0107614
0.0114379
0.0160804
0.0168089
0.0201039
0.0199173
0.017831
0.0171829
0.0187965
0.0173386
0.0126396
0.0173295
0.016837
0.0210556
0.0156111
0.0147115
0.0150993
0.0155714
0.0182488
0.0171541
0.0156884
0.015661
0.0125997
0.0141612
0.0161576
0.0176501
0.027864
0.0272944
0.034375
0.0343043
0.0592834
0.0563839
0.0496877
0.0537857
0.023692
0.0463609
0.0542355
0.0494137
0.0428666
0.0272798
0.0436486
0.0665256
0.0963357
0.0694001
0.0567308
0.105549
0.0766291
0.0373128
0.02653
0.0149784
0.015071
0.0250141
0.0290545
0.02407
0.0232113
0.0333829
0.0347478
0.0279669
0.0286534
0.0310305
0.0299675
0.0324168
0.028042
0.0273628
0.0154894
0.0127077
0.0137314
0.0154535
0.0164592
0.0159525
0.0167869
0.0174544
0.0160236
0.0150042
0.0144532
0.0124004
0.0131457
0.0161149
0.0203125
0.0238055
0.0171896
0.0138114
0.0125193
0.0123283
0.012105
0.0119882
0.0116698
0.0114847
0.0110174
0.0112254
0.00976625
0.00977381
0.0103071
0.0104694
0.0106723
0.010829
0.0109512
0.0110632
0.0119275
0.0186703
0.0258353
0.0206745
0.0163888
0.013923
0.0151051
0.0170151
0.0208938
0.0262861
0.0177499
0.0175671
0.0114498
0.0106718
0.0104623
0.0102907
0.01014
0.0100439
0.0101065
0.0101151
0.0118552
0.0115474
0.0135683
0.0146454
0.0121004
0.0116694
0.0111973
0.01091
0.0107514
0.0106657
0.0107538
0.0116138
0.0114487
0.0105212
0.010429
0.0105511
0.0107669
0.0110928
0.0115433
0.0120514
0.0129709
0.0127444
0.0111914
0.0111675
0.0105043
0.0101921
0.00995894
0.00993511
0.00998443
0.0101248
0.0103488
0.0112558
0.0170248
0.0172084
0.0264923
0.0264788
0.0210538
0.0176017
0.015461
0.0142169
0.0134903
0.035031
0.0307662
0.0487209
0.0388614
0.0311118
0.0504968
0.0718403
0.0558001
0.0908981
0.0982163
0.0723796
0.0655683
0.02084
0.0158782
0.0153785
0.0168571
0.0185369
0.021154
0.0217418
0.0265256
0.0286137
0.0170786
0.0164043
0.0154844
0.0247521
0.022942
0.019583
0.0177126
0.0163377
0.0188736
0.0206532
0.0148879
0.0149299
0.00961534
0.0106068
0.0103563
0.0100136
0.00989252
0.00981782
0.00985343
0.00995227
0.010238
0.0107378
0.0111263
0.0112962
0.0116409
0.0114284
0.0111559
0.0108327
0.0106405
0.0104478
0.0102899
0.0101675
0.0101987
0.010513
0.0106573
0.00935189
0.00969918
0.00981039
0.00982513
0.00985994
0.00982772
0.00969364
0.00948984
0.00929353
0.00908605
0.00912455
0.00988898
0.0100188
0.0100689
0.0099087
0.00978892
0.00977768
0.00971486
0.00970299
0.00969927
0.00958277
0.0092724
0.00855658
0.00840702
0.00900252
0.00934217
0.00951535
0.00959301
0.00957464
0.00951818
0.00929074
0.00912152
0.00892037
0.00858928
0.00815136
0.00678819
0.00706705
0.00742325
0.00791968
0.00843161
0.00888
0.00918029
0.00933659
0.00942389
0.00933862
0.00904482
0.00851562
0.00846146
0.0088542
0.00903645
0.00899802
0.00873831
0.00833065
0.00776857
0.00706918
0.00639181
0.00587674
0.00563932
0.00524845
0.00653803
0.007116
0.00765243
0.00814871
0.00862309
0.00913608
0.00933834
0.00939859
0.00938082
0.00922937
0.00890452
0.00838512
0.00838892
0.00885713
0.00916241
0.00928604
0.00926997
0.00908586
0.00868328
0.0077816
0.00698338
0.0063408
0.0057656
0.00518722
0.00513547
0.00539166
0.0051506
0.00534589
0.00592115
0.00672185
0.00749905
0.00810447
0.00852915
0.00871061
0.0086577
0.00840426
0.00830599
0.00843102
0.00837586
0.00807302
0.00750792
0.00676484
0.00596692
0.00534039
0.00516728
0.00550185
0.00583757
0.00552389
0.00436431
0.00490365
0.00545039
0.00603161
0.00693697
0.00810946
0.00869412
0.00900527
0.00916134
0.00909642
0.00881201
0.00837987
0.00835947
0.00877579
0.00905346
0.00910253
0.00897079
0.00868959
0.00820368
0.00677857
0.00532699
0.00471125
0.00437034
0.00393449
0.00559952
0.00596809
0.00554194
0.00526599
0.00570244
0.00624287
0.00686822
0.00738121
0.00780621
0.0081091
0.00821002
0.00817715
0.00804443
0.00804936
0.00799602
0.00779353
0.00754931
0.00734029
0.0069042
0.00645392
0.0059231
0.00647931
0.00677797
0.00634495
0.00463962
0.00492239
0.00534737
0.00560596
0.00704713
0.00847977
0.00888387
0.00902231
0.0091579
0.00908752
0.00877342
0.00833816
0.00832326
0.00883878
0.00923381
0.00936931
0.00946893
0.00956422
0.00964831
0.00848868
0.00662049
0.0062041
0.00524049
0.00479659
0.00666481
0.00709795
0.00688604
0.00661659
0.00755836
0.00795187
0.00809733
0.00811208
0.00812266
0.00809228
0.00799893
0.00792798
0.00781332
0.00825581
0.00889547
0.00880234
0.00870795
0.008549
0.00818681
0.00773425
0.00722134
0.00790462
0.00848189
0.00819469
0.00593536
0.00630304
0.00716722
0.00730457
0.00879819
0.00997984
0.0103208
0.0103244
0.0102197
0.0102004
0.00920452
0.00829004
0.00814581
0.00948615
0.015391
0.0152375
0.0152737
0.0152119
0.0146546
0.014496
0.0139436
0.013701
0.0130185
0.0125912
0.0119166
0.0139482
0.0176529
0.0197192
0.0220956
0.0245912
0.0233519
0.0188967
0.0166911
0.0102334
0.00806622
0.00695228
0.00600882
0.00530165
0.00509491
0.00751711
0.00935309
0.011504
0.0134629
0.013774
0.0161955
0.0201319
0.0306577
0.0487508
0.0412001
0.0389339
0.0398477
0.100415
2.55697
2.78063
2.51615
2.92185
3.3483
0.405076
0.155383
0.290414
0.313359
0.354196
0.333858
0.301079
0.273934
0.282564
0.270997
0.280495
0.260863
0.265867
0.231492
0.233678
0.230644
0.620003
0.997587
1.21269
1.69978
1.71482
1.93498
1.89454
1.91803
1.77457
1.89087
1.64351
1.36286
1.28628
1.21314
1.3019
1.41465
1.2285
1.11412
1.00128
0.911776
0.779925
0.989658
0.751191
0.709953
0.708423
0.739843
0.985048
0.896191
1.03329
0.974897
1.03418
0.639971
0.721389
0.533567
0.445617
0.36924
0.449125
0.605855
0.801775
0.982509
0.742584
0.994463
0.906654
0.880599
0.83958
0.766103
0.727877
0.716162
0.737329
0.749836
0.76485
0.791857
0.81236
0.829711
0.979008
1.04122
1.02992
0.844235
0.756718
0.523916
0.561093
0.595946
0.600179
0.560854
0.541604
0.488496
0.475915
0.430419
0.412404
0.373665
0.355426
0.323493
0.447682
0.767385
0.796933
0.865325
0.919117
0.967288
0.989006
1.0039
0.986244
0.952325
0.885334
0.857504
0.796425
0.901059
1.08338
1.08472
0.998914
0.84824
0.804368
3.72775
4.5299
3.00163
6.45735
9.77305
16.3636
7.54601
2.06915
3.45089
2.37121
2.10592
2.05303
2.16647
3.41285
2.49666
3.27733
2.70706
2.90069
2.23482
2.62692
2.54879
1.96794
1.66574
1.41563
1.33732
1.09059
1.10849
0.900121
0.840813
0.744428
0.602318
0.715604
0.684437
1.55351
2.22169
2.77877
4.36898
4.80476
5.25498
8.31998
6.77446
8.52076
5.08043
5.11581
3.78373
3.56075
3.59921
4.94968
7.04979
4.86308
8.47679
4.73448
15.4273
34.4848
9.20059
18.9668
10.9502
9.91096
9.55941
9.8542
13.9982
9.52574
15.529
12.9586
17.2671
16.6134
18.0283
14.2651
10.5796
11.7013
12.6401
16.2307
11.6753
13.7675
10.5178
10.3083
9.46326
7.75496
6.70239
5.06764
5.86793
6.90574
7.83441
12.3463
15.5494
17.9156
21.6043
16.0132
18.2902
11.0193
12.054
9.32067
8.74032
8.86532
11.6621
20.745
14.7157
26.802
0.49494
0.225563
0.542534
0.229082
0.486837
0.390206
0.40282
0.403803
0.399362
0.460827
0.219843
0.184902
0.177201
0.175061
0.17656
0.100124
0.124279
0.0803355
0.126802
0.228716
0.501315
0.364157
0.140267
0.0825323
0.0545489
0.0429108
0.0634003
0.0611976
0.0978661
0.0992176
0.105502
0.131916
0.227369
0.431736
31.5879
7.09892
1.11714
0.521248
0.280643
0.171577
0.145395
0.164001
0.175982
0.178162
0.166721
0.141027
0.100761
0.0664883
0.0443923
0.0371231
0.0271203
0.0292171
0.0400101
0.0535641
0.0495112
0.0651624
0.0835596
0.106311
0.130513
0.149801
0.164325
0.168329
0.156309
0.122341
0.0805074
0.0443636
0.0265133
0.0228616
0.0209306
0.0194349
0.0167882
0.0145756
0.0131531
0.0112418
0.009911
0.00894317
0.00863269
0.00875688
0.00955944
0.0120927
0.0145542
0.0188459
0.0179674
0.0134535
0.012614
0.00781509
0.00722684
0.00737628
0.00762912
0.00845618
0.0132339
0.0135443
0.0134234
0.0134569
0.0132755
0.0132645
0.013095
0.0129291
0.0127094
0.0122885
0.0119977
0.0114761
0.0111943
0.0105333
0.010561
0.0109467
0.0112543
0.0101878
0.0100855
0.00937524
0.0204069
0.0487404
0.0701151
0.0785987
0.0883971
0.081113
0.0419136
0.0229839
0.00791712
0.00775081
0.00824377
0.00890761
0.00845104
0.00614805
0.0066793
0.00788023
0.0110126
0.0108898
0.0109186
0.0127071
0.0132237
0.0145737
0.0151088
0.0155033
0.015731
0.0156885
0.0158234
0.0155691
0.01567
0.0154898
0.0155833
0.0151935
0.0269881
0.0253986
0.0260793
0.0260947
0.0272335
0.0267301
0.0262388
0.0252687
0.0245375
0.023044
0.0214703
0.0199429
0.0178788
0.0186371
0.0180313
0.0112642
0.0107066
0.00774138
0.00769657
0.00740366
0.0103434
0.00940369
0.0079071
0.00931441
0.00677055
0.00693843
0.00730038
0.0103996
0.0109224
0.0173781
0.0173013
0.0153119
0.0162361
0.0172647
0.018558
0.0196986
0.0210898
0.02211
0.0231875
0.024999
0.0253997
0.0237141
0.0233966
0.0223411
0.0242766
0.0232796
0.0215302
0.0230294
0.024636
0.0270969
0.0267892
0.0247116
0.0234108
0.0219961
0.0197218
0.0171262
0.0157988
0.0148279
0.014883
0.0138967
0.0162862
0.0147853
0.0102017
0.0104146
0.00779199
0.00627817
0.00606795
0.00927203
0.013164
0.0281116
0.017521
0.00932423
0.00994428
0.0159326
0.0327195
0.0188273
0.0303827
0.0140402
0.0137531
0.012685
0.0125629
0.0138505
0.0161214
0.0171279
0.0207276
0.0233613
0.0253262
0.0262138
0.0275437
0.0279245
0.0293212
0.0297537
0.0323548
0.0325991
0.032637
0.0321771
0.0298566
0.0268447
0.0247101
0.0305463
0.0353917
0.0386008
0.0409912
0.0434187
0.0421769
0.0386094
0.0377601
0.0358702
0.0347786
0.0333797
0.0303251
0.0265352
0.0217756
0.0212425
0.0272129
0.0329068
0.049179
0.0529175
0.0526542
0.054968
0.0554456
0.0571665
0.0575824
0.0601969
0.060751
0.0618832
0.0622079
0.0672502
0.0681088
0.0690689
0.0693803
0.0691311
0.0700964
0.0701001
0.0476143
0.0426758
0.0386917
0.0321155
0.0269111
0.0341231
0.0425179
0.0477111
0.0728802
0.0733774
0.0770417
0.0796406
0.0844895
0.088133
0.0929277
0.097373
0.101713
0.105125
0.10717
0.107566
0.108057
0.107221
0.105973
0.114824
0.149207
0.1657
0.196119
0.211127
0.223969
0.22836
0.219446
0.223043
0.214754
0.217212
0.210653
0.20847
0.202908
0.196346
0.192562
0.18601
0.181817
0.209682
0.157776
0.120804
0.0804978
0.0647503
0.0568116
0.0520409
0.0560808
0.0430282
0.0363706
0.055646
0.0506873
0.0399915
0.0262494
0.0188838
0.0323303
0.0477863
0.0645774
0.0817994
0.0975195
0.107775
0.110316
0.109207
0.104487
0.0966682
0.0815304
0.0614116
0.0421987
0.0347719
0.0320707
0.0281093
0.0221699
0.0178203
0.0157054
0.0141214
0.0123581
0.0111117
0.0105589
0.0107183
0.0110291
0.0132271
0.01731
0.0173014
0.0115994
0.0111487
0.00767095
0.00775993
0.00801888
0.013336
0.0134844
0.0209111
0.0233632
0.0220061
0.0227009
0.0224377
0.0227382
0.022387
0.0212011
0.0203677
0.0194004
0.0185604
0.0178183
0.0169965
0.0161951
0.0175227
0.0164752
0.013879
0.013993
0.0146041
0.015249
0.0161325
0.0173933
0.0184666
0.0211579
0.021321
0.0208168
0.0209076
0.0194334
0.0187137
0.019966
0.0194867
0.0132758
0.0130967
0.0191194
0.0187681
0.0186619
0.022483
0.0209076
0.0214304
0.0225665
0.0224699
0.0195368
0.0181806
0.0166265
0.0154487
0.0140729
0.0125622
0.0121892
0.0149535
0.0131781
0.0108091
0.0119978
0.0144084
0.0170221
0.0184834
0.0204698
0.023187
0.024154
0.026399
0.0278215
0.0299165
0.0307518
0.0355559
0.0362075
0.0340405
0.0321941
0.0311927
0.0274166
0.0234989
0.0259155
0.026791
0.0271684
0.0272939
0.0271749
0.0236004
0.0231698
0.0216552
0.0211378
0.0195612
0.0190033
0.0178428
0.0170828
0.0160616
0.0142322
0.013487
0.0126731
0.0123203
0.0173747
0.0108722
0.0106235
0.0160314
0.00988774
0.0116333
0.0113713
0.0118869
0.0125395
0.0103812
0.0151799
0.0103704
0.0112551
0.0114689
0.0143676
0.00994445
0.020302
0.0633764
0.0926138
0.11149
0.202564
0.242855
0.263211
0.283936
0.298185
0.314174
0.331721
0.349377
0.362376
0.363786
0.33808
0.319546
0.254605
0.227937
0.251664
0.281743
0.194242
0.166648
0.168904
0.16971
0.172262
0.173485
0.177089
0.175039
0.180059
0.175714
0.182938
0.176925
0.183332
0.175997
0.160741
0.144189
0.111816
0.10113
0.0652327
0.0505277
0.0395311
0.0287124
0.0209327
0.0187897
0.0177869
0.0164419
0.0165255
0.0126621
0.0130981
0.00839454
0.00617003
0.00985831
0.00969506
0.00722252
0.00982458
0.0112223
0.0117337
0.0122693
0.0125626
0.0192102
0.0192414
0.0246393
0.024557
0.0291323
0.0347464
0.0359961
0.0396445
0.0570368
0.0575623
0.0573057
0.0571421
0.0567225
0.0495032
0.049222
0.0481191
0.0475352
0.044591
0.0440375
0.0419537
0.0408158
0.0378606
0.037037
0.0359064
0.036347
0.0404216
0.0553566
0.0979387
0.029344
0.0278958
0.0205109
0.0145449
0.0213497
0.0159324
0.0154488
0.0136279
0.0187269
0.0134712
0.0137264
0.0165425
0.0170583
0.0164434
0.0214034
0.0267067
0.0234483
0.025875
0.116122
0.0740777
0.0241533
0.0478243
0.071612
0.157549
0.203738
0.139476
0.159314
0.183469
0.166562
0.139843
0.109102
0.081378
0.0575674
0.0442201
0.0114156
0.0133835
0.0185239
0.040599
0.0603458
0.101409
0.0832934
0.108893
0.148809
0.173239
0.209205
0.200677
0.172607
0.148571
0.145397
0.160717
0.162517
0.104948
0.101944
0.0776833
0.174003
0.219183
0.184418
0.231425
0.243907
0.142968
0.0317839
0.0184093
0.0151496
0.0139441
0.0124647
0.0194022
0.01149
0.0116731
0.0123896
0.0133001
0.0169859
0.0293596
0.0134773
0.014949
0.0183598
0.0158995
0.0149063
0.0146576
0.0145622
0.0151755
0.0165305
0.0215684
0.0216734
0.0213433
0.0160107
0.0173064
0.0157213
0.0200374
0.0212455
0.0333619
0.0152825
0.0162275
0.0215365
0.479176
0.0246768
0.0178499
0.0232488
0.0219192
0.0301712
0.0438036
0.4581
0.0441384
0.0351382
0.0586518
0.0609344
0.065618
0.0692955
0.0728225
0.0753391
0.0792981
0.0819362
0.0831822
0.0844425
0.100083
0.100029
0.0989516
0.103552
0.0976428
0.0576837
0.0578863
0.0974203
0.105138
0.0594271
0.0410195
0.0385008
0.031192
0.0323108
0.0418502
0.0439352
0.0616486
0.0614732
0.102509
0.0934861
0.0948832
0.0966537
0.0916699
0.092159
0.0942088
0.0942723
0.0755285
0.0731888
0.0714168
0.0683825
0.0648325
0.0619275
0.0590017
0.0559071
0.053269
0.0533534
0.0580968
0.0584102
0.0661106
0.0730437
0.221314
0.150228
0.107304
0.0796539
0.0649308
0.0588842
0.0585168
0.0617313
0.0649825
0.0666231
0.0674308
0.070826
0.0925665
0.0948522
0.0977026
0.0951593
0.0989582
0.096991
0.0945322
0.104429
0.112238
0.0656131
0.0676891
0.047756
0.0445337
0.0324901
0.0330422
0.0235883
0.019565
0.0195544
0.0195331
0.0197549
0.022631
0.0316135
0.0317212
0.046332
0.0462532
0.051701
0.0753134
0.0723797
0.129055
0.1183
0.108625
0.101323
0.101692
0.103836
0.106439
0.101445
0.0978863
0.0923556
0.0725579
0.0685212
0.0663853
0.0651356
0.0638121
0.0671851
0.0903757
0.14628
0.224011
0.329398
0.430172
0.441074
0.399519
0.249286
0.28939
0.143892
0.16443
0.186323
0.162018
0.170644
0.319303
0.265428
0.375684
0.48094
0.534727
0.601036
0.637896
0.626106
0.496882
0.322603
0.329833
0.439473
0.76758
0.861047
0.743262
0.761057
0.65774
0.539887
0.521461
0.496801
0.560525
0.611307
0.576911
0.59374
0.538021
0.513923
0.444066
0.495407
0.361933
0.326002
0.306451
0.297626
0.356629
0.288615
0.3251
0.267242
0.273544
0.222349
0.227879
0.190244
0.14566
0.138111
0.128052
0.143386
0.162594
0.148987
0.153555
0.134099
0.11471
0.0913298
0.0985482
0.0736236
0.0696087
0.070602
0.0803068
0.125737
0.368703
0.173339
0.163688
0.167916
0.178029
0.319784
0.282997
0.723202
0.50686
0.708342
0.473759
0.562091
0.470313
0.362832
0.378394
0.418162
0.598409
0.821499
6.65053
0.284664
4.26201
3.16421
3.32315
3.4691
4.44653
7.80504
7.11014
9.38624
6.80457
9.0804
4.9773
4.97572
4.32608
4.47144
4.43893
4.26168
5.19457
6.63114
0.238508
0.0909649
0.0854236
0.0856096
0.0873866
0.197774
0.0525644
0.201967
0.0539522
0.21339
0.0495039
0.24656
0.196829
0.0382324
0.0192578
0.0200898
0.0168072
0.0203754
0.016923
0.0250478
0.0235423
0.0236989
0.0265842
0.0762286
0.291893
13.7902
1.65493
0.689447
0.789637
1.18292
0.803768
1.20348
1.67206
1.12414
0.560438
0.367199
0.433299
0.52398
0.500245
0.638471
0.919488
0.899558
0.707055
0.711096
0.626776
0.885163
0.893819
1.06003
1.23851
1.1338
0.887614
0.699007
0.591142
1.01974
1.02556
0.958724
0.405619
0.114202
0.0468302
0.0490156
0.0357581
0.0376778
0.0348353
0.0548428
0.160131
0.220915
0.132671
0.429371
0.414373
0.564457
0.402866
0.412884
0.325756
0.350001
0.53364
0.582933
0.642455
0.673832
0.72434
0.668397
1.28443
2.19909
2.48688
12.836
17.4087
3.19616
3.09264
13.9418
0.314867
0.0838646
0.0233132
0.0174303
0.0162168
0.0161299
0.0150008
0.0155382
0.0159995
0.0169634
0.0188281
0.0231939
0.0458258
0.201417
0.203379
0.0643278
0.032423
0.0229682
0.0196154
0.0170461
0.0163868
0.0155315
0.0154591
0.015008
0.0156576
0.0174637
0.023779
0.0774165
0.270988
11.3261
2.43467
2.2534
8.37977
5.79221
0.206695
0.0437866
0.0200933
0.0169264
0.0158837
0.0167536
0.0162655
0.0182108
0.0184018
0.0230151
0.0250197
0.0317608
0.0570607
0.11015
0.315377
9.57529
8.64709
8.36889
7.80762
0.310014
0.115157
0.054381
0.0382269
0.0346217
0.0338164
0.0226483
0.0236725
0.0189818
0.0216398
0.0182948
0.0226813
0.0483009
0.211851
5.34969
1.56911
1.69998
1.20884
0.612099
0.654689
0.668551
0.68815
1.7731
4.05525
4.98788
3.426
3.36017
4.70612
3.16949
2.48085
1.82842
1.74697
2.54524
1.96274
1.82474
1.35583
1.46573
1.06723
1.46668
0.81081
0.976409
1.07224
1.5305
1.39695
1.40987
0.908036
1.04978
1.47446
1.72427
1.6488
0.84354
1.22652
1.01324
0.654459
0.606363
0.632803
0.602817
0.577654
0.574623
0.578838
0.557809
0.574925
0.555163
0.587103
0.546748
0.532013
0.506524
0.526193
0.543823
0.576369
0.359666
0.422166
0.426456
0.44085
0.45345
0.374375
0.450472
0.441281
0.658388
0.994208
0.833342
1.15078
0.678574
1.00272
2.00687
5.20712
2.3436
0.819122
1.3467
1.58244
1.13847
0.627734
2.55204
3.55888
1.22983
1.7837
10.3806
8.42941
16.516
10.9658
18.623
6.03086
4.63271
17.804
6.67056
6.9042
4.51057
4.51832
2.9572
1.5837
1.62704
1.73902
1.22541
1.29853
1.20884
1.13304
1.47319
1.43779
1.88344
2.03291
2.57491
1.81039
1.77345
2.59463
1.06219
1.39867
1.83576
1.82709
1.35841
2.33886
3.15405
2.96435
2.13619
2.33426
3.50169
4.81464
4.57215
3.16505
3.96296
10.1269
13.5149
13.685
4.22135
19.3209
18.2984
2.0755
0.565507
0.323083
0.0891847
0.0445137
0.0367151
0.0387838
0.143938
0.0458701
0.0571128
0.0455786
0.0729264
0.06982
0.0872281
0.217798
0.126454
0.215667
0.155195
0.189258
0.120764
0.193196
0.226533
0.236376
0.188019
0.115405
0.212709
0.306502
0.10571
0.354107
0.389457
0.259591
0.331935
0.395649
0.195921
0.99451
0.185396
0.127091
0.146584
0.392987
1.25804
0.218305
0.461164
4.47328
14.7104
3.6762
0.936786
0.679944
0.0556236
0.0301968
0.0318157
0.0279496
0.0194641
0.0839918
0.0987567
0.405134
0.208421
0.277912
0.661517
2.92899
2.39914
1.1271
5.48733
10.2729