/*--------------------------------*- C++ -*----------------------------------*\
| =========                 |                                                 |
| \\      /  F ield         | OpenFOAM: The Open Source CFD Toolbox           |
|  \\    /   O peration     | Version:  v2012                                 |
|   \\  /    A nd           | Website:  www.openfoam.com                      |
|    \\/     M anipulation  |                                                 |
\*---------------------------------------------------------------------------*/
FoamFile
{
    version     2.0;
    format      ascii;
    class       surfaceScalarField;
    location    "605";
    object      phi;
}
// * * * * * * * * * * * * * * * * * * * * * * * * * * * * * * * * * * * * * //

dimensions      [1 0 -1 0 0 0 0];
oriented        oriented;


internalField   nonuniform List<scalar> 
50655
(
0.00256978
-0.00359779
-0.00140562
-0.00511599
0.00136391
0.00359612
-0.00339597
0.00391147
0.00446259
-0.00249476
-0.00282455
0.00303642
-0.00368667
-0.00378191
0.00266759
-0.00177303
-0.00484097
0.000814625
0.000197345
-0.00470584
0.00159631
-0.00180202
-0.00717872
0.00238535
-0.010461
0.00281905
0.000364431
-0.0112837
-0.00344516
0.00415787
-0.0120391
-0.00483126
0.00548425
-0.0129011
-0.00562697
0.00638484
-0.0261723
-0.00930643
0.0223837
-0.048697
-0.0282359
0.0502004
-0.0483076
-0.0526924
0.0516059
-0.0311318
-0.0711085
0.0531548
-0.00461753
-0.0780644
0.0507671
0.00776257
-0.0547976
0.0416061
-0.00190923
-0.0314146
0.0403135
-0.0213745
-0.0217144
0.0404129
-0.0174457
-0.0513275
0.0466763
-0.00748548
-0.0556599
0.0451421
-0.03923
0.0314154
-0.0420752
0.0187826
-0.0162385
-0.0167493
-0.0757058
0.0498852
0.0197972
-0.0798505
0.0428075
0.0305317
-0.0295912
0.0185496
0.0342889
-0.00409455
0.036746
0.0177071
-0.0204867
0.0257062
-0.0179879
0.0287518
0.0168184
-0.00948965
0.0182083
0.00399728
-0.00140902
0.0141032
-0.00623966
0.00702325
0.00311841
-0.00536944
0.000463626
-0.00137454
-0.00535628
-0.00108888
0.00105733
-0.00628038
0.000109914
0.000796902
-0.00753901
9.87828e-05
0.00114324
-0.00864638
-1.30866e-05
0.00110333
-0.00902854
-0.00034207
0.000707865
-0.00928502
-0.000763608
0.0010035
-0.00885277
-0.00119334
0.000744804
-0.00822281
-0.0016707
0.00102406
-0.00700101
-0.0021251
0.000886876
-0.00556589
-0.00259561
0.00114361
-0.00370588
-0.00289077
0.0010146
-0.00189851
-0.00307248
0.00124815
0.00111654
-0.00303264
0.000857983
-0.00232162
0.00255454
-0.00605481
0.00488439
0.00198663
-0.0116873
0.00459982
0.000976146
-0.0135758
0.00503526
-0.00321369
-0.0132707
0.00530293
-0.00567501
-0.00559166
0.00460979
-0.0123453
0.000459907
0.00557678
-0.0116701
0.000589829
0.00356485
-0.00372041
-0.00151131
0.00208355
-0.00296714
0.00214041
-0.000701713
-0.00453123
0.00218806
-0.000640127
-0.00584528
0.00234703
-0.00104936
-0.00711142
0.00230436
-0.00105317
-0.00861283
0.00249704
-0.00100965
-0.0101789
0.00258315
-0.00103046
-0.0114739
0.00237471
-0.00109285
-0.0123751
0.00201189
-0.00112369
-0.0128402
0.00159708
-0.00114505
-0.0131549
0.00143003
-0.00112858
-0.0137549
0.00155642
-0.000970651
-0.0139592
0.00111326
-0.000924052
-0.0136632
0.000888896
-0.00120029
-0.0136522
0.000776014
-0.000802728
-0.0133776
0.000821345
-0.001112
-0.0131305
0.000896735
-0.00115976
-0.0129862
0.000840297
-0.00100034
-0.0127108
0.000570745
-0.000861746
-0.012172
0.000121965
-0.000676293
-0.0112709
-0.00045389
-0.000462383
-0.0101502
-0.000913976
-0.000222143
-0.00883266
-0.00100989
-0.000322368
-0.00738439
-0.000760427
-0.000701697
-0.00758136
-0.000692492
0.000877457
-0.016385
0.000819253
0.00795786
-0.0211581
0.000388142
0.00432433
-0.0226054
0.00113806
0.000244043
-0.0425973
0.0163326
0.00354182
-0.0545865
0.00554385
0.00614704
-0.0294675
-0.0163731
-0.00905343
-0.0131182
-0.0149821
-0.00149937
-0.0112635
-0.00400419
0.00207147
-0.0100134
-0.00309864
0.00175846
-0.00809666
-0.00345032
0.0014321
-0.00472932
-0.00331068
-0.000151931
-0.00319187
-0.00162275
-0.00446376
0.00460319
-0.00342619
-0.00269107
0.00673669
-0.008623
0.000891082
0.00621532
-0.00992966
0.00618307
0.00590455
-0.0113414
0.0149462
0.00880783
-0.0177521
0.0285078
0.013793
-0.0276371
0.0249172
0.0196727
-0.0163635
0.0165637
0.00639404
0.00177478
0.00789915
6.87388e-05
0.00844843
-0.00104474
-0.0039382
0.0127472
-0.00443448
-0.00677809
0.0100515
-0.0075632
0.00541662
0.00436876
0.000995042
-0.0102054
0.00205359
-0.00819107
0.00361448
-0.00514342
-0.00424879
0.00738182
-0.0125225
0.00200976
0.00530517
-0.014356
0.00570119
0.00238956
-0.0384647
0.0270044
0.0232822
-0.00708654
-0.013296
0.0371498
-0.00972991
-0.039373
-0.00479585
0.00929726
-0.00912414
-0.000532831
0.00897256
-0.0074611
0.00267855
0.00959591
-0.0067144
0.0045953
0.00961527
-0.00490526
0.00713727
-0.00134328
0.0112823
-0.00500263
-0.00270989
0.01246
-0.00193249
-0.00244632
0.00881809
-0.000392897
-0.00419051
-0.00202389
-0.0210934
-0.00217641
0.0295639
-0.0106591
-0.0143356
-0.00171955
-0.00711653
-0.00254154
-0.00732802
0.01589
0.00126935
-0.010269
0.021941
0.00107619
-0.00900298
0.0325076
0.000282378
-0.0132022
0.0832531
-0.00224165
-0.0359887
0.0468207
-0.00193188
0.0455301
-0.00229135
0.00748701
-0.00315647
0.0384557
0.00386424
0.0218074
0.00196555
0.0232332
-0.000314849
0.0113199
0.0139348
0.00624296
-0.00797523
9.66736e-05
0.00681034
0.00521712
-0.00149413
0.00732086
0.00818756
-0.00153517
0.00712222
-0.0150792
0.00797994
-0.00211345
0.00736953
-0.0153153
0.00850423
-0.00127538
0.00743591
-0.0167101
0.00841564
-0.00131721
0.00741958
-0.0160134
0.00861484
-0.000639337
0.00728449
-0.0165926
0.00860964
-0.000266933
0.00703317
-0.0159885
0.0085629
0.000701351
0.0062355
-0.0154525
0.00823016
0.00575911
0.00442128
-0.0169454
0.00745183
0.00149435
-0.00416327
0.00567736
0.00273634
0.00081005
0.00538033
-0.00028174
0.00063166
0.0071393
-0.000736172
0.00078623
0.00801711
-0.00115081
0.00094246
0.00831978
-0.00120449
0.00127936
0.00838649
-0.00131706
0.00150301
0.00856104
-0.00136207
0.00150463
0.00870686
-0.00135192
0.00126701
0.00871817
-0.00137065
0.000938238
0.0088335
-0.00119576
0.00730868
-0.00026299
0.00935618
-0.0020054
-0.000816504
0.0110341
-0.00185073
-0.000852456
0.0123176
-0.00154754
-0.000665875
0.0131029
-0.000311631
-0.00094322
0.0135328
0.000852627
-0.00117632
0.0137097
0.00170937
-0.00133137
0.0137079
0.00223712
-0.00141126
0.0137666
0.00224867
-0.00142716
0.0137219
0.00182292
-0.000973432
0.0137303
0.00134349
-0.000591838
0.0139141
0.00122065
-0.000531228
0.0133053
0.00113521
0.000571676
0.0124579
0.0024303
0.000224933
-0.000265615
0.0127022
-0.000410789
0.00243663
-0.000853393
0.0123665
-0.000235691
0.00280102
-0.000645814
0.0114941
-7.27397e-05
0.00311541
-0.000171552
0.0102313
5.03136e-05
0.000293409
0.00328055
0.00863178
0.000719767
0.0033188
0.000130601
0.0068852
0.00103877
0.00305256
0.000138487
0.00588058
0.000961598
0.00224304
8.93782e-05
0.00443663
0.0046237
-0.000849105
0.00287981
0.0042792
-0.000550532
0.00142765
-0.000499036
0.00407519
0.00389493
-0.000400649
0.00560524
-0.000507973
-0.00121848
0.00683083
-0.000404086
-0.000838351
0.00780232
-0.000601173
-0.000386805
0.00816589
-0.000467611
8.73243e-05
0.00821846
-0.000599118
0.000530081
0.00752393
-0.000251605
0.000929539
0.00653702
-0.000282891
0.00125323
0.00470073
0.000312746
0.00150647
0.0019584
0.00119703
0.00152818
-0.0018317
0.00206947
0.00170269
-0.00454837
0.000500035
0.00219864
-0.00606458
-0.000908571
0.00240551
-0.007348
0.000608332
0.00065315
-0.0138464
0.000482129
0.00597143
-0.0250098
-0.00658541
0.0176329
-0.0311686
-0.0162388
0.0222323
-0.0392133
-0.0263049
0.0340831
-0.0319033
0.0237951
0.0162209
-0.038632
0.00905448
0.0260477
-0.0166926
0.00679728
-0.00458314
0.00427193
-0.0323438
0.0262978
0.00141399
-0.0147869
-0.0232443
0.00565215
-0.0374491
0.00592334
0.0412618
-0.057507
-0.000689226
0.029114
-0.0500836
0.0152242
0.0126203
-0.00991456
0.0169662
-0.0102114
0.0109854
-0.00257359
0.0190829
0.00782727
0.0114724
-0.012558
0.0134673
0.00542525
-0.00627011
0.00139271
0.0112819
0.0049908
0.00103134
0.00277207
0.00129993
-0.000985427
0.00146249
0.00277347
-0.00485459
0.00387193
0.00204516
-0.00542313
-0.000407754
0.00215236
-0.00956562
0.00202002
0.00241473
-0.00822079
-0.00366807
0.00202026
-0.0118751
0.001967
0.00141584
-0.00891659
-0.00416642
0.00058898
-0.0112532
0.00216522
-0.000315952
-0.00732974
-0.00318807
-0.00135625
-0.0081636
0.00230424
-0.00189462
-0.00440973
-0.0016948
-0.00258628
0.00131249
-0.00257709
0.00407886
0.0117406
-0.0106843
0.0116679
0.00647296
-0.00950475
0.0133037
0.00876808
-0.00517065
0.010483
0.010357
-0.00257073
0.00437558
0.00936498
0.00128973
0.0125236
-0.00171284
-0.00225349
0.000643346
0.0146947
-0.00615629
0.00535321
-0.00336532
0.00192191
0.0145877
-0.00766081
-0.00316409
0.00305636
0.00780224
0.0100045
-0.00795778
-0.00276293
0.00312066
0.0121091
0.00171718
-0.00674201
-0.00206482
0.000960593
0.0160485
-0.000520171
-0.00468883
0.00742389
-0.000146001
-0.00525631
0.0114325
0.000218753
-0.010384
0.0125932
-0.00898601
-0.0142383
-0.0141675
0.00842213
0.0057233
-0.0241316
0.00412152
-0.018568
0.00624874
-0.0165868
-0.0113424
0.00929204
0.00789047
0.00963126
-0.0341551
-0.0238445
0.00756806
0.0111642
0.00743514
-0.010077
-0.0324554
-0.00921524
0.0078328
-0.0016785
-5.03442e-05
0.00786733
-0.00663761
-0.0104578
0.0115981
-0.00768722
-0.0142359
0.0104435
0.0106385
-0.000682124
-0.00888718
0.0103879
-0.00158627
0.00803387
-0.00761042
0.00362299
0.00104591
0.00486686
-0.00348023
0.00552996
-0.00630751
0.0139939
-0.0121427
-0.00344793
0.0108179
-0.0170432
-0.00259948
0.00572554
-0.0169822
-0.000946047
-0.0011896
0.00210643
-0.0083073
0.00856674
0.00958325
-0.00963946
0.0111069
0.0111616
-0.00501394
0.0118597
0.0117548
-0.00223082
0.0105223
0.00447716
-0.0111681
0.0108541
0.00310502
-0.00931192
0.0119847
-0.00216951
-0.00506727
0.0116052
-0.00477182
0.00965081
-0.00615169
0.0022886
0.00354949
0.00114055
0.0081408
0.00715119
-0.00148547
0.0111347
0.0084577
0.000446055
0.00726838
0.00669107
-0.00917112
0.0101806
-0.000554651
-0.00697805
0.00402671
0.00214948
0.000227941
0.00175483
-0.00189912
0.00512137
-0.00630551
-0.00142028
-0.00225584
0.0187416
-0.00380446
-0.0191871
0.0170108
-0.00144954
-0.00169908
-0.0160929
-0.0118555
-0.000984527
0.0034376
-0.00857115
-0.0107036
-0.013306
0.00671914
-0.0059765
-0.00494915
0.000933409
0.0014077
0.000391692
-0.00208975
-0.00428089
-0.000991488
0.00399848
-0.00261688
-0.000425183
0.00182721
-0.0023949
0.00131755
-0.00383467
0.00682265
0.000714539
-0.0111808
0.000642654
-0.00349158
0.0105904
-0.00346675
-0.00442523
-0.0190828
0.0141193
-0.0118958
-0.0195065
-0.0117855
0.00782978
0.00428724
-0.0266609
-0.015383
0.00257367
0.00932984
0.0105227
-0.0356213
-0.0164582
0.0130644
0.00182956
0.0104224
-0.0423181
-0.0146112
0.00983266
7.87782e-05
0.0112933
-0.043676
-0.0107648
0.00323363
-0.00153865
0.0103232
-0.0431532
-0.00614563
-0.00150992
-0.00184807
0.00887095
-0.0394757
-0.00332973
-0.00449511
0.00405327
-0.0347286
-0.00117362
-0.00710759
0.0064769
-0.00305086
-0.0321679
0.00134734
-0.00611142
0.00560699
-0.00350551
-0.0291232
0.00265727
0.00448132
-0.00398863
-0.00629747
-0.0289275
0.00205621
0.00397079
-0.00355844
-0.00277638
-0.0298344
0.000189995
0.00182917
-0.00121937
-0.0277789
-0.0016115
0.00138069
-0.0019383
-0.0229792
-0.00265016
0.00154873
-0.00379457
-0.0301643
0.00170967
0.0226387
-0.0172388
-0.059295
0.0293247
-0.01293
0.0123633
0.00602293
-0.0199115
-0.00134613
-0.0132123
-0.0251953
-0.00919015
-0.0122542
-0.000482999
-0.0087555
-0.0111571
0.000617797
0.000287484
-0.0094297
-0.000584647
0.0005191
-0.00580483
-0.0037634
0.00146035
-0.00310423
-0.00399721
0.00104628
-0.0045364
-0.000260246
-0.00445776
0.000803462
-0.00092935
-0.00684412
0.00204919
0.000273985
-0.0107849
0.00220555
0.00165564
-0.0130972
0.000815553
0.00141812
-0.013365
-0.000354337
0.000552367
-0.0130751
-0.00175033
0.00140638
-0.0236469
0.00142209
0.00907501
-0.0568488
0.017504
0.0154912
-0.101286
0.0088318
0.0350323
-0.117941
-0.00589986
0.0218612
-0.127292
-0.0116217
0.0201983
-0.133718
-0.0165201
0.0221112
-0.137371
-0.0222124
0.0249807
-0.138698
-0.0272833
0.0276999
-0.138621
-0.030771
0.0297697
-0.13781
-0.0329262
0.0311901
-0.136355
-0.0341738
0.0318024
-0.134212
-0.0348181
0.0317739
-0.130378
-0.0353225
0.0306163
-0.122413
0.0278311
-0.0366293
-0.103273
0.0207994
-0.0406989
-0.053458
0.00331496
-0.0537487
-0.0226153
-0.00122947
-0.0298321
-0.0123822
-0.00428537
-0.0060251
-0.0121042
0.00199011
-0.00232318
-0.0112044
0.00432911
-0.00529968
-0.00876855
0.00384364
-0.00635991
-0.00425309
0.00401033
-0.00861015
-0.00478913
0.00347652
-0.00301171
-0.00805738
-6.16255e-05
0.00327906
-0.00781924
0.00235797
-0.00266728
-0.0089334
0.00102635
-0.0138049
0.00698259
-0.00220963
-0.0166395
0.00714931
-0.00442467
-0.0189172
0.0076459
-0.00547081
-0.0237754
0.00700471
-0.00225124
-0.0533271
0.018738
0.0106172
-0.0979596
-0.00807234
0.0521312
-0.110962
-0.0316663
0.043948
-0.112425
-0.0418192
0.0424721
-0.107724
-0.0476629
0.0421388
-0.0989226
-0.0521316
0.0424737
-0.0862021
-0.0543484
0.0408033
-0.0691897
-0.0558467
0.0380145
-0.0493976
-0.056818
0.0362599
-0.0236915
-0.0481279
0.0217851
-0.0376756
0.0135454
-0.0535139
0.0231433
-0.00777215
-0.0592872
0.0253265
-0.020056
-0.0593282
0.0266449
-0.0271301
-0.050291
0.0264261
-0.0359895
-0.0402048
0.0243532
-0.0349422
-0.0230353
0.0165477
-0.0341843
0.00941888
-0.0328929
0.0272637
0.0380678
-0.0565493
0.051035
0.0494581
-0.0739953
0.0749162
0.049558
-0.0742589
0.0950972
0.0497841
-0.0707895
0.110836
0.046993
-0.0635888
0.119047
0.0396828
-0.0487153
0.117
0.0329225
-0.0316859
0.101291
0.0300541
-0.0150657
0.054518
0.0398541
0.00634545
0.0254787
0.0250478
0.00379506
0.021368
0.00417822
-0.000172209
0.0194546
0.000588997
0.00122187
0.015875
0.000297288
0.00317238
0.00913478
-0.000250195
0.00689185
-0.000926461
0.00997347
-0.000971973
-0.00971334
0.00966311
0.000716836
-0.0131067
0.0113089
0.0025601
-0.0142371
0.0122707
0.00406596
-0.0135696
0.0119282
0.00431342
-0.0191677
0.0187424
0.00783693
-0.0286407
0.0248321
0.0038205
0.0236295
-0.0198967
-0.000195976
0.0169048
-0.0130675
-0.000390922
0.00844073
-0.00838144
-0.000550255
0.0077496
-0.00771347
-0.00109166
0.00737613
-0.00694371
0.00631834
-0.00647943
0.00343634
0.00546048
-0.000283057
0.00321225
0.00619706
0.00133111
0.003307
0.0059214
0.00165572
0.00397242
0.00478896
0.00290812
0.0103307
0.0116115
-0.00117062
0.0194169
-0.00901201
-0.000119639
0.0090997
-0.00421116
0.0144876
-0.023062
-0.0114255
0.0435174
-0.0155437
-0.00576125
-0.00183552
-0.000982878
0.00358333
0.00487242
-0.00945436
0.00605664
-0.00260369
0.00361815
-0.00178759
-0.00826928
0.000433308
-0.00918269
-0.010263
-0.0126565
0.0184437
-0.00483243
-0.0307546
0.00323262
0.00366606
0.00405833
-0.0175674
-0.0497009
0.0058766
0.0101463
0.000841964
-0.0581866
-0.0156768
0.02622
-0.00422731
-0.0204088
0.0061728
-0.00324917
-0.0202929
0.00561271
-0.00226871
-0.0206511
0.00530895
-0.000896923
-0.019031
0.00444003
-0.0149905
0.00403326
-0.0211309
0.00226449
0.00404842
-0.0219477
-0.00134764
0.00263929
-0.0178943
8.68689e-05
0.00543438
0.00165433
-0.0466045
0.0354583
0.00830327
0.00806106
-0.115111
0.0350547
0.0514957
0.0209194
-0.125215
0.0472976
-0.00799446
-0.126073
0.0547625
-0.0218493
-0.118258
0.0645106
-0.0335189
-0.103332
0.0731551
-0.0419698
-0.0842188
0.0768818
-0.0470789
-0.0615964
0.074656
-0.0485596
-0.0366879
0.074303
-0.0505674
0.0503972
-0.0330371
0.058844
0.04581
-0.0305111
0.0684363
0.0517046
-0.0354958
0.0687415
0.0528556
-0.0271409
0.0633408
0.0505875
-0.0204679
0.043897
-0.00610826
-0.088192
0.0718614
0.00259561
-0.0979821
0.0754948
-0.0160259
-0.099489
0.0799543
-0.0265341
-0.0881691
0.0791923
-0.03975
0.0719167
-0.0408813
0.0879952
0.0945284
-0.0368418
0.0976187
0.10171
-0.0330704
0.0944828
0.101118
-0.0189568
0.0819162
0.0960519
-0.00888139
0.0903364
0.00675522
-0.081258
0.103442
0.0129361
-0.0944635
0.110543
-0.0022067
-0.0983526
0.116038
-0.0119927
-0.0904552
0.116942
-0.0240909
0.111505
-0.0314709
0.0869872
0.124348
-0.0276117
0.0946538
0.128368
-0.0200691
0.0912414
0.126495
-0.00802115
0.0783238
0.120383
0.00214075
0.112126
0.0166261
-0.0724483
0.116703
0.0193319
-0.0843817
0.12548
0.00589939
-0.0867108
0.132083
-0.00423814
-0.0787895
0.134498
-0.0150309
0.131442
-0.0223095
0.0681891
0.132118
-0.0150398
0.0760856
0.134851
-0.00922579
0.0750019
0.131245
0.000944744
0.06407
0.124824
0.0106517
0.115512
0.0225744
-0.0525761
0.105791
0.0297765
-0.0646103
0.116372
0.0195423
-0.0641626
0.119969
0.00986459
-0.0562216
0.1254
0.000546537
0.126294
-0.00404214
0.0351476
0.0191909
0.061391
0.0446798
0.0514331
0.0947623
0.0134768
0.0547444
0.0925192
0.0232636
0.0357313
0.0483112
0.0452438
0.0408914
0.0445227
0.0365304
0.0515051
-0.0122967
0.0268511
0.0153832
0.0143688
-0.0187268
0.027673
0.0150859
-0.0152872
0.0311495
0.0135188
-0.0135327
0.0290679
0.0142124
-0.0399676
0.0275546
0.0407861
-0.000790821
0.0248865
-0.0283997
-0.0082715
0.0385225
0.00581026
-0.0370522
-0.00679442
0.0299766
0.00548923
-0.0371194
-0.00458623
0.029093
-0.0365684
0.00509725
0.0258849
0.00347769
0.00380801
0.00515634
0.00492064
0.00715852
0.00680605
0.00761907
0.009053
0.00893045
0.00839863
-0.00414884
-0.0199597
0.0156945
0.00266773
-0.000610542
0.00059172
0.00625137
0.00290112
0.000298208
-0.000535639
0.000355102
0.00409253
-0.00155138
-0.00244021
-0.0013242
0.00411533
-0.00165561
-0.000490031
0.00117677
0.0106036
0.0120939
0.0316335
-0.0532437
0.00539575
0.0178017
-0.0042453
-0.00730113
0.0568717
0.0012424
-0.0150794
0.00284422
0.003528
-0.00655543
0.00505207
0.0039855
-0.00620807
-0.0222185
0.00970712
0.0175231
-0.00940465
-0.0125388
-0.000318653
0.0179455
-0.00257185
0.0239389
-0.00790537
0.0462993
-0.0127229
0.0215647
0.0766633
-0.0247369
-0.032724
0.00457664
0.00707441
0.0297891
0.00210796
-0.0175662
0.00802569
0.0136725
-0.00405471
-0.0106614
0.00846088
0.0149769
-0.00405063
-0.011468
0.00756556
0.0144543
-0.00237161
-0.0112938
0.00612671
0.0128085
-0.0104446
-0.00102374
0.00367376
0.0105448
-0.00880775
0.000628558
0.00874332
-0.00791347
0.00276348
0.00844716
-0.00315564
0.00338109
0.00804555
-0.00280225
0.00314879
0.0152086
-0.00809527
0.000854986
0.0393138
-0.0159739
-0.00835016
0.0728996
-0.0389346
0.00473026
0.0829835
-0.0276575
0.0168141
0.0845388
-0.0235124
0.0211232
0.0819717
-0.0202583
0.0219529
0.0767707
-0.0158394
0.0201375
0.0698082
-0.0087517
0.0147959
0.0604329
0.0016738
0.00677345
0.0419452
0.0174733
8.65563e-05
0.0146659
0.0414016
-0.0150403
-0.00543158
0.0552376
-0.0360425
-0.00178715
0.0502984
-0.0548147
0.0121994
0.039269
-0.0540886
0.0154541
0.0263265
-0.0303395
0.00958749
0.0287576
-0.0235084
0.00212643
0.0112781
-0.00403535
0.000412585
0.0038153
-0.00217843
-0.000413886
0.00177434
-0.00100245
-0.00209369
0.0032585
-0.00164822
0.00314385
-0.0022789
0.00321981
0.00521954
-0.00146911
0.000196399
0.00660333
-0.000396844
0.00212782
-0.000178644
0.00651986
-0.000605398
0.0017071
0.00594216
-0.00379478
0.00255261
0.00560599
0.00619323
0.00101477
0.0116851
0.0170281
-0.0108317
0.0155022
-0.0105687
0.0235497
0.0241251
-0.0301475
0.043392
0.0145368
-0.0445385
0.0505501
0.0132042
-0.0628795
0.0462929
0.0263334
-0.0787481
0.0293259
0.0269791
-0.0897335
0.00759945
0.0198868
-0.0952427
-0.00865143
0.0148614
-0.0986568
-0.0208861
0.0145823
-0.100859
-0.0294458
0.014855
-0.101055
-0.0351934
0.0141937
-0.0976814
-0.0395469
0.0117395
-0.0888053
-0.0439441
0.00650218
-0.0319478
-0.0406368
-0.0447765
-0.0113621
-0.0184558
-0.0104272
-0.0192105
0.00261577
-0.0153998
-0.00710613
0.00132112
-0.0057699
0.000261523
-0.00945137
0.000857482
-0.00379942
0.00166076
-0.00748645
0.000991313
-0.00881329
0.0158541
-0.000179043
-0.00795762
0.0158613
-0.00184034
-0.00615026
0.013948
-0.00216437
-0.00203277
0.0198265
0.00570394
0.0204681
0.107127
-0.0445274
-0.00956423
0.00400883
0.0307117
0.00546882
0.00762306
0.0105295
-0.000247766
0.00843399
0.0143036
0.000668013
0.0151642
0.00192765
-0.0162561
-0.0197883
-0.0126695
0.0308688
-0.0202838
0.0463479
-0.0178804
-0.0511045
0.107054
-0.024616
-0.0521285
0.122003
-0.0150166
-0.104531
-0.0443865
0.125811
-0.0301867
-0.0753215
-0.0285964
-0.017398
-0.028869
-0.0142962
-0.00284591
-0.0403553
0.0170296
-0.00208662
-0.0241619
-0.00526385
0.0279881
-0.00542149
-0.00854235
0.016381
-0.00783284
-0.00929752
0.0145003
-0.00617149
-0.00945122
-0.0118356
-0.00271423
0.0502015
-0.0212556
-0.0125869
-0.00608832
0.000616147
-0.0119295
-0.00846449
-0.000107255
-0.00874815
-0.00712679
-0.00156847
-0.0049786
-0.00437772
-0.00157814
-8.85257e-05
-0.000747122
-0.00375348
-0.000455747
-0.0098767
6.66665e-06
0.000443032
0.00127528
-0.00169857
0.00137528
-0.00206725
0.00335603
0.00175177
-0.00264119
0.00437733
0.00206118
-0.00197254
0.00372042
0.00175482
0.00267376
0.000706401
0.00449967
0.00263942
-0.00105772
0.00469529
0.00384985
-0.000400828
0.00454974
0.00492695
-0.000485105
0.0048286
-0.000749766
-0.00635333
0.0108819
-0.00418813
-0.0061879
0.0109065
-0.00625666
-0.00532525
0.0100608
-0.00717904
0.00901751
-0.00778423
0.00656203
0.011878
-0.0056662
0.00798517
0.0136076
-0.00506868
0.0081684
0.01513
-0.00451327
0.0149359
-0.00311904
-0.00918082
0.0168775
-0.00132558
-0.00930607
0.0178834
-0.00273424
-0.00965209
0.0177804
-0.00393116
0.010486
-0.00400751
0.0128704
-0.000416012
0.0102304
-0.00167428
0.00748814
0.0233053
-0.00289599
0.0073409
0.0183186
-0.000378088
0.0173116
0.000739767
-0.00882172
0.0485023
-0.0252153
-0.005183
0.0421939
-0.0276586
0.0450274
-0.0283064
0.0293476
0.117755
-0.05755
0.127616
-0.0450587
0.050746
0.135059
-0.038644
-0.0205909
0.0553944
0.134991
-0.0149444
0.0520242
0.130247
-0.00598977
0.115431
-0.00134339
-0.0502228
0.119895
0.0051913
-0.0559337
0.135224
-0.000348446
-0.0534617
0.140919
-0.0094825
-0.0448127
-0.0146191
0.140009
-0.128314
-0.0233064
0.133717
-0.0293114
-0.0128419
-0.0511497
-0.114476
0.0286353
0.119458
-0.106137
-0.066781
0.118461
-0.0384277
-0.049571
-0.0680787
-0.00479461
0.0138634
-0.0135233
-0.0193494
-0.0195725
-0.00999018
-0.0060308
-0.0131326
-0.00290605
-0.0140231
-0.00406284
0.00257562
-0.0143971
-0.00817739
0.00317141
-0.0127563
-0.0106152
0.00252773
-0.00980952
-0.0145058
0.00285856
-0.0107461
0.00114145
-0.0137812
0.0160653
-0.0137376
0.00061125
-0.00948817
-7.77583e-05
-0.0153558
0.0144819
-0.00157902
-0.0167586
0.0116573
-0.00271288
-0.0180417
0.00966228
-0.00145861
0.014952
-0.0254695
0.0110901
0.025213
0.0187235
0.020734
-0.049855
0.0188575
0.0161698
0.0178291
-0.027775
0.0305725
0.0160518
0.0191716
-0.0470741
0.0213669
0.0134259
-0.0227434
0.0183946
0.0392788
-0.0422123
0.0089321
0.0152676
0.0201009
0.0463575
-0.0101131
-0.0171679
0.0253841
0.030127
-0.0202515
-0.015287
-0.0172351
-0.0206116
0.00991295
-0.0182665
0.00381717
-0.0127812
-0.0179535
0.0043725
-0.0172428
-0.012291
0.00330538
-0.0161322
-0.0141053
0.00228107
-0.0167777
0.002098
-0.0176691
-0.0170579
0.0174594
0.000373409
-0.0162709
-0.000772013
-0.0183782
0.0156429
-0.00199049
0.0130093
-0.0030917
0.0175531
0.0143299
-0.00279083
0.0174368
-0.00140741
0.0164806
0.0182475
-0.0170309
-0.000365648
0.0183954
0.00133214
-0.0151204
0.00285801
-0.0154842
0.00100867
0.0175063
-0.015413
-0.00120318
0.0144816
-0.00214725
-0.00752796
-0.0160246
0.0235952
0.0168616
-0.00150777
-0.0143884
-0.0171501
-0.0262117
-0.0242751
-0.0025711
-0.105269
0.103874
0.0075468
0.00121097
0.0182433
0.0127107
0.0239172
0.0146968
-0.0202635
0.0176498
-0.00846278
0.0179669
-0.0122451
-0.0047736
0.00236003
-0.000511665
-0.00555203
0.00484989
-0.00582435
-0.00170872
-0.00210802
-0.00217565
-0.00379246
0.0131653
-0.000990805
-0.00316272
-0.00140342
-0.00338382
0.016386
-0.0200786
-0.0115663
0.0154794
0.00688791
-0.0116061
0.01761
0.00911888
-0.0132703
0.0202282
0.00893904
-0.0142057
0.0229857
0.00892257
0.0302137
0.012003
0.00989196
0.013501
0.012507
0.00948874
0.0132879
0.00992181
0.00785314
0.0119342
0.00975883
0.0060784
0.0108106
0.00842013
0.0100046
0.00700368
-0.00220786
0.0034266
-0.00262112
0.00416759
-0.00328894
0.00476389
-0.00392366
0.00540854
0.00651842
0.00166358
0.00290664
0.0014266
0.00051177
0.000410675
0.00139579
-0.000145343
0.00198831
-0.00155105
-2.95365e-05
-0.000931082
0.00195191
0.000964036
-0.000329697
0.00079161
-0.000433509
0.00182864
-0.00111691
0.00121551
-0.000535217
0.0003118
-4.58399e-06
0.00202631
-0.001747
2.91968e-05
0.00379666
-0.000559256
-0.00359689
0.0111603
-0.00639461
0.00358206
-0.0180424
0.00336071
0.0170738
0.00389169
-0.0181491
0.0204481
0.00715499
0.00293897
0.00677465
-0.0170831
0.0208624
0.000290327
0.00596532
0.0198084
-0.0148516
-0.0136313
0.0141978
0.00503538
0.0109875
-0.00739166
0.0172015
-0.00766057
0.0172853
0.0109125
-0.000409822
0.0199931
0.00718069
0.00333935
-0.00115253
0.00152956
-0.00352068
0.000373603
-0.00229328
0.0126074
0.00135508
-0.00233827
0.000789622
0.000619629
-0.000777699
0.00151131
-0.000568321
0.00155986
-0.000392912
-0.00124312
0.00106643
-0.00207063
0.000898541
-0.000211009
-0.00022501
-0.0016361
-0.00045507
-0.0020962
0.000247656
-0.00185724
0.00140299
-0.00138174
0.000391383
0.00011221
-0.0018866
0.000170995
-0.00141713
-0.000660439
-0.0012667
-0.00240733
0.00114965
0.00124106
0.000227471
0.000473109
-0.00129885
0.000447991
-0.00168378
-0.000480046
0.000537038
0.000389484
0.000109725
6.86374e-05
-0.00065976
0.00104456
0.000304485
0.000312864
-0.000892338
-0.00161347
0.00281527
-0.000776079
0.000270572
0.000179928
-0.000889777
-0.00113201
0.00380557
0.00137692
-0.000361231
-0.00303166
0.0122871
-0.00264997
-0.00129554
-0.00174943
9.24383e-06
-0.000830803
0.000258733
-0.000726404
0.000330071
-4.18105e-05
-0.00112143
-4.55616e-05
0.00188369
-0.000307709
-0.00162487
-0.00132387
0.00321248
-0.000895211
-0.000173067
-0.00124727
0.00111844
0.00204451
0.000343426
0.000324579
0.000921972
-0.000130688
0.00191659
-0.00142247
-0.000172892
-0.00137182
0.00320124
8.27972e-05
-0.000650877
0.000197853
0.00286375
-0.00405779
0.0133186
-0.00112427
-0.0180623
0.000738809
0.00705491
0.0245691
-0.0164931
0.0219216
0.00640754
-0.0177794
0.0226057
-0.00210487
-0.0149021
-0.00439552
-0.0206952
-0.0218728
-0.00632067
-0.0219043
-0.00573721
0.0151679
-0.00262548
0.0198026
0.0318022
0.0374669
-0.023605
-0.101148
0.066612
-0.0967673
0.0700814
-0.107848
0.0712934
-0.0171093
-0.110088
0.0687056
-0.0248689
-0.106619
0.0674524
-0.0296736
-0.0981188
0.0662808
-0.0332084
-0.0859955
0.0636017
-0.0358159
-0.0685391
0.0576259
-0.0379514
-0.0487055
0.053196
-0.03767
-0.0385662
0.042598
-0.0316995
0.00457444
-0.0300065
0.0173075
0.0321207
-0.0455212
0.0148808
0.044806
-0.0430468
-0.00699839
0.0479167
-0.0264489
-0.0341431
0.0267061
-0.0508993
-0.0129882
0.0292772
-0.059655
-0.0245498
0.0328026
-0.0620684
-0.0310385
0.0329256
-0.0557657
-0.0382131
0.0313841
-0.0478016
-0.0352888
0.0268219
-0.0304123
-0.0335853
0.0157288
0.00326273
-0.0341138
0.0201312
0.0446355
-0.0621408
0.0427829
0.055651
-0.0790688
0.0680747
0.0549273
-0.081039
0.0881235
0.0523876
-0.0732609
0.099127
0.0477226
-0.0595827
0.0997193
0.0400093
-0.0414239
0.0935058
0.0341661
-0.0287631
0.081378
0.03108
-0.0196725
0.0461058
0.0378206
-0.00312194
0.0222692
0.0228026
0.000837649
0.0191916
0.00393717
-0.000964359
0.0178552
0.000531373
0.000702244
0.0147007
0.000155488
0.00288868
0.00846758
2.1594e-05
0.00611258
0.00902271
-0.000642754
0.0070827
0.00352615
-0.00165676
0.00448624
0.00386363
-0.00131428
0.00466961
0.00173938
-0.00198557
0.00555159
0.0019457
-0.00290652
0.00517612
0.00312002
-0.00282236
0.00399081
0.00336962
-0.00225386
0.00295262
0.002687
-0.00170343
0.00475074
0.00166756
-0.0035427
0.00862429
0.002975
-0.00706706
-0.0269448
0.033439
0.00151221
-0.0526675
0.0226544
0.00230915
-0.0644583
0.0107691
0.000187838
-0.0670467
-0.000285681
0.00200117
-0.0697684
-0.014703
0.0165203
-0.0743799
-0.0300755
0.033765
-0.0755714
-0.0451603
0.0454148
-0.0728393
-0.0588309
0.0551536
-0.0626578
-0.0711989
0.0600654
-0.0447511
-0.0811856
0.0623218
-0.0169173
-0.0878636
0.0590664
0.0173456
-0.0840302
0.0488066
0.0328507
-0.0588965
0.04243
0.0320239
-0.0453379
0.0452423
0.0244346
-0.0357612
0.0424472
0.0105747
-0.0266883
0.0397211
-0.00016766
-0.0235214
0.0334619
-0.0349949
0.034078
-0.0506651
-0.0198291
0.0347014
-0.0578873
-0.0345926
0.041004
-0.0583284
-0.0493971
0.0489637
-0.0497947
-0.0643965
0.0549877
-0.0258494
-0.0818893
0.0570452
0.00433912
-0.0831993
0.0521348
0.00970221
-0.0472023
0.0409738
-0.0078309
-0.026656
0.0433793
-0.0209406
-0.0287873
0.0411111
-0.00455533
-0.0607202
0.0435968
-0.0525571
0.043338
-0.0152866
-0.0693391
0.00177521
0.0184237
-0.0552639
-0.0400513
0.0286275
-0.0400237
0.000157248
0.0323493
-0.0480856
0.0168136
0.0308868
-0.0777479
0.0310839
0.0416275
-0.126624
0.0317456
0.0550385
-0.123731
0.0274855
0.0576944
-0.0966409
0.0286571
0.0527019
-0.0732046
0.0278943
0.0420808
-0.0522735
0.0274421
-0.0306696
0.0285772
-0.0374857
-0.0479257
0.0271825
-0.0395322
-0.0576491
0.023005
-0.033901
-0.0687297
0.0167902
-0.00565947
-0.0847631
-0.00337285
0.0349915
-0.119685
-0.006002
0.0609103
-0.12552
0.0107319
0.0759829
-0.118838
0.0215785
0.0830608
-0.104443
0.02517
0.0821147
-0.0860169
0.0271422
0.0779105
-0.0653432
0.0234047
0.0706232
-0.0436086
0.0198486
0.0658527
-0.0218302
0.0109396
0.0613096
-0.000939999
0.00425591
0.0502893
0.0147866
0.00607624
0.0279735
0.031427
0.012627
-0.00682098
0.00494869
0.0455237
0.0167753
0.00851503
-0.00259558
-0.00894463
-0.00394967
0.0155932
-0.00137566
-0.000890323
0.0109554
-0.000996561
0.00384768
0.00165849
0.0160273
0.000345371
-0.00961138
0.00409282
-0.00657684
0.0269908
0.00417605
-0.00866338
-0.00771561
-0.00012332
0.00155782
-0.00790251
-0.00237666
0.00149184
-0.00641661
-0.00367199
0.000728095
-0.00481692
-0.00474546
0.000468764
0.00174806
-0.00346646
-0.00046577
0.00431269
-0.000920354
-0.00170917
-0.000332903
-0.000247706
-0.00113249
-0.000684268
-0.00057103
-0.000576698
-0.000527785
0.000417649
-0.00095038
-0.00319769
0.0128225
-0.00534026
-0.0115816
0.00303607
0.0224927
-0.00745687
-0.0094519
0.063829
-0.0309298
-0.028375
0.0184984
0.0611155
-0.0244577
0.0285726
0.0452105
-0.0192239
0.0343953
0.00607878
-0.0101829
0.0503781