/*--------------------------------*- C++ -*----------------------------------*\
| =========                 |                                                 |
| \\      /  F ield         | OpenFOAM: The Open Source CFD Toolbox           |
|  \\    /   O peration     | Version:  v2012                                 |
|   \\  /    A nd           | Website:  www.openfoam.com                      |
|    \\/     M anipulation  |                                                 |
\*---------------------------------------------------------------------------*/
FoamFile
{
    version     2.0;
    format      ascii;
    class       volScalarField;
    location    "825";
    object      epsilon;
}
// * * * * * * * * * * * * * * * * * * * * * * * * * * * * * * * * * * * * * //

dimensions      [0 2 -3 0 0 0 0];


internalField   nonuniform List<scalar> 
18258
(
0.0242644
0.0123841
0.00925217
0.00728912
0.0127407
0.0126591
0.0131125
0.0174788
0.0243313
0.0372077
0.0537956
0.048298
0.0436304
0.0453409
0.0474753
0.0450103
0.0350171
0.0302762
0.0397823
0.0665441
0.0610016
0.0498016
0.0611262
0.0515098
0.0654497
0.0825937
0.0632487
0.056962
0.05114
0.0480847
0.0414504
0.0232442
0.0345994
0.0534641
0.0728778
0.0796017
0.08526
0.089942
0.0952003
0.0973299
0.0975475
0.0922859
0.0830673
0.0680346
0.0501314
0.0388018
0.0312036
0.0305871
0.0431012
0.0442251
0.0549941
0.0847794
0.107312
0.0806117
0.0517119
0.0823411
0.112233
0.143953
0.170464
0.192927
0.200679
0.1973
0.185817
0.169129
0.147719
0.122759
0.101782
0.0848686
0.0670916
0.0572927
0.0463385
0.0384226
0.0328512
0.0291869
0.0269824
0.0252618
0.0241003
0.0250289
0.0249143
0.0177702
0.0139774
0.0131281
0.00939023
0.00780352
0.0081172
0.00771593
0.00801201
0.00707154
0.00605784
0.00526132
0.00446407
0.0065061
0.00700434
0.00724684
0.00726821
0.00778745
0.00803081
0.0077651
0.00785634
0.00717669
0.00760175
0.0120664
0.0137914
0.0174963
0.0156928
0.0109981
0.00901755
0.0100686
0.0106826
0.0133066
0.0125619
0.0133323
0.0118206
0.0108028
0.00911544
0.00884278
0.00907037
0.00964148
0.0100396
0.0116587
0.0114909
0.0106628
0.0117888
0.0130069
0.0127356
0.0121952
0.0116079
0.0142476
0.0114331
0.0121154
0.0136122
0.0219317
0.0214617
0.0259768
0.0254986
0.0259334
0.0261133
0.0315108
0.0316325
0.0320134
0.0323331
0.0340798
0.0570622
0.0508324
0.0497183
0.0495229
0.0428268
0.042368
0.0416848
0.0425018
0.0359837
0.03463
0.0314112
0.0310557
0.0346563
0.0437651
0.061237
0.0884774
0.122403
0.158721
0.188979
0.209949
0.231667
0.237036
0.250917
0.255617
0.25652
0.250851
0.242442
0.232983
0.220132
0.201565
0.188716
0.14836
0.105029
0.0590273
0.0783575
0.0903531
0.100056
0.101927
0.103072
0.0990239
0.0928584
0.0817568
0.0663567
0.0432485
0.0479599
0.0652016
0.0676967
0.0685531
0.0544627
0.0525416
0.0489289
0.0490132
0.0645643
0.073856
0.0619927
0.0854845
0.100532
0.0880033
0.0639049
0.0978027
0.143195
0.0804657
0.0682323
0.0525638
0.0515171
0.0434628
0.0368414
0.0629629
0.093907
0.128529
0.149411
0.171083
0.188529
0.201756
0.215791
0.187551
0.17041
0.114717
0.200756
0.151891
0.0765462
0.0563078
0.0543663
0.0463903
0.0518346
0.0568593
0.0524904
0.0405795
0.0278998
0.0245905
0.0464409
0.064891
0.0784353
0.0622952
0.0792676
0.0895614
0.0968983
0.102234
0.129904
0.0958441
0.105813
0.0754866
0.102541
0.0725787
0.0466102
0.052266
0.0999064
0.159661
0.218766
0.255827
0.144977
0.0731233
0.0541187
0.0539522
0.0523294
0.0474808
0.0591275
0.105499
0.0716741
0.046397
0.0401768
0.0473729
0.0416946
0.0308988
0.0325607
0.0399047
0.0549975
0.0682949
0.0811946
0.124616
0.1214
0.146603
0.153633
0.129554
0.125416
0.0810282
0.0829814
0.122194
0.0911882
0.0736948
0.103662
0.146801
0.200863
0.246997
0.287231
0.312987
0.302746
0.274055
0.173451
0.075981
0.0229102
0.0178278
0.0168793
0.017352
0.0105415
0.00630339
0.00584891
0.00665281
0.00700484
0.00591408
0.00544572
0.00543709
0.0057771
0.0101835
0.00875389
0.0108276
0.0131154
0.01566
0.0186998
0.0194237
0.0128863
0.00872133
0.00818283
0.00811692
0.00804619
0.00801477
0.00802413
0.00806207
0.00807561
0.00804133
0.00796135
0.00782375
0.0076883
0.00763122
0.00826583
0.01115
0.0153105
0.0148149
0.0135286
0.0121771
0.011021
0.00869742
0.0151206
0.0128256
0.0109171
0.0133645
0.0164591
0.0207968
0.0244304
0.017618
0.014103
0.0127612
0.0126324
0.0125143
0.0125543
0.012426
0.0124826
0.0122741
0.0128541
0.0135411
0.016944
0.0189716
0.0211618
0.0226693
0.0232613
0.0239728
0.021107
0.0229957
0.0227251
0.0235027
0.0233203
0.0226296
0.0207038
0.0189029
0.0176737
0.0190819
0.0236345
0.0322538
0.0266563
0.0206839
0.0167337
0.0136853
0.0149594
0.0166297
0.0168035
0.0158163
0.0155862
0.0153776
0.0138547
0.0130572
0.0110629
0.0104557
0.0100047
0.010163
0.0143594
0.0134919
0.0136753
0.0143949
0.0154719
0.0146347
0.015066
0.0142358
0.0144848
0.0149059
0.0169798
0.0185281
0.0177725
0.0164674
0.0159698
0.0137021
0.0158034
0.0156614
0.0169822
0.0185632
0.0190536
0.0189907
0.0183552
0.0167604
0.0186481
0.02201
0.0256576
0.024663
0.0243433
0.0204121
0.0192198
0.020197
0.0214731
0.0223769
0.0224355
0.0222379
0.0222996
0.0262495
0.0258273
0.0246494
0.0225834
0.0201399
0.0174899
0.0151053
0.0165784
0.0180547
0.0194408
0.0207066
0.0204984
0.0189682
0.0176116
0.0163837
0.0148937
0.0146173
0.0160687
0.0172898
0.018723
0.020446
0.0205385
0.0188146
0.017315
0.0160314
0.0145584
0.0145159
0.0160163
0.0173171
0.0187394
0.0202328
0.0196025
0.0184415
0.0171866
0.0159415
0.0144886
0.0145588
0.0158812
0.0169521
0.0180384
0.0189921
0.01984
0.0178792
0.0169674
0.0170555
0.0160667
0.0192416
0.0184874
0.0194292
0.0179815
0.0167634
0.0177699
0.0209556
0.0239827
0.0245346
0.0242547
0.0201274
0.0205826
0.0205582
0.0191433
0.0159285
0.0153309
0.0180871
0.0208081
0.0212673
0.0199707
0.0168879
0.0132552
0.0142698
0.0174155
0.0197189
0.0184659
0.01831
0.0169031
0.0158219
0.016115
0.0138314
0.0165683
0.0265822
0.0240448
0.022021
0.0195449
0.015563
0.0105469
0.0114402
0.0125875
0.0129999
0.0105109
0.00787493
0.00707274
0.00688127
0.0067242
0.00650627
0.00613817
0.00558156
0.00538801
0.0107404
0.0263316
0.0366267
0.0359292
0.0241896
0.020918
0.0203279
0.0191474
0.00957276
0.00828372
0.00850959
0.0104489
0.00823174
0.00873124
0.0151345
0.0103035
0.0140685
0.0108646
0.0146309
0.0230487
0.0219514
0.0146607
0.00805034
0.00686105
0.00734269
0.00763053
0.00783265
0.00802751
0.00825896
0.00864191
0.00995476
0.0156413
0.0201906
0.0176615
0.0166695
0.0152071
0.0187304
0.0212105
0.0231502
0.0259138
0.0160361
0.0117299
0.0165662
0.0271407
0.0246253
0.023164
0.0170587
0.0176003
0.0170442
0.0109566
0.0106144
0.0105332
0.0113454
0.0127243
0.014645
0.0158111
0.0165602
0.0168862
0.01779
0.0230656
0.0215873
0.0210806
0.0173221
0.0133133
0.0153185
0.0513291
0.0194947
0.0206041
0.018857
0.019136
0.0204224
0.0151528
0.0135192
0.0129273
0.0146063
0.0214647
0.0214724
0.0213296
0.0181954
0.0174089
0.0208213
0.0219134
0.0223207
0.0216983
0.0212471
0.0193891
0.0166274
0.0180542
0.0195668
0.0207474
0.0227478
0.0230931
0.0178708
0.01715
0.0157709
0.0104891
0.0112316
0.0096742
0.00964595
0.0096124
0.00933927
0.00889296
0.00917954
0.00929487
0.00929134
0.00894829
0.00924264
0.00830952
0.00864391
0.00973122
0.0151655
0.0147367
0.0175333
0.0194452
0.0166977
0.015542
0.0141838
0.0131647
0.0154073
0.014245
0.0168173
0.0211525
0.0264208
0.0190658
0.0180688
0.0178418
0.0174338
0.0172745
0.0173228
0.016636
0.015642
0.0150802
0.0235184
0.0212314
0.0181175
0.0171721
0.0157434
0.0179862
0.0174321
0.0213128
0.0267712
0.0269709
0.0214772
0.0215518
0.0189114
0.0200117
0.0221866
0.0269992
0.0269259
0.0143874
0.00956237
0.0153883
0.0157291
0.0183362
0.0169586
0.0184815
0.0196573
0.0203819
0.0202419
0.0176494
0.0188196
0.0196062
0.0205913
0.0185454
0.0165423
0.0173274
0.0161081
0.0152114
0.0147161
0.0126489
0.0128885
0.0138534
0.0152999
0.0162417
0.0177286
0.0193752
0.0194073
0.0200704
0.0196654
0.0190733
0.0251474
0.0239117
0.0254512
0.0281481
0.0223778
0.0177649
0.0146527
0.0149601
0.0147248
0.0146313
0.0153781
0.0167334
0.0151118
0.0144969
0.0169947
0.0193421
0.024596
0.0329057
0.0286356
0.0261051
0.0331337
0.0313267
0.0381275
0.0285914
0.0280819
0.0207919
0.0262326
0.0304654
0.0391028
0.0254427
0.0208997
0.0223703
0.0255049
0.0347217
0.0327151
0.0330537
0.0410988
0.0398755
0.0361507
0.0311339
0.0352593
0.021186
0.0301353
0.0321587
0.02678
0.0256454
0.0306605
0.0309977
0.0329444
0.0283355
0.026715
0.0178653
0.0273574
0.0312865
0.0329811
0.0277416
0.0205019
0.027948
0.0204944
0.019131
0.0202425
0.0137317
0.0126837
0.0147537
0.0138284
0.011162
0.0121028
0.0111197
0.0111013
0.011176
0.0112835
0.0114065
0.01165
0.0115999
0.0125661
0.0132533
0.0125171
0.0114948
0.0121942
0.0126166
0.0161207
0.0182119
0.0204861
0.022086
0.0229266
0.0240524
0.0226559
0.0248072
0.0237256
0.0251788
0.0248685
0.0237976
0.021286
0.0186688
0.0163366
0.01704
0.0207963
0.0275401
0.0225897
0.0175049
0.0141807
0.0117568
0.0130444
0.0163772
0.0088417
0.00808212
0.00780502
0.00766238
0.00760632
0.00686583
0.00593824
0.00632446
0.0122317
0.0159752
0.0204261
0.0263754
0.0324768
0.0377124
0.0417707
0.0447717
0.0467092
0.0472944
0.0446209
0.0339568
0.0290618
0.0247934
0.0203599
0.0164665
0.0167285
0.0244198
0.0321031
0.0396673
0.046332
0.0513091
0.0493723
0.0330345
0.0298606
0.046199
0.0779047
0.073756
0.0969772
0.110627
0.062453
0.0461498
0.0451303
0.062179
0.0648901
0.0568699
0.0468469
0.0365205
0.0262388
0.0308398
0.0354358
0.0399243
0.0446921
0.0587196
0.0613779
0.0599075
0.056964
0.0532113
0.0483518
0.0415287
0.0332001
0.024867
0.0184259
0.0133513
0.00716536
0.00777579
0.00796158
0.00751989
0.0076936
0.00801159
0.00904975
0.00876206
0.00899033
0.00878741
0.00883076
0.00785629
0.0069919
0.0103025
0.00974543
0.00980264
0.0105788
0.0135974
0.0103626
0.0075133
0.00707402
0.00707915
0.00766916
0.0187376
0.0255861
0.0306735
0.0351978
0.0383609
0.0371606
0.0338912
0.0283981
0.0222352
0.0199945
0.0168182
0.0142894
0.0130526
0.0143741
0.0117774
0.00572649
0.00522081
0.00575619
0.00558467
0.00510519
0.00616072
0.00686674
0.00749235
0.00792417
0.00823917
0.00829925
0.00823452
0.00813987
0.00809066
0.00806492
0.00803014
0.00795835
0.00785592
0.0077072
0.00756533
0.00749734
0.0080895
0.0107125
0.0146547
0.0144204
0.0133026
0.0121899
0.0113263
0.00960526
0.0154775
0.0131343
0.0110145
0.0101868
0.0100469
0.0103471
0.0113047
0.0129219
0.0138327
0.0158315
0.015873
0.0157659
0.0160726
0.0158647
0.0133763
0.0151718
0.0177559
0.0185617
0.0191518
0.0189213
0.0173777
0.0194022
0.0205551
0.0200273
0.0194335
0.0167188
0.0194971
0.0233068
0.0237335
0.0239641
0.021277
0.0184277
0.021601
0.0227868
0.0224403
0.0233575
0.0217111
0.0224753
0.027799
0.0145563
0.0136572
0.00839954
0.00903498
0.00937611
0.0091876
0.00889511
0.00925843
0.00949205
0.00913724
0.00981636
0.0101147
0.00934711
0.0119239
0.0110278
0.0107143
0.01012
0.010457
0.0109418
0.0112161
0.0125789
0.0200438
0.0206219
0.0185473
0.0212625
0.021819
0.0181548
0.0207139
0.0216185
0.0219983
0.0223813
0.0237893
0.0222252
0.0245288
0.0238605
0.0223271
0.0215824
0.0383592
0.0252768
0.0166583
0.0154156
0.0150687
0.0151129
0.0170044
0.012663
0.0142126
0.00995003
0.00861971
0.00826488
0.00799435
0.00862
0.011518
0.0180331
0.0253646
0.027932
0.0268516
0.0235861
0.0181505
0.0135287
0.0131711
0.0118145
0.0110043
0.0108333
0.00717676
0.00515908
0.00657515
0.00661822
0.00721333
0.00763351
0.00797569
0.0082317
0.00837063
0.00843909
0.00851522
0.0086255
0.00874427
0.00884406
0.00891969
0.00897138
0.00902693
0.00913978
0.00943885
0.0106338
0.015302
0.0197304
0.0186283
0.017163
0.0158483
0.0166132
0.0173722
0.0181145
0.0223222
0.0191679
0.0220817
0.0207274
0.0197375
0.0183272
0.0190498
0.0208467
0.016589
0.0165104
0.0112544
0.00983067
0.00946125
0.00925603
0.00909859
0.00894478
0.00879732
0.00866444
0.00853694
0.00842473
0.00833592
0.00824777
0.00811211
0.00787581
0.00748168
0.00706228
0.00618176
0.0067501
0.00744177
0.00840749
0.00951897
0.0100891
0.00953936
0.00878399
0.00843667
0.00853963
0.00870107
0.00888333
0.00909448
0.00939082
0.00985291
0.010818
0.0114919
0.0161693
0.0168967
0.0202333
0.0200427
0.017943
0.0172971
0.0189052
0.0174296
0.0127065
0.0174603
0.0169797
0.0212034
0.0156995
0.0148014
0.0151892
0.0156633
0.0183724
0.0172838
0.0158117
0.0157794
0.0127145
0.0142723
0.0162691
0.0177756
0.0280339
0.0274477
0.0346061
0.0345443
0.0597302
0.0567864
0.0500431
0.0541939
0.0238374
0.0467184
0.0546534
0.0497484
0.0431528
0.0274889
0.0440286
0.0671194
0.0974022
0.0701702
0.0573917
0.106853
0.0773944
0.0376156
0.0267144
0.0150795
0.0151568
0.0251814
0.0292609
0.0242498
0.0233913
0.0336483
0.0350197
0.0281775
0.0288739
0.0312634
0.0302012
0.032683
0.0282744
0.0275909
0.0156003
0.0127994
0.0138257
0.0155499
0.0165421
0.0160247
0.0168714
0.0175529
0.0161203
0.0151021
0.0145487
0.0124869
0.0132355
0.0162234
0.0204453
0.023955
0.0172888
0.0138835
0.0125785
0.0123834
0.0121574
0.0120414
0.0117255
0.0115454
0.0110822
0.0112965
0.00984905
0.00985951
0.0103894
0.0105442
0.0107407
0.0108917
0.0110085
0.0111172
0.0119941
0.0187823
0.0259958
0.0208028
0.0164914
0.0140123
0.0151972
0.0171165
0.021017
0.0264422
0.0178545
0.0176742
0.0115177
0.0107313
0.0105281
0.0103643
0.010219
0.0101291
0.0101966
0.0102021
0.0119276
0.0115019
0.0133871
0.0144818
0.0119808
0.0115628
0.0111038
0.0108278
0.0106785
0.010601
0.0106959
0.01156
0.0113909
0.0104595
0.0103602
0.0104749
0.0106837
0.0110034
0.0114502
0.0119576
0.0128662
0.0126223
0.0111834
0.0112448
0.0105985
0.0102896
0.010054
0.0100246
0.0100699
0.0102046
0.0104202
0.011331
0.0171348
0.0173138
0.0266548
0.02664
0.0211791
0.0177073
0.015554
0.014301
0.0135701
0.0353334
0.0310254
0.0491616
0.0392007
0.0313731
0.0509715
0.0725853
0.056351
0.0918991
0.0992734
0.0730462
0.066179
0.0210157
0.0160006
0.0154697
0.0169582
0.0186486
0.021281
0.0218767
0.0266938
0.0288009
0.0171928
0.0165126
0.0155799
0.0249096
0.0230844
0.0197027
0.0178194
0.0164348
0.0189864
0.0207789
0.0149776
0.0150198
0.00967755
0.010678
0.0104287
0.010094
0.00998212
0.00991133
0.00994804
0.0100499
0.0103338
0.0108294
0.011202
0.0113314
0.0116053
0.0113984
0.0111149
0.0107762
0.0105745
0.0103778
0.0102203
0.0101013
0.0101376
0.0104573
0.0106047
0.00930617
0.00964822
0.00975526
0.00976961
0.0098072
0.00978299
0.00966275
0.0094781
0.00930672
0.00911791
0.00916907
0.0099611
0.0100886
0.0101445
0.00999252
0.00988187
0.00987623
0.00981756
0.00980569
0.00979284
0.00966462
0.00934501
0.008619
0.00847606
0.0090841
0.00943584
0.00962107
0.00970949
0.00968518
0.00961714
0.00937851
0.00919854
0.0089929
0.00866694
0.00825226
0.00688705
0.00713811
0.0074807
0.00795301
0.00844099
0.00886876
0.00915339
0.00929962
0.00937994
0.00929378
0.00900256
0.00847904
0.00842682
0.00881682
0.00900058
0.00896866
0.00872211
0.00833522
0.00779081
0.00710795
0.00644074
0.00592006
0.00565696
0.00525316
0.0066252
0.00718831
0.007721
0.00822195
0.00870463
0.00922704
0.00944696
0.00952065
0.00949547
0.009334
0.00899596
0.00846217
0.0084743
0.00895804
0.00927635
0.00940771
0.00939796
0.00919159
0.00876276
0.00785203
0.00704466
0.00639771
0.00582447
0.00525117
0.00504398
0.00529483
0.00510701
0.00534994
0.00594471
0.00674965
0.00752157
0.00810638
0.00851498
0.00868563
0.00862699
0.00837282
0.00827882
0.00840768
0.00836064
0.0080686
0.0075146
0.00677875
0.0059749
0.00532835
0.00511678
0.00542205
0.00575401
0.00544844
0.00440647
0.00494921
0.00549302
0.00608086
0.00699316
0.00817373
0.00878801
0.00911703
0.00928093
0.00921502
0.00891999
0.00847264
0.00845807
0.00888875
0.00917478
0.00922115
0.00908129
0.00876737
0.00824426
0.0068111
0.00536092
0.00474722
0.00440972
0.00396769
0.00552459
0.00588276
0.00546417
0.00519568
0.00563806
0.00620029
0.00684747
0.00737406
0.00780174
0.00809942
0.00819303
0.00815466
0.0080263
0.00803679
0.00798765
0.00778246
0.0075204
0.00728875
0.00683048
0.00636959
0.0058559
0.00640851
0.00669513
0.00627184
0.00468065
0.00497166
0.00538816
0.00564822
0.00707797
0.0085139
0.00895063
0.0091233
0.00927436
0.00921057
0.00888964
0.0084407
0.00842801
0.00895805
0.00936097
0.00948922
0.00957398
0.00963267
0.00969202
0.00852841
0.00665582
0.00622459
0.0052872
0.00483214
0.00658644
0.00701455
0.00682859
0.00656281
0.00748252
0.00787641
0.00803575
0.00806945
0.00810042
0.00808236
0.00798911
0.00791361
0.00780234
0.0082489
0.00888698
0.00878319
0.00867267
0.00849854
0.00812716
0.00767692
0.00717961
0.00784118
0.00838215
0.00811268
0.00598138
0.00635462
0.00716669
0.00731912
0.00882863
0.0100356
0.0104004
0.0104361
0.0103521
0.0103417
0.00932879
0.00839453
0.00824566
0.0096102
0.0156105
0.0154564
0.0155041
0.0154421
0.0148547
0.0146827
0.0141031
0.0138421
0.013126
0.012665
0.0119658
0.0140193
0.0177925
0.0198985
0.0222755
0.0247859
0.023389
0.0188547
0.0165962
0.0101154
0.00798117
0.0068867
0.00596978
0.00527696
0.005076
0.0075544
0.00943233
0.0116363
0.0136295
0.013941
0.0163905
0.0203616
0.0309949
0.0492606
0.0416022
0.0392757
0.0398046
0.0991458
2.55193
2.74198
2.49846
2.90762
3.34336
0.399259
0.153637
0.2874
0.308094
0.346238
0.3241
0.291491
0.265085
0.271516
0.260464
0.268707
0.24998
0.256742
0.224043
0.229614
0.238325
0.710936
1.05331
1.26715
1.76535
1.76215
1.98625
1.93263
1.94857
1.79863
1.91386
1.66291
1.37889
1.30334
1.23142
1.32201
1.43756
1.2474
1.13157
1.01576
0.925464
0.793768
1.00687
0.764321
0.722753
0.721663
0.754309
1.00536
0.916643
1.05521
0.984678
1.02852
0.627627
0.707362
0.519291
0.432962
0.357977
0.437093
0.591549
0.789138
0.981559
0.745986
1.0061
0.921058
0.90328
0.858614
0.781107
0.740963
0.727752
0.748629
0.761182
0.776459
0.804429
0.825723
0.844404
0.995984
1.06149
1.0526
0.862569
0.770971
0.533868
0.57173
0.605639
0.608882
0.567224
0.549386
0.499319
0.486915
0.442626
0.423535
0.385689
0.366418
0.3344
0.461211
0.788
0.817289
0.887213
0.939685
0.989946
1.01141
1.02868
1.01127
0.977865
0.907064
0.875629
0.811974
0.920423
1.1058
1.10388
1.01468
0.862217
0.816731
3.8071
4.62993
3.06337
6.60706
10.0448
16.8451
7.65351
2.07755
3.47727
2.38996
2.12188
2.06938
2.18612
3.44733
2.52361
3.30245
2.76309
2.9269
2.33123
2.63231
2.52254
1.9362
1.6325
1.38367
1.27614
1.03106
1.03191
0.835737
0.777042
0.699377
0.573988
0.69879
0.707507
1.71395
2.32601
2.89512
4.53542
4.97478
5.43075
8.56116
6.9109
8.63618
5.12291
5.17601
3.826
3.59858
3.63838
5.0062
7.17128
4.93716
8.62728
4.80587
15.5974
34.9133
9.21572
19.0774
11.005
9.95053
9.5907
9.88274
14.0578
9.59547
15.6099
13.2213
17.6425
17.2946
18.4027
14.3711
10.6872
11.7576
12.6765
16.2318
11.5424
13.4084
10.1938
9.95672
9.22105
7.58709
6.63459
5.07224
6.00031
7.02504
8.00269
12.7129
15.9101
18.2583
22.0017
16.2202
18.4863
11.1198
12.2089
9.42746
8.84651
8.98228
11.8219
20.9807
14.8636
27.2041
0.49837
0.226216
0.546387
0.229967
0.487837
0.391235
0.403859
0.40485
0.400607
0.462658
0.220718
0.185441
0.17761
0.175436
0.17694
0.100326
0.124553
0.0804701
0.126957
0.229381
0.504358
0.365653
0.140541
0.0826209
0.0546299
0.0429821
0.063521
0.0613251
0.0980752
0.0994501
0.105817
0.132461
0.228993
0.435439
31.9458
7.15806
1.1386
0.533906
0.28367
0.173878
0.150014
0.16953
0.182338
0.1852
0.174182
0.148476
0.107171
0.0717109
0.0486609
0.0411009
0.0299252
0.0275562
0.0390118
0.0527952
0.0489495
0.0646967
0.0831245
0.105891
0.130064
0.149313
0.163804
0.167864
0.155945
0.122111
0.0803657
0.044365
0.0265853
0.0229413
0.0210111
0.0195089
0.0168572
0.0146599
0.013222
0.0112906
0.00994612
0.0089686
0.00864765
0.00876771
0.00956452
0.012097
0.0145563
0.0188445
0.0179608
0.0134476
0.0126167
0.00781486
0.00722463
0.00737145
0.00762124
0.00845302
0.0132295
0.0135341
0.0134113
0.0134333
0.0132482
0.0132192
0.0130457
0.0128621
0.0126401
0.012209
0.0119193
0.0113996
0.0111225
0.0104779
0.0105046
0.0108705
0.0111719
0.0101158
0.0100108
0.00931929
0.0201806
0.0483986
0.0699827
0.078477
0.0882908
0.0810143
0.0418088
0.022866
0.00785008
0.00768186
0.00817793
0.00880302
0.00836048
0.00618061
0.00672584
0.00784582
0.0109995
0.0109127
0.0109444
0.0127499
0.0132765
0.014654
0.0151999
0.0156205
0.0158569
0.0158498
0.0159964
0.0157623
0.0158716
0.0156968
0.0157946
0.0153965
0.0273309
0.0257256
0.0264175
0.0264111
0.0275229
0.0269712
0.0264095
0.0254111
0.0246545
0.0231314
0.0215217
0.0199693
0.0178944
0.018642
0.0179993
0.011231
0.0106632
0.00766184
0.00774051
0.00744153
0.0102179
0.00929996
0.00781733
0.00917907
0.00674996
0.00693869
0.00724374
0.0103119
0.0108394
0.0172397
0.0172343
0.0152561
0.0162172
0.0172434
0.0185565
0.0197295
0.0211532
0.0221848
0.0232909
0.0252016
0.025667
0.0240149
0.023719
0.0226321
0.0245712
0.0235545
0.021813
0.0233592
0.0249422
0.0273717
0.0269953
0.0248092
0.0234753
0.0220421
0.0197297
0.0171024
0.015738
0.0147452
0.0147609
0.0137385
0.0160476
0.014474
0.0100787
0.0104575
0.00804329
0.00633285
0.00601933
0.00917852
0.013086
0.0280242
0.0174787
0.00940288
0.0106487
0.0171113
0.0356334
0.0209867
0.0342335
0.0144783
0.0155988
0.0124923
0.0124523
0.01373
0.0160063
0.0170697
0.0207037
0.0233531
0.025345
0.0262537
0.0275958
0.0279891
0.029415
0.029861
0.0325843
0.032852
0.0329551
0.032503
0.0302248
0.0271846
0.0250757
0.0309721
0.0358392
0.0389882
0.0413761
0.0437521
0.042456
0.0387319
0.0378566
0.0359281
0.0348099
0.0333883
0.030298
0.0264831
0.0217141
0.021136
0.0270979
0.0328055
0.0490091
0.0529078
0.0526476
0.0549724
0.0554762
0.0572293
0.0576656
0.0603247
0.0609006
0.0620652
0.0624022
0.0676573
0.068552
0.0695828
0.069906
0.0696442
0.0706541
0.0707043
0.0480509
0.0431075
0.0392122
0.0325844
0.0273285
0.0346594
0.0431346
0.0482089
0.0735574
0.0740388
0.077791
0.0804037
0.0854075
0.0891155
0.0940738
0.0986026
0.103078
0.106541
0.108656
0.109017
0.10952
0.108577
0.107293
0.116095
0.150804
0.167424
0.198212
0.213324
0.22593
0.229908
0.221149
0.224946
0.21682
0.219363
0.21309
0.21106
0.205754
0.199307
0.195695
0.189246
0.18514
0.213345
0.161437
0.123929
0.0825546
0.0664113
0.0593864
0.0556312
0.0584256
0.0452811
0.038669
0.0578646
0.0533539
0.0428516
0.0290187
0.0187249
0.0317645
0.0473268
0.0642177
0.0814628
0.0972317
0.107534
0.110097
0.109002
0.104323
0.096553
0.0814604
0.06146
0.042351
0.0349898
0.0323027
0.0283068
0.0223163
0.0179286
0.0157944
0.0141947
0.0124128
0.0111508
0.0105909
0.010735
0.011043
0.0132405
0.0173203
0.017313
0.0116024
0.0111691
0.00768236
0.00776753
0.0080211
0.0133522
0.0134923
0.0209262
0.023362
0.0220008
0.0226815
0.0224078
0.0226895
0.0223149
0.0211179
0.0202739
0.0193045
0.0184635
0.0177278
0.0169136
0.0161292
0.0174365
0.0163968
0.013835
0.0139446
0.0145509
0.0151881
0.016071
0.0173233
0.0184027
0.0211014
0.021293
0.0208028
0.020903
0.019443
0.0187372
0.0199959
0.0195305
0.0133028
0.0131331
0.0191721
0.0188235
0.018699
0.0225083
0.0209119
0.0214341
0.0225558
0.0224235
0.0194788
0.018118
0.0165741
0.0153982
0.0140301
0.0125246
0.0121572
0.0148907
0.0131435
0.0107845
0.011964
0.0143724
0.016984
0.01844
0.0204215
0.0231339
0.0240971
0.0263247
0.0277401
0.0298331
0.030673
0.0354912
0.0361732
0.0340579
0.0322117
0.0312168
0.0274533
0.0235119
0.0259307
0.0267926
0.0271672
0.0272521
0.0271205
0.023535
0.0231019
0.021586
0.0210703
0.0195065
0.0189498
0.0177921
0.0170355
0.0160188
0.0141922
0.0134392
0.012631
0.0122859
0.0173475
0.0108224
0.0105828
0.0159731
0.00984316
0.0115808
0.0113331
0.0118478
0.0124881
0.0103404
0.0151349
0.0103179
0.0112069
0.0114259
0.0143061
0.00987445
0.0198793
0.0623596
0.0919951
0.110852
0.20176
0.242449
0.263007
0.283842
0.298199
0.31424
0.331883
0.349655
0.362828
0.364383
0.338853
0.320436
0.255555
0.228872
0.252762
0.283074
0.195352
0.167635
0.169966
0.17088
0.173526
0.174849
0.178584
0.176594
0.181782
0.17744
0.184851
0.178863
0.185487
0.177934
0.16239
0.145658
0.112812
0.101948
0.0657442
0.0509035
0.039829
0.0288904
0.0210392
0.0188746
0.0178547
0.0164851
0.0165677
0.0126985
0.0131131
0.00840011
0.00616284
0.00986572
0.00971484
0.007221
0.00984676
0.0112461
0.0117652
0.0123041
0.0125942
0.0192651
0.0193089
0.0247429
0.0246201
0.0291909
0.0347913
0.0360285
0.0396816
0.0570224
0.0575193
0.0572645
0.0570551
0.0566145
0.0493869
0.0491051
0.0479974
0.0474086
0.0444717
0.0439184
0.0418478
0.0407167
0.0377853
0.0369656
0.0358342
0.0362528
0.0399785
0.054382
0.096131
0.0289775
0.0274294
0.0201994
0.0144985
0.0211922
0.0158635
0.0153708
0.013575
0.0186577
0.0134195
0.0136768
0.0164701
0.0169771
0.0163643
0.0212666
0.0265207
0.0232674
0.0255894
0.114515
0.0724881
0.0238503
0.0470514
0.0706387
0.156242
0.203521
0.139112
0.159058
0.183351
0.166323
0.13953
0.108621
0.0810721
0.057175
0.0437576
0.0113821
0.0133165
0.0184028
0.0402074
0.0597632
0.101247
0.083171
0.108787
0.148774
0.173263
0.20932
0.200696
0.172527
0.148436
0.145294
0.160763
0.162028
0.104167
0.101064
0.0769778
0.173381
0.219071
0.184288
0.231434
0.243731
0.14117
0.0313693
0.0183142
0.0150851
0.0138861
0.0124149
0.0193822
0.0114269
0.0116242
0.0123331
0.0132559
0.0169138
0.0294032
0.0134016
0.0148996
0.0183305
0.0158972
0.0149656
0.0146214
0.0145446
0.0151841
0.0165592
0.0215863
0.0216341
0.0212545
0.0159519
0.0172353
0.0156527
0.0199347
0.0211321
0.0332359
0.0152119
0.01615
0.0214123
0.475577
0.0245414
0.017779
0.0231392
0.0218068
0.0299981
0.044114
0.456603
0.0437524
0.0350105
0.0585508
0.0608519
0.0655049
0.0691679
0.0726635
0.0751849
0.0791199
0.0817946
0.0830123
0.0842289
0.0999359
0.099983
0.0989252
0.103529
0.0976914
0.0577113
0.0579391
0.0975432
0.1053
0.0594861
0.041088
0.0385828
0.0312852
0.0324309
0.041982
0.0440433
0.0617282
0.0615627
0.102695
0.0936383
0.0950398
0.0967624
0.0917281
0.0921765
0.0942584
0.094155
0.0753508
0.0730611
0.0713088
0.0682451
0.0647148
0.0618136
0.0589034
0.0557958
0.0531118
0.0530791
0.057605
0.0582433
0.0657236
0.0721167
0.217519
0.147579
0.10563
0.0787356
0.0644791
0.0586646
0.0583833
0.0616201
0.0648606
0.0665302
0.0673324
0.0706745
0.0924255
0.0949593
0.0978416
0.0952575
0.0991086
0.0971945
0.0947244
0.104647
0.112501
0.0657423
0.0678246
0.0479059
0.0447236
0.0326437
0.0332201
0.0237021
0.0196435
0.0196117
0.0195942
0.0198361
0.0227435
0.0318059
0.0318986
0.0466204
0.0464996
0.051911
0.0755381
0.072576
0.129449
0.118617
0.108923
0.101557
0.10194
0.104043
0.106643
0.101621
0.097754
0.0921838
0.0724204
0.0684393
0.0662974
0.0650187
0.0636833
0.0669386
0.0896972
0.144613
0.221096
0.325408
0.425989
0.438108
0.397424
0.246248
0.287469
0.142406
0.163464
0.185072
0.159126
0.16838
0.318031
0.264594
0.374047
0.480019
0.533893
0.600296
0.636806
0.623496
0.493582
0.319948
0.32744
0.436236
0.766332
0.859771
0.744207
0.762528
0.659062
0.541157
0.522854
0.49831
0.562457
0.613778
0.579213
0.596658
0.540788
0.516299
0.446163
0.497968
0.363886
0.327765
0.308122
0.299271
0.358632
0.290191
0.326816
0.268559
0.274742
0.223209
0.228746
0.190965
0.146187
0.138571
0.128447
0.143784
0.162938
0.14923
0.153492
0.134004
0.114476
0.0911792
0.0984705
0.0735322
0.0694947
0.0704483
0.0799885
0.12488
0.365403
0.172537
0.163136
0.167455
0.177941
0.318974
0.282711
0.725632
0.508748
0.712378
0.475651
0.564761
0.472601
0.364545
0.380093
0.420094
0.600966
0.824752
6.66176
0.284922
4.2687
3.16847
3.32653
3.47184
4.45034
7.81766
7.11397
9.40393
6.80977
9.08429
4.97413
4.97627
4.32574
4.47086
4.4381
4.26051
5.18006
6.61014
0.238102
0.0909221
0.0854204
0.0856082
0.0873837
0.197711
0.0525612
0.202039
0.0539745
0.213525
0.0495348
0.246753
0.196956
0.0382425
0.0192585
0.0200908
0.0168075
0.0203754
0.0169228
0.0250463
0.0235416
0.0236974
0.0265744
0.0761005
0.291402
13.7365
1.64059
0.682688
0.781424
1.17045
0.794304
1.19322
1.659
1.11493
0.555348
0.362625
0.427649
0.516852
0.493849
0.63179
0.911057
0.892081
0.701176
0.705586
0.620324
0.877587
0.886904
1.05307
1.2308
1.12752
0.881797
0.693963
0.584952
1.01231
1.01975
0.953648
0.401062
0.112245
0.0463349
0.0483616
0.0353721
0.0373907
0.0346675
0.0539431
0.157518
0.21717
0.130357
0.425536
0.411832
0.563608
0.40246
0.412617
0.325355
0.350045
0.5334
0.583011
0.643014
0.674548
0.724738
0.667311
1.2811
2.18983
2.4766
12.8101
17.3978
3.19121
3.09272
13.9462
0.314881
0.0838265
0.023305
0.0174285
0.0162164
0.0161298
0.0150011
0.0155385
0.0160003
0.0169643
0.0188307
0.0231994
0.0458453
0.201551
0.203526
0.0643688
0.0324403
0.0229744
0.0196182
0.0170475
0.0163878
0.0155322
0.0154599
0.0150083
0.0156577
0.0174634
0.0237794
0.0774454
0.271233
11.3431
2.43917
2.25833
8.38927
5.79922
0.206839
0.0438101
0.0200968
0.0169279
0.0158846
0.0167551
0.0162666
0.0182125
0.0184037
0.0230189
0.0250257
0.0317766
0.057108
0.110258
0.315864
9.60561
8.67487
8.39913
7.83128
0.310482
0.115299
0.0544236
0.038242
0.0346311
0.0338244
0.0226516
0.0236769
0.0189843
0.0216452
0.0182977
0.0226887
0.0483312
0.212009
5.3565
1.57298
1.70383
1.21127
0.613575
0.656009
0.669724
0.689142
1.77173
4.04664
4.98026
3.42203
3.35777
4.70084
3.16743
2.47899
1.82673
1.74652
2.54427
1.96311
1.82594
1.3565
1.46595
1.06849
1.4684
0.81188
0.978071
1.07407
1.53246
1.3989
1.412
0.909624
1.05169
1.47662
1.72792
1.65212
0.844923
1.22877
1.01514
0.655417
0.607534
0.633826
0.603418
0.577816
0.57498
0.579633
0.558684
0.576194
0.556498
0.588719
0.548495
0.533463
0.50745
0.527063
0.544359
0.576877
0.359975
0.422318
0.426905
0.441331
0.453713
0.374603
0.450842
0.441402
0.658822
0.994829
0.830604
1.14326
0.676616
1.00275
2.00711
5.21192
2.33105
0.816328
1.34743
1.5857
1.13985
0.628501
2.55441
3.56414
1.2317
1.78768
10.3993
8.44325
16.5323
10.9627
18.6053
6.02452
4.63255
17.7896
6.66451
6.89677
4.50654
4.5156
2.95472
1.58252
1.62516
1.73698
1.22486
1.29664
1.20714
1.13331
1.4725
1.43663
1.88131
2.03104
2.57191
1.80931
1.7711
2.58969
1.06231
1.39574
1.833
1.82437
1.35664
2.33428
3.14819
2.95343
2.12728
2.33037
3.49645
4.8075
4.55863
3.15446
3.94608
10.1137
13.4945
13.6723
4.21566
19.3353
18.3028
2.06382
0.558902
0.318968
0.0878695
0.0441744
0.0365946
0.0386588
0.143056
0.0457898
0.0569287
0.0453165
0.0721091
0.0693535
0.0866103
0.215811
0.125488
0.213596
0.154008
0.186947
0.119266
0.190795
0.223655
0.233224
0.185623
0.113825
0.209997
0.302605
0.104276
0.349633
0.384384
0.256225
0.327627
0.390286
0.193494
0.987835
0.183558
0.125237
0.144138
0.38725
1.24684
0.214849
0.456546
4.45903
14.7125
3.66181
0.929249
0.672369
0.0551774
0.0299544
0.0314258
0.0277009
0.0193578
0.0828501
0.0972208
0.401267
0.206501
0.27821
0.662296
2.93501
2.40012
1.11713
5.47326
10.2835
15.1624
9.13446
2.21912
9.75908