/*--------------------------------*- C++ -*----------------------------------*\
| =========                 |                                                 |
| \\      /  F ield         | OpenFOAM: The Open Source CFD Toolbox           |
|  \\    /   O peration     | Version:  v2012                                 |
|   \\  /    A nd           | Website:  www.openfoam.com                      |
|    \\/     M anipulation  |                                                 |
\*---------------------------------------------------------------------------*/
FoamFile
{
    version     2.0;
    format      ascii;
    class       surfaceScalarField;
    location    "235";
    object      phi;
}
// * * * * * * * * * * * * * * * * * * * * * * * * * * * * * * * * * * * * * //

dimensions      [1 0 -1 0 0 0 0];
oriented        oriented;


internalField   nonuniform List<scalar> 
63799
(
0.00326641
-0.00546313
0.00430086
-0.00835716
-0.00580242
0.00882476
-0.00502212
-0.00841904
0.0104934
0.00612725
0.00622243
-0.00779759
-0.00352623
0.00379768
0.00325617
-0.000894571
0.00431224
0.00172969
-0.00229159
0.00547992
0.00294185
-0.00418043
0.00149559
0.00389647
0.00294713
-0.00642431
0.00487375
0.00447753
-0.00591145
0.00427087
0.00535961
-0.00449155
0.00350695
0.00643363
-0.00307059
0.00189237
0.0122105
-0.00515289
-0.000817158
0.0141849
-0.0116149
0.00908435
0.0152022
-0.0132325
0.0115216
0.0183652
-0.0123945
0.00845586
0.0181099
-0.00985274
0.00932703
0.0129541
-0.00759269
0.0119377
-0.00420703
-0.00726379
0.0236485
-0.0195551
-0.0160233
0.0306091
-0.01723
-0.029995
0.0269778
-0.00668855
-0.0335207
0.0224266
-0.0146741
0.00762891
-0.0486743
0.0313315
0.00232796
-0.0540023
-0.0221979
0.0269743
-0.0628423
-0.0123894
0.0206774
-0.0442684
-0.0333243
0.0144078
-0.055683
0.011056
-0.0893834
0.0072054
0.0259389
-0.109265
0.0145687
0.00461551
-0.122906
0.00832355
0.0045475
-0.129026
0.0027983
0.0025189
-0.130523
-0.00115311
0.00179798
-0.129166
-0.0049549
0.00273967
-0.125556
-0.00970573
0.00522011
-0.118703
-0.0164809
0.00877433
-0.105715
-0.0268595
0.0130157
-0.0836511
-0.0393066
0.016447
-0.0512166
-0.050859
0.0176361
-0.0618011
0.00983712
-0.103215
0.00332254
0.0372891
-0.131675
-0.00060516
0.0282346
-0.150016
-0.00289474
0.0203285
-0.158564
-0.00461977
0.0122401
-0.15826
-0.00734547
0.00607563
-0.149798
-0.0111756
0.00174728
-0.132788
-0.0159905
-0.00198714
-0.106894
-0.0210096
-0.00584653
-0.0703088
-0.0253887
-0.0121537
-0.0413779
-0.0179998
-0.0118808
0.0153266
-0.014562
-0.0430841
0.0818782
-0.0182001
-0.049278
0.119365
-0.00363506
-0.0347609
0.141624
0.00312754
-0.0262629
0.151172
0.00842112
-0.0188073
0.140848
0.016155
-0.00659396
0.0817067
0.0368025
0.0217168
0.0343747
0.0174847
0.0296273
0.0193169
0.0114444
0.00353574
0.019847
0.000757112
-0.00134261
0.0196662
-0.00104455
0.00115425
0.0167271
0.000215629
0.00264267
0.0109748
0.000910622
0.0047569
0.00641718
0.00078257
0.00370349
0.00557779
0.000408215
0.000380124
-0.00254324
0.00629208
0.00175747
-0.000673922
-0.00195749
0.00658568
0.000109122
-0.00746774
0.0125135
0.00252708
-0.00856529
0.0176557
0.00213748
-0.00738279
0.0240359
-0.000878914
-0.00560635
0.0573344
-0.017138
-0.0163575
0.111883
-0.0114928
-0.04363
0.134202
0.00286921
-0.0259081
0.143538
0.00448096
-0.0146228
0.145907
0.00404136
-0.00722403
0.143198
0.00427878
-0.00240888
0.135445
0.00514468
0.00181168
0.120183
0.00684988
0.00763381
0.0983444
0.00613307
0.0150008
0.0613802
0.00748529
0.0289183
0.0500361
0.0109841
0.0801626
0.0141748
-0.0446441
0.0758746
0.00890823
-0.00517187
0.0518778
0.0162876
0.00715741
-0.00141359
0.0533415
-0.000393107
-0.00597426
0.00420077
0.0111396
0.0174395
-0.0351139
0.0108042
0.0283621
-0.0287317
0.00179431
0.0319615
-0.0237293
0.00161287
0.0309539
-0.0315691
0.0147575
0.0343637
-0.048347
0.0299359
0.0397635
-0.0557541
0.0429486
0.0422965
-0.056115
0.0457397
0.0437682
-0.0472782
0.0247626
0.0467689
-0.0263658
0.0126248
0.0210667
-0.00912585
0.0122868
0.00611171
-0.00587877
0.012204
0.00565723
-0.00567735
0.010912
0.00631202
-0.00513038
0.00710745
0.00539122
-0.00168557
0.00196085
0.00505848
0.00307826
0.00347618
-0.00466504
0.00269987
0.00277279
-0.00244541
0.00182401
0.0041169
-0.00331253
0.00261203
0.00469482
-0.00556751
0.00216905
0.00430906
-0.00394684
0.00181465
0.00397096
-0.00368757
0.00211634
0.00198821
-0.0023452
0.00328662
0.00186552
-0.00311336
-0.0018531
0.0105713
-0.00565136
-0.0123179
0.0343334
-0.0244895
-0.0120229
0.0328424
-0.0338996
-0.0123391
0.0346812
-0.035202
-0.0143776
0.037195
-0.0360322
-0.0132756
0.0365413
-0.0385496
-0.011002
0.0369174
-0.0401128
-0.00697562
0.037427
-0.0423851
0.00179695
0.0430414
-0.0527459
0.0063217
0.0486245
-0.0540715
0.0049063
0.0516106
-0.0511019
0.00329699
0.0525851
-0.0518519
0.00898266
0.0484026
-0.0549255
0.0190568
0.0457393
-0.0565758
0.0164767
0.0479542
-0.0459948
0.00550777
0.0186914
-0.00794196
0.00370799
0.00646117
-0.00473877
0.00556024
0.00257834
-0.00448548
0.00732399
0.00394124
-0.00577491
0.00454006
-0.00509189
-0.00808677
0.00949334
-0.00537113
-0.00562039
0.00763807
-0.00623908
-0.00118706
-0.00187668
0.00736749
-0.00212219
-0.00589862
0.0121834
0.00697652
-0.00600723
-0.00541966
0.0162478
0.00179234
-0.000637131
0.074802
0.0148971
-0.0475138
0.0175488
0.0713592
-0.044717
0.0260447
0.0711504
-0.032168
0.0225419
0.0736245
-0.0184766
0.0151597
0.0697211
-0.011685
0.0105254
0.0634794
-0.0111896
0.0102875
0.0533152
-0.0110115
0.00732192
0.0413878
-0.00197063
0.00252751
0.0406916
5.18382e-05
-0.00469795
0.0441273
-0.00131663
-0.0141433
0.0477457
-0.00204483
-0.0172202
0.0450748
-0.00824056
-0.0153389
0.046708
-0.0166579
-0.00981516
0.0527723
-0.0049732
-0.019976
-0.00600455
0.0106668
-0.00407852
-0.00753933
0.00901722
-0.00515772
-0.00243842
-0.00454795
-0.00115486
-0.00167709
-0.000904471
-0.00266215
0.00860632
-0.0037271
-0.00305343
0.00859774
-0.00398507
-0.00173773
0.00890326
-0.0056157
-0.0026341
0.00695263
-0.00200853
-0.00264341
0.00474714
-0.00201137
-0.00219198
0.00649127
-0.00352928
0.0101608
-0.00739043
0.0147621
-0.00777063
0.00306
0.0190998
-0.00788761
0.00342633
0.0238948
-0.00832063
0.0033896
0.0341188
-0.0124507
0.00204811
0.0462868
-0.0189962
0.00654218
0.0342603
-0.000120443
0.0118623
0.0248829
-0.000839638
0.0100373
0.0208935
-0.00190443
0.00575779
0.0172742
-0.00102384
0.00451953
0.0130425
0.00033736
0.00378493
0.0077209
0.00183408
0.00339147
0.00361322
0.00401958
0.00287139
0.00616169
-0.00549128
0.00277616
0.00394105
-0.00389682
0.00558847
0.00167996
-0.00456374
0.00753167
0.00237863
-0.00440645
0.00873194
0.00288478
-0.00416576
0.0085288
0.00337887
-0.00324667
0.00814219
0.00301221
-0.00268084
0.0150891
0.000943518
-0.00796786
0.0391731
-0.00675046
-0.0175528
0.0691167
0.0131203
-0.0436809
0.0766025
0.0246285
-0.0328701
0.0746614
0.0291544
-0.0280399
0.0665985
0.0308306
-0.0236236
0.0532193
0.0304287
-0.0179178
0.0258705
0.0284952
-0.00200821
-0.0150973
0.025455
0.014656
-0.0398319
0.0320228
-0.00814536
-0.049777
0.0370725
-0.0279893
-0.0555071
0.0392797
-0.0344167
-0.0569562
0.0387127
-0.0381162
-0.0527435
0.0361035
-0.0411376
-0.0420928
0.0324852
-0.0438868
-0.0208315
0.0265683
-0.0484448
-0.00718128
0.00278146
-0.0166507
-0.00347477
0.00279471
-0.00657877
-0.00403716
0.00360044
-0.00309335
-0.0037466
0.00472324
-0.00508454
-0.00222289
0.0044436
-0.00604654
-0.000532392
0.00436106
-0.00613169
0.000616445
0.00190782
-0.00312025
0.000633092
0.00275094
-0.00281528
-0.000629616
0.0053969
-0.00420465
0.00560742
-0.00632371
0.00955258
0.00211991
-0.00616431
0.0122055
0.00385294
-0.00661363
0.0145054
0.00373469
-0.00614106
0.0162072
0.00398154
-0.00578657
0.0172582
0.00420512
-0.00535646
0.0169866
0.00454298
-0.00436535
0.0119475
0.00626479
-0.00130282
0.00554107
-0.000126252
0.00650244
0.0053934
-0.0007733
0.000907477
0.00645336
-0.000854465
-0.000220157
0.0074825
-0.000932748
-0.000111916
0.00831478
-0.000655433
-0.00019259
0.00882092
-2.78888e-05
-0.000493698
0.00891581
0.000615922
-0.000726237
0.00873247
0.00106365
-0.000895661
0.00840773
0.00126313
-0.000953768
0.00805973
0.00128578
-0.0009532
0.00771443
0.00122853
-0.000898691
0.00738343
0.00115237
-0.000836897
0.0070379
0.00109019
-0.000760121
0.00668698
0.00104675
-0.000711425
0.00615584
0.000963028
-0.00044709
0.00542749
0.000736542
-2.24014e-05
0.00579506
0.000610539
-0.000990909
0.0123629
-0.000822672
-0.00577332
0.0175327
-0.00319102
-0.0020476
0.0183867
-0.000899615
-3.67876e-05
0.0177512
-0.000196856
0.000750015
0.0156129
0.000383769
0.00167173
0.00957792
0.00213077
0.00383511
0.00390699
0.00389151
0.00175133
0.00322377
0.000283041
0.000387542
0.00300165
-0.000330438
0.000538911
0.00234896
4.95923e-05
0.000589541
0.000995397
0.00041746
0.000924955
0.000363456
0.000429001
0.000197479
0.000144835
0.000215515
9.47085e-05
0.000126808
-7.83772e-05
7.4443e-05
6.33291e-05
-4.37807e-05
0.000125277
2.49512e-05
-7.64326e-05
0.000212538
2.93934e-05
-0.00011756
0.000326805
3.58953e-05
-0.000151343
0.000544506
4.67308e-05
-0.000265698
0.000502506
-1.11214e-05
5.20895e-05
0.000739094
-0.000357435
0.000120085
0.00121832
-0.000733676
0.000253262
0.0018816
-0.000934696
0.000270182
0.00253997
-0.00104604
0.000386416
0.00298287
-0.000959043
0.000514901
0.00308984
-0.000755361
0.000647131
0.00301562
-0.000631595
0.000704553
0.00260463
-0.000288367
0.000698117
0.00167024
0.000233402
0.000699733
0.000147816
0.000796053
0.000725138
-0.0014441
0.0013906
0.000200128
-0.00223346
0.000626352
0.000162251
-0.00215912
1.41687e-05
-8.95324e-05
-0.00133969
-0.000796549
-2.41372e-05
-0.00081301
-0.000548146
2.02971e-05
-0.000445104
-0.000404712
3.59096e-05
-0.000249262
-0.000262509
6.60246e-05
-0.000303948
-0.000147338
0.000201314
-0.000470136
-0.000128906
0.000293421
0.000365493
-0.000838692
0.000244891
-0.000613172
0.000730237
2.7586e-05
-0.00040006
0.000614257
-0.00028064
-0.000241529
0.000546638
-0.000552953
-0.000257957
0.000527284
-0.000719173
-0.000348169
0.000511397
-0.000861285
-0.000344019
0.000483243
-0.000878878
-0.000460362
0.000475123
-0.00092354
-0.000412023
0.000453916
-0.000875037
-0.000506783
0.000455562
-0.000878824
-0.000441322
0.000442412
-0.000807566
-0.00052113
0.000447237
-0.000797364
-0.000443866
0.000431005
-0.000719613
-0.000503955
0.000423674
-0.000700071
-0.000409547
0.0003874
-0.000614262
-0.000459428
0.00037127
-0.000529725
-0.000421133
0.000334083
-0.000546615
-0.000489764
0.000504282
-0.00130595
-0.000300115
0.0010542
-0.00147465
-0.00058593
0.000748136
-0.00266381
-0.000353496
0.00152994
-0.00481845
-0.00410063
0.00621978
-0.0107263
-0.0174575
0.0232403
-0.0157292
-0.0220133
0.0268458
-0.0174549
-0.0349677
0.0363784
-0.0152541
-0.0461317
0.0435881
-0.0504794
0.0459083
0.0156389
-0.081194
0.0217531
0.0247704
-0.0819992
0.0261742
0.0217451
-0.0748448
0.00548289
0.0367527
0.0125868
-0.0232955
0.0102815
0.00490238
-0.0249179
0.0123411
0.00262614
0.00240847
0.00325241
-0.00488694
0.00280542
0.00166353
-0.00369162
0.00161221
0.00193134
0.000515784
0.00107861
0.000263852
0.000736891
-4.12634e-05
0.000381053
0.000348234
8.73071e-05
-0.000174804
3.24643e-05
-0.00115743
0.000818896
0.00016212
-0.00170178
0.000500848
0.00219253
-0.00403103
0.0017859
0.000963355
0.00135332
-0.0043669
0.00207559
0.00215014
0.000816725
0.000540437
0.0011511
0.00055564
0.000968186
-0.000803283
0.000572826
0.00135143
-0.00145415
0.00056316
0.00108453
-0.000777775
0.000597007
0.00145139
-0.00147244
0.000580626
0.00112494
-0.000735543
0.000616816
0.00144982
-0.00144102
0.000605464
0.00106164
-0.000685672
0.00065789
0.00126301
-0.00133199
0.000666256
0.000815374
-0.000635529
0.000735096
0.000799569
-0.00110099
0.000764522
0.000442679
-0.000746784
0.000841592
0.000352118
-0.00102064
0.000865537
9.58393e-05
-0.00106961
0.000921618
-0.000241663
-0.00124977
0.000969362
-0.00201269
0.000926995
-0.00435099
0.000586938
0.00174062
-0.00517326
-0.000182129
0.000991756
-0.00518605
-0.000235398
0.000235376
-0.00591326
-0.000271046
0.000987508
-0.0136476
0.000887621
0.00682191
-0.0203654
0.00588222
0.000783948
-0.0245226
0.00235205
0.0017436
-0.047509
0.00663149
0.0162597
-0.0492445
0.00437936
-0.00284824
-0.0274229
-0.00404474
-0.0178708
-0.0243873
-0.00139868
-0.00169685
-0.0185071
-0.00494561
-0.00098509
-0.00852594
-0.00124794
-0.00875787
-0.00794426
0.000381245
-0.000973722
-0.00904457
0.000209036
0.000878182
-0.00943938
8.52038e-05
0.000296138
-0.00900798
-0.000551887
0.000106968
-0.0087261
-0.000483532
0.000188973
-0.00862921
-0.000333712
0.00022403
-0.00882946
-0.000124222
0.000311232
-0.00938935
7.23107e-05
0.000473131
-0.00969464
-0.00035978
0.000649778
-0.00958039
-0.000906729
0.000776677
-0.00910925
-0.00137422
0.000887211
-0.00841014
-0.00168252
0.000967649
-0.0077788
-0.0016406
0.00099344
-0.00702229
-0.00153591
0.000764028
-0.00604903
-0.00130751
0.000319535
-0.00617026
-0.00119982
0.00130772
-0.0134472
-0.000694339
0.00794033
-0.0184401
0.00810578
-0.00318873
-0.0208234
0.00540248
-0.0031063
-0.0418779
0.0127287
0.00815365
-0.0543298
0.0250155
-0.0130115
-0.0357187
0.00930418
-0.0284691
-0.0331788
-0.00310916
-0.0513829
-0.0254679
0.0429897
-0.0592416
-0.0391003
0.0462029
-0.0571922
-0.0501906
0.0473184
-0.0453342
-0.0578747
0.0451799
-0.0278572
-0.0613212
0.0430385
-0.0624514
0.0436403
0.0193938
-0.104272
0.0249258
0.0383534
-0.103332
0.0221927
0.0521169
-0.0969026
0.0243763
0.054745
-0.0838035
0.0301048
0.0461108
-0.0653769
0.034084
0.0261625
-0.0430208
0.0367525
-0.0144122
0.0367887
-0.0290737
-0.029211
0.0431125
-0.0401679
-0.0373908
0.0476124
-0.0455426
-0.0459348
0.0504005
-0.0439351
-0.055174
0.0526135
-0.0365505
-0.0630111
0.0546747
-0.0244584
-0.0696828
0.0566448
-0.00662125
-0.074574
0.0558155
0.0111249
-0.0718397
0.0531999
0.0100316
-0.0547136
0.0549348
0.00457817
-0.0577944
0.062383
0.00972241
-0.0687794
0.0627694
0.018263
-0.070873
0.061462
0.0277354
-0.0678198
0.0574902
0.0347
-0.0613814
0.0535893
0.0346959
-0.051408
0.050656
0.0147708
-0.0343724
0.0536805
0.00614581
-0.0106384
0.0190444
0.00326923
-0.00119762
0.00399692
0.00276065
-0.0030087
0.00346245
0.00157016
-0.00417269
0.00529335
0.000100735
-0.00386856
0.00525986
-0.00100273
-0.00466184
0.00568612
0.000537955
-0.00405663
0.00245285
0.00140607
-0.00460324
0.00368781
-0.001193
-0.00520757
0.00773569
0.00838054
-0.00966156
0.013917
-0.0096373
0.00400147
0.017013
-0.00994368
0.00673699
0.0191668
-0.00819875
0.00594197
0.0224954
-0.00883489
0.00540156
0.0507287
-0.0306727
0.00224455
0.107519
-0.000844943
-0.056508
0.133237
0.0162344
-0.0426425
0.145932
0.0235986
-0.0370603
0.152107
0.0262948
-0.0332129
0.151415
0.0288358
-0.0288986
0.136417
0.0338194
-0.0194842
0.079172
0.0490067
0.0077115
0.0363975
0.0190911
0.0235067
0.0293066
0.00630363
0.000696612
0.0188052
0.0103066
0.000122847
0.00784702
0.0103066
0.00062204
0.00690765
0.00164661
-0.000719631
0.00687696
0.000634076
-0.000617024
0.00572142
0.00160189
-0.00045959
0.00259363
0.00248337
0.000633478
0.00106919
0.00126329
0.000255778
0.000432644
0.000633482
0.000257563
-0.000759214
0.000930749
3.19227e-05
-0.000593203
0.000815725
-0.000120947
-0.000649167
0.000798909
-0.000266144
-0.000614373
0.000756575
-0.000324248
-0.000656673
0.000711778
-0.00039819
-0.000579879
0.000650926
-0.000381226
-0.000641068
0.000621263
-0.000398947
-0.000563812
0.000578758
-0.000340763
-0.000628721
0.000567812
-0.000333775
-0.000554693
0.000545002
-0.000272248
-0.000611999
0.000547828
-0.000267194
-0.000538929
0.000531206
-0.000234412
-0.000561619
0.000526293
-0.000242533
-0.000489576
0.000495073
-0.000190767
-0.000519187
0.000465048
-6.15413e-05
-0.00047769
0.000345961
-2.78316e-06
-0.000436126
0.000375039
-0.000397863
-0.000691911
0.0010817
-0.000649797
0.000872508
-0.000627166
-0.00134099
0.00136623
-0.000687792
-0.00254272
0.00553649
-0.00437055
-0.00916071
0.0249222
-0.0184311
-0.0161507
0.0303196
-0.0235054
-0.0205709
0.0407341
-0.0366343
-0.0164795
0.0447974
-0.0492323
0.0493291
-0.0552009
0.0192017
0.0712476
-0.0272564
0.0260528
0.063635
-0.0259554
-0.0184508
0.0498292
-0.00540858
0.0269964
-0.00477905
0.0338885
-0.00206713
-0.00488231
0.000151678
0.0451372
-0.0114411
0.0649412
-0.0150272
-0.0121242
0.0512542
-0.00102945
-0.0283096
0.054588
-0.0293469
0.069863
0.0104896
0.0638961
-0.0135586
0.0163046
0.0360674
0.0273401
0.00933069
0.00853181
0.0677996
-0.00580145
-0.00586769
-0.0123427
0.0840368
-0.0179446
0.00155056
-0.00244391
0.0129399
-0.0257526
-0.00337758
0.0100593
-0.010235
0.00119865
-0.0307325
-0.0089566
0.0228043
0.0065791
0.00432336
-0.00693433
0.0062389
0.0145182
0.0221282
-0.0137625
0.00863814
0.00349346
-0.0059389
2.14339e-05
0.0161519
0.00386037
0.00312233
0.0115158
0.00135069
0.00327834
0.0106475
-2.59868e-05
0.000883613
-0.00928698
-0.000376978
0.0202979
-0.019266
0.00100599
0.00420073
0.00354259
0.00543732
-0.00478545
0.00725746
-0.000440196
0.00466097
0.00256637
-0.00468116
0.00896095
0.0017571
0.0107682
0.00361421
-0.0118454
-0.000805186
-0.00564659
-0.00243912
-0.00295545
0.0307528
-0.0101885
-0.00250686
0.000926131
0.00971991
0.00426095
0.00267493
-0.0337772
0.00348741
-0.00230665
0.00056908
-0.00111417
0.00308444
-0.00443518
0.00292673
-0.00451255
0.00314975
-0.0115173
-0.0133296
0.00633288
0.0108289
0.00341203
-0.00819079
-0.0108843
0.00708986
0.0117008
-0.00293514
0.00224583
-0.0125313
0.0190601
-0.00256204
-0.00282291
-0.00278309
0.00571406
0.000645108
-0.00260833
-0.00208579
0.0018217
-0.000710545
0.000410058
0.00298456
-0.00247036
-0.00211437
0.00183243
0.000530243
0.00254242
0.0018975
-0.0025149
-0.00204798
0.000437289
-0.00255113
-0.00206887
0.00215912
0.00255087
0.000671593
-0.00262889
-0.00203643
0.0019948
0.00243336
0.000665126
-0.00229977
-0.00204095
0.00182417
0.00252022
0.00104399
-0.00256018
-0.00191834
0.00162602
0.00247091
0.000975754
-0.00232421
-0.00198633
0.00176412
0.00261205
0.00142191
-0.0028764
0.00265839
0.0017917
-0.00202237
0.00133553
-0.00269508
0.00202665
0.00307816
-0.00232595
0.0016205
-0.00268137
-0.00354426
0.00347398
0.00246394
0.0012194
-0.00365197
0.00324555
-0.00319077
0.0039954
0.00103906
-0.00451164
-0.00346695
0.00379583
0.00436004
0.000436285
-0.00438098
0.00513723
0.00364259
-0.003799
5.18338e-05
0.00416719
-0.00483616
0.00556323
-0.00451297
6.94836e-05
-0.00190037
0.00242674
0.00179052
-0.00233584
0.00179964
-0.00110314
0.00122459
-0.00185235
0.0022631
0.00213396
0.000341133
-0.00293948
0.00208142
-0.000878858
0.000643958
0.000415622
0.00213333
-0.00164475
0.00134995
0.000241724
0.00174426
-0.00109051
0.00119822
0.000280254
0.00134845
-0.000655146
0.00076968
0.000280193
0.000647496
-3.87439e-05
0.000325676
0.000412972
-0.000351662
0.000508136
-8.5234e-05
0.000575193
-0.0010447
0.000560172
-0.000483857
0.00061566
-0.00125114
0.000752391
-0.00107677
0.000529767
-0.00124839
0.000965198
-0.00150344
0.000534423
-0.00113234
0.00100514
-0.00154839
0.000426085
-0.000924579
0.000927311
-0.00136583
0.000229589
-0.000784101
0.000377243
-0.000487235
-3.14482e-05
-0.00042827
0.000577496
0.00011017
-0.00104442
-0.00015505
0.00027215
-0.00057776
3.16453e-05
-0.000568886
0.00066295
-0.000561393
0.000310792
-0.00120569
0.00156199
0.00134769
6.23494e-05
-0.00235316
-0.00263376
0.00266213
-0.00217717
0.000920929
-0.0035846
0.000128094
0.00216851
0.0004255
-0.00261629
0.0007342
-0.00172
-0.000550622
-0.00522461
0.00380844
-0.00248705
0.00199288
-0.00512095
0.0038168
-0.006835
-0.000871538
-0.00402704
0.00913024
-0.0259594
-0.00990252
-0.0186118
-0.006962
0.0537785
-0.0428171
-0.0203555
0.0253457
0.0110715
-0.0494872
-0.0292801
0.0463195
-0.01119
-0.0494641
-0.0310435
0.0512794
-0.0210882
-0.0464775
-0.0320732
0.0535497
-0.0252961
-0.0415162
-0.029995
0.05263
-0.0284135
-0.0121182
-0.0231311
0.0472779
-0.0164659
-0.0379298
0.0164746
-0.00726792
-0.00961872
-0.0118415
0.0136377
0.0260163
-0.0101705
-0.0131393
0.0217257
0.0166127
-0.0141082
-0.0107268
0.0123121
0.0345466
-0.0112862
-0.0139738
0.00529888
0.0277214
-0.00811302
-0.0126943
-0.00657328
0.0394192
-0.0104855
-0.0171615
-0.0125414
0.0402257
-0.014479
-0.0199057
-0.00759539
0.0292747
-0.0138226
-0.0205341
-0.00888257
0.0333233
-0.0132283
-0.0189616
-0.0106483
-0.00503708
-0.00739543
-0.00233273
-0.00926592
0.00588688
-0.00105881
-0.00991123
0.00641649
-0.00247278
-0.00868034
0.00449579
-0.00292877
-0.00626826
0.00288081
-0.00300489
0.00199026
-0.00270014
-0.00913465
0.00587018
0.0101332
-0.00497487
-0.00431998
0.00658112
-0.00533447
0.00614194
-0.00654123
0.00682287
-0.00665597
0.00586485
0.00727564
-0.00589865
0.00534321
0.00724356
-0.00476674
0.00469425
0.0121789
-0.0126759
0.00754587
0.0224408
-0.0339551
0.0319049
-0.040149
0.0398773
-0.0408114
0.0460292
-0.0379384
0.0470464
-0.0310512
0.0452042
-0.0191761
0.0312369
0.00353841
0.0162747
0.0139141
0.0155261
0.00265087
0.0121233
0.00278038
0.00502952
0.00591965
0.00114454
0.00440951
0.000793863
-0.000186228
0.00422655
0.000272573
-0.000103251
0.00338035
0.000872697
-3.97304e-05
0.00144859
0.000605551
0.00131528
0.000538876
0.000240977
0.000663367
0.00044525
9.05607e-05
0.000307402
4.49778e-05
9.11937e-05
0.00022442
-4.74432e-05
0.000129714
0.000344
-0.000128098
7.87614e-06
0.000571285
-0.000182876
-4.53058e-05
0.000794159
-0.000179679
-4.43675e-05
0.00106353
-4.49378e-05
-0.000225684
0.00088773
-6.06103e-05
0.000235382
0.00130834
-4.41287e-05
0.00218021
5.42587e-05
0.0030775
0.000106619
0.0037686
0.000272846
0.00406128
0.00045847
0.00398742
0.000632777
0.00377238
0.000721928
0.00302712
0.000705269
0.00173668
0.000634045
1.95253e-05
0.000625411
-0.00181643
0.000190022
-0.00290113
0.000205081
-0.00275228
-9.39837e-05
-5.58871e-05
-0.00172165
-1.69994e-05
-0.00101489
-0.0010503
3.97975e-05
-0.000712318
-0.000579363
5.59116e-05
-0.000527751
-0.000327512
8.90004e-05
-0.000341494
-0.000403662
0.000263827
-0.000188388
-0.000146255
0.000374398
-0.000646476
0.000458499
4.12711e-05
-0.000241386
0.000301022
0.000555454
0.000454554
-0.00212103
0.000611572
0.000812271
0.00113045
-0.0027382
0.000949768
0.00111086
0.00115831
-0.00247515
0.00123629
0.00120917
0.00206484
-0.00383151
0.001344
0.00157905
0.00195604
-0.00286205
0.00142012
0.00154889
0.00430068
-0.00534964
0.00290106
0.00504954
0.00412409
0.00297111
-0.00206152
0.00397518
0.00178766
-0.000996222
0.0048058
0.00162693
-0.00110952
0.00485808
0.00235242
-0.00120819
0.004607
0.00201486
-0.000995757
0.00411098
0.00102922
-0.000209069
0.00330332
0.000247223
0.000473637
0.00243535
-0.000378166
0.000760715
0.00163547
-0.00160543
0.00132699
0.000936499
-0.00276393
0.0019578
0.000119968
-0.00289703
0.00216346
-0.000851057
-0.00245422
0.00205751
-0.00103251
-0.00068569
0.00037847
-0.000641233
0.000664424
-0.00047954
0.000654868
-0.000362417
0.00408228
-0.00245693
-0.00327081
-0.00124112
0.00418941
0.00449697
-0.00146401
0.0025919
0.00627321
-0.000724383
0.00158681
0.0198131
-0.00528734
-0.0120603
0.00383258
0.0156949
-0.00726323
0.00604566
0.01148
-0.0067133
0.00571987
-0.00985646
-0.00143365
0.0253591
-0.00848116
-0.0168054
-0.0100558
0.0160781
-0.0181065
-0.0395321
0.05905
-0.0291358
0.0269771
0.0426664
-0.0500884
0.0588924
0.00746252
-0.0575978
0.0666994
-0.00883182
-0.0590341
0.0702542
-0.0161985
-0.0565736
0.0704362
-0.0212022
0.0644109
-0.0320094
0.0694706
0.0835922
-0.0274432
0.0687912
0.0841348
-0.0140461
0.0640142
0.0813183
-0.0072986
0.0509307
0.0775785
0.00120439
0.017412
0.0711619
0.0202503
-0.0379736
0.0321409
0.0492096
-0.0367109
-0.0466034
-0.0222794
0.0484779
0.013989
-0.0192722
-0.0116758
-0.0198732
-0.0186509
-0.0155025
0.00747239
-0.0243911
-0.00740222
0.00558999
-0.022472
0.0063419
-0.0272577
-0.0084105
0.0058285
-0.0119602
-0.0151885
-0.00714388
0.00164779
0.00401241
-0.0116251
-0.00423625
-0.000134472
-0.0099614
0.00116569
-0.00982732
-0.00395605
0.00233809
-0.00369951
-0.0068727
-0.00418653
0.00245665
0.00320477
-0.00473985
-0.0031525
0.000984235
0.00211414
-0.00372907
0.00154533
-0.00146417
0.00164846
-0.00338966
-0.00347999
0.00294758
-0.00516176
-0.00318021
0.0020524
-0.00728324
-0.00311585
0.00247037
-0.00908534
-0.00227236
0.00246608
-0.0100754
-0.00181212
0.00242104
-0.0115921
-0.00107265
0.00283356
-0.0118038
-0.000545415
0.00178341
-0.0111672
0.000924131
0.000451098
-0.010275
0.00183846
-0.000381152
-0.00922441
0.00297196
-0.00239932
-0.00896369
0.00275332
-0.00122944
0.0101857
0.00622262
-0.0161409
-0.00122695
0.00945635
0.00324798
0.000231137
0.0111934
0.00266202
-0.00143064
0.012391
0.000801406
-0.00016363
0.0124874
-0.000310129
0.00113475
0.0114709
-0.00115663
0.00162469
0.010607
-0.00195507
0.00174352
0.00966779
-0.0027156
0.00183991
0.008714
-0.00323817
0.00191664
0.00712264
-0.00343972
0.00191207
0.00574318
-0.00339774
0.00159396
-0.00381264
0.00234318
-0.00673169
-0.0037911
0.00196663
-0.00779216
-0.00474029
0.00239951
-0.00875412
-0.00431641
0.00183547
-0.00974093
-0.00409024
0.00183585
-0.0107607
-0.0035133
0.00181454
-0.0114249
-0.00288931
0.00159542
-0.0120114
-0.00162114
0.00104802
-0.0124527
-0.000170058
0.000297996
-0.0117501
0.00138799
-0.00129266
-0.00970808
0.00143476
-0.000818436
-0.00931444
0.00217796
0.000672544
0.0118411
0.00311623
-0.0188151
0.00074808
0.00904038
0.0046148
0.000359981
0.0129349
-0.00166251
-0.000801208
0.0116193
0.00357327
-0.000873715
0.0158459
-0.00353703
-0.000863706
0.0122946
0.00159449
0.000331566
0.015114
-0.00562807
-8.48024e-05
0.0110392
-0.000648364
0.00120571
0.0128583
-0.00673786
0.000824391
0.00853055
-0.00196305
0.00197028
0.00842451
-0.00645164
0.00181335
0.00527433
-0.00218121
0.00153638
-0.00535068
0.000595867
0.0113823
-0.0073523
-0.0139231
0.00234414
0.011805
-0.00599632
0.00137036
-0.00504652
0.00125084
0.012596
-0.00511097
-0.0130144
0.000463369
-0.00565984
-0.00119165
0.0137996
-0.00436275
-0.013378
-0.00174156
0.0296036
-0.0047625
-0.0189323
0.000646277
-0.00773316
0.00443626
0.024928
-0.00661167
-0.0301153
0.00397679
-0.00671281
0.00489578
0.0122778
-0.00312327
-0.0185252
0.00261206
-0.0298466
-0.0162495
-0.0228689
-0.0185625
0.00836694
0.00484541
-0.0397352
0.00255075
0.00935244
-0.0231962
0.0028353
0.0062977
-0.00581027
-0.0277752
0.00401346
-0.0315338
0.00286555
0.00804487
-0.000170139
-0.0324126
-0.00636993
-0.000722019
-0.0134546
-0.00181832
0.0046892
-0.0185648
0.000228836
-0.0141233
0.000303636
0.00558682
-0.015618
-0.0051331
0.00102187
-0.014352
0.000909836
-0.0167874
-0.00634626
0.0014114
0.00773215
-0.0200543
-0.0063285
0.00184552
-0.0181204
0.0034989
-0.0215081
-0.00642662
0.00241237
-0.0224222
-0.00362031
0.000485128
-0.0208849
-0.000464431
-0.00105249
-0.0192745
0.00229643
-0.000971604
-0.0187521
0.00375168
-0.00117464
-0.00504331
0.00436044
-0.0173204
-0.000768333
-0.00641653
-0.0165965
-0.000865287
-0.00744047
-0.0150264
-0.000109977
-0.00580451
-0.011588
0.00172241
-0.00390493
-0.00925967
0.00103807
-0.00688675
0.000591502
-0.00930394
0.00433799
-0.000335995
-0.00668323
-0.00133234
-0.000669577
-0.00471624
-0.000324412
0.00560557
-2.33356e-05
0.0151058
0.00978655
-0.0309413
0.0108174
-0.000606072
-0.00457198
0.0070265
0.00104101
0.000274816
-0.0043159
0.00468606
-0.00791723
0.00902678
-0.0012235
-0.00171574
0.00637912
-0.00136819
-0.00796538
-0.00117739
0.00530049
-0.00631336
-0.00191145
0.00565141
0.00189658
-0.00683054
-0.00234398
0.00559083
-0.00699037
0.0018145
-0.00253146
0.0054784
-0.00701796
0.00170907
-0.00250765
0.0053575
-0.0069554
0.00155603
-0.00238036
0.00526774
-0.00689091
0.00147784
-0.00229481
0.00514794
-0.00670577
0.00145423
-0.00225422
0.00507562
-0.00656202
0.00142783
-0.00212633
0.00473378
-0.00619313
0.00131417
-0.00200775
0.00407653
-0.00493599
0.000725405
-0.00177679
0.00524971
-0.00773827
0.00223396
-0.0116667
0.00366743
-0.0260687
0.0136792
-0.0220275
-0.0248503
0.011542
-0.0275311
0.00507496
-0.0780633
0.0411726
-0.0178333
-0.0877797
0.0282757
-0.0890959
0.0230109
-0.11709
0.0201924
0.0131544
-0.130532
0.0156925
0.00378527
-0.137724
0.0146052
-0.00310868
-0.140051
0.0146333
-0.00888958
-0.137485
0.0160348
-0.0154236
-0.129154
0.0196905
-0.0243999
-0.11419
0.0236958
-0.0366435
-0.0458043
-0.0400548
0.0253189
-0.0660341
-0.00665283
0.00980846
-0.0283479
-0.020829
-0.01765
-0.00620597
-0.0161288
-0.00243819
-0.0131705
0.00861176
-0.0095472
-0.00433416
0.00493828
-0.011373
0.000483265
0.00168929
-0.00649479
0.00140383
-0.00297424
0.00593965
0.00183523
-0.00648052
0.00981074
0.00197334
-0.00596816
0.0127538
0.00167955
-0.00475883
0.0201658
0.00359424
-0.0111864
0.0347312
0.0152605
-0.0301111
0.0300452
0.0322474
-0.0278503
0.0250632
0.021352
-0.016556
0.0227976
0.015569
-0.0134522
0.0195817
0.0135118
-0.0104319
0.0157759
0.0120948
-0.00840621
0.00952391
-0.00350761
-0.0147141
0.0142944
0.000208196
-0.0183125
-0.00254218
0.0181207
-0.0207545
0.0196829
-0.0038562
-0.0215395
0.0213691
-0.00514957
-0.0159415
0.0218026
-0.00618744
-0.0553385
0.0382122
0.056743
-0.023907
-0.0218151
-0.0201513
-0.0451837
0.0464755
-0.0191623
-0.0072448
0.0256642
-0.0212632
-0.0155513
-0.00759002
0.0196602
-0.0158612
-0.0100375
-0.00722889
0.0183116
-0.016768
-0.00616886
0.0161964
-0.0152815
0.00586238
-0.00861977
0.00992937
-0.00944776
0.0125817
-0.00869606
-0.0113586
-0.0036707
-0.00282768
-0.00271812
-0.00215202
-0.00110584
-0.00140345
-0.00116388
-0.00199645
0.00211629
-0.00122881
0.00247312
-0.00253758
-0.00193643
0.00278045
-0.00171409
-0.00446498
0.000583267
0.00382299
0.00317787
0.00532916
-0.0155236
0.00294048
-0.000375708
-0.00780034
0.00509016
-0.00564202
-0.000783313
-0.00717834
0.000144707
0.0271122
-0.00881687
-0.0132509
-0.00593682
0.00671262
0.0139681
0.00638994
0.0377632
0.00673229
-0.0378526
0.00906781
-0.00160417
0.0302211
-0.0186775
-0.00242257
0.000334473
-0.00675785
0.00799856
-0.000917067
0.00283561
-0.00321855
0.01599
-0.00645083
0.00413968
0.0102214
0.00969986
-0.0106739
-0.0105865
-0.00679411
-0.00750989
0.00817672
-0.0101008
-0.00217239
-0.00660787
-0.0314236
-0.0189678
0.0413797
0.00641989
-0.000160856
-0.00250297
-0.0686868
0.03333
-0.00785238
-0.0214191
0.00652763
-0.0201323
0.00394676
0.00317333
-0.000597389
0.00322162
-0.00145133
-0.0026048
-0.000971436
-0.000352817
-0.00219909
0.00146775
0.00252922
0.00165818
-0.0290451
0.015176
-0.0109641
-0.0109485
-0.0102577
0.0793643
0.0470245
0.0338341
-0.0158798
-0.0150247
-0.014169
0.0226885
0.0270771