/*--------------------------------*- C++ -*----------------------------------*\
| =========                 |                                                 |
| \\      /  F ield         | OpenFOAM: The Open Source CFD Toolbox           |
|  \\    /   O peration     | Version:  v2012                                 |
|   \\  /    A nd           | Website:  www.openfoam.com                      |
|    \\/     M anipulation  |                                                 |
\*---------------------------------------------------------------------------*/
FoamFile
{
    version     2.0;
    format      ascii;
    class       volScalarField;
    location    "1040";
    object      k;
}
// * * * * * * * * * * * * * * * * * * * * * * * * * * * * * * * * * * * * * //

dimensions      [0 2 -2 0 0 0 0];


internalField   nonuniform List<scalar> 
18258
(
0.0333964
0.0157401
0.0122941
0.0101474
0.0109722
0.0139634
0.0167559
0.0211126
0.0255242
0.0314597
0.0385291
0.047466
0.0534747
0.0606382
0.0636313
0.0619423
0.0521114
0.0473665
0.0567306
0.0811295
0.0709104
0.0513374
0.0620687
0.0614756
0.0726947
0.0769828
0.06066
0.0552816
0.0498083
0.044117
0.0376444
0.0237832
0.0239773
0.0286302
0.0319351
0.0356839
0.0385847
0.0409789
0.0425916
0.0434038
0.0433143
0.0420181
0.0393226
0.0352054
0.0296536
0.0235237
0.0224432
0.0244967
0.0302933
0.0356181
0.040927
0.046443
0.0547949
0.0447904
0.0290792
0.0392806
0.0477746
0.0546666
0.0590859
0.0615239
0.0622751
0.0613497
0.059048
0.0557775
0.051807
0.0474609
0.0434389
0.0394507
0.0342048
0.0309437
0.0268333
0.0234901
0.0210515
0.0193405
0.0182231
0.0172182
0.0163513
0.015617
0.0150004
0.0145761
0.0144853
0.0145128
0.0146147
0.0147127
0.01506
0.0127094
0.0109359
0.0104689
0.0102136
0.00956153
0.0081018
0.010654
0.0117587
0.0121744
0.0124441
0.0136231
0.0147786
0.0143516
0.0136275
0.0125178
0.0125122
0.016995
0.0177801
0.0228093
0.0216192
0.0167736
0.0148866
0.0166691
0.0195043
0.0225438
0.0192673
0.0192467
0.0179469
0.0170357
0.0148911
0.0149338
0.0144225
0.0141148
0.0150398
0.0177987
0.0172062
0.0173144
0.0185399
0.0188645
0.020094
0.0211097
0.0204494
0.0202644
0.0164101
0.0163094
0.0173499
0.0172229
0.0177037
0.0201971
0.0202545
0.0206013
0.0208189
0.0236056
0.0236241
0.0235866
0.0236777
0.0245026
0.0235497
0.0231401
0.0231711
0.023207
0.0210409
0.0208173
0.0204519
0.02049
0.0183251
0.0175875
0.0183188
0.0192991
0.0212753
0.025029
0.0314666
0.0403908
0.0504887
0.060733
0.0685066
0.0728675
0.0772383
0.0767041
0.0774104
0.0795178
0.0798971
0.0787649
0.0769184
0.074761
0.0718176
0.0671936
0.0667302
0.0590765
0.0481777
0.0334627
0.0389769
0.0418322
0.0445991
0.0449036
0.045382
0.0441527
0.0423587
0.0387451
0.0335744
0.0246547
0.0261495
0.0305694
0.0351845
0.0389378
0.0430732
0.0466217
0.0483467
0.0499524
0.0591498
0.057092
0.0552678
0.0571326
0.0586457
0.0617925
0.0601325
0.056233
0.0504761
0.0521597
0.0453658
0.0340902
0.03188
0.0297767
0.0272397
0.0377558
0.0496155
0.0614105
0.0678643
0.0740548
0.0789384
0.0829833
0.0875234
0.0820507
0.0768627
0.0580259
0.0843368
0.0663692
0.0511443
0.0419617
0.034269
0.0299734
0.033307
0.0336793
0.0320277
0.027367
0.0217762
0.0233562
0.0359938
0.0457595
0.0537989
0.0554553
0.0601663
0.0625405
0.0572194
0.057806
0.0468741
0.048015
0.0517819
0.0466165
0.0442466
0.0356696
0.0279495
0.0338193
0.0503395
0.0690061
0.0850679
0.100128
0.0666829
0.0508672
0.0418017
0.0350655
0.0336275
0.03818
0.044108
0.0532396
0.0413224
0.0373342
0.033877
0.0310442
0.0254171
0.0272156
0.0282976
0.0267807
0.049991
0.0582729
0.0617674
0.084063
0.0925196
0.108521
0.107527
0.0929351
0.0963651
0.0690175
0.0689752
0.0865922
0.068518
0.0515095
0.0617381
0.074616
0.0884601
0.101663
0.113008
0.122114
0.123754
0.112211
0.0813357
0.0468298
0.0213089
0.0186506
0.0180936
0.0173856
0.0164988
0.015708
0.0150944
0.0121489
0.00950982
0.00927986
0.00945873
0.00940366
0.00826608
0.00951451
0.0115759
0.0137703
0.0152804
0.0164913
0.0175131
0.0182487
0.0188384
0.019238
0.0195361
0.0198047
0.0200406
0.0202269
0.0203647
0.020455
0.020497
0.0204825
0.0204054
0.0202641
0.020057
0.0197683
0.0192945
0.0177661
0.0159111
0.0150785
0.0151366
0.0148862
0.0145825
0.0119478
0.0123251
0.0143412
0.0149751
0.0177692
0.0198067
0.0215113
0.0229662
0.0244942
0.025272
0.0261029
0.0263713
0.0264274
0.0263316
0.0261877
0.0259719
0.0256823
0.0246322
0.0213047
0.0249015
0.0272964
0.0289785
0.0303264
0.0312253
0.0313327
0.028606
0.0360324
0.0385208
0.0394282
0.0396872
0.0388662
0.0368657
0.0344334
0.0323914
0.0308867
0.0297714
0.0276341
0.0253874
0.0230767
0.0206586
0.0174319
0.0186982
0.0205387
0.0207496
0.0204597
0.0215084
0.022769
0.0211153
0.019029
0.0161367
0.0151362
0.0146384
0.0144422
0.014839
0.0145043
0.014412
0.0149163
0.0179362
0.0190308
0.0207351
0.0239906
0.0228535
0.0209056
0.0280792
0.0296999
0.0301503
0.0304962
0.0304032
0.0296485
0.0265587
0.0251023
0.0264895
0.0250321
0.0243991
0.0244869
0.0241188
0.022252
0.0245557
0.0265585
0.0281486
0.0289951
0.0302366
0.0317893
0.0339472
0.035736
0.0373913
0.0383991
0.0383934
0.037883
0.0380856
0.0387727
0.0385171
0.0368057
0.0347245
0.0326285
0.0296737
0.0294379
0.0314108
0.0329741
0.0346363
0.0364128
0.0357001
0.033817
0.0321913
0.0307707
0.0290602
0.0289265
0.0306024
0.0320451
0.03378
0.0358904
0.0360508
0.0339198
0.0321071
0.0306055
0.028904
0.0288639
0.0305625
0.0320714
0.0337895
0.0356677
0.0347953
0.0333312
0.0318131
0.0303485
0.0286859
0.0282433
0.0298463
0.0312266
0.0325377
0.0335992
0.0319264
0.0313385
0.0302697
0.0288812
0.0271227
0.0258656
0.0263749
0.0277641
0.0278748
0.0283529
0.0294709
0.0293167
0.0290336
0.028987
0.0287052
0.0264581
0.0268658
0.0269161
0.0276092
0.0309127
0.0304345
0.0331166
0.0355396
0.0332269
0.0317291
0.0281464
0.0337242
0.0337699
0.0347366
0.0335623
0.023772
0.0219129
0.0229114
0.0244492
0.0260954
0.0254083
0.0226489
0.0225929
0.0232051
0.0226233
0.0210654
0.0180732
0.0135711
0.0135802
0.0135734
0.01431
0.0171191
0.0187101
0.018816
0.0186566
0.018351
0.0178766
0.0171576
0.0160836
0.0156201
0.0245729
0.0444504
0.0563575
0.0557786
0.0424231
0.0355129
0.0261933
0.0180657
0.0107302
0.0106942
0.0113578
0.013694
0.0114933
0.010611
0.0146277
0.0118575
0.0197862
0.0229372
0.0302988
0.0413031
0.0398209
0.0301783
0.0204148
0.0184566
0.0193246
0.0198406
0.0202315
0.0206162
0.0210053
0.0214293
0.0219468
0.0216336
0.0189912
0.0167436
0.0168729
0.0174454
0.019955
0.0213342
0.0221244
0.0217854
0.0220254
0.0237528
0.022502
0.0212812
0.021079
0.0203764
0.0232262
0.0235698
0.0229321
0.0229361
0.0232112
0.0230931
0.023227
0.0240369
0.0198381
0.0219476
0.0224965
0.0227793
0.0235756
0.0190673
0.0192564
0.0193199
0.0181623
0.01495
0.0180481
0.0168044
0.0121824
0.0134971
0.0134519
0.0140601
0.0143843
0.0171211
0.0162804
0.0155666
0.0163427
0.0223265
0.0231335
0.023313
0.0206695
0.0194238
0.0219202
0.0225087
0.022048
0.0211595
0.0213268
0.0203808
0.01847
0.0177493
0.0178865
0.0193037
0.0201041
0.0201726
0.0237969
0.0232912
0.0217215
0.0227199
0.0233177
0.0229066
0.0227958
0.0227412
0.0223709
0.0219455
0.0223593
0.0225493
0.0226025
0.0221578
0.022411
0.025059
0.0214763
0.0212852
0.0201993
0.0195404
0.0179081
0.0176519
0.0177498
0.0177094
0.0176146
0.016776
0.0186377
0.0179127
0.0200464
0.021663
0.0228177
0.0239941
0.0241458
0.0237147
0.0236754
0.0232893
0.0232558
0.0227029
0.0218534
0.0212672
0.0204866
0.0192755
0.0192676
0.0192179
0.0190738
0.0204818
0.0203807
0.0219507
0.0230759
0.0227895
0.0218197
0.0217109
0.0205299
0.020507
0.0215523
0.0224458
0.0226965
0.0235649
0.0261151
0.023752
0.0253089
0.0260029
0.0266688
0.026055
0.0249532
0.0257068
0.0240421
0.0229282
0.0242512
0.0249756
0.0262394
0.0270337
0.0250555
0.0240271
0.0228277
0.0219626
0.0209723
0.0184452
0.0190627
0.0198565
0.0210906
0.0229056
0.0256351
0.0283788
0.0313073
0.0313666
0.0290612
0.0273612
0.0321792
0.0316453
0.036629
0.0372402
0.0331012
0.0302817
0.0273601
0.0269386
0.0260173
0.0254811
0.0241961
0.0254465
0.0258749
0.0249278
0.0274083
0.0289893
0.0333283
0.03892
0.0355897
0.032737
0.0377759
0.0366728
0.0426668
0.0364384
0.0347663
0.0286315
0.0332266
0.0355679
0.0433499
0.0339329
0.029741
0.0295041
0.0308154
0.0383174
0.0368702
0.0394881
0.0446374
0.0439736
0.0390701
0.0358364
0.0416333
0.0316582
0.0370796
0.0390959
0.032449
0.0322297
0.0391265
0.0397447
0.0398955
0.0337851
0.0330775
0.0250569
0.03364
0.0401342
0.0400427
0.0332435
0.0260006
0.0359419
0.0315773
0.0313838
0.0313785
0.0269781
0.0269105
0.026199
0.0264561
0.0271758
0.0247211
0.025535
0.0258034
0.0259761
0.0261192
0.0263265
0.0266913
0.0273672
0.0281667
0.0229606
0.0244423
0.0230384
0.0216443
0.0202283
0.024021
0.0264981
0.0283026
0.0297534
0.0308905
0.031391
0.0300608
0.0379728
0.0396376
0.0413416
0.0415245
0.0402907
0.0376128
0.0341481
0.0306174
0.0282473
0.0269015
0.0243306
0.0222308
0.0201977
0.0180778
0.0153309
0.0140591
0.0127411
0.0114327
0.0110841
0.0105305
0.00990883
0.0091655
0.00869505
0.0112411
0.020396
0.0284764
0.0332801
0.0384466
0.0449801
0.0515279
0.0568567
0.0607719
0.0635188
0.0652267
0.065651
0.0630185
0.0528157
0.0479656
0.0432405
0.0383939
0.0333746
0.0323583
0.041502
0.0497268
0.056651
0.062887
0.0669383
0.0653235
0.0498641
0.0470348
0.0628278
0.0902572
0.0810896
0.104011
0.120335
0.0800876
0.0652281
0.0643021
0.0794032
0.0818188
0.0752734
0.0664388
0.0567288
0.0459443
0.0509537
0.0556317
0.0599827
0.0643322
0.0768657
0.0794339
0.0783317
0.0759582
0.0728497
0.0685309
0.061906
0.05328
0.0444186
0.0370453
0.0304082
0.0212656
0.0120393
0.0142313
0.013492
0.0174021
0.0157095
0.00972611
0.00973753
0.00994544
0.00988663
0.0097301
0.00973438
0.0111478
0.0180957
0.0146988
0.0132505
0.0113848
0.0143041
0.0162311
0.0182345
0.0188181
0.0188613
0.01931
0.0336301
0.0438483
0.049664
0.0544446
0.0576384
0.056188
0.0527206
0.0467414
0.0402279
0.0375841
0.0337843
0.0303183
0.0285428
0.0293401
0.0258736
0.0164371
0.0146311
0.015645
0.015435
0.0144614
0.0163656
0.0175534
0.0183026
0.0189077
0.0193611
0.0197103
0.0199601
0.0201266
0.0202152
0.0202437
0.0202261
0.020167
0.0200647
0.0199157
0.0197085
0.0194128
0.0189026
0.0172009
0.0153658
0.0146572
0.0147422
0.0145127
0.0141516
0.0122762
0.0124959
0.014355
0.0149537
0.0145638
0.0151462
0.0156124
0.0168172
0.0190076
0.0211556
0.0230005
0.0216982
0.0210502
0.0210082
0.0205978
0.017333
0.0205998
0.0236013
0.0241337
0.0244227
0.0252393
0.0268378
0.0277914
0.0268464
0.0263202
0.0257721
0.0225401
0.0241184
0.0278141
0.028245
0.0289583
0.0295781
0.0301641
0.0314404
0.0307858
0.0298387
0.0292116
0.0262173
0.0253388
0.031786
0.0205378
0.0139324
0.00994596
0.0106505
0.0107279
0.0102623
0.0109612
0.0114586
0.0117038
0.0112059
0.0122775
0.0131825
0.0125373
0.0151556
0.0143961
0.013294
0.0127908
0.013802
0.0147628
0.015228
0.0160891
0.0260695
0.0267236
0.0225073
0.0288444
0.0314215
0.0289952
0.0317839
0.0293845
0.0279175
0.0306641
0.0342053
0.0356944
0.0333159
0.0317862
0.031335
0.0207857
0.0200863
0.0193929
0.0175344
0.0177442
0.0172528
0.0168042
0.0163987
0.0189866
0.0203559
0.0215421
0.0212259
0.0208852
0.0204101
0.0208085
0.0253692
0.0346476
0.0437984
0.0466753
0.0453591
0.0416261
0.0350868
0.0292449
0.0286954
0.0268112
0.0254757
0.0251711
0.0193526
0.0150102
0.0172327
0.0173376
0.0183741
0.0190214
0.019527
0.0199312
0.0202702
0.020564
0.0208502
0.0211257
0.0213722
0.0215847
0.0217709
0.0219289
0.0220978
0.0222989
0.0225716
0.0227951
0.0211734
0.0185512
0.0172112
0.0170645
0.0177801
0.0186798
0.0198016
0.0190477
0.0153407
0.0154307
0.0218248
0.0222778
0.0209095
0.0194889
0.0197003
0.0188567
0.0226639
0.0224742
0.0232602
0.0230342
0.0227329
0.0224298
0.0221276
0.0218166
0.021517
0.0212568
0.0210247
0.0208146
0.0206137
0.0204171
0.0201406
0.0197188
0.0190315
0.0181929
0.0169972
0.0182934
0.0191171
0.0208059
0.0228854
0.0239195
0.0229755
0.0215862
0.0209083
0.0210937
0.0214196
0.0217767
0.0221579
0.0225973
0.0230416
0.023462
0.0234335
0.0220893
0.0227342
0.0174078
0.0182576
0.0185613
0.0185212
0.0201819
0.0193352
0.0146253
0.0151168
0.0158316
0.0171262
0.0197294
0.0200901
0.0214453
0.0216698
0.0172628
0.0169542
0.0165271
0.0175348
0.0151542
0.015803
0.026588
0.0271633
0.0348878
0.0382741
0.03984
0.033064
0.0454787
0.0523276
0.0504594
0.0408059
0.0234676
0.034565
0.0420724
0.0487298
0.0456796
0.0355353
0.0447975
0.0472311
0.0629825
0.0586587
0.0523205
0.0629826
0.0445732
0.0268448
0.0157693
0.0163431
0.0151572
0.030575
0.0346636
0.0313727
0.0322319
0.0398217
0.0408348
0.0361273
0.0344172
0.0361707
0.0357214
0.0396696
0.0369933
0.0335986
0.0232349
0.0189613
0.0198053
0.0212225
0.0230666
0.0254193
0.0253066
0.0241515
0.0227781
0.021795
0.0207391
0.0182427
0.0175878
0.0195438
0.0211717
0.0225499
0.0240631
0.0248901
0.0257369
0.025904
0.0257961
0.0254702
0.0250362
0.0244739
0.0237818
0.0223689
0.0235706
0.0242508
0.0244736
0.0247652
0.0250893
0.0253755
0.0255256
0.0254153
0.0244516
0.023633
0.0224632
0.0213482
0.0197441
0.0176304
0.0183144
0.0200723
0.0216717
0.0227841
0.0238341
0.0234429
0.0239386
0.0246044
0.024619
0.0244247
0.0241902
0.0240271
0.0241101
0.0247394
0.0264754
0.0263437
0.0293293
0.0304807
0.0278652
0.0265105
0.0257992
0.0253577
0.0251
0.0248838
0.0246764
0.024123
0.0235817
0.0240907
0.0243522
0.0246573
0.0250221
0.0255348
0.0262293
0.0273257
0.0287508
0.0286558
0.0262915
0.0260348
0.0249578
0.0241724
0.0238012
0.0237614
0.0238155
0.0239295
0.0238792
0.0233588
0.0230319
0.0234417
0.0224294
0.0224949
0.021525
0.0201663
0.0187272
0.0172788
0.0166187
0.0351363
0.0351394
0.0455712
0.0422791
0.0369817
0.0469576
0.0598709
0.0519152
0.062535
0.0663097
0.0539001
0.0500498
0.0278012
0.0243401
0.0173503
0.0188729
0.0202164
0.0214211
0.0212343
0.0221544
0.0220335
0.0230017
0.0224594
0.0216812
0.0211278
0.0201134
0.0201711
0.0189016
0.0173595
0.0172254
0.0188703
0.0199199
0.0211008
0.0210842
0.0225445
0.0230455
0.0234356
0.0235767
0.0235595
0.023645
0.0238064
0.024254
0.0249679
0.0254523
0.0256437
0.0261404
0.0258766
0.0255725
0.0251396
0.0248439
0.0245327
0.024254
0.0239555
0.0236711
0.0232324
0.0225721
0.022452
0.0229693
0.0233133
0.023548
0.0236799
0.0236517
0.0234411
0.0231012
0.022751
0.0223745
0.022413
0.0236823
0.0239331
0.0240576
0.0238356
0.0236523
0.0236316
0.0235045
0.0234072
0.0231868
0.0228275
0.0223621
0.0212972
0.0213854
0.0222609
0.0226976
0.0230174
0.0232856
0.0233141
0.0232446
0.0228736
0.02259
0.0222406
0.0216659
0.0208905
0.0184505
0.0189681
0.0196137
0.0204942
0.0213773
0.0221283
0.0226094
0.0228146
0.0228212
0.0226504
0.0222961
0.0215438
0.0215235
0.0220649
0.0222305
0.0221708
0.0218481
0.0211975
0.0202428
0.0190083
0.0177695
0.0168018
0.016357
0.0155983
0.0180584
0.0191318
0.0200988
0.0209714
0.0217831
0.0226389
0.0229472
0.0229913
0.0228436
0.0225853
0.0221796
0.0214158
0.0214109
0.0221065
0.0224901
0.022702
0.022786
0.0225394
0.0218943
0.0203469
0.0189243
0.0177365
0.0166333
0.015487
0.0154316
0.0159403
0.0154385
0.0158036
0.0169068
0.0183895
0.0197672
0.0207866
0.0214071
0.0217088
0.0217465
0.0214187
0.0212355
0.0213584
0.0211505
0.0206436
0.0197646
0.0184718
0.0170066
0.0158102
0.0154873
0.0161615
0.0168121
0.0162044
0.0138169
0.014939
0.0160471
0.0171748
0.0188619
0.0209383
0.0219028
0.0223723
0.0225081
0.0223818
0.0220203
0.0213751
0.0213114
0.0219296
0.0222864
0.0223964
0.0223045
0.0219083
0.0211246
0.0185989
0.0158169
0.0145644
0.0138412
0.0129114
0.0163557
0.0170624
0.0162352
0.0156863
0.0165356
0.0175469
0.0186714
0.0195415
0.0201754
0.0206799
0.0209608
0.0209939
0.0207196
0.0206006
0.0203791
0.0200423
0.0197323
0.0194206
0.018669
0.0178504
0.0168594
0.0179285
0.0185158
0.0177517
0.0144
0.0149573
0.01582
0.0163266
0.0190379
0.0215272
0.0221485
0.0222939
0.0223701
0.0222233
0.0218276
0.0212178
0.0210911
0.0217236
0.0222086
0.0225266
0.0228506
0.0231219
0.0233171
0.021406
0.0180735
0.017336
0.0155294
0.0146979
0.0183152
0.0190049
0.0184887
0.0179246
0.0196279
0.020328
0.0205599
0.0205285
0.0204249
0.0203104
0.0203236
0.0204384
0.0201384
0.0200143
0.0201235
0.020357
0.0203345
0.0201295
0.0195693
0.0188002
0.0176846
0.0195626
0.0212897
0.0209952
0.0169312
0.0174706
0.0184214
0.0179702
0.0207028
0.0225385
0.0229997
0.0229061
0.0225659
0.0220794
0.0215377
0.0209035
0.0206278
0.0211888
0.0217463
0.0217794
0.0218693
0.0218253
0.0212847
0.0211309
0.0205769
0.0203222
0.0195873
0.0190364
0.0183103
0.0204583
0.0236214
0.025801
0.0273889
0.0292712
0.0279375
0.0244663
0.0222307
0.0154012
0.0153957
0.0155999
0.0149413
0.0145497
0.0143615
0.0187078
0.021391
0.0240151
0.0257099
0.0232941
0.0232632
0.0231886
0.0230783
0.022975
0.0228836
0.0226882
0.0235201
0.0412696
0.283062
0.211031
0.236002
0.224698
0.314973
0.0796585
0.0390536
0.0432085
0.0501671
0.0575706
0.0559951
0.0523869
0.0457339
0.0414762
0.0410678
0.0406546
0.0404505
0.0391313
0.0391237
0.0380859
0.0443599
0.0875723
0.119793
0.13377
0.142538
0.152329
0.14794
0.157419
0.149794
0.150518
0.152236
0.156987
0.149672
0.142255
0.138317
0.134034
0.116818
0.117217
0.0989142
0.102769
0.0857419
0.0900671
0.0939441
0.0932895
0.0920629
0.0918101
0.0920392
0.0927951
0.0963021
0.0917618
0.0981472
0.0916363
0.0734985
0.0709164
0.0731491
0.0673865
0.0590211
0.0666015
0.0815579
0.0969366
0.112957
0.0963751
0.120289
0.113815
0.113962
0.108399
0.102196
0.0985146
0.0978615
0.0985047
0.0996246
0.102238
0.104109
0.105662
0.108466
0.116989
0.119169
0.117604
0.100348
0.0853591
0.0937486
0.0985132
0.102297
0.102661
0.098117
0.0958148
0.0892477
0.0876459
0.0819169
0.0794225
0.073814
0.0706136
0.0657874
0.0821479
0.0805159
0.0874708
0.0936833
0.0980534
0.10161
0.103252
0.104397
0.103197
0.10077
0.0959933
0.0941212
0.0894579
0.107628
0.125903
0.128855
0.124384
0.110933
0.105402
0.336248
0.408005
0.409043
0.606383
0.646938
0.835474
0.333187
0.179476
0.191509
0.188169
0.180054
0.176836
0.176507
0.18808
0.197051
0.188458
0.197777
0.176717
0.169946
0.166133
0.193214
0.191357
0.172474
0.150988
0.119705
0.0982785
0.0979939
0.0818753
0.0830304
0.0725091
0.0733036
0.0744448
0.0890441
0.160191
0.203457
0.230071
0.25639
0.316003
0.286652
0.434281
0.34961
0.435802
0.301865
0.325859
0.311774
0.303141
0.301106
0.316919
0.338165
0.297676
0.369624
0.296591
0.6438
0.778717
0.496156
0.457558
0.405891
0.392025
0.382329
0.376882
0.368516
0.484988
0.45023
0.547021
0.50696
0.626598
0.554797
0.564055
0.529718
0.567894
0.586674
0.600672
0.482952
0.529616
0.412568
0.447139
0.373382
0.409134
0.292491
0.291297
0.329652
0.367591
0.392179
0.445983
0.704036
0.599144
0.808483
0.580832
0.702901
0.488709
0.534528
0.510935
0.493181
0.494532
0.522245
0.626468
0.606222
0.690432
0.514654
0.526974
0.516651
0.534009
0.52343
0.558422
0.563098
0.56425
0.562188
0.523389
0.533943
0.532151
0.531955
0.531981
0.532322
0.509559
0.512729
0.505204
0.510985
0.526922
0.514564
0.514494
0.512353
0.504778
0.502727
0.502246
0.504
0.503772
0.508899
0.508769
0.509104
0.512147
0.526851
0.514404
1.81377
0.89727
0.42629
0.336476
0.218789
0.133585
0.0547386
0.0590585
0.0618675
0.0626761
0.0605113
0.0550151
0.0467962
0.0368513
0.0291264
0.0281486
0.0251412
0.0276495
0.0349534
0.0424311
0.0387171
0.0464534
0.0541272
0.0624378
0.0704506
0.0774497
0.0833715
0.0862846
0.0832327
0.0704837
0.0527904
0.0353399
0.0250384
0.0226271
0.0209787
0.0189832
0.0168729
0.0152069
0.0142072
0.0130427
0.0124156
0.0123309
0.0125563
0.0127988
0.0132421
0.0147571
0.0160577
0.0172434
0.0182071
0.0184524
0.0179338
0.0184776
0.0190737
0.0194698
0.0198149
0.0196375
0.0196328
0.0198845
0.0198466
0.0200625
0.0199669
0.0199887
0.0198517
0.0196963
0.0194723
0.0190464
0.0187676
0.0182057
0.0178534
0.0170025
0.0170387
0.0174636
0.0177963
0.0167917
0.0167415
0.0159668
0.0269523
0.0481127
0.0611898
0.0661996
0.0714818
0.0674581
0.0571145
0.0391551
0.0192576
0.0188957
0.0193617
0.0219362
0.0214356
0.0173368
0.0181163
0.0188952
0.0176416
0.0175306
0.0175596
0.019622
0.0202204
0.0215665
0.0220562
0.0224047
0.0226163
0.0225249
0.0226042
0.022286
0.0222724
0.0218682
0.0218431
0.0215276
0.0213037
0.0215983
0.0223102
0.0224102
0.0230983
0.0228338
0.0225841
0.0220379
0.021649
0.0208066
0.0198975
0.0188795
0.0173132
0.0168639
0.0174067
0.0179128
0.0174579
0.0189666
0.0199758
0.0196501
0.0245741
0.0228223
0.0203678
0.0229105
0.0185137
0.0186701
0.0182902
0.0172128
0.0177596
0.0172741
0.0171521
0.0174596
0.0177276
0.0189128
0.0198833
0.0205058
0.0213571
0.0219942
0.0226904
0.02384
0.0240887
0.0230443
0.0228303
0.0216351
0.0209572
0.0206356
0.0215554
0.0228492
0.0228021
0.0237548
0.0235591
0.0223646
0.0215704
0.0207243
0.0197574
0.0191114
0.0183422
0.0176081
0.0172096
0.01641
0.0165371
0.0154938
0.0169869
0.0172604
0.019102
0.0173559
0.0170244
0.0226077
0.0284602
0.0443362
0.0323324
0.021224
0.0221975
0.0300553
0.0370969
0.0257185
0.0251292
0.0150072
0.0164144
0.0154254
0.0156687
0.0167461
0.0170246
0.0181897
0.0192382
0.0194688
0.0202099
0.0205476
0.0213132
0.0215666
0.0222915
0.0224809
0.0237118
0.0237679
0.0237871
0.0237568
0.0228992
0.0228198
0.0227881
0.0232635
0.0230693
0.0238297
0.0238709
0.0239974
0.0239504
0.0226504
0.0223333
0.0215718
0.0210623
0.0201616
0.0196196
0.0189096
0.0185309
0.0179059
0.0182162
0.0189298
0.0191277
0.0200395
0.0200578
0.0208021
0.0210057
0.0214685
0.0215989
0.0222585
0.0223943
0.0226571
0.0227115
0.02389
0.0239979
0.0240158
0.0239795
0.023986
0.0241952
0.0241801
0.0241169
0.0240812
0.0239182
0.0237342
0.0235452
0.0246072
0.025309
0.0249349
0.0247131
0.0249769
0.0258182
0.0263703
0.027438
0.0282829
0.0293279
0.0302036
0.0310012
0.0316599
0.0321185
0.0322329
0.0322591
0.0318171
0.0314446
0.0331407
0.0395975
0.0428068
0.0480355
0.0504029
0.0524
0.0531529
0.0519948
0.0526954
0.0514121
0.0516664
0.0504531
0.0500114
0.049171
0.0481571
0.0474247
0.0459504
0.0452109
0.0498065
0.0561849
0.0561915
0.0491759
0.0462551
0.0415913
0.0357848
0.0381683
0.0442751
0.0395619
0.0376874
0.0347071
0.0295476
0.0222833
0.0179303
0.0258361
0.0335148
0.0407128
0.0474952
0.0534813
0.057364
0.0594968
0.061038
0.062723
0.060682
0.0532226
0.0415728
0.0316922
0.0277885
0.0262263
0.0237929
0.020367
0.0184883
0.0174198
0.0162708
0.0149289
0.0140773
0.0138366
0.0140891
0.0142071
0.0155561
0.0168217
0.0168143
0.0179982
0.0178039
0.0183177
0.0189123
0.0193197
0.0199726
0.0199471
0.0189823
0.0193387
0.019604
0.0202894
0.0201938
0.0203716
0.0201667
0.0194536
0.0189455
0.018348
0.0178328
0.0173715
0.0167949
0.0160694
0.0160672
0.0162628
0.0158008
0.0162163
0.0166604
0.0170715
0.0176975
0.0186109
0.0193649
0.0211927
0.0213152
0.0210568
0.0211387
0.0196988
0.0196286
0.01865
0.0184096
0.0200076
0.0198426
0.0181709
0.019564
0.0195771
0.0213702
0.0213856
0.0207096
0.0209122
0.0208185
0.0189968
0.0181096
0.0170354
0.0162566
0.0156644
0.0152623
0.0147915
0.0154263
0.0142088
0.0136319
0.0140912
0.0140652
0.0141308
0.0145222
0.0149531
0.015698
0.0164042
0.0174569
0.0180982
0.0189969
0.0193282
0.0212332
0.0211311
0.0209826
0.0210141
0.0211513
0.021595
0.0208141
0.0207753
0.0209194
0.0209355
0.0209789
0.0209683
0.0191333
0.0189314
0.0180972
0.0177787
0.0168407
0.0164815
0.0158242
0.0155081
0.0151151
0.0149182
0.0233262
0.0255339
0.0256853
0.0398891
0.0200402
0.0200127
0.0344985
0.0173756
0.0231368
0.0236832
0.0247586
0.0259974
0.0226197
0.0308608
0.0212865
0.0234061
0.0241336
0.0253063
0.0128856
0.0198047
0.0374585
0.042625
0.0439409
0.0488693
0.0555163
0.0587077
0.0617411
0.0637668
0.0660299
0.0684735
0.0708709
0.0725992
0.0727412
0.0690412
0.065972
0.0564604
0.0526358
0.0563645
0.0607721
0.0472792
0.0424921
0.0430263
0.0434766
0.0439947
0.0441872
0.0448537
0.0446465
0.0456165
0.0448783
0.0459558
0.0448014
0.0457947
0.0445844
0.0418821
0.0386732
0.0325223
0.0305664
0.0294653
0.0267635
0.0242631
0.0220349
0.0202226
0.0197948
0.0182343
0.0168366
0.016537
0.0152453
0.0155151
0.0167581
0.019922
0.0168293
0.0176568
0.0260563
0.0191417
0.0180287
0.018572
0.0190897
0.0193307
0.0182218
0.0198453
0.022109
0.022124
0.0221943
0.0222131
0.0214106
0.0212448
0.0209885
0.0210523
0.0210842
0.0212187
0.0211921
0.0193676
0.0193114
0.0190394
0.0189027
0.0181117
0.0179443
0.0173574
0.0170256
0.0161785
0.0158837
0.0154345
0.0154964
0.0167545
0.0207355
0.0303416
0.01747
0.0181888
0.0157259
0.0139899
0.026724
0.0248179
0.0287174
0.0268455
0.0395158
0.0264906
0.0232312
0.0242419
0.0297901
0.0297435
0.0327237
0.0425341
0.0331384
0.0283622
0.07402
0.0541366
0.0335083
0.0467289
0.0587953
0.109722
0.127724
0.0560704
0.0565614
0.0622246
0.0631623
0.0630773
0.0535284
0.0493172
0.0415332
0.032041
0.0129111
0.0249904
0.0323588
0.0430477
0.0575254
0.0921767
0.0529492
0.0597737
0.0657089
0.0647715
0.0678536
0.0660238
0.0646664
0.0656334
0.102724
0.111694
0.108097
0.0869183
0.0816501
0.0745954
0.124436
0.139214
0.120048
0.130047
0.136012
0.0824298
0.0305454
0.025007
0.0238837
0.0264726
0.0254124
0.0460254
0.0206632
0.021873
0.0227078
0.027206
0.0302824
0.0528298
0.0233549
0.0255177
0.0324652
0.0349149
0.0458288
0.0275284
0.0281229
0.034413
0.0361892
0.0395344
0.0337316
0.0318593
0.028781
0.0259754
0.0244836
0.0255373
0.0319477
0.0463971
0.027964
0.0283934
0.0301532
0.134493
0.0308244
0.026705
0.0277869
0.0267914
0.0337574
0.0351066
0.111625
0.0356571
0.0167357
0.0154711
0.0159412
0.0167571
0.0173972
0.0180205
0.0184647
0.0191093
0.0194973
0.019655
0.019832
0.0222001
0.0220862
0.0216162
0.0210712
0.0218541
0.0211605
0.0212031
0.0218143
0.0212763
0.0214305
0.0224737
0.0236416
0.0231405
0.0236941
0.0250517
0.0239018
0.0222166
0.0220088
0.0221237
0.0228334
0.0239704
0.0227867
0.0234463
0.0226347
0.0235502
0.0236894
0.0203989
0.0200204
0.0198132
0.0193154
0.0186378
0.018013
0.0173381
0.0166916
0.0162
0.0161501
0.0166949
0.0152175
0.0156512
0.0181016
0.0398847
0.0328527
0.0268543
0.0224216
0.0196679
0.0184645
0.018325
0.0187636
0.0194186
0.0199756
0.0201858
0.020783
0.0246623
0.0245578
0.0257576
0.0246291
0.0259577
0.024894
0.0235733
0.0227033
0.0239071
0.0232204
0.0237105
0.0253109
0.0261372
0.0237706
0.0240303
0.0214546
0.0200569
0.0184557
0.0187953
0.020232
0.0208929
0.0233073
0.0233942
0.0268109
0.0268056
0.0266804
0.0254611
0.024791
0.0262298
0.0247493
0.0258959
0.0247927
0.0261916
0.0273816
0.0277269
0.0270252
0.0262286
0.025361
0.0210779
0.0202771
0.0199721
0.0194845
0.0192265
0.0201674
0.024488
0.0338142
0.0460518
0.0582483
0.0676484
0.0670017
0.0603034
0.0410321
0.0419362
0.0389854
0.0423842
0.0605128
0.0871784
0.0610873
0.114815
0.0889119
0.0527321
0.0629591
0.0749582
0.0841163
0.0900656
0.0911791
0.0777381
0.0572587
0.0502279
0.0526781
0.0848777
0.0835871
0.0824387
0.0779425
0.0824309
0.0802976
0.077612
0.0760317
0.0742347
0.0699581
0.06994
0.0672107
0.0671677
0.0600671
0.0612439
0.0614574
0.0588828
0.0561439
0.0538635
0.0516783
0.04936
0.0454845
0.0442153
0.0417585
0.0400361
0.0366976
0.0361624
0.0356805
0.0335151
0.0319724
0.0307267
0.029474
0.0277866
0.0279566
0.0264047
0.026253
0.0214109
0.0210248
0.0199943
0.0196658
0.0194199
0.0196207
0.0208828
0.0236045
0.0438456
0.0332106
0.0330413
0.0335898
0.0337354
0.039719
0.0464657
0.0704934
0.0652107
0.0716591
0.0613412
0.0637493
0.062951
0.0625781
0.0653052
0.0688793
0.0742253
0.0866919
0.333321
0.513784
0.253076
0.237079
0.246731
0.251645
0.259033
0.338932
0.360091
0.355744
0.360538
0.33051
0.318548
0.196629
0.226058
0.238141
0.237029
0.223907
0.202605
0.393773
0.522649
0.518783
0.523655
0.523767
0.518768
0.522593
0.502915
0.514274
0.501759
0.515023
0.502298
0.52165
0.518911
0.504364
0.501138
0.501158
0.500918
0.501381
0.501557
0.504897
0.506058
0.506109
0.505104
0.504121
0.51452
0.437989
0.123076
0.0856167
0.142568
0.198198
0.162372
0.234545
0.269523
0.194243
0.110493
0.0902592
0.101855
0.125527
0.127012
0.154104
0.201566
0.188637
0.153989
0.154938
0.155695
0.20097
0.192445
0.218703
0.261192
0.254312
0.189559
0.150986
0.150438
0.228654
0.243274
0.238432
0.124012
0.0446497
0.0219649
0.0229029
0.0328899
0.0166113
0.0168714
0.0223699
0.0587084
0.0977914
0.0505739
0.137098
0.138662
0.182321
0.147637
0.178551
0.115706
0.118903
0.0676733
0.0796667
0.0895773
0.0953273
0.0996654
0.0938334
0.217001
0.320755
0.191138
0.561896
0.538334
0.196356
0.21731
0.575977
0.513008
0.503527
0.501786
0.501699
0.50186
0.501817
0.50097
0.500916
0.500729
0.500766
0.500717
0.501164
0.504767
0.520374
0.514592
0.505239
0.501385
0.500825
0.5008
0.500691
0.500731
0.500751
0.500809
0.501018
0.501051
0.501152
0.501672
0.503942
0.512024
0.43534
0.169813
0.182205
0.405938
0.361706
0.5115
0.504622
0.50137
0.500943
0.500856
0.50083
0.500795
0.50097
0.50089
0.501398
0.501232
0.501287
0.502776
0.508254
0.506388
0.442448
0.368791
0.416315
0.329495
0.506663
0.507773
0.503277
0.502901
0.503248
0.503415
0.501515
0.501528
0.500993
0.501061
0.500894
0.501341
0.504755
0.511008
0.34586
0.170739
0.177666
0.257895
0.0878438
0.0907888
0.092727
0.0948335
0.247308
0.442151
0.556155
0.471604
0.475491
0.542589
0.385801
0.3646
0.294288
0.317751
0.402091
0.347307
0.312809
0.25037
0.288695
0.247769
0.303501
0.217923
0.234161
0.22169
0.283025
0.286923
0.287263
0.226703
0.216518
0.271587
0.285777
0.316754
0.218751
0.258916
0.203257
0.192359
0.0871034
0.0892933
0.0812099
0.0712886
0.0710309
0.0791376
0.0775717
0.0837276
0.0807174
0.0843999
0.0815064
0.079509
0.0727497
0.0747858
0.0685944
0.0712509
0.130294
0.166514
0.150366
0.151785
0.179602
0.13107
0.157421
0.153555
0.197628
0.248036
0.227339
0.293138
0.225652
0.275788
0.405847
0.754205
0.4405
0.245168
0.318284
0.33994
0.288678
0.189574
0.449502
0.538312
0.297978
0.360068
1.19543
1.04303
1.78084
0.992484
1.11942
0.671286
0.597764
1.02907
0.654145
0.666649
0.560053
0.573714
0.499832
0.324673
0.324242
0.306057
0.242153
0.281081
0.271768
0.266915
0.296576
0.261748
0.31691
0.352658
0.397346
0.322782
0.285719
0.367302
0.215756
0.291285
0.346776
0.31605
0.260101
0.338514
0.450673
0.422629
0.363805
0.399693
0.510193
0.564064
0.534066
0.453255
0.515061
1.0081
0.965086
0.931897
0.59134
1.93381
1.71965
0.355019
0.139099
0.0969124
0.0366869
0.0225341
0.0182969
0.0179119
0.0490957
0.019565
0.0235763
0.0212513
0.0302539
0.0274429
0.0317334
0.0558221
0.0377842
0.0531631
0.0393781
0.052543
0.0418289
0.0575501
0.0618024
0.0651233
0.0526273
0.0415114
0.0627331
0.0837545
0.0391757
0.10084
0.106569
0.0688259
0.0836989
0.103419
0.0534575
0.166253
0.0577035
0.0574736
0.0685182
0.128489
0.253985
0.086631
0.113207
0.588241
1.53143
0.512456
0.203015
0.165905
0.0415663