/*--------------------------------*- C++ -*----------------------------------*\
| =========                 |                                                 |
| \\      /  F ield         | OpenFOAM: The Open Source CFD Toolbox           |
|  \\    /   O peration     | Version:  v2012                                 |
|   \\  /    A nd           | Website:  www.openfoam.com                      |
|    \\/     M anipulation  |                                                 |
\*---------------------------------------------------------------------------*/
FoamFile
{
    version     2.0;
    format      ascii;
    class       volVectorField;
    location    "1040";
    object      U;
}
// * * * * * * * * * * * * * * * * * * * * * * * * * * * * * * * * * * * * * //

dimensions      [0 1 -1 0 0 0 0];


internalField   nonuniform List<vector> 
18258
(
(-0.176333 0.117511 0.137315)
(-0.0516741 0.246118 0.157104)
(-0.104626 0.214664 0.0961504)
(-0.0382742 0.0704209 0.0839239)
(-0.22597 0.203171 0.0177183)
(-0.158779 0.361953 0.0160246)
(-0.222442 0.0450563 0.0532961)
(-0.340642 -0.0522713 0.0747048)
(-0.447692 -0.105155 0.107787)
(-0.534513 -0.159083 0.145432)
(-0.620401 -0.216683 0.179672)
(-0.686861 -0.271059 0.309254)
(-0.678046 -0.333808 0.35709)
(-0.621802 -0.445104 0.385777)
(-0.487872 -0.542753 0.369522)
(-0.205342 -0.587415 0.340672)
(0.0734913 -0.374753 0.289191)
(0.0778702 -0.163977 0.298129)
(-0.128265 -0.0785986 0.237034)
(-0.402206 -0.273163 0.117294)
(-0.140226 -0.526934 0.293948)
(-0.20099 -0.36641 0.407419)
(-0.306474 -0.738339 0.302164)
(-0.367827 -0.780413 0.262766)
(-0.137453 -0.707299 0.131234)
(0.00278271 -0.644648 0.182717)
(-0.0185308 -0.340416 0.422997)
(0.172906 -0.112896 0.805502)
(0.298187 -0.0952804 0.89376)
(0.31588 0.0577471 0.91529)
(0.316693 0.183553 0.816936)
(0.168276 0.301547 0.112596)
(0.0755166 0.135022 -0.427671)
(0.00875198 0.0827342 -0.719297)
(-0.0691225 0.0788588 -0.894931)
(-0.0592182 0.0745012 -1.07747)
(-0.0721723 0.073427 -1.21642)
(-0.100763 0.0914902 -1.30984)
(-0.14283 0.0828483 -1.35713)
(-0.190923 0.0894808 -1.34318)
(-0.240769 0.0759177 -1.25934)
(-0.287548 0.085262 -1.10589)
(-0.326689 0.0795687 -0.895293)
(-0.35783 0.0808086 -0.641257)
(-0.36757 0.0837287 -0.349)
(-0.350072 0.0780754 -0.152092)
(-0.152267 0.187628 -0.193154)
(0.373754 -0.106576 -0.135195)
(0.64009 -0.132495 -0.155602)
(0.681078 -0.114178 -0.165966)
(0.791398 -0.136026 -0.175606)
(0.817866 -0.13206 -0.193353)
(0.509537 -0.00221503 -0.257375)
(0.260347 -0.137895 -0.217785)
(0.113502 -0.0413595 -0.158584)
(0.283136 -0.00921575 -0.168961)
(0.538764 -0.00221955 -0.173597)
(0.793384 -0.0299643 -0.177895)
(1.09405 -0.03471 -0.175732)
(1.42994 -0.0488798 -0.185182)
(1.76459 -0.0646238 -0.183541)
(2.04873 -0.0811923 -0.166609)
(2.24936 -0.0928666 -0.138142)
(2.34952 -0.0989558 -0.102494)
(2.35623 -0.0962459 -0.0678669)
(2.29589 -0.088543 -0.0411601)
(2.20228 -0.0820243 -0.0244738)
(2.10971 -0.0758864 -0.0176871)
(2.04013 -0.0670633 -0.0186604)
(1.99434 -0.0641702 -0.0233072)
(1.96986 -0.0590085 -0.0257343)
(1.95918 -0.0500886 -0.020198)
(1.94482 -0.039569 -0.00317967)
(1.90126 -0.0247303 0.0244101)
(1.81355 -0.00766633 0.0539979)
(1.69245 0.00974069 0.0773246)
(1.57145 0.0219579 0.0801768)
(1.47868 0.0309596 0.0755187)
(1.40052 0.0380645 0.0708041)
(1.33823 0.0509268 0.0633931)
(1.28735 0.0575824 0.0652176)
(1.19369 0.0446204 0.0788631)
(1.09665 0.0192666 0.110648)
(1.01384 0.000957126 0.128249)
(0.906778 -0.0206745 0.121195)
(0.762795 0.0168784 0.146375)
(0.641936 0.0817686 0.133559)
(0.518308 0.100659 0.134518)
(0.381339 0.118193 0.118922)
(0.224783 0.127416 0.0969182)
(0.120171 0.190119 0.0923197)
(0.122377 0.0102059 0.197868)
(0.164207 -0.100776 0.144238)
(0.113222 -0.129582 0.0401994)
(0.104717 -0.115195 -0.141691)
(0.216952 -0.210472 -0.370347)
(0.263054 -0.233034 -0.555862)
(0.204629 -0.140119 -0.730084)
(0.106271 -0.0821401 -0.716096)
(0.0363466 0.0557407 -0.494457)
(-0.0860615 0.229343 -0.168534)
(-0.215112 0.19615 0.178053)
(-0.234224 0.0654612 0.152143)
(-0.33986 0.0160438 0.16775)
(-0.271391 0.14017 0.176199)
(-0.245011 0.287274 -0.0537893)
(-0.1062 0.161293 -0.40591)
(0.0648248 0.00313404 -0.586721)
(0.334395 -0.0948009 -0.632671)
(0.496599 -0.230474 -0.489658)
(0.351888 -0.21103 -0.280015)
(0.271868 -0.192074 -0.100365)
(0.28308 -0.186642 0.0400549)
(0.280912 -0.140037 0.160624)
(0.225809 -0.0989717 0.191985)
(0.397063 -0.0811968 0.181211)
(0.536168 -0.0631255 0.176825)
(0.58861 -0.0518701 0.164846)
(0.700632 -0.0786003 0.1611)
(0.732824 -0.133626 0.132933)
(0.601207 -0.134185 0.135621)
(0.454706 -0.1517 0.14008)
(0.461653 -0.185835 0.0358917)
(0.611041 -0.162822 0.0518549)
(0.736464 -0.16207 0.0493801)
(0.904974 -0.141742 0.0814521)
(1.08848 -0.109924 0.11098)
(1.18968 -0.0777567 0.148578)
(1.20881 -0.0105953 0.140226)
(1.24597 -0.00897184 0.120665)
(1.33593 -0.00688487 0.140201)
(1.37798 -0.00160335 0.130079)
(1.36953 -0.012445 0.158949)
(1.32899 -0.0481692 0.194221)
(1.3233 -0.0511036 0.191134)
(1.28609 -0.0620154 0.152302)
(1.2794 -0.060223 0.135465)
(1.25859 -0.0478587 0.108678)
(1.25008 -0.0458222 0.110692)
(1.20173 0.00433543 0.109349)
(1.19469 0.0277661 0.13788)
(1.07741 0.136934 0.271475)
(1.22645 0.0528643 0.254106)
(1.21825 0.0200616 0.158967)
(1.26708 -0.0208095 0.128537)
(1.27917 -0.0250069 0.119404)
(1.28947 -0.0381819 0.144599)
(1.30837 -0.0414662 0.18381)
(1.35107 -0.0366815 0.217777)
(1.38693 -0.0366553 0.222697)
(1.42381 -0.0127122 0.183754)
(1.43726 -0.00182651 0.1384)
(1.5135 -0.00645045 0.151541)
(1.6116 -0.0166487 0.159625)
(1.75103 -0.0315661 0.143959)
(1.88331 -0.0541619 0.0491681)
(1.96481 -0.0756299 -0.0712)
(1.98421 -0.0904932 -0.16437)
(1.96677 -0.0965155 -0.200645)
(1.95046 -0.0968587 -0.194624)
(1.96071 -0.0912477 -0.174901)
(2.00786 -0.08276 -0.144537)
(2.08946 -0.0703465 -0.10802)
(2.20074 -0.0601415 -0.084288)
(2.31497 -0.0598046 -0.113167)
(2.39188 -0.060905 -0.17348)
(2.39456 -0.0585346 -0.27726)
(2.28873 -0.0503058 -0.392423)
(2.07335 -0.0426349 -0.483799)
(1.77298 -0.0368201 -0.540263)
(1.4291 -0.0316459 -0.549054)
(1.08293 -0.019338 -0.527848)
(0.794159 -0.0242705 -0.459438)
(0.538191 -0.0154675 -0.415449)
(0.283786 -0.020858 -0.386783)
(0.109305 -0.0394651 -0.360692)
(0.102486 -0.0413292 -0.637148)
(0.0775761 -0.0366984 -0.873184)
(0.0508114 -0.0387949 -1.0576)
(0.0118136 -0.0401719 -1.17609)
(-0.0233802 -0.0278966 -1.21559)
(-0.0600865 -0.0154067 -1.16759)
(-0.0938629 0.00381338 -1.03805)
(-0.11929 0.0282454 -0.818933)
(-0.120838 0.0865035 -0.557572)
(-0.147294 0.131955 -0.0246141)
(-0.194653 0.0235145 0.577131)
(-0.210569 -0.0349378 0.762787)
(-0.228724 -0.00363389 0.930307)
(-0.233863 -0.0470133 1.07148)
(-0.31935 -0.106851 1.13489)
(-0.372114 -0.1146 1.14689)
(-0.37074 -0.235574 1.00556)
(-0.30012 -0.25433 0.771077)
(-0.460625 -0.670582 0.686937)
(-0.484935 -0.548875 0.704761)
(-0.413324 -0.416153 0.83274)
(-0.547874 -0.769477 0.860631)
(-0.681345 -0.834247 0.608356)
(-0.472386 -0.757079 0.799954)
(-0.433736 -0.576037 0.743459)
(-0.781185 -0.526211 0.752023)
(-0.90074 -0.40929 0.862448)
(-0.529509 -0.708011 0.828031)
(-0.439339 -0.577568 0.669309)
(-0.320573 -0.321277 0.409201)
(-0.299882 -0.184434 0.403244)
(-0.283664 -0.148204 0.358017)
(-0.23565 0.106822 0.118199)
(-0.162112 0.299823 -0.416238)
(-0.151524 0.193385 -0.638125)
(-0.132023 0.0301603 -0.912633)
(-0.0869665 -0.0560873 -1.08537)
(-0.0285863 -0.0689583 -1.23329)
(0.0385743 -0.101495 -1.26836)
(0.098356 -0.0983955 -1.23354)
(0.17303 -0.108919 -1.11977)
(0.21713 -0.123325 -0.919988)
(0.261545 -0.146492 -0.705556)
(0.250399 -0.139303 -0.39832)
(0.420867 -0.0478007 -0.637483)
(0.777931 -0.117703 -0.455786)
(0.734483 -0.109752 -0.410374)
(0.637302 -0.076999 -0.402126)
(0.579531 -0.106797 -0.406615)
(0.141913 -0.10202 -0.513816)
(0.186122 -0.117892 -0.896153)
(0.263575 -0.225466 -1.04806)
(0.346357 -0.282922 -0.937611)
(0.389179 -0.351672 -0.49656)
(0.199016 0.0498657 0.12674)
(0.266927 0.12101 0.183741)
(0.429104 -0.326125 0.335395)
(0.516577 -0.529302 0.505525)
(0.546418 -0.522398 0.551644)
(0.413012 -0.235246 0.67859)
(0.472247 -0.337555 0.564057)
(0.487959 -0.609798 0.544286)
(0.705348 -0.67274 0.316911)
(0.747645 -0.489005 0.451849)
(0.799747 -0.346 0.597908)
(0.23631 -0.226251 0.576081)
(-0.23419 -0.269381 0.831403)
(-0.171135 -0.191345 0.68319)
(-0.671824 -0.298988 0.821586)
(-0.468067 -0.183977 0.698321)
(-0.3191 -0.00590956 0.546911)
(-0.21839 0.179126 -0.295613)
(-0.192148 -0.039279 -0.616932)
(-0.0575128 -0.168235 -1.09953)
(0.104806 -0.157024 -1.24982)
(0.276884 -0.0859598 -1.11775)
(0.439594 -0.107751 -0.697034)
(0.510305 -0.0736706 -0.620292)
(0.505889 -0.0443768 -0.608036)
(0.562264 -0.0892427 -0.630929)
(0.600755 -0.122148 -0.722689)
(0.40484 -0.0435453 -0.674919)
(0.362693 -0.0789416 -0.655885)
(0.137048 -0.113547 -0.665526)
(-0.112284 -0.0480704 -0.577034)
(0.297719 0.00834432 -0.586713)
(0.35778 0.0165104 -0.603174)
(0.643825 -0.096181 -0.639208)
(0.573363 -0.0973555 -0.360027)
(0.269701 0.0754676 -0.348961)
(0.268839 0.0566797 -0.221428)
(-0.303008 -0.0367324 0.129314)
(-0.309167 0.145415 0.00144229)
(-0.284386 -0.0238741 -0.445486)
(0.0894467 -0.201709 -0.57256)
(0.364383 -0.28028 -0.566992)
(0.730071 -0.345836 -0.404391)
(0.813558 -0.418375 -0.377156)
(0.774915 -0.290366 -0.295234)
(0.816419 -0.365002 -0.219333)
(0.830985 -0.486864 -0.283392)
(0.74508 -0.433105 -0.277167)
(0.724558 -0.306837 -0.330008)
(0.751137 -0.251928 -0.34086)
(0.797019 -0.311958 -0.211669)
(0.809737 -0.36777 -0.160043)
(0.896001 -0.46425 -0.156275)
(1.16082 -0.630792 -0.117562)
(1.61897 -0.726486 -0.0988702)
(1.99596 -0.672255 -0.0381726)
(2.15235 -0.490245 0.047324)
(2.07229 -0.290988 0.0955408)
(1.90669 -0.162699 0.103232)
(1.80883 -0.0942076 0.0996777)
(1.71182 0.00128108 0.0991675)
(1.57419 0.089929 0.0912941)
(1.43671 0.10858 0.0482775)
(1.33207 0.0589842 0.027559)
(1.24219 -0.00301035 0.021917)
(1.14041 -0.0524458 0.0236923)
(1.05637 -0.0773297 0.0218813)
(0.998535 -0.0612286 0.0175394)
(0.822588 -0.108972 -0.0232834)
(0.717213 0.00381936 0.0106596)
(0.633814 0.0702806 0.0096334)
(0.498095 0.025296 0.00729035)
(0.359783 -0.0592001 -0.0127796)
(0.139278 -0.145955 -0.0319092)
(0.225795 -0.307721 0.00110147)
(0.353433 -0.0817824 0.0120897)
(-0.00236114 -0.229973 -0.00920048)
(0.043139 -0.545842 -0.0504191)
(0.0121269 -0.712454 -0.0525416)
(-0.00791082 -0.876491 -0.053171)
(-0.0258628 -1.0066 -0.0648594)
(-0.0358926 -1.10263 -0.0956573)
(-0.0463613 -1.15711 -0.10493)
(-0.0578628 -1.21455 -0.118075)
(-0.0880914 -1.27646 -0.134077)
(-0.113214 -1.32134 -0.149398)
(-0.137215 -1.35526 -0.162323)
(-0.159272 -1.37711 -0.173396)
(-0.17834 -1.3886 -0.183073)
(-0.193781 -1.39033 -0.189806)
(-0.205945 -1.38327 -0.193676)
(-0.215976 -1.36856 -0.193803)
(-0.224523 -1.34668 -0.191885)
(-0.23279 -1.31627 -0.186434)
(-0.240443 -1.27543 -0.178069)
(-0.245887 -1.22122 -0.165015)
(-0.243786 -1.15208 -0.147264)
(-0.190917 -1.07259 -0.126863)
(-0.141212 -0.969829 -0.112476)
(-0.165719 -0.869227 -0.0794057)
(-0.189719 -0.755161 -0.0818083)
(-0.204913 -0.543589 -0.0854074)
(-0.273538 -0.450652 -0.0919075)
(0.0227654 0.0529058 -0.116074)
(-0.35086 -0.308674 0.0252857)
(-0.23164 -0.617838 -0.0544341)
(-0.270343 -0.0993864 -0.0109167)
(-0.458013 -0.182601 0.0646342)
(-0.678814 -0.198763 0.0822589)
(-0.842414 -0.209324 0.114054)
(-0.95399 -0.223165 0.144173)
(-1.0349 -0.232555 0.203757)
(-1.11836 -0.244348 0.245276)
(-1.18766 -0.244217 0.302035)
(-1.20136 -0.248418 0.336331)
(-1.17436 -0.25015 0.366275)
(-1.10734 -0.248832 0.394611)
(-0.996388 -0.243124 0.422841)
(-0.841516 -0.230083 0.454331)
(-0.667229 -0.205767 0.493891)
(-0.420147 -0.146683 0.543571)
(-0.135577 -0.11929 0.568318)
(-0.152461 0.0284018 0.823746)
(-0.155269 0.082918 1.04303)
(-0.154922 0.115012 1.11214)
(-0.156209 0.163827 1.02026)
(-0.160688 0.15317 0.837164)
(-0.14933 0.131304 0.566741)
(-0.12445 0.143365 0.284788)
(-0.225955 0.438829 0.370195)
(-0.507826 0.466896 0.334813)
(-0.693208 0.480014 0.33877)
(-0.918299 0.464853 0.332342)
(-1.10063 0.424316 0.308429)
(-1.22788 0.352992 0.265779)
(-1.28367 0.273178 0.218722)
(-1.26651 0.206042 0.181541)
(-1.23345 0.147839 0.158304)
(-1.19046 0.115153 0.140417)
(-1.10097 0.0924494 0.0902486)
(-0.959082 0.0450946 0.0699041)
(-0.767594 -0.0207663 0.0594895)
(-0.501014 -0.11402 0.0190192)
(-0.253277 -0.207827 -0.0189664)
(-0.274194 -0.197581 -0.0662616)
(-0.318485 -0.177011 0.0081783)
(-0.3147 -0.174211 0.0595317)
(-0.272847 -0.156697 0.150798)
(-0.381157 -0.233975 0.11846)
(-0.423124 -0.297232 0.118585)
(-0.327213 -0.288321 0.177338)
(-0.270164 -0.215458 0.0455077)
(-0.140962 -0.10108 -0.0257395)
(-0.141087 -0.0770298 -0.00704924)
(-0.138645 -0.0743959 -0.0353395)
(-0.169343 -0.0558506 -0.0678477)
(-0.167919 -0.50184 -0.148536)
(-0.126255 -0.480148 -0.13794)
(-0.110781 -0.447551 -0.0952893)
(-0.100605 -0.424476 -0.145504)
(-0.26694 -0.538677 -0.0313896)
(-0.276841 -0.576233 -0.0256353)
(-0.284391 -0.632685 -0.0837257)
(-0.337846 -0.583395 -0.0198073)
(-0.340669 -0.530525 0.0553036)
(-0.302025 -0.359522 0.0855556)
(-0.445021 -0.317337 0.114929)
(-0.362089 -0.432222 0.0404506)
(-0.348022 -0.523217 0.0140904)
(-0.37848 -0.508872 -0.0236345)
(-0.429078 -0.394852 0.0321763)
(-0.497867 -0.346923 0.0731882)
(-0.529532 -0.255127 0.16401)
(-0.59188 -0.215675 0.24161)
(-0.680827 -0.197775 0.256202)
(-0.577043 -0.206936 0.211794)
(-0.517271 -0.187971 0.181339)
(-0.545554 -0.185086 0.117934)
(-0.5401 -0.172163 0.0919273)
(-0.496545 -0.184327 0.000766046)
(-0.762272 -0.0867685 0.0645491)
(-0.97256 -0.0054349 0.0896395)
(-1.08031 0.052082 0.103504)
(-1.12956 0.0749856 0.138086)
(-1.16724 0.0357942 0.237867)
(-1.25205 0.0689644 0.267105)
(-1.31818 0.119396 0.348956)
(-1.33182 0.17088 0.431572)
(-1.27453 0.221983 0.523954)
(-1.14963 0.261019 0.603512)
(-0.976941 0.281402 0.647918)
(-0.776464 0.283866 0.656818)
(-0.623292 0.289185 0.643814)
(-0.341682 0.272969 0.64329)
(-0.435002 0.24591 0.874171)
(-0.466986 0.22872 1.00271)
(-0.459947 0.18101 1.08104)
(-0.44069 0.124886 1.013)
(-0.439371 0.0595297 0.797817)
(-0.711055 -0.00456697 0.744148)
(-0.721658 0.0721122 0.94429)
(-0.740324 0.117885 1.02333)
(-0.745201 0.165009 0.979327)
(-0.695232 0.199442 0.872227)
(-0.838687 0.186843 0.862143)
(-0.880243 0.14648 0.964943)
(-0.882921 0.0887937 1.00111)
(-0.873181 0.0424162 0.926269)
(-0.866848 -0.0386558 0.706963)
(-1.01036 -0.0600144 0.67585)
(-1.02501 0.0208542 0.901114)
(-1.03812 0.0698883 0.966283)
(-1.04658 0.122406 0.944071)
(-1.02189 0.174295 0.853891)
(-1.16566 0.163144 0.803937)
(-1.16602 0.110834 0.892719)
(-1.14906 0.0573832 0.91464)
(-1.13175 0.0067015 0.85951)
(-1.1115 -0.0728593 0.64015)
(-1.17172 -0.0835632 0.595547)
(-1.19745 -0.00605493 0.796949)
(-1.22399 0.0437676 0.840143)
(-1.25358 0.091975 0.811526)
(-1.27139 0.141449 0.71685)
(-1.32092 0.11089 0.610233)
(-1.29231 0.0689109 0.70931)
(-1.25368 0.0250655 0.747324)
(-1.21808 -0.0216484 0.716481)
(-1.18774 -0.0934172 0.539815)
(-1.15449 -0.104702 0.472744)
(-1.18285 -0.0413696 0.621463)
(-1.22189 0.000204334 0.640814)
(-1.27641 0.039151 0.606529)
(-1.30963 0.0742427 0.509235)
(-1.22647 0.0356484 0.414436)
(-1.18957 0.00282293 0.500225)
(-1.12968 -0.0322285 0.531294)
(-1.08726 -0.0601251 0.520301)
(-1.04074 -0.111812 0.386814)
(-0.919715 -0.120208 0.31524)
(-0.924066 -0.109446 0.358196)
(-0.973662 -0.0804434 0.43838)
(-0.957638 -0.0871012 0.425197)
(-0.928825 -0.102728 0.394858)
(-1.00569 -0.0685293 0.381576)
(-0.997398 -0.0631425 0.307579)
(-1.0021 -0.0392429 0.282926)
(-1.04523 -0.0272234 0.209202)
(-1.04022 -0.00956778 0.202476)
(-0.807142 -0.105276 0.145396)
(-0.820068 -0.125318 0.15796)
(-0.789062 -0.12855 0.216423)
(-0.825034 -0.141623 0.2496)
(-0.610881 -0.281998 0.133273)
(-0.557728 -0.291774 0.115073)
(-0.504177 -0.327225 0.132759)
(-0.420708 -0.400008 0.116332)
(-0.397303 -0.3844 0.149808)
(-0.488602 -0.284508 0.165587)
(-0.606659 -0.239292 0.183952)
(-0.616121 -0.268099 0.0970624)
(-0.514149 -0.378289 0.0442517)
(-0.440102 -0.460631 0.0283309)
(-0.397723 -0.526832 0.0580467)
(-0.38427 -0.698501 0.122494)
(-0.387415 -0.663885 0.128186)
(-0.405838 -0.380694 0.107185)
(-0.408881 -0.536982 0.0817082)
(-0.399734 -0.602468 0.0440446)
(-0.216096 -0.788971 -0.158468)
(-0.193676 -0.794805 -0.259515)
(-0.115508 -0.704594 -0.369291)
(-0.0786323 -0.624666 -0.385287)
(-0.0452495 -0.589561 -0.347575)
(-0.0138447 -0.556701 -0.301326)
(0.0313967 -0.502676 -0.232106)
(0.12414 -0.456196 -0.10898)
(0.124711 -0.581057 -0.121966)
(0.116806 -0.637659 -0.120258)
(0.0848097 -0.695735 -0.15771)
(0.092178 -0.750455 -0.155797)
(0.100318 -0.807006 -0.174914)
(0.118045 -0.83533 -0.166989)
(0.126062 -0.842108 -0.152816)
(0.12629 -0.828328 -0.130306)
(0.117672 -0.792276 -0.0960325)
(0.104068 -0.735716 -0.042816)
(0.0378583 -0.656079 0.0329614)
(0.00167899 -0.547765 0.15239)
(0.0149535 -0.302431 0.359152)
(-0.145782 0.00952758 0.448729)
(-0.365125 0.0941747 0.350674)
(-0.39141 -0.040404 0.25635)
(-0.219083 -0.172486 0.252251)
(-0.179413 -0.188833 0.268559)
(-0.156821 -0.178274 0.214122)
(-0.0901657 -0.143271 0.205589)
(0.00027629 -0.033074 0.0711151)
(-0.03627 0.110891 0.0807215)
(-0.0809564 0.148591 0.0802101)
(-0.0495912 0.212811 0.169996)
(-0.00665871 0.181104 0.191266)
(0.0148255 0.0372917 0.142599)
(-0.0442212 -0.0289802 0.226965)
(0.0245181 0.0918492 0.322919)
(-0.00204465 -0.0644472 0.285898)
(0.0778857 0.143142 0.246603)
(0.0911037 -0.0267201 0.227283)
(-0.0197193 -0.257684 0.456017)
(0.051931 -0.361571 0.54437)
(0.172997 -0.506985 0.513406)
(0.165767 -0.696028 0.350319)
(0.0749055 -0.819388 0.142874)
(0.0588902 -0.890891 -0.008341)
(0.0652235 -0.925043 -0.119811)
(0.0632367 -0.951334 -0.197837)
(0.0601225 -0.965945 -0.248699)
(0.0519919 -0.964096 -0.279278)
(0.0418413 -0.944154 -0.292561)
(0.0292507 -0.906535 -0.289371)
(0.0235753 -0.831825 -0.249729)
(0.00729961 -0.785995 -0.328959)
(0.0435029 -0.705154 -0.225438)
(0.0475208 -0.654884 -0.211529)
(0.0447182 -0.637332 -0.232218)
(0.00457826 -0.703328 -0.325319)
(-0.0225952 -0.742858 -0.383039)
(-0.0573848 -0.778095 -0.410749)
(-0.0733524 -0.844858 -0.401583)
(-0.132237 -0.905328 -0.345725)
(-0.0942033 -0.969854 -0.331349)
(-0.0891519 -0.980633 -0.372799)
(-0.0538749 -0.91915 -0.417974)
(-0.0436218 -0.869191 -0.431926)
(-0.0177741 -0.827108 -0.404335)
(-0.00966913 -0.870607 -0.341118)
(-0.0394213 -0.902781 -0.374007)
(-0.0561709 -0.949386 -0.396329)
(-0.0238411 -0.992558 -0.405613)
(-0.048774 -1.06092 -0.4201)
(-0.0666617 -1.04354 -0.423803)
(-0.0936704 -0.921328 -0.344565)
(-0.186938 -0.762561 -0.224169)
(-0.198991 -0.614325 -0.0405253)
(-0.100343 -0.734195 -0.196417)
(-0.079863 -0.840372 -0.258892)
(-0.0594914 -0.929707 -0.322796)
(-0.0608441 -0.947085 -0.333527)
(-0.0276761 -0.830163 -0.380108)
(-0.0238457 -0.725226 -0.336349)
(-0.032005 -0.542822 -0.252848)
(-0.0159934 -0.353627 -0.161853)
(0.0328332 -0.0913895 -0.206914)
(-0.249045 -0.434302 0.0736364)
(-0.330152 -0.461969 0.0265104)
(0.222594 -0.118116 -0.244566)
(-0.172524 -0.247597 0.0439777)
(-0.21815 -0.266765 -0.11613)
(-0.258517 -0.269039 -0.102932)
(-0.20868 -0.281843 -0.0210553)
(0.0813023 0.140579 -0.218917)
(0.10286 0.0593622 -0.231362)
(0.101073 -0.000454264 -0.260052)
(0.096665 3.88896e-06 -0.265238)
(-0.0796906 -0.430206 -0.200754)
(-0.132747 -0.450359 -0.222079)
(-0.185913 -0.45872 -0.206201)
(-0.248935 -0.445454 -0.169004)
(-0.168916 -0.5479 -0.184067)
(-0.126751 -0.55983 -0.256926)
(-0.0961502 -0.566182 -0.291001)
(-0.0604423 -0.554439 -0.291157)
(-0.0505996 -0.7435 -0.348531)
(-0.0815505 -0.75809 -0.331658)
(-0.106333 -0.770337 -0.281502)
(-0.147153 -0.76052 -0.194611)
(-0.134486 -0.82232 -0.182224)
(-0.128785 -0.883329 -0.200197)
(-0.0981606 -0.906058 -0.297225)
(-0.0726774 -0.873185 -0.373479)
(-0.0491269 -0.853048 -0.399641)
(-0.0767633 -0.968738 -0.370474)
(-0.112169 -0.990332 -0.335563)
(-0.138126 -1.01055 -0.283428)
(-0.13717 -1.09329 -0.346752)
(-0.080118 -1.06778 -0.398907)
(-0.0725166 -1.1454 -0.440638)
(-0.0494046 -1.12397 -0.473255)
(-0.0269774 -1.11505 -0.458532)
(-0.0033655 -1.04322 -0.415305)
(0.0120583 -1.07533 -0.406506)
(-0.0127315 -1.15362 -0.469508)
(-0.0398493 -1.18061 -0.494023)
(-0.0685374 -1.20868 -0.462812)
(-0.131522 -1.22913 -0.379062)
(-0.134854 -1.16683 -0.369095)
(-0.283578 -1.04692 -0.225341)
(-0.457267 -1.14625 -0.0769555)
(-0.46366 -1.10035 -0.0674729)
(-0.415979 -1.04609 -0.0647452)
(-0.302823 -1.03662 -0.0737877)
(-0.255706 -0.967894 -0.0639845)
(-0.309149 -0.945345 -0.0575747)
(-0.342262 -0.849444 -0.0421517)
(-0.378033 -0.714043 -0.0378168)
(-0.473717 -0.62725 -0.0366481)
(-0.40978 -0.401707 -0.0339946)
(-0.464698 -0.661189 -0.00578525)
(-0.316549 -0.457917 0.0246525)
(-0.638372 -0.399005 0.00544855)
(-0.815376 -0.379579 0.060137)
(-0.917945 -0.384687 0.0846093)
(-0.968027 -0.397467 0.124342)
(-0.979977 -0.525619 0.0977669)
(-0.940256 -0.689808 0.0653707)
(-0.923928 -0.750617 0.0524933)
(-0.874384 -0.848975 0.0364295)
(-0.858745 -0.896171 0.0304466)
(-0.820868 -0.928509 0.007597)
(-0.70356 -0.968252 -0.0230332)
(-0.592367 -1.00286 -0.0420054)
(-0.626629 -0.953456 -0.0172089)
(-0.484837 -0.972545 -0.030695)
(-0.502727 -0.894223 -0.0301109)
(-0.530346 -0.797712 -0.0232525)
(-0.559177 -0.731444 -0.0194343)
(-0.686322 -0.712978 -0.00980223)
(-0.67489 -0.598577 -0.00777612)
(-0.824117 -0.577617 0.030337)
(-0.918525 -0.559952 0.0503945)
(-0.881366 -0.697498 0.0231332)
(-0.80036 -0.705086 0.0121881)
(-0.777463 -0.790347 0.00227345)
(-0.660808 -0.798874 -0.0107761)
(-0.635643 -0.883305 -0.0170407)
(-0.748389 -0.86683 -0.00514443)
(-0.825448 -0.85115 0.00442786)
(-0.863111 -0.773519 0.0134991)
(-0.801613 -0.739414 -0.0117864)
(-0.624237 -0.612605 0.00189245)
(-0.847184 -0.660076 0.0116819)
(-0.868238 -0.51867 0.0520669)
(-0.870668 -0.37998 0.0581594)
(-0.843653 -0.282386 0.121641)
(-0.832575 -0.302408 0.0765607)
(-0.879105 -0.350809 0.0525783)
(-0.87555 -0.204009 0.12907)
(-0.894612 -0.184311 0.174119)
(-0.761106 -0.161607 0.158492)
(-0.767016 -0.129144 0.259222)
(-0.778382 -0.120843 0.302032)
(-0.822209 -0.108728 0.355477)
(-0.829787 -0.119347 0.352834)
(-0.643041 -0.181856 0.251241)
(-0.608009 -0.173781 0.248633)
(-0.568002 -0.180609 0.215714)
(-0.551442 -0.175774 0.189034)
(-0.569008 -0.191325 0.12042)
(-0.338452 -0.194967 0.0769997)
(-0.320399 -0.189475 0.101952)
(-0.329671 -0.192163 0.114543)
(-0.361026 -0.199072 0.124696)
(-0.449781 -0.217074 0.142055)
(-0.405738 -0.253587 0.0599634)
(-0.382612 -0.285148 0.068643)
(-0.411152 -0.34134 0.0472456)
(-0.316355 -0.42731 0.0361448)
(-0.312163 -0.394678 0.0494223)
(-0.28394 -0.416632 0.0159286)
(-0.193203 -0.419868 -0.0201885)
(-0.337549 -0.254337 0.035649)
(-0.403403 -0.331216 0.0412699)
(-0.248567 -0.457823 -0.00644225)
(-0.292018 -0.460226 0.000515029)
(-0.452286 -0.32149 0.0721121)
(-0.525109 -0.299227 0.131397)
(-0.49842 -0.3189 0.136458)
(-0.47121 -0.337046 0.111487)
(-0.458924 -0.350896 0.0943322)
(-0.493234 -0.373405 0.00860236)
(-0.710878 -0.317994 0.0631704)
(-0.71788 -0.530161 0.0389315)
(-0.549007 -0.554758 -0.00178954)
(-0.509873 -0.607503 -0.00403341)
(-0.465617 -0.649827 -0.0174999)
(-0.436874 -0.653091 -0.0211514)
(-0.412824 -0.531245 -0.0229765)
(-0.410955 -0.541187 -0.0484738)
(-0.409814 -0.541663 -0.0343914)
(-0.335364 -0.550793 -0.0170302)
(-0.267336 -0.596327 -0.00723121)
(-0.319377 -0.581328 -0.00344746)
(-0.403329 -0.513363 0.00714241)
(-0.331889 -0.535759 -0.00412334)
(-0.438593 -0.630834 -0.0118955)
(-0.292835 -0.473569 -0.00505887)
(-0.210208 -0.5401 -0.0181768)
(-0.280898 -0.525053 -0.0161632)
(-0.39434 -0.43642 -0.000686801)
(-0.413788 -0.363031 -0.0104003)
(-0.26047 -0.394506 -0.0109518)
(-0.156844 -0.423289 -0.0361545)
(-0.136198 -0.399882 -0.0224004)
(-0.238115 -0.205556 0.0225869)
(-0.382486 -0.343131 -0.00191442)
(-0.251542 -0.474968 -0.0195786)
(-0.218898 -0.468402 -0.0234742)
(-0.121991 -0.39324 -0.0297255)
(-0.219271 -0.194705 0.0394905)
(-0.346805 -0.338224 0.012326)
(-0.366286 -0.363594 0.0543027)
(-0.195807 -0.51158 -0.0106197)
(-0.174096 -0.468503 0.0189342)
(-0.110032 -0.420656 0.00232137)
(-0.222452 -0.229309 0.044995)
(-0.325952 -0.342193 0.0525386)
(-0.335276 -0.339284 0.0572191)
(-0.180689 -0.463682 0.0170038)
(-0.109427 -0.409406 0.000500786)
(-0.232175 -0.220707 0.0624849)
(-0.286258 -0.221688 0.0778425)
(-0.240697 -0.230517 0.0716305)
(-0.350579 -0.337342 0.0787836)
(-0.189835 -0.465773 0.0487567)
(-0.117932 -0.416054 0.0379085)
(-0.14065 -0.450157 -0.00332754)
(-0.196623 -0.49809 0.0260637)
(-0.381966 -0.350995 0.0793733)
(-0.33456 -0.626064 -0.00332562)
(-0.355762 -0.632751 -0.0114772)
(-0.499505 -0.512351 0.0579677)
(-0.65154 -0.445085 0.0983473)
(-0.66708 -0.287009 0.136415)
(-0.798551 -0.271774 0.170578)
(-0.89126 -0.320974 0.166505)
(-1.02106 -0.489112 0.126004)
(-1.10795 -0.495377 0.167785)
(-1.13283 -0.502941 0.192984)
(-1.11279 -0.505225 0.216008)
(-1.04938 -0.501419 0.23891)
(-0.943593 -0.490365 0.260804)
(-0.794361 -0.46689 0.287403)
(-0.639237 -0.431633 0.327041)
(-0.396405 -0.380627 0.396225)
(-0.160222 -0.293963 0.485382)
(0.0488395 -0.150971 0.488169)
(0.342437 -0.158282 0.428129)
(0.342068 -0.214191 0.376937)
(0.205788 -0.128403 0.486157)
(0.273994 -0.00408379 0.765611)
(0.285062 0.0449445 1.03215)
(0.269754 0.0797758 1.14302)
(0.251224 0.132438 1.09333)
(0.212943 0.12205 0.95688)
(0.142204 0.120928 0.705667)
(0.0399772 0.187966 0.406152)
(0.173758 0.513905 0.425584)
(0.421373 0.515293 0.374756)
(0.607785 0.539152 0.375907)
(0.852478 0.497772 0.351811)
(1.00971 0.416604 0.318209)
(1.07221 0.322136 0.274926)
(1.053 0.253366 0.235688)
(0.996983 0.210288 0.20194)
(1.0118 0.158926 0.169992)
(1.03213 0.118357 0.146598)
(0.974213 0.0918708 0.0919014)
(0.872429 0.0420511 0.0686558)
(0.708136 -0.0234344 0.0545578)
(0.463643 -0.110444 0.0212967)
(0.23686 -0.216787 -0.0239785)
(0.0976119 -0.616766 -0.111994)
(0.173229 -0.380578 -0.078948)
(-0.180493 -0.169252 0.00465512)
(-0.100239 -0.386 -0.0400022)
(-0.109713 -0.304934 -0.0656758)
(-0.111819 -0.329045 -0.0735273)
(-0.109093 -0.285511 -0.0616781)
(-0.0750758 -0.203496 -0.0556188)
(-0.1587 -0.150296 -0.0162603)
(-0.224505 0.261919 0.165888)
(-0.129182 0.490207 0.124761)
(-0.0411777 0.613931 0.0737067)
(0.0296418 0.657604 0.0745547)
(0.113952 0.673463 0.162372)
(0.209665 0.715799 0.282163)
(0.304839 0.751807 0.331262)
(0.390723 0.749268 0.366078)
(0.470117 0.688131 0.374336)
(0.536485 0.550711 0.371678)
(0.588407 0.331355 0.336397)
(0.568203 0.00115016 0.261994)
(0.392143 -0.335084 0.255235)
(0.2919 -0.336353 0.317717)
(0.226928 -0.291349 0.327611)
(0.160311 -0.201074 0.333115)
(0.147535 -0.00398064 0.31203)
(0.29024 0.00917254 0.339751)
(0.452983 -0.158955 0.330276)
(0.605337 -0.256462 0.341845)
(0.644592 -0.345394 0.351167)
(0.625647 -0.437082 0.353353)
(0.478874 -0.54137 0.335035)
(0.111487 -0.566315 0.316989)
(-0.16854 -0.299319 0.302233)
(-0.037633 -0.129937 0.355194)
(0.228792 -0.152264 0.237961)
(0.281367 -0.403281 0.0724318)
(0.00806777 -0.519733 0.23815)
(-0.141301 -0.748944 -0.141801)
(0.200758 -0.721101 -0.480883)
(0.308152 -0.396521 -0.17764)
(0.332874 -0.378293 0.0921449)
(0.348138 -0.548882 0.183279)
(0.331616 -0.890904 0.120532)
(0.533998 -0.873323 0.0655358)
(0.612374 -0.693184 0.097941)
(0.57722 -0.539755 0.137089)
(0.507157 -0.397909 0.187193)
(0.33817 -0.232998 0.245385)
(0.361076 -0.349523 0.193353)
(0.423713 -0.380248 0.140765)
(0.504218 -0.366376 0.0786147)
(0.611823 -0.295307 -0.0560947)
(0.85738 0.192271 -0.116371)
(0.903999 0.474595 -0.0208658)
(0.850179 0.673617 0.0516802)
(0.750177 0.772202 0.0939477)
(0.619605 0.795681 0.139804)
(0.470838 0.764241 0.155142)
(0.306107 0.702593 0.163612)
(0.135024 0.640509 0.0986313)
(-0.0365296 0.604605 0.0482402)
(-0.155476 0.563689 0.0595628)
(-0.274411 0.456316 0.120796)
(-0.402668 0.260099 0.168056)
(-0.288436 -0.105996 0.0197837)
(-0.407569 0.039262 0.0774396)
(-0.491125 0.0850156 0.103228)
(-0.525988 0.207342 0.137836)
(-0.536742 0.15459 0.106413)
(-0.498551 0.0170065 0.0267582)
(-0.453489 -0.0586223 0.0143876)
(-0.382754 -0.122326 -0.00787473)
(-0.287454 -0.19307 -0.0213668)
(-0.19163 -0.229474 -0.0362253)
(-0.139015 -0.19984 -0.0279984)
(-0.199357 -0.160682 -0.0196018)
(-0.181991 -0.321223 -0.032647)
(-0.121827 -0.317222 -0.0444443)
(-0.100473 -0.338542 -0.0720243)
(-0.0790274 -0.375409 -0.105409)
(-0.0483274 -0.564106 -0.223521)
(-0.0888857 -0.504074 -0.1511)
(-0.106545 -0.612847 -0.114955)
(-0.151061 -0.621947 -0.0851671)
(-0.193787 -0.533636 -0.0775062)
(-0.297771 -0.346277 -0.0427483)
(-0.251977 0.196721 0.122644)
(-0.0984847 0.386296 0.282574)
(-0.0038839 0.477427 0.426554)
(0.0690123 0.476958 0.551097)
(0.140019 0.417322 0.620007)
(0.19262 0.307753 0.65177)
(0.245107 0.157298 0.625158)
(0.232514 -0.0193605 0.528016)
(0.104231 -0.139245 0.435163)
(-0.012431 -0.105169 0.444729)
(-0.0332326 0.0109439 0.423909)
(-0.0349039 0.135943 0.426831)
(0.0378243 0.243568 0.370724)
(0.200566 0.136652 0.38745)
(0.159837 0.269815 0.452205)
(-0.0542423 0.185975 -0.0378828)
(-0.169358 -0.0733255 -0.642345)
(-0.18031 -0.308006 -0.546207)
(-0.168293 -0.347621 -0.314843)
(-0.143949 -0.307204 -0.0964038)
(-0.0628392 -0.590449 -0.106217)
(-0.028988 -0.867619 -0.0921487)
(0.000905631 -1.02293 -0.0894376)
(0.0310006 -1.14473 -0.0984466)
(0.0638906 -1.22705 -0.112651)
(0.0942373 -1.27891 -0.126665)
(0.120941 -1.3048 -0.138741)
(0.145133 -1.31288 -0.150899)
(0.166289 -1.31044 -0.163651)
(0.184808 -1.30097 -0.174712)
(0.200638 -1.2861 -0.183444)
(0.214712 -1.26637 -0.188834)
(0.227148 -1.24152 -0.19175)
(0.238482 -1.21018 -0.190763)
(0.248136 -1.17093 -0.185676)
(0.25397 -1.12138 -0.174907)
(0.251194 -1.05879 -0.158252)
(0.194409 -0.995613 -0.138515)
(0.139547 -0.910696 -0.122432)
(0.164148 -0.826754 -0.0867838)
(0.187402 -0.726355 -0.087998)
(0.20353 -0.557914 -0.087896)
(0.246296 -0.441109 -0.0842478)
(0.0719657 -0.029731 -0.0952318)
(0.365261 -0.297275 0.0435313)
(0.245238 -0.549492 -0.0569271)
(0.28541 -0.0942582 -0.0268154)
(0.180175 -0.0365261 -0.147086)
(0.200899 -0.111942 -0.12437)
(0.193614 -0.118896 -0.0804627)