/*--------------------------------*- C++ -*----------------------------------*\
| =========                 |                                                 |
| \\      /  F ield         | OpenFOAM: The Open Source CFD Toolbox           |
|  \\    /   O peration     | Version:  v2012                                 |
|   \\  /    A nd           | Website:  www.openfoam.com                      |
|    \\/     M anipulation  |                                                 |
\*---------------------------------------------------------------------------*/
FoamFile
{
    version     2.0;
    format      ascii;
    class       volScalarField;
    location    "1175";
    object      alphat;
}
// * * * * * * * * * * * * * * * * * * * * * * * * * * * * * * * * * * * * * //

dimensions      [1 -1 -1 0 0 0 0];


internalField   nonuniform List<scalar> 
18258
(
0.00483782
0.00210536
0.00172334
0.00149222
0.000990646
0.00161992
0.00225027
0.00267951
0.00281189
0.0027891
0.00288888
0.00487609
0.00684406
0.00845987
0.00888744
0.00887267
0.00805566
0.00769329
0.00835289
0.0102729
0.00863771
0.00553227
0.00662915
0.00765949
0.00833065
0.00737519
0.00596276
0.0055225
0.0049994
0.00416636
0.00349244
0.00238105
0.00175367
0.00162636
0.00147346
0.00167932
0.00182872
0.0019494
0.00199351
0.00202493
0.00201098
0.00199931
0.00194505
0.00191191
0.00185537
0.0015353
0.00186169
0.00190463
0.00208434
0.00288343
0.00310002
0.00260856
0.00288717
0.00257511
0.0016966
0.00194217
0.00210817
0.00215339
0.00212548
0.00203709
0.00200725
0.00198199
0.00195002
0.00191209
0.00188899
0.00190794
0.0019278
0.00190701
0.00181347
0.00173775
0.0016152
0.00149231
0.00140127
0.00133076
0.00127759
0.00121836
0.00115179
0.00101173
0.000937705
0.00124154
0.00155867
0.0016655
0.00236076
0.0028784
0.00289817
0.00216984
0.00154651
0.00160514
0.00178411
0.00180149
0.00152599
0.00181331
0.00205329
0.00212799
0.00221742
0.00247889
0.00282383
0.00275326
0.00245224
0.00226048
0.00220164
0.00252845
0.00240718
0.0031225
0.00314204
0.00273443
0.00253879
0.00285577
0.00368383
0.00396026
0.0030744
0.00288845
0.00283195
0.00279492
0.00252893
0.00261886
0.00237937
0.00214399
0.00233635
0.00282169
0.00267596
0.00292182
0.00302818
0.00284134
0.00329256
0.00379688
0.00374286
0.0029951
0.00244346
0.00227769
0.00229481
0.00140349
0.00151557
0.00163218
0.0016722
0.00170044
0.00172432
0.00183802
0.00183386
0.00180677
0.00180277
0.00183374
0.00101082
0.00109525
0.00112258
0.00113046
0.00107408
0.00106296
0.00104301
0.00102685
0.000968752
0.000927014
0.00110905
0.0012452
0.00135613
0.00148592
0.00167919
0.0019157
0.00216433
0.00241567
0.00258195
0.0026294
0.00267722
0.00258039
0.00248266
0.00257121
0.00258605
0.0025692
0.0025346
0.0024909
0.00243193
0.002324
0.00244865
0.00244192
0.00229427
0.00196645
0.00201049
0.00200711
0.00205955
0.0020491
0.00206987
0.00204053
0.00200607
0.00190934
0.00177442
0.00147684
0.00144
0.00145805
0.00187239
0.00227318
0.00351142
0.00428365
0.00497384
0.00532271
0.00569666
0.00460871
0.00512936
0.00395335
0.00354921
0.00451122
0.0059012
0.00336675
0.0018377
0.00348585
0.00309139
0.00224228
0.00199588
0.0020567
0.00206063
0.00236728
0.00273027
0.00303111
0.00317694
0.00330556
0.00340812
0.00352099
0.00366403
0.00370307
0.00357731
0.00302795
0.00364977
0.00296417
0.00346098
0.00312482
0.00210759
0.0022311
0.00236593
0.00216511
0.0021058
0.00201625
0.00181496
0.00223326
0.00289287
0.00335799
0.00383933
0.00511945
0.00473656
0.00454188
0.00351714
0.00340089
0.00176518
0.00251754
0.00261117
0.00293509
0.00195201
0.0017799
0.00168884
0.00224192
0.00259886
0.00306782
0.0034027
0.00404123
0.00313316
0.00357658
0.00323421
0.00225242
0.00216858
0.00310702
0.00334836
0.00275509
0.00246341
0.0030889
0.00292255
0.00207299
0.0016603
0.00254965
0.00263997
0.00189382
0.00469366
0.00502415
0.0048059
0.00584549
0.00732645
0.00833733
0.00776603
0.00688782
0.00768962
0.0061202
0.00593238
0.0063191
0.00530416
0.00371048
0.00380373
0.0039327
0.00403887
0.00433663
0.00460762
0.00493864
0.00525229
0.00477404
0.00396369
0.00299956
0.0020627
0.00203358
0.00202276
0.00181643
0.00269219
0.00407552
0.00404993
0.00230272
0.00134157
0.001516
0.00171136
0.0016944
0.00123024
0.000925563
0.00159425
0.00182323
0.00185287
0.00180701
0.00170622
0.00178304
0.0028635
0.00441148
0.00484738
0.00502068
0.00518474
0.00530071
0.0053654
0.00538613
0.00539781
0.00541203
0.00542448
0.00544324
0.0054264
0.00531077
0.00467107
0.00293645
0.00171619
0.00159401
0.0017592
0.0018906
0.00200522
0.00170604
0.00104332
0.00166638
0.00213389
0.00245305
0.00247415
0.0023092
0.00224023
0.00353268
0.00469722
0.00553694
0.00570723
0.00578321
0.00572004
0.00571211
0.00558774
0.0055491
0.00486587
0.00347948
0.00380417
0.00408436
0.00413077
0.00422581
0.00436865
0.00426695
0.00403117
0.00589166
0.00679888
0.00688582
0.0070323
0.00694916
0.00682929
0.00651936
0.00616522
0.00519042
0.00389253
0.00245616
0.00250751
0.00266948
0.00264401
0.00230169
0.002425
0.00263173
0.00265813
0.00274527
0.00307858
0.00349682
0.0033361
0.00287153
0.00243825
0.00227021
0.00222201
0.00213154
0.0015959
0.00162013
0.00157536
0.00160161
0.00215223
0.00256164
0.00295415
0.00418925
0.00373704
0.00303914
0.00481802
0.00493712
0.00530415
0.00586032
0.00600586
0.00665444
0.00463096
0.00417376
0.0042872
0.00350193
0.00324154
0.00327604
0.00328837
0.00306502
0.0033545
0.00332483
0.00320455
0.00353793
0.00389846
0.0051405
0.00622865
0.00657185
0.00677031
0.00685167
0.00682612
0.00669349
0.00673602
0.00591648
0.00591201
0.00566274
0.00550108
0.00544458
0.00517602
0.00592356
0.00614841
0.00622256
0.00637666
0.00661741
0.00643768
0.00623885
0.00608769
0.00597839
0.00586391
0.00592577
0.006035
0.00615152
0.00631544
0.00653464
0.00657101
0.00634369
0.00617206
0.00605486
0.0059448
0.00594895
0.00604704
0.00616153
0.00632424
0.00653223
0.0064163
0.00625469
0.00611084
0.00599296
0.00588928
0.00568305
0.00581959
0.00596984
0.00609356
0.00617361
0.00533424
0.00570218
0.00560447
0.00507452
0.00474989
0.00360706
0.00390358
0.00411619
0.00448325
0.00497623
0.00507275
0.00425659
0.00364774
0.00355445
0.00352578
0.00360899
0.00363887
0.00365661
0.00413177
0.00622456
0.00626787
0.00628562
0.00628801
0.00537756
0.00522548
0.00486797
0.00889937
0.0082857
0.00717806
0.00591789
0.0031719
0.00271883
0.00322074
0.00391688
0.00437925
0.00483365
0.0032086
0.00198754
0.00231635
0.00240185
0.00234341
0.00216618
0.00180438
0.00166564
0.00151184
0.00162707
0.00288138
0.00459812
0.00517957
0.00523483
0.00518326
0.00508294
0.00496125
0.00479184
0.00472059
0.00593152
0.00799988
0.00907629
0.00904559
0.00777177
0.00632474
0.00355697
0.00181776
0.0013161
0.00145671
0.00159851
0.00188256
0.00168269
0.00139022
0.00152157
0.00145153
0.00294616
0.00509973
0.00652412
0.00773755
0.00759991
0.00659074
0.00541214
0.00514141
0.00526255
0.00534195
0.00541079
0.0054815
0.00552999
0.00549904
0.00500501
0.00309197
0.00184571
0.00163992
0.00176343
0.00206666
0.00219592
0.00221817
0.00218723
0.00189607
0.00313568
0.00498025
0.00316692
0.00172785
0.00186696
0.00185341
0.00326968
0.00326467
0.0031941
0.00496997
0.00525506
0.00524193
0.00492498
0.00470163
0.00278319
0.00315834
0.00316885
0.00318572
0.0032381
0.0016353
0.00178243
0.00183779
0.00197799
0.00173123
0.00219906
0.000569065
0.000788276
0.000915847
0.000995709
0.00107268
0.00105229
0.00201242
0.00204146
0.00194858
0.00189756
0.00240916
0.00258555
0.00264281
0.0024344
0.00224649
0.00239137
0.00239646
0.00225817
0.00213918
0.00221827
0.00221989
0.0021272
0.00180931
0.00169542
0.0018614
0.00184133
0.00182647
0.0032807
0.00327506
0.00309939
0.00509314
0.00501097
0.00561283
0.00557636
0.00556981
0.00554721
0.00560684
0.00563794
0.00566151
0.00568916
0.00567815
0.00562342
0.007829
0.00553136
0.00482667
0.00279099
0.00268827
0.00189836
0.00166367
0.00195898
0.00209517
0.00227141
0.00221995
0.00234055
0.00233777
0.00248064
0.00230263
0.00204475
0.00313203
0.00334615
0.00326834
0.00333317
0.00325484
0.00323583
0.00321188
0.003166
0.00311079
0.00185201
0.00181652
0.00212712
0.00223283
0.00239916
0.00242104
0.00247353
0.00234608
0.0020635
0.00199751
0.00230027
0.00226932
0.00231323
0.00218101
0.00217219
0.00193532
0.0019843
0.00400288
0.00739325
0.00380256
0.00422389
0.00382618
0.00435192
0.00381149
0.00328691
0.00336387
0.00296281
0.00309047
0.00324176
0.00330034
0.00346854
0.00408845
0.00393631
0.00345531
0.0033551
0.00328904
0.00310113
0.00279128
0.00292416
0.00295059
0.00301389
0.00334958
0.00384212
0.00430714
0.00523314
0.00507801
0.00444908
0.00406706
0.00426454
0.00433882
0.00546167
0.00510194
0.00507238
0.00535136
0.00529892
0.00502942
0.00476595
0.0046004
0.00394947
0.0040147
0.00459558
0.00444644
0.00458189
0.00450114
0.00467858
0.00476233
0.00457123
0.00424891
0.0044652
0.0044558
0.00494883
0.00481402
0.00446509
0.00408645
0.00436635
0.00431259
0.00498237
0.00469133
0.00438811
0.00403824
0.00386752
0.00438927
0.00430976
0.00488752
0.00502794
0.00503007
0.00438484
0.00428372
0.00509501
0.00490268
0.00473413
0.00493079
0.00408308
0.00420061
0.005175
0.0052834
0.00501145
0.00418322
0.0042483
0.00364312
0.00428398
0.00533236
0.0050351
0.00412672
0.00342401
0.00479181
0.00504323
0.00533528
0.00504207
0.00549335
0.005919
0.00482394
0.00524892
0.00686028
0.00523526
0.00607581
0.00621092
0.00624799
0.00625171
0.00627638
0.00630812
0.00664605
0.00646494
0.00410948
0.00491615
0.00477458
0.00399244
0.00339371
0.00373827
0.00402581
0.0040835
0.00418676
0.00434608
0.00427171
0.00413043
0.00604638
0.00690062
0.00705049
0.00719073
0.00707323
0.00689978
0.00649803
0.00600512
0.00498227
0.00371503
0.00231741
0.0023616
0.00251602
0.00249107
0.00216026
0.00163027
0.00107115
0.00159053
0.00164503
0.00154966
0.00141285
0.00124712
0.00129035
0.0023565
0.00465589
0.00631355
0.0069516
0.00747172
0.00803113
0.00858101
0.00900312
0.00930804
0.0095115
0.00963329
0.00965431
0.00945739
0.00858826
0.00820797
0.00773814
0.00735476
0.00682635
0.00641498
0.00724909
0.00796249
0.00840375
0.00890001
0.00913015
0.00903454
0.00785187
0.0076167
0.00876061
0.0107899
0.00917011
0.0115229
0.0135503
0.0105563
0.00949417
0.00948737
0.0105982
0.0108023
0.0104153
0.0098133
0.00912356
0.00825472
0.00868058
0.00906828
0.00944256
0.00978609
0.0107534
0.0109323
0.0108564
0.0106952
0.0104749
0.0101503
0.00963622
0.00893135
0.00815422
0.00739856
0.00652027
0.00469805
0.00218769
0.00249232
0.00243569
0.00266699
0.00257809
0.00117298
0.00129379
0.00131077
0.00132041
0.0012484
0.00142025
0.00205704
0.00335225
0.00241067
0.00198059
0.00136792
0.00161012
0.00269216
0.00458105
0.00517568
0.00527176
0.00532852
0.0067492
0.00789046
0.00840687
0.00879592
0.0090843
0.00896552
0.00866562
0.00813569
0.00748489
0.00723885
0.00684172
0.00648915
0.00630056
0.00610402
0.00573187
0.00451018
0.00430837
0.00448975
0.00443715
0.00424827
0.00453984
0.00470452
0.00470105
0.00475374
0.00479991
0.00494224
0.00510972
0.00525563
0.00533252
0.00536148
0.00537108
0.00538277
0.00539211
0.00540912
0.00539119
0.00527336
0.00463038
0.00289463
0.00168908
0.00156115
0.00171166
0.00180998
0.00185191
0.0016442
0.00105834
0.00164475
0.00212894
0.00218386
0.00239663
0.00247298
0.00262324
0.0029226
0.00337716
0.00348449
0.00309146
0.00292762
0.00286451
0.00279178
0.00238344
0.0029713
0.00328193
0.00327627
0.0032462
0.00350919
0.00431948
0.00414818
0.00365717
0.00361527
0.00357814
0.00323198
0.00318303
0.00348161
0.00352055
0.00365338
0.00428493
0.00514036
0.00476749
0.00434132
0.00416022
0.00384101
0.00337844
0.00305339
0.00376577
0.00309324
0.00161709
0.00137014
0.00137096
0.00137394
0.00132376
0.00156918
0.00165114
0.00167416
0.00156006
0.00173145
0.00192752
0.00186755
0.00211215
0.0020828
0.00186273
0.00184378
0.00199987
0.002116
0.00217363
0.00222652
0.00364907
0.00376342
0.00291779
0.00422709
0.00487213
0.00484913
0.00514193
0.00422535
0.00378524
0.00449436
0.00519953
0.00597468
0.00471793
0.00445919
0.00456717
0.00209258
0.00110108
0.00155362
0.00192915
0.00215025
0.00208682
0.00197241
0.00166872
0.0029663
0.00304594
0.00484122
0.00543114
0.0055013
0.00546479
0.00546362
0.00594483
0.00683244
0.0078401
0.00815603
0.00804103
0.00767899
0.00700453
0.00633593
0.00630122
0.00609261
0.00593778
0.00589578
0.00512938
0.00451369
0.00483036
0.00475499
0.00491637
0.00499207
0.00504712
0.00510327
0.00519664
0.00530934
0.00541236
0.0054831
0.00553059
0.00557055
0.00561111
0.00565161
0.00569519
0.00571883
0.00566487
0.00511963
0.00306837
0.0018281
0.001667
0.00177862
0.0020906
0.00220131
0.0023657
0.00209966
0.00110566
0.00130028
0.00225946
0.00250733
0.0023203
0.00217148
0.00213284
0.00178661
0.00323987
0.00319847
0.00502567
0.00565301
0.00573216
0.00571584
0.00567091
0.00561962
0.00556864
0.00552657
0.00549261
0.00545696
0.00540756
0.00534846
0.0052933
0.00523658
0.0051407
0.00500536
0.00485048
0.00504537
0.00521796
0.00544767
0.00569255
0.00581145
0.00570492
0.00554791
0.00548304
0.00552288
0.00557398
0.00562596
0.0056727
0.00569702
0.00563346
0.00530845
0.004978
0.00315034
0.00319207
0.00156807
0.00174167
0.0020097
0.00207555
0.00225395
0.00224239
0.00176158
0.00137313
0.00154964
0.00144916
0.00259042
0.00284927
0.00316138
0.00313067
0.00169826
0.00174194
0.00181009
0.00204126
0.00189705
0.00183434
0.00454892
0.00435276
0.00455248
0.00558815
0.00481309
0.00332048
0.00363875
0.00506316
0.00534123
0.00322765
0.00242003
0.00268499
0.00340161
0.00500764
0.00507123
0.00482004
0.00479266
0.00349697
0.00429839
0.00517496
0.00503437
0.00392153
0.00270193
0.00201229
0.000976162
0.0018567
0.00158734
0.00389516
0.00431161
0.00426282
0.0046626
0.00495274
0.00500324
0.0048627
0.00430979
0.00439597
0.00443995
0.00506105
0.00508495
0.00430118
0.00362871
0.00294487
0.00297183
0.00303005
0.00335824
0.00420499
0.00396176
0.00347214
0.00336645
0.00329332
0.00309721
0.0027945
0.00245071
0.002468
0.0022974
0.00222358
0.00350561
0.00466691
0.00550382
0.00566213
0.00571936
0.00563137
0.00559119
0.00543092
0.00534787
0.00464578
0.00593336
0.00627089
0.00605166
0.00609699
0.0061356
0.00618291
0.00618434
0.0060683
0.00521348
0.00311286
0.00203304
0.00229468
0.0024765
0.00232511
0.00231231
0.00246491
0.00233929
0.00205491
0.00332954
0.00325464
0.00520484
0.00589544
0.00602129
0.00602792
0.00600326
0.00598277
0.00599024
0.00630539
0.00616315
0.0062501
0.00658461
0.00659422
0.00667471
0.00626704
0.00618722
0.00613594
0.00610136
0.00604527
0.00589626
0.00521718
0.00505836
0.00574501
0.00592252
0.00600141
0.00605598
0.00612083
0.00620558
0.00645069
0.00663249
0.00670301
0.00643173
0.00633006
0.00618223
0.00597307
0.0059235
0.00591386
0.00590925
0.00588104
0.005729
0.00504256
0.00324192
0.00332182
0.00197593
0.00198861
0.0022903
0.00240518
0.00236195
0.00218712
0.00213229
0.00367934
0.00418771
0.00445139
0.00479984
0.00458556
0.00455955
0.00521073
0.00504221
0.00449241
0.00467636
0.00419432
0.00399295
0.00386993
0.00389324
0.0020388
0.00220022
0.00229529
0.00225755
0.00215875
0.00192567
0.0017659
0.00322324
0.00319972
0.0031586
0.00187748
0.00183614
0.00216317
0.00210049
0.00192129
0.00163775
0.00179566
0.00277419
0.00310311
0.00481247
0.00498527
0.00533506
0.00570509
0.00584507
0.00588308
0.00590647
0.00593248
0.00598896
0.00605551
0.00607481
0.00607209
0.00611893
0.00610777
0.00611012
0.0060795
0.00604372
0.00600133
0.00595549
0.0058795
0.00572265
0.00534702
0.00497869
0.0056132
0.0056653
0.00577105
0.00587998
0.00592595
0.00593237
0.00590955
0.00586494
0.00581195
0.00575176
0.0057503
0.00592299
0.00596573
0.00599525
0.00597668
0.0059549
0.00594725
0.00592005
0.00587714
0.00576869
0.0056599
0.00561415
0.00552027
0.00566746
0.0057328
0.00574205
0.00579716
0.00588583
0.00591216
0.00591257
0.00586961
0.00583329
0.00578538
0.00570608
0.00559904
0.00525018
0.00532193
0.00541492
0.005537
0.00565471
0.00574997
0.00580407
0.00580922
0.00575702
0.00572168
0.0057231
0.00567445
0.00569946
0.00572523
0.00569552
0.00569089
0.00569311
0.00562513
0.00550417
0.00533684
0.0051608
0.00501754
0.00494846
0.00483214
0.00521666
0.00537204
0.00550865
0.00562858
0.00573566
0.00584222
0.00587304
0.0058594
0.00579414
0.00575714
0.00575597
0.00570064
0.00569754
0.00575093
0.00575269
0.00578325
0.00583844
0.00582471
0.00574883
0.00554755
0.00535114
0.00517926
0.00501338
0.00483501
0.00480871
0.00488754
0.00481387
0.00487209
0.0050379
0.00525024
0.0054356
0.00555714
0.00559732
0.00563424
0.00568687
0.00568196
0.00565066
0.00563265
0.0055615
0.00549891
0.00542254
0.00525923
0.00505432
0.00487701
0.00482707
0.00492943
0.00502514
0.00493313
0.0045702
0.0047549
0.004931
0.00510403
0.00534797
0.00562799
0.00574708
0.00578972
0.00576165
0.00573987
0.0057372
0.00568659
0.00566834
0.00571509
0.00571889
0.00574113
0.00577664
0.00574429
0.00564866
0.00530673
0.00489541
0.00469667
0.00457805
0.0044227
0.0049573
0.00506176
0.00493855
0.00485471
0.00498427
0.00513178
0.00528521
0.00538808
0.00543027
0.00549082
0.00557034
0.00560924
0.00555331
0.00548731
0.00540663
0.00536558
0.00536713
0.00534466
0.00524753
0.00512957
0.00498742
0.00515435
0.00525169
0.00515684
0.00466449
0.00474176
0.00486412
0.00493598
0.00532264
0.00565378
0.00572613
0.00572506
0.00568805
0.00566417
0.00566441
0.00563463
0.00557895
0.00556947
0.00556539
0.00563249
0.00572076
0.00577669
0.00580747
0.00556153
0.00510034
0.00501729
0.00479824
0.00470007
0.00522615
0.00528507
0.00516329
0.0050514
0.00529884
0.00540235
0.00542851
0.0054034
0.00534376
0.00530515
0.00537381
0.00548259
0.0054007
0.00504902
0.00473737
0.00489868
0.0049403
0.00493063
0.00486561
0.00475388
0.00450676
0.00503372
0.00554698
0.00558753
0.00503715
0.00504545
0.00489516
0.0045625
0.00501078
0.00524222
0.00528965
0.00526289
0.00517747
0.00497829
0.00525749
0.00550348
0.00545586
0.00493929
0.0032057
0.00324955
0.00327225
0.00327476
0.00323208
0.00322008
0.00317324
0.00314892
0.00307606
0.00300184
0.0029312
0.00312543
0.0032916
0.00351609
0.00353471
0.00362768
0.00347251
0.00328735
0.00307065
0.00239248
0.00303586
0.00362209
0.00384967
0.00414132
0.00420126
0.0048399
0.00508783
0.00521897
0.00511465
0.00410394
0.00348099
0.00278185
0.0018093
0.00112746
0.00132333
0.00137634
0.00144401
0.0017654
0.00328593
0.00167161
0.00232203
0.0018144
0.00313224
0.00164246
0.00102797
0.000682698
0.000872822
0.00104132
0.00105482
0.00101254
0.000845861
0.000669204
0.000684282
0.000638615
0.000678703
0.000606826
0.00069443
0.000645012
0.000898914
0.0013442
0.00152437
0.00155813
0.00125937
0.00142014
0.00118648
0.00136834
0.0012218
0.00133161
0.00127717
0.00156211
0.00171192
0.00163899
0.00164358
0.00143833
0.00100605
0.0011661
0.000916099
0.00109989
0.000841532
0.00108662
0.000931813
0.00121075
0.00124808
0.0012445
0.0011983
0.00091554
0.00108585
0.00085496
0.00105385
0.000864509
0.000926526
0.000772285
0.00112078
0.00114158
0.0010517
0.00111898
0.00125807
0.00135168
0.00148838
0.00140661
0.00159685
0.00153769
0.00155207
0.00146957
0.00142824
0.00139559
0.00139845
0.00137548
0.00138304
0.00142764
0.0014298
0.00143541
0.00148079
0.00145916
0.00142401
0.00140283
0.00124615
0.00100547
0.00175167
0.00180639
0.00183316
0.00183272
0.00179136
0.00177132
0.00171026
0.00169405
0.00164109
0.00161002
0.00153894
0.0014805
0.00141386
0.00158942
0.000889272
0.00100958
0.00106569
0.00109716
0.00111907
0.00112908
0.0011372
0.00113076
0.00111668
0.00108906
0.00107963
0.00104956
0.00134294
0.00152766
0.00159697
0.0016155
0.00151422
0.00144186
0.00315609
0.00382018
0.00581233
0.00593939
0.00445749
0.004444
0.00153777
0.00162212
0.00110921
0.00155866
0.0016071
0.00159077
0.00150286
0.00108421
0.00162757
0.00113426
0.00153058
0.00114981
0.00142817
0.00118398
0.00168984
0.0021549
0.00208062
0.00188544
0.00129917
0.0010894
0.00109691
0.000942111
0.00103284
0.000842891
0.00102501
0.000857426
0.00126263
0.00178126
0.0019688
0.00200814
0.00158331
0.00218422
0.00164218
0.0023776
0.00188735
0.0023277
0.00186762
0.00216156
0.00267445
0.00268643
0.00262274
0.00211402
0.00169446
0.00190174
0.00168501
0.00194038
0.00280547
0.00183873
0.00278951
0.00115267
0.00157106
0.0016193
0.0015971
0.00150593
0.00101473
0.00258467
0.00136711
0.0024356
0.00157738
0.00253512
0.00184214
0.00244804
0.00293028
0.00306551
0.0030539
0.00249343
0.00225251
0.00233424
0.0018691
0.00224482
0.00167021
0.00241803
0.00136006
0.00176284
0.00194792
0.0020496
0.00205785
0.00169149
0.00333962
0.00209677
0.00316484
0.00220046
0.00281939
0.00225949
0.0024719
0.00291908
0.00290092
0.00287664
0.00243943
0.0019741
0.00260569
0.0018589
0.0553808
0.127978
0.0509298
0.129368
0.0585746
0.083157
0.0819501
0.0821317
0.0824488
0.0619253
0.135064
0.159558
0.166377
0.16838
0.167108
0.270042
0.220166
0.330796
0.214409
0.126151
0.0546752
0.0754017
0.194656
0.321489
0.482459
0.612246
0.417215
0.43191
0.275617
0.271781
0.255891
0.206993
0.126786
0.0635977
0.010928
0.0119542
0.0170934
0.0227567
0.017925
0.0109797
0.00216563
0.00223539
0.00228647
0.00231882
0.00231194
0.00226419
0.00230142
0.00217472
0.00204625
0.00228949
0.00249603
0.00267772
0.00315715
0.00348997
0.00314577
0.00344756
0.00365282
0.0038198
0.0039582
0.00416492
0.00439791
0.00460261
0.00461333
0.00422667
0.00360242
0.00292885
0.00245975
0.00232976
0.00218749
0.00192903
0.00176443
0.00165108
0.00159711
0.00157506
0.00161903
0.0017698
0.00190097
0.00194702
0.00190912
0.00187414
0.00184366
0.00164175
0.00191967
0.00263328
0.00265328
0.00454584
0.005238
0.00534705
0.00535473
0.00474547
0.00303116
0.00303805
0.00305375
0.00311256
0.00312507
0.00313432
0.00313146
0.00312195
0.00310407
0.00307125
0.00305441
0.00300504
0.00296293
0.00285635
0.00286101
0.00289701
0.00292599
0.00287742
0.00288871
0.00282886
0.00370037
0.00493624
0.0055547
0.00580417
0.00601874
0.00584153
0.00810047
0.00693613
0.00487068
0.00478749
0.00472788
0.0056099
0.00564716
0.00509601
0.00511671
0.00467448
0.00291941
0.00291448
0.00291647
0.00312088
0.00318268
0.00328831
0.00331783
0.00334173
0.00335705
0.00334762
0.00334477
0.003313
0.0032902
0.00321459
0.00318956
0.0031787
0.0017525
0.0019129
0.00198501
0.00199887
0.00202919
0.00201759
0.00200698
0.00198319
0.00196858
0.00193585
0.00189878
0.00184193
0.00173121
0.00157654
0.00173448
0.0029416
0.00294017
0.00478927
0.00539846
0.00543902
0.0060595
0.00575198
0.00544791
0.00584426
0.00526584
0.00522164
0.00473176
0.00293975
0.00297962
0.00176949
0.00175471
0.00205265
0.00199669
0.0021341
0.00219279
0.00219857
0.00222849
0.00225637
0.0022918
0.00234907
0.00236523
0.00232646
0.00231858
0.00218334
0.00188645
0.00190853
0.0022503
0.00236098
0.00219338
0.00215673
0.00214104
0.00208922
0.00204982
0.00201238
0.00203905
0.00219608
0.00219324
0.00215361
0.00204901
0.00199459
0.00172807
0.00166884
0.00291625
0.00296116
0.00488993
0.00499779
0.00496478
0.00572799
0.00639982
0.00727588
0.00621195
0.00504621
0.00524607
0.0059997
0.00446751
0.00374628
0.00222616
0.00167361
0.00209071
0.00192913
0.00201165
0.00208439
0.00185104
0.00198958
0.00183936
0.00167152
0.00166193
0.00165999
0.00170058
0.00171782
0.00174875
0.00175297
0.00179511
0.00179093
0.00179532
0.00181709
0.00182539
0.00201672
0.00219031
0.00184414
0.00156381
0.00152474
0.00143996
0.00137143
0.00140504
0.00137147
0.00136307
0.00133813
0.00131542
0.00125539
0.0013082
0.00138835
0.00162435
0.00155447
0.00125628
0.00112234
0.000766992
0.000782524
0.000787931
0.000812039
0.000820957
0.000831869
0.000835968
0.000849522
0.000852184
0.000856488
0.000856163
0.000876896
0.000873889
0.000863739
0.000857255
0.000861317
0.000865142
0.000864447
0.00126588
0.00140936
0.00153848
0.00182691
0.00214906
0.00185026
0.00156875
0.00135294
0.000869737
0.000882742
0.00089879
0.000907096
0.000926332
0.00094387
0.000963387
0.00097568
0.000984871
0.000994491
0.00100465
0.00100867
0.00100615
0.00098667
0.000975206
0.00100003
0.00109931
0.00115699
0.00123105
0.00125904
0.00128287
0.0012947
0.00128876
0.00130235
0.0012872
0.00128518
0.0012634
0.00125419
0.00124538
0.00123427
0.00122034
0.00118589
0.00117437
0.00123568
0.00209186
0.00273496
0.00314599
0.00346267
0.00320496
0.00260415
0.00273147
0.00480118
0.00454786
0.00268119
0.0025048
0.00231359
0.00202407
0.00176961
0.00214052
0.00244254
0.00267081
0.00287073
0.00305349
0.00317754
0.00333763
0.00354698
0.00391665
0.0039629
0.00361464
0.00292756
0.00247583
0.00231011
0.00223108
0.0020951
0.00194662
0.00199579
0.00201044
0.00195089
0.00187696
0.00185635
0.00188738
0.00192763
0.00190476
0.0019041
0.00170126
0.00170059
0.00290612
0.00295905
0.004552
0.00479656
0.00484367
0.00311312
0.0030709
0.00179359
0.00166605
0.00181763
0.00188717
0.00189134
0.00189943
0.00189034
0.0018576
0.00183376
0.00180578
0.00178303
0.00176263
0.00172737
0.00165972
0.00153308
0.00167
0.00187231
0.00195626
0.00197846
0.00198924
0.00202061
0.00207222
0.00211319
0.00220871
0.00221761
0.0022164
0.00222394
0.00207823
0.00214285
0.0018134
0.00181042
0.00313832
0.00312918
0.0017975
0.00212253
0.00213749
0.00211364
0.00227602
0.00208273
0.00201697
0.00200714
0.00192232
0.00187726
0.00181669
0.00178059
0.00181494
0.00193006
0.00186791
0.0016555
0.00159384
0.00178893
0.0017223
0.00142892
0.0012209
0.00118752
0.00113687
0.00110615
0.00115954
0.00120134
0.00122517
0.00125532
0.00126421
0.00131943
0.00128344
0.00134622
0.00142764
0.00149247
0.00177007
0.00191857
0.00173322
0.00170013
0.0016791
0.00167802
0.00168354
0.00161425
0.00160971
0.00157387
0.00155615
0.001509
0.00148775
0.00146073
0.00146537
0.00148057
0.0016276
0.00418434
0.0053364
0.00555807
0.00949945
0.0038387
0.00391847
0.00769675
0.0031783
0.00478038
0.00512111
0.00535219
0.0055882
0.00511463
0.00651365
0.0045413
0.00506123
0.00526467
0.00459875
0.00173676
0.00199979
0.00229342
0.00203732
0.00179877
0.00122504
0.00131946
0.00136187
0.00139655
0.0014187
0.00144379
0.00147046
0.0014956
0.00151308
0.00151308
0.00146666
0.00141681
0.00130239
0.00126432
0.00131313
0.00136355
0.00119707
0.00112704
0.00114019
0.0011587
0.00116902
0.00117104
0.00118227
0.00118517
0.00120299
0.00119321
0.00120206
0.00118128
0.00119137
0.00117619
0.00113643
0.00108013
0.000984832
0.000961705
0.00138533
0.0014754
0.00154984
0.00175966
0.00203273
0.00216957
0.00194502
0.00179437
0.00172245
0.0019106
0.00191274
0.00348201
0.0066824
0.00299019
0.00334648
0.00976043
0.00388185
0.00301434
0.00305931
0.00309119
0.00309576
0.00179865
0.00212999
0.00206483
0.00207431
0.00175963
0.00147769
0.00132542
0.00118501
0.000803867
0.000801329
0.000807373
0.000819928
0.000823865
0.000788579
0.000788489
0.000783998
0.000782256
0.000765599
0.000760958
0.000747383
0.000739144
0.00071959
0.000709028
0.00069055
0.000687549
0.000720945
0.000804872
0.000973541
0.00107933
0.00122934
0.00125021
0.00139913
0.00345449
0.00400495
0.00552226
0.00548015
0.00864069
0.00540046
0.00407895
0.00368125
0.00538705
0.0055677
0.00516011
0.00698679
0.00483296
0.00320702
0.00490775
0.00409608
0.00476262
0.00469951
0.00499638
0.00794271
0.00834538
0.00234317
0.00208775
0.002195
0.00249122
0.00295871
0.00272887
0.00310682
0.00311325
0.00241111
0.00151939
0.00483633
0.00584098
0.00472535
0.00570007
0.00872959
0.00350123
0.00341371
0.00301961
0.00252001
0.00228975
0.00225998
0.00252076
0.00301673
0.0075482
0.0080802
0.00750651
0.00750384
0.00680127
0.00741955
0.00924653
0.00919181
0.00812954
0.00760301
0.00789791
0.00494605
0.00302622
0.00351941
0.00390591
0.00521286
0.00537681
0.0113415
0.00386028
0.004258
0.00432414
0.00577736
0.00560311
0.00987889
0.00420361
0.00452722
0.00596468
0.0079757
0.0146633
0.00537731
0.00565015
0.00811863
0.00824399
0.00753686
0.00545415
0.00493372
0.00536774
0.00404521
0.00395551
0.00337314
0.00497602
0.0066912
0.0053049
0.00515074
0.00437611
0.00391414
0.00399134
0.00414619
0.00344533
0.00339572
0.00391324
0.00292193
0.0028293
0.00297676
0.00082884
0.000424752
0.000434116
0.000445429
0.000454617
0.000464121
0.00047102
0.000479265
0.000482902
0.000483356
0.000484686
0.000512441
0.000507555
0.000491493
0.00044628
0.000509147
0.000807979
0.000808414
0.000508456
0.000448202
0.00080436
0.00128146
0.00151068
0.00178665
0.00180837
0.00156064
0.00135329
0.000833256
0.00082011
0.000497031
0.000580521
0.000630422
0.00055924
0.000624227
0.000578638
0.000612806
0.000619469
0.00057332
0.000569994
0.000572147
0.000567838
0.000557679
0.000545343
0.000530308
0.000518647
0.000512592
0.000508329
0.000498376
0.000412498
0.000385201
0.000465432
0.000744584
0.000745278
0.000697406
0.000655499
0.000619362
0.000602365
0.000597216
0.000593614
0.000603958
0.000623414
0.000628952
0.00063464
0.000683726
0.000661896
0.000706927
0.000663555
0.000708822
0.000665186
0.000611929
0.000513799
0.000530076
0.000855256
0.000864367
0.00139612
0.00159662
0.00181015
0.00181905
0.00203091
0.00213942
0.00181233
0.00188161
0.00215572
0.00200712
0.0017884
0.00179571
0.00161498
0.00161703
0.00143298
0.000895831
0.000883723
0.000554932
0.00053898
0.000642662
0.000631498
0.000702294
0.000751703
0.000751951
0.000749547
0.00073133
0.000724642
0.000637241
0.000624574
0.000625422
0.000606621
0.000602855
0.000629666
0.000689282
0.000810926
0.000981408
0.00106761
0.0011029
0.00105685
0.000945531
0.000700376
0.000630999
0.00109582
0.00113464
0.00204982
0.00487113
0.00229115
0.00430127
0.00310253
0.000769018
0.000856879
0.00109254
0.00122403
0.00132191
0.00137951
0.00126268
0.00105477
0.000794048
0.000655519
0.00097565
0.000843518
0.000951218
0.000830439
0.00107476
0.00124241
0.00120168
0.00121051
0.00102283
0.000832978
0.000882148
0.000791688
0.000872545
0.00073065
0.000879027
0.000793555
0.000997132
0.00100648
0.000985524
0.000934119
0.000711228
0.000746259
0.000626004
0.000679197
0.000609892
0.000630467
0.000597391
0.000696685
0.000802838
0.000770576
0.000767618
0.000630773
0.000494372
0.000546102
0.000472523
0.000534852
0.000415857
0.000503687
0.00042227
0.00054675
0.000563858
0.000567365
0.000564712
0.000460425
0.000541523
0.000661664
0.000693837
0.000699144
0.000665468
0.000513254
0.000793883
0.000715579
0.000873595
0.000755173
0.000827037
0.000752955
0.000877577
0.001124
0.00117365
0.00118144
0.000958657
0.000952698
0.00174015
0.0966057
0.00156535
0.00185025
0.00190813
0.00190138
0.00157195
0.00153334
0.00189985
0.00140482
0.0019901
0.00125317
0.00212336
0.000809278
0.00123022
0.00132081
0.00131803
0.00122501
0.000822388
0.00243324
0.118903
0.307865
0.334282
0.333737
0.320751
0.143798