/*--------------------------------*- C++ -*----------------------------------*\
| =========                 |                                                 |
| \\      /  F ield         | OpenFOAM: The Open Source CFD Toolbox           |
|  \\    /   O peration     | Version:  v2012                                 |
|   \\  /    A nd           | Website:  www.openfoam.com                      |
|    \\/     M anipulation  |                                                 |
\*---------------------------------------------------------------------------*/
FoamFile
{
    version     2.0;
    format      ascii;
    class       volScalarField;
    location    "70";
    object      alphat;
}
// * * * * * * * * * * * * * * * * * * * * * * * * * * * * * * * * * * * * * //

dimensions      [1 -1 -1 0 0 0 0];


internalField   nonuniform List<scalar> 
22960
(
0.00448984
0.00248204
0.00210954
0.00184496
0.00108822
0.00158713
0.00180717
0.00214776
0.00206152
0.00180369
0.00164547
0.00269503
0.00384403
0.00462307
0.0047436
0.00474268
0.00461777
0.00498737
0.00591766
0.00646919
0.00587754
0.0037251
0.00508355
0.00622876
0.00505228
0.00382427
0.00336729
0.00455025
0.00516483
0.00520728
0.0053028
0.00531311
0.00536584
0.00539087
0.0054775
0.00553365
0.00572004
0.00583683
0.00598162
0.0066757
0.00695951
0.00704779
0.00720827
0.00727628
0.00738879
0.00747318
0.00756395
0.00763121
0.00765086
0.00805815
0.00842794
0.0082309
0.00810771
0.00798382
0.00775367
0.00680794
0.00439495
0.00265951
0.00247874
0.00264872
0.00276517
0.00282052
0.00242346
0.00129185
0.00169151
0.00197176
0.00242357
0.00238793
0.00215418
0.00203424
0.00332498
0.00445718
0.00515018
0.00526021
0.00531227
0.00525794
0.00526329
0.00516252
0.00513515
0.00454041
0.00338211
0.00387651
0.00452535
0.00453495
0.0038174
0.00286826
0.00478198
0.00540845
0.00532427
0.00574517
0.00633524
0.00678067
0.00686688
0.00669588
0.00557389
0.00410834
0.0025119
0.00251637
0.00263803
0.00255246
0.00216905
0.00171387
0.00107199
0.00178938
0.00202938
0.00184124
0.00168452
0.00149093
0.00163627
0.00293217
0.00533455
0.00612637
0.00611869
0.00602276
0.00596646
0.00595422
0.00594647
0.00618072
0.00637092
0.00652918
0.00684146
0.00713518
0.00719171
0.00629292
0.00380769
0.00217234
0.00194853
0.00207331
0.00213406
0.00243482
0.00244156
0.00211473
0.00202372
0.00217517
0.0034928
0.00615125
0.00688512
0.00679578
0.00651654
0.00618747
0.00597651
0.00572869
0.0054385
0.00538821
0.00543433
0.0055527
0.00569532
0.00573442
0.00509522
0.00290075
0.00177677
0.00159901
0.00169091
0.00203605
0.00210065
0.00225127
0.00184674
0.0011069
0.00184826
0.00229986
0.00244336
0.00249424
0.0026312
0.00293699
0.00330416
0.0032102
0.0028631
0.00258928
0.0024205
0.00231948
0.00212217
0.00191482
0.00148963
0.000921873
0.00155248
0.00168293
0.00158792
0.00147173
0.00133849
0.00144562
0.00253736
0.00408035
0.00460346
0.00462969
0.00450563
0.00425882
0.00395548
0.00370026
0.00416409
0.00453508
0.00481881
0.00502838
0.00512082
0.00506583
0.00447801
0.0026502
0.00149239
0.00134519
0.00151541
0.00160957
0.00162781
0.00135557
0.000822534
0.00130806
0.00175712
0.00197507
0.00202546
0.00196311
0.00196829
0.00195686
0.001898
0.00167866
0.00125196
0.000853259
0.000917597
0.00105216
0.00113999
0.00121695
0.00132914
0.00147953
0.00163601
0.0017737
0.00187279
0.00192595
0.00193856
0.00190968
0.00182621
0.0015911
0.00151118
0.00244516
0.00321354
0.00340107
0.00334235
0.00306437
0.00259958
0.0018619
0.00119877
0.00118408
0.00121645
0.000993257
0.000702053
0.000488159
0.000412111
0.000227723
0.000236926
0.000288617
0.000307605
0.000328489
0.000256452
0.000223928
0.00042611
0.000563188
0.000666284
0.000742696
0.000804395
0.000853824
0.000856383
0.000844343
0.000792575
0.000541437
0.000359757
0.000480061
0.000589662
0.000547535
0.00050513
0.000405154
0.000374884
0.000630184
0.000716747
0.00080512
0.000740041
0.000664025
0.000678605
0.000696372
0.000709737
0.000722064
0.000720057
0.000724267
0.000712588
0.000711276
0.000686862
0.00067786
0.00062848
0.000605869
0.000545199
0.000516439
0.000517851
0.000668169
0.000903772
0.00154013
0.00240457
0.00290097
0.0031983
0.00341877
0.00346844
0.00473554
0.00464494
0.00412498
0.00333436
0.00271694
0.0016222
0.00100466
0.000917112
0.000931292
0.000847429
0.00082163
0.000692618
0.000774778
0.000879192
0.00108907
0.00110815
0.000867979
0.000937766
0.000970822
0.00102154
0.00103452
0.00106319
0.00106222
0.00108164
0.0010718
0.00108447
0.00106642
0.00107308
0.00107115
0.00109173
0.00113562
0.00120389
0.000959253
0.00129037
0.00153197
0.00143537
0.00142749
0.00195057
0.00253749
0.00267514
0.00445376
0.00512004
0.00462029
0.00248606
0.00238226
0.00169524
0.00110766
0.00114968
0.00127716
0.00129191
0.00121229
0.00118286
0.00121502
0.00130117
0.00131618
0.00130691
0.0012951
0.00127791
0.00125291
0.00121543
0.00109211
0.00103874
0.00137156
0.00177138
0.0019285
0.00309973
0.00430105
0.00501292
0.00417504
0.00508174
0.00570276
0.00600625
0.00605349
0.00611092
0.00607352
0.00679638
0.00679754
0.00671577
0.00656193
0.00625639
0.00569036
0.00474332
0.00552427
0.00607307
0.00653794
0.00679393
0.00702093
0.00713509
0.00715785
0.00713997
0.00729806
0.00741389
0.00764899
0.00770168
0.0076609
0.00750232
0.00717747
0.00610932
0.00371964
0.0019979
0.00174997
0.00182657
0.00182776
0.00185126
0.00167778
0.00105164
0.00164904
0.00225183
0.00243665
0.00236601
0.0021304
0.00201096
0.00323366
0.00436801
0.00511158
0.00525827
0.00536937
0.00528221
0.00517253
0.0044793
0.00337254
0.00208629
0.0019356
0.00150121
0.00114699
0.00119664
0.00130673
0.00112596
0.000864994
0.000671156
0.000760644
0.000716778
0.000699863
0.000697732
0.000692578
0.000688219
0.000691458
0.000685419
0.000689689
0.000679253
0.000682086
0.000660237
0.000655128
0.000608217
0.000589492
0.000531418
0.000494899
0.000481415
0.000606408
0.000829549
0.00147268
0.00238041
0.00280782
0.00313895
0.00340332
0.00346461
0.0039901
0.00376184
0.0030956
0.00331205
0.00274295
0.00294667
0.00327368
0.00423684
0.00444307
0.00509897
0.00487401
0.00443795
0.00413396
0.00326237
0.00332401
0.00296766
0.00150943
0.00246379
0.00215294
0.00137137
0.00136538
0.00103372
0.00122148
0.00158941
0.00142382
0.00135937
0.00265118
0.00226533
0.00240262
0.00252931
0.00267519
0.00407739
0.00293711
0.00297865
0.00468814
0.00404536
0.00339704
0.00350209
0.0040983
0.00398577
0.00372683
0.00341755
0.00378618
0.00372331
0.00373837
0.00369971
0.0036904
0.00367908
0.0036633
0.00384697
0.00398912
0.00423086
0.00434201
0.00437767
0.00431123
0.00403874
0.00375496
0.00138947
0.000521732
0.000597024
0.000714088
0.000848493
0.00100917
0.00113975
0.00127238
0.00147894
0.00147731
0.00137098
0.00125262
0.00110675
0.000913087
0.000563205
0.0003388
0.000305017
0.00052633
0.000865196
0.00120942
0.00134721
0.00190699
0.00180646
0.00271567
0.00455463
0.00489671
0.00520826
0.00536367
0.00540122
0.00530775
0.0045778
0.0029683
0.00297118
0.00307146
0.00300962
0.00298375
0.00299226
0.00292566
0.00286687
0.00248342
0.00226795
0.0015815
0.00136081
0.00161861
0.00173795
0.00188419
0.00186953
0.00209759
0.00198306
0.00203698
0.00195679
0.00175128
0.00160382
0.00264533
0.00379026
0.00460828
0.00476908
0.00483869
0.00465574
0.0044222
0.0036844
0.00271717
0.00166386
0.00152403
0.00117303
0.000888531
0.000917761
0.000992156
0.000842601
0.000633951
0.000474651
0.000417964
0.00024711
0.000258182
0.000317014
0.000329149
0.000336168
0.000269802
0.000251947
0.000502938
0.000651642
0.000750994
0.000825083
0.000891916
0.000939935
0.000942069
0.000929488
0.00086548
0.000523585
0.000352323
0.000466428
0.000564286
0.000528566
0.000491205
0.000395279
0.000366105
0.000605399
0.000549787
0.000608162
0.000692927
0.000740079
0.000783569
0.00079755
0.000802745
0.000816727
0.000908848
0.00105937
0.001381
0.00192501
0.00220742
0.00256805
0.00256767
0.00249232
0.00239636
0.00223705
0.00203939
0.00179162
0.00146788
0.000871527
0.000579637
0.000551755
0.00158106
0.00161017
0.00173679
0.00234929
0.00255339
0.00220508
0.00355019
0.00376575
0.00549681
0.00500156
0.00506003
0.00524987
0.00531914
0.00524588
0.00470392
0.00459278
0.00512341
0.00520671
0.00513843
0.00495343
0.00511492
0.0051917
0.00366158
0.00383367
0.00221113
0.00226618
0.00267853
0.0025477
0.00225608
0.00228753
0.00199977
0.0018554
0.00174499
0.00183844
0.00180385
0.00221004
0.00238543
0.00261295
0.00269237
0.00266871
0.00270066
0.00278482
0.00278521
0.00254118
0.00232858
0.00169992
0.00142907
0.00155221
0.00190327
0.00204952
0.00214088
0.00204736
0.00197527
0.00196309
0.00200844
0.00208181
0.00201349
0.00193799
0.0016864
0.00176357
0.00176675
0.00173606
0.00172849
0.00172888
0.00174798
0.00177237
0.00175851
0.00154153
0.00141472
0.00149394
0.00144731
0.00149936
0.00166192
0.00175878
0.00180735
0.00179496
0.00182659
0.00180987
0.00180799
0.00174245
0.00169573
0.00175732
0.00179626
0.00189131
0.00194708
0.0018727
0.00223434
0.00219306
0.00251819
0.00260201
0.00245395
0.00211614
0.00189193
0.00348886
0.00333671
0.00332678
0.00208128
0.00214785
0.00251957
0.00235667
0.0023088
0.00203832
0.00183942
0.00179889
0.0018336
0.00182308
0.0018194
0.00178141
0.00177503
0.00173858
0.00167936
0.00157573
0.00159075
0.0015736
0.0015485
0.00141511
0.00127292
0.00123935
0.00113641
0.00143862
0.0015366
0.00148178
0.00152289
0.00176171
0.00165551
0.00154764
0.00289774
0.0019276
0.00129391
0.00129579
0.00129615
0.00129667
0.00129328
0.00128491
0.00126536
0.00122849
0.00116928
0.0010193
0.00163483
0.00263513
0.00322904
0.004018
0.00458274
0.00469476
0.00545442
0.00543671
0.00549409
0.00554166
0.0055769
0.00557418
0.00547152
0.00471827
0.00366498
0.00326687
0.00297218
0.00319348
0.00345279
0.00361531
0.00222784
0.00242818
0.00248734
0.00259999
0.00296075
0.00353491
0.00371023
0.00339464
0.00318976
0.00302609
0.00286635
0.00252741
0.0029735
0.00323447
0.00330752
0.00333131
0.00359596
0.00437541
0.00453897
0.00438014
0.00392842
0.00390285
0.00381491
0.00387029
0.00386546
0.00385032
0.00408242
0.00523423
0.00549205
0.00520407
0.0052058
0.00550298
0.00522036
0.00474041
0.00479875
0.00258898
0.00069093
0.00286245
0.00353745
0.00492676
0.00442607
0.00355599
0.00308965
0.00419312
0.0040167
0.00500111
0.00511676
0.00454473
0.00507072
0.00503472
0.00529636
0.00549887
0.00484063
0.00444627
0.0046345
0.00485246
0.00492657
0.00470481
0.0049448
0.00487641
0.00512117
0.00515697
0.00440953
0.005325
0.00404486
0.00346875
0.00561466
0.00638573
0.00718146
0.00799939
0.00860528
0.00918648
0.00981485
0.0104892
0.0107732
0.0109507
0.0103614
0.00959461
0.00895228
0.00842122
0.00798653
0.00765138
0.00739167
0.00711173
0.00700202
0.0067467
0.00627751
0.00672635
0.00707071
0.00733396
0.00756997
0.00776317
0.00790536
0.00806869
0.00865554
0.00869395
0.00870117
0.00854106
0.00829852
0.00800985
0.00759471
0.00651692
0.00386333
0.00228304
0.00206984
0.00213171
0.00236865
0.0023238
0.00234142
0.00197789
0.00112662
0.0014324
0.00216708
0.00254235
0.00251816
0.0025322
0.00262391
0.00233718
0.00406742
0.00418529
0.00660268
0.00776917
0.00827282
0.00868404
0.00911944
0.00951888
0.00974477
0.00986855
0.00887713
0.00848003
0.00820962
0.00793443
0.00766559
0.00740329
0.00711532
0.0073199
0.00757497
0.00784197
0.00819593
0.00864853
0.00924953
0.0100602
0.011289
0.0108154
0.0101374
0.00948733
0.00890832
0.00839779
0.0078628
0.00708787
0.00635534
0.00407908
0.0041646
0.0022466
0.00240654
0.00265172
0.00264964
0.0026448
0.00259728
0.00221306
0.00168315
0.00198655
0.00186783
0.00327545
0.00364583
0.00398773
0.00408417
0.00239076
0.0023986
0.00246765
0.00260107
0.00251324
0.00248941
0.00355082
0.00354671
0.00359192
0.0036976
0.00379625
0.00278921
0.0030867
0.00394892
0.00387514
0.00330565
0.00318514
0.0033449
0.00328019
0.00404045
0.00394961
0.00377971
0.0037848
0.0028599
0.00312195
0.00389889
0.00376362
0.00299003
0.00271103
0.00301942
0.00113387
0.00214337
0.00176902
0.00299769
0.00371243
0.00398666
0.00470006
0.00455553
0.00447952
0.0043974
0.00363433
0.00335749
0.00308296
0.00430352
0.00424808
0.00352872
0.00360655
0.00406606
0.00377253
0.00466876
0.00475952
0.00447559
0.00425463
0.00280999
0.00418539
0.00432029
0.00443376
0.0042076
0.00379028
0.00335313
0.00309316
0.00373652
0.00372823
0.00372005
0.00316906
0.00265181
0.00212283
0.00301069
0.00325762
0.00391378
0.0037647
0.00359713
0.00276458
0.00285315
0.00205889
0.00232219
0.00243623
0.00225369
0.00191358
0.00334652
0.00513361
0.00581778
0.00588931
0.00589257
0.00585
0.00573809
0.00501042
0.00320714
0.00316128
0.0032445
0.00322486
0.00323437
0.00323637
0.00316704
0.00325795
0.00321408
0.0032552
0.00326481
0.0032945
0.00334498
0.00336149
0.00343042
0.00532268
0.0050658
0.00521859
0.0050201
0.00492926
0.00509069
0.0051461
0.0050743
0.0048067
0.00450976
0.00436339
0.00488656
0.00495668
0.00498448
0.00504101
0.00510237
0.00505954
0.00493639
0.00486736
0.00463684
0.00495284
0.00531124
0.00542293
0.0053115
0.00511673
0.00505544
0.00499407
0.00535127
0.0050124
0.00505232
0.00564247
0.00575157
0.0057919
0.00577724
0.00567341
0.00510245
0.00323686
0.00181866
0.00214528
0.00232126
0.0023223
0.00216327
0.00204619
0.00215984
0.00219129
0.00207517
0.00177224
0.00328979
0.0032683
0.00506323
0.00563789
0.00575149
0.0057649
0.00571808
0.00560503
0.00565065
0.00574716
0.00580635
0.00582253
0.00576676
0.00555517
0.00541023
0.00328718
0.00332943
0.00163393
0.00173853
0.00200799
0.00210666
0.00213309
0.00203505
0.00179992
0.00190261
0.00185374
0.00179711
0.00333704
0.00339587
0.00307259
0.00314607
0.00199283
0.00299906
0.0039446
0.00406661
0.0042083
0.00325398
0.00377359
0.00282535
0.00288588
0.00374802
0.00372477
0.00356415
0.0036949
0.00386797
0.00400609
0.00374781
0.00376653
0.00535718
0.00402547
0.00408914
0.0038041
0.00414618
0.0041635
0.00410726
0.00386463
0.00600045
0.00480749
0.00441979
0.00426576
0.00479346
0.00477068
0.00460541
0.00313926
0.00339644
0.00350565
0.00358434
0.00406436
0.0040087
0.00478251
0.00487295
0.00453937
0.00417017
0.00405175
0.00354297
0.00343416
0.0047285
0.00536988
0.00538316
0.00365278
0.00425613
0.00534494
0.00530478
0.00546043
0.00563118
0.00560515
0.00341694
0.0032821
0.00318382
0.00299158
0.00277898
0.00311632
0.00345211
0.00377444
0.00391494
0.00430245
0.00467907
0.00510765
0.00517579
0.00487933
0.00541335
0.00534206
0.0052855
0.00523004
0.005209
0.0044611
0.00573511
0.00553883
0.00524957
0.00483406
0.00309583
0.00193052
0.00223676
0.00250037
0.00241321
0.0035997
0.00445288
0.00360106
0.00464124
0.00468606
0.00483853
0.00435916
0.00417465
0.00461614
0.00510826
0.00494937
0.00494766
0.0057274
0.00484515
0.00484442
0.00513452
0.00504123
0.00549739
0.00500408
0.00475739
0.00505662
0.00532844
0.004916
0.00456357
0.0048879
0.00505098
0.00440203
0.00417118
0.00370034
0.00291789
0.00319608
0.0034058
0.0033
0.00367396
0.00443443
0.00500516
0.00384141
0.00484427
0.00484533
0.00479724
0.00475257
0.0051925
0.00575429
0.00556126
0.00585861
0.00577934
0.0057351
0.00543126
0.00529272
0.00494469
0.00524552
0.00537555
0.00535159
0.00515798
0.00488743
0.00523784
0.0048228
0.0041971
0.00434802
0.00495708
0.00516409
0.00465025
0.00473852
0.00523649
0.0056829
0.00550328
0.00503486
0.00461541
0.00504814
0.00518203
0.00464454
0.00442857
0.00392842
0.0040988
0.00476581
0.00500988
0.00440008
0.00438541
0.00430987
0.00425293
0.00494189
0.0052799
0.00518194
0.00537645
0.00553177
0.00569171
0.00559986
0.00555363
0.00549658
0.00566183
0.0055396
0.0056034
0.00549974
0.0051817
0.00535917
0.00514209
0.00540377
0.00453035
0.00530597
0.00548599
0.00486011
0.00552408
0.0056061
0.00545342
0.00571832
0.00419124
0.00418258
0.00387275
0.00413555
0.00490329
0.00599112
0.00536729
0.00535586
0.00465577
0.00477978
0.00539852
0.00538524
0.00525474
0.00498191
0.00626323
0.00672288
0.00568671
0.00669817
0.00622492
0.00596928
0.00588891
0.00589604
0.00586059
0.00577903
0.00568832
0.00560149
0.00553805
0.00549041
0.00541378
0.00491911
0.00517526
0.00537981
0.00514937
0.00478358
0.00480574
0.00489841
0.0049748
0.00498275
0.00492917
0.00488125
0.00488431
0.00487539
0.00474784
0.00454595
0.00425751
0.00433696
0.00433971
0.00435408
0.00433952
0.00435118
0.0044664
0.00485489
0.00514781
0.00522041
0.00520649
0.00505122
0.00496173
0.00509952
0.00533031
0.00558011
0.0057044
0.00579679
0.00588573
0.00596662
0.00613885
0.00650604
0.00704567
0.00725392
0.00642944
0.00566203
0.00549434
0.00530639
0.00519633
0.00506312
0.00480896
0.00434082
0.00458785
0.00454365
0.00528186
0.0055147
0.00559442
0.00553817
0.00505935
0.0035091
0.00364156
0.00362513
0.00327689
0.00278068
0.0031679
0.00324018
0.00361873
0.00366163
0.00337583
0.00323846
0.00309093
0.00348341
0.00374109
0.00369967
0.00366818
0.00352871
0.00336707
0.00324555
0.00308909
0.00300792
0.00291251
0.00287576
0.00282706
0.00280807
0.00276246
0.00437192
0.00498132
0.00488343
0.00460963
0.0041913
0.00441078
0.0045921
0.00416297
0.00264815
0.00274671
0.00269043
0.00276696
0.00271584
0.00271473
0.00272394
0.00272332
0.00272996
0.00272107
0.00273477
0.00272818
0.00279614
0.00273952
0.00286902
0.00318007
0.00160015
0.00172415
0.00174642
0.00173458
0.00169392
0.00167173
0.00166289
0.00165291
0.00165071
0.00165044
0.00166776
0.00166057
0.00161574
0.00148019
0.00157274
0.00264333
0.00260424
0.00408728
0.00257088
0.00153355
0.00156127
0.0018064
0.00180118
0.00187148
0.00183184
0.00168861
0.00164544
0.00165093
0.0016616
0.00167306
0.00173957
0.0019546
0.0020236
0.0020049
0.0017536
0.00179366
0.00209362
0.00201739
0.00173584
0.00142375
0.00126948
0.00124369
0.00124211
0.00123868
0.00123306
0.00122567
0.00121746
0.00120762
0.00119727
0.00121199
0.00134515
0.00161788
0.00184295
0.00167275
0.00175969
0.00168878
0.00147385
0.00246751
0.00387275
0.00242313
0.00142715
0.00161836
0.00149186
0.00156493
0.00134181
0.00139264
0.00153902
0.00133125
0.00123164
0.00109594
0.00103968
0.00107227
0.00108446
0.00109696
0.00110767
0.00111527
0.00112064
0.00110005
0.00116871
0.0013238
0.00144858
0.0016993
0.0018758
0.00158733
0.00130876
0.00117997
0.00105567
0.000744016
0.000732806
0.000721369
0.000720764
0.000737565
0.00074857
0.000750528
0.000750428
0.000742587
0.000732257
0.00071636
0.000666839
0.000673597
0.000689483
0.000705214
0.000705674
0.000713353
0.00072477
0.000732697
0.000740097
0.00073432
0.00073116
0.000735474
0.000741915
0.00074208
0.00073556
0.000732924
0.000728058
0.000726161
0.000718014
0.000710675
0.000700887
0.000695436
0.000690323
0.00068459
0.000672997
0.000665661
0.000655266
0.000960038
0.00106054
0.00115501
0.00137196
0.00161291
0.00176246
0.00155998
0.00263738
0.00417106
0.00259271
0.00151854
0.00170479
0.00155366
0.00130347
0.00125898
0.00127596
0.00131899
0.00111293
0.00113196
0.00117803
0.00107522
0.000968176
0.000659031
0.000667321
0.000671295
0.000682156
0.000686114
0.00068954
0.000693039
0.000701221
0.000706383
0.000711909
0.000710332
0.000712447
0.000713384
0.00071898
0.000718662
0.00071284
0.000708622
0.000717714
0.000404431
0.000443513
0.000457958
0.000456399
0.000455698
0.000450442
0.000455787
0.00044953
0.00044616
0.00043573
0.00042747
0.000422426
0.000420985
0.000416897
0.000405363
0.000370766
0.000413137
0.000662228
0.000661397
0.000409712
0.000362238
0.000637399
0.000992329
0.000641172
0.000391257
0.000454161
0.000485385
0.000443373
0.000491336
0.000464684
0.000485308
0.000502441
0.000510352
0.000520547
0.000530423
0.000535535
0.000542478
0.000564124
0.00056092
0.000568476
0.000567871
0.000559519
0.000532602
0.000471741
0.000523501
0.000581826
0.000603761
0.000611835
0.000562399
0.000562692
0.000587995
0.000579036
0.000573309
0.000566632
0.000533985
0.000512969
0.000536552
0.000511735
0.000533491
0.000508627
0.000526829
0.000499889
0.000466907
0.000394886
0.000640353
0.00099587
0.000639698
0.000394438
0.000466666
0.000510897
0.000540076
0.000541714
0.000549969
0.000548258
0.000561637
0.000547739
0.000497629
0.000535264
0.000211896
0.000376746
0.000297682
0.00037205
0.000308282
0.000418504
0.000506142
0.000498796
0.000510901
0.000433991
0.000413012
0.000406081
0.000414029
0.000424152
0.00041213
0.000454511
0.000460638
0.000574693
0.000573704
0.000584668
0.000610459
0.000511954
0.000526736
0.000484338
0.000535661
0.000519768
0.000531917
0.000539503
0.000550174
0.000653799
0.000670546
0.000686578
0.000578282
0.000407788
0.000501477
0.000375254
0.000473358
0.000249402
0.000575665
0.000574861
0.000550708
0.000576188
0.000581256
0.000582085
0.000582785
0.000558408
0.000726085
0.000687922
0.000779192
0.000278677
0.000561909
0.000383983
0.000531268
0.000395721
0.000524297
0.000673281
0.000706936
0.00069907
0.000593425
0.000644685
0.00178442
0.128105
0.00136026
0.00166385
0.00169155
0.00166004
0.00127463
0.000941883
0.00127153
0.000803785
0.00131912
0.000576729
0.00192157
0.00169689
0.00188644
0.00199387
0.000887204
0.000943547
0.000977889
0.00102868
0.000893947
0.000870364
0.00104878
0.00107101
0.10593
0.129907
0.136878
0.130724
0.100047
0.128383
0.345294
0.54554
0.645395
0.187931
0.00141983
0.00151959
0.00100804
0.000855655
0.000382786
0.000848638
0.00162138
0.136644
0.292782
0.747561
1.38307
0.993901
0.646366
0.335211
0.124825
0.294423
0.119392
0.326587
0.133158
0.171136
0.448231
0.826103
0.638683
0.977428
0.611281
0.986909
1.27262
1.50468
1.75611
1.21248
0.477149
0.13806
0.00113854
0.000818547
0.000854557
0.00160141
0.00123485
0.000699081
0.000822234
0.00165472
0.143181
0.499897
1.31791
1.63799
1.73314
1.64195
1.4768
1.2608
1.39128
1.15829
1.20417
0.87036
0.470327
0.17078
0.17713
0.470588
0.866361
1.17936
1.40199
1.42178
1.55428
1.53894
1.69721
1.76769
1.78025
1.65746
1.07134
0.213573
0.00206
0.0010709
0.00117286
0.0020981
0.209551
1.13512
1.73528
1.8151
1.77856
1.70942
1.70367
1.56718
1.4489
1.26788
1.03204
0.681763
0.370263
0.119735
0.00161578
0.00161243
0.00170921
0.00150373
0.117878
0.309912
0.589781
0.94575
1.18093
1.35689
1.59539
1.70155
1.7809
1.82016
1.81282
1.22429
0.20331
0.00208893
0.00116701
0.000874226
0.0017054
0.120554
0.45998
1.79606
1.79274
1.59983
1.52669
0.852348
0.7717
0.657079
0.485188
0.289532
0.112844
0.00192728
0.0012362
0.00160227
0.164288
0.178201
0.18445
0.185646
0.122265
0.463779
0.119735
0.451516
0.118192
0.00197372
0.00218258
0.000901641
0.000822983
0.000926907
0.00198773
0.00206201
0.000911027
0.000955038
0.00185271
0.00214405
0.000845191
0.000689111
0.00140411
0.00172639
0.00085004
0.000844479
0.00175597
0.00170496
0.000810361
0.000744398
0.000539256
0.000656797
0.000569408
0.00064157
0.00061487
0.000656754
0.00130544
0.00113079
0.00101142
0.00112176
0.00124327
0.00149068
0.00152334
0.00168373
0.0016886
0.00176492
0.00183192
0.00184762
0.00169988
0.00130311
0.0015798
0.00169394
0.00166682
0.00140862
0.00199692
0.00118321
0.00101673
0.0010821
0.00110004
0.000860721
0.00108528
0.00119609
0.00126951
0.00112586
0.000964117
0.00114279
0.00130332
0.00165276
0.00165846
0.00146676
0.00151421
0.00191934
0.00171347
0.00178933
0.00187727
0.00168599
0.00157302
0.00176175
0.00141005
0.0014979
0.00311255
0.0120807
0.0195972
0.0323683
0.0379892
0.0352846
0.0210102
0.0144458
0.00558559
0.00115435
0.00121453
0.00081706
0.0011366
0.00142897
0.0015392
0.00140836
0.00104472
0.00129491
0.00155472
0.00105357
0.000902929
0.000942586
0.00106326
0.00097786
0.000766555
0.000700949
0.000964543
0.00100142
0.0010702
0.000982256
0.000779063
0.000869686
0.00104647
0.00112202
0.0010013
0.000953711
0.000792194
0.000553348
0.00103562
0.00116617
0.00128899
0.00124509
0.00125387
0.00141122
0.0015112
0.00153989
0.00109246
0.00090618
0.00124844
0.00149638
0.00166678
0.00161892
0.00713959
0.002723
0.00146233
0.00105238
0.00096322
0.000946677
0.00104313
0.000765558
0.000901569
0.00100055
0.00105057
0.000993515
0.000962133
0.000846618
0.000962348
0.00102714
0.00100324
0.000934004
0.00078362
0.000881562
0.00089397
0.000979593
0.000934142
0.00081786
0.000854698
0.000924914
0.000982532
0.000946121
0.00107856
0.000829685
0.00108224
0.00107319
0.0010341
0.0011745
0.00100097
0.00121437
0.000906212
0.000845751
0.00126987
0.000880064
0.000814793
0.00140372
0.000910444
0.000847852
0.00163709
0.000968341
0.000852458
0.00204579
0.00078243
0.00121893
0.00115387
0.00117808
0.00101375
0.00104737
0.00118115
0.00118835
0.00163253
0.001237
0.00092176
0.000470138
0.000410224
0.000455866
0.000538832
0.000591972
0.000617138
0.00064205
0.000651477
0.000604117
0.000625639
0.000655079
0.000678818
0.000656621
0.000623863
0.000566963
0.000470158
0.000475342
0.000575276
0.000650779
0.000691975
0.000687833
0.000663473
0.000932748
0.00157324
0.00157345
0.00135237
0.00146895
0.00168209
0.00149873
0.00122544
0.00104629
0.00114482
0.00125734
0.00121063
0.00112678
0.0010241
0.00118925
0.00119603
0.00121581
0.00121561
0.00123378
0.00104337
0.0011291
0.00123532
0.00128211
0.00126402
0.00117575
0.00120487
0.00138612
0.00151237
0.00139279
0.00148096
0.00157351
0.0014287
0.0010815
0.000683742
0.000679973
0.00066257
0.000574087
0.000473966
0.000467703
0.000571263
0.00066493
0.000672444
0.000684656
0.000648947
0.000562001
0.000455233
0.000435476
0.00053979
0.000611695
0.000660886
0.000638578
0.000580425
0.000493776
0.000400829
0.00041144
0.000502981
0.000599119
0.000629882
0.000651564
0.000683145
0.000696198
0.000690654
0.000677914
0.00065815
0.000626268
0.000610151
0.000603967
0.000577727
0.000566733
0.000564944
0.000547021
0.000540338
0.000551883
0.000523645
0.000488207
0.000439249
0.000404625
0.00035693
0.000631478
0.000983004
0.00112699
0.00134976
0.00131439
0.00110365
0.00109282
0.00106292
0.00108198
0.000971915
0.000627556
0.000388467
0.000459536
0.000511105
0.000518088
0.000523196
0.000760359
0.00079526
0.000941753
0.000989304
0.000868994
0.000968005
0.00107675
0.000967837
0.000829563
0.000954918
0.00105361
0.00122613
0.00136278
0.00120505
0.00113902
0.00131083
0.00144551
0.00127919
0.00102638
0.000694743
0.00110303
0.00118143
0.00104073
0.000881051
0.00490562
0.000963418
0.00148048
0.000987673
0.000871172
0.000910547
0.00100721
0.000922027
0.00074334
0.000677663
0.000903631
0.000933742
0.000994125
0.000909534
0.00073848
0.000824628
0.000972784
0.00104078
0.000945488
0.00101774
0.000782298
0.000534189
0.000859598
0.000983925
0.00109698
0.00101854
0.00113936
0.00142346
0.00129788
0.00120623
0.00127398
0.000882521
0.000888348
0.000844891
0.00081999
0.00211034
0.000819258
0.000760732
0.00205918
0.00091515
0.000833628
0.00105177
0.000850836
0.000915721
0.000913471
0.000933423
0.00175332
0.00196266
0.00183621
0.00138161
0.00134468
0.00142338
0.00200443
0.0020251
0.00200623
0.00179193
0.0012043
0.00171364
0.00215756
0.00224299
0.00183955
0.00145216
0.00160262
0.00166136
0.00147686
0.00106112
0.00104682
0.00102725
0.000959206
0.000994322
0.00100902
0.00100921
0.00101237
0.000942921
0.00104561
0.00107459
0.00111589
0.0010382
0.000978615
0.00109143
0.00113112
0.00125211
0.00106816
0.00113221
0.000869449
0.00124276
0.00146427
0.00171119
0.00174355
0.0015412
0.00120031
0.000951191
0.00112221
0.00136178
0.00164263
0.00153973
0.00131265
0.00154282
0.00122933
0.00130606
0.00159341
0.00114545
0.00108617
0.00106132
0.00107728
0.000942283
0.00152397
0.00117504
0.00120638
0.00110492
0.00105507
0.0015318
0.000893532
0.00118363
0.00117752
0.00124809
0.00131373
0.00120582
0.00210001
0.000802647
0.00120532
0.0012293
0.00195763
0.00126428
0.00137631
0.00135286
0.00130553
0.00204689
0.00141529
0.0014669
0.00126782
0.00123006
0.00282587
0.00149834
0.00152055
0.00119554
0.00109183
0.00256378
0.0014169
0.00139001
0.0010848
0.00114102
0.000426085
0.000518906
0.000616107
0.000611999
0.000672908
0.000635542
0.000690838
0.000640189
0.000657949
0.000592193
0.000596792
0.000581947
0.000569756
0.000541799
0.000533063
0.000531905
0.000527414
0.00051784
0.000505521
0.000484576
0.000461838
0.000409337
0.000655032
0.000653858
0.000647134
0.000644012
0.00193278
0.000875
0.000449021
0.000386421
0.000634949
0.000629662
0.000983292
0.000972379
0.000952227
0.000613174
0.000622844
0.000385231
0.000456195
0.000508896
0.00050425
0.000510547
0.000500865
0.000453861
0.000380559
0.000379293
0.000611007
0.000622575
0.000384592
0.000456481
0.00045283
0.000487769
0.00049952
0.000512643
0.000501698
0.000506716
0.000455343
0.000385305
0.000623508
0.000630768
0.000389069
0.000459813
0.000512083
0.000519267
0.000506808
0.000776464
0.000947081
0.00101231
0.00112648
0.00110925
0.000946278
0.000979938
0.0010606
0.00117732
0.0011703
0.00116486
0.00120265
0.00108757
0.000860338
0.000780409
0.000988768
0.00104515
0.00114765
0.00182787
0.00132706
0.00102554
0.000958866
0.00104913
0.000986353
0.000986127
0.000939283
0.00088203
0.000938374
0.00091223
0.000733795
0.000795025
0.00089783
0.000936707
0.000861729
0.000925755
0.000821693
0.000720829
0.00085714
0.000918269
0.00091228
0.000831645
0.000658767
0.000873959
0.000904183
0.000938226
0.000818826
0.000712507
0.000855005
0.000849539
0.000899103
0.00192153
0.000837742
0.000873434
0.00189475
0.000759248
0.000720038
0.000664964
0.000744569
0.000743436
0.000805545
0.000805348
0.000842813
0.000851094
0.00188848
0.000787766
0.000847045
0.00182753
0.000741661
0.000649453
0.000657107
0.000719998
0.000674686
0.000727945
0.000671123
0.00197819
0.000770427
0.000816243
0.000859754
0.0008652
0.000911303
0.000869405
0.00210039
0.000801684
0.000852113
0.000712696
0.000659051
0.000685765
0.000664363
0.00213229
0.000833979
0.00090492
0.000892673
0.000953184
0.000898812
0.000504167
0.000459434
0.000388294
0.000667456
0.00205561
0.000881054
0.000840206
0.000673821
0.000715002
0.000836754
0.00187594
0.00165895
0.00172774
0.00175387
0.00165667
0.00155921
0.00161733
0.00167764
0.00168572
0.00172294
0.00171941
0.00183727
0.00182454
0.00218669
0.00256514
0.0016354
0.00229743
0.00502475
0.00649393
0.0085048
0.00172374
0.0012683
0.000989651
0.00101531
0.000916215
0.00100148
0.000961082
0.00118075
0.00122245
0.00117489
0.000924294
0.000941235
0.000975593
0.00106851
0.00102983
0.00127304
0.00167467
0.00817703
0.00682136
0.00384374
0.00257898
0.0014988
0.00157571
0.00158792
0.00160009
0.00106346
0.0053776
0.0032639
0.00184474
0.00398901
0.0025775
0.00348336
0.00317225
0.00384711
0.00378351
0.00144385
0.00144016
0.00143564
0.00142928
0.00142296
0.00141628
0.00141345
0.00142561
0.00155461
0.00257901
0.00318468
0.00327329
0.0035314
0.0036597
0.00413043
0.00446523
0.00502022
0.00561853
0.00606247
0.00551105
0.00806755
0.00581616
0.00717555
0.0070633
0.0079612