/*--------------------------------*- C++ -*----------------------------------*\
| =========                 |                                                 |
| \\      /  F ield         | OpenFOAM: The Open Source CFD Toolbox           |
|  \\    /   O peration     | Version:  v2012                                 |
|   \\  /    A nd           | Website:  www.openfoam.com                      |
|    \\/     M anipulation  |                                                 |
\*---------------------------------------------------------------------------*/
FoamFile
{
    version     2.0;
    format      ascii;
    class       surfaceScalarField;
    location    "70";
    object      phi;
}
// * * * * * * * * * * * * * * * * * * * * * * * * * * * * * * * * * * * * * //

dimensions      [1 0 -1 0 0 0 0];
oriented        oriented;


internalField   nonuniform List<scalar> 
63799
(
0.00326299
-0.00548038
0.00434101
-0.00843268
-0.00576983
0.00884392
-0.00503143
-0.00856641
0.0105205
0.00625342
0.00635538
-0.00793515
-0.00353096
0.00389153
0.00324935
-0.000848663
0.00439047
0.00169566
-0.00224196
0.0055215
0.0029208
-0.00412274
0.0015698
0.0038638
0.00305897
-0.00645785
0.00486962
0.00461266
-0.00593072
0.00426682
0.00550482
-0.00449284
0.00349814
0.00658899
-0.00305649
0.00186809
0.012493
-0.00513576
-0.000961427
0.0145043
-0.0115319
0.00896417
0.0152596
-0.0130313
0.0115822
0.0179357
-0.0121928
0.00874086
0.0171656
-0.00982529
0.00981409
0.0108347
-0.00751428
0.0130342
-0.00646235
-0.00812598
0.0246464
-0.0205549
-0.0171088
0.0304389
-0.0176514
-0.0305763
0.0269804
-0.0069048
-0.0339366
0.0226373
-0.0153552
0.00809368
-0.0486528
0.0305154
0.0024413
-0.0530383
-0.0233063
0.0271401
-0.0618997
-0.0129789
0.0212882
-0.0440424
-0.0325517
0.0143517
-0.0553966
0.0109955
-0.0889945
0.00718751
0.0258542
-0.108841
0.0145214
0.00462746
-0.122472
0.008272
0.00458838
-0.128568
0.0026846
0.00260869
-0.13005
-0.001292
0.00192121
-0.128716
-0.00504345
0.00285255
-0.125163
-0.0097088
0.00527927
-0.118397
-0.0163781
0.00875802
-0.105564
-0.0266405
0.0129511
-0.0836195
-0.0391346
0.0163949
-0.0512613
-0.050779
0.0176322
-0.061885
0.00987619
-0.103246
0.00333376
0.0372251
-0.131621
-0.00055711
0.0281011
-0.149852
-0.00280478
0.0201276
-0.1583
-0.00450064
0.012022
-0.157953
-0.00722933
0.0059149
-0.149484
-0.0110776
0.00164333
-0.132506
-0.0159176
-0.00202887
-0.106704
-0.020944
-0.00582026
-0.0702491
-0.0253026
-0.0121093
-0.0414728
-0.0178447
-0.0118816
0.0151425
-0.0142576
-0.0432994
0.0816317
-0.0179357
-0.0494802
0.119051
-0.0033919
-0.0349363
0.141278
0.00331359
-0.026418
0.150824
0.00856859
-0.0189524
0.140541
0.0162601
-0.00674091
0.081525
0.0368515
0.0215429
0.0342908
0.0174935
0.0295206
0.0192666
0.0114314
0.00351511
0.0197947
0.00076684
-0.00135031
0.0196123
-0.00102497
0.0011363
0.0166764
0.000232896
0.00262204
0.0109371
0.000922636
0.00473191
0.00639156
0.000785767
0.00368821
0.00555163
0.000400231
0.000388633
-0.00253642
0.00626518
0.00175138
-0.000671373
-0.00195324
0.00655617
0.000101786
-0.00742837
0.0124629
0.00250526
-0.00852237
0.017592
0.0021175
-0.00734973
0.0239586
-0.000885791
-0.00558594
0.0571814
-0.017094
-0.016326
0.111733
-0.0114595
-0.0436665
0.13416
0.00286178
-0.0260082
0.143606
0.00445278
-0.0147061
0.146056
0.00399014
-0.00725228
0.143384
0.0042152
-0.00238319
0.135611
0.00508032
0.00189558
0.120308
0.00677479
0.00775027
0.0983976
0.00604457
0.0151606
0.0614036
0.00740732
0.029026
0.0501105
0.0109331
0.0803796
0.0141211
-0.0447331
0.0759973
0.00864114
-0.00481068
0.0515202
0.0160099
0.00791526
-0.00163307
0.0533412
-0.000530927
-0.00591495
0.00392192
0.0109561
0.0172462
-0.0346778
0.0103096
0.0282655
-0.0283242
0.00128002
0.0317713
-0.0235194
0.0014368
0.0307204
-0.031674
0.0148928
0.0342653
-0.0485601
0.0301554
0.0397939
-0.0558689
0.0431624
0.042337
-0.0561501
0.0459081
0.0437977
-0.0472624
0.0248482
0.0468026
-0.0263167
0.0126658
0.0210922
-0.00910676
0.0123198
0.00611375
-0.00587285
0.0122357
0.00564625
-0.00566509
0.0109419
0.00629637
-0.00511295
0.00712754
0.00537674
-0.00166134
0.00199386
0.00504554
0.00310613
0.00346247
-0.00464618
0.00271518
0.00275939
-0.00241946
0.0018476
0.00410567
-0.00330959
0.00265904
0.00467877
-0.00557489
0.00222897
0.00429351
-0.00394421
0.00187582
0.00395966
-0.00367753
0.00216642
0.00198586
-0.00233177
0.00336923
0.00182155
-0.00310193
-0.00165858
0.0104875
-0.00567944
-0.012071
0.0341853
-0.024394
-0.0117062
0.0326974
-0.0338245
-0.0119801
0.0345443
-0.0351074
-0.0140162
0.0370927
-0.0359324
-0.0129722
0.0364674
-0.0384177
-0.0108507
0.0368511
-0.0398946
-0.00705154
0.0374735
-0.0422045
0.00152983
0.043194
-0.0527075
0.0058745
0.0488019
-0.054069
0.00434326
0.0518373
-0.0512128
0.00285504
0.0527335
-0.0521215
0.00881551
0.0485155
-0.0553133
0.0191671
0.045875
-0.0569891
0.0166997
0.0481709
-0.0463243
0.00564038
0.0188182
-0.00797838
0.00379665
0.00652583
-0.0047595
0.00566392
0.00259635
-0.00451853
0.00745205
0.00394801
-0.00580609
0.00454873
-0.00511008
-0.00822947
0.00951146
-0.00538528
-0.00572602
0.00763564
-0.00626696
-0.00126339
-0.00188797
0.00736532
-0.0021317
-0.0060847
0.0122327
0.00715083
-0.00604697
-0.00567217
0.0163321
0.0019013
-0.000960503
0.0751537
0.0152089
-0.0478898
0.017513
0.0716953
-0.0452051
0.0264041
0.071447
-0.0327472
0.0231942
0.0739132
-0.0189099
0.0158345
0.0700306
-0.0117905
0.010991
0.0638046
-0.0111283
0.0104761
0.0536285
-0.0108954
0.00721544
0.0415279
-0.00176923
0.00217456
0.0406707
0.000252781
-0.00511457
0.0440917
-0.00129143
-0.0144848
0.0476116
-0.0020883
-0.0174581
0.0448855
-0.00829199
-0.015557
0.0465558
-0.0166707
-0.00994459
0.0526364
-0.005104
-0.0199461
-0.00609668
0.0106176
-0.00415056
-0.00753556
0.00898329
-0.00523087
-0.00242726
-0.00459333
-0.00114968
-0.00173037
-0.000898929
-0.00272196
0.00858949
-0.00371505
-0.00309743
0.00856488
-0.00398358
-0.0017534
0.00886964
-0.00562647
-0.00264237
0.00693056
-0.00200511
-0.0026627
0.00473398
-0.00200059
-0.00221775
0.00647618
-0.00352144
0.01014
-0.00740832
0.0147399
-0.00779062
0.00308134
0.0190807
-0.00790951
0.00344509
0.0238815
-0.00834139
0.00340449
0.0341043
-0.0124722
0.00207087
0.0462716
-0.0190129
0.00655959
0.0342507
-0.000120941
0.0118573
0.0248744
-0.000834229
0.0100307
0.0208836
-0.00189587
0.0057506
0.0172631
-0.00101493
0.00451183
0.0130311
0.00034528
0.00377734
0.00771209
0.00183798
0.00338492
0.00360663
0.00401734
0.00287297
0.00615202
-0.00548979
0.00277823
0.00393921
-0.00389548
0.00559609
0.0016765
-0.00456585
0.00754676
0.00237215
-0.00440747
0.00874999
0.00287882
-0.00416277
0.00854616
0.0033747
-0.00324183
0.00815809
0.00301112
-0.0026783
0.0151119
0.000938434
-0.0079697
0.0392123
-0.00677603
-0.0175437
0.0691559
0.0130875
-0.0436482
0.0766237
0.0246101
-0.0328338
0.0746334
0.0291482
-0.0279847
0.0664687
0.0308433
-0.0235346
0.0529342
0.030458
-0.017792
0.0252947
0.0285802
-0.00180275
-0.0155234
0.025753
0.0142084
-0.039837
0.0323821
-0.00892585
-0.0496741
0.0373366
-0.0283617
-0.0552998
0.0394871
-0.0347287
-0.0566462
0.0388918
-0.0383981
-0.0523121
0.0362573
-0.0414132
-0.0415968
0.0326554
-0.0441217
-0.0204991
0.0268881
-0.0486012
-0.00703256
0.00295707
-0.0166427
-0.00339367
0.00281997
-0.00653643
-0.00395363
0.00361599
-0.00311135
-0.00365994
0.00475572
-0.00512017
-0.00214816
0.00447446
-0.00606549
-0.000479536
0.00441373
-0.0061625
0.000657412
0.00191881
-0.00311938
0.000701854
0.00275155
-0.0028437
-0.000565608
0.00542142
-0.00422444
0.0056712
-0.00632351
0.00964677
0.00208486
-0.00615971
0.0123072
0.00383077
-0.00659903
0.0146178
0.00371454
-0.00613161
0.016327
0.00396475
-0.00577723
0.0173802
0.0041919
-0.00534543
0.0171005
0.00453492
-0.0043493
0.0120215
0.00627276
-0.00127087
0.00557164
-0.000113876
0.00653351
0.00541956
-0.000772076
0.00091066
0.00647966
-0.00085278
-0.000221987
0.00750757
-0.000931927
-0.000111516
0.00833885
-0.000655425
-0.000191599
0.0088455
-2.92682e-05
-0.000492836
0.00894148
0.000614185
-0.000725593
0.00875933
0.00106205
-0.000895249
0.00843552
0.00126207
-0.000953648
0.00808811
0.00128537
-0.000953383
0.00774315
0.0012287
-0.000899194
0.00741225
0.00115308
-0.000837718
0.0070665
0.00109153
-0.000761252
0.00671505
0.00104882
-0.000712973
0.00618236
0.00096564
-0.000448152
0.00545078
0.000738993
-2.16273e-05
0.00582077
0.000613194
-0.000995988
0.012422
-0.000821505
-0.00580788
0.0176225
-0.00323412
-0.00203518
0.0184903
-0.000937969
-1.23205e-05
0.0178637
-0.0002334
0.000777595
0.0157305
0.000353296
0.00169709
0.00966605
0.00212576
0.00386956
0.0039448
0.0039274
0.00176576
0.00325723
0.000286137
0.000388793
0.00303518
-0.000331753
0.000540148
0.00237763
5.38186e-05
0.000590172
0.00100755
0.000429267
0.000929661
0.000367442
0.000430725
0.000203915
0.000147198
0.000217136
9.63759e-05
0.000128208
-7.90826e-05
7.59299e-05
6.4462e-05
-4.47336e-05
0.000128292
2.52231e-05
-7.8233e-05
0.000218109
2.93208e-05
-0.000120043
0.000336596
3.57824e-05
-0.000155452
0.000559861
4.57263e-05
-0.000270257
0.000514746
-1.15386e-05
5.56211e-05
0.000729155
-0.000337668
0.000122496
0.00119025
-0.000718663
0.000256372
0.00184558
-0.000931886
0.000275326
0.00250357
-0.00105004
0.000390791
0.00295016
-0.000965656
0.000517819
0.00306185
-0.000761893
0.000648949
0.00299012
-0.000635103
0.000705571
0.00258781
-0.000297085
0.000698152
0.00166363
0.000221774
0.000701152
0.000148816
0.000787122
0.00072646
-0.00143746
0.00138369
0.000201394
-0.00222184
0.000621642
0.000161983
-0.00214812
1.35038e-05
-8.82462e-05
-0.0013322
-0.000794364
-2.28078e-05
-0.000808258
-0.000546439
2.13222e-05
-0.000442421
-0.000403312
3.65775e-05
-0.000247502
-0.000261478
6.59176e-05
-0.000301413
-0.000146888
0.000200089
-0.000467043
-0.000130111
0.000294067
0.000367865
-0.000837972
0.00025257
-0.000615938
0.000727694
4.56553e-05
-0.000408914
0.000612721
-0.000261843
-0.000239532
0.000543912
-0.000537762
-0.000249443
0.000522374
-0.000707698
-0.000340669
0.000507614
-0.000851355
-0.000339224
0.000479992
-0.000870125
-0.000456298
0.000472235
-0.000915242
-0.000408932
0.00045128
-0.000867408
-0.000503702
0.000453149
-0.000871383
-0.00043892
0.000440197
-0.000800655
-0.000518586
0.000445222
-0.000790629
-0.000441855
0.00042917
-0.000713556
-0.000501652
0.000422048
-0.000694725
-0.000407382
0.000385945
-0.000610453
-0.000456507
0.000369885
-0.000526862
-0.000418862
0.000332757
-0.000543771
-0.000487958
0.000502495
-0.00130033
-0.000300815
0.00105212
-0.00146967
-0.000584797
0.000747644
-0.00265452
-0.000355627
0.00152776
-0.00479879
-0.00410117
0.00620994
-0.0106952
-0.0174629
0.0232343
-0.0156838
-0.0220265
0.0268446
-0.0173803
-0.0349845
0.0363659
-0.0151645
-0.0461241
0.0435655
-0.050403
0.0458609
0.0155813
-0.0810696
0.0217448
0.0246906
-0.0819434
0.026148
0.0217019
-0.0748002
0.0054295
0.036708
0.0125406
-0.023295
0.010271
0.00487628
-0.0249004
0.0123243
0.00259985
0.00239403
0.00323757
-0.00488431
0.00279953
0.00164919
-0.00368633
0.00161269
0.00192385
0.000515258
0.00107211
0.000263992
0.000734818
-4.45485e-05
0.000379913
0.000345693
8.70733e-05
-0.00017554
3.24673e-05
-0.00115077
0.000811154
0.000162466
-0.00169757
0.000500006
0.00217382
-0.00402242
0.00178588
0.000960583
0.00134655
-0.00435609
0.00205582
0.00214994
0.000809346
0.000539573
0.00114019
0.000555319
0.000959315
-0.000802613
0.000572282
0.00133901
-0.00144787
0.000562735
0.00107443
-0.000777094
0.000596013
0.00143739
-0.00146512
0.000579744
0.00111361
-0.000734305
0.000615324
0.00143421
-0.00143229
0.00060408
0.00104893
-0.00068342
0.000655839
0.00124567
-0.00132132
0.000664272
0.000801339
-0.000631237
0.000732294
0.00078212
-0.00108725
0.000761695
0.000433987
-0.000743362
0.000837927
0.000343173
-0.00101469
0.000861842
8.79835e-05
-0.0010752
0.000917263
-0.000247343
-0.00125069
0.000965338
-0.00201204
0.000921375
-0.00434622
0.000593239
0.0017302
-0.005166
-0.000175858
0.000982997
-0.00517868
-0.000229696
0.000229554
-0.00590468
-0.000266731
0.000981988
-0.0136279
0.000894927
0.00680343
-0.0203319
0.00585114
0.000801217
-0.0244812
0.0023328
0.00175494
-0.0474295
0.00659811
0.0162548
-0.0491658
0.00433445
-0.00280254
-0.0273765
-0.00404895
-0.0178342
-0.024345
-0.00140156
-0.00168995
-0.0184747
-0.00494219
-0.000978618
-0.00851123
-0.00124367
-0.00874446
-0.00793079
0.000381767
-0.000973008
-0.00902942
0.000209969
0.000875574
-0.0094236
8.66269e-05
0.000294075
-0.00899325
-0.000549118
0.000105246
-0.0087124
-0.000480797
0.000187269
-0.00861635
-0.000331131
0.000222288
-0.00881696
-0.00012192
0.000309275
-0.00937681
7.46687e-05
0.000470743
-0.00968228
-0.000356773
0.000646939
-0.00956883
-0.000902546
0.000773294
-0.00909914
-0.00136886
0.0008833
-0.0084019
-0.00167632
0.000963313
-0.00777203
-0.00163461
0.00098892
-0.00701669
-0.00153042
0.000759702
-0.0060451
-0.00130241
0.000316093
-0.00616701
-0.0011955
0.00130409
-0.01344
-0.000686758
0.00792873
-0.0184275
0.0080793
-0.00316762
-0.0208055
0.00537982
-0.0030889
-0.041833
0.0126868
0.00816853
-0.0542654
0.024927
-0.0129427
-0.0356762
0.00924225
-0.0283854
-0.0330958
-0.00314978
-0.0512732
-0.0254308
0.0429259
-0.0591199
-0.0390426
0.046133
-0.0570749
-0.0501207
0.0472527
-0.0452403
-0.0578021
0.0451306
-0.0278075
-0.061253
0.0430143
-0.0623708
0.0436483
0.0193712
-0.104118
0.0248862
0.038295
-0.103197
0.0221611
0.0520364
-0.0967641
0.0243325
0.054661
-0.0836726
0.0300471
0.04604
-0.0652694
0.0340208
0.0261261
-0.0429502
0.0366846
-0.0144412
0.0367405
-0.0290432
-0.0291932
0.0430352
-0.0400813
-0.0373646
0.04753
-0.0454107
-0.0458983
0.0503186
-0.0437793
-0.0551286
0.052544
-0.036371
-0.0629652
0.054605
-0.0242555
-0.0696359
0.0565743
-0.00633539
-0.0745426
0.0557009
0.0114532
-0.071719
0.0530366
0.0103106
-0.0546046
0.054875
0.00471543
-0.0576376
0.0623678
0.00962257
-0.0685028
0.0627298
0.0181201
-0.0707549
0.0613866
0.0276388
-0.0677928
0.0574169
0.0346256
-0.0613399
0.0535256
0.034705
-0.0513733
0.0505375
0.0147837
-0.0343481
0.0536522
0.00615194
-0.0106294
0.019042
0.00327218
-0.00119463
0.00399708
0.00275784
-0.00300165
0.00346116
0.00155846
-0.00416117
0.00529071
8.49856e-05
-0.00386068
0.00525602
-0.00101201
-0.00466142
0.00567921
0.000531749
-0.00405691
0.00245005
0.00139957
-0.00460075
0.0036856
-0.00118823
-0.00520614
0.00772298
0.00836774
-0.00964401
0.0138963
-0.00961948
0.00399159
0.0169903
-0.00992934
0.0067246
0.0191437
-0.00819026
0.00593381
0.0224701
-0.00882614
0.00539506
0.0506778
-0.03065
0.0022474
0.107454
-0.000838357
-0.0565002
0.133203
0.0162187
-0.0426583
0.145948
0.0235737
-0.0370857
0.152171
0.0262732
-0.0332398
0.151513
0.0288301
-0.0289256
0.136514
0.033841
-0.0195061
0.0792147
0.0490634
0.00770944
0.0364116
0.019114
0.0235124
0.0293126
0.00631442
0.0006939
0.0188034
0.0103197
0.000117606
0.00784496
0.0103092
0.000619609
0.00690506
0.00164804
-0.00072053
0.00687354
0.000636196
-0.000618324
0.00571719
0.00160433
-0.000461221
0.00259044
0.00248511
0.000630705
0.00106772
0.00126391
0.000253438
0.000430768
0.00063388
0.000253792
-0.00075726
0.000930688
2.62832e-05
-0.000591182
0.000815573
-0.000126647
-0.000649629
0.00079943
-0.000271639
-0.000615146
0.000757143
-0.000329145
-0.000657954
0.00071246
-0.00040285
-0.000580757
0.000651566
-0.000385609
-0.00064196
0.000621879
-0.000403317
-0.000564454
0.000579386
-0.0003449
-0.000629622
0.000568479
-0.000337861
-0.000555415
0.000545672
-0.000275911
-0.000613129
0.000548535
-0.000270532
-0.000539957
0.000531907
-0.00023674
-0.000563398
0.000527062
-0.000243926
-0.000491256
0.000495816
-0.000190968
-0.000521105
0.000465775
-6.03913e-05
-0.00047954
0.00034646
-8.50651e-07
-0.000436794
0.000374924
-0.000390286
-0.000695948
0.00108009
-0.000640054
0.000871327
-0.00062815
-0.0013232
0.00136293
-0.000692536
-0.00250294
0.00551779
-0.00437384
-0.00909069
0.0249043
-0.0184435
-0.0160568
0.0303061
-0.0235159
-0.0204741
0.0407125
-0.0366156
-0.016391
0.044778
-0.0492047
0.0493221
-0.0551566
0.0191255
0.0712706
-0.027264
0.0259827
0.0636134
-0.0259593
-0.0184685
0.0497872
-0.00541898
0.0269585
-0.00478058
0.0339119
-0.0021325
-0.00487817
0.00019383
0.0451173
-0.0114399
0.0649498
-0.0150356
-0.0118995
0.0510544
-0.00114274
-0.0283848
0.0547601
-0.0291196
0.0696293
0.0106991
0.0638259
-0.0135053
0.0161409
0.0358231
0.0274002
0.0092364
0.00832285
0.0677053
-0.00583869
-0.00584534
-0.0123887
0.0838035
-0.017875
0.00154148
-0.00251623
0.0129145
-0.0257281
-0.00341375
0.0100273
-0.0102715
0.00116456
-0.0307317
-0.0089835
0.0227917
0.00658127
0.00427482
-0.00696381
0.00621956
0.0145062
0.0221343
-0.0138037
0.00863953
0.00348195
-0.00593397
7.28519e-06
0.0161627
0.00385241
0.00310882
0.0115165
0.00136133
0.00327781
0.0106608
-2.84438e-05
0.00087354
-0.00928255
-0.00037996
0.0203097
-0.0192862
0.00100365
0.0041974
0.00354275
0.00544784
-0.00479946
0.00726365
-0.000446758
0.00466997
0.0025611
-0.00468467
0.00897049
0.00176177
0.0107828
0.00361125
-0.0118745
-0.000783002
-0.00566113
-0.00244804
-0.0029628
0.0308078
-0.010204
-0.00251115
0.000927033
0.00972133
0.00426428
0.00267871
-0.0338431
0.00349301
-0.00230627
0.000562156
-0.00111317
0.00308102
-0.00444191
0.00292184
-0.00452168
0.0031475
-0.0115143
-0.0133546
0.00633159
0.0108453
0.00341197
-0.00818998
-0.010902
0.00708752
0.0117179
-0.00293602
0.00224492
-0.0125479
0.019079
-0.00256132
-0.00282164
-0.00278368
0.00571213
0.00064548
-0.00261156
-0.00208584
0.00182386
-0.000710674
0.000410535
0.00298517
-0.00247309
-0.00211438
0.00183446
0.000531183
0.00254266
0.00189926
-0.00251737
-0.00204798
0.000438272
-0.00255232
-0.00206926
0.00215993
0.00255158
0.000673098
-0.00263027
-0.00203678
0.0019954
0.00243396
0.000666534
-0.00230033
-0.00204139
0.00182452
0.00252097
0.00104575
-0.00256141
-0.00191881
0.00162661
0.00247168
0.000977231
-0.00232453
-0.00198682
0.0017644
0.00261286
0.00142377
-0.00287746
0.00265927
0.00179202
-0.00202289
0.00133705
-0.00269544
0.00202692
0.00307916
-0.00232653
0.0016223
-0.00268203
-0.00354539
0.00347514
0.0024643
0.00122046
-0.00365182
0.0032454
-0.00319197
0.00399736
0.00103984
-0.00451172
-0.00346846
0.00379517
0.00436257
0.000436697
-0.00437994
0.00514053
0.00364073
-0.00380112
5.23755e-05
0.00416485
-0.00483485
0.00556668
-0.00451553
6.93058e-05
-0.00189933
0.00242873
0.00178973
-0.00233735
0.00179867
-0.00110246
0.00122582
-0.00185346
0.00226151
0.00213548
0.000341237
-0.00294048
0.00207887
-0.000883087
0.000648959
0.0004158
0.00212819
-0.00164863
0.00135588
0.000242269
0.0017379
-0.00109124
0.0012002
0.000280221
0.0013412
-0.000654146
0.000769939
0.000279822
0.000637469
-3.62329e-05
0.000326011
0.000412905
-0.000362574
0.000510713
-8.59491e-05
0.000574215
-0.00105268
0.000559783
-0.000485904
0.000615165
-0.00125782
0.000754431
-0.00108003
0.000529686
-0.00125363
0.000967414
-0.00150631
0.000533626
-0.00113622
0.0010072
-0.00155052
0.000424805
-0.000927489
0.000929811
-0.00136756
0.000227855
-0.000790381
0.000384105
-0.000490752
-3.14229e-05
-0.000437532
0.000567497
0.000109851
-0.00103112
-0.000165004
0.000268746
-0.000572736
3.07176e-05
-0.000618896
0.000680927
-0.000558877
0.000330354
-0.00135416
0.0015522
0.00138145
0.000105312
-0.00232163
-0.00285394
0.00263831
-0.00214203
0.000981314
-0.00466261
0.000215151
0.00231651
0.000480826
-0.00268327
0.0013686
-0.00301669
-0.001132
-0.00461953
0.00400341
-0.00349005
0.00156558
-0.00472611
0.00355558
-0.00802743
-0.00143394
-0.00364063
0.00949566
-0.0273023
-0.0102277
-0.0181625
-0.00650932
0.0533521
-0.0432711
-0.0202084
0.0244792
0.0109019
-0.0496176
-0.0292341
0.0459618
-0.0112021
-0.0494554
-0.0310909
0.0512767
-0.0211774
-0.0464145
-0.0321249
0.0536089
-0.0253579
-0.0414438
-0.0300453
0.0526958
-0.0284385
-0.0120734
-0.0231786
0.0473415
-0.0164471
-0.0379371
0.0165003
-0.00728279
-0.00960061
-0.0118257
0.0136557
0.0259901
-0.0101528
-0.0131231
0.0217495
0.0165701
-0.0140889
-0.0107094
0.0123285
0.0345173
-0.0112701
-0.0139532
0.00533089
0.027677
-0.00810298
-0.0126755
-0.00655408
0.0394428
-0.0104931
-0.0171648
-0.0125169
0.0402368
-0.014491
-0.0199103
-0.00758267
0.0293012
-0.0138362
-0.0205352
-0.00886992
0.0333461
-0.0132464
-0.0189662
-0.0106604
-0.00503793
-0.00741123
-0.00233411
-0.00928354
0.00588272
-0.00105393
-0.00992931
0.00640665
-0.00246666
-0.00869513
0.00448282
-0.00292508
-0.00627375
0.00286473
-0.00300461
0.0019787
-0.00269939
-0.00912924
0.00585044
0.0101375
-0.00497646
-0.00431026
0.00656535
-0.0053327
0.00613467
-0.00652649
0.00681438
-0.00665108
0.00586114
0.00726823
-0.00590425
0.00534771
0.00723544
-0.00477205
0.00470025
0.0121583
-0.012678
0.00756044
0.022384
-0.0339666
0.0318337
-0.0401849
0.0398381
-0.0408952
0.0460719
-0.0380679
0.0472647
-0.0311808
0.045815
-0.0194218
0.0319996
0.00306131
0.0166732
0.0137159
0.0157268
0.00242129
0.01203
0.00249296
0.00499757
0.00594762
0.00105529
0.00439202
0.000810459
-0.000217285
0.00423769
0.000274652
-0.000133964
0.00340981
0.000877479
-6.28332e-05
0.00148331
0.000597893
0.00131767
0.000564026
0.000244774
0.000669144
0.00043842
0.00012254
0.000299487
2.29702e-05
0.000114287
0.000219892
-5.75935e-05
0.000136477
0.000338742
-0.000136124
1.66318e-05
0.00056468
-0.000195666
-3.11703e-05
0.000787048
-0.000193002
-3.05373e-05
0.0010603
-3.33281e-05
-0.000241185
0.000889673
-5.20406e-05
0.000221649
0.00131176
-3.87426e-05
0.00218219
5.81924e-05
0.00307985
0.000108312
0.00377255
0.00027346
0.00406695
0.000458788
0.00399268
0.000632802
0.00378019
0.000721945
0.00303729
0.000705426
0.00174742
0.00063447
3.07212e-05
0.000624231
-0.00181092
0.000191825
-0.00290036
0.000205592
-0.00275245
-9.40889e-05
-5.4845e-05
-0.00172218
-1.74612e-05
-0.00101407
-0.00105079
3.92715e-05
-0.000711839
-0.000579687
5.54623e-05
-0.00052746
-0.0003278
8.88335e-05
-0.000341363
-0.000404164
0.000263874
-0.000188221
-0.000145389
0.000373428
-0.00064577
0.000458621
4.1309e-05
-0.000240052
0.000301238
0.000555238
0.000455356
-0.00211872
0.000611103
0.000810966
0.0011317
-0.00273664
0.000949089
0.00110953
0.00115947
-0.00247264
0.00123541
0.00120763
0.00206686
-0.0038302
0.0013431
0.00157778
0.00195743
-0.0028589
0.00141911
0.00154738
0.00430181
-0.00534766
0.00290026
0.00505468
0.0041215
0.00297571
-0.00206282
0.0039719
0.00179385
-0.000996723
0.00480217
0.00163846
-0.00111476
0.00485235
0.00235876
-0.00121045
0.00459948
0.00201738
-0.000996235
0.00410304
0.0010308
-0.000209891
0.00329526
0.00024885
0.000471421
0.00242401
-0.000381797
0.000765574
0.00162289
-0.00161155
0.0013311
0.000924424
-0.00276899
0.00195949
0.000109178
-0.00290098
0.00216399
-0.000857614
-0.00246038
0.00205771
-0.0010417
-0.00069064
0.000382544
-0.000651735
0.000645761
-0.000469574
0.000654845
-0.000358323
0.00402982
-0.00245325
-0.00325998
-0.00122635
0.00419392
0.0044033
-0.00143801
0.00259732
0.0061344
-0.000687883
0.00157162
0.0195664
-0.00506974
-0.011978
0.00372763
0.0155481
-0.00691291
0.00620043
0.0113843
-0.00647397
0.00582431
-0.00951438
-0.00103571
0.025585
-0.00824335
-0.0169046
-0.0100783
0.0161038
-0.0176993
-0.0396392
0.0594028
-0.029066
0.0251817
0.0435511
-0.0499629
0.0580761
0.00786533
-0.0575334
0.066635
-0.00870928
-0.0589668
0.070289
-0.0161771
-0.0564995
0.0704853
-0.0211926
0.0644655
-0.0319953
0.0693827
0.0836354
-0.0274179
0.0686769
0.0841818
-0.0140176
0.0637232
0.0813847
-0.00715361
0.0501747
0.0776319
0.0015515
0.0154769
0.0705628
0.021212
-0.0402089
0.0291799
0.0506751
-0.037355
-0.047433
-0.0225311
0.0483752
0.0137133
-0.0194751
-0.0115964
-0.0201181
-0.0187499
-0.0155485
0.00729465
-0.0244889
-0.00724948
0.00561374
-0.0225672
0.00639947
-0.0272929
-0.00819024
0.00589854
-0.0119647
-0.0151675
-0.00698291
0.00165267
0.00393446
-0.0116106
-0.00418409
-0.000127627
-0.00991646
0.0011616
-0.00979354
-0.00391898
0.00233816
-0.00369199
-0.00686267
-0.00416565
0.00245566
0.0032011
-0.00473299
-0.0031472
0.000983275
0.00211428
-0.00371928
0.00154255
-0.00144888
0.00164311
-0.00337115
-0.00348096
0.00293917
-0.00514338
-0.00318244
0.0020508
-0.0072664
-0.0031191
0.00247009
-0.0090727
-0.0022755
0.0024673
-0.0100684
-0.00181299
0.00242387
-0.0115856
-0.00107071
0.00283375
-0.0117985
-0.000541645
0.00178247
-0.0111644
0.000929637
0.000450568
-0.0102732
0.0018462
-0.000381541
-0.00922132
0.00298317
-0.00240025
-0.00896104
0.00276071
-0.0012302
0.0101859
0.00623749
-0.0161379
-0.00123255
0.00945535
0.00325718
0.00023051
0.0111937
0.00267105
-0.00142983
0.0123912
0.000808853
-0.000163117
0.0124871
-0.000303818
0.00113437
0.0114706
-0.00115227
0.00162414
0.010606
-0.0019523
0.00174335
0.00966453
-0.00271465
0.00184037
0.00870729
-0.00323841
0.0019172
0.00711333
-0.00344018
0.00191189
0.00573273
-0.00339762
0.00159275
-0.00381017
0.00233907
-0.00672474
-0.00378668
0.0019646
-0.00778656
-0.00473642
0.00239711
-0.0087506
-0.00431407
0.00183475
-0.00973963
-0.00408799
0.00183558
-0.0107611
-0.0035108
0.00181461
-0.0114263
-0.00288575
0.00159569
-0.0120133
-0.00161659
0.00104835
-0.0124546
-0.000163987
0.000298237
-0.011752
0.00139514
-0.00129237
-0.00970856
0.00144241
-0.000818486
-0.00931234
0.00218502
0.000672127
0.011843
0.00313312
-0.0188144
0.000745588
0.00904127
0.00462407
0.000358699
0.012937
-0.00165457
-0.000802634
0.0116216
0.00358148
-0.000874991
0.0158484
-0.00353058
-0.000864273
0.0122958
0.00160066
0.000331123
0.0151142
-0.00562324
-8.50135e-05
0.0110382
-0.000644353
0.00120544
0.0128547
-0.00673291
0.000824192
0.00852642
-0.00195912
0.00196925
0.00841903
-0.00644477
0.00181169
0.00526922
-0.00217552
0.00153474
-0.00533998
0.000595378
0.0113741
-0.00733083
-0.0139167
0.00234079
0.0117915
-0.0059703
0.00137054
-0.00500975
0.00125217
0.012588
-0.00507164
-0.0130103
0.000464686
-0.00559401
-0.00119236
0.0138273
-0.00431903
-0.0133794
-0.00174571
0.0296638
-0.00460795
-0.0189357
0.000623553
-0.00754607
0.00443189
0.0251034
-0.00644092
-0.0302446
0.00394709
-0.00659179
0.00489999
0.0124734
-0.00301817
-0.0187202
0.00262741
-0.030101
-0.0165499
-0.0231488
-0.0182911
0.00822621
0.00469276
-0.0401535
0.00305504
0.0091391
-0.0233693
0.00283147
0.00614423
-0.00567933
-0.0278952
0.00398279
-0.0316201
0.00282354
0.00798882
-0.000221612
-0.0324416
-0.00623282
-0.000808899
-0.0134556
-0.00183298
0.00465078
-0.0185686
0.000218572
-0.0141238
0.000303629
0.0055552
-0.015618
-0.00510158
0.00102136
-0.0143479
0.000904277
-0.016783
-0.00631818
0.00140441
0.00771367
-0.0200513
-0.00630428
0.00184123
-0.018116
0.00349326
-0.0215082
-0.00640999
0.00240922
-0.0224249
-0.00360314
0.000481493
-0.020887
-0.000446593
-0.0010563
-0.0192752
0.00231666
-0.000976021
-0.0187535
0.00377155
-0.00117686
-0.00506064
0.00437955
-0.0173222
-0.000769721
-0.00643159
-0.0165964
-0.000866893
-0.00745207
-0.0150242
-0.00011268
-0.00581128
-0.011585
0.00171971
-0.00390889
-0.00925574
0.00103513
-0.00688155
0.000587949
-0.00929975
0.00434365
-0.000338221
-0.00668183
-0.00132612
-0.000670878
-0.00471307
-0.00032475
0.00561235
-2.4344e-05
0.0151072
0.009783
-0.0309443
0.0108418
-0.000612401
-0.00458006
0.00704079
0.00103928
0.000272772
-0.00431985
0.004692
-0.00791568
0.00902332
-0.00122564
-0.00171759
0.00637442
-0.0013707
-0.0079625
-0.00118
0.00529672
-0.00631046
-0.00191583
0.00565069
0.00189821
-0.00682968
-0.00234889
0.00559289
-0.00699243
0.00181504
-0.00253631
0.00548062
-0.00702047
0.00170931
-0.002512
0.00536051
-0.00695896
0.00155606
-0.00238377
0.00527225
-0.006896
0.00147747
-0.0022965
0.00515502
-0.0067136
0.00145327
-0.00225426
0.00508327
-0.00657026
0.00142678
-0.00212477
0.0047417
-0.0062015
0.00131301
-0.0020043
0.00408211
-0.00494268
0.000724628
-0.00176431
0.00525554
-0.00774803
0.00222886
-0.0116202
0.00365137
-0.0260905
0.0136708
-0.0219679
-0.0248765
0.0115446
-0.0274176
0.00501746
-0.0780921
0.0412236
-0.0177222
-0.0877847
0.0283108
-0.0890576
0.02305
-0.117166
0.0200827
0.0132902
-0.130659
0.0156204
0.00383321
-0.137872
0.0145541
-0.00310123
-0.14016
0.0145915
-0.0089512
-0.137502
0.0160315
-0.0155628
-0.129062
0.0197152
-0.0245631
-0.11399
0.0237151
-0.0367776
-0.0456704
-0.0399367
0.0253159
-0.0660499
-0.00661676
0.0097844
-0.0282549
-0.0208001
-0.0175818
-0.00619407
-0.016073
-0.00243263
-0.0131205
0.00856971
-0.00951943
-0.00431628
0.00491125
-0.0113356
0.000482874
0.00168081
-0.00647539
0.00140162
-0.0029682
0.00593387
0.00181909
-0.00646082
0.00980695
0.00195275
-0.00594959
0.0127563
0.00165862
-0.00474429
0.0201644
0.00355967
-0.0111479
0.0347069
0.0151896
-0.0300173
0.0300168
0.0321812
-0.02778
0.0250352
0.0213113
-0.0165158
0.0227707
0.0155397
-0.0134239
0.0195564
0.013488
-0.0104097
0.0157519
0.0120757
-0.00838846
0.00951031
-0.00350051
-0.0146915
0.0142763
0.000207866
-0.0182899
-0.00253684
0.0180964
-0.0207322
0.0196535
-0.00385035
-0.0215192
0.0213335
-0.00514148
-0.0159361
0.0217643
-0.00617502
-0.0552963
0.0381788
0.0566378
-0.0238714
-0.0218051
-0.0201309
-0.0451278
0.0463603
-0.0191413
-0.00721203
0.0255903
-0.0212331
-0.0155256
-0.00755908
0.0195999
-0.0158365
-0.0100107
-0.00719609
0.0182479
-0.0167383
-0.00614149
0.0161375
-0.0152502
0.00585119
-0.00860586
0.00991801
-0.00943538
0.0125746
-0.00869027
-0.0113472
-0.0036675
-0.00282737
-0.00271265
-0.00214954
-0.00110387
-0.00140296
-0.00116315
-0.0019946
0.00211629
-0.00122869
0.00246783
-0.00253064
-0.00193624
0.00277467
-0.00171312
-0.00445497
0.000586593
0.00380418
0.00317542
0.00532273
-0.0154977
0.00294458
-0.000376791
-0.00776955
0.00510092
-0.005641
-0.000765238
-0.00716485
0.000143917
0.027055
-0.00875906
-0.0132339
-0.00593638
0.00672585
0.0139143
0.00637339
0.0377001
0.00671496
-0.037759
0.00901814
-0.00160921
0.0302128
-0.0186372
-0.00241879
0.00033168
-0.00674152
0.00798486
-0.000922498
0.00283897
-0.00322214
0.0159642
-0.00643894
0.00412507
0.0102052
0.00967533
-0.0106643
-0.0105844
-0.0067853
-0.00749893
0.00816602
-0.0100839
-0.00216438
-0.0066126
-0.0313734
-0.0189424
0.041286
0.00642941
-0.000168716
-0.00250566
-0.0685737
0.0332896
-0.00783362
-0.0214034
0.00651793
-0.0201102
0.00393858
0.00317257
-0.000598151
0.00321994
-0.00144981
-0.00259895
-0.000970145
-0.000353162
-0.0021974
0.00146463
0.00252372
0.00165752
-0.0289923
0.0151367
-0.0109317
-0.0109463
-0.010236
0.0793112
0.0469597
0.0337724
-0.0158507
-0.0150012
-0.0141426
0.0226418
0.0270181
-0.0155977
-0.0105297
-0.00787233
-0.0183751