/*--------------------------------*- C++ -*----------------------------------*\
| =========                 |                                                 |
| \\      /  F ield         | OpenFOAM: The Open Source CFD Toolbox           |
|  \\    /   O peration     | Version:  v2012                                 |
|   \\  /    A nd           | Website:  www.openfoam.com                      |
|    \\/     M anipulation  |                                                 |
\*---------------------------------------------------------------------------*/
FoamFile
{
    version     2.0;
    format      ascii;
    class       volScalarField;
    location    "120";
    object      nut;
}
// * * * * * * * * * * * * * * * * * * * * * * * * * * * * * * * * * * * * * //

dimensions      [0 2 -1 0 0 0 0];


internalField   nonuniform List<scalar> 
18258
(
0.00415853
0.0018127
0.00147975
0.00127814
0.000852979
0.00139183
0.00193442
0.00230445
0.00241968
0.00240256
0.0024908
0.00420788
0.00590917
0.0073073
0.00767908
0.00766809
0.00696533
0.00665309
0.00723339
0.00887995
0.00744821
0.00477559
0.00571169
0.00661407
0.00722082
0.0063992
0.00517672
0.0047887
0.00433453
0.00361443
0.00303635
0.00210018
0.00150981
0.00140078
0.00127289
0.00145316
0.0015845
0.00169085
0.00172877
0.0017565
0.00174501
0.00173543
0.0016887
0.00165821
0.00160603
0.00132246
0.00157238
0.00168046
0.00183316
0.00251692
0.00269642
0.00226425
0.00250121
0.00222935
0.00146818
0.00168163
0.00182533
0.00186392
0.00183928
0.00176241
0.0017363
0.00171423
0.00168639
0.00165341
0.00163326
0.00164947
0.00166648
0.00164837
0.00156746
0.00150202
0.00139621
0.00129022
0.00121176
0.00115099
0.00110512
0.00105397
0.000996457
0.000875341
0.000811332
0.00107421
0.00134854
0.00144086
0.00204218
0.00248983
0.00250664
0.00187856
0.00133958
0.00139048
0.00154562
0.00156089
0.00132264
0.00157083
0.00177765
0.00184178
0.00191828
0.00214453
0.00244557
0.00238626
0.00212687
0.00196396
0.00187216
0.00216221
0.00207021
0.00268628
0.00269161
0.00232051
0.00220825
0.00247927
0.00319638
0.00342777
0.00265671
0.00249705
0.00244956
0.00241854
0.00218964
0.00226732
0.00205996
0.00185623
0.00202178
0.00243978
0.00231472
0.0025279
0.00261876
0.00245649
0.00284538
0.00327962
0.00323325
0.00258748
0.00211278
0.00196955
0.00198402
0.00121354
0.00131027
0.00141026
0.00144482
0.0014692
0.00148988
0.0015885
0.00158493
0.00156163
0.00155809
0.00158342
0.000873543
0.000946837
0.000970359
0.000977114
0.000928134
0.000918446
0.000901233
0.000887251
0.00083749
0.000801597
0.000958892
0.00107642
0.00117199
0.00128377
0.00145026
0.00165432
0.00186913
0.00208649
0.0022305
0.00227191
0.0023137
0.0022302
0.00214629
0.00222327
0.00223648
0.00222229
0.00219244
0.00215479
0.00210406
0.00201113
0.00211937
0.00211388
0.00198606
0.00170237
0.00174041
0.00173777
0.00178306
0.00177343
0.00179079
0.00176463
0.00173363
0.00164938
0.0015311
0.00127304
0.00125555
0.00126862
0.00162609
0.00197196
0.00304367
0.0037082
0.00429894
0.004595
0.00491037
0.00398
0.00443331
0.00342236
0.00307092
0.00390101
0.00509975
0.00291039
0.00159211
0.00302126
0.00268394
0.00195225
0.00173887
0.0017935
0.00178914
0.00204162
0.00235703
0.00262395
0.00275331
0.0028654
0.00295528
0.00305392
0.00317773
0.00321234
0.00310251
0.00262552
0.00316605
0.00257704
0.00301547
0.00273196
0.00185498
0.0018776
0.00201626
0.00185421
0.00180613
0.00172208
0.00155905
0.00195434
0.00250857
0.0029064
0.00332183
0.00443255
0.00410051
0.00392995
0.00304257
0.00294236
0.00152732
0.00217818
0.00226398
0.00255302
0.0016961
0.00155022
0.00147413
0.00194679
0.00225615
0.00266102
0.00295298
0.00350516
0.00272563
0.00311798
0.00282499
0.00197469
0.00189258
0.00270505
0.00291171
0.00239176
0.00213157
0.00267709
0.0025364
0.00180139
0.00142355
0.00219054
0.00226266
0.00163084
0.00406665
0.00438928
0.0041779
0.00506935
0.00633995
0.00721208
0.00673854
0.00597499
0.00664656
0.00528752
0.00514362
0.00548956
0.00461119
0.00321632
0.00329278
0.00340037
0.00349006
0.00374591
0.00397888
0.00426386
0.00453281
0.00411942
0.00342018
0.00258858
0.00178093
0.00175601
0.00174652
0.00156845
0.00232495
0.00352108
0.00350013
0.00199295
0.00116191
0.00131294
0.00148202
0.00146752
0.0010661
0.000801487
0.00138005
0.00157778
0.00160307
0.00156309
0.00147561
0.00154186
0.00247595
0.0038142
0.0041907
0.0043403
0.00448205
0.00458235
0.00463842
0.00465656
0.00466689
0.00467939
0.00469032
0.00470666
0.0046922
0.00459231
0.0040393
0.00253956
0.00148415
0.00137821
0.001521
0.00163451
0.00173344
0.00147487
0.000902139
0.00144053
0.00184479
0.00212086
0.00213922
0.00199662
0.00193703
0.00305483
0.00406201
0.00478824
0.00493572
0.00500181
0.00494771
0.00494168
0.00483528
0.00480378
0.00421464
0.00300789
0.0032868
0.00352842
0.00356743
0.00364864
0.00377069
0.00368309
0.00348237
0.00508703
0.00587415
0.00594988
0.00607707
0.00600678
0.00590578
0.00564006
0.00533533
0.00449227
0.00336922
0.00212625
0.002171
0.00231152
0.00228967
0.00199351
0.00209915
0.00227769
0.00230051
0.00237583
0.00266353
0.00302478
0.002886
0.00248488
0.00210904
0.0019639
0.00192148
0.00184274
0.00137901
0.00140051
0.00136245
0.0013853
0.00186233
0.00221689
0.0025564
0.00362399
0.00323277
0.00262909
0.00416539
0.00426949
0.0045857
0.00506731
0.00519252
0.00575003
0.00400363
0.00360985
0.00370814
0.00302953
0.00280472
0.00283493
0.00284568
0.00265323
0.00290386
0.00287812
0.00277389
0.00306232
0.00337311
0.00444723
0.00538728
0.00568284
0.00585303
0.00592228
0.00590062
0.00578831
0.00582787
0.00512285
0.00512347
0.00490471
0.00476473
0.0047162
0.0044862
0.00512737
0.00532083
0.00538489
0.00551849
0.00572753
0.00556889
0.00539706
0.00526625
0.00517178
0.00507341
0.00512565
0.00521955
0.00532006
0.00546146
0.00565028
0.00568048
0.00548463
0.00533678
0.00523594
0.0051413
0.00514438
0.00522868
0.00532716
0.00546738
0.00564697
0.00554735
0.00540741
0.0052833
0.00518174
0.00509249
0.00491406
0.00503188
0.00516164
0.00526866
0.00533837
0.00461338
0.00493081
0.0048461
0.00438786
0.00410721
0.00311907
0.00337557
0.00355942
0.00387689
0.00430336
0.00438706
0.00368197
0.00315563
0.00307553
0.00305085
0.00312309
0.0031488
0.00316362
0.00357428
0.0053756
0.00541481
0.00543289
0.00543677
0.00465248
0.00451984
0.00420809
0.00768002
0.0071541
0.00620204
0.00511937
0.0027444
0.00235237
0.00278607
0.00338828
0.00378877
0.00418158
0.00277512
0.00172001
0.00200498
0.00208032
0.00203155
0.00187868
0.00156462
0.00144414
0.00131088
0.00141044
0.00249625
0.00398106
0.00448377
0.00453135
0.00448679
0.00440047
0.00429639
0.00415209
0.00408612
0.0051081
0.00684933
0.00782924
0.00780988
0.00671157
0.00544921
0.00305134
0.00153903
0.00109038
0.00125597
0.00137415
0.0016256
0.00146108
0.00118006
0.00128185
0.0012376
0.00251671
0.00438022
0.00563944
0.00667648
0.00654117
0.00565391
0.00467168
0.00445018
0.00455435
0.00462149
0.00468103
0.00474238
0.00478468
0.00475848
0.00433183
0.0026778
0.00159898
0.00142111
0.00152888
0.00179165
0.00190283
0.00192089
0.00189315
0.00164063
0.00271169
0.00430807
0.00273889
0.0014949
0.00161579
0.00160473
0.00283032
0.00282541
0.00276346
0.00429928
0.00454501
0.00453212
0.00425855
0.00406679
0.00240816
0.0027304
0.00273888
0.00275337
0.00279873
0.00141342
0.00154039
0.00158794
0.00170851
0.00150004
0.0019047
0.000492478
0.000682014
0.000792134
0.000861139
0.000927621
0.00090997
0.00173971
0.00176431
0.00168492
0.0016401
0.00208223
0.00223576
0.00228568
0.00210601
0.00194347
0.00206868
0.00207263
0.0019522
0.00184956
0.00191868
0.00192039
0.00184011
0.00156511
0.00146652
0.00161014
0.00159263
0.00157942
0.0028372
0.00283255
0.00268056
0.00440432
0.00433235
0.00485269
0.00482111
0.00481672
0.00479835
0.0048495
0.00487536
0.00489467
0.00491867
0.00490968
0.00486257
0.00676582
0.00478272
0.00417355
0.00241317
0.00232441
0.00164153
0.00143842
0.00169375
0.00181149
0.00196386
0.00191942
0.00202368
0.00202156
0.00214474
0.00199082
0.00176791
0.00270826
0.00289342
0.00282611
0.00288218
0.00281443
0.00279804
0.0027772
0.00273741
0.0026896
0.00160122
0.00157056
0.00183907
0.00193044
0.00207426
0.00209317
0.00213858
0.00202842
0.00178417
0.00172711
0.00198882
0.00196204
0.00199995
0.00188566
0.00187807
0.00167334
0.00171569
0.00346261
0.00639221
0.00328921
0.00365376
0.00330942
0.00376403
0.00329646
0.00284244
0.00290909
0.00256197
0.00267242
0.00280336
0.00285414
0.00299964
0.00353576
0.00340444
0.00298851
0.00290181
0.00284449
0.0026817
0.00241358
0.00252887
0.00255211
0.00260689
0.00289729
0.00332311
0.00372652
0.00452549
0.00439219
0.00384941
0.00351864
0.0036906
0.00375305
0.00472303
0.00441404
0.00438744
0.00462594
0.00457926
0.00434722
0.00412062
0.00397817
0.00341607
0.00347211
0.00397517
0.0038466
0.00396394
0.00389504
0.00404738
0.00412134
0.00395725
0.00367849
0.00386228
0.00385277
0.00427978
0.00416394
0.00386198
0.00353791
0.00377593
0.003728
0.00430862
0.00405782
0.00379546
0.00349165
0.00334291
0.00379482
0.00372683
0.00422744
0.00434781
0.00434951
0.00379065
0.0037038
0.00440663
0.0042398
0.00409348
0.00426374
0.00353038
0.00363281
0.00447531
0.00456916
0.004334
0.00361648
0.0036737
0.00315081
0.00370586
0.00461163
0.00435558
0.00357058
0.00296146
0.00414453
0.00436078
0.00461398
0.0043607
0.00475027
0.00511792
0.00417123
0.00453878
0.00593208
0.0045272
0.00525432
0.00537158
0.00540433
0.00540851
0.00543121
0.00546068
0.00575696
0.00560953
0.00355713
0.00425883
0.00413581
0.0034541
0.00292963
0.00322888
0.00347738
0.00352668
0.00361512
0.00375222
0.00368884
0.003574
0.00522577
0.00596169
0.00609877
0.00622329
0.00612136
0.00596769
0.00561612
0.00518393
0.00428866
0.00319592
0.00198972
0.00202722
0.00215981
0.00213799
0.00185431
0.00140028
0.000919122
0.00136576
0.00141094
0.00132737
0.00120833
0.0010628
0.00109464
0.00201767
0.00414603
0.00549885
0.00603471
0.00648033
0.00696541
0.00743049
0.00778336
0.00803839
0.00821135
0.00831792
0.00833786
0.0081719
0.00746288
0.00714212
0.00674374
0.00641829
0.00596049
0.00557859
0.00630064
0.00691086
0.0072831
0.00770145
0.00788868
0.00779884
0.00677635
0.00661367
0.00761624
0.00936028
0.00795454
0.00998667
0.0117406
0.00917323
0.00823745
0.00821008
0.00914966
0.00933214
0.00901103
0.00850455
0.00792162
0.00718299
0.0075504
0.00788099
0.00819542
0.00848468
0.0092744
0.00942562
0.00935962
0.00921564
0.00902575
0.00875751
0.00833038
0.0077341
0.00706467
0.00642163
0.00568278
0.00417371
0.00185387
0.0022046
0.00215887
0.00245306
0.00230994
0.00101397
0.0010916
0.00110699
0.00111585
0.0010587
0.00120277
0.00174871
0.00284982
0.0020494
0.00167847
0.00116807
0.00138226
0.00231244
0.00394281
0.00445286
0.00452911
0.00457839
0.00599165
0.00685723
0.00728608
0.00762168
0.0078357
0.00773208
0.00748483
0.0070389
0.00652975
0.00631557
0.00598355
0.00566904
0.00550015
0.00531388
0.00499825
0.00397697
0.00373099
0.00388309
0.00384955
0.00368802
0.00393562
0.0040751
0.00406963
0.00411324
0.00415156
0.0042731
0.00441648
0.00454127
0.00460647
0.00463042
0.00463789
0.00464744
0.00465521
0.00466977
0.00465422
0.00455239
0.00399701
0.00249774
0.0014573
0.00134742
0.00147755
0.00156256
0.00159896
0.00141933
0.000913165
0.00141983
0.00183773
0.00188462
0.00206718
0.0021322
0.00226073
0.00252092
0.00291465
0.00300802
0.0026687
0.00252775
0.00247268
0.00240966
0.00205222
0.00255783
0.00283167
0.00282771
0.00280255
0.00302956
0.00372987
0.00358174
0.00315719
0.00311991
0.00308699
0.00278175
0.00273824
0.00300299
0.00303739
0.00315371
0.00370014
0.00444029
0.00411749
0.00374809
0.00358891
0.0033119
0.00290657
0.00262609
0.00326417
0.00269416
0.00137303
0.00116592
0.00117614
0.0011721
0.00112244
0.00132908
0.00139818
0.00141926
0.00132783
0.00147442
0.0016422
0.00159314
0.00180722
0.00177851
0.00158549
0.00156621
0.00171005
0.00182028
0.00187512
0.00190994
0.00312111
0.00320645
0.00249803
0.00362263
0.00416975
0.0041909
0.00444149
0.0036451
0.00325534
0.00386354
0.00448318
0.00517635
0.00408343
0.0038492
0.00395298
0.00180515
0.000949469
0.00134029
0.00166374
0.00185104
0.00179475
0.00169633
0.00143503
0.00255228
0.00261998
0.0041651
0.00467323
0.00473101
0.00469362
0.00472422
0.00521457
0.00609939
0.0068384
0.00705181
0.00694667
0.00664902
0.00609589
0.00556632
0.00551685
0.00533318
0.00518634
0.00514439
0.00449899
0.00393985
0.0041659
0.00411989
0.00425649
0.00431925
0.00436415
0.00441034
0.00448889
0.00458414
0.00467102
0.00473101
0.00477136
0.00480559
0.0048406
0.00487567
0.00491345
0.00493397
0.00488753
0.00441718
0.00264662
0.00157668
0.00143784
0.00153415
0.00180333
0.00189857
0.00204017
0.00181098
0.000953681
0.00112259
0.00195
0.00216288
0.00200122
0.0018729
0.00184046
0.00154142
0.00279507
0.00275928
0.00433483
0.00487515
0.00494263
0.00492767
0.00488787
0.0048426
0.00479913
0.00476365
0.00473572
0.00470685
0.00466655
0.00462002
0.0045728
0.00452209
0.00443905
0.0043174
0.00421307
0.0043995
0.00449324
0.00469514
0.00494037
0.00506906
0.00497318
0.00481362
0.00473142
0.00475505
0.00479917
0.00484527
0.00488688
0.00490884
0.00485547
0.00457651
0.00429219
0.00271725
0.00275361
0.0013527
0.00150271
0.00173428
0.00179102
0.00194561
0.00193686
0.00152171
0.00118437
0.00133557
0.00124893
0.00223316
0.00245632
0.00272606
0.00269979
0.00146485
0.0015019
0.00156013
0.00176091
0.00163487
0.00158055
0.00392648
0.00375701
0.00392974
0.00482668
0.00416126
0.00287545
0.00315687
0.00438893
0.00462725
0.00280063
0.00209431
0.00233087
0.00295464
0.00434331
0.00439693
0.00417588
0.00415472
0.00303813
0.00372682
0.00447755
0.00435757
0.00340396
0.00234778
0.00174287
0.000842107
0.0016024
0.00137083
0.00336119
0.00372013
0.00367695
0.00402341
0.00427298
0.00431732
0.00419707
0.0037194
0.00379334
0.00383166
0.00436803
0.00438983
0.00371227
0.0031327
0.00254066
0.00256388
0.00261437
0.00289869
0.0036308
0.00342076
0.00299751
0.00290601
0.0028426
0.00267335
0.00241134
0.0021153
0.0021304
0.00198333
0.00191986
0.00302751
0.00403119
0.0047547
0.00489161
0.00494085
0.00486412
0.00482824
0.00468829
0.00461478
0.00400743
0.00511514
0.00540795
0.00522207
0.00526375
0.00529901
0.00534124
0.00534336
0.00524334
0.00450359
0.00268835
0.00175542
0.0019811
0.00213791
0.00200689
0.00199605
0.00212813
0.00201987
0.00177454
0.00287574
0.00281124
0.0044968
0.0050948
0.00520326
0.00520798
0.00518538
0.00516586
0.0051705
0.0054412
0.00531972
0.00541203
0.00571122
0.00571341
0.00577978
0.00542501
0.00535443
0.00530873
0.00527779
0.00522848
0.00509912
0.00451154
0.0043742
0.00496839
0.00512236
0.00519122
0.00523903
0.00529566
0.00536908
0.00558082
0.0057392
0.0058051
0.00556367
0.00546427
0.00533583
0.00515625
0.00511476
0.00510812
0.00510528
0.00508176
0.00495078
0.00435678
0.0028005
0.00286951
0.00170648
0.00171732
0.00197763
0.00207659
0.00203904
0.00188797
0.00184059
0.00317498
0.00361396
0.0038405
0.00414439
0.0039593
0.00393742
0.00450173
0.00435543
0.00388767
0.00404545
0.00362145
0.00344615
0.00334561
0.00336522
0.00175988
0.00189943
0.00198174
0.00194942
0.00186407
0.00166309
0.00152513
0.00278455
0.0027639
0.00272789
0.00162117
0.00158521
0.00186763
0.00181328
0.00165837
0.00141348
0.00155003
0.00239461
0.00267939
0.00415552
0.00430684
0.00461005
0.00493008
0.0050507
0.00508298
0.0051024
0.00512352
0.00517154
0.00522833
0.00524571
0.00524571
0.00528719
0.00527478
0.00527845
0.00525472
0.00522549
0.00518972
0.00515038
0.00508462
0.00494883
0.00462375
0.00430495
0.00485348
0.00489858
0.00498982
0.00508339
0.00512221
0.00512623
0.00510417
0.00506225
0.00501192
0.00495674
0.00495475
0.0051107
0.00515305
0.00518023
0.00516448
0.00514561
0.00513939
0.00511599
0.00507881
0.00498508
0.00489064
0.00485011
0.00476717
0.0048945
0.00495274
0.00496187
0.00501025
0.00508729
0.00511089
0.00511176
0.00507439
0.00504279
0.00499991
0.00492698
0.00482419
0.00450788
0.00457567
0.00465891
0.00476987
0.00487673
0.00496304
0.00501278
0.00501941
0.00497608
0.00494648
0.00494813
0.00490628
0.00492763
0.00494931
0.00492254
0.00491672
0.00491583
0.004853
0.00474419
0.00459621
0.00444222
0.00432138
0.00427201
0.00417733
0.00449698
0.00463912
0.00476181
0.00486729
0.00496101
0.00505393
0.00507973
0.00506627
0.00500893
0.00497571
0.00497317
0.0049234
0.00492116
0.00496965
0.00497324
0.00500169
0.00505129
0.00504237
0.00497865
0.00480292
0.0046307
0.00447958
0.00433206
0.00417234
0.00417885
0.00424622
0.00416905
0.00420488
0.0043419
0.00452357
0.00468475
0.00479471
0.00483319
0.0048678
0.00491515
0.00491207
0.00488441
0.00486706
0.0048031
0.00474606
0.00467708
0.00453408
0.00435907
0.0042124
0.00418091
0.0042757
0.00435987
0.00428078
0.00394951
0.00411187
0.00426985
0.00442069
0.00463493
0.00487964
0.00498054
0.00501366
0.00498623
0.00496437
0.0049592
0.00491247
0.00489788
0.00494201
0.00494887
0.0049721
0.00500706
0.00498421
0.00490524
0.00460706
0.00424684
0.00407057
0.0039599
0.00382166
0.00430162
0.00439155
0.00428204
0.00420741
0.0043161
0.00443662
0.00456272
0.00464877
0.00468604
0.00474066
0.00481201
0.00484791
0.00479886
0.00473924
0.00466706
0.00463034
0.00463344
0.00461837
0.00454016
0.00444163
0.00431752
0.00446359
0.00455293
0.00447202
0.00402827
0.00409692
0.00421668
0.00428243
0.00462205
0.00491268
0.00497308
0.00496667
0.00492984
0.00490448
0.00490047
0.00487031
0.00482399
0.0048207
0.00482148
0.00488432
0.00496522
0.00501773
0.00504632
0.00483077
0.0044345
0.00436169
0.00414795
0.00406095
0.00453288
0.00458049
0.00446565
0.00436621
0.00458209
0.00467111
0.00469091
0.00466596
0.00461197
0.0045789
0.00464035
0.0047371
0.00466584
0.00435921
0.00408828
0.00422712
0.00426466
0.00425854
0.00420405
0.00410714
0.00389341
0.00435502
0.00480855
0.00484307
0.0043508
0.00436206
0.00426224
0.003972
0.00435556
0.00455708
0.00459594
0.00456931
0.00449151
0.00431484
0.00455292
0.0047606
0.00472111
0.00427885
0.00277826
0.00281643
0.00283585
0.0028383
0.00280223
0.00279258
0.00275306
0.00273308
0.00267133
0.00260888
0.00254823
0.00271741
0.00286133
0.00305607
0.00307341
0.00315459
0.00302549
0.00286703
0.00267945
0.00208973
0.00265057
0.00315992
0.00335365
0.00360342
0.00365178
0.00419955
0.0044165
0.00453213
0.004443
0.00356432
0.00302319
0.00241579
0.00157094
0.000978614
0.00114829
0.00119397
0.00125408
0.00153374
0.00282329
0.00144124
0.00199339
0.00155768
0.00267844
0.00141634
0.000891823
0.00059203
0.000758187
0.000906851
0.000920231
0.000883862
0.000738682
0.000585449
0.000598569
0.000559308
0.000594402
0.000530978
0.000607403
0.000561897
0.000770355
0.0011121
0.00129332
0.00132683
0.00107476
0.00121664
0.00101695
0.00117537
0.00105113
0.00114643
0.00110023
0.00134574
0.00147484
0.00141124
0.00141427
0.00123745
0.000865241
0.00100324
0.000787973
0.000946529
0.00072369
0.000933298
0.000800402
0.00103995
0.00107165
0.00106818
0.00102807
0.000785051
0.000929901
0.00073244
0.00090559
0.00074617
0.000804281
0.000670596
0.000975296
0.000994311
0.000917228
0.00097479
0.00109371
0.00117111
0.0012833
0.00121165
0.00137107
0.00131877
0.00132753
0.00125838
0.00122512
0.00119811
0.00120165
0.00118249
0.00118925
0.00122775
0.00122944
0.00123425
0.001273
0.00125481
0.00122377
0.00120471
0.00107064
0.000865135
0.00150777
0.00155454
0.00157912
0.0015796
0.00154594
0.00152674
0.00146988
0.00145528
0.00140709
0.00138103
0.00131752
0.0012679
0.00120953
0.00136126
0.000762505
0.000866167
0.000914463
0.000942514
0.000960999
0.000969863
0.00097611
0.000970301
0.000957706
0.000934766
0.000927885
0.000902628
0.00115365
0.00131236
0.00137315
0.00138991
0.00130217
0.00124009
0.00273358
0.00331424
0.0050213
0.00513192
0.00386086
0.00384378
0.00132187
0.00139983
0.000955616
0.00134267
0.00138424
0.00136956
0.00129287
0.000931857
0.00139781
0.00097499
0.00131098
0.000988553
0.00121787
0.00102088
0.00146175
0.00186833
0.00180773
0.00164062
0.00113788
0.000954999
0.000964113
0.000827594
0.000908028
0.000739145
0.000896805
0.000746177
0.00107928
0.00149123
0.00167485
0.00171136
0.00135112
0.00186521
0.00140347
0.00203441
0.00162017
0.00200208
0.00161028
0.00186138
0.00230361
0.00231426
0.002259
0.00182018
0.00145547
0.00163515
0.00144692
0.00166832
0.00241422
0.00158073
0.00240815
0.00099355
0.00135442
0.00139617
0.00137698
0.00129812
0.000873787
0.00222217
0.00117589
0.0020853
0.00135031
0.00215916
0.00157885
0.00210466
0.00251819
0.00264014
0.00263331
0.0021523
0.00195043
0.00202906
0.00162517
0.001953
0.00144972
0.00209768
0.00117779
0.00152175
0.00167014
0.00175997
0.00176491
0.0014472
0.00286215
0.00179972
0.00271676
0.00189265
0.00242644
0.00194636
0.00212655
0.00251258
0.00249627
0.0024744
0.00209792
0.00169873
0.00224329
0.00159729
0.0481028
0.110722
0.0442654
0.112047
0.0506199
0.0719382
0.0708872
0.0710301
0.0713289
0.0536487
0.116937
0.138003
0.143835
0.145567
0.144473
0.233425
0.190342
0.285827
0.185161
0.109136
0.0474399
0.0653045
0.168229
0.277587
0.416784
0.529065
0.360608
0.373378
0.238269
0.234979
0.221372
0.179263
0.110094
0.0553344
0.00938533
0.0102219
0.0146757
0.0196113
0.015412
0.00940155
0.00186206
0.00192005
0.00196164
0.00198642
0.00197651
0.00193007
0.00195501
0.00183797
0.00171918
0.00191781
0.00209075
0.00236327
0.00275474
0.00303173
0.00273093
0.00298661
0.00316082
0.00330274
0.0034209
0.0035985
0.00379899
0.00397424
0.00398251
0.00364816
0.00310928
0.00252763
0.00212251
0.00201022
0.00188732
0.00166444
0.00152256
0.00142448
0.00137836
0.00136009
0.00139876
0.00152975
0.00164407
0.00168423
0.00165196
0.00162126
0.00159455
0.00141967
0.00165994
0.00227683
0.00229269
0.00392776
0.00452503
0.00461914
0.00462589
0.00409688
0.00261567
0.00262171
0.00263513
0.00268567
0.00269662
0.00270529
0.00270307
0.00269591
0.00268064
0.00265306
0.00263845
0.0025957
0.00255918
0.0024672
0.00247129
0.00250484
0.00253001
0.00248773
0.00249753
0.00244427
0.00322341
0.00428362
0.00480101
0.00501561
0.00519894
0.00504618
0.00700602
0.00601202
0.00422267
0.00414266
0.00408881
0.00486024
0.00489506
0.00440594
0.00442703
0.00407698
0.00254388
0.00253734
0.00253898
0.00271408
0.00276673
0.00285884
0.00288422
0.00290396
0.00291681
0.00290695
0.00290391
0.00287467
0.00285433
0.002787
0.00276469
0.00275537
0.00151924
0.00165865
0.0017218
0.00173428
0.00176138
0.0017522
0.0017445
0.00172448
0.00171225
0.00168419
0.00165224
0.00160371
0.00150825
0.00137323
0.00151237
0.00256477
0.00256486
0.00418749
0.0046723
0.00470365
0.00525765
0.00498397
0.00472063
0.0050736
0.00457044
0.00453138
0.00413264
0.0025693
0.002603
0.00154733
0.00153145
0.00179251
0.00174159
0.00186096
0.00191087
0.00191479
0.00193996
0.00196369
0.00199356
0.00204022
0.00205277
0.00201812
0.00201073
0.00189323
0.00163557
0.00165484
0.00195138
0.00204721
0.00190268
0.00187193
0.0018598
0.00181758
0.00178434
0.00175254
0.00177693
0.00191537
0.00191521
0.00188241
0.00179301
0.00174778
0.00151528
0.00146701
0.00255271
0.0025759
0.00421025
0.00432568
0.00431441
0.00497035
0.00554856
0.00629908
0.00538097
0.00436706
0.00446016
0.005103
0.00377508
0.00312745
0.00184752
0.00144009
0.00172872
0.00169314
0.00176129
0.00182465
0.00161908
0.00173713
0.00160418
0.00145715
0.00144813
0.00144593
0.0014808
0.00149546
0.00152167
0.00152506
0.0015595
0.00155551
0.00155831
0.00157702
0.00158339
0.00174928
0.00189896
0.00159902
0.00135627
0.00132316
0.0012498
0.00119099
0.00122065
0.00119311
0.00118615
0.00116504
0.00114574
0.00109393
0.0011406
0.00121113
0.00141779
0.00135819
0.00109699
0.000979394
0.000669344
0.000681935
0.000686607
0.000707454
0.000715055
0.000724318
0.00072777
0.000739294
0.000741498
0.000745064
0.000744729
0.000761873
0.000759135
0.000750061
0.000744426
0.000747877
0.000750984
0.000750238
0.00109859
0.00122282
0.00133385
0.00158374
0.00186283
0.0016035
0.00135954
0.00117365
0.000754565
0.000765795
0.000779563
0.000786677
0.000803113
0.000818173
0.000834864
0.000845398
0.000853229
0.000861538
0.000870318
0.00087393
0.000871819
0.000855238
0.000845457
0.00086718
0.000952905
0.00100272
0.00106652
0.00109069
0.00111209
0.00112309
0.00111769
0.00112904
0.00111569
0.00111374
0.00109439
0.00108601
0.00107791
0.0010678
0.00105541
0.00102507
0.00101491
0.00106809
0.00180576
0.0023606
0.00272048
0.00299581
0.00274921
0.00221209
0.00234776
0.00412162
0.00388732
0.00230707
0.00214537
0.00196737
0.00169908
0.00153958
0.00186644
0.00212075
0.00231382
0.00248436
0.0026405
0.00274659
0.0028844
0.00306504
0.00338329
0.00342228
0.0031209
0.00252694
0.00213614
0.00199224
0.00192351
0.00180617
0.00167834
0.00172093
0.00173388
0.00168296
0.0016199
0.00160288
0.00163033
0.00166644
0.00164695
0.00164591
0.0014703
0.00146958
0.00251096
0.00255417
0.00392909
0.00414017
0.00418118
0.00268553
0.00264945
0.00154753
0.00143765
0.00156828
0.00162815
0.00163188
0.00163907
0.00163167
0.00160361
0.00158326
0.00155921
0.00153957
0.00152178
0.00149126
0.00143303
0.00132432
0.00144255
0.00161606
0.00168795
0.00170717
0.00171682
0.00174402
0.00178878
0.00182401
0.00190631
0.00191337
0.00191213
0.00191853
0.00179286
0.00184837
0.00156445
0.00156169
0.00270695
0.00269875
0.00155052
0.00183043
0.00184351
0.0018231
0.00196342
0.00179657
0.00174
0.00173213
0.00165913
0.0016203
0.00156776
0.00153645
0.00156585
0.00166517
0.0016121
0.00142953
0.00137581
0.00154335
0.00148596
0.00123258
0.00105312
0.00102445
0.000980833
0.000954332
0.0010005
0.00103677
0.00105743
0.00108348
0.00109112
0.00113866
0.0011074
0.00116121
0.00123143
0.00128738
0.00152662
0.00165488
0.001495
0.00146655
0.00144844
0.00144797
0.00145288
0.00139323
0.00138934
0.00135841
0.00134306
0.00130216
0.00128374
0.00126031
0.0012642
0.00127722
0.001404
0.00360314
0.00459616
0.00478474
0.00818466
0.00330456
0.00337694
0.00664664
0.00273581
0.00411763
0.0044139
0.0046066
0.00481224
0.00440462
0.00562568
0.00391142
0.0043514
0.00452891
0.00394212
0.00150865
0.00176323
0.00200715
0.00176901
0.00156094
0.00106185
0.00114178
0.00117777
0.00120736
0.00122618
0.00124774
0.00127069
0.00129225
0.00130712
0.00130691
0.00126659
0.00122332
0.00112426
0.00109123
0.00113326
0.00117661
0.00103272
0.00097219
0.000983418
0.000999179
0.00100795
0.0010095
0.001019
0.00102135
0.00103649
0.00102795
0.00103537
0.00101734
0.00102579
0.00101284
0.000978714
0.000930208
0.000848362
0.000828544
0.00119352
0.0012712
0.00133532
0.00151657
0.00175257
0.00187094
0.00167796
0.00154879
0.00148689
0.00164972
0.0016532
0.0030096
0.00576721
0.00258445
0.00288744
0.00840155
0.00334914
0.00260148
0.00263952
0.00266655
0.00267054
0.0015516
0.00183662
0.00177992
0.00178859
0.00151744
0.00127454
0.00114324
0.00102212
0.00069356
0.000691403
0.000696615
0.00070757
0.000711027
0.000680601
0.000680525
0.000676661
0.000675169
0.000660763
0.000656746
0.000644967
0.000637812
0.000620856
0.000611727
0.000595844
0.000593642
0.000627482
0.000704658
0.000853058
0.000940265
0.00107419
0.00109087
0.00120937
0.00297153
0.00344433
0.00475204
0.0047194
0.00743759
0.00465074
0.00351244
0.00316555
0.00463365
0.0047905
0.00443125
0.00599673
0.0041482
0.00276243
0.0043246
0.00362485
0.00410601
0.00408637
0.00435817
0.00691291
0.00723149
0.00202844
0.00180644
0.00189815
0.00215469
0.00255979
0.00236518
0.00269134
0.00270522
0.00210171
0.0013123
0.00415194
0.0050329
0.00410914
0.004996
0.00752279
0.00302686
0.00295019
0.00260902
0.0021775
0.00197832
0.00195311
0.00217873
0.00260727
0.00648973
0.00695767
0.00653357
0.00655651
0.00594083
0.00642622
0.00796484
0.00790033
0.00699837
0.00654004
0.00682576
0.00435351
0.00261195
0.00302772
0.00336497
0.00449038
0.0046284
0.00974308
0.0033281
0.00366766
0.00372501
0.00497095
0.0048276
0.00847204
0.00362824
0.00390236
0.0051374
0.00686984
0.0125712
0.00464357
0.00486781
0.00698267
0.00709254
0.00648508
0.00470273
0.00425294
0.00462188
0.00348542
0.00340858
0.0029045
0.00428175
0.0057485
0.00456966
0.0044367
0.00376478
0.003387
0.00343493
0.00357247
0.00297127
0.00292663
0.00336776
0.00253161
0.00245286
0.00256438
0.000715789
0.000366705
0.00037461
0.000384355
0.000392298
0.00040055
0.000406505
0.000413658
0.00041676
0.000417181
0.000418388
0.000442236
0.000437928
0.000424061
0.000385053
0.000439248
0.000697013
0.00069732
0.000438585
0.000386603
0.000693868
0.00110521
0.00130279
0.00154044
0.00155896
0.0013456
0.00116702
0.000718799
0.000707391
0.000428724
0.000500745
0.000543781
0.000482417
0.000538537
0.000499228
0.000528642
0.000534587
0.000494939
0.000491971
0.000493802
0.000490119
0.000481317
0.000470686
0.000457782
0.000447994
0.000443383
0.000440706
0.000433411
0.00035657
0.000333832
0.000406111
0.000652489
0.000656307
0.000612578
0.000573128
0.000538666
0.000521767
0.000516112
0.000512509
0.000521346
0.000538083
0.000542875
0.000547893
0.000590126
0.000570945
0.000609788
0.000572446
0.000611464
0.000573742
0.000527825
0.000443183
0.000457211
0.000737665
0.000745551
0.00120381
0.00137631
0.00156017
0.00156764
0.0017506
0.00184466
0.0015635
0.00162329
0.00185887
0.00173026
0.00154112
0.00154751
0.00139159
0.0013936
0.00123537
0.000772537
0.000762115
0.00047859
0.000464869
0.000554298
0.000544701
0.000605738
0.000648418
0.000648631
0.000646546
0.000631272
0.000625535
0.000550135
0.000539106
0.000539873
0.000523795
0.000520992
0.000545548
0.000599771
0.000707756
0.000856907
0.000930564
0.000958537
0.000917834
0.000820537
0.000611017
0.000548212
0.000954486
0.000984903
0.00180097
0.00429466
0.00205159
0.00374659
0.00270105
0.000666938
0.000741791
0.000945572
0.0010593
0.0011445
0.00119644
0.00109748
0.000918386
0.000691352
0.000570373
0.000844818
0.000730286
0.000821966
0.000717449
0.000928504
0.00107321
0.00103794
0.00104543
0.0008832
0.000719109
0.000761618
0.000683247
0.000752999
0.000630564
0.000758601
0.000684626
0.000860159
0.000868176
0.00085004
0.000805643
0.000613357
0.000643557
0.000539906
0.000585785
0.000526115
0.000543876
0.000515344
0.000600905
0.000692467
0.000664661
0.000662118
0.000544092
0.000426491
0.000471182
0.000407864
0.000461721
0.00035911
0.000434926
0.000364518
0.000472093
0.00048717
0.000490908
0.000489833
0.000400477
0.000471342
0.000573597
0.000600244
0.00060423
0.000574632
0.000443308
0.000685535
0.000617251
0.000753445
0.000650913
0.000713185
0.000649155
0.000756588
0.000969109
0.00101198
0.00101866
0.00082667
0.000821869
0.00150226
0.0835784
0.00135137
0.00159755
0.00164773
0.00164201
0.00135751
0.0013236
0.00164051
0.00121245
0.00171835
0.00108195
0.00183432
0.000699124
0.00106305
0.0011414