/*--------------------------------*- C++ -*----------------------------------*\
| =========                 |                                                 |
| \\      /  F ield         | OpenFOAM: The Open Source CFD Toolbox           |
|  \\    /   O peration     | Version:  v2012                                 |
|   \\  /    A nd           | Website:  www.openfoam.com                      |
|    \\/     M anipulation  |                                                 |
\*---------------------------------------------------------------------------*/
FoamFile
{
    version     2.0;
    format      ascii;
    class       volVectorField;
    location    "380";
    object      U;
}
// * * * * * * * * * * * * * * * * * * * * * * * * * * * * * * * * * * * * * //

dimensions      [0 1 -1 0 0 0 0];


internalField   nonuniform List<vector> 
18258
(
(-0.176877 0.116903 0.137786)
(-0.052008 0.246208 0.157517)
(-0.105062 0.214473 0.096193)
(-0.0387255 0.0701978 0.0840324)
(-0.226471 0.202791 0.0178566)
(-0.159292 0.361597 0.0163802)
(-0.223042 0.0447912 0.0536696)
(-0.341493 -0.0527773 0.0750438)
(-0.448809 -0.105593 0.108073)
(-0.535672 -0.159499 0.145624)
(-0.621375 -0.217073 0.179857)
(-0.687629 -0.271465 0.309491)
(-0.678513 -0.334222 0.357217)
(-0.621965 -0.445504 0.385835)
(-0.487566 -0.542953 0.369415)
(-0.204632 -0.586889 0.340182)
(0.0739576 -0.373993 0.28802)
(0.0794833 -0.165584 0.298424)
(-0.125054 -0.0781268 0.235734)
(-0.39304 -0.273807 0.115453)
(-0.134221 -0.523264 0.288308)
(-0.188983 -0.362802 0.405761)
(-0.290858 -0.733443 0.298806)
(-0.348165 -0.774187 0.262306)
(-0.125668 -0.708958 0.139522)
(0.00940861 -0.644697 0.186877)
(-0.0126977 -0.337082 0.421255)
(0.176833 -0.111293 0.800226)
(0.300371 -0.0944531 0.885344)
(0.317851 0.0587062 0.901122)
(0.320768 0.190125 0.797896)
(0.163253 0.302497 0.0633108)
(0.0873926 0.116163 -0.437146)
(0.0248845 0.0682328 -0.73401)
(-0.0569976 0.0705443 -0.904581)
(-0.0478808 0.0683957 -1.08473)
(-0.0625093 0.0681964 -1.22821)
(-0.0900005 0.0867214 -1.32579)
(-0.129077 0.0771684 -1.37504)
(-0.17446 0.0823237 -1.36147)
(-0.222888 0.0681791 -1.2774)
(-0.268101 0.0764138 -1.12344)
(-0.305642 0.0709449 -0.912322)
(-0.335931 0.070501 -0.656342)
(-0.346926 0.0715949 -0.360582)
(-0.332879 0.0676599 -0.160086)
(-0.169256 0.140081 -0.205238)
(0.324465 -0.0895214 -0.141605)
(0.579344 -0.130682 -0.164441)
(0.646022 -0.109813 -0.171876)
(0.767095 -0.135059 -0.179427)
(0.801424 -0.134249 -0.195752)
(0.503533 -0.00954007 -0.257774)
(0.258874 -0.138467 -0.218867)
(0.113328 -0.0430971 -0.159049)
(0.28183 -0.0100831 -0.169135)
(0.536665 -0.00277417 -0.173689)
(0.790847 -0.0300417 -0.177871)
(1.09128 -0.034634 -0.175614)
(1.42704 -0.0487121 -0.185058)
(1.76172 -0.0644047 -0.183427)
(2.04599 -0.0809313 -0.166505)
(2.24676 -0.092581 -0.138016)
(2.34698 -0.0986697 -0.102347)
(2.35366 -0.0959705 -0.0676936)
(2.29327 -0.0882772 -0.0409933)
(2.1997 -0.0817777 -0.0243778)
(2.10729 -0.0756852 -0.0176584)
(2.03794 -0.0669096 -0.0186937)
(1.9924 -0.0640521 -0.0233785)
(1.96818 -0.0589199 -0.0258195)
(1.95774 -0.0500251 -0.0202848)
(1.94358 -0.0395264 -0.00327183)
(1.90019 -0.0247089 0.0243112)
(1.81265 -0.00766384 0.0538978)
(1.69172 0.00972586 0.0772179)
(1.57088 0.0219324 0.080071)
(1.47824 0.0309226 0.0754171)
(1.4002 0.0380135 0.0707123)
(1.33801 0.0508507 0.0633127)
(1.28719 0.0574969 0.0651281)
(1.1936 0.0445395 0.0787462)
(1.09658 0.0191855 0.110465)
(1.01375 0.000870943 0.128021)
(0.906639 -0.0207618 0.120918)
(0.762692 0.0167928 0.146104)
(0.641888 0.0816782 0.133383)
(0.518255 0.100584 0.134302)
(0.381269 0.118091 0.118692)
(0.224726 0.12716 0.0966295)
(0.120221 0.189768 0.0920843)
(0.122342 0.0101593 0.197553)
(0.164233 -0.100786 0.143925)
(0.113278 -0.129616 0.0399431)
(0.10476 -0.115069 -0.141738)
(0.216931 -0.210248 -0.369858)
(0.263005 -0.232894 -0.5551)
(0.204586 -0.139856 -0.729217)
(0.10627 -0.0818383 -0.714453)
(0.0363629 0.0566258 -0.491829)
(-0.0885831 0.230573 -0.161306)
(-0.215887 0.195066 0.17952)
(-0.234623 0.0651234 0.153911)
(-0.340487 0.0154846 0.169226)
(-0.272705 0.138885 0.177917)
(-0.246561 0.286697 -0.0480333)
(-0.106096 0.162555 -0.403405)
(0.0647292 0.00374757 -0.584912)
(0.334434 -0.0943983 -0.631781)
(0.4964 -0.230229 -0.489006)
(0.351756 -0.210753 -0.279644)
(0.271821 -0.191836 -0.100405)
(0.283042 -0.186541 0.0397714)
(0.280861 -0.139986 0.160326)
(0.22571 -0.0989756 0.191662)
(0.396915 -0.0812153 0.180839)
(0.536043 -0.0631738 0.176429)
(0.588499 -0.0519296 0.164501)
(0.700467 -0.0786224 0.160717)
(0.732661 -0.133571 0.132531)
(0.601086 -0.134131 0.13525)
(0.454587 -0.151625 0.139736)
(0.461541 -0.185725 0.0355736)
(0.610904 -0.162723 0.0515132)
(0.736317 -0.161958 0.0490372)
(0.904824 -0.141606 0.0811011)
(1.08838 -0.109781 0.110728)
(1.18959 -0.0776498 0.148354)
(1.20869 -0.010581 0.139985)
(1.24584 -0.00895879 0.120459)
(1.33571 -0.00686335 0.139985)
(1.37771 -0.00159862 0.129893)
(1.36928 -0.0124193 0.158726)
(1.32877 -0.0480997 0.193994)
(1.32309 -0.0510307 0.190918)
(1.28603 -0.0619146 0.152174)
(1.27935 -0.0601085 0.135323)
(1.2586 -0.0476298 0.108798)
(1.25006 -0.0455776 0.110826)
(1.20133 0.00460828 0.109856)
(1.19428 0.0280498 0.138439)
(1.07683 0.137014 0.27217)
(1.22599 0.0530526 0.254615)
(1.21789 0.020259 0.159345)
(1.26705 -0.0206549 0.128622)
(1.27918 -0.024871 0.119431)
(1.28942 -0.0381125 0.144408)
(1.30829 -0.0414053 0.183637)
(1.35084 -0.036632 0.217528)
(1.38665 -0.0366057 0.222438)
(1.42349 -0.0126884 0.183516)
(1.43692 -0.00182178 0.138214)
(1.51305 -0.00644165 0.151346)
(1.61103 -0.0166342 0.159428)
(1.75031 -0.0315486 0.143767)
(1.88243 -0.0541303 0.0490321)
(1.96376 -0.0755797 -0.0712764)
(1.983 -0.0904208 -0.164401)
(1.96537 -0.0964264 -0.200662)
(1.94882 -0.0967512 -0.194621)
(1.95878 -0.0911247 -0.174836)
(2.00563 -0.0826038 -0.14439)
(2.08697 -0.0701344 -0.107742)
(2.19806 -0.059869 -0.0837977)
(2.31229 -0.0595134 -0.112545)
(2.38931 -0.0606034 -0.172837)
(2.39203 -0.0582244 -0.276722)
(2.28612 -0.0500059 -0.391981)
(2.07056 -0.0424152 -0.483368)
(1.77004 -0.0366556 -0.539811)
(1.42613 -0.0315328 -0.548598)
(1.08011 -0.0192989 -0.527455)
(0.791591 -0.0243491 -0.459229)
(0.535993 -0.0158941 -0.415468)
(0.282315 -0.0215466 -0.386907)
(0.10885 -0.0407151 -0.360854)
(0.101926 -0.0425592 -0.637413)
(0.0771161 -0.0376106 -0.873526)
(0.0505079 -0.0394828 -1.0582)
(0.0117284 -0.0406854 -1.17713)
(-0.023315 -0.02835 -1.21733)
(-0.0598641 -0.0158982 -1.17039)
(-0.0935695 0.00287643 -1.0422)
(-0.118969 0.0257038 -0.827624)
(-0.121588 0.0799534 -0.565323)
(-0.145353 0.133404 -0.0608702)
(-0.1909 0.0282971 0.56062)
(-0.206896 -0.0324876 0.747458)
(-0.225627 -0.00125574 0.917064)
(-0.230909 -0.043619 1.06043)
(-0.316785 -0.102503 1.12289)
(-0.370352 -0.107922 1.13729)
(-0.368445 -0.230412 1.0005)
(-0.294987 -0.248945 0.769319)
(-0.457822 -0.663496 0.686667)
(-0.485587 -0.54037 0.704129)
(-0.413818 -0.408786 0.830545)
(-0.550738 -0.762707 0.85246)
(-0.686593 -0.828997 0.601163)
(-0.476525 -0.751625 0.798084)
(-0.437251 -0.573408 0.739241)
(-0.785867 -0.523735 0.744736)
(-0.905288 -0.407163 0.853346)
(-0.531863 -0.704139 0.816567)
(-0.441442 -0.576518 0.65737)
(-0.320268 -0.315573 0.397384)
(-0.298581 -0.176108 0.391004)
(-0.281332 -0.140578 0.343227)
(-0.231821 0.11968 0.104489)
(-0.162765 0.292491 -0.422385)
(-0.153204 0.18041 -0.640868)
(-0.132306 0.0262591 -0.916764)
(-0.0870391 -0.0583582 -1.08757)
(-0.0290484 -0.0702611 -1.23523)
(0.037764 -0.102825 -1.26968)
(0.097302 -0.0992209 -1.23448)
(0.171536 -0.110082 -1.12046)
(0.215445 -0.123935 -0.920435)
(0.259532 -0.147275 -0.705878)
(0.248577 -0.139713 -0.398906)
(0.416359 -0.0536177 -0.638176)
(0.7614 -0.118659 -0.460355)
(0.710273 -0.108363 -0.418076)
(0.603634 -0.0719675 -0.413726)
(0.515563 -0.106405 -0.426501)
(0.0903883 -0.110804 -0.543233)
(0.149506 -0.121091 -0.940748)
(0.239215 -0.226786 -1.09216)
(0.331771 -0.284663 -0.97618)
(0.39126 -0.353417 -0.543359)
(0.201014 0.00533663 0.16591)
(0.260106 0.103741 0.170742)
(0.428456 -0.324577 0.332948)
(0.515486 -0.528316 0.503251)
(0.544655 -0.521337 0.552738)
(0.412363 -0.233988 0.674448)
(0.471516 -0.336219 0.566915)
(0.486821 -0.60713 0.553247)
(0.702539 -0.670526 0.321701)
(0.744749 -0.485198 0.460017)
(0.79543 -0.344626 0.600285)
(0.230679 -0.223238 0.573048)
(-0.243064 -0.266526 0.821407)
(-0.181191 -0.191062 0.671303)
(-0.676526 -0.298263 0.8141)
(-0.475861 -0.177656 0.686794)
(-0.325063 -0.000146591 0.534092)
(-0.218906 0.172466 -0.297106)
(-0.193445 -0.0486872 -0.619875)
(-0.0570725 -0.17075 -1.10165)
(0.103368 -0.160022 -1.25046)
(0.273791 -0.0900719 -1.11861)
(0.427803 -0.10737 -0.704818)
(0.492631 -0.0739505 -0.632255)
(0.481987 -0.0418438 -0.625432)
(0.518978 -0.08758 -0.657258)
(0.573435 -0.120363 -0.749866)
(0.387671 -0.0415225 -0.696793)
(0.350231 -0.0787254 -0.675086)
(0.128827 -0.113125 -0.679325)
(-0.110839 -0.050493 -0.590269)
(0.286097 -0.00178377 -0.602786)
(0.341435 0.00976134 -0.627229)
(0.627374 -0.101892 -0.664417)
(0.575422 -0.0992864 -0.41732)
(0.268146 0.0657117 -0.394142)
(0.282039 0.0497673 -0.295069)
(-0.30669 -0.0455038 0.0800856)
(-0.306906 0.141379 -0.0214225)
(-0.28184 -0.0266164 -0.456848)
(0.0830028 -0.19977 -0.584106)
(0.355008 -0.2782 -0.574514)
(0.71754 -0.343491 -0.410036)
(0.805053 -0.416717 -0.379996)
(0.765281 -0.289942 -0.297122)
(0.807212 -0.363758 -0.220885)
(0.822595 -0.484628 -0.286172)
(0.733109 -0.428082 -0.282125)
(0.708295 -0.302108 -0.335967)
(0.737508 -0.250355 -0.345084)
(0.783762 -0.309924 -0.214129)
(0.796182 -0.365474 -0.162509)
(0.887566 -0.464217 -0.15734)
(1.15543 -0.629789 -0.117985)
(1.61497 -0.724657 -0.0988953)
(1.99281 -0.670302 -0.038106)
(2.14977 -0.488364 0.0473836)
(2.06993 -0.289402 0.0954608)
(1.90481 -0.161589 0.102927)
(1.80744 -0.0934016 0.0994946)
(1.71077 0.00176682 0.099059)
(1.5734 0.0901694 0.0912039)
(1.43614 0.108613 0.0481856)
(1.33166 0.0588679 0.0274543)
(1.24187 -0.00322382 0.0217967)
(1.14013 -0.052743 0.0235585)
(1.05614 -0.0776474 0.0217481)
(0.998349 -0.0614991 0.0173879)
(0.822301 -0.1093 -0.0234732)
(0.717066 0.0033703 0.0104022)
(0.633708 0.0697612 0.00942001)
(0.497969 0.0246376 0.00708336)
(0.35966 -0.0597352 -0.0129118)
(0.139127 -0.146277 -0.0320241)
(0.225679 -0.307941 0.00115184)
(0.35338 -0.0819174 0.0120114)
(-0.00246474 -0.230172 -0.00922787)
(0.0430226 -0.545991 -0.0504746)
(0.0120038 -0.712548 -0.0526058)
(-0.00804678 -0.876524 -0.053241)
(-0.0260104 -1.0066 -0.0649602)
(-0.0360562 -1.10257 -0.0958403)
(-0.0465856 -1.15699 -0.105135)
(-0.0581325 -1.21434 -0.118285)
(-0.0883828 -1.27615 -0.134287)
(-0.1135 -1.32092 -0.149605)
(-0.137487 -1.35469 -0.162518)
(-0.15952 -1.37638 -0.173568)
(-0.17855 -1.38773 -0.183217)
(-0.193952 -1.38936 -0.189917)
(-0.206092 -1.38225 -0.193764)
(-0.216125 -1.36751 -0.193886)
(-0.224701 -1.34559 -0.191978)
(-0.233007 -1.31512 -0.186546)
(-0.240699 -1.2742 -0.178204)
(-0.246173 -1.21992 -0.165165)
(-0.244075 -1.15074 -0.147421)
(-0.191122 -1.07123 -0.12704)
(-0.141349 -0.968599 -0.112716)
(-0.165932 -0.868142 -0.0796202)
(-0.189967 -0.754243 -0.0820338)
(-0.205198 -0.542822 -0.0856343)
(-0.274027 -0.449949 -0.0921199)
(0.0221896 0.0535165 -0.116356)
(-0.350875 -0.308082 0.0250184)
(-0.231828 -0.617147 -0.0547762)
(-0.270559 -0.099174 -0.011232)
(-0.458188 -0.182374 0.0645143)
(-0.678828 -0.198627 0.0822737)
(-0.842214 -0.209253 0.114108)
(-0.953587 -0.223149 0.144247)
(-1.03423 -0.232571 0.203843)
(-1.11747 -0.244376 0.245387)
(-1.18661 -0.244319 0.302119)
(-1.20031 -0.248601 0.336372)
(-1.17346 -0.250418 0.366262)
(-1.10677 -0.249187 0.394538)
(-0.996313 -0.243579 0.422697)
(-0.842168 -0.230662 0.45408)
(-0.668921 -0.206517 0.493458)
(-0.42184 -0.147478 0.542199)
(-0.140197 -0.117972 0.56566)
(-0.159701 0.0287833 0.821761)
(-0.163636 0.0832199 1.04255)
(-0.163481 0.115529 1.11293)
(-0.164665 0.164722 1.02207)
(-0.167446 0.15358 0.839868)
(-0.153109 0.131341 0.56957)
(-0.122315 0.143726 0.287531)
(-0.223575 0.441086 0.372295)
(-0.505089 0.468616 0.335701)
(-0.68983 0.481368 0.339965)
(-0.914723 0.466224 0.333518)
(-1.09705 0.425568 0.309464)
(-1.22451 0.354123 0.26665)
(-1.28062 0.274052 0.219395)
(-1.26362 0.206718 0.182017)
(-1.23105 0.148439 0.158711)
(-1.18839 0.115697 0.140754)
(-1.09901 0.0929443 0.0904612)
(-0.957517 0.0455544 0.0700875)
(-0.766464 -0.0203911 0.0596038)
(-0.50029 -0.113701 0.019109)
(-0.252915 -0.207712 -0.0190381)
(-0.274173 -0.197553 -0.0661165)
(-0.318171 -0.176919 0.00846688)
(-0.314349 -0.174116 0.0596338)
(-0.272535 -0.156556 0.150805)
(-0.380479 -0.233586 0.118374)
(-0.422238 -0.296721 0.118376)
(-0.326297 -0.287799 0.176821)
(-0.269243 -0.21489 0.0448261)
(-0.140467 -0.100653 -0.0265943)
(-0.140598 -0.0767032 -0.00824376)
(-0.138536 -0.0740303 -0.0364096)
(-0.169432 -0.0555747 -0.0687061)
(-0.167893 -0.50127 -0.149513)
(-0.126278 -0.479304 -0.139481)
(-0.11054 -0.44673 -0.0969585)
(-0.100294 -0.423622 -0.146612)
(-0.266109 -0.537611 -0.0319414)
(-0.275805 -0.574926 -0.0262693)
(-0.283102 -0.631185 -0.0846162)
(-0.336758 -0.582392 -0.0206807)
(-0.33972 -0.529574 0.0546662)
(-0.301127 -0.358849 0.0848396)
(-0.443876 -0.316813 0.114553)
(-0.36103 -0.431483 0.0400369)
(-0.346759 -0.522259 0.0134432)
(-0.377353 -0.5081 -0.024275)
(-0.427985 -0.394217 0.0317626)
(-0.496749 -0.346358 0.0728528)
(-0.528301 -0.254719 0.163799)
(-0.590544 -0.215329 0.241487)
(-0.679446 -0.197406 0.256158)
(-0.575996 -0.206551 0.211707)
(-0.516519 -0.187628 0.181365)
(-0.544851 -0.184785 0.118037)
(-0.539449 -0.171831 0.092072)
(-0.496246 -0.183962 0.000886126)
(-0.761478 -0.0863603 0.0646274)
(-0.971282 -0.00506061 0.0897723)
(-1.07867 0.0525332 0.103706)
(-1.12777 0.0754652 0.138389)
(-1.1652 0.036104 0.238212)
(-1.24956 0.0693251 0.267533)
(-1.31508 0.119761 0.349528)
(-1.32843 0.171271 0.432427)
(-1.27079 0.222365 0.525104)
(-1.14563 0.261263 0.604896)
(-0.972972 0.281316 0.649516)
(-0.773426 0.283112 0.658618)
(-0.622095 0.288094 0.645531)
(-0.342252 0.271974 0.646187)
(-0.436661 0.243779 0.876356)
(-0.469048 0.226206 1.00445)
(-0.462229 0.178418 1.08278)
(-0.443207 0.122308 1.01496)
(-0.441762 0.0575986 0.7984)
(-0.712392 -0.00571653 0.744876)
(-0.722864 0.0706974 0.945598)
(-0.741331 0.116545 1.02424)
(-0.745681 0.163531 0.980197)
(-0.694972 0.198139 0.873161)
(-0.836725 0.185889 0.862996)
(-0.879155 0.14542 0.965575)
(-0.88252 0.0879342 1.00157)
(-0.873171 0.041526 0.926897)
(-0.867095 -0.0394103 0.707274)
(-1.00973 -0.0605744 0.676049)
(-1.02391 0.0202459 0.901547)
(-1.03647 0.0693173 0.966719)
(-1.0442 0.121781 0.944792)
(-1.01874 0.173855 0.85488)
(-1.16215 0.163026 0.805002)
(-1.16309 0.110498 0.893531)
(-1.14676 0.0570212 0.915155)
(-1.12998 0.00629255 0.859836)
(-1.1103 -0.073269 0.640308)
(-1.17016 -0.0838388 0.595723)
(-1.19532 -0.00630234 0.797282)
(-1.22138 0.0435902 0.840712)
(-1.25044 0.091874 0.81233)
(-1.26788 0.141544 0.717835)
(-1.31764 0.111076 0.611035)
(-1.28924 0.0689527 0.71001)
(-1.25097 0.0250302 0.747849)
(-1.21581 -0.021762 0.71681)
(-1.18602 -0.0935728 0.540015)
(-1.15276 -0.104757 0.472954)
(-1.18062 -0.0413774 0.621759)
(-1.21929 0.000259536 0.64126)
(-1.27354 0.039281 0.607105)
(-1.30657 0.0744834 0.509807)
(-1.22388 0.0359194 0.414888)
(-1.18701 0.00301531 0.500666)
(-1.12731 -0.0321028 0.53163)
(-1.08522 -0.0600587 0.520524)
(-1.03921 -0.11179 0.386997)
(-0.918424 -0.120151 0.315351)
(-0.9226 -0.109363 0.358347)
(-0.971796 -0.0803505 0.438506)
(-0.955687 -0.0869922 0.425301)
(-0.926877 -0.10253 0.395018)
(-1.00361 -0.0682843 0.381791)
(-0.995498 -0.0628625 0.307803)
(-1.00031 -0.0389767 0.283156)
(-1.04353 -0.0269619 0.209476)
(-1.03861 -0.00925971 0.202747)
(-0.806019 -0.104912 0.145563)
(-0.818873 -0.12499 0.158124)
(-0.787768 -0.128203 0.21653)
(-0.823474 -0.141271 0.24968)
(-0.609464 -0.281389 0.132999)
(-0.556469 -0.291113 0.114744)
(-0.503012 -0.326495 0.13237)
(-0.41968 -0.399162 0.115915)
(-0.396397 -0.383656 0.149405)
(-0.487555 -0.283937 0.165256)
(-0.605413 -0.238839 0.183738)
(-0.614688 -0.267517 0.0967041)
(-0.512938 -0.377507 0.0437949)
(-0.439071 -0.459621 0.0279294)
(-0.396822 -0.525843 0.0576337)
(-0.383512 -0.697358 0.122018)
(-0.386671 -0.662813 0.127841)
(-0.404985 -0.380038 0.106804)
(-0.407932 -0.536098 0.0812152)
(-0.398819 -0.601463 0.0434754)
(-0.215466 -0.787538 -0.159271)
(-0.193192 -0.793306 -0.259904)
(-0.115224 -0.703242 -0.36929)
(-0.0784507 -0.623331 -0.38525)
(-0.0450478 -0.588106 -0.34759)
(-0.0135832 -0.55516 -0.301226)
(0.0315491 -0.501175 -0.231791)
(0.123987 -0.454722 -0.108753)
(0.124546 -0.579209 -0.121742)
(0.116657 -0.635487 -0.12001)
(0.084744 -0.693337 -0.157449)
(0.092155 -0.747894 -0.155647)
(0.100293 -0.804465 -0.174823)
(0.118022 -0.832793 -0.166896)
(0.126016 -0.839608 -0.152691)
(0.12619 -0.825891 -0.130122)
(0.117488 -0.790028 -0.0957467)
(0.103892 -0.733663 -0.0424769)
(0.0371598 -0.6539 0.0334534)
(0.00155563 -0.545408 0.153326)
(0.0152027 -0.29924 0.36027)
(-0.147683 0.0132726 0.448798)
(-0.366344 0.0954504 0.35032)
(-0.39192 -0.0395597 0.25643)
(-0.219259 -0.172606 0.25252)
(-0.179434 -0.188982 0.268954)
(-0.156592 -0.178101 0.214631)
(-0.0884915 -0.142271 0.205923)
(0.00141854 -0.0285524 0.0697538)
(-0.0378305 0.11075 0.080863)
(-0.081376 0.149184 0.0804687)
(-0.0500434 0.213658 0.170524)
(-0.00842596 0.181819 0.191088)
(0.0141767 0.0426305 0.142311)
(-0.0426778 -0.0266758 0.226678)
(0.0250434 0.0944278 0.323035)
(-0.00155559 -0.0632762 0.286547)
(0.0783406 0.14383 0.247444)
(0.0917524 -0.0247706 0.227165)
(-0.0200466 -0.255923 0.455831)
(0.0510631 -0.359301 0.544615)
(0.172601 -0.503925 0.514326)
(0.16658 -0.693454 0.351442)
(0.0753346 -0.817258 0.143715)
(0.058887 -0.888981 -0.00787027)
(0.0652838 -0.923177 -0.119501)
(0.0632439 -0.949276 -0.197598)
(0.0601737 -0.963747 -0.248595)
(0.0520728 -0.961836 -0.279273)
(0.0419369 -0.941864 -0.29262)
(0.0293571 -0.90426 -0.289443)
(0.0237333 -0.829451 -0.249624)
(0.00740314 -0.7838 -0.328703)
(0.0435512 -0.702972 -0.225189)
(0.0476006 -0.652836 -0.21121)
(0.0448122 -0.635458 -0.231924)
(0.00470159 -0.701394 -0.325173)
(-0.0224827 -0.741024 -0.383002)
(-0.0572339 -0.776395 -0.410722)
(-0.0731312 -0.843165 -0.401631)
(-0.131801 -0.903605 -0.346066)
(-0.0937982 -0.968029 -0.332141)
(-0.0887798 -0.978682 -0.373261)
(-0.0536753 -0.917272 -0.418058)
(-0.0434781 -0.867266 -0.431865)
(-0.0176675 -0.825054 -0.404219)
(-0.0095022 -0.868422 -0.341204)
(-0.0392038 -0.900751 -0.374197)
(-0.0558954 -0.947474 -0.39667)
(-0.0236316 -0.990507 -0.4059)
(-0.048528 -1.05894 -0.420712)
(-0.0664753 -1.04173 -0.424475)
(-0.0932254 -0.919601 -0.34529)
(-0.186218 -0.761148 -0.224693)
(-0.1977 -0.613837 -0.041403)
(-0.0995934 -0.732772 -0.197636)
(-0.079368 -0.838739 -0.260254)
(-0.0592311 -0.927952 -0.324131)
(-0.0607978 -0.945459 -0.334855)
(-0.027769 -0.828685 -0.381988)
(-0.023947 -0.723776 -0.33835)
(-0.0320635 -0.541354 -0.255186)
(-0.0162085 -0.352994 -0.164885)
(0.0349753 -0.0896766 -0.210482)
(-0.246924 -0.433176 0.0728914)
(-0.32805 -0.46076 0.0261889)
(0.219373 -0.118979 -0.243764)
(-0.172538 -0.247172 0.0425951)
(-0.21783 -0.266266 -0.117815)
(-0.258161 -0.268543 -0.104091)
(-0.208288 -0.281413 -0.0219149)
(0.0810074 0.141036 -0.219719)
(0.102581 0.0599481 -0.232662)
(0.100785 -0.000100693 -0.261784)
(0.0961068 -0.000248264 -0.266482)
(-0.0801542 -0.429246 -0.202522)
(-0.133154 -0.449567 -0.223301)
(-0.186375 -0.457923 -0.207187)
(-0.249378 -0.444759 -0.169571)
(-0.169114 -0.54706 -0.184597)
(-0.12694 -0.558829 -0.257785)
(-0.0963568 -0.565093 -0.292132)
(-0.060728 -0.553299 -0.292579)
(-0.0508658 -0.742185 -0.349822)
(-0.0817079 -0.756847 -0.332703)
(-0.10646 -0.769187 -0.282268)
(-0.147312 -0.759527 -0.195109)
(-0.134624 -0.821268 -0.182649)
(-0.128902 -0.882167 -0.200658)
(-0.0982346 -0.904765 -0.297924)
(-0.0727652 -0.871825 -0.374461)
(-0.0493051 -0.851561 -0.400923)
(-0.0769225 -0.967104 -0.371464)
(-0.11228 -0.988851 -0.33632)
(-0.138241 -1.00913 -0.284115)
(-0.137337 -1.0918 -0.347217)
(-0.0801816 -1.06607 -0.39972)
(-0.0726155 -1.14372 -0.441238)
(-0.0493356 -1.12213 -0.473803)
(-0.0268316 -1.11304 -0.459014)
(-0.00321774 -1.04114 -0.415553)
(0.0121729 -1.07325 -0.406655)
(-0.0126457 -1.15166 -0.469861)
(-0.0398459 -1.17881 -0.494424)
(-0.068651 -1.20705 -0.463228)
(-0.131701 -1.22769 -0.379323)
(-0.135049 -1.16534 -0.369443)
(-0.283828 -1.0457 -0.225311)
(-0.457657 -1.1453 -0.076905)
(-0.464072 -1.0993 -0.0674512)
(-0.41633 -1.04487 -0.0647895)
(-0.303143 -1.03535 -0.0738931)
(-0.255917 -0.966611 -0.0641192)
(-0.309477 -0.94413 -0.0577041)
(-0.342597 -0.848346 -0.0422719)
(-0.378321 -0.713103 -0.0379405)
(-0.47402 -0.626449 -0.0367551)
(-0.410161 -0.401274 -0.034175)
(-0.465262 -0.66044 -0.00585379)
(-0.317037 -0.4574 0.0245484)
(-0.638657 -0.398665 0.0054675)
(-0.81546 -0.379369 0.0601736)
(-0.917837 -0.384573 0.0846658)
(-0.967706 -0.397391 0.124409)
(-0.979749 -0.525458 0.0978052)
(-0.940247 -0.689521 0.0653963)
(-0.923997 -0.750281 0.0525174)
(-0.874581 -0.84857 0.0364712)
(-0.858987 -0.895752 0.0304944)
(-0.821181 -0.927962 0.00763537)
(-0.703951 -0.967473 -0.0229881)
(-0.592804 -1.00189 -0.0419904)
(-0.627067 -0.952505 -0.0171982)
(-0.485296 -0.971405 -0.0307233)
(-0.503211 -0.893131 -0.0301384)
(-0.53082 -0.796708 -0.0232942)
(-0.559658 -0.730524 -0.0194853)
(-0.686685 -0.712246 -0.00977158)
(-0.675231 -0.598018 -0.00774651)
(-0.82428 -0.577217 0.0303722)
(-0.918493 -0.559689 0.050442)
(-0.881477 -0.697089 0.023179)
(-0.80061 -0.704525 0.0122235)
(-0.777764 -0.789683 0.00230568)
(-0.661206 -0.798036 -0.0107506)
(-0.636073 -0.882394 -0.0170221)
(-0.748745 -0.866101 -0.00511394)
(-0.82571 -0.850596 0.0044718)
(-0.86329 -0.773029 0.0135409)
(-0.801739 -0.73889 -0.0117301)
(-0.624058 -0.611951 0.00195462)
(-0.847228 -0.659653 0.0117215)
(-0.868044 -0.518361 0.052094)
(-0.870443 -0.379805 0.0581635)
(-0.843163 -0.282202 0.121657)
(-0.832223 -0.30222 0.0765576)
(-0.878904 -0.350647 0.0526055)
(-0.874971 -0.203892 0.129131)
(-0.893873 -0.184239 0.174202)
(-0.760458 -0.161481 0.158544)
(-0.76592 -0.12902 0.259307)
(-0.777061 -0.120707 0.302123)
(-0.820539 -0.108586 0.355534)
(-0.828028 -0.119164 0.352925)
(-0.641551 -0.181588 0.251189)
(-0.606655 -0.173531 0.248532)
(-0.566936 -0.180369 0.215639)
(-0.550648 -0.175519 0.188995)
(-0.568606 -0.191111 0.12038)
(-0.338268 -0.194603 0.0766605)
(-0.319925 -0.189112 0.101628)
(-0.328903 -0.191839 0.114154)
(-0.360084 -0.198739 0.124364)
(-0.448639 -0.216736 0.14185)
(-0.404727 -0.253182 0.0597415)
(-0.381653 -0.284702 0.0684062)
(-0.410065 -0.340749 0.0470299)
(-0.315456 -0.426572 0.0358382)
(-0.31133 -0.394043 0.0490447)
(-0.283186 -0.415901 0.015482)
(-0.192586 -0.419158 -0.0206046)
(-0.336657 -0.253887 0.0353972)
(-0.402326 -0.330602 0.0410542)
(-0.247778 -0.457023 -0.00676533)
(-0.291164 -0.4594 0.00018872)
(-0.451124 -0.320936 0.0719152)
(-0.523895 -0.298754 0.131279)
(-0.497409 -0.318423 0.136328)
(-0.470499 -0.336581 0.11138)
(-0.458495 -0.350419 0.0942899)
(-0.493166 -0.37297 0.00855086)
(-0.710574 -0.317703 0.0631718)
(-0.717763 -0.529686 0.0389336)
(-0.549064 -0.554107 -0.00183265)
(-0.510019 -0.606707 -0.00412101)
(-0.465868 -0.648928 -0.0176415)
(-0.437069 -0.652187 -0.0214144)
(-0.412977 -0.530726 -0.0232881)
(-0.411293 -0.540764 -0.0486019)
(-0.410201 -0.541196 -0.034568)
(-0.335539 -0.5502 -0.0174252)
(-0.267661 -0.595582 -0.00769869)
(-0.319737 -0.580538 -0.00385786)
(-0.403496 -0.512724 0.00689102)
(-0.332116 -0.535102 -0.00448031)
(-0.438969 -0.630031 -0.0120803)
(-0.293057 -0.472976 -0.00544598)
(-0.210563 -0.539411 -0.0187125)
(-0.281293 -0.524337 -0.0165872)
(-0.394488 -0.435859 -0.000920821)
(-0.413892 -0.362577 -0.010554)
(-0.260746 -0.394013 -0.0113436)
(-0.15712 -0.422613 -0.0367785)
(-0.136488 -0.399187 -0.023072)
(-0.238195 -0.205155 0.0220533)
(-0.382651 -0.342709 -0.00220903)
(-0.25193 -0.474311 -0.020042)
(-0.219171 -0.467713 -0.0239656)
(-0.122171 -0.392537 -0.0304213)
(-0.219124 -0.194315 0.0389318)
(-0.346784 -0.337763 0.0120077)
(-0.366005 -0.363074 0.0541324)
(-0.195821 -0.510792 -0.0111264)
(-0.17402 -0.467767 0.0184007)
(-0.109952 -0.419928 0.00152385)
(-0.222154 -0.228879 0.0445232)
(-0.32567 -0.341667 0.0522663)
(-0.334794 -0.338744 0.0569123)
(-0.180482 -0.462945 0.0164671)
(-0.109256 -0.408701 -0.000256413)
(-0.231729 -0.2203 0.0619816)
(-0.285669 -0.221309 0.0773698)
(-0.240201 -0.230093 0.0711155)
(-0.349979 -0.336784 0.0784196)
(-0.18949 -0.465039 0.0481471)
(-0.117704 -0.415385 0.0370552)
(-0.140399 -0.449411 -0.00427255)
(-0.196352 -0.497308 0.0254873)
(-0.381363 -0.350471 0.0791363)
(-0.334152 -0.625126 -0.00369564)
(-0.355637 -0.631831 -0.0117727)
(-0.499161 -0.511686 0.0579191)
(-0.651051 -0.444625 0.0983699)
(-0.6664 -0.28671 0.136453)
(-0.797749 -0.271574 0.170614)
(-0.890442 -0.320798 0.166517)
(-1.02068 -0.489013 0.126029)
(-1.10743 -0.495375 0.167758)
(-1.13234 -0.503061 0.192899)
(-1.11247 -0.505482 0.215864)
(-1.04939 -0.501835 0.238723)
(-0.944105 -0.490971 0.260599)
(-0.795626 -0.467729 0.287202)
(-0.641544 -0.43271 0.326705)
(-0.399213 -0.380718 0.394828)
(-0.166767 -0.29114 0.481481)
(0.0329365 -0.149584 0.486537)
(0.330733 -0.158264 0.429369)
(0.333616 -0.218697 0.380596)
(0.204562 -0.126951 0.490576)
(0.271297 -0.00174152 0.76978)
(0.282278 0.0479717 1.03481)
(0.267654 0.0830069 1.14349)
(0.250025 0.135454 1.09109)
(0.21305 0.1242 0.952015)
(0.143466 0.121305 0.699548)
(0.0410264 0.184961 0.400808)
(0.175197 0.511474 0.422926)
(0.425117 0.514695 0.372714)
(0.613034 0.536458 0.373761)
(0.85552 0.495479 0.350544)
(1.01274 0.415984 0.31751)
(1.07725 0.323307 0.274497)
(1.06321 0.256025 0.234749)
(1.01458 0.211385 0.198835)
(1.03389 0.15879 0.167192)
(1.04643 0.119134 0.14426)
(0.986814 0.0931387 0.0906499)
(0.88131 0.0423902 0.0679168)
(0.715246 -0.0228556 0.0543531)
(0.469725 -0.110032 0.0206889)
(0.241736 -0.216978 -0.0223736)
(0.102194 -0.623654 -0.110912)
(0.178497 -0.385297 -0.0794628)
(-0.179768 -0.172875 0.00587592)
(-0.100384 -0.396315 -0.0409527)
(-0.109579 -0.321368 -0.0675508)
(-0.111782 -0.351056 -0.0758353)
(-0.108933 -0.31552 -0.0664264)
(-0.0773486 -0.246887 -0.062962)
(-0.142314 -0.20048 -0.0377854)
(-0.224413 0.146862 0.149497)
(-0.14586 0.444381 0.138778)
(-0.0501337 0.577322 0.0795117)
(0.0225322 0.64459 0.0759765)
(0.10598 0.668635 0.158153)
(0.201033 0.710881 0.274506)
(0.297534 0.745521 0.329177)
(0.384962 0.742492 0.364568)
(0.465016 0.682703 0.373094)
(0.531461 0.54802 0.370317)
(0.582364 0.330999 0.334734)
(0.56312 0.00869998 0.259752)
(0.383115 -0.327805 0.250487)
(0.284029 -0.326328 0.315244)
(0.21915 -0.280129 0.325051)
(0.152675 -0.188597 0.332903)
(0.144809 0.00978293 0.308885)
(0.289513 0.0108485 0.335654)
(0.448747 -0.155845 0.328527)
(0.59875 -0.253312 0.341164)
(0.637603 -0.342597 0.350765)
(0.61844 -0.435002 0.352844)
(0.47316 -0.540737 0.335373)
(0.104965 -0.56779 0.319852)
(-0.171944 -0.302606 0.305149)
(-0.0451568 -0.129833 0.355891)
(0.226002 -0.147304 0.237793)
(0.282401 -0.397481 0.072632)
(0.00924152 -0.512916 0.236091)
(-0.139692 -0.741382 -0.137799)
(0.206577 -0.716237 -0.478543)
(0.304237 -0.387099 -0.175495)
(0.331363 -0.375801 0.0949106)
(0.3428 -0.549919 0.187408)
(0.323864 -0.892009 0.122612)
(0.525694 -0.870678 0.0654933)
(0.601736 -0.688864 0.0981436)
(0.566315 -0.534603 0.139247)
(0.496631 -0.39196 0.189644)
(0.329826 -0.226626 0.246398)
(0.351373 -0.341256 0.196292)
(0.412825 -0.371605 0.143185)
(0.493499 -0.358834 0.0816076)
(0.597116 -0.288043 -0.0541993)
(0.847855 0.200911 -0.112638)
(0.896907 0.476126 -0.0174296)
(0.84381 0.671126 0.0547284)
(0.742725 0.766334 0.0967102)
(0.609565 0.78896 0.142858)
(0.459177 0.75965 0.157505)
(0.293307 0.699955 0.161082)
(0.122604 0.637959 0.0962964)
(-0.0460181 0.595463 0.0534699)
(-0.166354 0.534007 0.0680696)
(-0.29464 0.414863 0.136509)
(-0.408083 0.176588 0.168612)
(-0.285137 -0.152169 0.00651237)
(-0.396981 -0.0830616 0.0420947)
(-0.47771 -0.0190156 0.0716422)
(-0.541056 0.100936 0.116446)
(-0.533203 0.0659501 0.091738)
(-0.494632 -0.0683962 0.0215875)
(-0.45684 -0.126151 0.0111297)
(-0.392986 -0.179035 -0.011928)
(-0.298146 -0.233516 -0.0273498)
(-0.190207 -0.264465 -0.0410967)
(-0.144194 -0.240967 -0.0340727)
(-0.19674 -0.209438 -0.0283309)
(-0.182276 -0.353482 -0.0463176)
(-0.122801 -0.348073 -0.0522452)
(-0.0999299 -0.366035 -0.0801087)
(-0.0768792 -0.402204 -0.115423)
(-0.0471501 -0.581415 -0.231452)
(-0.0847148 -0.521381 -0.163906)
(-0.0984093 -0.627619 -0.129383)
(-0.145214 -0.626594 -0.0795985)
(-0.1857 -0.548944 -0.0640007)
(-0.284391 -0.367011 -0.0274306)
(-0.265526 0.14455 0.111145)
(-0.113343 0.375247 0.269052)
(-0.0156739 0.464413 0.408471)
(0.0605129 0.471444 0.537385)
(0.133098 0.412812 0.612867)
(0.185216 0.306599 0.6466)
(0.235905 0.159211 0.622285)
(0.225468 -0.0104322 0.524113)
(0.0931038 -0.129172 0.418913)
(-0.0201243 -0.0949807 0.432936)
(-0.0382407 0.0271076 0.409661)
(-0.0352626 0.148246 0.41305)
(0.0389523 0.252345 0.351924)
(0.201379 0.138255 0.366944)
(0.156494 0.27809 0.44037)
(-0.0654441 0.158767 -0.103767)
(-0.176326 -0.0657215 -0.635614)
(-0.181741 -0.303467 -0.526845)
(-0.169097 -0.340873 -0.295927)
(-0.145982 -0.299339 -0.0914442)
(-0.0624711 -0.582608 -0.104183)
(-0.0284823 -0.85968 -0.0924445)
(0.00183951 -1.01743 -0.0906741)
(0.032105 -1.14191 -0.100514)
(0.0653536 -1.22588 -0.114855)
(0.095958 -1.27895 -0.128855)
(0.122731 -1.30589 -0.140867)
(0.146863 -1.31488 -0.152947)
(0.167878 -1.31334 -0.165454)
(0.186176 -1.30481 -0.176242)
(0.201762 -1.29078 -0.184711)
(0.215607 -1.27164 -0.189829)
(0.227856 -1.24704 -0.192493)
(0.239045 -1.21562 -0.191264)
(0.248583 -1.17605 -0.185984)
(0.254313 -1.12607 -0.175082)
(0.251413 -1.06308 -0.158371)
(0.19451 -0.99964 -0.138478)
(0.139581 -0.914351 -0.122273)
(0.164089 -0.829985 -0.086581)
(0.187335 -0.729104 -0.0877902)
(0.20346 -0.560152 -0.0876934)
(0.246059 -0.4428 -0.0840995)
(0.0717009 -0.0306977 -0.0949542)
(0.365737 -0.298561 0.0439895)
(0.245412 -0.551225 -0.0565827)
(0.285758 -0.0947916 -0.0265147)
(0.180399 -0.0370128 -0.146605)
(0.201647 -0.112782 -0.123633)
(0.194712 -0.119598 -0.0797078)