/*--------------------------------*- C++ -*----------------------------------*\
| =========                 |                                                 |
| \\      /  F ield         | OpenFOAM: The Open Source CFD Toolbox           |
|  \\    /   O peration     | Version:  v2012                                 |
|   \\  /    A nd           | Website:  www.openfoam.com                      |
|    \\/     M anipulation  |                                                 |
\*---------------------------------------------------------------------------*/
FoamFile
{
    version     2.0;
    format      ascii;
    class       volScalarField;
    location    "260";
    object      alphat;
}
// * * * * * * * * * * * * * * * * * * * * * * * * * * * * * * * * * * * * * //

dimensions      [1 -1 -1 0 0 0 0];


internalField   nonuniform List<scalar> 
18258
(
0.00485118
0.00210747
0.00172566
0.00149451
0.00099113
0.00162139
0.00225224
0.00268176
0.00281413
0.00279089
0.00289027
0.00487786
0.00684603
0.00846164
0.00888888
0.00887405
0.00805433
0.00769054
0.00834534
0.0102683
0.00864123
0.00553412
0.00663331
0.00766203
0.0083292
0.00737327
0.00595997
0.00552125
0.00499913
0.00416658
0.00349163
0.00237529
0.00175454
0.00162803
0.00147461
0.00168057
0.00182996
0.00195046
0.00199483
0.00202633
0.00201234
0.00200075
0.00194661
0.00191405
0.00185848
0.00153954
0.00187357
0.00189864
0.00207819
0.00287786
0.00309532
0.00260529
0.00288454
0.00257337
0.00169602
0.00194142
0.00210742
0.00215277
0.002125
0.00203672
0.00200696
0.00198176
0.00194984
0.00191196
0.00188888
0.00190783
0.00192766
0.00190679
0.00181319
0.00173736
0.00161465
0.00149162
0.00140042
0.00132976
0.00127648
0.00121732
0.00115083
0.0010109
0.000936936
0.00124056
0.00155735
0.00166391
0.00235824
0.00287503
0.00289423
0.00216669
0.00154425
0.0016026
0.00178146
0.0017992
0.00152474
0.00181241
0.0020526
0.00212745
0.00221696
0.00247796
0.00282261
0.00275252
0.00245157
0.00225949
0.00220751
0.00253208
0.00240902
0.00312486
0.00314595
0.00274104
0.00253682
0.00285401
0.00368089
0.00395755
0.00307354
0.00288725
0.00283058
0.00279424
0.00252759
0.00261647
0.00237653
0.00214147
0.00233298
0.00281897
0.00267373
0.00292008
0.00302608
0.0028391
0.00328975
0.00379356
0.0037391
0.00299228
0.00244015
0.00227466
0.00229194
0.00140178
0.0015137
0.00163079
0.00167075
0.00169885
0.00172267
0.00183688
0.00183273
0.00180582
0.00180183
0.00183325
0.00101038
0.0010947
0.00112193
0.00112978
0.00107313
0.00106204
0.00104216
0.00102603
0.000967654
0.000925949
0.00110787
0.00124393
0.00135475
0.00148429
0.00167756
0.0019141
0.00216279
0.00241418
0.00258053
0.00262804
0.00267594
0.00257916
0.00248157
0.00257014
0.002585
0.00256819
0.00253364
0.00249001
0.0024311
0.00232322
0.00244795
0.00244128
0.00229362
0.00196567
0.00200969
0.00200617
0.0020585
0.002048
0.00206876
0.0020395
0.00200524
0.0019087
0.00177427
0.00147739
0.00143788
0.00145651
0.00187103
0.00227198
0.00351012
0.00428309
0.00497458
0.00532483
0.00570102
0.00461053
0.00513025
0.00395319
0.0035496
0.00451219
0.00590421
0.00336811
0.00183783
0.003485
0.0030898
0.00223987
0.00199335
0.0020536
0.00205863
0.00236699
0.00272925
0.00302866
0.00317398
0.00330258
0.00340514
0.003518
0.00366124
0.00370011
0.00357457
0.00302555
0.00364663
0.00296033
0.00345491
0.00311791
0.00210113
0.00224202
0.00237316
0.0021698
0.00210952
0.00202096
0.00181601
0.00223215
0.00289588
0.00336133
0.00384231
0.00512192
0.00473866
0.00454512
0.00351993
0.00340354
0.00176758
0.00252216
0.00261125
0.00293423
0.00195137
0.00177906
0.00168739
0.00223982
0.00259583
0.0030648
0.00339953
0.00403836
0.00312931
0.00357043
0.00322779
0.00224695
0.00216492
0.00310262
0.00334394
0.00275213
0.0024617
0.00308676
0.00292018
0.00207101
0.00166239
0.00255278
0.00264446
0.00189475
0.00470613
0.005017
0.00480304
0.00584968
0.00733126
0.00834536
0.00776889
0.00688952
0.00769743
0.00612312
0.00593072
0.00631838
0.00530122
0.00370658
0.00380064
0.0039302
0.00403612
0.00433339
0.0046039
0.0049344
0.00524831
0.00477056
0.00396083
0.0029972
0.00206153
0.00203325
0.00202294
0.00181657
0.0026923
0.00407401
0.00404671
0.00230003
0.00134072
0.00151602
0.00171164
0.0016948
0.00123004
0.000925657
0.00159459
0.00182341
0.00185295
0.001807
0.00170616
0.00178292
0.00286325
0.00441106
0.00484689
0.00502016
0.00518416
0.00530008
0.00536468
0.00538528
0.00539677
0.00541076
0.00542296
0.00544146
0.00542438
0.00530855
0.00466891
0.00293496
0.00171549
0.0015936
0.00175878
0.00189019
0.00200491
0.00170587
0.00104301
0.00166602
0.00213329
0.00245203
0.00247296
0.00230797
0.00223891
0.0035304
0.00469398
0.00553274
0.00570246
0.00577784
0.00571409
0.00570541
0.00558032
0.00554073
0.00485782
0.00347707
0.00380171
0.00408188
0.00412892
0.00422451
0.00436804
0.00426673
0.00403034
0.00589153
0.00679771
0.00688456
0.007031
0.00694777
0.00682768
0.00651731
0.00616272
0.00518799
0.00389051
0.00245467
0.00250581
0.0026675
0.0026419
0.00229975
0.00242324
0.00262983
0.00265619
0.00274316
0.00307625
0.00349415
0.00333319
0.00286836
0.00243592
0.00226821
0.00222071
0.00213078
0.00159598
0.00161972
0.00157438
0.00160024
0.00214974
0.00255867
0.00295075
0.00418531
0.0037336
0.00303641
0.00481407
0.00493228
0.00529837
0.00585287
0.00599789
0.00664468
0.00462716
0.00417068
0.0042842
0.00349946
0.00323923
0.00327379
0.00328613
0.00306282
0.00335222
0.00332272
0.00320269
0.00353599
0.00389631
0.00513792
0.00622591
0.00656929
0.00676783
0.00684904
0.00682316
0.00668981
0.00673145
0.00591154
0.00590446
0.00565509
0.00549274
0.00543531
0.00516596
0.00591447
0.00613961
0.0062145
0.00636929
0.00661083
0.00643229
0.00623244
0.00608062
0.00597083
0.00585611
0.00591883
0.0060283
0.00614524
0.00630984
0.00653015
0.00656715
0.00633883
0.00616654
0.00604893
0.00593862
0.00594344
0.00604177
0.00615666
0.00631995
0.0065288
0.00641306
0.00625078
0.00610646
0.00598824
0.00588435
0.00567869
0.00581534
0.00596581
0.00608988
0.00617042
0.00533128
0.00569869
0.00560077
0.00507098
0.0047465
0.00360457
0.00390088
0.00411333
0.00448014
0.00497287
0.00506949
0.00425394
0.00364548
0.00355235
0.00352368
0.00360667
0.00363654
0.00365418
0.00412904
0.00621891
0.00626112
0.00627864
0.00628083
0.00537156
0.00522003
0.00486396
0.00888729
0.00827386
0.00716869
0.00591008
0.00316909
0.00271657
0.00321819
0.00391348
0.00437517
0.00482854
0.00320559
0.00198525
0.0023134
0.0023984
0.00233958
0.00216262
0.00180186
0.00166328
0.00150961
0.00162462
0.00287706
0.00459233
0.00517378
0.00522962
0.00517861
0.00507869
0.00495716
0.00478776
0.00471952
0.00594194
0.00803174
0.00908472
0.00905095
0.0077757
0.00633232
0.00356441
0.00182647
0.00132865
0.00145856
0.00160057
0.00188332
0.00168253
0.00139662
0.00153131
0.00145627
0.00295471
0.00510854
0.00652217
0.00774247
0.00761311
0.00661142
0.00541606
0.00513839
0.0052587
0.00533835
0.00540667
0.0054768
0.00552462
0.00549294
0.00499859
0.00308713
0.00184294
0.00163744
0.00176059
0.00206338
0.00219252
0.00221503
0.00218443
0.00189395
0.00313285
0.00497515
0.00316396
0.00172599
0.00186467
0.00185089
0.00326498
0.0032603
0.00319052
0.00496464
0.00525005
0.00523734
0.00492039
0.00469667
0.00278039
0.00315588
0.00316662
0.00318352
0.00323584
0.00163454
0.00178169
0.00183715
0.00197774
0.00172822
0.00219619
0.000568333
0.000787722
0.000915193
0.000995318
0.00107242
0.00105206
0.0020128
0.0020424
0.00194886
0.00189742
0.00240826
0.00258444
0.00264154
0.00243301
0.00224506
0.00238972
0.00239493
0.00225694
0.0021379
0.0022167
0.0022183
0.00212591
0.00180823
0.00169441
0.0018601
0.00184004
0.00182528
0.00327776
0.00327221
0.003097
0.00508892
0.00500677
0.0056084
0.00557185
0.00556496
0.00554184
0.00560201
0.0056335
0.00565732
0.0056851
0.0056745
0.00561925
0.00781182
0.00552875
0.00482411
0.00278954
0.00268696
0.00189757
0.00166307
0.00195827
0.00209442
0.0022706
0.0022192
0.00233954
0.00233665
0.0024795
0.00230142
0.00204356
0.00312993
0.00334376
0.00326601
0.00333071
0.00325254
0.00323351
0.00320976
0.0031641
0.00310905
0.00185117
0.0018158
0.00212626
0.00223193
0.00239817
0.00241993
0.00247238
0.00234481
0.00206221
0.00199627
0.00229903
0.00226809
0.00231216
0.00218002
0.00217104
0.00193414
0.00198305
0.00399749
0.00737309
0.00379803
0.00421822
0.00382225
0.00434655
0.00380768
0.00328437
0.00336142
0.00296096
0.00308858
0.00323957
0.00329806
0.0034661
0.0040856
0.00393344
0.00345278
0.00335271
0.00328682
0.00309929
0.00278973
0.00292215
0.00294828
0.00301143
0.00334688
0.00383852
0.00430237
0.0052263
0.00507151
0.00444388
0.00406276
0.00425993
0.00433463
0.00545507
0.00509589
0.00506615
0.00534464
0.00529222
0.00502244
0.00475931
0.0045941
0.00394525
0.00401019
0.00458872
0.00444026
0.00457582
0.00449573
0.00467385
0.00475824
0.00456689
0.00424476
0.00446284
0.00445398
0.00494559
0.00480962
0.00446209
0.00408193
0.00436369
0.00431134
0.00497935
0.00468687
0.00438373
0.00403602
0.00386656
0.00438783
0.00430753
0.00488336
0.0050252
0.00502746
0.00438369
0.00428161
0.00509069
0.00489715
0.00473139
0.00492794
0.00408202
0.00419793
0.00517019
0.00527808
0.00500805
0.00418203
0.00424552
0.0036403
0.00428044
0.00532667
0.00503071
0.00412391
0.00342288
0.00478779
0.00503708
0.00532791
0.00503616
0.00548359
0.00590718
0.0048166
0.00523994
0.00684397
0.00523122
0.00607008
0.00620411
0.00624008
0.00624264
0.00626594
0.00629619
0.00663172
0.00644812
0.0041034
0.00490602
0.00476785
0.00398976
0.00339454
0.00373826
0.00402585
0.00408381
0.00418727
0.00434644
0.00427133
0.00412765
0.00604537
0.00690014
0.00704816
0.00718777
0.00707059
0.0068978
0.00649722
0.00600798
0.00499255
0.00372388
0.0023252
0.00236998
0.00252521
0.00250073
0.00216879
0.00163592
0.00107537
0.0015958
0.00165108
0.00155622
0.00141994
0.00125591
0.00130331
0.00236936
0.00449332
0.00626547
0.00692859
0.00746779
0.00804106
0.00859348
0.00901444
0.00931974
0.00952445
0.00964794
0.00967098
0.00947871
0.00860228
0.00821643
0.00773993
0.00735013
0.00681582
0.00640785
0.00724422
0.0079605
0.00840376
0.00890147
0.0091326
0.00903713
0.00785229
0.00760902
0.00875305
0.0107868
0.00916799
0.0115236
0.0135486
0.0105494
0.0094879
0.00948407
0.0106011
0.0108062
0.0104198
0.00981702
0.00912508
0.0082518
0.00868324
0.0090771
0.00945893
0.00981043
0.0107804
0.0109524
0.0108731
0.0107083
0.0104847
0.0101587
0.0096462
0.00894109
0.00814794
0.00736945
0.00646538
0.00456759
0.00220953
0.00247845
0.00244118
0.00255147
0.00251846
0.00118569
0.00130979
0.00132695
0.00133602
0.00126086
0.00143549
0.00207604
0.00337599
0.00242843
0.0020002
0.00137609
0.00161367
0.00269495
0.00457384
0.00516907
0.00527353
0.00535379
0.00684764
0.00790726
0.00841674
0.008806
0.00909081
0.00897501
0.00867763
0.00815238
0.00748899
0.00724096
0.0068348
0.00648006
0.0062884
0.00609339
0.00571552
0.00447722
0.00431435
0.00449715
0.00444116
0.00425055
0.00454292
0.00470784
0.00470453
0.00475742
0.00480368
0.00494608
0.00511357
0.00525939
0.00533606
0.00536472
0.00537393
0.00538518
0.00539405
0.0054106
0.00539226
0.00527412
0.00463096
0.0028955
0.00168989
0.00156185
0.00171238
0.00181071
0.00185264
0.00164508
0.00105904
0.00164564
0.00213014
0.00218508
0.00239808
0.00247445
0.00262401
0.00292233
0.00337649
0.00348395
0.00309134
0.00292766
0.00286524
0.00279258
0.0023882
0.00297751
0.00328395
0.00327764
0.00324668
0.00350935
0.00431892
0.00414854
0.00365809
0.00361727
0.00358073
0.003239
0.00319076
0.00348471
0.00352315
0.00365461
0.0042854
0.00513944
0.00476793
0.00434264
0.00416364
0.00384512
0.00338642
0.00306115
0.00376157
0.00308606
0.00163142
0.00138685
0.00137765
0.00138376
0.00133645
0.00158531
0.00166854
0.00169116
0.0015725
0.00174479
0.00194185
0.00187914
0.00212369
0.00209626
0.00187762
0.00186016
0.00201043
0.00212015
0.00217562
0.00223549
0.00366538
0.00378693
0.00293123
0.00424248
0.00488515
0.00484216
0.00513791
0.00422741
0.00379252
0.00450256
0.00520051
0.00596131
0.0047115
0.00445827
0.0045597
0.00209371
0.0011018
0.00155424
0.00192999
0.00215271
0.00208956
0.00197453
0.00167015
0.0029647
0.00304487
0.00483396
0.0054238
0.00549589
0.00546286
0.00548578
0.00596775
0.00684241
0.00784862
0.00815835
0.00804556
0.00768371
0.00700881
0.00633165
0.00629668
0.00608244
0.00592625
0.0058812
0.00510498
0.00451591
0.0048411
0.00475993
0.00492128
0.00499695
0.00505206
0.0051082
0.00520146
0.00531394
0.00541653
0.0054865
0.00553309
0.00557212
0.0056118
0.00565151
0.00569437
0.00571734
0.00566281
0.00511746
0.00306837
0.00182874
0.00166773
0.00177941
0.00209143
0.00220219
0.00236676
0.00210101
0.00110643
0.00130084
0.00226098
0.0025082
0.00232098
0.00217218
0.00213339
0.00178717
0.00323924
0.00319762
0.00502198
0.0056491
0.00572881
0.00571342
0.00566961
0.00561971
0.0055704
0.00552972
0.0054969
0.00546209
0.00541324
0.00535392
0.00529934
0.00524379
0.005149
0.00501496
0.00485701
0.00504759
0.00522992
0.00545514
0.0056914
0.00580574
0.00570107
0.00554933
0.00548761
0.0055259
0.00557502
0.00562499
0.00566983
0.00569222
0.00562788
0.00530272
0.00497323
0.00314881
0.0031902
0.00156853
0.00174223
0.00201028
0.00207621
0.00225447
0.00224308
0.00176261
0.00137414
0.00155071
0.00144955
0.00259014
0.00284896
0.0031604
0.00312961
0.0016988
0.00174261
0.00181086
0.00204231
0.00189866
0.00183516
0.00453744
0.00434644
0.00454784
0.00557822
0.00480598
0.00331749
0.00363303
0.00505584
0.00533284
0.00322284
0.00241843
0.0026805
0.00339501
0.00499942
0.00506212
0.0048099
0.00478251
0.00348921
0.00429025
0.00516575
0.00502483
0.00391382
0.00269612
0.00200988
0.0009768
0.00185783
0.00158811
0.00389452
0.00431048
0.00426096
0.00465928
0.00495031
0.00500081
0.00485918
0.00430872
0.00439483
0.00443841
0.00505789
0.00508039
0.00429989
0.00362777
0.00294592
0.0029725
0.00303019
0.0033577
0.00420405
0.00396103
0.00347186
0.00336657
0.00329387
0.00309805
0.00279567
0.0024519
0.00246899
0.00229814
0.00222413
0.00350606
0.00466702
0.00550355
0.00566182
0.00571922
0.00563163
0.00559203
0.00543243
0.00535008
0.00464819
0.00593719
0.0062752
0.00605479
0.00609895
0.00613646
0.00618278
0.00618335
0.00606683
0.00521314
0.00311314
0.00203344
0.00229522
0.00247727
0.0023261
0.00231307
0.00246544
0.00233957
0.00205506
0.00332959
0.00325456
0.00520409
0.00589382
0.00602044
0.00602826
0.00600468
0.00598529
0.00599351
0.00630869
0.00616361
0.00624111
0.00656634
0.00657873
0.00666038
0.00625455
0.00617605
0.00612617
0.00609292
0.00603812
0.0058904
0.00521298
0.0050544
0.00573943
0.00591563
0.00599335
0.00604693
0.00611105
0.00619554
0.00644051
0.00662182
0.00668988
0.00642641
0.00633158
0.00618605
0.00597712
0.00592713
0.0059164
0.00591077
0.00588138
0.00572827
0.00504202
0.00324175
0.00332158
0.00197594
0.00198871
0.00229053
0.00240565
0.00236262
0.00218786
0.00213308
0.00367572
0.00418361
0.00444901
0.00479394
0.00457939
0.00455317
0.00520338
0.00503554
0.00448654
0.00466957
0.00418954
0.00399092
0.00386215
0.00388501
0.00203947
0.00220078
0.00229568
0.00225771
0.00215895
0.00192571
0.00176597
0.00322304
0.00319952
0.00315815
0.00187769
0.00183647
0.00216353
0.00210101
0.00192193
0.00163833
0.00179613
0.00277418
0.0031027
0.0048118
0.00498408
0.00533445
0.00570523
0.00584644
0.00588562
0.00590981
0.00593668
0.00599307
0.00605894
0.00607627
0.00607141
0.00611529
0.00610517
0.00610641
0.00607408
0.00603724
0.00599445
0.00594882
0.0058735
0.00571761
0.00534314
0.00497562
0.00561019
0.00566177
0.00576695
0.0058756
0.00592169
0.00592888
0.00590763
0.00586524
0.0058152
0.00575717
0.00575647
0.0059265
0.00596699
0.00599689
0.00597931
0.0059585
0.00595094
0.00592357
0.00587989
0.00577013
0.0056603
0.00561379
0.00552001
0.00566776
0.00573329
0.00574341
0.00579971
0.00588986
0.00591647
0.00591643
0.00587298
0.00583586
0.00578789
0.00570999
0.00560849
0.00526754
0.00533576
0.00542614
0.00554433
0.00565858
0.00575109
0.00580333
0.00580738
0.0057545
0.00571905
0.00572061
0.00567216
0.00569759
0.0057235
0.00569418
0.00569041
0.00569429
0.00562915
0.00551072
0.00534612
0.00517208
0.00502812
0.00495457
0.00483505
0.00522637
0.00537706
0.00551181
0.00563132
0.0057387
0.00584561
0.00587743
0.0058642
0.00579751
0.00575933
0.00575721
0.00570154
0.00569901
0.0057528
0.00575551
0.00578733
0.00584437
0.00582971
0.00575231
0.0055508
0.00535418
0.00518279
0.00501856
0.00484375
0.00479535
0.00487401
0.00480831
0.00487543
0.00504502
0.0052582
0.00544281
0.00556108
0.00559896
0.00563437
0.00568606
0.00568061
0.00564984
0.00563275
0.0055629
0.0055019
0.00542722
0.00526504
0.0050588
0.00487735
0.00481996
0.00491812
0.00501548
0.00492463
0.00457582
0.0047586
0.00493277
0.00510571
0.00534982
0.00563025
0.00575155
0.00579428
0.00576553
0.00574291
0.00573948
0.00568856
0.0056707
0.0057176
0.00572195
0.00574491
0.00578157
0.00574716
0.00564818
0.00530494
0.00489411
0.00469669
0.00457963
0.00442371
0.00494938
0.00505261
0.00492833
0.00484426
0.00497455
0.00512638
0.00528438
0.00539012
0.00543293
0.00549276
0.00557111
0.0056089
0.00555331
0.00548837
0.00540836
0.00536674
0.00536507
0.00533835
0.00523697
0.00511737
0.00497918
0.00514699
0.00524455
0.00515038
0.00466584
0.00474311
0.00486103
0.00493094
0.00531677
0.00565036
0.0057268
0.00572768
0.00569102
0.00566696
0.00566697
0.00563728
0.00558181
0.00557202
0.00556792
0.00563495
0.00572299
0.00577506
0.00580191
0.00555321
0.00509157
0.00501089
0.00479934
0.00470133
0.00521975
0.00527874
0.00515814
0.00504596
0.00528928
0.0053927
0.00542089
0.00539886
0.00534272
0.00530613
0.00537484
0.00548277
0.00540099
0.00505005
0.00473818
0.00489804
0.00493738
0.00492553
0.00485911
0.00474735
0.00450452
0.00503
0.00554106
0.00558262
0.00503939
0.00504762
0.00488919
0.00455392
0.00500212
0.00523707
0.00528735
0.00526355
0.00517929
0.00498043
0.00525993
0.00550651
0.00545904
0.0049416
0.00320758
0.00325167
0.00327494
0.00327779
0.00323478
0.00322277
0.0031758
0.00315152
0.00307853
0.00300412
0.00293348
0.00312893
0.00329759
0.0035235
0.00354248
0.00363596
0.00347978
0.00329424
0.00307621
0.00239478
0.0030387
0.0036248
0.00385216
0.00414337
0.00420305
0.00484992
0.00510395
0.00524103
0.00513993
0.00412365
0.00349791
0.00279505
0.00181766
0.00113244
0.00132904
0.00138207
0.00145094
0.00177343
0.00328744
0.0016729
0.00232348
0.00181597
0.00313357
0.0016486
0.00103031
0.000684398
0.000875304
0.00104335
0.00105543
0.00101092
0.000843649
0.000664648
0.000679509
0.000633077
0.00067265
0.000602362
0.000689589
0.000642129
0.000896777
0.00134717
0.00152689
0.00156038
0.00126101
0.00142157
0.0011876
0.00136933
0.0012225
0.00133223
0.00127771
0.00156274
0.00171262
0.00163978
0.00164451
0.00143919
0.00100676
0.00116691
0.000916876
0.00110079
0.000842437
0.00108809
0.00093311
0.00121251
0.00124999
0.00124647
0.00120025
0.000917069
0.00108747
0.000856192
0.00105411
0.000864112
0.000924409
0.000770702
0.00111913
0.00114047
0.00105051
0.00112059
0.00126018
0.00135333
0.00148973
0.00140595
0.00159721
0.00153845
0.00155456
0.00147188
0.00143084
0.00139804
0.00140075
0.00137762
0.00138506
0.00142959
0.00143166
0.00143716
0.00148244
0.00146054
0.00142531
0.00140417
0.00124738
0.00100638
0.00175298
0.00180783
0.00183457
0.00183403
0.00179261
0.0017728
0.00171239
0.00169624
0.00164369
0.00161252
0.00154173
0.0014831
0.00141652
0.00159189
0.00089052
0.00101094
0.00106709
0.00109843
0.00112037
0.0011303
0.00113846
0.00113198
0.00111792
0.00109017
0.00108062
0.00105049
0.00134418
0.00152897
0.00159824
0.00161685
0.00151576
0.00144345
0.0031562
0.00381924
0.00581237
0.00593962
0.00445682
0.00444406
0.00153884
0.00162288
0.00110994
0.00155981
0.00160838
0.00159215
0.00150428
0.00108526
0.00162886
0.00113491
0.00153154
0.00114994
0.00142895
0.00118398
0.00169153
0.00215814
0.00208515
0.00189032
0.00130194
0.00108898
0.00109581
0.00093844
0.00102788
0.000837604
0.00101905
0.000853773
0.00126089
0.00178426
0.00197143
0.00201069
0.00158523
0.00218667
0.00164389
0.00237959
0.00188846
0.00232857
0.001868
0.00216222
0.00267528
0.00268725
0.0026236
0.0021148
0.00169555
0.00190284
0.00168624
0.00194165
0.00280673
0.00183979
0.00278997
0.00115313
0.00157176
0.00162005
0.00159788
0.00150671
0.00101538
0.00258611
0.0013677
0.0024376
0.00157864
0.00253842
0.00184353
0.00245008
0.00293414
0.00307125
0.00306206
0.0024997
0.00225686
0.00233888
0.00187077
0.00224608
0.00166909
0.00241659
0.0013592
0.00176234
0.00194865
0.00205057
0.0020591
0.00169286
0.00334205
0.00209802
0.00316661
0.00220132
0.00282028
0.00226009
0.00247286
0.00292009
0.00290202
0.00287782
0.00244048
0.00197489
0.00260664
0.00185998
0.0553406
0.127937
0.0508858
0.129301
0.0585527
0.0831105
0.081899
0.0820762
0.0823858
0.0618661
0.134968
0.159466
0.166299
0.168311
0.167048
0.269958
0.220102
0.330723
0.214383
0.126114
0.0546446
0.0753756
0.194622
0.321455
0.482365
0.612096
0.417095
0.431758
0.275514
0.27166
0.255748
0.206853
0.126675
0.0635248
0.010934
0.0119663
0.0171028
0.022759
0.0179469
0.0110071
0.00217196
0.00224171
0.0022928
0.00232524
0.00231874
0.00227185
0.00231116
0.0021866
0.00206033
0.00230739
0.00251574
0.0026684
0.00315101
0.00348513
0.00314182
0.00344444
0.00365036
0.0038177
0.00395595
0.00416229
0.00439492
0.00459971
0.00461057
0.00422422
0.00359983
0.00292765
0.00246036
0.00233086
0.00218882
0.0019302
0.00176575
0.00165354
0.00159931
0.00157688
0.00162059
0.0017712
0.00190187
0.00194766
0.00190933
0.00187431
0.00184376
0.00164178
0.00191958
0.00263312
0.00265363
0.00454625
0.00523854
0.00534753
0.0053551
0.00474667
0.00303201
0.00303866
0.00305422
0.0031124
0.00312467
0.00313291
0.00312976
0.00311924
0.00310114
0.00306766
0.00305072
0.00300131
0.00295958
0.00285516
0.00285979
0.00289588
0.00292474
0.0028765
0.00288782
0.0028277
0.00368697
0.00492493
0.00555236
0.00580307
0.00601812
0.00584091
0.00809538
0.00692582
0.00486347
0.00478435
0.00472523
0.005604
0.00564245
0.00509793
0.00511904
0.00466923
0.00291553
0.00290921
0.00291124
0.00311574
0.00317764
0.00328494
0.00331486
0.00334012
0.00335577
0.00334773
0.00334524
0.00331403
0.00329138
0.00321592
0.00319091
0.00318012
0.00175321
0.00191374
0.00198589
0.00199959
0.00202958
0.00201759
0.00200621
0.00198212
0.00196692
0.00193385
0.00189602
0.00183904
0.00172831
0.00157401
0.00173198
0.00293804
0.00293664
0.00478454
0.00540216
0.00544213
0.00605494
0.0057477
0.00544369
0.00584008
0.00526614
0.00522383
0.00472745
0.00293601
0.00297619
0.00176703
0.00175226
0.00204945
0.00199351
0.00213082
0.00218971
0.0021962
0.00222661
0.002255
0.00229085
0.0023491
0.00236586
0.00232759
0.00231994
0.00218447
0.00188722
0.0019094
0.00225168
0.00236274
0.00219449
0.00215732
0.00214107
0.00208835
0.00204855
0.00201068
0.00203681
0.00219306
0.00218983
0.0021503
0.00204568
0.00199123
0.00172529
0.00166579
0.00291204
0.00295946
0.00489734
0.00500064
0.00496142
0.00572155
0.00639085
0.00726902
0.00620586
0.00504751
0.00527304
0.00603508
0.00449654
0.00376847
0.00224207
0.00167616
0.00210285
0.00192564
0.00200863
0.00208108
0.00184838
0.00198686
0.0018373
0.00166974
0.00166046
0.00165863
0.00169947
0.00171677
0.00174796
0.00175225
0.00179507
0.00179101
0.0017958
0.00181764
0.00182636
0.00201784
0.00219232
0.0018456
0.00156483
0.00152527
0.00144036
0.00137155
0.00140501
0.00137092
0.00136244
0.00133733
0.00131454
0.00125437
0.00130701
0.00138685
0.0016224
0.00155256
0.00125489
0.00112128
0.000766308
0.0007819
0.000787309
0.000811488
0.000820423
0.000831376
0.000835484
0.00084913
0.000851811
0.00085616
0.000855845
0.000876863
0.000873888
0.000863818
0.000857338
0.000861423
0.000865321
0.000864687
0.00126627
0.00140993
0.00153971
0.00182859
0.00215144
0.00185232
0.00157026
0.00135366
0.000870107
0.00088312
0.000899264
0.000907577
0.000926945
0.000944531
0.000964174
0.000976515
0.000985787
0.000995432
0.00100564
0.00100964
0.00100712
0.000987571
0.000976087
0.00100079
0.00110001
0.00115767
0.00123172
0.00125966
0.00128327
0.00129484
0.00128899
0.00130265
0.00128761
0.0012856
0.00126401
0.00125488
0.00124628
0.00123528
0.00122154
0.00118717
0.00117583
0.00123698
0.00209583
0.00274198
0.00315729
0.00347733
0.0032209
0.00261909
0.00274556
0.00483025
0.00457695
0.00269534
0.00251906
0.00232818
0.00203901
0.00177018
0.00213698
0.00243955
0.00266845
0.00286893
0.0030522
0.00317652
0.00333655
0.00354571
0.00391544
0.00396185
0.00361371
0.00292784
0.00247799
0.0023142
0.00223587
0.0020994
0.00195017
0.00199902
0.00201344
0.00195356
0.00187921
0.00185819
0.00188905
0.00192853
0.00190547
0.00190473
0.00170165
0.00170101
0.00290654
0.0029608
0.00455435
0.0047988
0.00484538
0.00311513
0.00307243
0.00179459
0.00166666
0.00181819
0.00188745
0.00189139
0.00189915
0.00188949
0.0018566
0.00183243
0.00180437
0.00178144
0.00176116
0.00172617
0.00165956
0.00153281
0.0016701
0.00187277
0.00195585
0.0019776
0.00198808
0.00201961
0.00207103
0.00211229
0.0022079
0.00221769
0.00221676
0.00222455
0.00207924
0.0021443
0.00181478
0.00181216
0.00314096
0.0031324
0.00179947
0.00212486
0.00213932
0.00211484
0.0022768
0.0020835
0.00201746
0.00200667
0.00192169
0.00187644
0.00181612
0.00177993
0.00181454
0.00193
0.00186852
0.00165595
0.00159533
0.00178991
0.00172244
0.00142903
0.00122099
0.0011875
0.00113681
0.00110609
0.00115945
0.00120104
0.00122479
0.00125491
0.00126386
0.00131913
0.0012835
0.0013469
0.00142836
0.00149321
0.00177123
0.00191946
0.00173404
0.00170079
0.00167969
0.00167785
0.00168313
0.00161377
0.00160916
0.00157328
0.00155558
0.00150869
0.00148743
0.0014604
0.0014651
0.00148043
0.00162741
0.0041943
0.00534832
0.00556892
0.00951049
0.00384135
0.00392317
0.00768758
0.00318305
0.00478407
0.00512638
0.00536064
0.00559898
0.00512337
0.00650673
0.0045445
0.00506282
0.00527568
0.00461091
0.00173326
0.00198637
0.00228326
0.0020337
0.00179607
0.00122377
0.00131898
0.00136184
0.00139675
0.00141922
0.00144444
0.00147136
0.00149669
0.0015144
0.00151459
0.00146843
0.00141872
0.00130451
0.00126647
0.00131553
0.00136626
0.00119975
0.00112954
0.00114289
0.00116171
0.00117228
0.00117454
0.00118608
0.0011892
0.00120742
0.00119771
0.00120691
0.00118626
0.00119678
0.00118114
0.00114084
0.00108424
0.000988035
0.000964491
0.00138919
0.00147922
0.00155382
0.00176317
0.00203578
0.00217238
0.00194717
0.00179581
0.00172382
0.00191226
0.00191344
0.00347703
0.006674
0.00298872
0.00334818
0.00975579
0.00387977
0.00301637
0.00306193
0.00309413
0.00309854
0.00180059
0.00213258
0.00206788
0.00207636
0.0017611
0.00147861
0.00132617
0.00118573
0.000804059
0.000801408
0.000807457
0.000819808
0.000823644
0.000788399
0.000788304
0.000783791
0.00078202
0.000765404
0.000760759
0.000747246
0.000739034
0.0007196
0.00070905
0.000690561
0.000687437
0.000719065
0.00080088
0.000968244
0.00107599
0.0012241
0.00124583
0.00139923
0.00346006
0.00401635
0.00553471
0.00549326
0.0086669
0.00541385
0.00408887
0.00369216
0.00540341
0.00558243
0.00517186
0.00700726
0.00484796
0.0032109
0.00486386
0.00405074
0.00475617
0.00467723
0.00497057
0.00790526
0.0083283
0.00234145
0.002087
0.00219496
0.0024903
0.00295689
0.00272545
0.00310351
0.00310609
0.00240203
0.0015199
0.00484079
0.00583293
0.00469779
0.00565821
0.00872257
0.00350007
0.00341322
0.00302018
0.00252086
0.00229098
0.00226072
0.00252091
0.00301641
0.00755498
0.00808181
0.00747777
0.00745693
0.00676026
0.00740243
0.00923893
0.00919516
0.00813232
0.0076102
0.00789057
0.00490289
0.00302667
0.00352851
0.0039134
0.00522267
0.00538448
0.0113841
0.00385846
0.00426287
0.00432936
0.00579164
0.00560535
0.00991483
0.00419915
0.00452894
0.00596739
0.00797886
0.0147225
0.00536759
0.00565469
0.00813582
0.00825938
0.00754755
0.00545034
0.00493683
0.00538113
0.00405337
0.00396276
0.00338043
0.00499096
0.00672425
0.00531686
0.0051622
0.0043898
0.00390956
0.00400232
0.00415501
0.00345054
0.00340195
0.00392536
0.00291515
0.0028239
0.00298042
0.000828913
0.000424786
0.000434195
0.000445448
0.000454616
0.000464061
0.000470979
0.00047917
0.000482882
0.000483278
0.000484503
0.000512381
0.000507649
0.000491602
0.00044639
0.000509378
0.000808348
0.000808893
0.000508803
0.000448552
0.000804833
0.00128246
0.00151198
0.00178865
0.0018108
0.00156247
0.00135465
0.00083379
0.000820696
0.000497452
0.000580975
0.00063092
0.000559596
0.000624521
0.000578838
0.000613115
0.000619441
0.000573123
0.000569942
0.000572147
0.000567757
0.000557657
0.00054532
0.000530323
0.000518611
0.000512409
0.000507803
0.00049735
0.0004124
0.000384771
0.00046387
0.000740677
0.00074014
0.000693427
0.000652942
0.000618089
0.000601881
0.000597069
0.000593577
0.000603887
0.000623424
0.000628935
0.000634451
0.000683627
0.000662347
0.000707451
0.000663944
0.000709345
0.000665801
0.000612481
0.000514271
0.000530597
0.000855977
0.000865087
0.00139777
0.00159905
0.00181316
0.00182244
0.00203419
0.00214223
0.00181417
0.00188343
0.00215842
0.00201029
0.00179207
0.00179913
0.0016185
0.00162006
0.00143509
0.000896836
0.000884649
0.000555589
0.000539562
0.000643378
0.000632115
0.000703013
0.00075237
0.000752596
0.000750156
0.000731229
0.000724449
0.000637091
0.0006246
0.000625436
0.000606557
0.000602757
0.000629197
0.000687874
0.000808275
0.000977802
0.00106418
0.00110052
0.00105482
0.000944127
0.00069784
0.000629803
0.00109258
0.00113285
0.0020352
0.00482181
0.00225611
0.00428401
0.00309211
0.000768086
0.000856477
0.00109213
0.00122371
0.00132142
0.00137794
0.00126026
0.00105221
0.000792359
0.000654133
0.000975298
0.000843261
0.000951794
0.000831157
0.00107574
0.00124374
0.00120315
0.00121218
0.00102442
0.000834468
0.000883703
0.000793324
0.000874385
0.000732018
0.000880702
0.00079519
0.000999253
0.00100861
0.000987604
0.000936105
0.000712755
0.000747808
0.000627255
0.000680436
0.000610879
0.000631383
0.000598262
0.000697697
0.00080396
0.00077158
0.000768558
0.000631482
0.000494817
0.000546507
0.000472574
0.000534863
0.000415707
0.000503593
0.000422335
0.000546766
0.000563813
0.000567223
0.000564226
0.000459597
0.000540194
0.000661024
0.000693465
0.00069886
0.00066565
0.000513036
0.000793864
0.000716551
0.000874882
0.000756772
0.000828323
0.000754326
0.000879217
0.00112602
0.00117565
0.00118349
0.000960213
0.000954117
0.00174119
0.0965142
0.00156625
0.00185116
0.00190886
0.00190196
0.00157251
0.00153427
0.00190027
0.00140583
0.00199075
0.0012535
0.00212304
0.000809357
0.00123023
0.0013208
0.001318
0.00122496
0.000821776
0.00243088
0.119091
0.307989
0.33428
0.333731
0.320743